Protein in INSANE! Membrane UpperLeaflet>POPC=1.0 LowerLeaflet>POPC=1.0
248799
    1AU     AUC    1  41.899  20.843   7.535
    1AU     AUC    2  42.150  20.840   7.376
    1AU     AUC    3  42.139  20.846   7.710
    1AU     AUC    4  41.635  20.837   7.374
    1AU     AUC    5  41.653  20.885   7.698
    1AU     AUC    6  41.735  21.099   7.493
    1AU     AUC    7  42.070  21.104   7.500
    1AU     AUC    8  41.731  20.590   7.554
    1AU     AUC    9  42.059  20.573   7.563
    1AU     AUC   10  41.895  20.698   7.807
    1AU     AUC   11  41.901  21.039   7.769
    1AU     AUC   12  41.899  20.656   7.293
    1AU     AUC   13  41.910  20.961   7.264
    1AU     AUC   14  42.465  20.832   7.229
    1AU     AUC   15  42.464  20.825   7.572
    1AU     AUC   16  42.427  20.835   7.919
    1AU     AUC   17  41.338  20.791   7.229
    1AU     AUC   18  41.326  20.872   7.550
    1AU     AUC   19  41.353  20.936   7.871
    1AU     AUC   20  41.570  21.402   7.426
    1AU     AUC   21  41.927  21.397   7.417
    1AU     AUC   22  42.261  21.386   7.462
    1AU     AUC   23  41.540  20.297   7.574
    1AU     AUC   24  41.885  20.278   7.561
    1AU     AUC   25  42.236  20.276   7.578
    1AU     AUC   26  41.860  20.546   8.118
    1AU     AUC   27  41.884  20.895   8.100
    1AU     AUC   28  41.933  21.253   8.049
    1AU     AUC   29  41.946  20.465   7.015
    1AU     AUC   30  41.891  20.792   6.958
    1AU     AUC   31  41.871  21.106   6.940
    1AU     AUC   32  42.134  20.657   8.028
    1AU     AUC   33  42.175  21.016   8.000
    1AU     AUC   34  42.213  20.678   7.082
    1AU     AUC   35  42.162  20.976   7.082
    1AU     AUC   36  41.603  20.774   8.010
    1AU     AUC   37  41.640  21.120   7.952
    1AU     AUC   38  41.629  20.609   7.109
    1AU     AUC   39  41.579  20.927   7.068
    1AU     AUC   40  42.382  21.109   7.366
    1AU     AUC   41  42.334  21.097   7.699
    1AU     AUC   42  41.434  21.103   7.359
    1AU     AUC   43  41.479  21.197   7.682
    1AU     AUC   44  42.367  20.568   7.431
    1AU     AUC   45  42.304  20.527   7.770
    1AU     AUC   46  41.443  20.523   7.393
    1AU     AUC   47  41.463  20.621   7.729
    1AU     AUC   48  41.790  21.354   7.744
    1AU     AUC   49  42.100  21.318   7.769
    1AU     AUC   50  41.705  20.421   7.842
    1AU     AUC   51  42.009  20.366   7.837
    1AU     AUC   52  41.704  21.252   7.178
    1AU     AUC   53  42.067  21.280   7.201
    1AU     AUC   54  41.759  20.363   7.280
    1AU     AUC   55  42.125  20.412   7.293
    1AU    AUSL   56  42.398  20.778   8.320
    1AU    AUSL   57  42.137  20.386   8.246
    1AU     AUL   58  42.430  20.420   8.429
    1AU    AUSL   59  41.982  20.721   8.466
    1AU    AUSL   60  41.737  21.111   8.441
    1AU     AUL   61  41.968  21.025   8.728
    1AU    AUSL   62  42.078  21.069   8.189
    1AU    AUSL   63  42.531  21.149   8.129
    1AU     AUL   64  42.350  21.087   8.451
    1AU    AUSL   65  42.356  20.870   6.839
    1AU    AUSL   66  42.172  21.247   6.976
    1AU     AUL   67  42.447  21.197   6.719
    1AU    AUSL   68  42.168  20.541   6.618
    1AU    AUSL   69  42.665  20.631   7.023
    1AU     AUL   70  42.539  20.688   6.681
    1AU    AUSL   71  41.975  21.002   6.675
    1AU    AUSL   72  41.799  20.614   6.826
    1AU     AUL   73  41.910  20.670   6.489
    1AU    AUSL   74  41.351  21.063   8.222
    1AU    AUSL   75  41.698  21.362   8.090
    1AU     AUL   76  41.523  21.339   8.403
    1AU    AUSL   77  41.657  20.753   8.191
    1AU    AUSL   78  41.222  20.642   8.132
    1AU     AUL   79  41.211  20.834   8.316
    1AU    AUSL   80  41.360  20.586   6.800
    1AU    AUSL   81  41.609  20.261   6.979
    1AU     AUL   82  41.660  20.304   6.664
    1AU    AUSL   83  41.543  20.953   6.654
    1AU    AUSL   84  41.256  20.950   7.028
    1AU     AUL   85  41.144  20.795   6.772
    1AU    AUSL   86  42.685  21.331   7.507
    1AU    AUSL   87  42.532  21.074   7.174
    1AU     AUL   88  42.798  21.198   7.057
    1AU    AUSL   89  42.867  20.920   7.406
    1AU    AUSL   90  42.816  20.626   7.797
    1AU     AUL   91  43.113  20.696   7.584
    1AU    AUSL   92  42.584  20.978   7.746
    1AU    AUSL   93  42.345  21.368   7.779
    1AU     AUL   94  42.679  21.346   7.860
    1AU    AUSL   95  41.319  21.479   7.467
    1AU    AUSL   96  41.354  21.248   7.836
    1AU     AUL   97  41.043  21.484   7.673
    1AU    AUSL   98  41.135  21.079   7.418
    1AU    AUSL   99  41.269  21.382   7.055
    1AU     AUL  100  41.036  21.304   7.207
    1AU    AUSL  101  40.983  21.050   7.856
    1AU    AUSL  102  40.968  20.687   7.365
    1AU     AUL  103  40.817  21.022   7.538
    1AU    AUSL  104  42.588  20.271   7.650
    1AU    AUSL  105  42.414  20.566   7.951
    1AU     AUL  106  42.712  20.463   8.035
    1AU    AUSL  107  42.548  20.641   7.430
    1AU    AUSL  108  42.559  20.235   7.216
    1AU     AUL  109  42.800  20.444   7.317
    1AU    AUSL  110  41.148  20.322   7.585
    1AU    AUSL  111  41.335  20.522   7.218
    1AU     AUL  112  40.974  20.412   7.250
    1AU    AUSL  113  41.229  20.735   7.715
    1AU    AUSL  114  41.459  20.379   7.878
    1AU     AUL  115  41.135  20.370   7.918
    1AU    AUSL  116  41.962  21.656   7.907
    1AU    AUSL  117  41.507  21.660   7.817
    1AU     AUL  118  41.733  21.708   8.161
    1AU    AUSL  119  41.793  21.544   7.523
    1AU    AUSL  120  42.037  21.658   7.173
    1AU     AUL  121  41.781  21.891   7.468
    1AU    AUSL  122  42.227  21.711   7.558
    1AU    AUSL  123  42.223  21.470   8.189
    1AU     AUL  124  42.336  21.706   7.910
    1AU    AUSL  125  41.831  20.189   8.009
    1AU    AUSL  126  42.258  20.157   7.896
    1AU     AUL  127  42.008  20.094   8.269
    1AU    AUSL  128  41.530  19.987   7.729
    1AU    AUSL  129  41.579  20.359   8.313
    1AU     AUL  130  41.499  20.069   8.081
    1AU    AUSL  131  41.971  19.905   7.702
    1AU    AUSL  132  41.765  20.146   7.393
    1AU     AUL  133  41.663  19.782   7.513
    1AU    AUSL  134  41.877  21.487   6.781
    1AU    AUSL  135  42.430  21.502   7.212
    1AU     AUL  136  42.211  21.589   6.870
    1AU    AUSL  137  41.614  21.616   7.136
    1AU    AUSL  138  41.651  21.187   6.986
    1AU     AUL  139  41.547  21.463   6.785
    1AU    AUSL  140  42.002  20.090   7.015
    1AU    AUSL  141  41.356  20.082   7.293
    1AU     AUL  142  41.661  19.943   7.069
    1AU    AUSL  143  42.199  20.132   7.416
    1AU    AUSL  144  42.230  20.456   7.030
    1AU     AUL  145  42.324  20.101   7.013
    1AU       S  146  42.450  19.965   8.297
    1AU     LIG  147  42.699  19.606   8.446
    1AU     LIG  148  42.950  19.204   8.464
    1AU     LIG  149  43.380  19.048   8.398
    1AU       S  150  42.359  20.729   8.768
    1AU     LIG  151  42.727  21.007   8.793
    1AU     LIG  152  42.988  20.922   9.167
    1AU     LIG  153  42.923  20.712   9.581
    1AU       S  154  42.007  20.551   8.675
    1AU     LIG  155  42.021  20.570   9.127
    1AU     LIG  156  42.417  20.500   9.412
    1AU     LIG  157  42.741  20.238   9.669
    1AU       S  158  41.528  20.917   8.665
    1AU     LIG  159  41.506  20.841   9.129
    1AU     LIG  160  41.132  20.766   9.383
    1AU     LIG  161  40.885  20.830   9.780
    1AU       S  162  41.980  21.481   8.570
    1AU     LIG  163  42.238  21.782   8.776
    1AU     LIG  164  42.568  21.636   9.046
    1AU     LIG  165  42.962  21.429   9.042
    1AU       S  166  42.710  21.366   8.335
    1AU     LIG  167  43.064  21.485   8.546
    1AU     LIG  168  43.245  21.820   8.793
    1AU     LIG  169  43.340  22.141   9.126
    1AU       S  170  42.315  20.957   6.346
    1AU     LIG  171  42.419  21.068   5.922
    1AU     LIG  172  42.721  20.774   5.828
    1AU     LIG  173  42.729  20.429   5.569
    1AU       S  174  42.669  21.599   6.827
    1AU     LIG  175  42.586  21.882   6.509
    1AU     LIG  176  42.812  22.053   6.154
    1AU     LIG  177  43.192  22.129   5.931
    1AU       S  178  42.911  20.437   6.855
    1AU     LIG  179  43.134  20.150   6.586
    1AU     LIG  180  42.848  19.808   6.474
    1AU     LIG  181  42.802  19.377   6.567
    1AU       S  182  42.306  20.745   6.276
    1AU     LIG  183  42.278  20.500   5.910
    1AU     LIG  184  42.233  20.387   5.466
    1AU     LIG  185  42.403  20.490   5.058
    1AU       S  186  41.485  20.603   6.332
    1AU     LIG  187  41.741  20.477   5.976
    1AU     LIG  188  41.728  20.443   5.513
    1AU     LIG  189  41.401  20.515   5.188
    1AU       S  190  42.075  21.105   6.433
    1AU     LIG  191  41.873  20.959   6.053
    1AU     LIG  192  42.038  20.852   5.632
    1AU     LIG  193  42.452  20.861   5.408
    1AU       S  194  41.317  21.047   8.709
    1AU     LIG  195  41.051  20.716   8.780
    1AU     LIG  196  40.981  20.337   8.952
    1AU     LIG  197  40.823  20.342   9.393
    1AU       S  198  41.251  21.651   8.195
    1AU     LIG  199  40.956  21.826   8.505
    1AU     LIG  200  40.697  21.870   8.896
    1AU     LIG  201  40.387  22.053   9.188
    1AU       S  202  41.096  20.390   8.402
    1AU     LIG  203  40.755  20.633   8.341
    1AU     LIG  204  40.489  20.350   8.504
    1AU     LIG  205  40.705  19.947   8.587
    1AU       S  206  41.535  20.722   8.626
    1AU     LIG  207  41.520  20.384   8.927
    1AU     LIG  208  41.347  20.300   9.344
    1AU     LIG  209  41.179  20.397   9.783
    1AU       S  210  41.292  20.502   6.448
    1AU     LIG  211  41.241  20.239   6.089
    1AU     LIG  212  41.271  20.516   5.733
    1AU     LIG  213  41.019  20.767   5.446
    1AU       S  214  41.280  20.074   6.815
    1AU     LIG  215  41.352  19.836   6.456
    1AU     LIG  216  41.074  19.676   6.120
    1AU     LIG  217  40.697  19.506   5.859
    1AU       S  218  40.966  21.210   6.719
    1AU     LIG  219  40.704  21.517   6.591
    1AU     LIG  220  40.720  21.855   6.307
    1AU     LIG  221  40.687  22.108   5.937
    1AU       S  222  41.483  20.882   6.430
    1AU     LIG  223  41.117  20.950   6.224
    1AU     LIG  224  41.216  21.055   5.815
    1AU     LIG  225  41.532  20.920   5.519
    1AU       S  226  42.856  21.642   7.083
    1AU     LIG  227  43.151  21.621   6.703
    1AU     LIG  228  43.284  21.757   6.270
    1AU     LIG  229  43.653  21.921   5.994
    1AU       S  230  42.970  21.385   7.495
    1AU     LIG  231  43.251  21.701   7.511
    1AU     LIG  232  43.699  21.641   7.516
    1AU     LIG  233  44.105  21.722   7.701
    1AU       S  234  43.125  21.147   7.437
    1AU     LIG  235  43.563  21.004   7.518
    1AU     LIG  236  43.943  21.197   7.329
    1AU     LIG  237  44.006  21.636   7.113
    1AU       S  238  43.059  20.271   7.805
    1AU     LIG  239  43.372  20.084   8.026
    1AU     LIG  240  43.530  19.745   7.818
    1AU     LIG  241  43.905  19.732   7.628
    1AU       S  242  42.686  21.636   8.209
    1AU     LIG  243  43.140  21.760   8.109
    1AU     LIG  244  43.389  22.105   8.329
    1AU     LIG  245  43.151  22.311   8.667
    1AU       S  246  43.068  21.130   7.777
    1AU     LIG  247  43.443  21.372   7.868
    1AU     LIG  248  43.904  21.276   7.867
    1AU     LIG  249  44.217  21.066   8.174
    1AU       S  250  41.148  21.463   8.118
    1AU     LIG  251  40.925  21.312   8.466
    1AU     LIG  252  40.512  21.478   8.621
    1AU     LIG  253  40.157  21.736   8.827
    1AU       S  254  41.249  21.796   7.379
    1AU     LIG  255  40.990  22.159   7.413
    1AU     LIG  256  40.853  22.325   7.008
    1AU     LIG  257  40.634  21.992   6.785
    1AU       S  258  40.743  20.963   7.068
    1AU     LIG  259  40.272  20.990   7.023
    1AU     LIG  260  39.901  21.241   7.130
    1AU     LIG  261  39.743  21.673   7.034
    1AU       S  262  41.124  21.642   6.877
    1AU     LIG  263  41.133  22.048   6.667
    1AU     LIG  264  40.821  22.348   6.448
    1AU     LIG  265  40.570  22.597   6.123
    1AU       S  266  40.740  20.569   7.640
    1AU     LIG  267  40.405  20.705   7.422
    1AU     LIG  268  39.945  20.673   7.357
    1AU     LIG  269  39.643  20.393   7.129
    1AU       S  270  40.872  21.049   8.033
    1AU     LIG  271  40.494  21.134   8.236
    1AU     LIG  272  40.174  21.477   8.207
    1AU     LIG  273  39.954  21.533   7.800
    1AU       S  274  42.752  20.120   7.674
    1AU     LIG  275  42.827  19.736   7.495
    1AU     LIG  276  43.189  19.494   7.507
    1AU     LIG  277  43.576  19.512   7.290
    1AU       S  278  42.628  20.036   8.151
    1AU     LIG  279  42.964  19.766   7.993
    1AU     LIG  280  43.289  19.606   8.262
    1AU     LIG  281  43.297  19.501   8.700
    1AU       S  282  43.044  20.207   7.615
    1AU     LIG  283  43.203  20.083   7.242
    1AU     LIG  284  43.589  19.974   7.031
    1AU     LIG  285  44.012  19.765   7.126
    1AU       S  286  42.795  20.155   6.946
    1AU     LIG  287  42.831  19.770   6.992
    1AU     LIG  288  42.489  19.593   6.896
    1AU     LIG  289  42.268  19.379   6.604
    1AU       S  290  41.124  20.196   6.874
    1AU     LIG  291  40.898  20.073   6.485
    1AU     LIG  292  40.593  19.784   6.293
    1AU     LIG  293  40.272  19.459   6.208
    1AU       S  294  40.748  20.314   7.667
    1AU     LIG  295  40.311  20.258   7.638
    1AU     LIG  296  40.081  20.188   7.256
    1AU     LIG  297  39.759  19.864   7.112
    1AU       S  298  41.121  20.189   8.334
    1AU     LIG  299  40.963  19.894   8.043
    1AU     LIG  300  40.684  19.563   8.193
    1AU     LIG  301  40.483  19.460   8.582
    1AU       S  302  40.772  20.617   7.804
    1AU     LIG  303  40.384  20.640   8.002
    1AU     LIG  304  40.051  20.369   8.075
    1AU     LIG  305  39.797  20.264   7.716
    1AU       S  306  41.378  21.826   7.861
    1AU     LIG  307  40.940  21.912   7.889
    1AU     LIG  308  40.628  21.705   8.137
    1AU     LIG  309  40.429  21.961   8.457
    1AU       S  310  41.973  22.001   7.876
    1AU     LIG  311  42.180  22.067   8.256
    1AU     LIG  312  42.111  22.543   8.277
    1AU     LIG  313  41.837  22.870   8.494
    1AU       S  314  42.125  22.167   7.752
    1AU     LIG  315  41.827  22.514   7.783
    1AU     LIG  316  41.668  22.898   7.997
    1AU     LIG  317  41.627  23.288   8.258
    1AU       S  318  41.964  21.954   7.036
    1AU     LIG  319  41.878  22.339   7.276
    1AU     LIG  320  41.936  22.779   7.341
    1AU     LIG  321  42.078  23.168   7.146
    1AU       S  322  42.445  21.573   8.370
    1AU     LIG  323  42.732  21.893   8.621
    1AU     LIG  324  42.843  22.060   9.023
    1AU     LIG  325  42.998  21.824   9.376
    1AU       S  326  42.247  21.988   7.526
    1AU     LIG  327  42.360  22.472   7.455
    1AU     LIG  328  42.260  22.801   7.783
    1AU     LIG  329  42.138  23.092   8.144
    1AU       S  330  41.813  19.704   8.107
    1AU     LIG  331  42.202  19.435   8.220
    1AU     LIG  332  42.359  18.986   8.292
    1AU     LIG  333  42.137  18.572   8.357
    1AU       S  334  42.389  20.008   7.999
    1AU     LIG  335  42.478  19.635   7.848
    1AU     LIG  336  42.695  19.312   8.043
    1AU     LIG  337  43.131  19.238   7.969
    1AU       S  338  41.614  19.633   7.950
    1AU     LIG  339  41.642  19.191   7.895
    1AU     LIG  340  41.703  18.833   8.145
    1AU     LIG  341  41.456  18.599   8.458
    1AU       S  342  41.355  20.303   8.473
    1AU     LIG  343  41.238  19.930   8.731
    1AU     LIG  344  40.991  19.528   8.684
    1AU     LIG  345  40.729  19.365   9.027
    1AU       S  346  42.042  19.693   7.276
    1AU     LIG  347  41.838  19.307   6.997
    1AU     LIG  348  42.032  18.954   6.725
    1AU     LIG  349  42.214  18.656   6.954
    1AU       S  350  41.964  19.742   7.891
    1AU     LIG  351  42.042  19.418   7.699
    1AU     LIG  352  42.294  19.114   7.806
    1AU     LIG  353  42.206  18.680   7.873
    1AU       S  354  41.823  21.858   6.748
    1AU     LIG  355  41.766  22.331   6.760
    1AU     LIG  356  41.981  22.742   6.829
    1AU     LIG  357  42.112  23.163   6.635
    1AU       S  358  42.580  21.693   7.174
    1AU     LIG  359  42.716  22.103   6.960
    1AU     LIG  360  43.052  22.118   6.617
    1AU     LIG  361  43.448  22.229   6.392
    1AU       S  362  41.617  21.881   7.011
    1AU     LIG  363  41.388  22.256   7.103
    1AU     LIG  364  41.497  22.702   7.035
    1AU     LIG  365  41.636  23.127   6.853
    1AU       S  366  41.177  21.262   6.619
    1AU     LIG  367  41.177  21.622   6.357
    1AU     LIG  368  41.166  22.054   6.147
    1AU     LIG  369  41.045  22.470   5.963
    1AU       S  370  41.189  20.023   7.103
    1AU     LIG  371  40.849  19.778   6.961
    1AU     LIG  372  40.910  19.535   6.609
    1AU     LIG  373  40.794  19.264   6.289
    1AU       S  374  42.079  19.729   7.124
    1AU     LIG  375  41.889  19.707   6.691
    1AU     LIG  376  41.797  19.323   6.427
    1AU     LIG  377  42.030  18.971   6.204
    1AU       S  378  42.316  19.822   7.393
    1AU     LIG  379  42.425  19.413   7.377
    1AU     LIG  380  42.321  19.157   7.092
    1AU     LIG  381  42.541  19.007   6.786
    1AU       S  382  42.642  20.241   6.720
    1AU     LIG  383  42.344  19.950   6.539
    1AU     LIG  384  42.369  19.644   6.196
    1AU     LIG  385  42.490  19.192   6.158
    2AU     AUC  386  29.264  39.995   7.539
    2AU     AUC  387  29.516  39.999   7.377
    2AU     AUC  388  29.505  40.001   7.712
    2AU     AUC  389  28.999  39.985   7.381
    2AU     AUC  390  29.017  40.034   7.703
    2AU     AUC  391  29.096  40.248   7.498
    2AU     AUC  392  29.432  40.258   7.503
    2AU     AUC  393  29.100  39.741   7.561
    2AU     AUC  394  29.431  39.730   7.566
    2AU     AUC  395  29.264  39.849   7.810
    2AU     AUC  396  29.263  40.191   7.772
    2AU     AUC  397  29.266  39.809   7.297
    2AU     AUC  398  29.273  40.112   7.269
    2AU     AUC  399  29.831  39.998   7.228
    2AU     AUC  400  29.830  39.992   7.571
    2AU     AUC  401  29.792  39.996   7.922
    2AU     AUC  402  28.701  39.935   7.238
    2AU     AUC  403  28.690  40.017   7.559
    2AU     AUC  404  28.718  40.082   7.876
    2AU     AUC  405  28.928  40.550   7.429
    2AU     AUC  406  29.285  40.546   7.419
    2AU     AUC  407  29.619  40.543   7.460
    2AU     AUC  408  28.916  39.444   7.583
    2AU     AUC  409  29.263  39.432   7.565
    2AU     AUC  410  29.613  39.437   7.581
    2AU     AUC  411  29.236  39.695   8.121
    2AU     AUC  412  29.247  40.044   8.103
    2AU     AUC  413  29.289  40.403   8.053
    2AU     AUC  414  29.312  39.615   7.019
    2AU     AUC  415  29.252  39.941   6.964
    2AU     AUC  416  29.229  40.255   6.945
    2AU     AUC  417  29.504  39.808   8.030
    2AU     AUC  418  29.534  40.167   8.007
    2AU     AUC  419  29.578  39.833   7.084
    2AU     AUC  420  29.526  40.131   7.085
    2AU     AUC  421  28.972  39.921   8.016
    2AU     AUC  422  29.001  40.270   7.955
    2AU     AUC  423  28.994  39.757   7.117
    2AU     AUC  424  28.938  40.075   7.076
    2AU     AUC  425  29.747  40.273   7.366
    2AU     AUC  426  29.692  40.256   7.704
    2AU     AUC  427  28.793  40.249   7.367
    2AU     AUC  428  28.840  40.346   7.687
    2AU     AUC  429  29.738  39.732   7.430
    2AU     AUC  430  29.679  39.688   7.769
    2AU     AUC  431  28.812  39.670   7.404
    2AU     AUC  432  28.832  39.767   7.737
    2AU     AUC  433  29.150  40.505   7.746
    2AU     AUC  434  29.457  40.470   7.772
    2AU     AUC  435  29.082  39.570   7.847
    2AU     AUC  436  29.388  39.520   7.839
    2AU     AUC  437  29.062  40.398   7.183
    2AU     AUC  438  29.427  40.430   7.204
    2AU     AUC  439  29.130  39.514   7.287
    2AU     AUC  440  29.498  39.569   7.295
    2AU    AUSL  441  29.762  39.934   8.327
    2AU    AUSL  442  29.519  39.537   8.250
    2AU     AUL  443  29.812  39.579   8.429
    2AU    AUSL  444  29.344  39.865   8.467
    2AU    AUSL  445  29.097  40.261   8.442
    2AU     AUL  446  29.318  40.157   8.736
    2AU    AUSL  447  29.437  40.215   8.192
    2AU    AUSL  448  29.884  40.310   8.138
    2AU     AUL  449  29.699  40.239   8.461
    2AU    AUSL  450  29.711  40.020   6.845
    2AU    AUSL  451  29.529  40.398   6.979
    2AU     AUL  452  29.806  40.334   6.715
    2AU    AUSL  453  29.525  39.690   6.622
    2AU    AUSL  454  30.032  39.791   7.018
    2AU     AUL  455  29.886  39.825   6.674
    2AU    AUSL  456  29.332  40.152   6.677
    2AU    AUSL  457  29.160  39.766   6.834
    2AU     AUL  458  29.269  39.819   6.497
    2AU    AUSL  459  28.711  40.208   8.223
    2AU    AUSL  460  29.060  40.516   8.092
    2AU     AUL  461  28.889  40.492   8.405
    2AU    AUSL  462  29.020  39.902   8.192
    2AU    AUSL  463  28.595  39.777   8.145
    2AU     AUL  464  28.551  39.983   8.308
    2AU    AUSL  465  28.721  39.731   6.810
    2AU    AUSL  466  28.978  39.409   6.988
    2AU     AUL  467  29.016  39.456   6.673
    2AU    AUSL  468  28.900  40.100   6.661
    2AU    AUSL  469  28.615  40.093   7.038
    2AU     AUL  470  28.503  39.948   6.780
    2AU    AUSL  471  30.023  40.505   7.512
    2AU    AUSL  472  29.910  40.242   7.157
    2AU     AUL  473  30.215  40.442   7.125
    2AU    AUSL  474  30.230  40.099   7.417
    2AU    AUSL  475  30.186  39.799   7.795
    2AU     AUL  476  30.496  39.858   7.585
    2AU    AUSL  477  29.943  40.145   7.753
    2AU    AUSL  478  29.691  40.525   7.793
    2AU     AUL  479  30.031  40.516   7.863
    2AU    AUSL  480  28.675  40.625   7.470
    2AU    AUSL  481  28.716  40.398   7.841
    2AU     AUL  482  28.402  40.630   7.680
    2AU    AUSL  483  28.496  40.222   7.428
    2AU    AUSL  484  28.625  40.525   7.058
    2AU     AUL  485  28.392  40.445   7.215
    2AU    AUSL  486  28.347  40.195   7.864
    2AU    AUSL  487  28.335  39.828   7.377
    2AU     AUL  488  28.180  40.163   7.548
    2AU    AUSL  489  29.963  39.443   7.649
    2AU    AUSL  490  29.787  39.729   7.953
    2AU     AUL  491  30.090  39.631   8.031
    2AU    AUSL  492  29.918  39.811   7.426
    2AU    AUSL  493  29.935  39.399   7.217
    2AU     AUL  494  30.175  39.623   7.314
    2AU    AUSL  495  28.521  39.465   7.597
    2AU    AUSL  496  28.703  39.665   7.228
    2AU     AUL  497  28.345  39.549   7.262
    2AU    AUSL  498  28.595  39.878   7.729
    2AU    AUSL  499  28.836  39.521   7.887
    2AU     AUL  500  28.512  39.509   7.933
    2AU    AUSL  501  29.320  40.814   7.904
    2AU    AUSL  502  28.865  40.812   7.817
    2AU     AUL  503  29.087  40.864   8.155
    2AU    AUSL  504  29.150  40.692   7.525
    2AU    AUSL  505  29.392  40.802   7.174
    2AU     AUL  506  29.139  41.035   7.469
    2AU    AUSL  507  29.589  40.861   7.554
    2AU    AUSL  508  29.560  40.621   8.201
    2AU     AUL  509  29.685  40.861   7.917
    2AU    AUSL  510  29.215  39.339   8.010
    2AU    AUSL  511  29.643  39.314   7.898
    2AU     AUL  512  29.399  39.243   8.264
    2AU    AUSL  513  28.917  39.131   7.736
    2AU    AUSL  514  28.970  39.506   8.319
    2AU     AUL  515  28.891  39.210   8.083
    2AU    AUSL  516  29.360  39.059   7.704
    2AU    AUSL  517  29.143  39.300   7.400
    2AU     AUL  518  29.069  38.940   7.512
    2AU    AUSL  519  29.228  40.631   6.782
    2AU    AUSL  520  29.796  40.670   7.188
    2AU     AUL  521  29.540  40.723   6.859
    2AU    AUSL  522  28.968  40.762   7.138
    2AU    AUSL  523  29.008  40.332   6.994
    2AU     AUL  524  28.902  40.605   6.789
    2AU    AUSL  525  29.373  39.239   7.021
    2AU    AUSL  526  28.735  39.225   7.307
    2AU     AUL  527  29.039  39.092   7.070
    2AU    AUSL  528  29.577  39.295   7.418
    2AU    AUSL  529  29.597  39.607   7.034
    2AU     AUL  530  29.693  39.250   7.020
    2AU       S  531  29.841  39.118   8.302
    2AU     LIG  532  29.878  38.658   8.459
    2AU     LIG  533  30.001  38.168   8.509
    2AU     LIG  534  30.440  37.984   8.635
    2AU       S  535  29.713  39.873   8.775
    2AU     LIG  536  30.098  40.109   8.776
    2AU     LIG  537  30.328  40.106   9.187
    2AU     LIG  538  30.241  39.896   9.614
    2AU       S  539  29.366  39.686   8.676
    2AU     LIG  540  29.365  39.724   9.137
    2AU     LIG  541  29.696  39.672   9.501
    2AU     LIG  542  29.902  39.589   9.927
    2AU       S  543  28.877  40.064   8.657
    2AU     LIG  544  28.925  40.050   9.114
    2AU     LIG  545  28.623  39.893   9.434
    2AU     LIG  546  28.417  39.950   9.864
    2AU       S  547  29.342  40.616   8.598
    2AU     LIG  548  29.536  40.958   8.787
    2AU     LIG  549  29.882  40.881   9.048
    2AU     LIG  550  30.192  40.576   8.990
    2AU       S  551  30.053  40.521   8.339
    2AU     LIG  552  30.426  40.487   8.549
    2AU     LIG  553  30.606  40.831   8.801
    2AU     LIG  554  30.771  41.215   9.014
    2AU       S  555  29.671  40.106   6.340
    2AU     LIG  556  30.063  40.083   6.070
    2AU     LIG  557  30.278  39.749   5.859
    2AU     LIG  558  30.145  39.400   5.603
    2AU       S  559  29.966  40.784   6.742
    2AU     LIG  560  29.948  41.192   6.552
    2AU     LIG  561  30.151  41.393   6.183
    2AU     LIG  562  30.558  41.357   5.973
    2AU       S  563  30.257  39.576   6.842
    2AU     LIG  564  30.206  39.616   6.352
    2AU     LIG  565  30.187  39.240   6.091
    2AU     LIG  566  30.360  38.797   6.030
    2AU       S  567  29.648  39.922   6.274
    2AU     LIG  568  29.788  39.607   6.023
    2AU     LIG  569  29.627  39.472   5.626
    2AU     LIG  570  29.834  39.544   5.219
    2AU       S  571  28.845  39.754   6.342
    2AU     LIG  572  29.087  39.653   5.978
    2AU     LIG  573  29.079  39.681   5.509
    2AU     LIG  574  28.744  39.865   5.215
    2AU       S  575  29.418  40.263   6.447
    2AU     LIG  576  29.196  40.138   6.087
    2AU     LIG  577  29.451  39.958   5.758
    2AU     LIG  578  29.877  39.920   5.584
    2AU       S  579  28.669  40.194   8.699
    2AU     LIG  580  28.413  39.853   8.794
    2AU     LIG  581  28.301  39.602   9.126
    2AU     LIG  582  28.213  39.569   9.575
    2AU       S  583  28.607  40.789   8.189
    2AU     LIG  584  28.398  41.023   8.472
    2AU     LIG  585  28.224  40.874   8.867
    2AU     LIG  586  27.871  40.971   9.148
    2AU       S  587  28.488  39.535   8.418
    2AU     LIG  588  28.068  39.509   8.247
    2AU     LIG  589  27.815  39.121   8.233
    2AU     LIG  590  27.682  38.733   8.447
    2AU       S  591  28.888  39.876   8.612
    2AU     LIG  592  28.855  39.583   8.955
    2AU     LIG  593  28.710  39.389   9.347
    2AU     LIG  594  28.680  39.499   9.795
    2AU       S  595  28.652  39.660   6.450
    2AU     LIG  596  28.514  39.593   6.019
    2AU     LIG  597  28.657  39.894   5.724
    2AU     LIG  598  28.460  40.232   5.480
    2AU       S  599  28.643  39.216   6.829
    2AU     LIG  600  28.349  38.962   6.592
    2AU     LIG  601  28.275  38.947   6.139
    2AU     LIG  602  27.881  38.855   5.919
    2AU       S  603  28.305  40.359   6.730
    2AU     LIG  604  28.104  40.723   6.526
    2AU     LIG  605  28.034  41.182   6.455
    2AU     LIG  606  27.963  41.472   6.080
    2AU       S  607  28.839  40.026   6.441
    2AU     LIG  608  28.613  40.199   6.150
    2AU     LIG  609  28.816  40.389   5.811
    2AU     LIG  610  29.042  40.198   5.475
    2AU       S  611  30.074  40.709   6.800
    2AU     LIG  612  30.482  40.783   6.642
    2AU     LIG  613  30.657  40.914   6.237
    2AU     LIG  614  31.044  41.029   6.025
    2AU       S  615  30.380  40.563   7.561
    2AU     LIG  616  30.568  40.780   7.213
    2AU     LIG  617  31.007  40.881   7.304
    2AU     LIG  618  31.275  40.976   7.673
    2AU       S  619  30.457  40.314   7.522
    2AU     LIG  620  30.790  40.312   7.224
    2AU     LIG  621  31.229  40.422   7.266
    2AU     LIG  622  31.566  40.751   7.325
    2AU       S  623  30.424  39.422   7.795
    2AU     LIG  624  30.736  39.319   8.035
    2AU     LIG  625  31.107  39.293   7.837
    2AU     LIG  626  31.533  39.219   7.930
    2AU       S  627  30.016  40.780   8.236
    2AU     LIG  628  30.401  40.948   8.328
    2AU     LIG  629  30.567  41.303   8.540
    2AU     LIG  630  30.531  41.662   8.845
    2AU       S  631  30.413  40.269   7.826
    2AU     LIG  632  30.890  40.467   7.708
    2AU     LIG  633  31.366  40.447   7.748
    2AU     LIG  634  31.702  40.736   7.873
    2AU       S  635  28.508  40.610   8.128
    2AU     LIG  636  28.155  40.579   8.421
    2AU     LIG  637  27.766  40.759   8.636
    2AU     LIG  638  27.492  41.107   8.832
    2AU       S  639  28.607  40.942   7.382
    2AU     LIG  640  28.351  41.286   7.470
    2AU     LIG  641  28.062  41.304   7.163
    2AU     LIG  642  27.981  40.920   6.971
    2AU       S  643  28.100  40.098   7.082
    2AU     LIG  644  27.619  40.134   7.048
    2AU     LIG  645  27.203  40.373   7.052
    2AU     LIG  646  27.141  40.836   7.011
    2AU       S  647  28.480  40.781   6.888
    2AU     LIG  648  28.468  41.196   6.764
    2AU     LIG  649  28.239  41.584   6.744
    2AU     LIG  650  27.887  41.806   6.548
    2AU       S  651  28.111  39.711   7.654
    2AU     LIG  652  27.758  39.871   7.476
    2AU     LIG  653  27.379  39.743   7.298
    2AU     LIG  654  27.218  39.380   7.090
    2AU       S  655  28.224  40.218   8.035
    2AU     LIG  656  27.892  40.144   8.313
    2AU     LIG  657  27.452  40.289   8.232
    2AU     LIG  658  27.215  40.532   7.903
    2AU       S  659  30.123  39.283   7.664
    2AU     LIG  660  30.308  38.907   7.550
    2AU     LIG  661  30.745  38.907   7.723
    2AU     LIG  662  31.219  38.814   7.734
    2AU       S  663  30.008  39.207   8.160
    2AU     LIG  664  30.345  38.977   8.049
    2AU     LIG  665  30.712  38.838   8.277
    2AU     LIG  666  30.645  38.886   8.743
    2AU       S  667  30.415  39.383   7.610
    2AU     LIG  668  30.623  39.245   7.301
    2AU     LIG  669  31.038  39.099   7.339
    2AU     LIG  670  31.458  39.060   7.227
    2AU       S  671  30.167  39.303   6.978
    2AU     LIG  672  30.327  38.976   6.965
    2AU     LIG  673  30.074  38.775   6.706
    2AU     LIG  674  30.192  38.523   6.430
    2AU       S  675  28.506  39.332   6.897
    2AU     LIG  676  28.201  39.455   6.623
    2AU     LIG  677  27.904  39.197   6.384
    2AU     LIG  678  27.559  38.911   6.318
    2AU       S  679  28.124  39.473   7.681
    2AU     LIG  680  27.727  39.333   7.751
    2AU     LIG  681  27.318  39.216   7.584
    2AU     LIG  682  27.067  38.852   7.643
    2AU       S  683  28.526  39.319   8.349
    2AU     LIG  684  28.300  39.085   8.053
    2AU     LIG  685  28.161  38.707   8.213
    2AU     LIG  686  28.067  38.359   8.485
    2AU       S  687  28.150  39.764   7.823
    2AU     LIG  688  27.718  39.799   7.978
    2AU     LIG  689  27.313  39.671   7.811
    2AU     LIG  690  26.914  39.410   7.834
    2AU       S  691  28.713  40.982   7.870
    2AU     LIG  692  28.249  41.038   7.917
    2AU     LIG  693  27.929  41.031   8.226
    2AU     LIG  694  27.956  41.239   8.642
    2AU       S  695  29.333  41.166   7.878
    2AU     LIG  696  29.668  41.299   8.159
    2AU     LIG  697  29.592  41.699   8.351
    2AU     LIG  698  29.220  41.980   8.304
    2AU       S  699  29.393  41.359   7.720
    2AU     LIG  700  29.106  41.695   7.842
    2AU     LIG  701  28.888  42.107   7.931
    2AU     LIG  702  29.109  42.528   7.927
    2AU       S  703  29.320  41.096   7.039
    2AU     LIG  704  29.242  41.502   7.237
    2AU     LIG  705  29.485  41.871   7.158
    2AU     LIG  706  29.835  42.078   6.916
    2AU       S  707  29.776  40.732   8.382
    2AU     LIG  708  29.983  41.123   8.587
    2AU     LIG  709  30.258  41.199   8.934
    2AU     LIG  710  30.405  40.945   9.285
    2AU       S  711  29.594  41.167   7.557
    2AU     LIG  712  29.784  41.628   7.673
    2AU     LIG  713  29.566  41.972   7.914
    2AU     LIG  714  29.537  42.377   8.214
    2AU       S  715  29.206  38.852   8.103
    2AU     LIG  716  29.489  38.506   8.179
    2AU     LIG  717  29.480  38.129   8.381
    2AU     LIG  718  29.629  37.769   8.642
    2AU       S  719  29.784  39.154   7.995
    2AU     LIG  720  29.909  38.743   7.874
    2AU     LIG  721  29.951  38.303   8.013
    2AU     LIG  722  30.324  38.031   8.117
    2AU       S  723  29.021  38.774   7.944
    2AU     LIG  724  29.074  38.311   7.893
    2AU     LIG  725  29.128  37.864   8.045
    2AU     LIG  726  29.129  37.640   8.438
    2AU       S  727  28.767  39.431   8.489
    2AU     LIG  728  28.503  39.228   8.828
    2AU     LIG  729  28.146  38.977   8.667
    2AU     LIG  730  27.936  38.636   8.896
    2AU       S  731  29.470  38.850   7.296
    2AU     LIG  732  29.148  38.498   7.311
    2AU     LIG  733  28.975  38.169   7.090
    2AU     LIG  734  29.282  37.871   6.924
    2AU       S  735  29.370  38.890   7.882
    2AU     LIG  736  29.480  38.533   7.683
    2AU     LIG  737  29.526  38.079   7.799
    2AU     LIG  738  29.677  37.766   8.111
    2AU       S  739  29.164  41.005   6.749
    2AU     LIG  740  29.194  41.452   6.716
    2AU     LIG  741  29.584  41.709   6.641
    2AU     LIG  742  29.621  42.144   6.449
    2AU       S  743  29.948  40.853   7.096
    2AU     LIG  744  30.288  41.155   6.940
    2AU     LIG  745  30.523  41.310   6.543
    2AU     LIG  746  30.918  41.481   6.313
    2AU       S  747  28.971  41.027   7.015
    2AU     LIG  748  28.745  41.398   7.142
    2AU     LIG  749  28.777  41.761   6.894
    2AU     LIG  750  29.157  41.959   6.720
    2AU       S  751  28.531  40.413   6.618
    2AU     LIG  752  28.584  40.836   6.389
    2AU     LIG  753  28.482  41.304   6.249
    2AU     LIG  754  28.328  41.767   6.257
    2AU       S  755  28.561  39.142   7.133
    2AU     LIG  756  28.094  39.100   7.102
    2AU     LIG  757  27.838  38.882   6.795
    2AU     LIG  758  27.976  38.643   6.420
    2AU       S  759  29.459  38.870   7.132
    2AU     LIG  760  29.575  38.830   6.689
    2AU     LIG  761  29.691  38.423   6.448
    2AU     LIG  762  29.586  37.961   6.513
    2AU       S  763  29.725  38.985   7.416
    2AU     LIG  764  29.971  38.715   7.206
    2AU     LIG  765  29.735  38.435   6.986
    2AU     LIG  766  29.338  38.384   6.817
    2AU       S  767  30.024  39.385   6.740
    2AU     LIG  768  29.791  39.237   6.429
    2AU     LIG  769  29.850  38.843   6.190
    2AU     LIG  770  29.989  38.443   5.965
    3AU     AUC  771  16.005  33.434   7.538
    3AU     AUC  772  16.253  33.427   7.373
    3AU     AUC  773  16.246  33.426   7.707
    3AU     AUC  774  15.738  33.437   7.383
    3AU     AUC  775  15.762  33.482   7.705
    3AU     AUC  776  15.849  33.695   7.501
    3AU     AUC  777  16.185  33.692   7.503
    3AU     AUC  778  15.830  33.186   7.560
    3AU     AUC  779  16.161  33.161   7.558
    3AU     AUC  780  16.003  33.285   7.807
    3AU     AUC  781  16.017  33.627   7.773
    3AU     AUC  782  15.995  33.251   7.293
    3AU     AUC  783  16.014  33.554   7.268
    3AU     AUC  784  16.563  33.413   7.221
    3AU     AUC  785  16.568  33.404   7.565
    3AU     AUC  786  16.537  33.404   7.915
    3AU     AUC  787  15.437  33.402   7.247
    3AU     AUC  788  15.434  33.482   7.568
    3AU     AUC  789  15.469  33.542   7.883
    3AU     AUC  790  15.694  34.005   7.439
    3AU     AUC  791  16.050  33.985   7.422
    3AU     AUC  792  16.383  33.969   7.459
    3AU     AUC  793  15.633  32.897   7.582
    3AU     AUC  794  15.980  32.871   7.555
    3AU     AUC  795  16.331  32.861   7.567
    3AU     AUC  796  15.973  33.128   8.117
    3AU     AUC  797  15.998  33.476   8.102
    3AU     AUC  798  16.059  33.833   8.055
    3AU     AUC  799  16.030  33.060   7.012
    3AU     AUC  800  15.983  33.388   6.959
    3AU     AUC  801  15.971  33.702   6.945
    3AU     AUC  802  16.243  33.230   8.025
    3AU     AUC  803  16.290  33.590   8.002
    3AU     AUC  804  16.306  33.265   7.074
    3AU     AUC  805  16.262  33.564   7.081
    3AU     AUC  806  15.717  33.366   8.019
    3AU     AUC  807  15.762  33.715   7.961
    3AU     AUC  808  15.719  33.212   7.118
    3AU     AUC  809  15.678  33.531   7.078
    3AU     AUC  810  16.490  33.694   7.360
    3AU     AUC  811  16.446  33.680   7.700
    3AU     AUC  812  15.547  33.711   7.374
    3AU     AUC  813  15.603  33.803   7.696
    3AU     AUC  814  16.468  33.150   7.414
    3AU     AUC  815  16.411  33.107   7.756
    3AU     AUC  816  15.536  33.131   7.409
    3AU     AUC  817  15.564  33.221   7.742
    3AU     AUC  818  15.920  33.946   7.752
    3AU     AUC  819  16.226  33.898   7.774
    3AU     AUC  820  15.809  33.014   7.842
    3AU     AUC  821  16.113  32.949   7.831
    3AU     AUC  822  15.816  33.850   7.187
    3AU     AUC  823  16.180  33.871   7.200
    3AU     AUC  824  15.846  32.962   7.283
    3AU     AUC  825  16.216  33.002   7.285
    3AU    AUSL  826  16.509  33.340   8.321
    3AU    AUSL  827  16.253  32.949   8.246
    3AU     AUL  828  16.554  32.998   8.421
    3AU    AUSL  829  16.090  33.287   8.461
    3AU    AUSL  830  15.862  33.692   8.446
    3AU     AUL  831  16.079  33.581   8.733
    3AU    AUSL  832  16.198  33.640   8.191
    3AU    AUSL  833  16.650  33.706   8.131
    3AU     AUL  834  16.462  33.645   8.455
    3AU    AUSL  835  16.445  33.456   6.835
    3AU    AUSL  836  16.275  33.834   6.977
    3AU     AUL  837  16.535  33.782   6.712
    3AU    AUSL  838  16.245  33.140   6.609
    3AU    AUSL  839  16.753  33.205   6.999
    3AU     AUL  840  16.630  33.292   6.664
    3AU    AUSL  841  16.065  33.598   6.676
    3AU    AUSL  842  15.882  33.214   6.827
    3AU     AUL  843  15.978  33.269   6.484
    3AU    AUSL  844  15.471  33.661   8.230
    3AU    AUSL  845  15.835  33.958   8.103
    3AU     AUL  846  15.665  33.932   8.419
    3AU    AUSL  847  15.764  33.342   8.192
    3AU    AUSL  848  15.334  33.235   8.155
    3AU     AUL  849  15.293  33.449   8.311
    3AU    AUSL  850  15.442  33.198   6.816
    3AU    AUSL  851  15.687  32.868   6.988
    3AU     AUL  852  15.726  32.911   6.671
    3AU    AUSL  853  15.631  33.560   6.664
    3AU    AUSL  854  15.356  33.564   7.046
    3AU     AUL  855  15.230  33.414   6.798
    3AU    AUSL  856  16.784  33.908   7.498
    3AU    AUSL  857  16.638  33.650   7.164
    3AU     AUL  858  16.891  33.751   7.035
    3AU    AUSL  859  16.975  33.504   7.409
    3AU    AUSL  860  16.914  33.199   7.782
    3AU     AUL  861  17.156  33.431   7.765
    3AU    AUSL  862  16.684  33.553   7.737
    3AU    AUSL  863  16.472  33.945   7.795
    3AU     AUL  864  16.843  33.845   7.864
    3AU    AUSL  865  15.446  34.092   7.486
    3AU    AUSL  866  15.484  33.860   7.853
    3AU     AUL  867  15.177  34.114   7.698
    3AU    AUSL  868  15.251  33.696   7.439
    3AU    AUSL  869  15.381  33.996   7.074
    3AU     AUL  870  15.152  33.927   7.235
    3AU    AUSL  871  15.104  33.678   7.871
    3AU    AUSL  872  15.068  33.310   7.391
    3AU     AUL  873  14.925  33.648   7.557
    3AU    AUSL  874  16.682  32.852   7.628
    3AU    AUSL  875  16.518  33.140   7.945
    3AU     AUL  876  16.826  33.017   8.010
    3AU    AUSL  877  16.652  33.224   7.411
    3AU    AUSL  878  16.643  32.815   7.195
    3AU     AUL  879  16.906  33.034   7.286
    3AU    AUSL  880  15.238  32.937   7.602
    3AU    AUSL  881  15.425  33.132   7.234
    3AU     AUL  882  15.063  33.032   7.272
    3AU    AUSL  883  15.333  33.344   7.741
    3AU    AUSL  884  15.559  32.974   7.888
    3AU     AUL  885  15.234  32.969   7.936
    3AU    AUSL  886  16.109  34.238   7.911
    3AU    AUSL  887  15.655  34.265   7.830
    3AU     AUL  888  15.891  34.297   8.176
    3AU    AUSL  889  15.927  34.136   7.531
    3AU    AUSL  890  16.164  34.249   7.177
    3AU     AUL  891  15.935  34.477   7.471
    3AU    AUSL  892  16.371  34.283   7.556
    3AU    AUSL  893  16.348  34.037   8.204
    3AU     AUL  894  16.486  34.269   7.912
    3AU    AUSL  895  15.938  32.782   7.998
    3AU    AUSL  896  16.362  32.732   7.883
    3AU     AUL  897  16.110  32.659   8.246
    3AU    AUSL  898  15.624  32.583   7.732
    3AU    AUSL  899  15.703  32.946   8.317
    3AU     AUL  900  15.611  32.662   8.081
    3AU    AUSL  901  16.063  32.491   7.693
    3AU    AUSL  902  15.852  32.745   7.396
    3AU     AUL  903  15.764  32.384   7.497
    3AU    AUSL  904  15.986  34.084   6.787
    3AU    AUSL  905  16.556  34.087   7.186
    3AU     AUL  906  16.328  34.183   6.871
    3AU    AUSL  907  15.737  34.214   7.149
    3AU    AUSL  908  15.756  33.789   6.995
    3AU     AUL  909  15.652  34.064   6.797
    3AU    AUSL  910  16.074  32.678   7.013
    3AU    AUSL  911  15.439  32.691   7.308
    3AU     AUL  912  15.727  32.550   7.062
    3AU    AUSL  913  16.286  32.722   7.406
    3AU    AUSL  914  16.311  33.040   7.018
    3AU     AUL  915  16.390  32.673   7.011
    3AU       S  916  16.551  32.540   8.294
    3AU     LIG  917  16.710  32.108   8.306
    3AU     LIG  918  16.714  31.849   8.664
    3AU     LIG  919  17.014  31.865   9.001
    3AU       S  920  16.463  33.284   8.773
    3AU     LIG  921  16.818  33.575   8.797
    3AU     LIG  922  17.012  33.646   9.205
    3AU     LIG  923  16.984  33.387   9.610
    3AU       S  924  16.113  33.111   8.672
    3AU     LIG  925  16.131  33.145   9.140
    3AU     LIG  926  16.503  33.125   9.461
    3AU     LIG  927  16.801  32.918   9.784
    3AU       S  928  15.637  33.492   8.654
    3AU     LIG  929  15.710  33.470   9.102
    3AU     LIG  930  15.384  33.453   9.402
    3AU     LIG  931  15.184  33.489   9.829
    3AU       S  932  16.125  34.038   8.598
    3AU     LIG  933  16.318  34.365   8.817
    3AU     LIG  934  16.667  34.301   9.062
    3AU     LIG  935  16.978  34.071   8.863
    3AU       S  936  16.832  33.911   8.339
    3AU     LIG  937  17.253  34.022   8.438
    3AU     LIG  938  17.355  34.380   8.693
    3AU     LIG  939  17.509  34.712   8.965
    3AU       S  940  16.399  33.553   6.334
    3AU     LIG  941  16.687  33.553   5.962
    3AU     LIG  942  16.932  33.210   5.808
    3AU     LIG  943  16.869  32.789   5.669
    3AU       S  944  16.786  34.168   6.791
    3AU     LIG  945  16.909  34.506   6.524
    3AU     LIG  946  17.012  34.578   6.090
    3AU     LIG  947  17.341  34.825   5.934
    3AU       S  948  16.938  32.957   6.798
    3AU     LIG  949  16.946  32.849   6.298
    3AU     LIG  950  16.963  32.404   6.156
    3AU     LIG  951  17.097  31.973   6.342
    3AU       S  952  16.371  33.345   6.273
    3AU     LIG  953  16.484  33.017   5.994
    3AU     LIG  954  16.379  32.918   5.550
    3AU     LIG  955  16.637  32.986   5.168
    3AU       S  956  15.543  33.210   6.347
    3AU     LIG  957  15.699  33.240   5.947
    3AU     LIG  958  15.824  33.049   5.564
    3AU     LIG  959  15.589  33.085   5.179
    3AU       S  960  16.151  33.703   6.446
    3AU     LIG  961  15.972  33.636   6.070
    3AU     LIG  962  16.191  33.385   5.759
    3AU     LIG  963  16.561  33.395   5.479
    3AU       S  964  15.439  33.635   8.706
    3AU     LIG  965  15.158  33.331   8.796
    3AU     LIG  966  15.170  33.036   9.102
    3AU     LIG  967  15.096  33.057   9.549
    3AU       S  968  15.412  34.265   8.213
    3AU     LIG  969  15.128  34.463   8.463
    3AU     LIG  970  14.908  34.572   8.829
    3AU     LIG  971  14.524  34.666   9.052
    3AU       S  972  15.222  33.001   8.425
    3AU     LIG  973  14.803  32.936   8.230
    3AU     LIG  974  14.634  32.507   8.155
    3AU     LIG  975  14.392  32.103   8.195
    3AU       S  976  15.632  33.314   8.604
    3AU     LIG  977  15.660  33.004   8.926
    3AU     LIG  978  15.615  32.979   9.370
    3AU     LIG  979  15.570  33.141   9.791
    3AU       S  980  15.360  33.126   6.465
    3AU     LIG  981  15.239  32.806   6.187
    3AU     LIG  982  15.320  32.930   5.739
    3AU     LIG  983  15.361  33.353   5.555
    3AU       S  984  15.339  32.697   6.824
    3AU     LIG  985  15.135  32.413   6.544
    3AU     LIG  986  14.903  32.265   6.174
    3AU     LIG  987  14.620  32.276   5.805
    3AU       S  988  15.068  33.835   6.738
    3AU     LIG  989  14.695  34.024   6.626
    3AU     LIG  990  14.749  34.449   6.469
    3AU     LIG  991  14.875  34.614   6.054
    3AU       S  992  15.553  33.489   6.441
    3AU     LIG  993  15.437  33.732   6.131
    3AU     LIG  994  15.609  33.779   5.721
    3AU     LIG  995  15.834  33.537   5.410
    3AU       S  996  16.970  34.190   7.005
    3AU     LIG  997  17.305  34.247   6.761
    3AU     LIG  998  17.405  34.330   6.326
    3AU     LIG  999  17.583  34.374   5.901
    3AU       S 1000  17.021  33.994   7.446
    3AU     LIG 1001  17.251  34.374   7.414
    3AU     LIG 1002  17.682  34.421   7.585
    3AU     LIG 1003  17.996  34.601   7.890
    3AU       S 1004  17.222  33.711   7.376
    3AU     LIG 1005  17.526  34.014   7.190
    3AU     LIG 1006  17.983  34.087   7.155
    3AU     LIG 1007  18.361  34.338   6.974
    3AU       S 1008  17.165  32.956   7.690
    3AU     LIG 1009  17.428  32.755   8.008
    3AU     LIG 1010  17.839  32.561   8.027
    3AU     LIG 1011  18.292  32.641   7.925
    3AU       S 1012  16.825  34.161   8.203
    3AU     LIG 1013  17.137  34.479   8.213
    3AU     LIG 1014  17.228  34.839   8.473
    3AU     LIG 1015  17.233  35.127   8.834
    3AU       S 1016  17.234  33.870   7.617
    3AU     LIG 1017  17.670  33.910   7.682
    3AU     LIG 1018  18.092  34.074   7.757
    3AU     LIG 1019  18.496  34.316   7.830
    3AU       S 1020  15.315  34.083   8.133
    3AU     LIG 1021  15.074  33.944   8.472
    3AU     LIG 1022  14.678  34.174   8.521
    3AU     LIG 1023  14.244  34.269   8.671
    3AU       S 1024  15.393  34.419   7.403
    3AU     LIG 1025  15.198  34.777   7.242
    3AU     LIG 1026  14.979  34.717   6.893
    3AU     LIG 1027  14.710  34.374   6.981
    3AU       S 1028  14.857  33.591   7.090
    3AU     LIG 1029  14.561  33.406   6.816
    3AU     LIG 1030  14.164  33.632   6.782
    3AU     LIG 1031  14.190  34.013   7.014
    3AU       S 1032  15.236  34.256   6.903
    3AU     LIG 1033  15.416  34.549   6.660
    3AU     LIG 1034  15.181  34.804   6.433
    3AU     LIG 1035  15.175  35.072   6.105
    3AU       S 1036  14.845  33.200   7.672
    3AU     LIG 1037  14.554  33.298   7.359
    3AU     LIG 1038  14.185  33.247   7.141
    3AU     LIG 1039  13.855  33.029   7.254
    3AU       S 1040  14.999  33.719   8.030
    3AU     LIG 1041  14.700  33.588   8.287
    3AU     LIG 1042  14.336  33.865   8.260
    3AU     LIG 1043  14.329  34.299   8.119
    3AU       S 1044  16.843  32.705   7.639
    3AU     LIG 1045  16.951  32.310   7.537
    3AU     LIG 1046  17.396  32.229   7.643
    3AU     LIG 1047  17.722  31.987   7.401
    3AU       S 1048  16.709  32.612   8.165
    3AU     LIG 1049  17.043  32.425   8.017
    3AU     LIG 1050  17.432  32.259   8.197
    3AU     LIG 1051  17.544  32.116   8.643
    3AU       S 1052  17.133  32.790   7.599
    3AU     LIG 1053  17.249  32.607   7.247
    3AU     LIG 1054  17.663  32.460   7.194
    3AU     LIG 1055  18.029  32.236   7.044
    3AU       S 1056  16.854  32.713   6.931
    3AU     LIG 1057  16.886  32.340   6.722
    3AU     LIG 1058  16.887  31.910   6.819
    3AU     LIG 1059  16.785  31.578   6.558
    3AU       S 1060  15.212  32.808   6.904
    3AU     LIG 1061  14.908  32.990   6.713
    3AU     LIG 1062  14.726  32.708   6.417
    3AU     LIG 1063  14.388  32.473   6.220
    3AU       S 1064  14.833  32.971   7.695
    3AU     LIG 1065  14.604  32.788   7.335
    3AU     LIG 1066  14.218  32.712   7.094
    3AU     LIG 1067  13.776  32.531   7.205
    3AU       S 1068  15.253  32.778   8.351
    3AU     LIG 1069  15.157  32.400   8.146
    3AU     LIG 1070  14.900  32.020   8.215
    3AU     LIG 1071  14.797  31.578   8.320
    3AU       S 1072  14.889  33.258   7.846
    3AU     LIG 1073  14.453  33.451   7.844
    3AU     LIG 1074  14.122  33.163   7.694
    3AU     LIG 1075  14.111  32.730   7.593
    3AU       S 1076  15.552  34.440   7.872
    3AU     LIG 1077  15.163  34.629   7.924
    3AU     LIG 1078  14.758  34.568   8.133
    3AU     LIG 1079  14.522  34.673   8.511
    3AU       S 1080  16.140  34.589   7.893
    3AU     LIG 1081  16.357  34.932   8.137
    3AU     LIG 1082  16.033  35.233   8.269
    3AU     LIG 1083  15.580  35.341   8.397
    3AU       S 1084  16.069  34.818   7.763
    3AU     LIG 1085  15.676  35.014   7.818
    3AU     LIG 1086  15.708  35.459   7.922
    3AU     LIG 1087  15.953  35.738   8.218
    3AU       S 1088  16.066  34.549   7.016
    3AU     LIG 1089  16.190  34.891   7.221
    3AU     LIG 1090  16.252  35.274   7.062
    3AU     LIG 1091  16.277  35.687   6.873
    3AU       S 1092  16.569  34.128   8.379
    3AU     LIG 1093  16.768  34.498   8.573
    3AU     LIG 1094  16.987  34.667   8.911
    3AU     LIG 1095  17.168  34.414   9.234
    3AU       S 1096  16.363  34.632   7.619
    3AU     LIG 1097  16.413  35.129   7.623
    3AU     LIG 1098  16.298  35.467   7.884
    3AU     LIG 1099  16.485  35.829   8.105
    3AU       S 1100  15.896  32.278   8.086
    3AU     LIG 1101  16.241  31.961   8.158
    3AU     LIG 1102  16.399  31.586   8.327
    3AU     LIG 1103  16.163  31.234   8.513
    3AU       S 1104  16.502  32.594   7.989
    3AU     LIG 1105  16.546  32.247   7.833
    3AU     LIG 1106  16.709  31.899   7.831
    3AU     LIG 1107  17.093  31.926   7.997
    3AU       S 1108  15.688  32.225   7.927
    3AU     LIG 1109  15.770  31.796   7.905
    3AU     LIG 1110  15.813  31.456   8.191
    3AU     LIG 1111  15.645  31.164   8.516
    3AU       S 1112  15.487  32.871   8.491
    3AU     LIG 1113  15.235  32.604   8.801
    3AU     LIG 1114  14.870  32.349   8.619
    3AU     LIG 1115  14.598  31.943   8.646
    3AU       S 1116  16.164  32.282   7.288
    3AU     LIG 1117  15.884  31.910   7.263
    3AU     LIG 1118  15.977  31.641   6.953
    3AU     LIG 1119  16.172  31.267   6.971
    3AU       S 1120  16.054  32.317   7.867
    3AU     LIG 1121  16.200  31.935   7.654
    3AU     LIG 1122  16.307  31.536   7.826
    3AU     LIG 1123  16.176  31.142   8.007
    3AU       S 1124  15.937  34.444   6.747
    3AU     LIG 1125  15.826  34.879   6.659
    3AU     LIG 1126  16.043  35.301   6.590
    3AU     LIG 1127  16.346  35.571   6.364
    3AU       S 1128  16.732  34.289   7.139
    3AU     LIG 1129  17.063  34.669   6.991
    3AU     LIG 1130  17.370  34.746   6.625
    3AU     LIG 1131  17.724  34.729   6.295
    3AU       S 1132  15.741  34.473   7.031
    3AU     LIG 1133  15.695  34.860   7.233
    3AU     LIG 1134  15.726  35.230   7.001
    3AU     LIG 1135  15.534  35.391   6.599
    3AU       S 1136  15.272  33.880   6.638
    3AU     LIG 1137  15.190  34.215   6.342
    3AU     LIG 1138  15.405  34.543   6.072
    3AU     LIG 1139  15.666  34.942   6.121
    3AU       S 1140  15.246  32.613   7.121
    3AU     LIG 1141  14.800  32.510   6.924
    3AU     LIG 1142  14.620  32.199   6.602
    3AU     LIG 1143  14.473  31.957   6.218
    3AU       S 1144  16.133  32.315   7.134
    3AU     LIG 1145  16.403  32.106   6.845
    3AU     LIG 1146  16.313  31.736   6.587
    3AU     LIG 1147  16.038  31.391   6.470
    3AU       S 1148  16.413  32.398   7.388
    3AU     LIG 1149  16.599  31.981   7.310
    3AU     LIG 1150  16.547  31.596   7.037
    3AU     LIG 1151  16.663  31.161   6.845
    3AU       S 1152  16.659  32.834   6.690
    3AU     LIG 1153  16.518  32.534   6.417
    3AU     LIG 1154  16.599  32.086   6.353
    3AU     LIG 1155  16.721  31.734   6.068
    4AU     AUC 1156  22.076  10.616   7.527
    4AU     AUC 1157  22.325  10.616   7.361
    4AU     AUC 1158  22.319  10.621   7.697
    4AU     AUC 1159  21.811  10.608   7.373
    4AU     AUC 1160  21.832  10.657   7.695
    4AU     AUC 1161  21.909  10.871   7.488
    4AU     AUC 1162  22.245  10.878   7.488
    4AU     AUC 1163  21.912  10.362   7.552
    4AU     AUC 1164  22.242  10.349   7.552
    4AU     AUC 1165  22.080  10.471   7.799
    4AU     AUC 1166  22.081  10.812   7.760
    4AU     AUC 1167  22.074  10.429   7.285
    4AU     AUC 1168  22.082  10.732   7.256
    4AU     AUC 1169  22.639  10.613   7.208
    4AU     AUC 1170  22.642  10.606   7.551
    4AU     AUC 1171  22.610  10.612   7.901
    4AU     AUC 1172  21.511  10.559   7.235
    4AU     AUC 1173  21.504  10.641   7.555
    4AU     AUC 1174  21.536  10.707   7.872
    4AU     AUC 1175  21.742  11.173   7.422
    4AU     AUC 1176  22.099  11.168   7.406
    4AU     AUC 1177  22.434  11.162   7.442
    4AU     AUC 1178  21.726  10.066   7.578
    4AU     AUC 1179  22.072  10.052   7.555
    4AU     AUC 1180  22.422  10.053   7.564
    4AU     AUC 1181  22.053  10.318   8.110
    4AU     AUC 1182  22.069  10.668   8.092
    4AU     AUC 1183  22.114  11.025   8.041
    4AU     AUC 1184  22.116  10.237   7.006
    4AU     AUC 1185  22.057  10.562   6.950
    4AU     AUC 1186  22.034  10.875   6.933
    4AU     AUC 1187  22.321  10.430   8.016
    4AU     AUC 1188  22.357  10.787   7.990
    4AU     AUC 1189  22.384  10.453   7.067
    4AU     AUC 1190  22.330  10.750   7.068
    4AU     AUC 1191  21.791  10.546   8.009
    4AU     AUC 1192  21.822  10.895   7.947
    4AU     AUC 1193  21.800  10.378   7.109
    4AU     AUC 1194  21.747  10.695   7.067
    4AU     AUC 1195  22.557  10.889   7.345
    4AU     AUC 1196  22.508  10.872   7.682
    4AU     AUC 1197  21.607  10.873   7.360
    4AU     AUC 1198  21.657  10.969   7.681
    4AU     AUC 1199  22.547  10.348   7.411
    4AU     AUC 1200  22.491  10.305   7.752
    4AU     AUC 1201  21.622  10.293   7.400
    4AU     AUC 1202  21.647  10.390   7.732
    4AU     AUC 1203  21.968  11.127   7.736
    4AU     AUC 1204  22.278  11.091   7.757
    4AU     AUC 1205  21.897  10.193   7.839
    4AU     AUC 1206  22.199  10.139   7.827
    4AU     AUC 1207  21.872  11.021   7.173
    4AU     AUC 1208  22.236  11.051   7.189
    4AU     AUC 1209  21.938  10.134   7.278
    4AU     AUC 1210  22.304  10.188   7.281
    4AU    AUSL 1211  22.586  10.551   8.307
    4AU    AUSL 1212  22.331  10.160   8.233
    4AU     AUL 1213  22.627  10.190   8.406
    4AU    AUSL 1214  22.170  10.491   8.457
    4AU    AUSL 1215  21.925  10.887   8.435
    4AU     AUL 1216  22.157  10.788   8.723
    4AU    AUSL 1217  22.262  10.840   8.179
    4AU    AUSL 1218  22.711  10.923   8.112
    4AU     AUL 1219  22.535  10.861   8.441
    4AU    AUSL 1220  22.518  10.644   6.821
    4AU    AUSL 1221  22.333  11.019   6.963
    4AU     AUL 1222  22.602  10.966   6.701
    4AU    AUSL 1223  22.327  10.316   6.603
    4AU    AUSL 1224  22.834  10.408   6.996
    4AU     AUL 1225  22.703  10.470   6.653
    4AU    AUSL 1226  22.132  10.771   6.666
    4AU    AUSL 1227  21.962  10.383   6.821
    4AU     AUL 1228  22.060  10.436   6.480
    4AU    AUSL 1229  21.536  10.835   8.221
    4AU    AUSL 1230  21.883  11.137   8.083
    4AU     AUL 1231  21.712  11.116   8.400
    4AU    AUSL 1232  21.844  10.529   8.185
    4AU    AUSL 1233  21.417  10.406   8.144
    4AU     AUL 1234  21.379  10.610   8.309
    4AU    AUSL 1235  21.522  10.351   6.807
    4AU    AUSL 1236  21.782  10.029   6.982
    4AU     AUL 1237  21.812  10.073   6.669
    4AU    AUSL 1238  21.700  10.718   6.653
    4AU    AUSL 1239  21.424  10.716   7.035
    4AU     AUL 1240  21.305  10.566   6.784
    4AU    AUSL 1241  22.842  11.117   7.483
    4AU    AUSL 1242  22.708  10.855   7.142
    4AU     AUL 1243  22.997  11.017   7.064
    4AU    AUSL 1244  23.040  10.708   7.385
    4AU    AUSL 1245  22.998  10.411   7.773
    4AU     AUL 1246  23.279  10.487   7.581
    4AU    AUSL 1247  22.761  10.761   7.726
    4AU    AUSL 1248  22.514  11.142   7.769
    4AU     AUL 1249  22.847  11.128   7.837
    4AU    AUSL 1250  21.492  11.249   7.466
    4AU    AUSL 1251  21.534  11.022   7.836
    4AU     AUL 1252  21.222  11.257   7.678
    4AU    AUSL 1253  21.309  10.847   7.426
    4AU    AUSL 1254  21.434  11.149   7.056
    4AU     AUL 1255  21.205  11.070   7.213
    4AU    AUSL 1256  21.164  10.822   7.864
    4AU    AUSL 1257  21.147  10.453   7.374
    4AU     AUL 1258  20.992  10.791   7.547
    4AU    AUSL 1259  22.773  10.054   7.627
    4AU    AUSL 1260  22.601  10.345   7.933
    4AU     AUL 1261  22.906  10.244   8.008
    4AU    AUSL 1262  22.727  10.423   7.406
    4AU    AUSL 1263  22.737  10.014   7.193
    4AU     AUL 1264  22.980  10.229   7.287
    4AU    AUSL 1265  21.331  10.090   7.597
    4AU    AUSL 1266  21.513  10.288   7.226
    4AU     AUL 1267  21.158  10.173   7.248
    4AU    AUSL 1268  21.408  10.504   7.726
    4AU    AUSL 1269  21.650  10.147   7.883
    4AU     AUL 1270  21.321  10.150   7.941
    4AU    AUSL 1271  22.144  11.430   7.893
    4AU    AUSL 1272  21.688  11.434   7.811
    4AU     AUL 1273  21.917  11.480   8.156
    4AU    AUSL 1274  21.968  11.315   7.514
    4AU    AUSL 1275  22.205  11.427   7.160
    4AU     AUL 1276  21.958  11.662   7.455
    4AU    AUSL 1277  22.407  11.480   7.537
    4AU    AUSL 1278  22.398  11.242   8.181
    4AU     AUL 1279  22.512  11.482   7.895
    4AU    AUSL 1280  22.028   9.956   8.001
    4AU    AUSL 1281  22.454   9.932   7.883
    4AU     AUL 1282  22.212   9.863   8.256
    4AU    AUSL 1283  21.726   9.756   7.731
    4AU    AUSL 1284  21.791  10.133   8.312
    4AU     AUL 1285  21.698   9.842   8.079
    4AU    AUSL 1286  22.169   9.676   7.692
    4AU    AUSL 1287  21.950   9.919   7.392
    4AU     AUL 1288  21.861   9.553   7.508
    4AU    AUSL 1289  22.032  11.255   6.770
    4AU    AUSL 1290  22.606  11.286   7.169
    4AU     AUL 1291  22.345  11.355   6.852
    4AU    AUSL 1292  21.780  11.384   7.130
    4AU    AUSL 1293  21.815  10.954   6.982
    4AU     AUL 1294  21.706  11.227   6.781
    4AU    AUSL 1295  22.178   9.862   7.008
    4AU    AUSL 1296  21.540   9.848   7.305
    4AU     AUL 1297  21.849   9.712   7.067
    4AU    AUSL 1298  22.384   9.912   7.403
    4AU    AUSL 1299  22.401  10.231   7.015
    4AU     AUL 1300  22.493   9.881   6.991
    4AU       S 1301  22.655   9.730   8.277
    4AU     LIG 1302  22.877   9.286   8.270
    4AU     LIG 1303  23.071   8.936   8.539
    4AU     LIG 1304  23.417   8.769   8.808
    4AU       S 1305  22.551  10.493   8.749
    4AU     LIG 1306  22.847  10.776   8.931
    4AU     LIG 1307  22.912  10.708   9.377
    4AU     LIG 1308  22.855  10.523   9.803
    4AU       S 1309  22.194  10.316   8.660
    4AU     LIG 1310  22.196  10.360   9.113
    4AU     LIG 1311  22.537  10.282   9.452
    4AU     LIG 1312  22.789  10.011   9.770
    4AU       S 1313  21.714  10.690   8.652
    4AU     LIG 1314  21.760  10.680   9.106
    4AU     LIG 1315  21.387  10.560   9.350
    4AU     LIG 1316  21.053  10.653   9.663
    4AU       S 1317  22.179  11.245   8.576
    4AU     LIG 1318  22.483  11.491   8.813
    4AU     LIG 1319  22.847  11.419   9.079
    4AU     LIG 1320  23.180  11.117   9.183
    4AU       S 1321  22.895  11.128   8.302
    4AU     LIG 1322  23.028  11.189   8.669
    4AU     LIG 1323  23.341  11.444   8.818
    4AU     LIG 1324  23.611  11.755   8.961
    4AU       S 1325  22.467  10.739   6.326
    4AU     LIG 1326  22.833  10.768   6.056
    4AU     LIG 1327  22.896  10.387   5.833
    4AU     LIG 1328  22.876  10.224   5.402
    4AU       S 1329  22.772  11.408   6.737
    4AU     LIG 1330  22.798  11.719   6.444
    4AU     LIG 1331  22.963  11.781   6.036
    4AU     LIG 1332  23.343  11.936   5.877
    4AU       S 1333  23.049  10.183   6.817
    4AU     LIG 1334  23.288   9.961   6.528
    4AU     LIG 1335  23.282   9.520   6.486
    4AU     LIG 1336  23.363   9.080   6.521
    4AU       S 1337  22.445  10.542   6.264
    4AU     LIG 1338  22.434  10.197   6.008
    4AU     LIG 1339  22.380  10.172   5.565
    4AU     LIG 1340  22.399  10.431   5.212
    4AU       S 1341  21.631  10.362   6.334
    4AU     LIG 1342  21.926  10.331   5.978
    4AU     LIG 1343  21.942  10.494   5.538
    4AU     LIG 1344  21.637  10.440   5.178
    4AU       S 1345  22.212  10.879   6.435
    4AU     LIG 1346  22.062  10.811   6.021
    4AU     LIG 1347  22.393  10.650   5.746
    4AU     LIG 1348  22.756  10.720   5.474
    4AU       S 1349  21.500  10.821   8.699
    4AU     LIG 1350  21.233  10.499   8.798
    4AU     LIG 1351  21.137  10.176   9.076
    4AU     LIG 1352  21.053  10.154   9.524
    4AU       S 1353  21.433  11.418   8.186
    4AU     LIG 1354  21.284  11.550   8.569
    4AU     LIG 1355  21.022  11.407   8.907
    4AU     LIG 1356  20.605  11.485   9.088
    4AU       S 1357  21.316  10.162   8.432
    4AU     LIG 1358  20.896  10.141   8.235
    4AU     LIG 1359  20.514   9.929   8.325
    4AU     LIG 1360  20.440   9.546   8.534
    4AU       S 1361  21.716  10.502   8.611
    4AU     LIG 1362  21.649  10.215   8.960
    4AU     LIG 1363  21.554  10.083   9.394
    4AU     LIG 1364  21.452  10.254   9.831
    4AU       S 1365  21.444  10.275   6.455
    4AU     LIG 1366  21.257  10.000   6.163
    4AU     LIG 1367  21.242  10.188   5.754
    4AU     LIG 1368  21.429  10.594   5.629
    4AU       S 1369  21.450   9.809   6.827
    4AU     LIG 1370  21.301   9.560   6.466
    4AU     LIG 1371  21.149   9.499   6.032
    4AU     LIG 1372  20.720   9.496   5.878
    4AU       S 1373  21.119  10.978   6.726
    4AU     LIG 1374  20.831  11.309   6.692
    4AU     LIG 1375  20.888  11.756   6.600
    4AU     LIG 1376  20.783  12.102   6.297
    4AU       S 1377  21.629  10.641   6.424
    4AU     LIG 1378  21.416  10.868   6.130
    4AU     LIG 1379  21.516  11.093   5.748
    4AU     LIG 1380  21.713  10.956   5.358
    4AU       S 1381  22.884  11.333   6.776
    4AU     LIG 1382  23.044  11.166   6.382
    4AU     LIG 1383  23.311  11.400   6.085
    4AU     LIG 1384  23.706  11.641   6.102
    4AU       S 1385  23.138  11.202   7.482
    4AU     LIG 1386  23.390  11.367   7.191
    4AU     LIG 1387  23.736  11.259   7.433
    4AU     LIG 1388  24.126  11.304   7.534
    4AU       S 1389  23.289  10.936   7.440
    4AU     LIG 1390  23.623  10.864   7.131
    4AU     LIG 1391  24.093  10.901   7.171
    4AU     LIG 1392  24.494  11.024   6.935
    4AU       S 1393  23.245  10.043   7.765
    4AU     LIG 1394  23.485   9.941   8.118
    4AU     LIG 1395  23.938   9.963   8.126
    4AU     LIG 1396  24.076  10.037   7.725
    4AU       S 1397  22.858  11.400   8.201
    4AU     LIG 1398  23.299  11.474   8.301
    4AU     LIG 1399  23.419  11.874   8.501
    4AU     LIG 1400  23.283  12.262   8.723
    4AU       S 1401  23.242  10.935   7.743
    4AU     LIG 1402  23.551  11.175   7.917
    4AU     LIG 1403  23.988  11.135   8.009
    4AU     LIG 1404  24.342  11.461   7.965
    4AU       S 1405  21.328  11.235   8.124
    4AU     LIG 1406  21.054  11.103   8.469
    4AU     LIG 1407  20.616  11.266   8.607
    4AU     LIG 1408  20.289  11.611   8.702
    4AU       S 1409  21.420  11.574   7.376
    4AU     LIG 1410  21.224  11.998   7.391
    4AU     LIG 1411  20.897  12.046   7.096
    4AU     LIG 1412  20.676  11.636   7.059
    4AU       S 1413  20.912  10.724   7.082
    4AU     LIG 1414  20.449  10.652   7.079
    4AU     LIG 1415  20.094  10.895   7.197
    4AU     LIG 1416  20.182  11.284   7.083
    4AU       S 1417  21.288  11.405   6.883
    4AU     LIG 1418  21.423  11.752   6.657
    4AU     LIG 1419  21.203  12.155   6.653
    4AU     LIG 1420  20.773  12.380   6.725
    4AU       S 1421  20.921  10.334   7.635
    4AU     LIG 1422  20.551  10.280   7.412
    4AU     LIG 1423  20.137  10.434   7.432
    4AU     LIG 1424  19.846  10.461   7.062
    4AU       S 1425  21.038  10.830   8.038
    4AU     LIG 1426  20.627  10.930   8.206
    4AU     LIG 1427  20.329  11.260   8.170
    4AU     LIG 1428  20.380  11.706   8.198
    4AU       S 1429  22.930   9.905   7.642
    4AU     LIG 1430  23.025   9.546   7.424
    4AU     LIG 1431  23.430   9.423   7.526
    4AU     LIG 1432  23.786   9.690   7.458
    4AU       S 1433  22.832   9.818   8.131
    4AU     LIG 1434  23.158   9.569   7.941
    4AU     LIG 1435  23.503   9.403   8.144
    4AU     LIG 1436  23.511   9.225   8.567
    4AU       S 1437  23.228   9.995   7.582
    4AU     LIG 1438  23.366   9.893   7.203
    4AU     LIG 1439  23.725   9.908   6.965
    4AU     LIG 1440  24.065   9.613   7.029
    4AU       S 1441  22.961   9.904   6.930
    4AU     LIG 1442  22.972   9.449   6.909
    4AU     LIG 1443  22.926   8.982   6.792
    4AU     LIG 1444  22.946   8.686   6.439
    4AU       S 1445  21.322   9.942   6.888
    4AU     LIG 1446  21.005   9.981   6.621
    4AU     LIG 1447  20.772   9.715   6.358
    4AU     LIG 1448  20.339   9.603   6.227
    4AU       S 1449  20.946  10.097   7.677
    4AU     LIG 1450  20.543   9.972   7.813
    4AU     LIG 1451  20.254   9.719   7.549
    4AU     LIG 1452  20.090   9.522   7.133
    4AU       S 1453  21.346   9.952   8.355
    4AU     LIG 1454  21.172   9.703   8.040
    4AU     LIG 1455  20.794   9.545   8.110
    4AU     LIG 1456  20.365   9.532   8.017
    4AU       S 1457  20.953  10.389   7.809
    4AU     LIG 1458  20.544  10.617   7.807
    4AU     LIG 1459  20.171  10.416   7.941
    4AU     LIG 1460  19.985  10.016   7.892
    4AU       S 1461  21.564  11.595   7.853
    4AU     LIG 1462  21.133  11.696   7.880
    4AU     LIG 1463  20.877  11.528   8.223
    4AU     LIG 1464  20.776  11.752   8.611
    4AU       S 1465  22.144  11.773   7.868
    4AU     LIG 1466  22.381  11.804   8.263
    4AU     LIG 1467  22.455  12.246   8.408
    4AU     LIG 1468  22.295  12.686   8.475
    4AU       S 1469  22.276  11.926   7.765
    4AU     LIG 1470  21.973  12.289   7.782
    4AU     LIG 1471  21.925  12.646   8.093
    4AU     LIG 1472  22.222  13.018   8.102
    4AU       S 1473  22.115  11.734   7.015
    4AU     LIG 1474  22.032  12.130   7.241
    4AU     LIG 1475  22.105  12.587   7.223
    4AU     LIG 1476  22.454  12.831   7.012
    4AU       S 1477  22.626  11.346   8.354
    4AU     LIG 1478  22.903  11.692   8.593
    4AU     LIG 1479  23.090  11.859   8.972
    4AU     LIG 1480  23.258  11.634   9.335
    4AU       S 1481  22.412  11.786   7.529
    4AU     LIG 1482  22.432  12.308   7.528
    4AU     LIG 1483  22.420  12.542   7.942
    4AU     LIG 1484  22.774  12.636   8.219
    4AU       S 1485  22.013   9.474   8.094
    4AU     LIG 1486  22.380   9.160   8.145
    4AU     LIG 1487  22.557   8.875   8.435
    4AU     LIG 1488  22.340   8.529   8.658
    4AU       S 1489  22.593   9.789   7.986
    4AU     LIG 1490  22.689   9.433   7.802
    4AU     LIG 1491  22.966   9.095   7.776
    4AU     LIG 1492  23.286   8.944   8.087
    4AU       S 1493  21.818   9.414   7.950
    4AU     LIG 1494  21.848   9.083   7.728
    4AU     LIG 1495  22.039   8.780   7.932
    4AU     LIG 1496  21.925   8.632   8.357
    4AU       S 1497  21.600  10.052   8.494
    4AU     LIG 1498  21.365   9.792   8.811
    4AU     LIG 1499  20.945   9.662   8.663
    4AU     LIG 1500  20.659   9.466   8.981
    4AU       S 1501  22.249   9.472   7.277
    4AU     LIG 1502  21.904   9.186   7.137
    4AU     LIG 1503  22.015   8.887   6.800
    4AU     LIG 1504  22.056   8.447   6.720
    4AU       S 1505  22.175   9.506   7.864
    4AU     LIG 1506  22.330   9.139   7.631
    4AU     LIG 1507  22.536   8.796   7.793
    4AU     LIG 1508  22.400   8.503   8.134
    4AU       S 1509  21.965  11.628   6.733
    4AU     LIG 1510  21.946  12.081   6.680
    4AU     LIG 1511  22.193  12.473   6.729
    4AU     LIG 1512  22.335  12.860   6.502
    4AU       S 1513  22.773  11.457   7.084
    4AU     LIG 1514  23.134  11.738   6.891
    4AU     LIG 1515  23.318  11.794   6.452
    4AU     LIG 1516  23.606  12.124   6.274
    4AU       S 1517  21.781  11.647   7.007
    4AU     LIG 1518  21.577  12.045   7.029
    4AU     LIG 1519  21.703  12.474   6.899
    4AU     LIG 1520  21.769  12.689   6.517
    4AU       S 1521  21.333  11.030   6.620
    4AU     LIG 1522  21.225  11.389   6.351
    4AU     LIG 1523  21.238  11.845   6.187
    4AU     LIG 1524  21.231  12.319   6.152
    4AU       S 1525  21.376   9.756   7.156
    4AU     LIG 1526  20.938   9.712   7.077
    4AU     LIG 1527  20.914   9.407   6.759
    4AU     LIG 1528  20.863   9.212   6.341
    4AU       S 1529  22.280   9.497   7.118
    4AU     LIG 1530  22.492   9.309   6.784
    4AU     LIG 1531  22.459   8.950   6.508
    4AU     LIG 1532  22.295   8.598   6.269
    4AU       S 1533  22.510   9.598   7.371
    4AU     LIG 1534  22.684   9.180   7.264
    4AU     LIG 1535  22.492   8.846   7.015
    4AU     LIG 1536  22.555   8.493   6.712
    4AU       S 1537  22.801  10.023   6.690
    4AU     LIG 1538  22.772   9.645   6.482
    4AU     LIG 1539  22.865   9.216   6.341
    4AU     LIG 1540  22.689   8.878   6.041
    5AU     AUC 1541  13.470   2.701   7.540
    5AU     AUC 1542  13.721   2.702   7.372
    5AU     AUC 1543  13.715   2.703   7.707
    5AU     AUC 1544  13.202   2.695   7.387
    5AU     AUC 1545  13.227   2.744   7.709
    5AU     AUC 1546  13.306   2.958   7.503
    5AU     AUC 1547  13.641   2.961   7.501
    5AU     AUC 1548  13.303   2.450   7.564
    5AU     AUC 1549  13.634   2.433   7.562
    5AU     AUC 1550  13.474   2.555   7.811
    5AU     AUC 1551  13.477   2.897   7.774
    5AU     AUC 1552  13.465   2.516   7.297
    5AU     AUC 1553  13.477   2.820   7.270
    5AU     AUC 1554  14.035   2.699   7.217
    5AU     AUC 1555  14.038   2.688   7.556
    5AU     AUC 1556  14.008   2.691   7.910
    5AU     AUC 1557  12.901   2.650   7.250
    5AU     AUC 1558  12.897   2.732   7.571
    5AU     AUC 1559  12.932   2.796   7.888
    5AU     AUC 1560  13.141   3.262   7.439
    5AU     AUC 1561  13.498   3.255   7.423
    5AU     AUC 1562  13.833   3.245   7.461
    5AU     AUC 1563  13.113   2.156   7.590
    5AU     AUC 1564  13.460   2.138   7.564
    5AU     AUC 1565  13.810   2.135   7.572
    5AU     AUC 1566  13.450   2.402   8.123
    5AU     AUC 1567  13.467   2.750   8.104
    5AU     AUC 1568  13.512   3.108   8.056
    5AU     AUC 1569  13.503   2.324   7.018
    5AU     AUC 1570  13.448   2.650   6.964
    5AU     AUC 1571  13.430   2.963   6.952
    5AU     AUC 1572  13.719   2.512   8.025
    5AU     AUC 1573  13.754   2.869   8.002
    5AU     AUC 1574  13.774   2.537   7.078
    5AU     AUC 1575  13.730   2.838   7.085
    5AU     AUC 1576  13.186   2.630   8.024
    5AU     AUC 1577  13.220   2.977   7.963
    5AU     AUC 1578  13.188   2.467   7.123
    5AU     AUC 1579  13.139   2.784   7.082
    5AU     AUC 1580  13.960   2.971   7.359
    5AU     AUC 1581  13.907   2.953   7.697
    5AU     AUC 1582  13.002   2.963   7.377
    5AU     AUC 1583  13.056   3.059   7.697
    5AU     AUC 1584  13.937   2.428   7.416
    5AU     AUC 1585  13.886   2.385   7.757
    5AU     AUC 1586  13.009   2.384   7.415
    5AU     AUC 1587  13.038   2.480   7.747
    5AU     AUC 1588  13.368   3.213   7.752
    5AU     AUC 1589  13.676   3.176   7.773
    5AU     AUC 1590  13.288   2.280   7.850
    5AU     AUC 1591  13.594   2.224   7.837
    5AU     AUC 1592  13.269   3.109   7.189
    5AU     AUC 1593  13.634   3.136   7.207
    5AU     AUC 1594  13.322   2.223   7.291
    5AU     AUC 1595  13.690   2.271   7.289
    5AU    AUSL 1596  13.987   2.634   8.311
    5AU    AUSL 1597  13.739   2.238   8.247
    5AU     AUL 1598  14.039   2.279   8.416
    5AU    AUSL 1599  13.571   2.571   8.463
    5AU    AUSL 1600  13.325   2.964   8.447
    5AU     AUL 1601  13.556   2.870   8.729
    5AU    AUSL 1602  13.662   2.923   8.190
    5AU    AUSL 1603  14.112   3.009   8.122
    5AU     AUL 1604  13.936   2.942   8.449
    5AU    AUSL 1605  13.906   2.728   6.851
    5AU    AUSL 1606  13.735   3.108   6.983
    5AU     AUL 1607  13.994   3.054   6.707
    5AU    AUSL 1608  13.717   2.414   6.613
    5AU    AUSL 1609  14.225   2.481   6.999
    5AU     AUL 1610  14.092   2.561   6.666
    5AU    AUSL 1611  13.526   2.860   6.688
    5AU    AUSL 1612  13.351   2.468   6.832
    5AU     AUL 1613  13.448   2.524   6.494
    5AU    AUSL 1614  12.934   2.916   8.234
    5AU    AUSL 1615  13.282   3.222   8.102
    5AU     AUL 1616  13.111   3.192   8.422
    5AU    AUSL 1617  13.238   2.606   8.198
    5AU    AUSL 1618  12.808   2.488   8.160
    5AU     AUL 1619  12.769   2.699   8.321
    5AU    AUSL 1620  12.911   2.444   6.821
    5AU    AUSL 1621  13.163   2.120   6.998
    5AU     AUL 1622  13.200   2.159   6.681
    5AU    AUSL 1623  13.094   2.809   6.668
    5AU    AUSL 1624  12.814   2.809   7.049
    5AU     AUL 1625  12.697   2.655   6.796
    5AU    AUSL 1626  14.249   3.194   7.512
    5AU    AUSL 1627  14.134   2.953   7.137
    5AU     AUL 1628  14.453   3.185   7.174
    5AU    AUSL 1629  14.437   2.786   7.399
    5AU    AUSL 1630  14.395   2.480   7.768
    5AU     AUL 1631  14.693   2.535   7.548
    5AU    AUSL 1632  14.156   2.832   7.741
    5AU    AUSL 1633  13.908   3.224   7.780
    5AU     AUL 1634  14.239   3.224   7.843
    5AU    AUSL 1635  12.892   3.340   7.484
    5AU    AUSL 1636  12.935   3.111   7.854
    5AU     AUL 1637  12.623   3.353   7.695
    5AU    AUSL 1638  12.707   2.940   7.442
    5AU    AUSL 1639  12.830   3.242   7.074
    5AU     AUL 1640  12.600   3.163   7.233
    5AU    AUSL 1641  12.561   2.919   7.878
    5AU    AUSL 1642  12.535   2.550   7.399
    5AU     AUL 1643  12.384   2.886   7.565
    5AU    AUSL 1644  14.159   2.133   7.627
    5AU    AUSL 1645  13.999   2.424   7.939
    5AU     AUL 1646  14.301   2.318   8.008
    5AU    AUSL 1647  14.119   2.504   7.409
    5AU    AUSL 1648  14.118   2.090   7.196
    5AU     AUL 1649  14.365   2.305   7.283
    5AU    AUSL 1650  12.717   2.185   7.614
    5AU    AUSL 1651  12.895   2.381   7.241
    5AU     AUL 1652  12.535   2.271   7.283
    5AU    AUSL 1653  12.803   2.596   7.746
    5AU    AUSL 1654  13.042   2.235   7.893
    5AU     AUL 1655  12.722   2.218   7.944
    5AU    AUSL 1656  13.542   3.515   7.912
    5AU    AUSL 1657  13.090   3.522   7.829
    5AU     AUL 1658  13.318   3.562   8.178
    5AU    AUSL 1659  13.369   3.402   7.531
    5AU    AUSL 1660  13.605   3.516   7.177
    5AU     AUL 1661  13.359   3.751   7.470
    5AU    AUSL 1662  13.803   3.572   7.559
    5AU    AUSL 1663  13.800   3.325   8.194
    5AU     AUL 1664  13.911   3.568   7.915
    5AU    AUSL 1665  13.424   2.055   8.011
    5AU    AUSL 1666  13.849   2.012   7.892
    5AU     AUL 1667  13.610   1.948   8.265
    5AU    AUSL 1668  13.114   1.842   7.748
    5AU    AUSL 1669  13.176   2.211   8.324
    5AU     AUL 1670  13.104   1.924   8.095
    5AU    AUSL 1671  13.554   1.764   7.707
    5AU    AUSL 1672  13.334   2.007   7.406
    5AU     AUL 1673  13.251   1.647   7.520
    5AU    AUSL 1674  13.431   3.340   6.788
    5AU    AUSL 1675  14.002   3.367   7.206
    5AU     AUL 1676  13.744   3.435   6.865
    5AU    AUSL 1677  13.180   3.471   7.147
    5AU    AUSL 1678  13.208   3.042   6.999
    5AU     AUL 1679  13.101   3.315   6.797
    5AU    AUSL 1680  13.556   1.944   7.021
    5AU    AUSL 1681  12.923   1.941   7.323
    5AU     AUL 1682  13.222   1.802   7.078
    5AU    AUSL 1683  13.768   1.993   7.412
    5AU    AUSL 1684  13.784   2.310   7.022
    5AU     AUL 1685  13.870   1.952   7.005
    5AU       S 1686  14.058   1.823   8.285
    5AU     LIG 1687  14.304   1.405   8.319
    5AU     LIG 1688  14.331   1.051   8.644
    5AU     LIG 1689  14.610   0.707   8.809
    5AU       S 1690  13.951   2.579   8.762
    5AU     LIG 1691  14.289   2.910   8.821
    5AU     LIG 1692  14.542   2.918   9.223
    5AU     LIG 1693  14.547   2.673   9.640
    5AU       S 1694  13.601   2.400   8.673
    5AU     LIG 1695  13.601   2.409   9.137
    5AU     LIG 1696  13.887   2.322   9.532
    5AU     LIG 1697  14.261   2.202   9.822
    5AU       S 1698  13.115   2.758   8.660
    5AU     LIG 1699  13.196   2.752   9.110
    5AU     LIG 1700  12.850   2.659   9.393
    5AU     LIG 1701  12.602   2.785   9.771
    5AU       S 1702  13.571   3.328   8.584
    5AU     LIG 1703  13.785   3.692   8.722
    5AU     LIG 1704  14.148   3.606   8.973
    5AU     LIG 1705  14.537   3.383   8.957
    5AU       S 1706  14.302   3.205   8.314
    5AU     LIG 1707  14.696   3.280   8.487
    5AU     LIG 1708  14.912   3.649   8.679
    5AU     LIG 1709  15.038   4.073   8.855
    5AU       S 1710  13.850   2.832   6.337
    5AU     LIG 1711  14.079   2.910   5.944
    5AU     LIG 1712  14.252   2.582   5.711
    5AU     LIG 1713  14.296   2.311   5.370
    5AU       S 1714  14.178   3.506   6.792
    5AU     LIG 1715  14.190   3.900   6.563
    5AU     LIG 1716  14.461   4.004   6.205
    5AU     LIG 1717  14.812   4.085   5.875
    5AU       S 1718  14.417   2.240   6.814
    5AU     LIG 1719  14.648   1.953   6.552
    5AU     LIG 1720  14.714   1.536   6.417
    5AU     LIG 1721  14.611   1.116   6.312
    5AU       S 1722  13.829   2.660   6.290
    5AU     LIG 1723  13.810   2.409   5.973
    5AU     LIG 1724  13.803   2.304   5.555
    5AU     LIG 1725  13.814   2.306   5.106
    5AU       S 1726  13.019   2.452   6.352
    5AU     LIG 1727  13.284   2.483   5.995
    5AU     LIG 1728  13.307   2.469   5.556
    5AU     LIG 1729  13.040   2.466   5.201
    5AU       S 1730  13.597   2.969   6.464
    5AU     LIG 1731  13.438   2.955   6.078
    5AU     LIG 1732  13.641   2.817   5.695
    5AU     LIG 1733  13.940   2.762   5.340
    5AU       S 1734  12.911   2.883   8.717
    5AU     LIG 1735  12.606   2.589   8.785
    5AU     LIG 1736  12.506   2.342   9.137
    5AU     LIG 1737  12.473   2.311   9.598
    5AU       S 1738  12.842   3.503   8.208
    5AU     LIG 1739  12.696   3.673   8.564
    5AU     LIG 1740  12.358   3.605   8.849
    5AU     LIG 1741  11.920   3.557   9.018
    5AU       S 1742  12.696   2.250   8.426
    5AU     LIG 1743  12.272   2.276   8.286
    5AU     LIG 1744  11.907   2.007   8.221
    5AU     LIG 1745  11.714   1.614   8.386
    5AU       S 1746  13.112   2.577   8.614
    5AU     LIG 1747  13.017   2.307   8.961
    5AU     LIG 1748  12.927   2.153   9.370
    5AU     LIG 1749  12.939   2.331   9.800
    5AU       S 1750  12.840   2.373   6.461
    5AU     LIG 1751  12.700   2.185   6.071
    5AU     LIG 1752  12.814   2.409   5.694
    5AU     LIG 1753  12.726   2.784   5.460
    5AU       S 1754  12.822   1.940   6.855
    5AU     LIG 1755  12.831   1.834   6.438
    5AU     LIG 1756  12.504   1.666   6.172
    5AU     LIG 1757  12.303   1.301   5.960
    5AU       S 1758  12.517   3.071   6.745
    5AU     LIG 1759  12.222   3.381   6.745
    5AU     LIG 1760  12.307   3.817   6.698
    5AU     LIG 1761  12.423   4.030   6.313
    5AU       S 1762  13.017   2.739   6.436
    5AU     LIG 1763  12.887   2.824   6.022
    5AU     LIG 1764  13.128   2.979   5.681
    5AU     LIG 1765  13.314   2.907   5.289
    5AU       S 1766  14.289   3.393   6.812
    5AU     LIG 1767  14.456   3.439   6.382
    5AU     LIG 1768  14.778   3.617   6.129
    5AU     LIG 1769  15.186   3.726   5.984
    5AU       S 1770  14.632   3.208   7.611
    5AU     LIG 1771  14.790   3.598   7.711
    5AU     LIG 1772  15.224   3.679   7.721
    5AU     LIG 1773  15.508   3.695   7.361
    5AU       S 1774  14.688   2.998   7.570
    5AU     LIG 1775  15.126   3.206   7.496
    5AU     LIG 1776  15.482   3.208   7.173
    5AU     LIG 1777  15.925   3.323   7.084
    5AU       S 1778  14.628   2.101   7.765
    5AU     LIG 1779  14.763   1.938   8.165
    5AU     LIG 1780  15.193   1.829   8.149
    5AU     LIG 1781  15.344   2.012   7.754
    5AU       S 1782  14.260   3.475   8.220
    5AU     LIG 1783  14.645   3.705   8.210
    5AU     LIG 1784  14.766   4.098   8.421
    5AU     LIG 1785  14.659   4.422   8.754
    5AU       S 1786  14.572   2.913   7.855
    5AU     LIG 1787  14.914   3.201   8.022
    5AU     LIG 1788  15.370   3.248   7.993
    5AU     LIG 1789  15.621   3.285   7.653
    5AU       S 1790  12.750   3.328   8.135
    5AU     LIG 1791  12.536   3.179   8.502
    5AU     LIG 1792  12.084   3.230   8.625
    5AU     LIG 1793  11.616   3.335   8.637
    5AU       S 1794  12.826   3.665   7.394
    5AU     LIG 1795  12.567   4.031   7.333
    5AU     LIG 1796  12.160   4.018   7.167
    5AU     LIG 1797  12.006   3.590   7.155
    5AU       S 1798  12.311   2.816   7.097
    5AU     LIG 1799  11.890   2.781   6.949
    5AU     LIG 1800  11.569   3.079   7.019
    5AU     LIG 1801  11.622   3.333   7.398
    5AU       S 1802  12.687   3.499   6.910
    5AU     LIG 1803  12.821   3.878   6.739
    5AU     LIG 1804  12.718   4.287   6.706
    5AU     LIG 1805  12.431   4.543   6.442
    5AU       S 1806  12.317   2.437   7.683
    5AU     LIG 1807  11.975   2.534   7.438
    5AU     LIG 1808  11.547   2.645   7.337
    5AU     LIG 1809  11.145   2.560   7.102
    5AU       S 1810  12.447   2.950   8.049
    5AU     LIG 1811  12.214   2.785   8.381
    5AU     LIG 1812  11.766   2.925   8.345
    5AU     LIG 1813  11.605   3.209   8.002
    5AU       S 1814  14.315   1.977   7.638
    5AU     LIG 1815  14.376   1.651   7.374
    5AU     LIG 1816  14.780   1.558   7.409
    5AU     LIG 1817  15.090   1.566   7.712
    5AU       S 1818  14.239   1.884   8.115
    5AU     LIG 1819  14.556   1.579   7.884
    5AU     LIG 1820  14.864   1.401   8.172
    5AU     LIG 1821  14.805   1.284   8.608
    5AU       S 1822  14.607   2.053   7.568
    5AU     LIG 1823  14.813   2.010   7.194
    5AU     LIG 1824  15.212   1.776   7.241
    5AU     LIG 1825  15.520   1.525   7.001
    5AU       S 1826  14.340   1.962   6.952
    5AU     LIG 1827  14.462   1.519   6.875
    5AU     LIG 1828  14.348   1.069   6.785
    5AU     LIG 1829  14.280   0.729   6.471
    5AU       S 1830  12.681   2.047   6.913
    5AU     LIG 1831  12.414   2.109   6.550
    5AU     LIG 1832  12.079   1.911   6.310
    5AU     LIG 1833  11.904   1.482   6.267
    5AU       S 1834  12.320   2.211   7.713
    5AU     LIG 1835  11.919   2.059   7.708
    5AU     LIG 1836  11.587   2.132   7.411
    5AU     LIG 1837  11.165   2.004   7.339
    5AU       S 1838  12.724   2.012   8.349
    5AU     LIG 1839  12.390   1.831   8.055
    5AU     LIG 1840  11.999   1.556   7.959
    5AU     LIG 1841  11.788   1.156   8.127
    5AU       S 1842  12.367   2.490   7.851
    5AU     LIG 1843  11.954   2.618   7.967
    5AU     LIG 1844  11.593   2.440   7.829
    5AU     LIG 1845  11.378   2.010   7.861
    5AU       S 1846  12.974   3.693   7.870
    5AU     LIG 1847  12.538   3.782   7.927
    5AU     LIG 1848  12.283   3.572   8.254
    5AU     LIG 1849  11.959   3.728   8.535
    5AU       S 1850  13.547   3.851   7.886
    5AU     LIG 1851  13.824   3.960   8.236
    5AU     LIG 1852  13.817   4.393   8.421
    5AU     LIG 1853  13.558   4.794   8.489
    5AU       S 1854  13.646   4.028   7.763
    5AU     LIG 1855  13.281   4.252   7.954
    5AU     LIG 1856  13.252   4.642   8.106
    5AU     LIG 1857  13.445   5.029   7.990
    5AU       S 1858  13.516   3.810   7.024
    5AU     LIG 1859  13.532   4.164   7.220
    5AU     LIG 1860  13.616   4.542   7.090
    5AU     LIG 1861  13.933   4.815   7.127
    5AU       S 1862  14.027   3.429   8.371
    5AU     LIG 1863  14.251   3.847   8.533
    5AU     LIG 1864  14.531   3.936   8.870
    5AU     LIG 1865  14.789   3.774   9.208
    5AU       S 1866  13.815   3.884   7.553
    5AU     LIG 1867  13.820   4.420   7.552
    5AU     LIG 1868  13.732   4.587   7.941
    5AU     LIG 1869  13.961   4.860   8.190
    5AU       S 1870  13.414   1.555   8.111
    5AU     LIG 1871  13.803   1.279   8.214
    5AU     LIG 1872  13.948   0.838   8.366
    5AU     LIG 1873  13.704   0.491   8.549
    5AU       S 1874  13.987   1.862   7.989
    5AU     LIG 1875  14.069   1.483   7.818
    5AU     LIG 1876  14.286   1.085   7.909
    5AU     LIG 1877  14.597   0.931   8.239
    5AU       S 1878  13.208   1.489   7.955
    5AU     LIG 1879  13.142   1.172   7.649
    5AU     LIG 1880  13.301   0.775   7.775
    5AU     LIG 1881  13.412   0.798   8.235
    5AU       S 1882  12.958   2.135   8.502
    5AU     LIG 1883  12.643   1.950   8.827
    5AU     LIG 1884  12.268   1.726   8.616
    5AU     LIG 1885  12.034   1.298   8.626
    5AU       S 1886  13.637   1.549   7.297
    5AU     LIG 1887  13.477   1.105   7.249
    5AU     LIG 1888  13.494   0.698   7.020
    5AU     LIG 1889  13.641   0.240   7.024
    5AU       S 1890  13.559   1.598   7.887
    5AU     LIG 1891  13.640   1.225   7.719
    5AU     LIG 1892  13.800   0.872   7.893
    5AU     LIG 1893  13.682   0.437   8.019
    5AU       S 1894  13.365   3.712   6.748
    5AU     LIG 1895  13.280   4.160   6.719
    5AU     LIG 1896  13.539   4.499   6.582
    5AU     LIG 1897  13.645   4.530   6.129
    5AU       S 1898  14.133   3.558   7.129
    5AU     LIG 1899  14.444   3.876   7.022
    5AU     LIG 1900  14.695   3.824   6.647
    5AU     LIG 1901  14.953   4.070   6.364
    5AU       S 1902  13.186   3.730   7.026
    5AU     LIG 1903  13.034   4.145   7.165
    5AU     LIG 1904  13.109   4.570   6.971
    5AU     LIG 1905  13.056   4.626   6.508
    5AU       S 1906  12.725   3.120   6.640
    5AU     LIG 1907  12.650   3.505   6.408
    5AU     LIG 1908  12.897   3.855   6.233
    5AU     LIG 1909  12.839   4.307   6.177
    5AU       S 1910  12.760   1.867   7.174
    5AU     LIG 1911  12.418   1.648   7.112
    5AU     LIG 1912  12.284   1.617   6.688
    5AU     LIG 1913  12.312   1.249   6.470
    5AU       S 1914  13.634   1.579   7.140
    5AU     LIG 1915  13.945   1.405   6.887
    5AU     LIG 1916  13.872   1.037   6.596
    5AU     LIG 1917  13.692   0.613   6.543
    5AU       S 1918  13.883   1.676   7.387
    5AU     LIG 1919  14.019   1.238   7.375
    5AU     LIG 1920  13.949   0.944   7.091
    5AU     LIG 1921  14.042   0.581   6.909
    5AU       S 1922  14.166   2.107   6.697
    5AU     LIG 1923  14.040   1.766   6.547
    5AU     LIG 1924  14.198   1.394   6.417
    5AU     LIG 1925  14.144   1.074   6.096
    6AU     AUC 1926  44.185  32.806   7.518
    6AU     AUC 1927  44.439  32.803   7.354
    6AU     AUC 1928  44.426  32.805   7.688
    6AU     AUC 1929  43.923  32.806   7.362
    6AU     AUC 1930  43.941  32.854   7.684
    6AU     AUC 1931  44.025  33.066   7.477
    6AU     AUC 1932  44.360  33.064   7.481
    6AU     AUC 1933  44.013  32.556   7.542
    6AU     AUC 1934  44.344  32.535   7.543
    6AU     AUC 1935  44.181  32.661   7.789
    6AU     AUC 1936  44.191  33.002   7.751
    6AU     AUC 1937  44.182  32.620   7.276
    6AU     AUC 1938  44.198  32.923   7.248
    6AU     AUC 1939  44.755  32.796   7.204
    6AU     AUC 1940  44.752  32.785   7.541
    6AU     AUC 1941  44.715  32.790   7.895
    6AU     AUC 1942  43.627  32.767   7.217
    6AU     AUC 1943  43.614  32.846   7.538
    6AU     AUC 1944  43.642  32.912   7.860
    6AU     AUC 1945  43.865  33.371   7.410
    6AU     AUC 1946  44.222  33.358   7.399
    6AU     AUC 1947  44.556  33.344   7.441
    6AU     AUC 1948  43.817  32.266   7.565
    6AU     AUC 1949  44.164  32.243   7.544
    6AU     AUC 1950  44.514  32.234   7.557
    6AU     AUC 1951  44.147  32.512   8.100
    6AU     AUC 1952  44.174  32.858   8.083
    6AU     AUC 1953  44.224  33.214   8.034
    6AU     AUC 1954  44.221  32.423   6.996
    6AU     AUC 1955  44.168  32.751   6.944
    6AU     AUC 1956  44.159  33.066   6.928
    6AU     AUC 1957  44.422  32.614   8.006
    6AU     AUC 1958  44.463  32.970   7.984
    6AU     AUC 1959  44.492  32.633   7.062
    6AU     AUC 1960  44.455  32.938   7.068
    6AU     AUC 1961  43.892  32.741   7.995
    6AU     AUC 1962  43.931  33.089   7.935
    6AU     AUC 1963  43.909  32.574   7.096
    6AU     AUC 1964  43.863  32.894   7.054
    6AU     AUC 1965  44.683  33.069   7.342
    6AU     AUC 1966  44.621  33.052   7.681
    6AU     AUC 1967  43.723  33.075   7.347
    6AU     AUC 1968  43.771  33.170   7.668
    6AU     AUC 1969  44.649  32.525   7.401
    6AU     AUC 1970  44.591  32.486   7.742
    6AU     AUC 1971  43.727  32.495   7.384
    6AU     AUC 1972  43.748  32.591   7.718
    6AU     AUC 1973  44.083  33.319   7.726
    6AU     AUC 1974  44.391  33.277   7.751
    6AU     AUC 1975  43.987  32.391   7.827
    6AU     AUC 1976  44.293  32.330   7.818
    6AU     AUC 1977  43.996  33.215   7.163
    6AU     AUC 1978  44.362  33.239   7.183
    6AU     AUC 1979  44.039  32.325   7.266
    6AU     AUC 1980  44.403  32.370   7.272
    6AU    AUSL 1981  44.689  32.733   8.296
    6AU    AUSL 1982  44.425  32.348   8.224
    6AU     AUL 1983  44.723  32.379   8.399
    6AU    AUSL 1984  44.273  32.681   8.450
    6AU    AUSL 1985  44.037  33.081   8.426
    6AU     AUL 1986  44.268  32.977   8.715
    6AU    AUSL 1987  44.371  33.024   8.169
    6AU    AUSL 1988  44.821  33.108   8.109
    6AU     AUL 1989  44.646  33.040   8.433
    6AU    AUSL 1990  44.624  32.819   6.845
    6AU    AUSL 1991  44.465  33.207   6.965
    6AU     AUL 1992  44.695  33.142   6.680
    6AU    AUSL 1993  44.440  32.510   6.597
    6AU    AUSL 1994  44.944  32.574   6.988
    6AU     AUL 1995  44.810  32.665   6.648
    6AU    AUSL 1996  44.254  32.962   6.666
    6AU    AUSL 1997  44.072  32.575   6.810
    6AU     AUL 1998  44.179  32.628   6.477
    6AU    AUSL 1999  43.649  33.042   8.208
    6AU    AUSL 2000  43.995  33.328   8.070
    6AU     AUL 2001  43.830  33.313   8.383
    6AU    AUSL 2002  43.948  32.725   8.176
    6AU    AUSL 2003  43.512  32.625   8.124
    6AU     AUL 2004  43.508  32.815   8.310
    6AU    AUSL 2005  43.631  32.552   6.789
    6AU    AUSL 2006  43.882  32.224   6.966
    6AU     AUL 2007  43.922  32.268   6.652
    6AU    AUSL 2008  43.821  32.917   6.641
    6AU    AUSL 2009  43.539  32.920   7.017
    6AU     AUL 2010  43.419  32.776   6.761
    6AU    AUSL 2011  44.960  33.288   7.499
    6AU    AUSL 2012  44.872  33.056   7.106
    6AU     AUL 2013   0.193  33.296   7.203
    6AU    AUSL 2014   0.150  32.879   7.390
    6AU    AUSL 2015   0.103  32.573   7.758
    6AU     AUL 2016   0.408  32.615   7.532
    6AU    AUSL 2017  44.867  32.928   7.730
    6AU    AUSL 2018  44.622  33.323   7.767
    6AU     AUL 2019  44.962  33.312   7.831
    6AU    AUSL 2020  43.616  33.456   7.451
    6AU    AUSL 2021  43.643  33.225   7.821
    6AU     AUL 2022  43.344  33.468   7.650
    6AU    AUSL 2023  43.425  33.058   7.406
    6AU    AUSL 2024  43.559  33.352   7.042
    6AU     AUL 2025  43.320  33.271   7.195
    6AU    AUSL 2026  43.270  33.029   7.843
    6AU    AUSL 2027  43.258  32.667   7.350
    6AU     AUL 2028  43.110  32.994   7.527
    6AU    AUSL 2029  44.863  32.226   7.620
    6AU    AUSL 2030  44.704  32.522   7.925
    6AU     AUL 2031   0.006  32.420   7.999
    6AU    AUSL 2032  44.833  32.596   7.397
    6AU    AUSL 2033  44.829  32.183   7.187
    6AU     AUL 2034   0.076  32.389   7.275
    6AU    AUSL 2035  43.422  32.303   7.572
    6AU    AUSL 2036  43.624  32.495   7.208
    6AU     AUL 2037  43.280  32.417   7.198
    6AU    AUSL 2038  43.514  32.713   7.704
    6AU    AUSL 2039  43.729  32.348   7.871
    6AU     AUL 2040  43.382  32.404   7.916
    6AU    AUSL 2041  44.262  33.617   7.888
    6AU    AUSL 2042  43.811  33.633   7.800
    6AU     AUL 2043  44.033  33.676   8.146
    6AU    AUSL 2044  44.091  33.511   7.504
    6AU    AUSL 2045  44.337  33.616   7.153
    6AU     AUL 2046  44.096  33.854   7.428
    6AU    AUSL 2047  44.530  33.671   7.539
    6AU    AUSL 2048  44.508  33.425   8.180
    6AU     AUL 2049  44.630  33.662   7.899
    6AU    AUSL 2050  44.111  32.162   7.989
    6AU    AUSL 2051  44.540  32.116   7.876
    6AU     AUL 2052  44.290  32.057   8.246
    6AU    AUSL 2053  43.805  31.958   7.718
    6AU    AUSL 2054  43.870  32.332   8.301
    6AU     AUL 2055  43.770  32.046   8.061
    6AU    AUSL 2056  44.245  31.869   7.690
    6AU    AUSL 2057  44.039  32.113   7.381
    6AU     AUL 2058  43.942  31.756   7.500
    6AU    AUSL 2059  44.170  33.440   6.761
    6AU    AUSL 2060  44.735  33.469   7.182
    6AU     AUL 2061  44.491  33.548   6.851
    6AU    AUSL 2062  43.912  33.576   7.114
    6AU    AUSL 2063  43.937  33.149   6.972
    6AU     AUL 2064  43.837  33.407   6.761
    6AU    AUSL 2065  44.269  32.038   7.003
    6AU    AUSL 2066  43.629  32.054   7.285
    6AU     AUL 2067  43.931  31.905   7.056
    6AU    AUSL 2068  44.473  32.091   7.400
    6AU    AUSL 2069  44.498  32.403   7.006
    6AU     AUL 2070  44.583  32.034   7.009
    6AU       S 2071  44.730  31.921   8.278
    6AU     LIG 2072  44.931  31.509   8.301
    6AU     LIG 2073   0.128  31.116   8.302
    6AU     LIG 2074   0.528  30.950   8.442
    6AU       S 2075  44.657  32.679   8.748
    6AU     LIG 2076  44.877  32.970   9.039
    6AU     LIG 2077   0.082  32.921   9.464
    6AU     LIG 2078   0.283  32.716   9.838
    6AU       S 2079  44.298  32.503   8.656
    6AU     LIG 2080  44.293  32.599   9.099
    6AU     LIG 2081  44.651  32.609   9.415
    6AU     LIG 2082  44.892  32.374   9.753
    6AU       S 2083  43.821  32.901   8.656
    6AU     LIG 2084  43.833  32.860   9.115
    6AU     LIG 2085  43.505  32.826   9.422
    6AU     LIG 2086  43.182  32.815   9.777
    6AU       S 2087  44.287  33.435   8.576
    6AU     LIG 2088  44.550  33.700   8.820
    6AU     LIG 2089  44.879  33.697   9.123
    6AU     LIG 2090   0.196  33.392   9.248
    6AU       S 2091   0.014  33.302   8.301
    6AU     LIG 2092   0.075  33.442   8.720
    6AU     LIG 2093   0.335  33.769   8.897
    6AU     LIG 2094   0.664  34.072   9.017
    6AU       S 2095  44.570  32.911   6.308
    6AU     LIG 2096   0.034  32.842   6.210
    6AU     LIG 2097   0.206  32.587   5.869
    6AU     LIG 2098   0.083  32.334   5.500
    6AU       S 2099  44.938  33.536   6.765
    6AU     LIG 2100   0.007  33.899   6.521
    6AU     LIG 2101   0.195  34.107   6.156
    6AU     LIG 2102   0.469  34.161   5.781
    6AU       S 2103   0.134  32.350   6.797
    6AU     LIG 2104   0.156  32.307   6.325
    6AU     LIG 2105   0.172  31.853   6.237
    6AU     LIG 2106   0.342  31.430   6.374
    6AU       S 2107  44.557  32.724   6.245
    6AU     LIG 2108  44.713  32.413   5.972
    6AU     LIG 2109  44.575  32.310   5.527
    6AU     LIG 2110  44.751  32.487   5.120
    6AU       S 2111  43.754  32.569   6.321
    6AU     LIG 2112  43.748  32.646   5.906
    6AU     LIG 2113  43.893  32.494   5.506
    6AU     LIG 2114  43.660  32.444   5.104
    6AU       S 2115  44.312  33.073   6.414
    6AU     LIG 2116  44.102  32.966   6.065
    6AU     LIG 2117  44.330  32.729   5.756
    6AU     LIG 2118  44.785  32.772   5.603
    6AU       S 2119  43.620  33.043   8.696
    6AU     LIG 2120  43.306  32.845   8.760
    6AU     LIG 2121  43.287  32.465   8.931
    6AU     LIG 2122  43.116  32.491   9.352
    6AU       S 2123  43.544  33.597   8.163
    6AU     LIG 2124  43.533  33.672   8.567
    6AU     LIG 2125  43.199  33.711   8.822
    6AU     LIG 2126  43.001  34.044   8.985
    6AU       S 2127  43.406  32.371   8.412
    6AU     LIG 2128  43.073  32.557   8.422
    6AU     LIG 2129  42.831  32.241   8.574
    6AU     LIG 2130  42.741  31.910   8.855
    6AU       S 2131  43.829  32.705   8.622
    6AU     LIG 2132  43.814  32.394   8.919
    6AU     LIG 2133  43.611  32.319   9.316
    6AU     LIG 2134  43.540  32.437   9.764
    6AU       S 2135  43.577  32.500   6.428
    6AU     LIG 2136  43.406  32.201   6.141
    6AU     LIG 2137  43.400  32.322   5.693
    6AU     LIG 2138  43.446  32.751   5.484
    6AU       S 2139  43.547  32.035   6.802
    6AU     LIG 2140  43.528  31.730   6.476
    6AU     LIG 2141  43.413  31.683   6.021
    6AU     LIG 2142  43.028  31.914   5.873
    6AU       S 2143  43.243  33.199   6.712
    6AU     LIG 2144  42.863  33.185   6.509
    6AU     LIG 2145  42.582  33.504   6.356
    6AU     LIG 2146  42.782  33.892   6.165
    6AU       S 2147  43.759  32.860   6.424
    6AU     LIG 2148  43.410  32.952   6.194
    6AU     LIG 2149  43.554  33.141   5.824
    6AU     LIG 2150  43.915  33.017   5.565
    6AU       S 2151   0.062  33.394   6.785
    6AU     LIG 2152   0.208  33.442   6.351
    6AU     LIG 2153   0.444  33.674   6.043
    6AU     LIG 2154   0.839  33.853   5.978
    6AU       S 2155   0.379  33.305   7.635
    6AU     LIG 2156   0.628  33.516   7.290
    6AU     LIG 2157   1.040  33.619   7.355
    6AU     LIG 2158   1.201  33.666   7.770
    6AU       S 2159   0.355  33.063   7.604
    6AU     LIG 2160   0.669  32.998   7.305
    6AU     LIG 2161   1.106  33.116   7.287
    6AU     LIG 2162   1.320  33.394   6.990
    6AU       S 2163   0.339  32.196   7.770
    6AU     LIG 2164   0.702  31.984   7.997
    6AU     LIG 2165   1.162  31.948   7.859
    6AU     LIG 2166   1.297  32.034   7.409
    6AU       S 2167  44.970  33.570   8.209
    6AU     LIG 2168   0.323  33.773   8.378
    6AU     LIG 2169   0.387  34.188   8.581
    6AU     LIG 2170   0.404  34.515   8.930
    6AU       S 2171   0.302  33.000   7.854
    6AU     LIG 2172   0.823  33.137   7.778
    6AU     LIG 2173   1.287  33.171   7.871
    6AU     LIG 2174   1.664  33.489   7.964
    6AU       S 2175  43.424  33.423   8.101
    6AU     LIG 2176  43.203  33.279   8.436
    6AU     LIG 2177  42.818  33.469   8.576
    6AU     LIG 2178  42.502  33.365   8.870
    6AU       S 2179  43.587  33.807   7.374
    6AU     LIG 2180  43.356  34.263   7.321
    6AU     LIG 2181  42.798  34.171   7.186
    6AU     LIG 2182  42.602  33.974   6.783
    6AU       S 2183  43.035  32.919   7.049
    6AU     LIG 2184  42.799  33.179   7.015
    6AU     LIG 2185  42.530  33.432   6.880
    6AU     LIG 2186  42.459  33.712   7.204
    6AU       S 2187  43.440  33.609   6.892
    6AU     LIG 2188  43.528  33.791   6.547
    6AU     LIG 2189  43.255  34.063   6.341
    6AU     LIG 2190  42.917  34.288   6.507
    6AU       S 2191  42.985  32.535   7.559
    6AU     LIG 2192  42.603  32.471   7.335
    6AU     LIG 2193  42.161  32.722   7.353
    6AU     LIG 2194  41.772  32.525   7.183
    6AU       S 2195  43.146  32.968   8.028
    6AU     LIG 2196  42.747  33.107   7.940
    6AU     LIG 2197  42.716  33.524   8.051
    6AU     LIG 2198  42.475  33.744   8.325
    6AU       S 2199   0.018  32.069   7.638
    6AU     LIG 2200   0.082  31.692   7.426
    6AU     LIG 2201   0.471  31.530   7.533
    6AU     LIG 2202   0.794  31.826   7.524
    6AU       S 2203  44.913  31.998   8.126
    6AU     LIG 2204   0.248  31.740   7.963
    6AU     LIG 2205   0.470  31.529   8.282
    6AU     LIG 2206   0.306  31.402   8.695
    6AU       S 2207   0.310  32.134   7.566
    6AU     LIG 2208   0.446  31.982   7.181
    6AU     LIG 2209   0.880  31.927   7.030
    6AU     LIG 2210   1.265  31.688   7.021
    6AU       S 2211   0.038  32.093   6.901
    6AU     LIG 2212   0.158  31.719   6.779
    6AU     LIG 2213   0.030  31.301   6.778
    6AU     LIG 2214  44.934  30.978   6.471
    6AU       S 2215  43.412  32.142   6.861
    6AU     LIG 2216  43.135  32.296   6.586
    6AU     LIG 2217  42.803  32.137   6.326
    6AU     LIG 2218  42.558  31.776   6.212
    6AU       S 2219  43.053  32.292   7.600
    6AU     LIG 2220  42.702  32.035   7.611
    6AU     LIG 2221  42.459  31.981   7.208
    6AU     LIG 2222  42.074  31.802   7.088
    6AU       S 2223  43.402  32.168   8.310
    6AU     LIG 2224  43.276  31.939   7.943
    6AU     LIG 2225  42.969  31.798   8.156
    6AU     LIG 2226  43.036  31.578   8.519
    6AU       S 2227  43.001  32.586   7.746
    6AU     LIG 2228  42.898  32.279   8.057
    6AU     LIG 2229  42.522  32.125   8.197
    6AU     LIG 2230  42.143  32.372   8.258
    6AU       S 2231  43.663  33.785   7.864
    6AU     LIG 2232  43.212  33.865   7.907
    6AU     LIG 2233  42.908  34.031   8.136
    6AU     LIG 2234  42.813  34.067   8.529
    6AU       S 2235  44.275  33.966   7.864
    6AU     LIG 2236  44.473  34.237   8.168
    6AU     LIG 2237  44.311  34.462   8.534
    6AU     LIG 2238  44.233  34.878   8.701
    6AU       S 2239  44.091  34.088   7.847
    6AU     LIG 2240  43.977  34.389   8.098
    6AU     LIG 2241  44.176  34.754   8.143
    6AU     LIG 2242  44.250  35.130   7.934
    6AU       S 2243  44.223  33.919   6.965
    6AU     LIG 2244  44.302  34.237   7.222
    6AU     LIG 2245  44.184  34.604   7.220
    6AU     LIG 2246  44.342  34.874   6.983
    6AU       S 2247  44.728  33.525   8.356
    6AU     LIG 2248  44.869  33.954   8.524
    6AU     LIG 2249  44.996  34.161   8.915
    6AU     LIG 2250   0.228  34.082   9.311
    6AU       S 2251  44.464  34.036   7.656
    6AU     LIG 2252  44.360  34.488   7.710
    6AU     LIG 2253  44.636  34.771   7.947
    6AU     LIG 2254  44.590  35.031   8.329
    6AU       S 2255  44.075  31.676   8.091
    6AU     LIG 2256  44.439  31.405   8.196
    6AU     LIG 2257  44.526  31.040   8.441
    6AU     LIG 2258  44.293  30.705   8.699
    6AU       S 2259  44.674  31.969   7.982
    6AU     LIG 2260  44.765  31.598   7.820
    6AU     LIG 2261   0.082  31.283   7.810
    6AU     LIG 2262   0.518  31.154   7.942
    6AU       S 2263  43.903  31.617   7.941
    6AU     LIG 2264  43.862  31.278   7.770
    6AU     LIG 2265  43.666  31.052   8.074
    6AU     LIG 2266  43.976  30.810   8.302
    6AU       S 2267  43.673  32.293   8.448
    6AU     LIG 2268  43.638  31.957   8.688
    6AU     LIG 2269  43.247  31.961   8.800
    6AU     LIG 2270  43.109  31.620   9.013
    6AU       S 2271  44.333  31.651   7.287
    6AU     LIG 2272  44.030  31.303   7.281
    6AU     LIG 2273  44.191  31.137   6.937
    6AU     LIG 2274  44.205  30.750   6.744
    6AU       S 2275  44.249  31.708   7.860
    6AU     LIG 2276  44.359  31.327   7.684
    6AU     LIG 2277  44.353  30.942   7.931
    6AU     LIG 2278  44.479  30.589   8.211
    6AU       S 2279  44.105  33.789   6.692
    6AU     LIG 2280  43.882  34.149   6.584
    6AU     LIG 2281  44.061  34.507   6.713
    6AU     LIG 2282  44.337  34.806   6.488
    6AU       S 2283  44.904  33.646   7.066
    6AU     LIG 2284   0.328  33.816   6.933
    6AU     LIG 2285   0.536  33.913   6.519
    6AU     LIG 2286   0.684  34.274   6.252
    6AU       S 2287  43.913  33.824   6.978
    6AU     LIG 2288  43.792  34.214   7.074
    6AU     LIG 2289  43.701  34.657   7.068
    6AU     LIG 2290  43.890  34.977   6.767
    6AU       S 2291  43.446  33.241   6.610
    6AU     LIG 2292  43.703  33.373   6.275
    6AU     LIG 2293  43.682  33.779   6.054
    6AU     LIG 2294  43.920  34.173   6.075
    6AU       S 2295  43.460  31.986   7.097
    6AU     LIG 2296  43.258  31.620   6.945
    6AU     LIG 2297  42.926  31.333   6.804
    6AU     LIG 2298  42.693  31.327   6.442
    6AU       S 2299  44.336  31.662   7.117
    6AU     LIG 2300  44.545  31.470   6.785
    6AU     LIG 2301  44.440  31.134   6.484
    6AU     LIG 2302  44.438  30.712   6.287
    6AU       S 2303  44.584  31.758   7.385
    6AU     LIG 2304  44.720  31.324   7.250
    6AU     LIG 2305  44.670  30.962   6.927
    6AU     LIG 2306  44.730  30.563   6.694
    6AU       S 2307  44.846  32.207   6.685
    6AU     LIG 2308  44.725  31.859   6.512
    6AU     LIG 2309  44.818  31.464   6.328
    6AU     LIG 2310  44.701  31.120   6.029
    7AU     AUC 2311  36.276   7.817   7.522
    7AU     AUC 2312  36.530   7.819   7.359
    7AU     AUC 2313  36.516   7.814   7.694
    7AU     AUC 2314  36.011   7.815   7.363
    7AU     AUC 2315  36.031   7.860   7.686
    7AU     AUC 2316  36.114   8.076   7.484
    7AU     AUC 2317  36.449   8.077   7.490
    7AU     AUC 2318  36.106   7.567   7.539
    7AU     AUC 2319  36.437   7.548   7.544
    7AU     AUC 2320  36.273   7.666   7.791
    7AU     AUC 2321  36.279   8.009   7.758
    7AU     AUC 2322  36.274   7.635   7.278
    7AU     AUC 2323  36.289   7.939   7.254
    7AU     AUC 2324  36.847   7.816   7.210
    7AU     AUC 2325  36.843   7.801   7.549
    7AU     AUC 2326  36.804   7.799   7.902
    7AU     AUC 2327  35.712   7.775   7.221
    7AU     AUC 2328  35.702   7.853   7.542
    7AU     AUC 2329  35.733   7.912   7.859
    7AU     AUC 2330  35.953   8.383   7.421
    7AU     AUC 2331  36.310   8.371   7.412
    7AU     AUC 2332  36.643   8.358   7.456
    7AU     AUC 2333  35.914   7.274   7.558
    7AU     AUC 2334  36.261   7.253   7.540
    7AU     AUC 2335  36.612   7.249   7.552
    7AU     AUC 2336  36.242   7.508   8.099
    7AU     AUC 2337  36.261   7.857   8.087
    7AU     AUC 2338  36.308   8.215   8.044
    7AU     AUC 2339  36.315   7.445   6.997
    7AU     AUC 2340  36.263   7.772   6.947
    7AU     AUC 2341  36.250   8.087   6.935
    7AU     AUC 2342  36.513   7.617   8.009
    7AU     AUC 2343  36.549   7.973   7.993
    7AU     AUC 2344  36.587   7.655   7.065
    7AU     AUC 2345  36.546   7.957   7.074
    7AU     AUC 2346  35.983   7.742   7.999
    7AU     AUC 2347  36.018   8.090   7.942
    7AU     AUC 2348  36.000   7.591   7.097
    7AU     AUC 2349  35.955   7.910   7.059
    7AU     AUC 2350  36.772   8.087   7.354
    7AU     AUC 2351  36.708   8.063   7.692
    7AU     AUC 2352  35.813   8.085   7.352
    7AU     AUC 2353  35.860   8.176   7.674
    7AU     AUC 2354  36.745   7.543   7.405
    7AU     AUC 2355  36.686   7.497   7.742
    7AU     AUC 2356  35.815   7.506   7.384
    7AU     AUC 2357  35.839   7.596   7.717
    7AU     AUC 2358  36.172   8.326   7.738
    7AU     AUC 2359  36.477   8.284   7.765
    7AU     AUC 2360  36.085   7.391   7.823
    7AU     AUC 2361  36.390   7.334   7.814
    7AU     AUC 2362  36.085   8.232   7.172
    7AU     AUC 2363  36.451   8.257   7.195
    7AU     AUC 2364  36.128   7.343   7.264
    7AU     AUC 2365  36.498   7.389   7.271
    7AU    AUSL 2366  36.774   7.733   8.304
    7AU    AUSL 2367  36.524   7.343   8.223
    7AU     AUL 2368  36.821   7.376   8.401
    7AU    AUSL 2369  36.355   7.671   8.448
    7AU    AUSL 2370  36.114   8.069   8.431
    7AU     AUL 2371  36.336   7.966   8.719
    7AU    AUSL 2372  36.453   8.024   8.179
    7AU    AUSL 2373  36.904   8.111   8.125
    7AU     AUL 2374  36.721   8.038   8.446
    7AU    AUSL 2375  36.721   7.843   6.845
    7AU    AUSL 2376  36.555   8.226   6.975
    7AU     AUL 2377  36.799   8.164   6.694
    7AU    AUSL 2378  36.538   7.531   6.599
    7AU    AUSL 2379  37.040   7.597   6.991
    7AU     AUL 2380  36.908   7.675   6.657
    7AU    AUSL 2381  36.350   7.986   6.670
    7AU    AUSL 2382  36.170   7.596   6.811
    7AU     AUL 2383  36.276   7.655   6.478
    7AU    AUSL 2384  35.728   8.029   8.207
    7AU    AUSL 2385  36.080   8.331   8.086
    7AU     AUL 2386  35.907   8.302   8.398
    7AU    AUSL 2387  36.031   7.717   8.173
    7AU    AUSL 2388  35.603   7.601   8.127
    7AU     AUL 2389  35.561   7.812   8.285
    7AU    AUSL 2390  35.730   7.575   6.789
    7AU    AUSL 2391  35.974   7.246   6.966
    7AU     AUL 2392  36.017   7.294   6.649
    7AU    AUSL 2393  35.918   7.940   6.645
    7AU    AUSL 2394  35.633   7.938   7.020
    7AU     AUL 2395  35.518   7.782   6.766
    7AU    AUSL 2396  37.048   8.307   7.515
    7AU    AUSL 2397  36.956   8.072   7.124
    7AU     AUL 2398  37.272   8.304   7.190
    7AU    AUSL 2399  37.243   7.902   7.403
    7AU    AUSL 2400  37.196   7.591   7.764
    7AU     AUL 2401  37.498   7.648   7.547
    7AU    AUSL 2402  36.956   7.943   7.740
    7AU    AUSL 2403  36.709   8.331   7.785
    7AU     AUL 2404  37.039   8.326   7.853
    7AU    AUSL 2405  35.703   8.463   7.462
    7AU    AUSL 2406  35.736   8.228   7.829
    7AU     AUL 2407  35.429   8.475   7.670
    7AU    AUSL 2408  35.515   8.064   7.411
    7AU    AUSL 2409  35.650   8.369   7.049
    7AU     AUL 2410  35.416   8.294   7.202
    7AU    AUSL 2411  35.361   8.037   7.842
    7AU    AUSL 2412  35.342   7.675   7.363
    7AU     AUL 2413  35.190   8.012   7.525
    7AU    AUSL 2414  36.963   7.244   7.616
    7AU    AUSL 2415  36.797   7.531   7.927
    7AU     AUL 2416  37.100   7.431   8.002
    7AU    AUSL 2417  36.927   7.618   7.399
    7AU    AUSL 2418  36.928   7.205   7.184
    7AU     AUL 2419  37.174   7.422   7.272
    7AU    AUSL 2420  35.520   7.306   7.575
    7AU    AUSL 2421  35.704   7.506   7.207
    7AU     AUL 2422  35.345   7.395   7.244
    7AU    AUSL 2423  35.605   7.715   7.714
    7AU    AUSL 2424  35.839   7.348   7.862
    7AU     AUL 2425  35.515   7.340   7.909
    7AU    AUSL 2426  36.346   8.624   7.904
    7AU    AUSL 2427  35.895   8.638   7.814
    7AU     AUL 2428  36.115   8.674   8.162
    7AU    AUSL 2429  36.178   8.520   7.519
    7AU    AUSL 2430  36.424   8.634   7.172
    7AU     AUL 2431  36.172   8.869   7.460
    7AU    AUSL 2432  36.617   8.676   7.557
    7AU    AUSL 2433  36.588   8.426   8.196
    7AU     AUL 2434  36.709   8.669   7.926
    7AU    AUSL 2435  36.215   7.156   7.984
    7AU    AUSL 2436  36.641   7.122   7.867
    7AU     AUL 2437  36.396   7.050   8.237
    7AU    AUSL 2438  35.908   6.957   7.710
    7AU    AUSL 2439  35.969   7.320   8.295
    7AU     AUL 2440  35.891   7.036   8.063
    7AU    AUSL 2441  36.350   6.875   7.674
    7AU    AUSL 2442  36.136   7.126   7.376
    7AU     AUL 2443  36.050   6.760   7.481
    7AU    AUSL 2444  36.261   8.467   6.777
    7AU    AUSL 2445  36.822   8.487   7.197
    7AU     AUL 2446  36.581   8.564   6.863
    7AU    AUSL 2447  36.000   8.597   7.131
    7AU    AUSL 2448  36.030   8.170   6.980
    7AU     AUL 2449  35.931   8.448   6.780
    7AU    AUSL 2450  36.364   7.064   6.994
    7AU    AUSL 2451  35.726   7.064   7.282
    7AU     AUL 2452  36.026   6.927   7.044
    7AU    AUSL 2453  36.570   7.112   7.390
    7AU    AUSL 2454  36.596   7.428   7.009
    7AU     AUL 2455  36.678   7.069   6.988
    7AU       S 2456  36.840   6.921   8.263
    7AU     LIG 2457  37.018   6.468   8.255
    7AU     LIG 2458  37.147   6.081   8.489
    7AU     LIG 2459  37.270   5.726   8.785
    7AU       S 2460  36.735   7.672   8.751
    7AU     LIG 2461  36.999   7.967   8.995
    7AU     LIG 2462  37.221   7.912   9.408
    7AU     LIG 2463  37.430   7.820   9.819
    7AU       S 2464  36.389   7.500   8.648
    7AU     LIG 2465  36.397   7.529   9.101
    7AU     LIG 2466  36.804   7.577   9.330
    7AU     LIG 2467  37.076   7.457   9.697
    7AU       S 2468  35.896   7.863   8.637
    7AU     LIG 2469  35.872   7.787   9.091
    7AU     LIG 2470  35.477   7.786   9.274
    7AU     LIG 2471  35.290   7.786   9.697
    7AU       S 2472  36.358   8.428   8.585
    7AU     LIG 2473  36.622   8.709   8.810
    7AU     LIG 2474  37.009   8.573   9.016
    7AU     LIG 2475  37.384   8.355   9.150
    7AU       S 2476  37.091   8.301   8.322
    7AU     LIG 2477  37.343   8.463   8.637
    7AU     LIG 2478  37.551   8.804   8.828
    7AU     LIG 2479  37.694   9.185   9.071
    7AU       S 2480  36.675   7.940   6.317
    7AU     LIG 2481  36.988   7.936   5.953
    7AU     LIG 2482  37.211   7.558   5.826
    7AU     LIG 2483  37.128   7.132   5.673
    7AU       S 2484  37.029   8.568   6.791
    7AU     LIG 2485  36.838   8.774   6.472
    7AU     LIG 2486  37.079   8.916   6.125
    7AU     LIG 2487  37.445   9.125   5.975
    7AU       S 2488  37.234   7.351   6.794
    7AU     LIG 2489  37.237   7.288   6.290
    7AU     LIG 2490  37.245   6.858   6.124
    7AU     LIG 2491  37.395   6.434   6.284
    7AU       S 2492  36.662   7.751   6.263
    7AU     LIG 2493  36.767   7.381   6.045
    7AU     LIG 2494  36.614   7.199   5.648
    7AU     LIG 2495  36.797   7.205   5.223
    7AU       S 2496  35.851   7.597   6.318
    7AU     LIG 2497  35.887   7.701   5.885
    7AU     LIG 2498  36.045   7.562   5.496
    7AU     LIG 2499  35.814   7.513   5.122
    7AU       S 2500  36.417   8.099   6.428
    7AU     LIG 2501  36.228   8.005   6.071
    7AU     LIG 2502  36.439   7.716   5.792
    7AU     LIG 2503  36.806   7.657   5.519
    7AU       S 2504  35.686   8.005   8.683
    7AU     LIG 2505  35.380   7.735   8.737
    7AU     LIG 2506  35.454   7.377   8.926
    7AU     LIG 2507  35.326   7.299   9.344
    7AU       S 2508  35.637   8.617   8.188
    7AU     LIG 2509  35.423   8.910   8.422
    7AU     LIG 2510  35.075   8.908   8.703
    7AU     LIG 2511  34.906   9.141   9.061
    7AU       S 2512  35.473   7.367   8.395
    7AU     LIG 2513  35.068   7.274   8.179
    7AU     LIG 2514  34.867   6.858   8.149
    7AU     LIG 2515  34.549   6.623   8.413
    7AU       S 2516  35.892   7.680   8.585
    7AU     LIG 2517  35.969   7.345   8.871
    7AU     LIG 2518  35.846   7.299   9.281
    7AU     LIG 2519  35.761   7.556   9.635
    7AU       S 2520  35.663   7.515   6.419
    7AU     LIG 2521  35.466   7.409   6.019
    7AU     LIG 2522  35.524   7.524   5.570
    7AU     LIG 2523  35.677   7.923   5.400
    7AU       S 2524  35.637   7.073   6.807
    7AU     LIG 2525  35.485   6.688   6.642
    7AU     LIG 2526  35.236   6.507   6.314
    7AU     LIG 2527  34.875   6.467   6.042
    7AU       S 2528  35.344   8.198   6.707
    7AU     LIG 2529  35.040   8.501   6.696
    7AU     LIG 2530  35.101   8.935   6.602
    7AU     LIG 2531  35.078   9.230   6.241
    7AU       S 2532  35.851   7.874   6.420
    7AU     LIG 2533  35.587   8.044   6.143
    7AU     LIG 2534  35.792   8.230   5.798
    7AU     LIG 2535  36.152   8.083   5.545
    7AU       S 2536  37.142   8.453   6.789
    7AU     LIG 2537  37.194   8.423   6.329
    7AU     LIG 2538  37.498   8.612   6.041
    7AU     LIG 2539  37.872   8.832   5.884
    7AU       S 2540  37.434   8.345   7.630
    7AU     LIG 2541  37.545   8.674   7.341
    7AU     LIG 2542  37.950   8.785   7.442
    7AU     LIG 2543  38.065   8.848   7.868
    7AU       S 2544  37.473   8.106   7.589
    7AU     LIG 2545  37.855   8.256   7.358
    7AU     LIG 2546  38.270   8.427   7.244
    7AU     LIG 2547  38.588   8.606   7.466
    7AU       S 2548  37.425   7.214   7.758
    7AU     LIG 2549  37.769   7.053   7.957
    7AU     LIG 2550  38.198   6.994   7.809
    7AU     LIG 2551  38.443   7.067   7.408
    7AU       S 2552  37.046   8.575   8.235
    7AU     LIG 2553  37.472   8.632   8.122
    7AU     LIG 2554  37.639   9.011   8.322
    7AU     LIG 2555  37.429   9.285   8.637
    7AU       S 2556  37.386   8.027   7.861
    7AU     LIG 2557  37.831   8.287   7.903
    7AU     LIG 2558  38.263   8.370   7.775
    7AU     LIG 2559  38.623   8.599   7.974
    7AU       S 2560  35.541   8.441   8.115
    7AU     LIG 2561  35.126   8.480   8.312
    7AU     LIG 2562  34.707   8.625   8.461
    7AU     LIG 2563  34.495   8.921   8.743
    7AU       S 2564  35.642   8.788   7.376
    7AU     LIG 2565  35.453   9.071   7.085
    7AU     LIG 2566  35.074   9.114   7.087
    7AU     LIG 2567  34.923   8.698   7.148
    7AU       S 2568  35.129   7.948   7.057
    7AU     LIG 2569  34.708   8.111   7.083
    7AU     LIG 2570  34.463   8.479   7.178
    7AU     LIG 2571  34.181   8.756   7.029
    7AU       S 2572  35.508   8.624   6.863
    7AU     LIG 2573  35.651   8.996   6.631
    7AU     LIG 2574  35.384   9.368   6.665
    7AU     LIG 2575  34.928   9.433   6.713
    7AU       S 2576  35.122   7.564   7.642
    7AU     LIG 2577  34.797   7.664   7.368
    7AU     LIG 2578  34.366   7.620   7.234
    7AU     LIG 2579  33.982   7.347   7.300
    7AU       S 2580  35.248   8.064   8.010
    7AU     LIG 2581  34.961   7.932   8.296
    7AU     LIG 2582  34.559   8.169   8.219
    7AU     LIG 2583  34.562   8.561   7.966
    7AU       S 2584  37.119   7.089   7.629
    7AU     LIG 2585  37.231   6.735   7.405
    7AU     LIG 2586  37.625   6.607   7.535
    7AU     LIG 2587  37.859   6.559   7.893
    7AU       S 2588  37.017   7.002   8.112
    7AU     LIG 2589  37.348   6.737   7.958
    7AU     LIG 2590  37.548   6.518   8.298
    7AU     LIG 2591  37.716   6.541   8.735
    7AU       S 2592  37.416   7.166   7.553
    7AU     LIG 2593  37.641   6.988   7.190
    7AU     LIG 2594  38.088   6.962   7.047
    7AU     LIG 2595  38.525   7.083   6.898
    7AU       S 2596  37.153   7.077   6.944
    7AU     LIG 2597  37.196   6.700   6.703
    7AU     LIG 2598  37.144   6.230   6.699
    7AU     LIG 2599  37.111   5.871   6.389
    7AU       S 2600  35.493   7.186   6.867
    7AU     LIG 2601  35.244   7.130   6.487
    7AU     LIG 2602  34.872   6.888   6.347
    7AU     LIG 2603  34.500   6.577   6.407
    7AU       S 2604  35.123   7.328   7.663
    7AU     LIG 2605  34.714   7.264   7.776
    7AU     LIG 2606  34.403   7.125   7.477
    7AU     LIG 2607  34.131   6.888   7.153
    7AU       S 2608  35.522   7.146   8.321
    7AU     LIG 2609  35.411   6.861   7.998
    7AU     LIG 2610  35.221   6.449   7.974
    7AU     LIG 2611  34.811   6.324   8.095
    7AU       S 2612  35.158   7.611   7.812
    7AU     LIG 2613  34.735   7.808   7.852
    7AU     LIG 2614  34.334   7.610   7.754
    7AU     LIG 2615  34.035   7.247   7.817
    7AU       S 2616  35.760   8.816   7.866
    7AU     LIG 2617  35.318   8.915   7.909
    7AU     LIG 2618  34.964   8.989   8.179
    7AU     LIG 2619  34.794   9.277   8.475
    7AU       S 2620  36.353   8.961   7.876
    7AU     LIG 2621  36.523   8.956   8.300
    7AU     LIG 2622  36.394   9.308   8.551
    7AU     LIG 2623  36.058   9.641   8.530
    7AU       S 2624  36.472   9.123   7.782
    7AU     LIG 2625  36.147   9.372   8.067
    7AU     LIG 2626  35.956   9.790   8.027
    7AU     LIG 2627  35.814  10.183   7.779
    7AU       S 2628  36.343   8.938   7.023
    7AU     LIG 2629  36.372   9.307   7.282
    7AU     LIG 2630  36.239   9.705   7.136
    7AU     LIG 2631  36.469  10.093   7.060
    7AU       S 2632  36.818   8.523   8.385
    7AU     LIG 2633  37.052   8.903   8.606
    7AU     LIG 2634  37.165   9.060   9.031
    7AU     LIG 2635  37.413   8.846   9.363
    7AU       S 2636  36.638   8.939   7.541
    7AU     LIG 2637  36.834   9.366   7.571
    7AU     LIG 2638  36.519   9.626   7.827
    7AU     LIG 2639  36.485   9.755   8.261
    7AU       S 2640  36.198   6.661   8.072
    7AU     LIG 2641  36.530   6.306   8.131
    7AU     LIG 2642  36.700   5.882   8.262
    7AU     LIG 2643  36.648   5.407   8.434
    7AU       S 2644  36.778   6.970   7.967
    7AU     LIG 2645  36.892   6.606   7.782
    7AU     LIG 2646  36.964   6.153   7.812
    7AU     LIG 2647  37.161   5.794   8.045
    7AU       S 2648  35.995   6.604   7.914
    7AU     LIG 2649  36.027   6.193   7.780
    7AU     LIG 2650  36.129   5.932   8.101
    7AU     LIG 2651  35.973   5.556   8.290
    7AU       S 2652  35.722   7.234   8.470
    7AU     LIG 2653  35.409   6.892   8.710
    7AU     LIG 2654  35.096   6.548   8.526
    7AU     LIG 2655  34.765   6.202   8.609
    7AU       S 2656  36.446   6.672   7.262
    7AU     LIG 2657  36.191   6.268   7.242
    7AU     LIG 2658  36.236   5.833   7.081
    7AU     LIG 2659  36.436   5.460   6.884
    7AU       S 2660  36.357   6.700   7.850
    7AU     LIG 2661  36.492   6.344   7.634
    7AU     LIG 2662  36.502   5.919   7.735
    7AU     LIG 2663  36.431   5.548   7.998
    7AU       S 2664  36.203   8.842   6.741
    7AU     LIG 2665  36.128   9.306   6.702
    7AU     LIG 2666  36.312   9.751   6.634
    7AU     LIG 2667  36.450  10.213   6.548
    7AU       S 2668  36.985   8.676   7.099
    7AU     LIG 2669  37.339   8.947   6.913
    7AU     LIG 2670  37.538   8.988   6.478
    7AU     LIG 2671  37.903   9.207   6.249
    7AU       S 2672  36.001   8.872   7.009
    7AU     LIG 2673  35.875   9.317   7.141
    7AU     LIG 2674  35.794   9.688   6.851
    7AU     LIG 2675  36.021  10.117   6.839
    7AU       S 2676  35.557   8.253   6.613
    7AU     LIG 2677  35.431   8.589   6.346
    7AU     LIG 2678  35.515   8.982   6.126
    7AU     LIG 2679  35.571   9.440   6.195
    7AU       S 2680  35.550   6.986   7.101
    7AU     LIG 2681  35.127   6.846   6.968
    7AU     LIG 2682  34.905   6.536   6.717
    7AU     LIG 2683  34.860   6.150   6.442
    7AU       S 2684  36.437   6.696   7.110
    7AU     LIG 2685  36.709   6.529   6.802
    7AU     LIG 2686  36.665   6.132   6.541
    7AU     LIG 2687  36.605   5.674   6.420
    7AU       S 2688  36.699   6.796   7.369
    7AU     LIG 2689  36.870   6.399   7.294
    7AU     LIG 2690  36.695   6.080   7.087
    7AU     LIG 2691  36.882   5.770   6.841
    7AU       S 2692  36.982   7.219   6.694
    7AU     LIG 2693  36.814   6.958   6.424
    7AU     LIG 2694  36.881   6.534   6.304
    7AU     LIG 2695  36.990   6.207   6.017
    8AU     AUC 2696  29.203  22.525   7.534
    8AU     AUC 2697  29.452  22.515   7.371
    8AU     AUC 2698  29.445  22.519   7.706
    8AU     AUC 2699  28.939  22.527   7.375
    8AU     AUC 2700  28.958  22.574   7.697
    8AU     AUC 2701  29.047  22.787   7.493
    8AU     AUC 2702  29.381  22.781   7.498
    8AU     AUC 2703  29.028  22.278   7.555
    8AU     AUC 2704  29.358  22.251   7.559
    8AU     AUC 2705  29.198  22.378   7.804
    8AU     AUC 2706  29.212  22.720   7.767
    8AU     AUC 2707  29.197  22.338   7.290
    8AU     AUC 2708  29.216  22.643   7.263
    8AU     AUC 2709  29.766  22.498   7.218
    8AU     AUC 2710  29.768  22.489   7.563
    8AU     AUC 2711  29.733  22.500   7.912
    8AU     AUC 2712  28.642  22.491   7.234
    8AU     AUC 2713  28.631  22.573   7.553
    8AU     AUC 2714  28.661  22.634   7.869
    8AU     AUC 2715  28.892  23.095   7.427
    8AU     AUC 2716  29.248  23.079   7.416
    8AU     AUC 2717  29.580  23.059   7.461
    8AU     AUC 2718  28.829  21.987   7.578
    8AU     AUC 2719  29.177  21.961   7.558
    8AU     AUC 2720  29.526  21.949   7.574
    8AU     AUC 2721  29.161  22.226   8.115
    8AU     AUC 2722  29.190  22.573   8.097
    8AU     AUC 2723  29.249  22.930   8.048
    8AU     AUC 2724  29.235  22.144   7.011
    8AU     AUC 2725  29.189  22.473   6.956
    8AU     AUC 2726  29.178  22.788   6.942
    8AU     AUC 2727  29.437  22.329   8.024
    8AU     AUC 2728  29.486  22.687   7.997
    8AU     AUC 2729  29.508  22.352   7.073
    8AU     AUC 2730  29.467  22.651   7.080
    8AU     AUC 2731  28.906  22.460   8.009
    8AU     AUC 2732  28.952  22.808   7.951
    8AU     AUC 2733  28.924  22.297   7.112
    8AU     AUC 2734  28.883  22.617   7.069
    8AU     AUC 2735  29.693  22.776   7.361
    8AU     AUC 2736  29.647  22.764   7.695
    8AU     AUC 2737  28.747  22.801   7.361
    8AU     AUC 2738  28.796  22.895   7.683
    8AU     AUC 2739  29.662  22.237   7.417
    8AU     AUC 2740  29.606  22.197   7.761
    8AU     AUC 2741  28.737  22.221   7.399
    8AU     AUC 2742  28.758  22.314   7.731
    8AU     AUC 2743  29.112  23.039   7.744
    8AU     AUC 2744  29.419  22.993   7.769
    8AU     AUC 2745  29.001  22.107   7.840
    8AU     AUC 2746  29.308  22.045   7.834
    8AU     AUC 2747  29.019  22.939   7.179
    8AU     AUC 2748  29.381  22.958   7.201
    8AU     AUC 2749  29.049  22.049   7.283
    8AU     AUC 2750  29.415  22.088   7.287
    8AU    AUSL 2751  29.698  22.444   8.318
    8AU    AUSL 2752  29.444  22.056   8.246
    8AU     AUL 2753  29.742  22.097   8.423
    8AU    AUSL 2754  29.278  22.391   8.460
    8AU    AUSL 2755  29.046  22.790   8.438
    8AU     AUL 2756  29.264  22.689   8.728
    8AU    AUSL 2757  29.386  22.741   8.188
    8AU    AUSL 2758  29.842  22.807   8.122
    8AU     AUL 2759  29.651  22.750   8.454
    8AU    AUSL 2760  29.656  22.545   6.834
    8AU    AUSL 2761  29.482  22.924   6.977
    8AU     AUL 2762  29.753  22.874   6.718
    8AU    AUSL 2763  29.456  22.231   6.609
    8AU    AUSL 2764  29.953  22.284   7.003
    8AU     AUL 2765  29.840  22.376   6.660
    8AU    AUSL 2766  29.274  22.681   6.679
    8AU    AUSL 2767  29.089  22.294   6.824
    8AU     AUL 2768  29.194  22.348   6.487
    8AU    AUSL 2769  28.659  22.755   8.216
    8AU    AUSL 2770  29.019  23.049   8.092
    8AU     AUL 2771  28.842  23.026   8.406
    8AU    AUSL 2772  28.955  22.437   8.185
    8AU    AUSL 2773  28.522  22.331   8.137
    8AU     AUL 2774  28.492  22.538   8.299
    8AU    AUSL 2775  28.649  22.278   6.807
    8AU    AUSL 2776  28.893  21.949   6.988
    8AU     AUL 2777  28.931  21.992   6.669
    8AU    AUSL 2778  28.840  22.640   6.658
    8AU    AUSL 2779  28.564  22.650   7.032
    8AU     AUL 2780  28.431  22.480   6.791
    8AU    AUSL 2781  30.004  22.989   7.502
    8AU    AUSL 2782  29.841  22.740   7.168
    8AU     AUL 2783  30.112  22.863   7.054
    8AU    AUSL 2784  30.173  22.573   7.395
    8AU    AUSL 2785  30.119  22.280   7.777
    8AU     AUL 2786  30.420  22.326   7.554
    8AU    AUSL 2787  29.893  22.638   7.738
    8AU    AUSL 2788  29.663  23.036   7.776
    8AU     AUL 2789  29.996  23.017   7.845
    8AU    AUSL 2790  28.644  23.185   7.468
    8AU    AUSL 2791  28.673  22.951   7.836
    8AU     AUL 2792  28.369  23.202   7.675
    8AU    AUSL 2793  28.450  22.789   7.421
    8AU    AUSL 2794  28.587  23.082   7.057
    8AU     AUL 2795  28.357  23.019   7.211
    8AU    AUSL 2796  28.294  22.769   7.854
    8AU    AUSL 2797  28.270  22.405   7.364
    8AU     AUL 2798  28.127  22.746   7.534
    8AU    AUSL 2799  29.876  21.936   7.637
    8AU    AUSL 2800  29.720  22.234   7.946
    8AU     AUL 2801  30.020  22.125   8.017
    8AU    AUSL 2802  29.845  22.304   7.414
    8AU    AUSL 2803  29.839  21.895   7.203
    8AU     AUL 2804  30.088  22.098   7.287
    8AU    AUSL 2805  28.428  22.032   7.590
    8AU    AUSL 2806  28.630  22.219   7.226
    8AU     AUL 2807  28.267  22.128   7.248
    8AU    AUSL 2808  28.526  22.439   7.723
    8AU    AUSL 2809  28.751  22.068   7.875
    8AU     AUL 2810  28.430  22.067   7.930
    8AU    AUSL 2811  29.292  23.333   7.908
    8AU    AUSL 2812  28.842  23.357   7.818
    8AU     AUL 2813  29.061  23.389   8.167
    8AU    AUSL 2814  29.120  23.229   7.523
    8AU    AUSL 2815  29.365  23.344   7.174
    8AU     AUL 2816  29.116  23.577   7.462
    8AU    AUSL 2817  29.556  23.387   7.560
    8AU    AUSL 2818  29.545  23.136   8.188
    8AU     AUL 2819  29.667  23.375   7.916
    8AU    AUSL 2820  29.128  21.882   8.003
    8AU    AUSL 2821  29.554  21.827   7.894
    8AU     AUL 2822  29.299  21.771   8.261
    8AU    AUSL 2823  28.819  21.672   7.736
    8AU    AUSL 2824  28.876  22.044   8.310
    8AU     AUL 2825  28.798  21.756   8.077
    8AU    AUSL 2826  29.258  21.583   7.706
    8AU    AUSL 2827  29.052  21.833   7.400
    8AU     AUL 2828  28.966  21.475   7.512
    8AU    AUSL 2829  29.196  23.172   6.781
    8AU    AUSL 2830  29.748  23.168   7.213
    8AU     AUL 2831  29.526  23.269   6.874
    8AU    AUSL 2832  28.941  23.303   7.136
    8AU    AUSL 2833  28.963  22.876   6.984
    8AU     AUL 2834  28.867  23.147   6.782
    8AU    AUSL 2835  29.280  21.762   7.019
    8AU    AUSL 2836  28.641  21.779   7.310
    8AU     AUL 2837  28.941  21.630   7.072
    8AU    AUSL 2838  29.484  21.806   7.417
    8AU    AUSL 2839  29.514  22.124   7.018
    8AU     AUL 2840  29.595  21.747   7.033
    8AU       S 2841  29.737  21.636   8.305
    8AU     LIG 2842  29.981  21.253   8.379
    8AU     LIG 2843  30.266  20.957   8.606
    8AU     LIG 2844  30.560  20.575   8.631
    8AU       S 2845  29.646  22.388   8.769
    8AU     LIG 2846  30.013  22.633   8.836
    8AU     LIG 2847  30.228  22.555   9.244
    8AU     LIG 2848  30.333  22.385   9.673
    8AU       S 2849  29.290  22.216   8.665
    8AU     LIG 2850  29.306  22.261   9.117
    8AU     LIG 2851  29.713  22.260   9.372
    8AU     LIG 2852  29.936  22.043   9.736
    8AU       S 2853  28.821  22.594   8.650
    8AU     LIG 2854  28.866  22.558   9.103
    8AU     LIG 2855  28.569  22.383   9.404
    8AU     LIG 2856  28.294  22.399   9.793
    8AU       S 2857  29.307  23.145   8.574
    8AU     LIG 2858  29.561  23.484   8.735
    8AU     LIG 2859  29.975  23.358   8.891
    8AU     LIG 2860  30.245  23.049   9.080
    8AU       S 2861  30.028  22.987   8.313
    8AU     LIG 2862  30.329  23.035   8.573
    8AU     LIG 2863  30.472  23.393   8.745
    8AU     LIG 2864  30.756  23.692   8.895
    8AU       S 2865  29.607  22.656   6.339
    8AU     LIG 2866  29.998  22.628   6.082
    8AU     LIG 2867  30.209  22.273   5.906
    8AU     LIG 2868  30.102  21.991   5.571
    8AU       S 2869  29.981  23.271   6.827
    8AU     LIG 2870  29.966  23.597   6.520
    8AU     LIG 2871  30.178  23.794   6.173
    8AU     LIG 2872  30.569  23.999   6.136
    8AU       S 2873  30.130  22.032   6.806
    8AU     LIG 2874  30.171  21.916   6.330
    8AU     LIG 2875  30.249  21.480   6.190
    8AU     LIG 2876  30.373  21.039   6.292
    8AU       S 2877  29.577  22.470   6.278
    8AU     LIG 2878  29.728  22.132   6.064
    8AU     LIG 2879  29.570  21.979   5.657
    8AU     LIG 2880  29.719  22.044   5.231
    8AU       S 2881  28.766  22.294   6.336
    8AU     LIG 2882  28.812  22.324   5.903
    8AU     LIG 2883  29.011  22.148   5.531
    8AU     LIG 2884  29.002  22.315   5.103
    8AU       S 2885  29.357  22.793   6.456
    8AU     LIG 2886  29.129  22.674   6.094
    8AU     LIG 2887  29.362  22.434   5.799
    8AU     LIG 2888  29.798  22.432   5.621
    8AU       S 2889  28.617  22.734   8.696
    8AU     LIG 2890  28.294  22.470   8.741
    8AU     LIG 2891  28.307  22.108   8.967
    8AU     LIG 2892  28.165  22.058   9.398
    8AU       S 2893  28.583  23.347   8.190
    8AU     LIG 2894  28.399  23.629   8.435
    8AU     LIG 2895  28.113  23.537   8.764
    8AU     LIG 2896  27.796  23.749   9.016
    8AU       S 2897  28.394  22.096   8.417
    8AU     LIG 2898  27.991  22.040   8.201
    8AU     LIG 2899  27.770  21.644   8.244
    8AU     LIG 2900  27.847  21.264   8.506
    8AU       S 2901  28.818  22.411   8.607
    8AU     LIG 2902  28.828  22.086   8.928
    8AU     LIG 2903  28.650  21.879   9.300
    8AU     LIG 2904  28.610  21.980   9.759
    8AU       S 2905  28.587  22.227   6.440
    8AU     LIG 2906  28.412  21.946   6.139
    8AU     LIG 2907  28.457  22.023   5.674
    8AU     LIG 2908  28.576  22.394   5.414
    8AU       S 2909  28.553  21.770   6.834
    8AU     LIG 2910  28.308  21.502   6.578
    8AU     LIG 2911  28.154  21.370   6.180
    8AU     LIG 2912  27.935  20.998   6.017
    8AU       S 2913  28.318  22.909   6.703
    8AU     LIG 2914  28.003  23.152   6.793
    8AU     LIG 2915  27.862  23.546   6.644
    8AU     LIG 2916  27.738  23.406   6.248
    8AU       S 2917  28.773  22.581   6.448
    8AU     LIG 2918  28.503  22.706   6.156
    8AU     LIG 2919  28.636  22.795   5.740
    8AU     LIG 2920  29.005  22.675   5.500
    8AU       S 2921  30.170  23.307   7.065
    8AU     LIG 2922  30.418  23.325   6.627
    8AU     LIG 2923  30.606  23.499   6.250
    8AU     LIG 2924  31.014  23.704   6.184
    8AU       S 2925  30.301  23.031   7.490
    8AU     LIG 2926  30.640  23.246   7.322
    8AU     LIG 2927  31.027  23.403   7.485
    8AU     LIG 2928  31.331  23.603   7.801
    8AU       S 2929  30.430  22.785   7.449
    8AU     LIG 2930  30.891  22.788   7.447
    8AU     LIG 2931  31.319  22.942   7.356
    8AU     LIG 2932  31.525  23.337   7.423
    8AU       S 2933  30.347  21.909   7.773
    8AU     LIG 2934  30.714  21.671   7.853
    8AU     LIG 2935  31.059  21.609   7.613
    8AU     LIG 2936  31.481  21.537   7.666
    8AU       S 2937  30.006  23.264   8.227
    8AU     LIG 2938  30.395  23.458   8.242
    8AU     LIG 2939  30.532  23.858   8.454
    8AU     LIG 2940  30.753  24.185   8.723
    8AU       S 2941  30.354  22.742   7.794
    8AU     LIG 2942  30.696  23.074   7.827
    8AU     LIG 2943  31.178  23.073   7.838
    8AU     LIG 2944  31.633  22.967   7.776
    8AU       S 2945  28.489  23.170   8.115
    8AU     LIG 2946  28.262  23.073   8.475
    8AU     LIG 2947  27.822  23.203   8.508
    8AU     LIG 2948  27.555  23.565   8.599
    8AU       S 2949  28.601  23.506   7.391
    8AU     LIG 2950  28.341  23.821   7.417
    8AU     LIG 2951  28.120  23.743   7.060
    8AU     LIG 2952  27.797  23.412   7.150
    8AU       S 2953  28.065  22.690   7.060
    8AU     LIG 2954  27.794  22.349   7.143
    8AU     LIG 2955  27.421  22.595   7.155
    8AU     LIG 2956  27.285  23.009   6.947
    8AU       S 2957  28.459  23.345   6.885
    8AU     LIG 2958  28.572  23.700   6.681
    8AU     LIG 2959  28.237  23.929   6.568
    8AU     LIG 2960  27.964  23.871   6.204
    8AU       S 2961  28.020  22.303   7.629
    8AU     LIG 2962  27.574  22.232   7.584
    8AU     LIG 2963  27.489  21.890   7.351
    8AU     LIG 2964  27.442  21.520   7.096
    8AU       S 2965  28.178  22.794   8.028
    8AU     LIG 2966  27.920  22.703   8.376
    8AU     LIG 2967  27.482  22.875   8.280
    8AU     LIG 2968  27.316  23.315   8.189
    8AU       S 2969  30.027  21.779   7.656
    8AU     LIG 2970  30.115  21.369   7.556
    8AU     LIG 2971  30.501  21.257   7.635
    8AU     LIG 2972  30.755  21.380   7.273
    8AU       S 2973  29.913  21.713   8.162
    8AU     LIG 2974  30.257  21.493   8.030
    8AU     LIG 2975  30.553  21.183   8.172
    8AU     LIG 2976  30.741  21.186   8.579
    8AU       S 2977  30.318  21.838   7.576
    8AU     LIG 2978  30.546  21.861   7.228
    8AU     LIG 2979  30.992  21.837   7.136
    8AU     LIG 2980  31.421  21.733   7.196
    8AU       S 2981  30.056  21.778   6.928
    8AU     LIG 2982  30.087  21.372   6.719
    8AU     LIG 2983  30.095  20.908   6.713
    8AU     LIG 2984  30.227  20.541   6.445
    8AU       S 2985  28.421  21.884   6.897
    8AU     LIG 2986  28.137  22.005   6.619
    8AU     LIG 2987  27.855  21.727   6.408
    8AU     LIG 2988  27.652  21.313   6.348
    8AU       S 2989  28.048  22.086   7.671
    8AU     LIG 2990  27.820  21.784   7.755
    8AU     LIG 2991  27.645  21.448   7.577
    8AU     LIG 2992  27.208  21.437   7.623
    8AU       S 2993  28.430  21.861   8.340
    8AU     LIG 2994  28.247  21.605   8.001
    8AU     LIG 2995  27.969  21.223   7.997
    8AU     LIG 2996  27.984  20.824   8.262
    8AU       S 2997  28.088  22.346   7.809
    8AU     LIG 2998  27.708  22.427   8.025
    8AU     LIG 2999  27.477  22.062   8.088
    8AU     LIG 3000  27.200  21.915   7.798
    8AU       S 3001  28.707  23.548   7.875
    8AU     LIG 3002  28.250  23.630   7.906
    8AU     LIG 3003  27.932  23.659   8.236
    8AU     LIG 3004  27.985  23.982   8.559
    8AU       S 3005  29.305  23.666   7.880
    8AU     LIG 3006  29.507  23.773   8.255
    8AU     LIG 3007  29.355  24.219   8.304
    8AU     LIG 3008  28.940  24.400   8.441
    8AU       S 3009  29.382  23.856   7.768
    8AU     LIG 3010  29.006  24.070   7.946
    8AU     LIG 3011  28.798  24.479   7.964
    8AU     LIG 3012  28.697  24.827   8.251
    8AU       S 3013  29.278  23.644   7.019
    8AU     LIG 3014  29.230  24.018   7.256
    8AU     LIG 3015  29.351  24.431   7.215
    8AU     LIG 3016  29.376  24.781   6.965
    8AU       S 3017  29.775  23.229   8.372
    8AU     LIG 3018  29.991  23.675   8.498
    8AU     LIG 3019  30.229  23.820   8.878
    8AU     LIG 3020  30.373  23.550   9.237
    8AU       S 3021  29.572  23.690   7.561
    8AU     LIG 3022  29.638  24.198   7.554
    8AU     LIG 3023  29.283  24.473   7.737
    8AU     LIG 3024  29.211  24.740   8.125
    8AU       S 3025  29.093  21.385   8.105
    8AU     LIG 3026  29.433  21.129   8.266
    8AU     LIG 3027  29.334  20.685   8.334
    8AU     LIG 3028  29.553  20.350   8.512
    8AU       S 3029  29.685  21.680   7.999
    8AU     LIG 3030  29.765  21.291   7.898
    8AU     LIG 3031  30.121  21.012   7.952
    8AU     LIG 3032  30.319  20.676   8.194
    8AU       S 3033  28.895  21.311   7.941
    8AU     LIG 3034  28.888  20.887   7.738
    8AU     LIG 3035  28.961  20.520   8.010
    8AU     LIG 3036  28.731  20.276   8.338
    8AU       S 3037  28.658  21.979   8.477
    8AU     LIG 3038  28.515  21.655   8.791
    8AU     LIG 3039  28.327  21.209   8.723
    8AU     LIG 3040  28.125  20.787   8.779
    8AU       S 3041  29.356  21.370   7.292
    8AU     LIG 3042  29.150  20.929   7.239
    8AU     LIG 3043  29.261  20.526   7.035
    8AU     LIG 3044  29.509  20.124   7.029
    8AU       S 3045  29.255  21.417   7.892
    8AU     LIG 3046  29.355  21.065   7.679
    8AU     LIG 3047  29.343  20.597   7.636
    8AU     LIG 3048  29.527  20.311   7.975
    8AU       S 3049  29.142  23.536   6.740
    8AU     LIG 3050  29.042  23.976   6.694
    8AU     LIG 3051  29.334  24.325   6.710
    8AU     LIG 3052  29.441  24.675   6.420
    8AU       S 3053  29.905  23.357   7.172
    8AU     LIG 3054  30.032  23.796   6.991
    8AU     LIG 3055  30.302  24.033   6.665
    8AU     LIG 3056  30.765  24.145   6.585
    8AU       S 3057  28.943  23.562   7.011
    8AU     LIG 3058  28.731  23.946   7.103
    8AU     LIG 3059  28.895  24.364   7.001
    8AU     LIG 3060  28.972  24.686   6.652
    8AU       S 3061  28.488  22.969   6.617
    8AU     LIG 3062  28.287  23.344   6.396
    8AU     LIG 3063  28.445  23.701   6.153
    8AU     LIG 3064  28.667  24.081   6.260
    8AU       S 3065  28.470  21.707   7.150
    8AU     LIG 3066  28.008  21.680   7.138
    8AU     LIG 3067  27.867  21.382   6.820
    8AU     LIG 3068  28.031  21.019   6.546
    8AU       S 3069  29.345  21.373   7.118
    8AU     LIG 3070  29.573  21.191   6.737
    8AU     LIG 3071  29.628  20.758   6.543
    8AU     LIG 3072  29.427  20.329   6.566
    8AU       S 3073  29.613  21.479   7.419
    8AU     LIG 3074  29.843  21.209   7.157
    8AU     LIG 3075  29.726  20.774   7.050
    8AU     LIG 3076  29.907  20.398   6.829
    8AU       S 3077  29.841  21.915   6.695
    8AU     LIG 3078  29.754  21.596   6.404
    8AU     LIG 3079  29.858  21.158   6.291
    8AU     LIG 3080  29.997  20.802   6.028
    9AU     AUC 3081  12.131  23.289   7.525
    9AU     AUC 3082  12.383  23.294   7.358
    9AU     AUC 3083  12.375  23.291   7.693
    9AU     AUC 3084  11.864  23.282   7.373
    9AU     AUC 3085  11.887  23.328   7.694
    9AU     AUC 3086  11.965  23.545   7.490
    9AU     AUC 3087  12.300  23.552   7.490
    9AU     AUC 3088  11.966  23.036   7.548
    9AU     AUC 3089  12.297  23.023   7.546
    9AU     AUC 3090  12.136  23.141   7.796
    9AU     AUC 3091  12.135  23.483   7.761
    9AU     AUC 3092  12.129  23.105   7.282
    9AU     AUC 3093  12.139  23.410   7.257
    9AU     AUC 3094  12.699  23.298   7.203
    9AU     AUC 3095  12.699  23.282   7.539
    9AU     AUC 3096  12.667  23.281   7.895
    9AU     AUC 3097  11.564  23.234   7.235
    9AU     AUC 3098  11.557  23.314   7.555
    9AU     AUC 3099  11.590  23.376   7.873
    9AU     AUC 3100  11.798  23.846   7.429
    9AU     AUC 3101  12.154  23.844   7.414
    9AU     AUC 3102  12.489  23.837   7.452
    9AU     AUC 3103  11.779  22.739   7.574
    9AU     AUC 3104  12.125  22.725   7.548
    9AU     AUC 3105  12.474  22.729   7.554
    9AU     AUC 3106  12.112  22.986   8.107
    9AU     AUC 3107  12.125  23.333   8.090
    9AU     AUC 3108  12.166  23.692   8.046
    9AU     AUC 3109  12.169  22.912   7.002
    9AU     AUC 3110  12.107  23.240   6.953
    9AU     AUC 3111  12.092  23.556   6.941
    9AU     AUC 3112  12.381  23.097   8.010
    9AU     AUC 3113  12.411  23.453   7.991
    9AU     AUC 3114  12.435  23.127   7.065
    9AU     AUC 3115  12.393  23.436   7.076
    9AU     AUC 3116  11.845  23.214   8.008
    9AU     AUC 3117  11.876  23.561   7.950
    9AU     AUC 3118  11.854  23.054   7.108
    9AU     AUC 3119  11.802  23.372   7.068
    9AU     AUC 3120  12.622  23.568   7.346
    9AU     AUC 3121  12.563  23.543   7.687
    9AU     AUC 3122  11.661  23.547   7.363
    9AU     AUC 3123  11.711  23.641   7.685
    9AU     AUC 3124  12.600  23.021   7.395
    9AU     AUC 3125  12.552  22.978   7.737
    9AU     AUC 3126  11.674  22.968   7.397
    9AU     AUC 3127  11.700  23.062   7.730
    9AU     AUC 3128  12.022  23.798   7.743
    9AU     AUC 3129  12.330  23.763   7.764
    9AU     AUC 3130  11.951  22.865   7.833
    9AU     AUC 3131  12.259  22.813   7.821
    9AU     AUC 3132  11.928  23.699   7.178
    9AU     AUC 3133  12.294  23.732   7.195
    9AU     AUC 3134  11.989  22.808   7.275
    9AU     AUC 3135  12.355  22.859   7.273
    9AU    AUSL 3136  12.645  23.221   8.298
    9AU    AUSL 3137  12.409  22.822   8.231
    9AU     AUL 3138  12.713  22.876   8.399
    9AU    AUSL 3139  12.229  23.150   8.447
    9AU    AUSL 3140  11.982  23.544   8.436
    9AU     AUL 3141  12.211  23.446   8.720
    9AU    AUSL 3142  12.317  23.504   8.177
    9AU    AUSL 3143  12.766  23.598   8.112
    9AU     AUL 3144  12.589  23.522   8.441
    9AU    AUSL 3145  12.558  23.320   6.862
    9AU    AUSL 3146  12.397  23.708   6.973
    9AU     AUL 3147  12.624  23.650   6.685
    9AU    AUSL 3148  12.386  23.018   6.599
    9AU    AUSL 3149  12.886  23.070   6.975
    9AU     AUL 3150  12.750  23.174   6.648
    9AU    AUSL 3151  12.187  23.456   6.680
    9AU    AUSL 3152  12.017  23.060   6.816
    9AU     AUL 3153  12.122  23.118   6.482
    9AU    AUSL 3154  11.591  23.497   8.222
    9AU    AUSL 3155  11.935  23.803   8.091
    9AU     AUL 3156  11.768  23.776   8.405
    9AU    AUSL 3157  11.897  23.190   8.182
    9AU    AUSL 3158  11.467  23.070   8.140
    9AU     AUL 3159  11.434  23.274   8.308
    9AU    AUSL 3160  11.577  23.030   6.806
    9AU    AUSL 3161  11.835  22.708   6.981
    9AU     AUL 3162  11.870  22.753   6.662
    9AU    AUSL 3163  11.756  23.399   6.657
    9AU    AUSL 3164  11.479  23.394   7.037
    9AU     AUL 3165  11.358  23.237   6.785
    9AU    AUSL 3166  12.896  23.790   7.505
    9AU    AUSL 3167  12.814  23.567   7.105
    9AU     AUL 3168  13.130  23.823   7.219
    9AU    AUSL 3169  13.094  23.391   7.386
    9AU    AUSL 3170  13.059  23.076   7.746
    9AU     AUL 3171  13.353  23.130   7.524
    9AU    AUSL 3172  12.813  23.425   7.730
    9AU    AUSL 3173  12.559  23.812   7.776
    9AU     AUL 3174  12.888  23.826   7.827
    9AU    AUSL 3175  11.546  23.923   7.474
    9AU    AUSL 3176  11.589  23.690   7.841
    9AU     AUL 3177  11.270  23.929   7.690
    9AU    AUSL 3178  11.362  23.523   7.428
    9AU    AUSL 3179  11.489  23.826   7.062
    9AU     AUL 3180  11.260  23.751   7.220
    9AU    AUSL 3181  11.218  23.492   7.866
    9AU    AUSL 3182  11.199  23.129   7.376
    9AU     AUL 3183  11.045  23.467   7.550
    9AU    AUSL 3184  12.824  22.730   7.608
    9AU    AUSL 3185  12.665  23.016   7.924
    9AU     AUL 3186  12.973  22.917   7.986
    9AU    AUSL 3187  12.784  23.100   7.386
    9AU    AUSL 3188  12.782  22.683   7.178
    9AU     AUL 3189  13.028  22.905   7.256
    9AU    AUSL 3190  11.383  22.764   7.594
    9AU    AUSL 3191  11.563  22.964   7.224
    9AU     AUL 3192  11.204  22.849   7.263
    9AU    AUSL 3193  11.464  23.176   7.726
    9AU    AUSL 3194  11.705  22.818   7.876
    9AU     AUL 3195  11.384  22.801   7.931
    9AU    AUSL 3196  12.193  24.101   7.906
    9AU    AUSL 3197  11.739  24.103   7.822
    9AU     AUL 3198  11.969  24.150   8.162
    9AU    AUSL 3199  12.021  23.989   7.524
    9AU    AUSL 3200  12.260  24.109   7.173
    9AU     AUL 3201  12.002  24.336   7.468
    9AU    AUSL 3202  12.456  24.160   7.555
    9AU    AUSL 3203  12.448  23.908   8.191
    9AU     AUL 3204  12.555  24.157   7.925
    9AU    AUSL 3205  12.090  22.644   7.995
    9AU    AUSL 3206  12.513  22.604   7.870
    9AU     AUL 3207  12.276  22.534   8.245
    9AU    AUSL 3208  11.779  22.426   7.730
    9AU    AUSL 3209  11.839  22.794   8.308
    9AU     AUL 3210  11.766  22.509   8.075
    9AU    AUSL 3211  12.219  22.351   7.693
    9AU    AUSL 3212  12.000  22.594   7.392
    9AU     AUL 3213  11.923  22.228   7.500
    9AU    AUSL 3214  12.091  23.936   6.780
    9AU    AUSL 3215  12.662  23.971   7.195
    9AU     AUL 3216  12.408  24.047   6.861
    9AU    AUSL 3217  11.836  24.058   7.138
    9AU    AUSL 3218  11.870  23.633   6.987
    9AU     AUL 3219  11.764  23.897   6.779
    9AU    AUSL 3220  12.223  22.521   7.010
    9AU    AUSL 3221  11.592  22.523   7.300
    9AU     AUL 3222  11.887  22.388   7.061
    9AU    AUSL 3223  12.434  22.583   7.400
    9AU    AUSL 3224  12.442  22.893   7.004
    9AU     AUL 3225  12.539  22.525   7.007
    9AU       S 3226  12.726  22.424   8.264
    9AU     LIG 3227  12.643  22.036   8.458
    9AU     LIG 3228  12.894  21.691   8.662
    9AU     LIG 3229  13.365  21.675   8.763
    9AU       S 3230  12.600  23.153   8.750
    9AU     LIG 3231  12.978  23.383   8.749
    9AU     LIG 3232  13.162  23.396   9.176
    9AU     LIG 3233  13.068  23.206   9.604
    9AU       S 3234  12.255  22.975   8.653
    9AU     LIG 3235  12.270  23.009   9.112
    9AU     LIG 3236  12.631  22.948   9.429
    9AU     LIG 3237  12.903  22.713   9.755
    9AU       S 3238  11.771  23.342   8.648
    9AU     LIG 3239  11.830  23.317   9.099
    9AU     LIG 3240  11.460  23.255   9.337
    9AU     LIG 3241  11.250  23.369   9.731
    9AU       S 3242  12.222  23.907   8.582
    9AU     LIG 3243  12.421  24.285   8.691
    9AU     LIG 3244  12.794  24.168   8.911
    9AU     LIG 3245  13.102  23.854   8.924
    9AU       S 3246  12.959  23.769   8.292
    9AU     LIG 3247  13.340  23.836   8.466
    9AU     LIG 3248  13.432  24.200   8.728
    9AU     LIG 3249  13.613  24.557   8.971
    9AU       S 3250  12.487  23.424   6.315
    9AU     LIG 3251  12.831  23.618   6.083
    9AU     LIG 3252  13.084  23.391   5.764
    9AU     LIG 3253  13.007  22.962   5.602
    9AU       S 3254  12.852  24.064   6.773
    9AU     LIG 3255  12.762  24.246   6.344
    9AU     LIG 3256  12.950  24.479   5.979
    9AU     LIG 3257  13.308  24.753   5.888
    9AU       S 3258  13.049  22.823   6.779
    9AU     LIG 3259  13.236  22.527   6.477
    9AU     LIG 3260  13.288  22.096   6.362
    9AU     LIG 3261  13.350  21.681   6.511
    9AU       S 3262  12.494  23.247   6.251
    9AU     LIG 3263  12.447  22.940   5.937
    9AU     LIG 3264  12.492  22.892   5.483
    9AU     LIG 3265  12.789  22.979   5.138
    9AU       S 3266  11.693  23.054   6.338
    9AU     LIG 3267  11.931  23.026   5.981
    9AU     LIG 3268  11.977  22.961   5.543
    9AU     LIG 3269  11.688  23.007   5.192
    9AU       S 3270  12.232  23.570   6.431
    9AU     LIG 3271  12.031  23.508   6.060
    9AU     LIG 3272  12.280  23.364   5.706
    9AU     LIG 3273  12.673  23.383   5.450
    9AU       S 3274  11.564  23.474   8.702
    9AU     LIG 3275  11.273  23.179   8.771
    9AU     LIG 3276  11.168  22.894   9.063
    9AU     LIG 3277  11.114  22.901   9.517
    9AU       S 3278  11.490  24.092   8.205
    9AU     LIG 3279  11.184  24.327   8.452
    9AU     LIG 3280  11.031  24.405   8.878
    9AU     LIG 3281  10.741  24.670   9.132
    9AU       S 3282  11.354  22.827   8.417
    9AU     LIG 3283  10.945  22.790   8.220
    9AU     LIG 3284  10.672  22.442   8.197
    9AU     LIG 3285  10.580  22.155   8.554
    9AU       S 3286  11.774  23.160   8.606
    9AU     LIG 3287  11.791  22.852   8.919
    9AU     LIG 3288  11.599  22.755   9.306
    9AU     LIG 3289  11.585  22.924   9.733
    9AU       S 3290  11.508  22.968   6.442
    9AU     LIG 3291  11.328  22.948   6.027
    9AU     LIG 3292  11.499  23.146   5.672
    9AU     LIG 3293  11.351  23.433   5.358
    9AU       S 3294  11.496  22.520   6.821
    9AU     LIG 3295  11.230  22.196   6.639
    9AU     LIG 3296  11.026  21.999   6.278
    9AU     LIG 3297  10.751  21.779   5.970
    9AU       S 3298  11.181  23.654   6.729
    9AU     LIG 3299  10.879  23.952   6.838
    9AU     LIG 3300  10.967  24.360   6.659
    9AU     LIG 3301  11.072  24.485   6.234
    9AU       S 3302  11.694  23.334   6.440
    9AU     LIG 3303  11.462  23.474   6.127
    9AU     LIG 3304  11.621  23.648   5.752
    9AU     LIG 3305  11.861  23.447   5.418
    9AU       S 3306  12.975  23.916   6.807
    9AU     LIG 3307  13.183  23.965   6.398
    9AU     LIG 3308  13.390  24.293   6.165
    9AU     LIG 3309  13.732  24.594   6.171
    9AU       S 3310  13.306  23.776   7.657
    9AU     LIG 3311  13.398  24.179   7.535
    9AU     LIG 3312  13.792  24.365   7.396
    9AU     LIG 3313  14.218  24.166   7.418
    9AU       S 3314  13.323  23.582   7.596
    9AU     LIG 3315  13.765  23.740   7.448
    9AU     LIG 3316  14.225  23.653   7.308
    9AU     LIG 3317  14.532  23.915   7.062
    9AU       S 3318  13.286  22.693   7.731
    9AU     LIG 3319  13.541  22.536   8.007
    9AU     LIG 3320  13.948  22.489   7.868
    9AU     LIG 3321  14.278  22.229   7.932
    9AU       S 3322  12.911  24.051   8.222
    9AU     LIG 3323  13.286  24.286   8.224
    9AU     LIG 3324  13.423  24.657   8.473
    9AU     LIG 3325  13.385  24.996   8.796
    9AU       S 3326  13.216  23.503   7.870
    9AU     LIG 3327  13.653  23.744   7.994
    9AU     LIG 3328  14.105  23.840   7.820
    9AU     LIG 3329  14.561  23.794   7.669
    9AU       S 3330  11.394  23.901   8.128
    9AU     LIG 3331  11.122  23.807   8.456
    9AU     LIG 3332  10.745  24.062   8.568
    9AU     LIG 3333  10.551  24.202   8.973
    9AU       S 3334  11.476  24.226   7.391
    9AU     LIG 3335  11.421  24.611   7.452
    9AU     LIG 3336  11.213  24.584   7.077
    9AU     LIG 3337  10.833  24.365   7.153
    9AU       S 3338  10.976  23.404   7.082
    9AU     LIG 3339  10.664  23.116   6.972
    9AU     LIG 3340  10.380  23.424   7.088
    9AU     LIG 3341  10.578  23.847   7.249
    9AU       S 3342  11.353  24.085   6.886
    9AU     LIG 3343  11.479  24.443   6.642
    9AU     LIG 3344  11.222  24.833   6.615
    9AU     LIG 3345  10.932  24.981   6.298
    9AU       S 3346  10.977  23.015   7.654
    9AU     LIG 3347  10.615  23.164   7.480
    9AU     LIG 3348  10.269  22.953   7.297
    9AU     LIG 3349  10.017  22.587   7.207
    9AU       S 3350  11.094  23.506   8.043
    9AU     LIG 3351  10.696  23.716   8.143
    9AU     LIG 3352  10.314  24.004   8.119
    9AU     LIG 3353  10.156  24.385   7.921
    9AU       S 3354  12.982  22.571   7.616
    9AU     LIG 3355  13.103  22.155   7.624
    9AU     LIG 3356  13.531  22.112   7.720
    9AU     LIG 3357  13.947  22.095   7.537
    9AU       S 3358  12.894  22.491   8.109
    9AU     LIG 3359  13.195  22.168   8.120
    9AU     LIG 3360  13.619  22.017   8.256
    9AU     LIG 3361  13.787  22.052   8.693
    9AU       S 3362  13.270  22.638   7.524
    9AU     LIG 3363  13.421  22.320   7.241
    9AU     LIG 3364  13.842  22.244   7.054
    9AU     LIG 3365  14.296  22.144   7.139
    9AU       S 3366  13.002  22.557   6.926
    9AU     LIG 3367  13.114  22.100   6.872
    9AU     LIG 3368  13.011  21.654   6.886
    9AU     LIG 3369  13.006  21.300   6.594
    9AU       S 3370  11.357  22.633   6.893
    9AU     LIG 3371  11.066  22.702   6.587
    9AU     LIG 3372  10.759  22.419   6.406
    9AU     LIG 3373  10.462  22.064   6.324
    9AU       S 3374  10.987  22.782   7.689
    9AU     LIG 3375  10.597  22.621   7.578
    9AU     LIG 3376  10.368  22.241   7.385
    9AU     LIG 3377  10.001  21.998   7.183
    9AU       S 3378  11.396  22.599   8.341
    9AU     LIG 3379  11.191  22.350   8.034
    9AU     LIG 3380  10.887  22.021   7.976
    9AU     LIG 3381  10.689  21.743   8.275
    9AU       S 3382  11.027  23.062   7.820
    9AU     LIG 3383  10.638  23.179   7.995
    9AU     LIG 3384  10.255  22.989   7.831
    9AU     LIG 3385  10.116  22.567   7.722
    9AU       S 3386  11.604  24.274   7.872
    9AU     LIG 3387  11.175  24.416   7.934
    9AU     LIG 3388  10.765  24.481   8.173
    9AU     LIG 3389  10.640  24.581   8.610
    9AU       S 3390  12.201  24.452   7.874
    9AU     LIG 3391  12.411  24.679   8.215
    9AU     LIG 3392  12.301  25.136   8.340
    9AU     LIG 3393  12.088  25.567   8.370
    9AU       S 3394  12.296  24.637   7.708
    9AU     LIG 3395  12.024  24.909   7.955
    9AU     LIG 3396  11.989  25.322   7.937
    9AU     LIG 3397  11.685  25.628   8.010
    9AU       S 3398  12.169  24.413   7.035
    9AU     LIG 3399  12.339  24.814   7.199
    9AU     LIG 3400  12.561  25.222   7.102
    9AU     LIG 3401  12.434  25.551   6.800
    9AU       S 3402  12.687  24.006   8.374
    9AU     LIG 3403  12.873  24.457   8.496
    9AU     LIG 3404  13.100  24.570   8.876
    9AU     LIG 3405  13.236  24.286   9.217
    9AU       S 3406  12.473  24.423   7.531
    9AU     LIG 3407  12.721  24.829   7.589
    9AU     LIG 3408  12.497  25.111   7.863
    9AU     LIG 3409  12.461  25.545   7.985
    9AU       S 3410  12.069  22.145   8.095
    9AU     LIG 3411  12.290  21.776   8.196
    9AU     LIG 3412  12.180  21.481   8.511
    9AU     LIG 3413  11.812  21.341   8.741
    9AU       S 3414  12.651  22.447   7.959
    9AU     LIG 3415  12.679  22.024   7.893
    9AU     LIG 3416  12.898  21.756   8.126
    9AU     LIG 3417  13.336  21.671   8.010
    9AU       S 3418  11.871  22.071   7.938
    9AU     LIG 3419  11.772  21.678   8.137
    9AU     LIG 3420  11.850  21.244   8.202
    9AU     LIG 3421  11.676  20.904   8.455
    9AU       S 3422  11.627  22.726   8.475
    9AU     LIG 3423  11.411  22.498   8.819
    9AU     LIG 3424  11.116  22.205   8.604
    9AU     LIG 3425  10.939  21.802   8.724
    9AU       S 3426  12.330  22.132   7.296
    9AU     LIG 3427  12.101  21.708   7.214
    9AU     LIG 3428  12.151  21.290   7.063
    9AU     LIG 3429  12.291  20.867   7.076
    9AU       S 3430  12.216  22.186   7.879
    9AU     LIG 3431  12.240  21.813   7.683
    9AU     LIG 3432  12.041  21.420   7.742
    9AU     LIG 3433  12.221  21.038   7.942
    9AU       S 3434  12.014  24.307   6.748
    9AU     LIG 3435  12.091  24.747   6.669
    9AU     LIG 3436  12.458  24.997   6.671
    9AU     LIG 3437  12.617  25.307   6.372
    9AU       S 3438  12.802  24.151   7.104
    9AU     LIG 3439  13.209  24.313   7.062
    9AU     LIG 3440  13.357  24.439   6.680
    9AU     LIG 3441  13.269  24.746   6.393
    9AU       S 3442  11.828  24.304   7.020
    9AU     LIG 3443  11.724  24.696   7.031
    9AU     LIG 3444  11.924  25.095   7.012
    9AU     LIG 3445  12.026  25.290   6.620
    9AU       S 3446  11.384  23.700   6.632
    9AU     LIG 3447  11.422  23.984   6.325
    9AU     LIG 3448  11.527  24.319   6.058
    9AU     LIG 3449  11.520  24.743   6.195
    9AU       S 3450  11.412  22.441   7.124
    9AU     LIG 3451  10.970  22.308   7.072
    9AU     LIG 3452  10.755  22.029   6.759
    9AU     LIG 3453  10.732  21.648   6.500
    9AU       S 3454  12.297  22.164   7.150
    9AU     LIG 3455  12.530  21.936   6.838
    9AU     LIG 3456  12.510  21.514   6.661
    9AU     LIG 3457  12.308  21.085   6.608
    9AU       S 3458  12.583  22.273   7.408
    9AU     LIG 3459  12.805  21.948   7.265
    9AU     LIG 3460  12.611  21.559   7.183
    9AU     LIG 3461  12.682  21.166   6.981
    9AU       S 3462  12.779  22.706   6.667
    9AU     LIG 3463  12.773  22.277   6.537
    9AU     LIG 3464  12.854  21.832   6.429
    9AU     LIG 3465  13.071  21.589   6.091
   10AU     AUC 3466  25.387  31.184   7.536
   10AU     AUC 3467  25.633  31.172   7.370
   10AU     AUC 3468  25.631  31.174   7.705
   10AU     AUC 3469  25.119  31.189   7.381
   10AU     AUC 3470  25.145  31.235   7.703
   10AU     AUC 3471  25.233  31.449   7.498
   10AU     AUC 3472  25.567  31.438   7.498
   10AU     AUC 3473  25.210  30.939   7.558
   10AU     AUC 3474  25.539  30.909   7.558
   10AU     AUC 3475  25.385  31.036   7.805
   10AU     AUC 3476  25.402  31.378   7.770
   10AU     AUC 3477  25.374  30.998   7.292
   10AU     AUC 3478  25.396  31.303   7.265
   10AU     AUC 3479  25.944  31.153   7.215
   10AU     AUC 3480  25.952  31.144   7.559
   10AU     AUC 3481  25.921  31.152   7.908
   10AU     AUC 3482  24.817  31.156   7.246
   10AU     AUC 3483  24.816  31.239   7.566
   10AU     AUC 3484  24.852  31.298   7.879
   10AU     AUC 3485  25.082  31.757   7.435
   10AU     AUC 3486  25.436  31.738   7.419
   10AU     AUC 3487  25.769  31.715   7.458
   10AU     AUC 3488  25.009  30.650   7.584
   10AU     AUC 3489  25.355  30.620   7.559
   10AU     AUC 3490  25.706  30.606   7.568
   10AU     AUC 3491  25.353  30.880   8.116
   10AU     AUC 3492  25.382  31.228   8.099
   10AU     AUC 3493  25.445  31.583   8.051
   10AU     AUC 3494  25.407  30.806   7.014
   10AU     AUC 3495  25.363  31.134   6.958
   10AU     AUC 3496  25.356  31.448   6.946
   10AU     AUC 3497  25.625  30.982   8.022
   10AU     AUC 3498  25.677  31.340   7.997
   10AU     AUC 3499  25.684  31.010   7.071
   10AU     AUC 3500  25.644  31.309   7.079
   10AU     AUC 3501  25.099  31.120   8.017
   10AU     AUC 3502  25.145  31.467   7.958
   10AU     AUC 3503  25.097  30.961   7.118
   10AU     AUC 3504  25.060  31.280   7.077
   10AU     AUC 3505  25.876  31.433   7.358
   10AU     AUC 3506  25.834  31.419   7.692
   10AU     AUC 3507  24.931  31.466   7.370
   10AU     AUC 3508  24.988  31.558   7.693
   10AU     AUC 3509  25.843  30.893   7.413
   10AU     AUC 3510  25.790  30.851   7.757
   10AU     AUC 3511  24.913  30.886   7.410
   10AU     AUC 3512  24.945  30.977   7.740
   10AU     AUC 3513  25.306  31.697   7.749
   10AU     AUC 3514  25.611  31.647   7.769
   10AU     AUC 3515  25.188  30.765   7.843
   10AU     AUC 3516  25.492  30.700   7.832
   10AU     AUC 3517  25.201  31.602   7.184
   10AU     AUC 3518  25.564  31.618   7.199
   10AU     AUC 3519  25.221  30.712   7.286
   10AU     AUC 3520  25.591  30.746   7.284
   10AU    AUSL 3521  25.891  31.092   8.314
   10AU    AUSL 3522  25.636  30.704   8.241
   10AU     AUL 3523  25.935  30.749   8.419
   10AU    AUSL 3524  25.472  31.040   8.458
   10AU    AUSL 3525  25.242  31.442   8.443
   10AU     AUL 3526  25.461  31.339   8.728
   10AU    AUSL 3527  25.581  31.393   8.189
   10AU    AUSL 3528  26.036  31.455   8.120
   10AU     AUL 3529  25.849  31.396   8.452
   10AU    AUSL 3530  25.830  31.202   6.829
   10AU    AUSL 3531  25.661  31.581   6.976
   10AU     AUL 3532  25.919  31.531   6.710
   10AU    AUSL 3533  25.623  30.889   6.607
   10AU    AUSL 3534  26.128  30.942   6.997
   10AU     AUL 3535  26.006  31.037   6.651
   10AU    AUSL 3536  25.446  31.341   6.682
   10AU    AUSL 3537  25.259  30.956   6.828
   10AU     AUL 3538  25.363  31.012   6.485
   10AU    AUSL 3539  24.853  31.414   8.224
   10AU    AUSL 3540  25.218  31.707   8.101
   10AU     AUL 3541  25.043  31.678   8.416
   10AU    AUSL 3542  25.146  31.094   8.188
   10AU    AUSL 3543  24.715  30.987   8.153
   10AU     AUL 3544  24.677  31.200   8.305
   10AU    AUSL 3545  24.818  30.947   6.819
   10AU    AUSL 3546  25.058  30.615   6.994
   10AU     AUL 3547  25.106  30.653   6.675
   10AU    AUSL 3548  25.013  31.304   6.664
   10AU    AUSL 3549  24.737  31.318   7.044
   10AU     AUL 3550  24.608  31.162   6.798
   10AU    AUSL 3551  26.186  31.643   7.495
   10AU    AUSL 3552  26.019  31.393   7.163
   10AU     AUL 3553  26.281  31.498   7.033
   10AU    AUSL 3554  26.354  31.226   7.385
   10AU    AUSL 3555  26.304  30.933   7.770
   10AU     AUL 3556  26.598  30.986   7.548
   10AU    AUSL 3557  26.080  31.292   7.732
   10AU    AUSL 3558  25.855  31.688   7.777
   10AU     AUL 3559  26.190  31.654   7.853
   10AU    AUSL 3560  24.836  31.850   7.480
   10AU    AUSL 3561  24.868  31.616   7.848
   10AU     AUL 3562  24.565  31.874   7.692
   10AU    AUSL 3563  24.636  31.456   7.436
   10AU    AUSL 3564  24.769  31.750   7.069
   10AU     AUL 3565  24.542  31.691   7.226
   10AU    AUSL 3566  24.487  31.439   7.870
   10AU    AUSL 3567  24.448  31.073   7.393
   10AU     AUL 3568  24.316  31.419   7.560
   10AU    AUSL 3569  26.060  30.588   7.628
   10AU    AUSL 3570  25.906  30.885   7.940
   10AU     AUL 3571  26.206  30.773   8.010
   10AU    AUSL 3572  26.025  30.959   7.409
   10AU    AUSL 3573  26.013  30.551   7.195
   10AU     AUL 3574  26.268  30.752   7.281
   10AU    AUSL 3575  24.611  30.698   7.608
   10AU    AUSL 3576  24.801  30.886   7.238
   10AU     AUL 3577  24.436  30.789   7.279
   10AU    AUSL 3578  24.715  31.105   7.741
   10AU    AUSL 3579  24.942  30.730   7.884
   10AU     AUL 3580  24.623  30.724   7.939
   10AU    AUSL 3581  25.493  31.985   7.910
   10AU    AUSL 3582  25.044  32.019   7.830
   10AU     AUL 3583  25.277  32.040   8.182
   10AU    AUSL 3584  25.313  31.891   7.526
   10AU    AUSL 3585  25.553  32.004   7.174
   10AU     AUL 3586  25.321  32.243   7.458
   10AU    AUSL 3587  25.754  32.038   7.557
   10AU    AUSL 3588  25.743  31.786   8.192
   10AU     AUL 3589  25.871  32.019   7.915
   10AU    AUSL 3590  25.315  30.531   8.004
   10AU    AUSL 3591  25.736  30.481   7.881
   10AU     AUL 3592  25.494  30.417   8.250
   10AU    AUSL 3593  24.997  30.334   7.740
   10AU    AUSL 3594  25.076  30.700   8.317
   10AU     AUL 3595  24.989  30.415   8.086
   10AU    AUSL 3596  25.435  30.239   7.698
   10AU    AUSL 3597  25.225  30.494   7.401
   10AU     AUL 3598  25.129  30.132   7.511
   10AU    AUSL 3599  25.376  31.832   6.784
   10AU    AUSL 3600  25.938  31.826   7.201
   10AU     AUL 3601  25.719  31.934   6.878
   10AU    AUSL 3602  25.128  31.965   7.142
   10AU    AUSL 3603  25.140  31.538   6.990
   10AU     AUL 3604  25.047  31.803   6.785
   10AU    AUSL 3605  25.446  30.426   7.016
   10AU    AUSL 3606  24.811  30.446   7.318
   10AU     AUL 3607  25.102  30.296   7.074
   10AU    AUSL 3608  25.658  30.467   7.409
   10AU    AUSL 3609  25.688  30.784   7.015
   10AU     AUL 3610  25.763  30.409   7.018
   10AU       S 3611  25.935  30.297   8.286
   10AU     LIG 3612  26.013  29.877   8.382
   10AU     LIG 3613  26.398  29.672   8.443
   10AU     LIG 3614  26.617  29.381   8.715
   10AU       S 3615  25.839  31.035   8.770
   10AU     LIG 3616  26.175  31.330   8.852
   10AU     LIG 3617  26.413  31.309   9.255
   10AU     LIG 3618  26.484  31.064   9.661
   10AU       S 3619  25.483  30.868   8.660
   10AU     LIG 3620  25.487  30.906   9.113
   10AU     LIG 3621  25.867  30.870   9.407
   10AU     LIG 3622  26.159  30.642   9.719
   10AU       S 3623  25.018  31.243   8.652
   10AU     LIG 3624  25.061  31.221   9.108
   10AU     LIG 3625  24.676  31.146   9.356
   10AU     LIG 3626  24.441  31.267   9.759
   10AU       S 3627  25.506  31.794   8.578
   10AU     LIG 3628  25.741  32.110   8.766
   10AU     LIG 3629  26.091  31.976   9.006
   10AU     LIG 3630  26.472  31.755   8.970
   10AU       S 3631  26.227  31.645   8.327
   10AU     LIG 3632  26.620  31.764   8.475
   10AU     LIG 3633  26.709  32.141   8.699
   10AU     LIG 3634  26.877  32.527   8.894
   10AU       S 3635  25.760  31.316   6.332
   10AU     LIG 3636  26.195  31.353   6.299
   10AU     LIG 3637  26.297  30.960   6.142
   10AU     LIG 3638  26.041  30.606   6.003
   10AU       S 3639  26.176  31.909   6.813
   10AU     LIG 3640  26.246  32.282   6.627
   10AU     LIG 3641  26.392  32.429   6.244
   10AU     LIG 3642  26.694  32.421   5.912
   10AU       S 3643  26.305  30.702   6.803
   10AU     LIG 3644  26.414  30.520   6.395
   10AU     LIG 3645  26.420  30.105   6.236
   10AU     LIG 3646  26.489  29.671   6.388
   10AU       S 3647  25.747  31.116   6.262
   10AU     LIG 3648  25.551  30.809   6.021
   10AU     LIG 3649  25.647  30.720   5.573
   10AU     LIG 3650  25.967  30.823   5.242
   10AU       S 3651  24.927  30.951   6.354
   10AU     LIG 3652  25.045  30.979   5.965
   10AU     LIG 3653  25.137  30.817   5.578
   10AU     LIG 3654  25.326  30.970   5.207
   10AU       S 3655  25.524  31.453   6.452
   10AU     LIG 3656  25.282  31.399   6.091
   10AU     LIG 3657  25.478  31.215   5.725
   10AU     LIG 3658  25.934  31.095   5.771
   10AU       S 3659  24.814  31.382   8.703
   10AU     LIG 3660  24.480  31.111   8.759
   10AU     LIG 3661  24.333  30.822   9.060
   10AU     LIG 3662  24.257  30.851   9.513
   10AU       S 3663  24.800  32.018   8.214
   10AU     LIG 3664  24.590  32.301   8.438
   10AU     LIG 3665  24.225  32.332   8.679
   10AU     LIG 3666  23.940  32.517   8.959
   10AU       S 3667  24.597  30.756   8.426
   10AU     LIG 3668  24.158  30.767   8.290
   10AU     LIG 3669  23.862  30.378   8.351
   10AU     LIG 3670  23.707  29.925   8.447
   10AU       S 3671  25.008  31.064   8.608
   10AU     LIG 3672  24.840  30.795   8.953
   10AU     LIG 3673  24.714  30.633   9.362
   10AU     LIG 3674  24.728  30.836   9.780
   10AU       S 3675  24.740  30.870   6.467
   10AU     LIG 3676  24.544  30.769   6.083
   10AU     LIG 3677  24.627  30.961   5.675
   10AU     LIG 3678  24.435  31.255   5.410
   10AU       S 3679  24.715  30.455   6.841
   10AU     LIG 3680  24.580  30.283   6.441
   10AU     LIG 3681  24.405  30.037   6.082
   10AU     LIG 3682  24.015  29.927   5.853
   10AU       S 3683  24.440  31.580   6.736
   10AU     LIG 3684  24.141  31.914   6.755
   10AU     LIG 3685  24.262  32.219   6.451
   10AU     LIG 3686  24.321  32.117   5.992
   10AU       S 3687  24.940  31.235   6.446
   10AU     LIG 3688  24.644  31.343   6.177
   10AU     LIG 3689  24.749  31.470   5.775
   10AU     LIG 3690  25.027  31.310   5.469
   10AU       S 3691  26.367  31.934   7.064
   10AU     LIG 3692  26.676  31.970   6.751
   10AU     LIG 3693  26.772  32.082   6.311
   10AU     LIG 3694  27.086  32.081   5.971
   10AU       S 3695  26.467  31.686   7.479
   10AU     LIG 3696  26.646  32.097   7.471
   10AU     LIG 3697  26.972  32.200   7.754
   10AU     LIG 3698  27.410  32.255   7.907
   10AU       S 3699  26.603  31.436   7.408
   10AU     LIG 3700  26.876  31.720   7.202
   10AU     LIG 3701  27.244  31.823   7.411
   10AU     LIG 3702  27.636  31.940   7.235
   10AU       S 3703  26.540  30.561   7.769
   10AU     LIG 3704  26.928  30.295   7.843
   10AU     LIG 3705  27.399  30.301   7.892
   10AU     LIG 3706  27.706  30.555   7.628
   10AU       S 3707  26.208  31.920   8.222
   10AU     LIG 3708  26.577  32.184   8.176
   10AU     LIG 3709  26.699  32.579   8.394
   10AU     LIG 3710  26.490  32.821   8.717
   10AU       S 3711  26.558  31.410   7.762
   10AU     LIG 3712  26.783  31.747   7.937
   10AU     LIG 3713  27.249  31.770   7.930
   10AU     LIG 3714  27.683  31.819   7.739
   10AU       S 3715  24.696  31.838   8.130
   10AU     LIG 3716  24.390  31.800   8.444
   10AU     LIG 3717  23.962  31.958   8.434
   10AU     LIG 3718  23.704  32.345   8.512
   10AU       S 3719  24.816  32.179   7.427
   10AU     LIG 3720  24.644  32.342   7.210
   10AU     LIG 3721  24.300  32.250   7.105
   10AU     LIG 3722  24.065  31.862   7.272
   10AU       S 3723  24.236  31.358   7.100
   10AU     LIG 3724  23.971  31.064   6.934
   10AU     LIG 3725  23.595  31.321   6.967
   10AU     LIG 3726  23.589  31.784   7.025
   10AU       S 3727  24.637  31.995   6.859
   10AU     LIG 3728  24.669  32.411   6.713
   10AU     LIG 3729  24.332  32.723   6.680
   10AU     LIG 3730  24.201  33.027   6.364
   10AU       S 3731  24.218  30.975   7.664
   10AU     LIG 3732  23.848  30.882   7.410
   10AU     LIG 3733  23.541  30.814   7.083
   10AU     LIG 3734  23.177  31.031   6.880
   10AU       S 3735  24.374  31.477   8.043
   10AU     LIG 3736  24.038  31.414   8.301
   10AU     LIG 3737  23.624  31.610   8.215
   10AU     LIG 3738  23.443  31.987   7.986
   10AU       S 3739  26.215  30.439   7.650
   10AU     LIG 3740  26.282  30.080   7.478
   10AU     LIG 3741  26.635  29.961   7.601
   10AU     LIG 3742  26.988  29.942   7.417
   10AU       S 3743  26.093  30.360   8.147
   10AU     LIG 3744  26.442  30.154   8.035
   10AU     LIG 3745  26.777  29.977   8.239
   10AU     LIG 3746  26.811  29.863   8.691
   10AU       S 3747  26.509  30.509   7.577
   10AU     LIG 3748  26.707  30.342   7.241
   10AU     LIG 3749  27.181  30.350   7.168
   10AU     LIG 3750  27.646  30.286   7.072
   10AU       S 3751  26.226  30.442   6.917
   10AU     LIG 3752  26.249  30.023   6.777
   10AU     LIG 3753  26.154  29.575   6.795
   10AU     LIG 3754  26.190  29.250   6.481
   10AU       S 3755  24.574  30.561   6.911
   10AU     LIG 3756  24.256  30.632   6.633
   10AU     LIG 3757  24.070  30.363   6.308
   10AU     LIG 3758  23.729  30.345   5.995
   10AU       S 3759  24.225  30.755   7.715
   10AU     LIG 3760  23.908  30.552   7.871
   10AU     LIG 3761  23.695  30.410   7.556
   10AU     LIG 3762  23.557  30.303   7.153
   10AU       S 3763  24.624  30.531   8.350
   10AU     LIG 3764  24.329  30.338   8.084
   10AU     LIG 3765  24.054  29.985   8.059
   10AU     LIG 3766  24.148  29.580   8.268
   10AU       S 3767  24.280  31.016   7.851
   10AU     LIG 3768  23.835  31.069   7.957
   10AU     LIG 3769  23.490  30.832   7.797
   10AU     LIG 3770  23.196  30.514   7.933
   10AU       S 3771  24.929  32.212   7.902
   10AU     LIG 3772  24.503  32.338   7.932
   10AU     LIG 3773  24.119  32.423   8.189
   10AU     LIG 3774  23.970  32.787   8.475
   10AU       S 3775  25.509  32.309   7.879
   10AU     LIG 3776  25.734  32.372   8.257
   10AU     LIG 3777  25.643  32.822   8.301
   10AU     LIG 3778  25.251  33.071   8.225
   10AU       S 3779  25.525  32.539   7.814
   10AU     LIG 3780  25.209  32.540   8.193
   10AU     LIG 3781  24.883  32.751   8.045
   10AU     LIG 3782  25.159  32.945   7.699
   10AU       S 3783  25.454  32.310   7.006
   10AU     LIG 3784  25.573  32.685   7.263
   10AU     LIG 3785  25.750  33.101   7.164
   10AU     LIG 3786  25.600  33.394   6.818
   10AU       S 3787  25.967  31.877   8.376
   10AU     LIG 3788  26.200  32.265   8.573
   10AU     LIG 3789  26.367  32.399   8.974
   10AU     LIG 3790  26.636  32.172   9.262
   10AU       S 3791  25.762  32.358   7.602
   10AU     LIG 3792  25.893  32.823   7.652
   10AU     LIG 3793  25.625  33.132   7.862
   10AU     LIG 3794  25.638  33.509   8.135
   10AU       S 3795  25.284  30.032   8.099
   10AU     LIG 3796  25.553  29.638   8.161
   10AU     LIG 3797  25.620  29.210   8.390
   10AU     LIG 3798  25.656  28.725   8.371
   10AU       S 3799  25.869  30.303   7.973
   10AU     LIG 3800  26.042  29.895   7.881
   10AU     LIG 3801  26.459  29.646   7.948
   10AU     LIG 3802  26.830  29.474   8.191
   10AU       S 3803  25.085  29.974   7.947
   10AU     LIG 3804  25.179  29.554   7.806
   10AU     LIG 3805  25.277  29.167   8.003
   10AU     LIG 3806  25.146  28.898   8.334
   10AU       S 3807  24.853  30.618   8.499
   10AU     LIG 3808  24.497  30.380   8.788
   10AU     LIG 3809  24.190  30.013   8.622
   10AU     LIG 3810  23.964  29.572   8.738
   10AU       S 3811  25.520  30.032   7.287
   10AU     LIG 3812  25.269  29.628   7.307
   10AU     LIG 3813  25.305  29.168   7.219
   10AU     LIG 3814  25.517  28.794   7.091
   10AU       S 3815  25.442  30.057   7.873
   10AU     LIG 3816  25.638  29.715   7.651
   10AU     LIG 3817  25.626  29.290   7.616
   10AU     LIG 3818  25.752  28.995   7.948
   10AU       S 3819  25.328  32.185   6.739
   10AU     LIG 3820  25.180  32.596   6.652
   10AU     LIG 3821  25.339  33.005   6.513
   10AU     LIG 3822  25.402  33.448   6.330
   10AU       S 3823  26.122  32.026   7.161
   10AU     LIG 3824  26.487  32.403   7.057
   10AU     LIG 3825  26.754  32.476   6.657
   10AU     LIG 3826  27.064  32.534   6.287
   10AU       S 3827  25.118  32.220   7.013
   10AU     LIG 3828  25.073  32.638   7.185
   10AU     LIG 3829  25.248  33.040   7.030
   10AU     LIG 3830  25.080  33.363   6.747
   10AU       S 3831  24.657  31.624   6.636
   10AU     LIG 3832  24.750  31.957   6.358
   10AU     LIG 3833  24.712  32.383   6.200
   10AU     LIG 3834  24.343  32.623   6.102
   10AU       S 3835  24.628  30.371   7.147
   10AU     LIG 3836  24.386  30.069   6.893
   10AU     LIG 3837  24.235  29.848   6.532
   10AU     LIG 3838  24.184  29.555   6.173
   10AU       S 3839  25.505  30.048   7.136
   10AU     LIG 3840  25.741  29.914   6.779
   10AU     LIG 3841  25.694  29.489   6.551
   10AU     LIG 3842  25.396  29.126   6.672
   10AU       S 3843  25.788  30.144   7.407
   10AU     LIG 3844  25.950  29.772   7.241
   10AU     LIG 3845  25.688  29.473   7.055
   10AU     LIG 3846  25.868  29.096   6.851
   10AU       S 3847  26.020  30.578   6.688
   10AU     LIG 3848  25.945  30.268   6.417
   10AU     LIG 3849  26.000  29.833   6.338
   10AU     LIG 3850  26.106  29.512   6.037
   11POPC   NC3 3851  30.002  14.867   9.441
   11POPC   PO4 3852  30.402  15.462   9.575
   11POPC   GL1 3853  30.128  15.299   9.209
   11POPC   GL2 3854  29.772  15.455   9.199
   11POPC   C1A 3855  29.919  15.154   8.812
   11POPC   D2A 3856  29.856  15.234   8.370
   11POPC   C3A 3857  30.065  14.969   8.027
   11POPC   C4A 3858  30.180  14.957   7.573
   11POPC   C1B 3859  29.570  15.598   8.830
   11POPC   C2B 3860  29.425  15.496   8.411
   11POPC   C3B 3861  29.691  15.558   8.028
   11POPC   C4B 3862  29.730  15.209   7.730
   12POPC   NC3 3863   6.950  40.527   9.460
   12POPC   PO4 3864   7.648  40.608   9.237
   12POPC   GL1 3865   7.473  40.902   8.999
   12POPC   GL2 3866   7.173  40.882   9.164
   12POPC   C1A 3867   7.606  41.057   8.626
   12POPC   D2A 3868   7.326  40.959   8.308
   12POPC   C3A 3869   7.557  40.845   7.946
   12POPC   C4A 3870   7.532  40.508   7.679
   12POPC   C1B 3871   7.129  40.527   8.820
   12POPC   C2B 3872   7.066  40.311   8.406
   12POPC   C3B 3873   7.088  40.545   8.019
   12POPC   C4B 3874   7.078  40.951   7.861
   13POPC   NC3 3875  15.249   9.893   9.546
   13POPC   PO4 3876  15.306   9.277   9.483
   13POPC   GL1 3877  15.146   9.535   9.154
   13POPC   GL2 3878  14.980   9.864   9.134
   13POPC   C1A 3879  15.355   9.490   8.752
   13POPC   D2A 3880  15.517   9.474   8.309
   13POPC   C3A 3881  15.292   9.620   7.954
   13POPC   C4A 3882  15.309  10.046   7.774
   13POPC   C1B 3883  14.931   9.777   8.724
   13POPC   C2B 3884  15.174   9.868   8.390
   13POPC   C3B 3885  14.884   9.931   8.079
   13POPC   C4B 3886  14.779   9.646   7.808
   14POPC   NC3 3887  39.023  43.677   9.892
   14POPC   PO4 3888  39.240  44.212   9.701
   14POPC   GL1 3889  39.097  44.075   9.272
   14POPC   GL2 3890  38.816  44.290   9.273
   14POPC   C1A 3891  39.271  43.928   8.830
   14POPC   D2A 3892  39.188  43.735   8.381
   14POPC   C3A 3893  39.305  43.927   7.967
   14POPC   C4A 3894  39.434  43.690   7.598
   14POPC   C1B 3895  39.014  44.393   8.875
   14POPC   C2B 3896  39.060  44.216   8.471
   14POPC   C3B 3897  39.069  44.405   8.097
   14POPC   C4B 3898  38.974  44.251   7.718
   15POPC   NC3 3899  44.372   1.658   9.461
   15POPC   PO4 3900   0.016   1.735   9.264
   15POPC   GL1 3901  44.657   1.723   9.029
   15POPC   GL2 3902  44.545   2.044   9.121
   15POPC   C1A 3903  44.588   1.859   8.615
   15POPC   D2A 3904  44.894   1.915   8.276
   15POPC   C3A 3905  44.758   1.639   7.952
   15POPC   C4A 3906  44.506   1.782   7.623
   15POPC   C1B 3907  44.828   2.276   8.788
   15POPC   C2B 3908  44.769   2.481   8.390
   15POPC   C3B 3909  44.835   2.382   7.952
   15POPC   C4B 3910  44.526   2.276   7.649
   16POPC   NC3 3911  19.834  20.036   9.476
   16POPC   PO4 3912  19.718  19.375   9.542
   16POPC   GL1 3913  19.812  19.600   9.169
   16POPC   GL2 3914  19.631  19.894   9.028
   16POPC   C1A 3915  19.900  19.572   8.744
   16POPC   D2A 3916  20.096  19.716   8.399
   16POPC   C3A 3917  19.859  19.585   8.076
   16POPC   C4A 3918  19.964  19.639   7.689
   16POPC   C1B 3919  19.706  20.137   8.657
   16POPC   C2B 3920  19.743  20.080   8.219
   16POPC   C3B 3921  20.100  20.038   7.949
   16POPC   C4B 3922  20.050  20.116   7.505
   17POPC   NC3 3923  26.891  43.155   9.565
   17POPC   PO4 3924  26.469  42.723   9.385
   17POPC   GL1 3925  26.762  42.992   9.106
   17POPC   GL2 3926  26.752  43.413   9.139
   17POPC   C1A 3927  26.746  43.113   8.704
   17POPC   D2A 3928  26.916  43.047   8.328
   17POPC   C3A 3929  26.577  43.010   8.067
   17POPC   C4A 3930  26.740  42.912   7.708
   17POPC   C1B 3931  26.896  43.602   8.750
   17POPC   C2B 3932  26.689  43.512   8.333
   17POPC   C3B 3933  26.783  43.435   7.890
   17POPC   C4B 3934  26.874  43.379   7.485
   18POPC   NC3 3935  22.705  33.228   9.392
   18POPC   PO4 3936  23.061  32.475   9.391
   18POPC   GL1 3937  23.113  32.689   9.010
   18POPC   GL2 3938  22.830  32.885   9.062
   18POPC   C1A 3939  23.107  33.087   8.702
   18POPC   D2A 3940  22.785  33.292   8.414
   18POPC   C3A 3941  22.954  33.253   7.984
   18POPC   C4A 3942  23.255  32.921   7.869
   18POPC   C1B 3943  22.754  32.715   8.665
   18POPC   C2B 3944  22.937  32.817   8.284
   18POPC   C3B 3945  22.731  32.804   7.944
   18POPC   C4B 3946  22.357  32.834   7.712
   19POPC   NC3 3947   4.039  21.956   9.534
   19POPC   PO4 3948   3.652  22.480   9.661
   19POPC   GL1 3949   3.608  22.205   9.234
   19POPC   GL2 3950   3.783  21.898   9.109
   19POPC   C1A 3951   3.445  22.173   8.771
   19POPC   D2A 3952   3.579  22.335   8.314
   19POPC   C3A 3953   3.262  22.370   7.945
   19POPC   C4A 3954   3.023  22.069   7.655
   19POPC   C1B 3955   3.613  21.695   8.789
   19POPC   C2B 3956   3.688  21.809   8.405
   19POPC   C3B 3957   3.803  21.779   8.013
   19POPC   C4B 3958   3.519  21.996   7.752
   20POPC   NC3 3959  18.725  28.235   9.345
   20POPC   PO4 3960  18.101  28.037   9.437
   20POPC   GL1 3961  18.207  28.286   9.040
   20POPC   GL2 3962  18.531  28.437   8.915
   20POPC   C1A 3963  18.086  28.447   8.634
   20POPC   D2A 3964  17.813  28.350   8.286
   20POPC   C3A 3965  18.021  28.449   7.903
   20POPC   C4A 3966  17.935  28.453   7.460
   20POPC   C1B 3967  18.490  28.103   8.649
   20POPC   C2B 3968  18.301  28.146   8.254
   20POPC   C3B 3969  18.464  28.216   7.874
   20POPC   C4B 3970  18.446  28.631   7.687
   21POPC   NC3 3971  39.433   1.080   9.515
   21POPC   PO4 3972  38.883   1.355   9.415
   21POPC   GL1 3973  38.978   1.019   9.105
   21POPC   GL2 3974  39.309   0.908   9.053
   21POPC   C1A 3975  38.789   1.009   8.698
   21POPC   D2A 3976  38.976   1.019   8.276
   21POPC   C3A 3977  39.095   1.316   7.916
   21POPC   C4A 3978  39.195   1.145   7.497
   21POPC   C1B 3979  39.276   1.181   8.704
   21POPC   C2B 3980  39.537   1.088   8.362
   21POPC   C3B 3981  39.593   1.150   7.956
   21POPC   C4B 3982  39.588   1.438   7.663
   22POPC   NC3 3983   3.859  34.046   9.521
   22POPC   PO4 3984   3.147  34.077   9.470
   22POPC   GL1 3985   3.464  33.833   9.247
   22POPC   GL2 3986   3.391  33.460   9.235
   22POPC   C1A 3987   3.759  33.751   8.882
   22POPC   D2A 3988   3.909  33.951   8.491
   22POPC   C3A 3989   3.741  33.870   8.060
   22POPC   C4A 3990   3.759  34.195   7.738
   22POPC   C1B 3991   3.246  33.622   8.844
   22POPC   C2B 3992   3.425  33.664   8.448
   22POPC   C3B 3993   3.215  33.860   8.105
   22POPC   C4B 3994   3.257  34.131   7.764
   23POPC   NC3 3995   2.485   4.991   9.724
   23POPC   PO4 3996   3.041   5.257   9.495
   23POPC   GL1 3997   2.801   5.208   9.144
   23POPC   GL2 3998   2.690   4.924   9.210
   23POPC   C1A 3999   2.926   5.238   8.720
   23POPC   D2A 4000   3.208   5.194   8.323
   23POPC   C3A 4001   2.969   5.217   7.917
   23POPC   C4A 4002   2.904   5.136   7.457
   23POPC   C1B 4003   2.809   4.742   8.803
   23POPC   C2B 4004   2.719   4.918   8.387
   23POPC   C3B 4005   2.499   5.041   8.027
   23POPC   C4B 4006   2.749   4.756   7.772
   24POPC   NC3 4007  35.163  21.772   9.694
   24POPC   PO4 4008  34.552  21.496   9.574
   24POPC   GL1 4009  34.538  21.271   9.217
   24POPC   GL2 4010  34.311  21.553   9.122
   24POPC   C1A 4011  34.810  21.131   8.887
   24POPC   D2A 4012  34.683  20.927   8.508
   24POPC   C3A 4013  34.812  21.089   8.114
   24POPC   C4A 4014  34.559  21.236   7.790
   24POPC   C1B 4015  34.628  21.618   8.844
   24POPC   C2B 4016  34.673  21.456   8.454
   24POPC   C3B 4017  34.471  21.642   8.099
   24POPC   C4B 4018  34.405  21.974   7.794
   25POPC   NC3 4019  16.737  43.631   9.548
   25POPC   PO4 4020  16.502  44.275   9.436
   25POPC   GL1 4021  16.663  43.926   9.156
   25POPC   GL2 4022  16.527  43.545   9.118
   25POPC   C1A 4023  16.858  43.777   8.791
   25POPC   D2A 4024  16.929  44.045   8.426
   25POPC   C3A 4025  16.830  43.891   8.023
   25POPC   C4A 4026  16.964  43.866   7.598
   25POPC   C1B 4027  16.326  43.462   8.769
   25POPC   C2B 4028  16.500  43.576   8.399
   25POPC   C3B 4029  16.348  43.660   8.024
   25POPC   C4B 4030  16.520  43.653   7.681
   26POPC   NC3 4031  41.058   3.763   9.542
   26POPC   PO4 4032  41.636   3.333   9.564
   26POPC   GL1 4033  41.504   3.357   9.179
   26POPC   GL2 4034  41.473   3.732   9.197
   26POPC   C1A 4035  41.538   3.447   8.748
   26POPC   D2A 4036  41.823   3.530   8.430
   26POPC   C3A 4037  41.681   3.303   8.088
   26POPC   C4A 4038  41.661   3.465   7.697
   26POPC   C1B 4039  41.326   3.915   8.805
   26POPC   C2B 4040  41.251   3.740   8.384
   26POPC   C3B 4041  41.335   3.734   7.959
   26POPC   C4B 4042  41.395   3.856   7.519
   27POPC   NC3 4043  41.847  14.117   9.481
   27POPC   PO4 4044  41.192  14.034   9.427
   27POPC   GL1 4045  41.502  14.215   9.111
   27POPC   GL2 4046  41.742  14.032   8.963
   27POPC   C1A 4047  41.453  14.485   8.752
   27POPC   D2A 4048  41.438  14.418   8.322
   27POPC   C3A 4049  41.813  14.358   8.134
   27POPC   C4A 4050  41.860  14.460   7.707
   27POPC   C1B 4051  41.349  13.988   8.658
   27POPC   C2B 4052  41.287  13.924   8.195
   27POPC   C3B 4053  41.424  14.177   7.822
   27POPC   C4B 4054  41.582  14.227   7.365
   28POPC   NC3 4055  25.501   3.268   9.459
   28POPC   PO4 4056  24.826   3.399   9.531
   28POPC   GL1 4057  25.097   3.343   9.180
   28POPC   GL2 4058  25.277   3.662   9.213
   28POPC   C1A 4059  25.369   3.363   8.794
   28POPC   D2A 4060  25.245   3.591   8.432
   28POPC   C3A 4061  25.289   3.441   8.028
   28POPC   C4A 4062  25.597   3.523   7.714
   28POPC   C1B 4063  24.966   3.740   8.870
   28POPC   C2B 4064  24.844   3.892   8.465
   28POPC   C3B 4065  24.974   3.941   8.063
   28POPC   C4B 4066  25.210   3.859   7.715
   29POPC   NC3 4067  20.863  13.897   9.544
   29POPC   PO4 4068  20.359  13.391   9.526
   29POPC   GL1 4069  20.585  13.348   9.118
   29POPC   GL2 4070  20.835  13.570   9.132
   29POPC   C1A 4071  20.654  13.429   8.656
   29POPC   D2A 4072  20.791  13.623   8.289
   29POPC   C3A 4073  20.618  13.443   7.901
   29POPC   C4A 4074  20.406  13.419   7.476
   29POPC   C1B 4075  20.836  13.905   8.816
   29POPC   C2B 4076  20.950  14.099   8.413
   29POPC   C3B 4077  20.779  14.071   8.005
   29POPC   C4B 4078  20.725  13.854   7.607
   30POPC   NC3 4079  36.419  24.424   9.467
   30POPC   PO4 4080  35.876  24.815   9.538
   30POPC   GL1 4081  35.831  24.650   9.142
   30POPC   GL2 4082  35.862  24.279   9.135
   30POPC   C1A 4083  36.136  24.582   8.813
   30POPC   D2A 4084  35.999  24.688   8.424
   30POPC   C3A 4085  36.082  24.510   8.061
   30POPC   C4A 4086  36.128  24.598   7.652
   30POPC   C1B 4087  35.968  24.079   8.719
   30POPC   C2B 4088  36.162  24.019   8.334
   30POPC   C3B 4089  36.038  24.011   7.919
   30POPC   C4B 4090  35.952  24.160   7.510
   31POPC   NC3 4091  27.996  27.625   9.743
   31POPC   PO4 4092  28.520  27.490   9.501
   31POPC   GL1 4093  28.267  27.372   9.158
   31POPC   GL2 4094  28.541  27.198   9.031
   31POPC   C1A 4095  28.171  27.499   8.727
   31POPC   D2A 4096  28.159  27.348   8.297
   31POPC   C3A 4097  28.232  27.624   7.955
   31POPC   C4A 4098  28.605  27.902   7.864
   31POPC   C1B 4099  28.685  27.475   8.714
   31POPC   C2B 4100  28.650  27.542   8.268
   31POPC   C3B 4101  28.644  27.369   7.849
   31POPC   C4B 4102  28.725  27.588   7.442
   32POPC   NC3 4103  30.886   3.349   9.522
   32POPC   PO4 4104  30.191   3.657   9.411
   32POPC   GL1 4105  30.581   3.640   9.207
   32POPC   GL2 4106  30.550   3.304   9.145
   32POPC   C1A 4107  30.837   3.720   8.834
   32POPC   D2A 4108  30.810   3.577   8.411
   32POPC   C3A 4109  30.944   3.741   8.030
   32POPC   C4A 4110  30.742   3.653   7.626
   32POPC   C1B 4111  30.699   3.171   8.778
   32POPC   C2B 4112  30.531   3.168   8.413
   32POPC   C3B 4113  30.601   3.314   7.999
   32POPC   C4B 4114  30.411   3.242   7.604
   33POPC   NC3 4115  37.267  33.651   9.523
   33POPC   PO4 4116  37.600  34.165   9.364
   33POPC   GL1 4117  37.611  33.953   9.023
   33POPC   GL2 4118  37.712  33.636   9.142
   33POPC   C1A 4119  37.931  33.903   8.740
   33POPC   D2A 4120  37.941  33.734   8.335
   33POPC   C3A 4121  37.544  33.759   8.122
   33POPC   C4A 4122  37.420  33.968   7.759
   33POPC   C1B 4123  37.577  33.519   8.708
   33POPC   C2B 4124  37.680  33.274   8.334
   33POPC   C3B 4125  37.779  33.335   7.946
   33POPC   C4B 4126  37.432  33.419   7.712
   34POPC   NC3 4127   0.855  14.886   9.475
   34POPC   PO4 4128   0.222  15.297   9.439
   34POPC   GL1 4129   0.541  15.170   9.127
   34POPC   GL2 4130   0.551  14.798   9.065
   34POPC   C1A 4131   0.611  15.287   8.690
   34POPC   D2A 4132   0.790  15.464   8.303
   34POPC   C3A 4133   0.561  15.371   7.916
   34POPC   C4A 4134   0.369  15.231   7.539
   34POPC   C1B 4135   0.750  14.802   8.652
   34POPC   C2B 4136   0.687  14.954   8.235
   34POPC   C3B 4137   0.620  14.863   7.801
   34POPC   C4B 4138   0.692  14.686   7.383
   35POPC   NC3 4139  21.827  40.001   9.562
   35POPC   PO4 4140  21.240  40.275   9.562
   35POPC   GL1 4141  21.399  40.006   9.247
   35POPC   GL2 4142  21.600  40.182   9.069
   35POPC   C1A 4143  21.212  39.879   8.860
   35POPC   D2A 4144  21.350  40.094   8.505
   35POPC   C3A 4145  21.273  39.915   8.128
   35POPC   C4A 4146  21.062  39.825   7.802
   35POPC   C1B 4147  21.698  39.768   8.895
   35POPC   C2B 4148  21.768  39.775   8.464
   35POPC   C3B 4149  21.770  39.987   8.051
   35POPC   C4B 4150  21.572  39.692   7.774
   36POPC   NC3 4151  39.168  27.843   9.555
   36POPC   PO4 4152  39.317  27.235   9.546
   36POPC   GL1 4153  39.305  27.528   9.161
   36POPC   GL2 4154  39.009  27.765   9.085
   36POPC   C1A 4155  39.362  27.680   8.735
   36POPC   D2A 4156  39.188  27.645   8.342
   36POPC   C3A 4157  39.423  27.658   7.992
   36POPC   C4A 4158  39.353  27.622   7.528
   36POPC   C1B 4159  38.953  27.997   8.675
   36POPC   C2B 4160  38.738  27.882   8.271
   36POPC   C3B 4161  38.907  27.714   7.860
   36POPC   C4B 4162  38.951  28.042   7.551
   37POPC   NC3 4163  12.249  34.802   9.501
   37POPC   PO4 4164  11.700  34.389   9.418
   37POPC   GL1 4165  12.047  34.463   9.136
   37POPC   GL2 4166  12.027  34.798   9.032
   37POPC   C1A 4167  12.050  34.314   8.729
   37POPC   D2A 4168  12.292  34.246   8.355
   37POPC   C3A 4169  12.134  34.530   8.083
   37POPC   C4A 4170  11.963  34.859   7.867
   37POPC   C1B 4171  12.260  34.758   8.650
   37POPC   C2B 4172  12.291  34.969   8.286
   37POPC   C3B 4173  12.498  34.867   7.910
   37POPC   C4B 4174  12.370  34.574   7.612
   38POPC   NC3 4175  20.535  30.986   9.374
   38POPC   PO4 4176  20.764  30.397   9.354
   38POPC   GL1 4177  20.702  30.630   9.021
   38POPC   GL2 4178  20.358  30.614   9.057
   38POPC   C1A 4179  20.858  30.798   8.604
   38POPC   D2A 4180  21.090  30.807   8.189
   38POPC   C3A 4181  20.958  30.546   7.839
   38POPC   C4A 4182  20.885  30.792   7.424
   38POPC   C1B 4183  20.446  30.510   8.612
   38POPC   C2B 4184  20.573  30.579   8.206
   38POPC   C3B 4185  20.547  30.822   7.862
   38POPC   C4B 4186  20.392  30.685   7.438
   39POPC   NC3 4187  38.996  26.900   9.618
   39POPC   PO4 4188  39.601  26.519   9.480
   39POPC   GL1 4189  39.283  26.777   9.216
   39POPC   GL2 4190  39.067  27.075   9.141
   39POPC   C1A 4191  39.023  26.709   8.816
   39POPC   D2A 4192  38.938  26.864   8.393
   39POPC   C3A 4193  39.158  26.701   8.027
   39POPC   C4A 4194  38.953  26.519   7.686
   39POPC   C1B 4195  39.153  27.214   8.722
   39POPC   C2B 4196  39.356  27.152   8.312
   39POPC   C3B 4197  39.239  27.194   7.875
   39POPC   C4B 4198  39.270  26.898   7.538
   40POPC   NC3 4199  26.372  43.650   9.444
   40POPC   PO4 4200  25.726  43.967   9.504
   40POPC   GL1 4201  25.953  43.880   9.147
   40POPC   GL2 4202  26.218  44.052   9.116
   40POPC   C1A 4203  25.922  43.719   8.740
   40POPC   D2A 4204  25.729  43.867   8.375
   40POPC   C3A 4205  25.804  43.626   8.042
   40POPC   C4A 4206  25.961  43.566   7.625
   40POPC   C1B 4207  26.044  44.195   8.689
   40POPC   C2B 4208  26.237  43.907   8.357
   40POPC   C3B 4209  26.149  43.966   7.939
   40POPC   C4B 4210  26.068  44.390   7.818
   41POPC   NC3 4211  12.710  37.240   9.570
   41POPC   PO4 4212  13.204  36.791   9.591
   41POPC   GL1 4213  12.933  36.832   9.234
   41POPC   GL2 4214  13.162  37.110   9.190
   41POPC   C1A 4215  12.820  36.643   8.793
   41POPC   D2A 4216  13.017  36.605   8.358
   41POPC   C3A 4217  12.775  36.586   7.926
   41POPC   C4A 4218  12.718  36.929   7.624
   41POPC   C1B 4219  12.944  37.125   8.817
   41POPC   C2B 4220  12.853  37.188   8.417
   41POPC   C3B 4221  12.979  37.039   8.044
   41POPC   C4B 4222  13.214  36.804   7.738
   42POPC   NC3 4223  32.145  39.627   9.779
   42POPC   PO4 4224  32.219  38.994   9.649
   42POPC   GL1 4225  32.139  39.274   9.324
   42POPC   GL2 4226  32.401  39.364   9.107
   42POPC   C1A 4227  31.909  39.238   8.927
   42POPC   D2A 4228  31.826  39.037   8.520
   42POPC   C3A 4229  31.989  39.236   8.168
   42POPC   C4A 4230  32.255  39.163   7.842
   42POPC   C1B 4231  32.342  39.191   8.658
   42POPC   C2B 4232  32.488  39.366   8.264
   42POPC   C3B 4233  32.616  39.518   7.888
   42POPC   C4B 4234  32.707  39.181   7.617
   43POPC   NC3 4235   0.201  12.416   9.436
   43POPC   PO4 4236   0.701  12.993   9.482
   43POPC   GL1 4237   0.511  12.989   9.106
   43POPC   GL2 4238   0.560  12.645   9.100
   43POPC   C1A 4239   0.232  12.877   8.755
   43POPC   D2A 4240  44.991  13.134   8.446
   43POPC   C3A 4241   0.186  13.079   8.047
   43POPC   C4A 4242   0.363  12.713   7.842
   43POPC   C1B 4243   0.731  12.703   8.699
   43POPC   C2B 4244   0.525  12.542   8.331
   43POPC   C3B 4245   0.719  12.387   7.973
   43POPC   C4B 4246   0.911  12.633   7.684
   44POPC   NC3 4247  38.829  25.030   9.438
   44POPC   PO4 4248  39.500  24.886   9.570
   44POPC   GL1 4249  39.329  25.055   9.203
   44POPC   GL2 4250  39.422  25.356   9.226
   44POPC   C1A 4251  39.035  25.206   8.854
   44POPC   D2A 4252  38.988  25.484   8.477
   44POPC   C3A 4253  38.906  25.307   8.067
   44POPC   C4A 4254  39.237  25.266   7.762
   44POPC   C1B 4255  39.535  25.315   8.788
   44POPC   C2B 4256  39.477  25.647   8.521
   44POPC   C3B 4257  39.466  25.629   8.102
   44POPC   C4B 4258  39.724  25.548   7.778
   45POPC   NC3 4259  11.470  12.836   9.701
   45POPC   PO4 4260  11.249  12.239   9.678
   45POPC   GL1 4261  11.398  12.478   9.242
   45POPC   GL2 4262  11.350  12.845   9.185
   45POPC   C1A 4263  11.366  12.612   8.746
   45POPC   D2A 4264  11.108  12.531   8.345
   45POPC   C3A 4265  11.193  12.590   7.892
   45POPC   C4A 4266  11.594  12.679   7.730
   45POPC   C1B 4267  11.270  13.099   8.794
   45POPC   C2B 4268  11.173  13.021   8.426
   45POPC   C3B 4269  11.398  12.998   8.087
   45POPC   C4B 4270  11.260  13.095   7.710
   46POPC   NC3 4271  11.115  21.641   9.541
   46POPC   PO4 4272  11.568  21.229   9.675
   46POPC   GL1 4273  11.337  21.257   9.274
   46POPC   GL2 4274  11.428  21.574   9.115
   46POPC   C1A 4275  11.351  21.129   8.835
   46POPC   D2A 4276  11.408  21.338   8.425
   46POPC   C3A 4277  11.396  21.083   8.041
   46POPC   C4A 4278  11.082  21.099   7.721
   46POPC   C1B 4279  11.454  21.772   8.691
   46POPC   C2B 4280  11.230  21.796   8.287
   46POPC   C3B 4281  11.318  21.628   7.882
   46POPC   C4B 4282  11.676  21.756   7.578
   47POPC   NC3 4283  25.078  14.832   9.537
   47POPC   PO4 4284  25.544  15.318   9.441
   47POPC   GL1 4285  25.423  14.967   9.189
   47POPC   GL2 4286  25.152  15.164   9.110
   47POPC   C1A 4287  25.493  14.946   8.760
   47POPC   D2A 4288  25.352  15.122   8.402
   47POPC   C3A 4289  25.526  15.036   8.028
   47POPC   C4A 4290  25.460  15.420   7.874
   47POPC   C1B 4291  24.975  15.043   8.736
   47POPC   C2B 4292  24.847  15.109   8.323
   47POPC   C3B 4293  25.003  15.155   7.865
   47POPC   C4B 4294  25.034  15.370   7.426
   48POPC   NC3 4295   3.419  10.286   9.600
   48POPC   PO4 4296   3.786  10.832   9.383
   48POPC   GL1 4297   3.768  10.467   9.221
   48POPC   GL2 4298   3.432  10.471   9.121
   48POPC   C1A 4299   3.873  10.346   8.813
   48POPC   D2A 4300   3.708  10.410   8.419
   48POPC   C3A 4301   3.930  10.489   8.071
   48POPC   C4A 4302   3.758  10.449   7.644
   48POPC   C1B 4303   3.323  10.338   8.744
   48POPC   C2B 4304   3.204  10.573   8.369
   48POPC   C3B 4305   3.411  10.504   7.998
   48POPC   C4B 4306   3.317  10.187   7.677
   49POPC   NC3 4307  12.960  34.892   9.427
   49POPC   PO4 4308  12.435  34.363   9.459
   49POPC   GL1 4309  12.703  34.502   9.151
   49POPC   GL2 4310  12.553  34.793   9.072
   49POPC   C1A 4311  12.636  34.424   8.721
   49POPC   D2A 4312  12.669  34.646   8.359
   49POPC   C3A 4313  12.661  34.408   8.021
   49POPC   C4A 4314  12.916  34.491   7.704
   49POPC   C1B 4315  12.924  34.831   8.782
   49POPC   C2B 4316  13.149  34.806   8.415
   49POPC   C3B 4317  13.034  34.866   8.018
   49POPC   C4B 4318  12.923  35.143   7.716
   50POPC   NC3 4319  25.506  23.747   9.607
   50POPC   PO4 4320  24.870  23.598   9.552
   50POPC   GL1 4321  25.115  23.799   9.241
   50POPC   GL2 4322  25.365  23.541   9.179
   50POPC   C1A 4323  25.309  23.944   8.856
   50POPC   D2A 4324  25.306  23.749   8.474
   50POPC   C3A 4325  25.400  23.991   8.127
   50POPC   C4A 4326  25.222  24.008   7.736
   50POPC   C1B 4327  25.181  23.357   8.838
   50POPC   C2B 4328  25.198  23.243   8.420
   50POPC   C3B 4329  25.277  23.456   8.025
   50POPC   C4B 4330  25.078  23.539   7.620
   51POPC   NC3 4331  41.522   0.742   9.526
   51POPC   PO4 4332  42.018   0.303   9.591
   51POPC   GL1 4333  41.722   0.413   9.194
   51POPC   GL2 4334  41.339   0.545   9.115
   51POPC   C1A 4335  41.641   0.413   8.752
   51POPC   D2A 4336  41.587   0.602   8.376
   51POPC   C3A 4337  41.771   0.413   8.062
   51POPC   C4A 4338  41.901   0.411   7.685
   51POPC   C1B 4339  41.214   0.722   8.733
   51POPC   C2B 4340  41.065   0.641   8.334
   51POPC   C3B 4341  41.278   0.587   7.937
   51POPC   C4B 4342  41.419   0.235   7.685
   52POPC   NC3 4343  26.463   4.501   9.780
   52POPC   PO4 4344  26.883   4.050   9.501
   52POPC   GL1 4345  26.699   4.287   9.155
   52POPC   GL2 4346  26.860   4.043   8.960
   52POPC   C1A 4347  26.768   4.548   8.755
   52POPC   D2A 4348  26.799   4.687   8.303
   52POPC   C3A 4349  27.033   4.385   8.067
   52POPC   C4A 4350  27.082   4.239   7.688
   52POPC   C1B 4351  26.527   4.105   8.674
   52POPC   C2B 4352  26.581   4.217   8.260
   52POPC   C3B 4353  26.578   4.291   7.813
   52POPC   C4B 4354  26.432   4.102   7.411
   53POPC   NC3 4355  32.584  41.760   9.524
   53POPC   PO4 4356  32.931  41.167   9.579
   53POPC   GL1 4357  33.165  41.280   9.173
   53POPC   GL2 4358  33.021  41.601   9.136
   53POPC   C1A 4359  33.163  41.242   8.725
   53POPC   D2A 4360  32.864  41.228   8.382
   53POPC   C3A 4361  32.971  41.535   8.083
   53POPC   C4A 4362  33.302  41.519   7.758
   53POPC   C1B 4363  32.831  41.619   8.727
   53POPC   C2B 4364  32.557  41.654   8.365
   53POPC   C3B 4365  32.539  41.837   7.944
   53POPC   C4B 4366  32.750  41.623   7.601
   54POPC   NC3 4367  30.672  19.270   9.531
   54POPC   PO4 4368  31.117  18.886   9.175
   54POPC   GL1 4369  30.763  19.087   9.064
   54POPC   GL2 4370  30.531  18.870   9.213
   54POPC   C1A 4371  30.837  19.082   8.632
   54POPC   D2A 4372  30.784  18.711   8.368
   54POPC   C3A 4373  30.842  18.874   7.953
   54POPC   C4A 4374  30.664  19.313   7.867
   54POPC   C1B 4375  30.400  18.856   8.791
   54POPC   C2B 4376  30.388  19.092   8.411
   54POPC   C3B 4377  30.366  18.924   8.054
   54POPC   C4B 4378  30.288  19.004   7.664
   55POPC   NC3 4379  25.339  20.806   9.687
   55POPC   PO4 4380  25.633  20.198   9.434
   55POPC   GL1 4381  25.299  20.505   9.233
   55POPC   GL2 4382  25.268  20.884   9.192
   55POPC   C1A 4383  25.159  20.546   8.805
   55POPC   D2A 4384  25.401  20.614   8.436
   55POPC   C3A 4385  25.148  20.670   8.094
   55POPC   C4A 4386  25.429  20.521   7.794
   55POPC   C1B 4387  25.413  21.020   8.794
   55POPC   C2B 4388  25.287  21.127   8.354
   55POPC   C3B 4389  25.490  21.002   7.954
   55POPC   C4B 4390  25.453  20.919   7.473
   56POPC   NC3 4391  32.726  37.374   9.504
   56POPC   PO4 4392  33.008  38.028   9.560
   56POPC   GL1 4393  32.903  37.917   9.116
   56POPC   GL2 4394  32.955  37.544   9.082
   56POPC   C1A 4395  33.088  37.841   8.689
   56POPC   D2A 4396  33.141  37.681   8.266
   56POPC   C3A 4397  32.882  37.804   7.916
   56POPC   C4A 4398  33.163  37.606   7.609
   56POPC   C1B 4399  32.674  37.502   8.746
   56POPC   C2B 4400  32.642  37.529   8.297
   56POPC   C3B 4401  32.840  37.308   7.963
   56POPC   C4B 4402  32.764  37.315   7.520
   57POPC   NC3 4403  34.666  15.594   9.791
   57POPC   PO4 4404  34.768  16.096   9.231
   57POPC   GL1 4405  34.456  15.959   9.000
   57POPC   GL2 4406  34.568  15.628   8.862
   57POPC   C1A 4407  34.359  16.077   8.600
   57POPC   D2A 4408  34.537  15.790   8.332
   57POPC   C3A 4409  34.695  15.992   7.993
   57POPC   C4A 4410  34.856  15.833   7.613
   57POPC   C1B 4411  34.130  15.637   8.790
   57POPC   C2B 4412  33.976  15.764   8.427
   57POPC   C3B 4413  34.144  15.725   8.013
   57POPC   C4B 4414  34.345  15.896   7.648
   58POPC   NC3 4415  37.949  11.025   9.554
   58POPC   PO4 4416  37.638  11.695   9.565
   58POPC   GL1 4417  37.739  11.459   9.227
   58POPC   GL2 4418  37.568  11.136   9.233
   58POPC   C1A 4419  37.707  11.514   8.779
   58POPC   D2A 4420  37.851  11.415   8.367
   58POPC   C3A 4421  37.514  11.372   8.111
   58POPC   C4A 4422  37.439  11.475   7.686
   58POPC   C1B 4423  37.846  11.047   8.909
   58POPC   C2B 4424  37.762  10.941   8.510
   58POPC   C3B 4425  37.874  10.934   8.105
   58POPC   C4B 4426  37.748  11.056   7.761
   59POPC   NC3 4427   3.629  35.392   9.384
   59POPC   PO4 4428   3.045  35.069   9.397
   59POPC   GL1 4429   3.160  35.326   9.057
   59POPC   GL2 4430   3.508  35.237   8.914
   59POPC   C1A 4431   3.157  35.429   8.610
   59POPC   D2A 4432   3.557  35.358   8.396
   59POPC   C3A 4433   3.532  35.307   7.979
   59POPC   C4A 4434   3.844  35.238   7.692
   59POPC   C1B 4435   3.665  35.672   8.792
   59POPC   C2B 4436   3.957  35.793   8.473
   59POPC   C3B 4437   3.987  35.570   8.090
   59POPC   C4B 4438   3.797  35.772   7.747
   60POPC   NC3 4439   5.068  24.096   9.609
   60POPC   PO4 4440   4.967  23.455   9.499
   60POPC   GL1 4441   5.065  23.595   9.116
   60POPC   GL2 4442   5.186  23.881   9.166
   60POPC   C1A 4443   4.839  23.855   8.780
   60POPC   D2A 4444   4.680  23.969   8.336
   60POPC   C3A 4445   4.963  23.781   8.013
   60POPC   C4A 4446   5.253  23.445   7.889
   60POPC   C1B 4447   5.318  24.112   8.802
   60POPC   C2B 4448   5.189  24.020   8.418
   60POPC   C3B 4449   5.368  24.094   8.061
   60POPC   C4B 4450   5.311  23.963   7.656
   61POPC   NC3 4451   4.461  24.709   9.446
   61POPC   PO4 4452   3.952  24.256   9.560
   61POPC   GL1 4453   4.165  24.412   9.157
   61POPC   GL2 4454   4.504  24.277   9.103
   61POPC   C1A 4455   4.329  24.699   8.809
   61POPC   D2A 4456   4.448  24.872   8.406
   61POPC   C3A 4457   4.159  24.832   8.105
   61POPC   C4A 4458   4.017  24.761   7.714
   61POPC   C1B 4459   4.353  24.214   8.643
   61POPC   C2B 4460   4.346  24.339   8.145
   61POPC   C3B 4461   4.377  24.373   7.677
   61POPC   C4B 4462   4.538  24.295   7.243
   62POPC   NC3 4463   0.644   3.445   9.526
   62POPC   PO4 4464   0.361   2.808   9.617
   62POPC   GL1 4465   0.442   2.575   9.235
   62POPC   GL2 4466   0.597   2.870   9.120
   62POPC   C1A 4467   0.294   2.572   8.798
   62POPC   D2A 4468   0.367   2.801   8.407
   62POPC   C3A 4469   0.277   2.666   7.995
   62POPC   C4A 4470   0.517   2.739   7.633
   62POPC   C1B 4471   0.761   2.857   8.731
   62POPC   C2B 4472   0.896   2.897   8.325
   62POPC   C3B 4473   0.630   3.032   8.027
   62POPC   C4B 4474   0.648   3.246   7.670
   63POPC   NC3 4475  38.031  11.829   9.804
   63POPC   PO4 4476  38.475  12.193   9.341
   63POPC   GL1 4477  38.424  12.084   8.986
   63POPC   GL2 4478  38.650  11.779   9.029
   63POPC   C1A 4479  38.340  11.917   8.618
   63POPC   D2A 4480  38.037  11.882   8.308
   63POPC   C3A 4481  38.261  11.961   7.930
   63POPC   C4A 4482  38.234  12.149   7.520
   63POPC   C1B 4483  38.868  12.156   8.806
   63POPC   C2B 4484  38.810  12.349   8.424
   63POPC   C3B 4485  38.702  12.206   8.023
   63POPC   C4B 4486  38.935  11.956   7.738
   64POPC   NC3 4487  11.804  28.072   9.793
   64POPC   PO4 4488  12.073  27.570   9.593
   64POPC   GL1 4489  12.080  27.557   9.150
   64POPC   GL2 4490  11.842  27.304   9.061
   64POPC   C1A 4491  11.844  27.702   8.750
   64POPC   D2A 4492  11.965  27.796   8.326
   64POPC   C3A 4493  11.815  27.722   7.912
   64POPC   C4A 4494  12.158  27.859   7.607
   64POPC   C1B 4495  12.217  27.320   8.736
   64POPC   C2B 4496  12.412  27.517   8.374
   64POPC   C3B 4497  12.254  27.487   7.957
   64POPC   C4B 4498  12.208  27.322   7.538
   65POPC   NC3 4499  34.308  39.631   9.222
   65POPC   PO4 4500  34.406  40.162   9.567
   65POPC   GL1 4501  34.635  40.042   9.189
   65POPC   GL2 4502  34.539  40.320   8.984
   65POPC   C1A 4503  34.644  39.877   8.737
   65POPC   D2A 4504  34.282  39.775   8.488
   65POPC   C3A 4505  34.376  39.839   8.058
   65POPC   C4A 4506  34.718  39.883   7.781
   65POPC   C1B 4507  34.522  40.349   8.555
   65POPC   C2B 4508  34.423  40.559   8.201
   65POPC   C3B 4509  34.494  40.327   7.890
   65POPC   C4B 4510  34.449  40.268   7.478
   66POPC   NC3 4511  19.247  27.383   9.303
   66POPC   PO4 4512  19.544  27.915   9.576
   66POPC   GL1 4513  19.238  27.950   9.172
   66POPC   GL2 4514  19.084  27.628   8.915
   66POPC   C1A 4515  19.024  28.086   8.758
   66POPC   D2A 4516  18.883  28.088   8.313
   66POPC   C3A 4517  19.086  27.750   8.082
   66POPC   C4A 4518  19.245  27.721   7.678
   66POPC   C1B 4519  19.402  27.353   8.659
   66POPC   C2B 4520  19.541  27.463   8.236
   66POPC   C3B 4521  19.393  27.283   7.884
   66POPC   C4B 4522  18.935  27.320   7.839
   67POPC   NC3 4523  33.817  26.598   9.504
   67POPC   PO4 4524  33.843  25.952   9.743
   67POPC   GL1 4525  33.758  26.099   9.233
   67POPC   GL2 4526  33.769  26.401   9.021
   67POPC   C1A 4527  33.733  25.948   8.766
   67POPC   D2A 4528  33.792  26.144   8.379
   67POPC   C3A 4529  33.837  25.832   8.024
   67POPC   C4A 4530  33.929  25.769   7.566
   67POPC   C1B 4531  33.393  26.305   8.751
   67POPC   C2B 4532  33.235  26.348   8.334
   67POPC   C3B 4533  33.457  26.149   8.007
   67POPC   C4B 4534  33.709  26.215   7.656
   68POPC   NC3 4535   8.718  22.582   9.549
   68POPC   PO4 4536   9.096  22.010   9.611
   68POPC   GL1 4537   8.976  22.255   9.252
   68POPC   GL2 4538   8.629  22.191   9.199
   68POPC   C1A 4539   9.003  22.150   8.823
   68POPC   D2A 4540   9.182  22.168   8.451
   68POPC   C3A 4541   8.942  22.120   8.161
   68POPC   C4A 4542   9.021  22.175   7.772
   68POPC   C1B 4543   8.479  22.107   8.789
   68POPC   C2B 4544   8.472  21.960   8.364
   68POPC   C3B 4545   8.474  22.241   8.005
   68POPC   C4B 4546   8.596  22.396   7.616
   69POPC   NC3 4547   3.382  44.314   9.564
   69POPC   PO4 4548   3.976  44.607   9.565
   69POPC   GL1 4549   3.810  44.424   9.169
   69POPC   GL2 4550   3.453  44.516   9.117
   69POPC   C1A 4551   3.695  44.507   8.695
   69POPC   D2A 4552   3.716  44.391   8.291
   69POPC   C3A 4553   3.526  44.667   8.010
   69POPC   C4A 4554   3.850  44.848   7.808
   69POPC   C1B 4555   3.227  44.274   8.794
   69POPC   C2B 4556   3.199  44.403   8.343
   69POPC   C3B 4557   3.227  44.292   7.878
   69POPC   C4B 4558   3.058  44.360   7.431
   70POPC   NC3 4559  15.246  21.610   9.630
   70POPC   PO4 4560  15.712  21.108   9.552
   70POPC   GL1 4561  15.302  21.265   9.270
   70POPC   GL2 4562  15.161  21.549   9.137
   70POPC   C1A 4563  15.120  21.137   8.871
   70POPC   D2A 4564  15.041  21.259   8.471
   70POPC   C3A 4565  15.294  21.251   8.137
   70POPC   C4A 4566  15.068  21.206   7.796
   70POPC   C1B 4567  15.139  21.704   8.739
   70POPC   C2B 4568  15.345  21.773   8.317
   70POPC   C3B 4569  15.160  21.708   7.906
   70POPC   C4B 4570  14.890  21.879   7.573
   71POPC   NC3 4571  39.366  18.184   9.491
   71POPC   PO4 4572  38.851  18.514   9.663
   71POPC   GL1 4573  39.034  18.522   9.218
   71POPC   GL2 4574  39.005  18.197   9.155
   71POPC   C1A 4575  39.334  18.434   8.841
   71POPC   D2A 4576  39.539  18.081   8.589
   71POPC   C3A 4577  39.471  18.116   8.124
   71POPC   C4A 4578  39.390  18.517   7.923
   71POPC   C1B 4579  39.084  17.988   8.797
   71POPC   C2B 4580  39.071  18.202   8.427
   71POPC   C3B 4581  38.951  18.113   8.046
   71POPC   C4B 4582  38.974  18.319   7.697
   72POPC   NC3 4583  15.582  25.121   9.846
   72POPC   PO4 4584  16.160  24.960   9.515
   72POPC   GL1 4585  16.078  25.366   9.248
   72POPC   GL2 4586  15.721  25.430   9.218
   72POPC   C1A 4587  15.988  25.525   8.786
   72POPC   D2A 4588  15.882  25.405   8.352
   72POPC   C3A 4589  15.995  25.480   7.917
   72POPC   C4A 4590  15.990  25.026   7.835
   72POPC   C1B 4591  15.689  25.121   8.839
   72POPC   C2B 4592  15.511  25.029   8.430
   72POPC   C3B 4593  15.474  25.189   8.021
   72POPC   C4B 4594  15.593  25.298   7.612
   73POPC   NC3 4595  44.061  41.982   9.568
   73POPC   PO4 4596  43.716  42.430   9.303
   73POPC   GL1 4597  44.027  42.188   9.104
   73POPC   GL2 4598  44.381  42.145   9.188
   73POPC   C1A 4599  43.995  42.128   8.701
   73POPC   D2A 4600  43.706  42.293   8.428
   73POPC   C3A 4601  43.740  41.991   8.155
   73POPC   C4A 4602  43.704  42.005   7.728
   73POPC   C1B 4603  44.409  42.431   8.798
   73POPC   C2B 4604  44.279  42.392   8.340
   73POPC   C3B 4605  44.018  42.382   7.965
   73POPC   C4B 4606  44.108  42.357   7.534
   74POPC   NC3 4607  11.662  13.771   9.404
   74POPC   PO4 4608  11.315  13.223   9.507
   74POPC   GL1 4609  11.456  13.380   9.160
   74POPC   GL2 4610  11.143  13.526   9.059
   74POPC   C1A 4611  11.562  13.511   8.749
   74POPC   D2A 4612  11.379  13.464   8.323
   74POPC   C3A 4613  11.590  13.445   7.913
   74POPC   C4A 4614  11.421  13.535   7.495
   74POPC   C1B 4615  11.129  13.794   8.723
   74POPC   C2B 4616  11.233  13.940   8.343
   74POPC   C3B 4617  11.237  13.825   7.912
   74POPC   C4B 4618  11.291  14.061   7.557
   75POPC   NC3 4619  27.260  39.286   9.499
   75POPC   PO4 4620  26.570  39.429   9.466
   75POPC   GL1 4621  26.714  39.150   9.191
   75POPC   GL2 4622  26.414  39.148   9.027
   75POPC   C1A 4623  26.881  39.240   8.791
   75POPC   D2A 4624  26.853  39.392   8.363
   75POPC   C3A 4625  26.818  39.000   8.110
   75POPC   C4A 4626  26.580  38.991   7.740
   75POPC   C1B 4627  26.422  39.514   8.778
   75POPC   C2B 4628  26.502  39.772   8.396
   75POPC   C3B 4629  26.467  39.627   7.985
   75POPC   C4B 4630  26.452  39.473   7.569
   76POPC   NC3 4631  31.740  30.440   9.537
   76POPC   PO4 4632  31.349  30.980   9.718
   76POPC   GL1 4633  31.366  30.768   9.317
   76POPC   GL2 4634  31.525  30.494   9.089
   76POPC   C1A 4635  31.356  30.951   8.912
   76POPC   D2A 4636  31.436  30.974   8.469
   76POPC   C3A 4637  31.126  30.908   8.150
   76POPC   C4A 4638  31.325  30.863   7.765
   76POPC   C1B 4639  31.641  30.312   8.688
   76POPC   C2B 4640  31.757  30.519   8.299
   76POPC   C3B 4641  31.648  30.429   7.835
   76POPC   C4B 4642  31.791  30.352   7.365
   77POPC   NC3 4643  37.746  21.659   9.462
   77POPC   PO4 4644  37.291  22.251   9.500
   77POPC   GL1 4645  37.483  22.117   9.156
   77POPC   GL2 4646  37.373  21.797   9.116
   77POPC   C1A 4647  37.688  22.197   8.772
   77POPC   D2A 4648  38.025  22.036   8.524
   77POPC   C3A 4649  37.960  22.051   8.083
   77POPC   C4A 4650  38.043  22.345   7.714
   77POPC   C1B 4651  37.605  21.674   8.779
   77POPC   C2B 4652  37.528  21.861   8.389
   77POPC   C3B 4653  37.265  21.718   8.073
   77POPC   C4B 4654  37.446  21.530   7.739
   78POPC   NC3 4655  35.033   5.581   9.589
   78POPC   PO4 4656  34.950   6.204   9.539
   78POPC   GL1 4657  35.013   5.924   9.181
   78POPC   GL2 4658  35.327   5.720   9.199
   78POPC   C1A 4659  35.189   5.953   8.756
   78POPC   D2A 4660  35.195   6.060   8.323
   78POPC   C3A 4661  35.598   6.017   8.108
   78POPC   C4A 4662  35.743   5.698   7.830
   78POPC   C1B 4663  35.109   5.466   8.905
   78POPC   C2B 4664  35.072   5.543   8.452
   78POPC   C3B 4665  35.254   5.629   8.027
   78POPC   C4B 4666  35.119   5.682   7.604
   79POPC   NC3 4667   4.767  17.813   9.640
   79POPC   PO4 4668   5.132  18.406   9.541
   79POPC   GL1 4669   5.136  18.212   9.157
   79POPC   GL2 4670   4.806  18.178   9.165
   79POPC   C1A 4671   5.096  18.281   8.733
   79POPC   D2A 4672   4.931  18.207   8.361
   79POPC   C3A 4673   5.138  18.295   7.977
   79POPC   C4A 4674   5.114  18.650   7.747
   79POPC   C1B 4675   4.590  18.338   8.793
   79POPC   C2B 4676   4.423  18.397   8.375
   79POPC   C3B 4677   4.659  18.474   8.002
   79POPC   C4B 4678   4.753  18.296   7.586
   80POPC   NC3 4679  37.985  30.745   9.823
   80POPC   PO4 4680  38.546  30.923   9.472
   80POPC   GL1 4681  38.502  30.778   9.043
   80POPC   GL2 4682  38.147  30.537   8.964
   80POPC   C1A 4683  38.396  30.870   8.660
   80POPC   D2A 4684  38.347  30.531   8.454
   80POPC   C3A 4685  38.249  30.622   8.041
   80POPC   C4A 4686  38.325  30.578   7.617
   80POPC   C1B 4687  38.482  30.278   8.930
   80POPC   C2B 4688  38.572  30.089   8.567
   80POPC   C3B 4689  38.491  30.178   8.128
   80POPC   C4B 4690  38.573  30.159   7.718
   81POPC   NC3 4691  32.745  39.356   9.502
   81POPC   PO4 4692  33.006  38.744   9.538
   81POPC   GL1 4693  32.952  39.018   9.181
   81POPC   GL2 4694  33.153  39.239   9.143
   81POPC   C1A 4695  32.813  39.316   8.807
   81POPC   D2A 4696  32.850  39.082   8.454
   81POPC   C3A 4697  32.994  39.222   8.056
   81POPC   C4A 4698  33.089  39.524   7.706
   81POPC   C1B 4699  33.276  39.108   8.775
   81POPC   C2B 4700  33.352  39.056   8.390
   81POPC   C3B 4701  33.442  38.946   8.057
   81POPC   C4B 4702  33.386  39.124   7.719
   82POPC   NC3 4703  21.950  37.606   9.714
   82POPC   PO4 4704  22.449  37.468   9.357
   82POPC   GL1 4705  22.181  37.741   9.202
   82POPC   GL2 4706  21.952  37.512   9.129
   82POPC   C1A 4707  22.233  37.812   8.760
   82POPC   D2A 4708  22.381  37.694   8.349
   82POPC   C3A 4709  22.201  37.751   7.912
   82POPC   C4A 4710  22.356  37.879   7.498
   82POPC   C1B 4711  21.952  37.267   8.751
   82POPC   C2B 4712  22.084  37.226   8.338
   82POPC   C3B 4713  22.401  37.273   8.062
   82POPC   C4B 4714  22.450  37.392   7.654
   83POPC   NC3 4715   8.386  27.028   9.459
   83POPC   PO4 4716   8.363  26.323   9.359
   83POPC   GL1 4717   8.189  26.603   9.073
   83POPC   GL2 4718   8.033  26.972   9.109
   83POPC   C1A 4719   8.338  26.490   8.676
   83POPC   D2A 4720   8.571  26.654   8.364
   83POPC   C3A 4721   8.388  26.543   7.983
   83POPC   C4A 4722   8.269  26.793   7.637
   83POPC   C1B 4723   8.044  26.899   8.675
   83POPC   C2B 4724   8.055  26.797   8.266
   83POPC   C3B 4725   7.917  27.022   7.930
   83POPC   C4B 4726   7.881  27.032   7.413
   84POPC   NC3 4727  37.297  16.483   9.512
   84POPC   PO4 4728  37.827  16.835   9.800
   84POPC   GL1 4729  37.824  16.648   9.306
   84POPC   GL2 4730  37.519  16.580   9.071
   84POPC   C1A 4731  37.885  16.833   8.835
   84POPC   D2A 4732  37.713  17.002   8.393
   84POPC   C3A 4733  37.788  16.710   8.019
   84POPC   C4A 4734  38.015  16.632   7.628
   84POPC   C1B 4735  37.349  16.834   8.739
   84POPC   C2B 4736  37.179  16.769   8.319
   84POPC   C3B 4737  37.321  16.890   7.917
   84POPC   C4B 4738  37.465  16.725   7.532
   85POPC   NC3 4739  40.185  29.453   9.377
   85POPC   PO4 4740  39.838  28.877   9.428
   85POPC   GL1 4741  39.854  29.032   9.079
   85POPC   GL2 4742  40.163  29.051   9.039
   85POPC   C1A 4743  39.759  29.073   8.675
   85POPC   D2A 4744  39.802  29.368   8.359
   85POPC   C3A 4745  39.857  29.202   7.955
   85POPC   C4A 4746  39.643  28.906   7.719
   85POPC   C1B 4747  40.242  29.261   8.682
   85POPC   C2B 4748  40.163  28.981   8.353
   85POPC   C3B 4749  40.354  29.029   7.975
   85POPC   C4B 4750  40.276  29.462   7.812
   86POPC   NC3 4751  21.327  33.138   9.467
   86POPC   PO4 4752  21.956  32.842   9.433
   86POPC   GL1 4753  21.550  32.814   9.124
   86POPC   GL2 4754  21.178  32.994   9.028
   86POPC   C1A 4755  21.443  32.802   8.677
   86POPC   D2A 4756  21.477  33.101   8.370
   86POPC   C3A 4757  21.309  32.977   8.004
   86POPC   C4A 4758  21.341  32.663   7.648
   86POPC   C1B 4759  21.159  33.323   8.746
   86POPC   C2B 4760  20.978  33.241   8.361
   86POPC   C3B 4761  20.988  33.418   7.993
   86POPC   C4B 4762  21.243  33.489   7.646
   87POPC   NC3 4763  31.638  31.428   9.656
   87POPC   PO4 4764  31.131  31.695   9.280
   87POPC   GL1 4765  31.540  31.510   9.167
   87POPC   GL2 4766  31.618  31.725   8.905
   87POPC   C1A 4767  31.756  31.267   8.809
   87POPC   D2A 4768  31.677  31.457   8.385
   87POPC   C3A 4769  31.496  31.298   8.007
   87POPC   C4A 4770  31.712  31.272   7.636
   87POPC   C1B 4771  31.286  31.435   8.724
   87POPC   C2B 4772  31.136  31.414   8.352
   87POPC   C3B 4773  31.290  31.746   8.122
   87POPC   C4B 4774  31.173  31.698   7.745
   88POPC   NC3 4775  28.709  31.925   9.536
   88POPC   PO4 4776  29.359  32.202   9.470
   88POPC   GL1 4777  28.970  32.299   9.207
   88POPC   GL2 4778  28.758  32.610   9.153
   88POPC   C1A 4779  29.038  32.337   8.778
   88POPC   D2A 4780  29.326  32.116   8.532
   88POPC   C3A 4781  29.260  32.241   8.122
   88POPC   C4A 4782  29.127  32.091   7.746
   88POPC   C1B 4783  28.783  32.780   8.714
   88POPC   C2B 4784  28.976  32.701   8.302
   88POPC   C3B 4785  28.811  32.452   7.945
   88POPC   C4B 4786  28.815  32.368   7.463
   89POPC   NC3 4787  26.340  11.187   9.517
   89POPC   PO4 4788  25.952  11.718   9.541
   89POPC   GL1 4789  26.176  11.561   9.188
   89POPC   GL2 4790  25.983  11.818   9.033
   89POPC   C1A 4791  26.186  11.183   8.878
   89POPC   D2A 4792  25.954  11.104   8.493
   89POPC   C3A 4793  26.058  11.172   8.055
   89POPC   C4A 4794  25.904  11.190   7.636
   89POPC   C1B 4795  26.186  11.642   8.684
   89POPC   C2B 4796  26.274  11.565   8.304
   89POPC   C3B 4797  26.035  11.672   7.980
   89POPC   C4B 4798  26.024  11.685   7.593
   90POPC   NC3 4799  27.962  19.131   9.716
   90POPC   PO4 4800  27.349  18.932   9.817
   90POPC   GL1 4801  27.517  18.918   9.332
   90POPC   GL2 4802  27.858  18.784   9.326
   90POPC   C1A 4803  27.396  19.029   8.857
   90POPC   D2A 4804  27.596  19.247   8.494
   90POPC   C3A 4805  27.454  19.094   8.089
   90POPC   C4A 4806  27.383  19.148   7.649
   90POPC   C1B 4807  27.845  18.816   8.883
   90POPC   C2B 4808  27.738  18.759   8.433
   90POPC   C3B 4809  27.925  18.886   8.046
   90POPC   C4B 4810  27.826  18.892   7.617
   91POPC   NC3 4811  28.713   5.266   9.557
   91POPC   PO4 4812  28.102   5.174   9.487
   91POPC   GL1 4813  28.353   4.961   9.190
   91POPC   GL2 4814  28.704   4.853   9.241
   91POPC   C1A 4815  28.278   4.781   8.819
   91POPC   D2A 4816  28.085   4.851   8.414
   91POPC   C3A 4817  28.081   5.275   8.284
   91POPC   C4A 4818  28.171   5.224   7.872
   91POPC   C1B 4819  28.702   5.090   8.814
   91POPC   C2B 4820  28.602   5.163   8.336
   91POPC   C3B 4821  28.677   5.031   7.879
   91POPC   C4B 4822  28.829   5.086   7.426
   92POPC   NC3 4823  13.934  18.676   9.547
   92POPC   PO4 4824  13.407  19.135   9.472
   92POPC   GL1 4825  13.476  18.944   9.097
   92POPC   GL2 4826  13.816  18.917   9.096
   92POPC   C1A 4827  13.571  19.072   8.653
   92POPC   D2A 4828  13.391  19.252   8.267
   92POPC   C3A 4829  13.557  19.030   7.922
   92POPC   C4A 4830  13.395  18.807   7.563
   92POPC   C1B 4831  14.063  18.820   8.715
   92POPC   C2B 4832  13.952  18.848   8.325
   92POPC   C3B 4833  14.089  18.929   7.938
   92POPC   C4B 4834  13.921  18.849   7.539
   93POPC   NC3 4835   6.350  31.427   9.465
   93POPC   PO4 4836   7.109  31.362   9.568
   93POPC   GL1 4837   6.854  31.400   9.192
   93POPC   GL2 4838   6.685  31.085   9.197
   93POPC   C1A 4839   6.667  31.498   8.769
   93POPC   D2A 4840   6.846  31.630   8.349
   93POPC   C3A 4841   6.745  31.582   7.945
   93POPC   C4A 4842   6.379  31.619   7.743
   93POPC   C1B 4843   6.480  30.972   8.817
   93POPC   C2B 4844   6.622  31.102   8.431
   93POPC   C3B 4845   6.647  31.097   8.011
   93POPC   C4B 4846   6.886  31.181   7.651
   94POPC   NC3 4847   9.815  26.350   9.335
   94POPC   PO4 4848   9.842  27.055   9.535
   94POPC   GL1 4849   9.922  26.840   9.170
   94POPC   GL2 4850   9.567  26.768   9.146
   94POPC   C1A 4851   9.993  26.792   8.716
   94POPC   D2A 4852  10.109  26.986   8.309
   94POPC   C3A 4853   9.970  26.737   7.944
   94POPC   C4A 4854   9.993  26.762   7.505
   94POPC   C1B 4855   9.433  26.593   8.766
   94POPC   C2B 4856   9.604  26.624   8.366
   94POPC   C3B 4857   9.518  26.927   8.060
   94POPC   C4B 4858   9.429  26.761   7.684
   95POPC   NC3 4859   2.955  16.073   9.706
   95POPC   PO4 4860   2.624  15.709   9.332
   95POPC   GL1 4861   2.652  16.065   9.086
   95POPC   GL2 4862   3.004  16.088   9.152
   95POPC   C1A 4863   2.535  15.962   8.672
   95POPC   D2A 4864   2.665  15.580   8.438
   95POPC   C3A 4865   2.563  15.825   8.078
   95POPC   C4A 4866   2.476  16.076   7.738
   95POPC   C1B 4867   3.012  15.835   8.757
   95POPC   C2B 4868   3.015  15.923   8.304
   95POPC   C3B 4869   3.006  15.963   7.824
   95POPC   C4B 4870   3.061  15.743   7.434
   96POPC   NC3 4871   1.672  22.964   9.726
   96POPC   PO4 4872   0.970  22.794   9.628
   96POPC   GL1 4873   1.105  22.835   9.212
   96POPC   GL2 4874   1.028  22.521   9.163
   96POPC   C1A 4875   1.015  23.045   8.815
   96POPC   D2A 4876   1.281  23.143   8.456
   96POPC   C3A 4877   1.103  23.073   8.064
   96POPC   C4A 4878   1.002  22.863   7.727
   96POPC   C1B 4879   1.278  22.620   8.768
   96POPC   C2B 4880   1.358  22.660   8.331
   96POPC   C3B 4881   1.595  22.921   8.058
   96POPC   C4B 4882   1.468  23.152   7.692
   97POPC   NC3 4883  20.919  14.652   9.472
   97POPC   PO4 4884  20.450  14.139   9.525
   97POPC   GL1 4885  20.719  14.256   9.180
   97POPC   GL2 4886  20.511  14.524   9.165
   97POPC   C1A 4887  20.659  14.380   8.723
   97POPC   D2A 4888  20.500  14.393   8.320
   97POPC   C3A 4889  20.702  14.562   7.933
   97POPC   C4A 4890  20.568  14.330   7.549
   97POPC   C1B 4891  20.213  14.663   8.835
   97POPC   C2B 4892  20.066  14.680   8.400
   97POPC   C3B 4893  20.289  14.836   8.065
   97POPC   C4B 4894  20.386  14.815   7.619
   98POPC   NC3 4895  33.156  19.287   9.449
   98POPC   PO4 4896  32.809  18.665   9.513
   98POPC   GL1 4897  32.958  18.724   9.093
   98POPC   GL2 4898  33.029  19.099   9.010
   98POPC   C1A 4899  33.120  18.741   8.673
   98POPC   D2A 4900  33.124  19.129   8.481
   98POPC   C3A 4901  32.872  19.035   8.141
   98POPC   C4A 4902  33.048  18.901   7.769
   98POPC   C1B 4903  33.062  19.539   8.842
   98POPC   C2B 4904  33.171  19.663   8.438
   98POPC   C3B 4905  33.177  19.441   8.059
   98POPC   C4B 4906  32.958  19.393   7.700
   99POPC   NC3 4907  14.997  44.329   9.467
   99POPC   PO4 4908  15.178  44.970   9.470
   99POPC   GL1 4909  15.353  44.639   9.221
   99POPC   GL2 4910  15.484  44.263   9.293
   99POPC   C1A 4911  15.073  44.651   8.869
   99POPC   D2A 4912  15.034  44.940   8.534
   99POPC   C3A 4913  14.994  44.747   8.132
   99POPC   C4A 4914  14.951  44.950   7.751
   99POPC   C1B 4915  15.492  44.361   8.831
   99POPC   C2B 4916  15.336  44.497   8.446
   99POPC   C3B 4917  15.392  44.407   8.010
   99POPC   C4B 4918  15.465  44.754   7.724
  100POPC   NC3 4919  12.474  33.105   9.487
  100POPC   PO4 4920  13.135  32.871   9.434
  100POPC   GL1 4921  12.861  32.850   9.136
  100POPC   GL2 4922  12.880  33.198   9.071
  100POPC   C1A 4923  12.702  32.876   8.715
  100POPC   D2A 4924  12.422  32.782   8.395
  100POPC   C3A 4925  12.590  32.815   7.977
  100POPC   C4A 4926  12.610  32.977   7.564
  100POPC   C1B 4927  13.069  33.239   8.673
  100POPC   C2B 4928  12.896  33.093   8.286
  100POPC   C3B 4929  12.804  33.320   7.912
  100POPC   C4B 4930  13.020  33.649   7.702
  101POPC   NC3 4931  11.270   0.814   9.520
  101POPC   PO4 4932  11.508   0.139   9.697
  101POPC   GL1 4933  11.251   0.248   9.282
  101POPC   GL2 4934  11.108   0.537   9.141
  101POPC   C1A 4935  11.391   0.289   8.818
  101POPC   D2A 4936  11.448   0.129   8.400
  101POPC   C3A 4937  11.564   0.419   8.053
  101POPC   C4A 4938  11.374   0.407   7.664
  101POPC   C1B 4939  11.068   0.706   8.742
  101POPC   C2B 4940  11.158   0.548   8.335
  101POPC   C3B 4941  10.968   0.606   7.928
  101POPC   C4B 4942  11.027   0.708   7.450
  102POPC   NC3 4943  43.400  10.342   9.560
  102POPC   PO4 4944  42.700  10.166   9.546
  102POPC   GL1 4945  42.866  10.373   9.176
  102POPC   GL2 4946  43.217  10.428   9.092
  102POPC   C1A 4947  42.830  10.566   8.784
  102POPC   D2A 4948  42.968  10.679   8.379
  102POPC   C3A 4949  42.874  10.444   8.015
  102POPC   C4A 4950  43.151  10.270   7.744
  102POPC   C1B 4951  43.321  10.716   8.786
  102POPC   C2B 4952  43.489  10.652   8.394
  102POPC   C3B 4953  43.351  10.705   7.992
  102POPC   C4B 4954  43.482  10.724   7.576
  103POPC   NC3 4955  16.093  21.120   9.834
  103POPC   PO4 4956  16.128  20.488   9.615
  103POPC   GL1 4957  15.870  20.656   9.269
  103POPC   GL2 4958  16.135  20.561   9.102
  103POPC   C1A 4959  15.731  20.643   8.788
  103POPC   D2A 4960  15.513  20.900   8.466
  103POPC   C3A 4961  15.554  20.798   8.017
  103POPC   C4A 4962  15.844  20.717   7.673
  103POPC   C1B 4963  16.260  20.736   8.753
  103POPC   C2B 4964  16.198  20.528   8.406
  103POPC   C3B 4965  16.202  20.650   8.019
  103POPC   C4B 4966  16.366  20.513   7.675
  104POPC   NC3 4967  21.052  26.951   9.499
  104POPC   PO4 4968  20.441  26.692   9.636
  104POPC   GL1 4969  20.586  26.816   9.246
  104POPC   GL2 4970  20.437  26.525   9.120
  104POPC   C1A 4971  20.776  26.914   8.838
  104POPC   D2A 4972  20.640  27.020   8.418
  104POPC   C3A 4973  20.836  26.931   8.034
  104POPC   C4A 4974  20.675  26.894   7.640
  104POPC   C1B 4975  20.334  26.691   8.739
  104POPC   C2B 4976  20.171  26.821   8.391
  104POPC   C3B 4977  20.320  26.777   7.989
  104POPC   C4B 4978  20.212  26.569   7.604
  105POPC   NC3 4979   2.065  34.101   9.625
  105POPC   PO4 4980   1.691  33.540   9.632
  105POPC   GL1 4981   1.841  33.799   9.249
  105POPC   GL2 4982   2.194  33.759   9.196
  105POPC   C1A 4983   1.921  33.943   8.795
  105POPC   D2A 4984   2.204  34.024   8.429
  105POPC   C3A 4985   2.020  33.893   8.027
  105POPC   C4A 4986   1.748  34.133   7.771
  105POPC   C1B 4987   2.277  33.571   8.778
  105POPC   C2B 4988   2.109  33.513   8.363
  105POPC   C3B 4989   2.194  33.426   7.935
  105POPC   C4B 4990   2.425  33.611   7.611
  106POPC   NC3 4991   1.926  23.921   9.586
  106POPC   PO4 4992   2.293  23.432   9.632
  106POPC   GL1 4993   2.132  23.730   9.189
  106POPC   GL2 4994   1.780  23.665   9.091
  106POPC   C1A 4995   2.108  23.710   8.691
  106POPC   D2A 4996   2.279  23.772   8.234
  106POPC   C3A 4997   2.230  23.478   7.894
  106POPC   C4A 4998   2.044  23.553   7.464
  106POPC   C1B 4999   1.620  23.425   8.739
  106POPC   C2B 5000   1.732  23.365   8.301
  106POPC   C3B 5001   1.734  23.573   7.888
  106POPC   C4B 5002   1.549  23.616   7.473
  107POPC   NC3 5003  34.786  30.477   9.558
  107POPC   PO4 5004  34.393  31.070   9.550
  107POPC   GL1 5005  34.514  30.767   9.228
  107POPC   GL2 5006  34.829  30.860   9.077
  107POPC   C1A 5007  34.658  30.443   8.878
  107POPC   D2A 5008  34.908  30.528   8.495
  107POPC   C3A 5009  34.692  30.450   8.105
  107POPC   C4A 5010  34.307  30.582   7.874
  107POPC   C1B 5011  34.498  31.005   8.785
  107POPC   C2B 5012  34.591  30.997   8.371
  107POPC   C3B 5013  34.747  30.942   7.974
  107POPC   C4B 5014  34.620  30.980   7.554
  108POPC   NC3 5015  23.311   7.127   9.574
  108POPC   PO4 5016  23.888   7.528   9.383
  108POPC   GL1 5017  23.522   7.399   9.143
  108POPC   GL2 5018  23.623   7.061   9.175
  108POPC   C1A 5019  23.477   7.531   8.698
  108POPC   D2A 5020  23.824   7.549   8.387
  108POPC   C3A 5021  23.650   7.523   7.963
  108POPC   C4A 5022  23.951   7.568   7.599
  108POPC   C1B 5023  23.783   7.125   8.764
  108POPC   C2B 5024  23.577   7.097   8.380
  108POPC   C3B 5025  23.691   7.007   7.978
  108POPC   C4B 5026  23.630   7.179   7.577
  109POPC   NC3 5027  14.159  36.180   9.494
  109POPC   PO4 5028  14.721  35.824   9.697
  109POPC   GL1 5029  14.661  35.937   9.232
  109POPC   GL2 5030  14.484  36.210   9.123
  109POPC   C1A 5031  14.537  35.911   8.753
  109POPC   D2A 5032  14.622  35.724   8.360
  109POPC   C3A 5033  14.455  35.942   8.036
  109POPC   C4A 5034  14.066  35.944   7.843
  109POPC   C1B 5035  14.225  36.321   8.773
  109POPC   C2B 5036  14.078  36.219   8.374
  109POPC   C3B 5037  14.214  36.398   8.023
  109POPC   C4B 5038  14.467  36.382   7.687
  110POPC   NC3 5039  16.687  14.857   9.497
  110POPC   PO4 5040  16.735  15.585   9.704
  110POPC   GL1 5041  16.765  15.480   9.219
  110POPC   GL2 5042  16.775  15.119   9.074
  110POPC   C1A 5043  16.629  15.498   8.788
  110POPC   D2A 5044  16.908  15.325   8.459
  110POPC   C3A 5045  16.809  15.516   8.055
  110POPC   C4A 5046  16.785  15.337   7.647
  110POPC   C1B 5047  16.431  15.008   8.778
  110POPC   C2B 5048  16.457  15.131   8.368
  110POPC   C3B 5049  16.721  14.952   8.070
  110POPC   C4B 5050  16.622  14.854   7.604
  111POPC   NC3 5051   4.549   5.890   9.887
  111POPC   PO4 5052   4.340   5.507   9.481
  111POPC   GL1 5053   4.437   5.702   9.102
  111POPC   GL2 5054   4.487   6.043   9.204
  111POPC   C1A 5055   4.184   5.886   8.772
  111POPC   D2A 5056   4.031   5.748   8.380
  111POPC   C3A 5057   4.100   5.986   8.035
  111POPC   C4A 5058   4.122   6.035   7.601
  111POPC   C1B 5059   4.630   6.126   8.771
  111POPC   C2B 5060   4.511   5.990   8.348
  111POPC   C3B 5061   4.564   6.130   7.916
  111POPC   C4B 5062   4.550   6.246   7.466
  112POPC   NC3 5063   1.345  27.101   9.355
  112POPC   PO4 5064   0.981  26.512   9.501
  112POPC   GL1 5065   1.026  26.731   9.128
  112POPC   GL2 5066   1.383  26.686   9.016
  112POPC   C1A 5067   1.008  26.858   8.710
  112POPC   D2A 5068   1.354  26.913   8.448
  112POPC   C3A 5069   1.222  26.810   8.069
  112POPC   C4A 5070   1.280  26.965   7.714
  112POPC   C1B 5071   1.594  26.499   8.643
  112POPC   C2B 5072   1.710  26.530   8.216
  112POPC   C3B 5073   1.541  26.507   7.794
  112POPC   C4B 5074   1.360  26.554   7.365
  113POPC   NC3 5075  10.076   4.669   9.471
  113POPC   PO4 5076   9.476   5.035   9.491
  113POPC   GL1 5077   9.559   5.270   9.145
  113POPC   GL2 5078   9.887   5.258   9.129
  113POPC   C1A 5079   9.498   5.205   8.734
  113POPC   D2A 5080   9.488   5.434   8.389
  113POPC   C3A 5081   9.459   5.214   8.050
  113POPC   C4A 5082   9.616   5.200   7.661
  113POPC   C1B 5083  10.032   5.085   8.791
  113POPC   C2B 5084   9.948   5.250   8.412
  113POPC   C3B 5085  10.012   5.150   8.016
  113POPC   C4B 5086   9.980   4.830   7.748
  114POPC   NC3 5087  43.799   7.926   9.539
  114POPC   PO4 5088  44.122   7.364   9.505
  114POPC   GL1 5089  43.913   7.509   9.195
  114POPC   GL2 5090  44.059   7.780   9.115
  114POPC   C1A 5091  43.765   7.329   8.830
  114POPC   D2A 5092  43.699   7.518   8.438
  114POPC   C3A 5093  43.902   7.365   8.092
  114POPC   C4A 5094  43.734   7.266   7.684
  114POPC   C1B 5095  44.194   7.611   8.741
  114POPC   C2B 5096  44.254   7.754   8.333
  114POPC   C3B 5097  44.356   7.573   7.960
  114POPC   C4B 5098  44.044   7.661   7.687
  115POPC   NC3 5099   7.126   0.012   9.347
  115POPC   PO4 5100   7.370   0.518   9.706
  115POPC   GL1 5101   7.372   0.435   9.236
  115POPC   GL2 5102   7.588   0.138   9.131
  115POPC   C1A 5103   7.289   0.294   8.766
  115POPC   D2A 5104   7.223   0.430   8.336
  115POPC   C3A 5105   7.340   0.233   7.988
  115POPC   C4A 5106   7.248   0.512   7.680
  115POPC   C1B 5107   7.762   0.531   8.928
  115POPC   C2B 5108   7.736   0.550   8.477
  115POPC   C3B 5109   7.617   0.678   8.066
  115POPC   C4B 5110   7.784   0.608   7.654
  116POPC   NC3 5111  25.767  26.632   9.473
  116POPC   PO4 5112  26.341  27.087   9.479
  116POPC   GL1 5113  26.147  26.968   9.106
  116POPC   GL2 5114  26.158  26.608   9.102
  116POPC   C1A 5115  26.164  26.873   8.640
  116POPC   D2A 5116  26.303  26.811   8.213
  116POPC   C3A 5117  26.182  27.083   7.851
  116POPC   C4A 5118  25.858  26.965   7.532
  116POPC   C1B 5119  25.781  26.598   8.815
  116POPC   C2B 5120  25.894  26.497   8.370
  116POPC   C3B 5121  25.891  26.621   7.921
  116POPC   C4B 5122  25.947  26.472   7.459
  117POPC   NC3 5123  13.989   8.267   9.528
  117POPC   PO4 5124  13.317   8.565   9.640
  117POPC   GL1 5125  13.527   8.391   9.231
  117POPC   GL2 5126  13.881   8.417   9.070
  117POPC   C1A 5127  13.517   8.265   8.766
  117POPC   D2A 5128  13.297   8.134   8.412
  117POPC   C3A 5129  13.489   8.140   8.000
  117POPC   C4A 5130  13.445   8.244   7.574
  117POPC   C1B 5131  14.023   8.216   8.670
  117POPC   C2B 5132  13.999   8.296   8.199
  117POPC   C3B 5133  13.841   8.510   7.812
  117POPC   C4B 5134  13.916   8.372   7.363
  118POPC   NC3 5135  39.397  22.045   9.473
  118POPC   PO4 5136  38.879  22.526   9.538
  118POPC   GL1 5137  38.971  22.370   9.138
  118POPC   GL2 5138  39.321  22.423   9.152
  118POPC   C1A 5139  39.126  22.219   8.732
  118POPC   D2A 5140  38.994  22.251   8.321
  118POPC   C3A 5141  39.085  21.942   8.004
  118POPC   C4A 5142  38.919  21.983   7.585
  118POPC   C1B 5143  39.292  22.692   8.804
  118POPC   C2B 5144  39.111  22.760   8.401
  118POPC   C3B 5145  39.022  22.621   7.973
  118POPC   C4B 5146  39.244  22.358   7.758
  119POPC   NC3 5147  15.709  40.928   9.684
  119POPC   PO4 5148  16.129  40.534   9.397
  119POPC   GL1 5149  15.885  40.755   9.117
  119POPC   GL2 5150  15.754  41.054   9.191
  119POPC   C1A 5151  16.040  40.898   8.751
  119POPC   D2A 5152  16.073  40.675   8.375
  119POPC   C3A 5153  16.231  40.919   8.035
  119POPC   C4A 5154  16.341  40.785   7.649
  119POPC   C1B 5155  15.615  41.183   8.808
  119POPC   C2B 5156  15.701  41.056   8.402
  119POPC   C3B 5157  15.682  41.153   7.997
  119POPC   C4B 5158  15.834  40.901   7.693
  120POPC   NC3 5159   0.334  13.332   9.523
  120POPC   PO4 5160   0.848  13.705   9.429
  120POPC   GL1 5161   0.601  13.515   9.131
  120POPC   GL2 5162   0.307  13.736   9.198
  120POPC   C1A 5163   0.326  13.392   8.797
  120POPC   D2A 5164   0.266  13.573   8.380
  120POPC   C3A 5165   0.533  13.471   8.030
  120POPC   C4A 5166   0.260  13.481   7.693
  120POPC   C1B 5167   0.304  13.905   8.787
  120POPC   C2B 5168   0.278  14.150   8.402
  120POPC   C3B 5169   0.234  13.957   7.987
  120POPC   C4B 5170   0.339  13.936   7.495
  121POPC   NC3 5171   5.154   8.419   9.603
  121POPC   PO4 5172   4.982   7.835   9.385
  121POPC   GL1 5173   5.075   8.149   9.130
  121POPC   GL2 5174   4.808   8.410   9.111
  121POPC   C1A 5175   5.359   8.149   8.768
  121POPC   D2A 5176   5.417   8.245   8.326
  121POPC   C3A 5177   5.156   8.087   7.993
  121POPC   C4A 5178   5.183   8.305   7.603
  121POPC   C1B 5179   4.878   8.322   8.662
  121POPC   C2B 5180   4.860   8.425   8.208
  121POPC   C3B 5181   4.718   8.240   7.802
  121POPC   C4B 5182   4.697   8.391   7.407
  122POPC   NC3 5183  42.617  36.413   9.375
  122POPC   PO4 5184  42.397  37.093   9.453
  122POPC   GL1 5185  42.415  36.973   9.054
  122POPC   GL2 5186  42.711  37.164   8.912
  122POPC   C1A 5187  42.216  36.745   8.738
  122POPC   D2A 5188  41.991  36.537   8.436
  122POPC   C3A 5189  42.118  36.644   8.030
  122POPC   C4A 5190  42.044  36.714   7.602
  122POPC   C1B 5191  42.427  37.258   8.630
  122POPC   C2B 5192  42.388  37.517   8.318
  122POPC   C3B 5193  42.193  37.430   7.975
  122POPC   C4B 5194  42.261  37.224   7.585
  123POPC   NC3 5195  38.775  43.641   9.407
  123POPC   PO4 5196  38.394  44.161   9.594
  123POPC   GL1 5197  38.425  43.980   9.199
  123POPC   GL2 5198  38.293  43.653   9.245
  123POPC   C1A 5199  38.741  43.948   8.845
  123POPC   D2A 5200  38.590  44.032   8.449
  123POPC   C3A 5201  38.768  43.895   8.070
  123POPC   C4A 5202  38.481  44.005   7.733
  123POPC   C1B 5203  38.271  43.742   8.782
  123POPC   C2B 5204  38.280  43.644   8.353
  123POPC   C3B 5205  38.110  43.723   7.958
  123POPC   C4B 5206  38.031  43.550   7.546
  124POPC   NC3 5207   9.887   6.365   9.461
  124POPC   PO4 5208   9.962   7.015   9.513
  124POPC   GL1 5209   9.749   6.765   9.140
  124POPC   GL2 5210   9.508   6.425   9.121
  124POPC   C1A 5211   9.834   6.710   8.679
  124POPC   D2A 5212   9.842   6.816   8.220
  124POPC   C3A 5213   9.832   6.557   7.824
  124POPC   C4A 5214  10.156   6.409   7.521
  124POPC   C1B 5215   9.340   6.728   8.819
  124POPC   C2B 5216   9.369   6.849   8.436
  124POPC   C3B 5217   9.386   6.653   8.061
  124POPC   C4B 5218   9.373   6.828   7.714
  125POPC   NC3 5219  20.348   4.560   9.418
  125POPC   PO4 5220  20.563   4.107   9.771
  125POPC   GL1 5221  20.702   4.167   9.317
  125POPC   GL2 5222  20.862   4.503   9.365
  125POPC   C1A 5223  20.737   4.055   8.846
  125POPC   D2A 5224  20.692   3.972   8.358
  125POPC   C3A 5225  20.298   4.033   8.049
  125POPC   C4A 5226  20.317   4.340   7.691
  125POPC   C1B 5227  20.882   4.554   8.899
  125POPC   C2B 5228  20.896   4.513   8.457
  125POPC   C3B 5229  20.623   4.420   8.116
  125POPC   C4B 5230  20.743   4.061   7.807
  126POPC   NC3 5231  34.826  29.617   9.563
  126POPC   PO4 5232  34.411  30.158   9.483
  126POPC   GL1 5233  34.406  29.954   9.083
  126POPC   GL2 5234  34.716  29.788   9.053
  126POPC   C1A 5235  34.453  29.997   8.628
  126POPC   D2A 5236  34.433  29.620   8.341
  126POPC   C3A 5237  34.326  29.722   7.938
  126POPC   C4A 5238  34.511  30.079   7.806
  126POPC   C1B 5239  34.873  29.724   8.626
  126POPC   C2B 5240  34.854  29.940   8.229
  126POPC   C3B 5241  34.851  29.703   7.861
  126POPC   C4B 5242  34.959  29.783   7.430
  127POPC   NC3 5243  39.274   8.030   9.461
  127POPC   PO4 5244  39.687   8.525   9.536
  127POPC   GL1 5245  39.558   8.340   9.136
  127POPC   GL2 5246  39.436   7.992   8.986
  127POPC   C1A 5247  39.328   8.424   8.760
  127POPC   D2A 5248  39.318   8.234   8.368
  127POPC   C3A 5249  39.130   8.478   8.065
  127POPC   C4A 5250  38.987   8.368   7.664
  127POPC   C1B 5251  39.091   7.814   8.777
  127POPC   C2B 5252  38.954   7.673   8.374
  127POPC   C3B 5253  38.981   7.968   8.039
  127POPC   C4B 5254  39.366   8.071   7.872
  128POPC   NC3 5255  11.814   6.305   9.459
  128POPC   PO4 5256  11.943   5.547   9.479
  128POPC   GL1 5257  11.958   5.847   9.126
  128POPC   GL2 5258  11.834   6.170   8.967
  128POPC   C1A 5259  12.054   5.789   8.708
  128POPC   D2A 5260  12.150   5.942   8.321
  128POPC   C3A 5261  12.207   5.669   7.936
  128POPC   C4A 5262  12.126   5.507   7.477
  128POPC   C1B 5263  12.257   6.266   8.739
  128POPC   C2B 5264  12.498   6.317   8.320
  128POPC   C3B 5265  12.332   6.167   7.912
  128POPC   C4B 5266  11.861   6.072   7.920
  129POPC   NC3 5267  34.016  12.134   9.427
  129POPC   PO4 5268  33.398  12.074   9.618
  129POPC   GL1 5269  33.580  11.910   9.179
  129POPC   GL2 5270  33.851  11.662   9.189
  129POPC   C1A 5271  33.918  11.988   8.783
  129POPC   D2A 5272  34.132  12.065   8.344
  129POPC   C3A 5273  33.853  12.203   8.018
  129POPC   C4A 5274  33.464  12.133   7.803
  129POPC   C1B 5275  33.624  11.587   8.748
  129POPC   C2B 5276  33.605  11.739   8.249
  129POPC   C3B 5277  33.743  11.719   7.782
  129POPC   C4B 5278  33.508  11.828   7.369
  130POPC   NC3 5279  16.632   8.794   9.511
  130POPC   PO4 5280  17.144   9.288   9.463
  130POPC   GL1 5281  16.898   9.087   9.125
  130POPC   GL2 5282  16.984   8.731   9.140
  130POPC   C1A 5283  16.548   9.235   8.813
  130POPC   D2A 5284  16.337   9.359   8.399
  130POPC   C3A 5285  16.455   9.145   8.012
  130POPC   C4A 5286  16.609   8.776   7.764
  130POPC   C1B 5287  16.728   8.745   8.759
  130POPC   C2B 5288  16.726   8.881   8.337
  130POPC   C3B 5289  16.963   9.072   7.993
  130POPC   C4B 5290  17.104   8.918   7.613
  131POPC   NC3 5291   9.950  20.099   9.397
  131POPC   PO4 5292   9.423  19.599   9.337
  131POPC   GL1 5293   9.635  19.843   9.030
  131POPC   GL2 5294   9.565  20.210   9.043
  131POPC   C1A 5295   9.849  19.803   8.647
  131POPC   D2A 5296   9.954  19.546   8.293
  131POPC   C3A 5297   9.984  19.784   7.930
  131POPC   C4A 5298   9.692  20.060   7.907
  131POPC   C1B 5299   9.949  20.300   8.761
  131POPC   C2B 5300   9.933  20.197   8.328
  131POPC   C3B 5301  10.122  20.300   7.953
  131POPC   C4B 5302  10.000  20.177   7.528
  132POPC   NC3 5303  42.624  29.474   9.419
  132POPC   PO4 5304  42.349  30.133   9.559
  132POPC   GL1 5305  42.485  29.969   9.196
  132POPC   GL2 5306  42.205  29.737   9.181
  132POPC   C1A 5307  42.399  30.066   8.776
  132POPC   D2A 5308  42.157  30.143   8.381
  132POPC   C3A 5309  42.327  30.109   7.955
  132POPC   C4A 5310  42.713  29.968   7.705
  132POPC   C1B 5311  42.092  29.656   8.758
  132POPC   C2B 5312  42.388  29.656   8.423
  132POPC   C3B 5313  42.393  29.578   7.981
  132POPC   C4B 5314  41.980  29.436   7.844
  133POPC   NC3 5315   7.132   2.594   9.437
  133POPC   PO4 5316   7.654   3.047   9.451
  133POPC   GL1 5317   7.577   2.670   9.171
  133POPC   GL2 5318   7.284   2.670   8.965
  133POPC   C1A 5319   7.676   2.433   8.811
  133POPC   D2A 5320   7.461   2.649   8.447
  133POPC   C3A 5321   7.692   2.693   8.064
  133POPC   C4A 5322   7.621   2.806   7.631
  133POPC   C1B 5323   7.316   3.041   8.796
  133POPC   C2B 5324   7.087   3.207   8.468
  133POPC   C3B 5325   7.123   2.948   8.099
  133POPC   C4B 5326   7.139   3.021   7.631
  134POPC   NC3 5327  39.595  44.207   9.409
  134POPC   PO4 5328  40.124  43.798   9.486
  134POPC   GL1 5329  40.030  43.977   9.104
  134POPC   GL2 5330  40.276  44.201   9.045
  134POPC   C1A 5331  39.917  43.801   8.698
  134POPC   D2A 5332  39.701  43.874   8.309
  134POPC   C3A 5333  39.809  43.645   7.948
  134POPC   C4A 5334  40.012  43.705   7.546
  134POPC   C1B 5335  40.033  44.288   8.661
  134POPC   C2B 5336  39.988  44.317   8.217
  134POPC   C3B 5337  39.874  44.136   7.829
  134POPC   C4B 5338  40.101  44.194   7.451
  135POPC   NC3 5339   5.854  12.169   9.990
  135POPC   PO4 5340   5.659  11.712   9.510
  135POPC   GL1 5341   5.693  11.969   9.134
  135POPC   GL2 5342   6.031  12.126   9.176
  135POPC   C1A 5343   5.498  12.059   8.736
  135POPC   D2A 5344   5.614  12.290   8.341
  135POPC   C3A 5345   5.489  12.141   7.940
  135POPC   C4A 5346   5.604  12.004   7.522
  135POPC   C1B 5347   5.968  12.261   8.761
  135POPC   C2B 5348   6.174  12.398   8.391
  135POPC   C3B 5349   6.030  12.346   7.997
  135POPC   C4B 5350   5.973  11.943   7.872
  136POPC   NC3 5351  33.009   8.908   9.601
  136POPC   PO4 5352  33.425   9.318   9.409
  136POPC   GL1 5353  33.199   9.042   9.124
  136POPC   GL2 5354  32.819   9.020   9.135
  136POPC   C1A 5355  33.140   8.988   8.677
  136POPC   D2A 5356  33.106   8.982   8.253
  136POPC   C3A 5357  33.259   9.176   7.906
  136POPC   C4A 5358  33.378   9.003   7.520
  136POPC   C1B 5359  32.633   9.082   8.716
  136POPC   C2B 5360  32.705   9.281   8.333
  136POPC   C3B 5361  32.711   9.184   7.911
  136POPC   C4B 5362  32.656   8.811   7.612
  137POPC   NC3 5363  22.955   6.212   9.578
  137POPC   PO4 5364  22.486   6.619   9.593
  137POPC   GL1 5365  22.703   6.621   9.193
  137POPC   GL2 5366  22.801   6.353   9.023
  137POPC   C1A 5367  22.785   6.860   8.792
  137POPC   D2A 5368  22.688   6.784   8.362
  137POPC   C3A 5369  22.701   7.092   8.010
  137POPC   C4A 5370  22.754   6.924   7.589
  137POPC   C1B 5371  23.107   6.470   8.720
  137POPC   C2B 5372  23.194   6.694   8.362
  137POPC   C3B 5373  23.023   6.665   7.977
  137POPC   C4B 5374  23.287   6.798   7.658
  138POPC   NC3 5375  25.905  36.578   9.405
  138POPC   PO4 5376  25.836  35.806   9.532
  138POPC   GL1 5377  25.941  35.927   9.125
  138POPC   GL2 5378  26.143  36.225   9.083
  138POPC   C1A 5379  26.175  35.842   8.749
  138POPC   D2A 5380  26.210  36.100   8.361
  138POPC   C3A 5381  25.929  36.005   8.020
  138POPC   C4A 5382  26.091  35.722   7.757
  138POPC   C1B 5383  26.195  36.605   8.815
  138POPC   C2B 5384  25.948  36.562   8.449
  138POPC   C3B 5385  26.124  36.484   8.035
  138POPC   C4B 5386  26.257  36.422   7.598
  139POPC   NC3 5387   9.966  38.805   9.433
  139POPC   PO4 5388   9.464  39.280   9.424
  139POPC   GL1 5389   9.713  39.197   9.055
  139POPC   GL2 5390  10.064  39.194   9.130
  139POPC   C1A 5391   9.725  39.262   8.605
  139POPC   D2A 5392   9.735  39.621   8.328
  139POPC   C3A 5393   9.794  39.549   7.872
  139POPC   C4A 5394   9.571  39.593   7.417
  139POPC   C1B 5395  10.098  38.886   8.808
  139POPC   C2B 5396   9.930  38.830   8.431
  139POPC   C3B 5397   9.745  39.053   8.113
  139POPC   C4B 5398   9.887  39.079   7.734
  140POPC   NC3 5399  10.501   7.154   9.501
  140POPC   PO4 5400  10.764   6.588   9.501
  140POPC   GL1 5401  10.577   6.609   9.121
  140POPC   GL2 5402  10.260   6.681   9.265
  140POPC   C1A 5403  10.269   6.449   8.807
  140POPC   D2A 5404  10.087   6.337   8.394
  140POPC   C3A 5405  10.280   6.568   8.066
  140POPC   C4A 5406  10.587   6.540   7.751
  140POPC   C1B 5407  10.233   6.957   8.899
  140POPC   C2B 5408  10.300   6.918   8.460
  140POPC   C3B 5409  10.229   7.096   8.051
  140POPC   C4B 5410  10.191   6.905   7.680
  141POPC   NC3 5411  43.344   4.804   9.401
  141POPC   PO4 5412  43.031   4.148   9.459
  141POPC   GL1 5413  43.174   4.300   9.092
  141POPC   GL2 5414  43.492   4.414   9.063
  141POPC   C1A 5415  43.063   4.640   8.819
  141POPC   D2A 5416  42.893   4.636   8.403
  141POPC   C3A 5417  43.060   4.463   8.016
  141POPC   C4A 5418  43.212   4.571   7.586
  141POPC   C1B 5419  43.451   4.397   8.612
  141POPC   C2B 5420  43.427   4.189   8.231
  141POPC   C3B 5421  43.595   4.264   7.816
  141POPC   C4B 5422  43.489   4.161   7.377
  142POPC   NC3 5423  35.195  25.810   9.604
  142POPC   PO4 5424  35.401  26.458   9.539
  142POPC   GL1 5425  35.313  26.197   9.177
  142POPC   GL2 5426  35.199  25.833   9.109
  142POPC   C1A 5427  35.405  26.168   8.735
  142POPC   D2A 5428  35.230  26.018   8.357
  142POPC   C3A 5429  35.511  26.046   7.999
  142POPC   C4A 5430  35.690  26.406   7.775
  142POPC   C1B 5431  35.261  25.633   8.734
  142POPC   C2B 5432  35.369  25.505   8.317
  142POPC   C3B 5433  35.203  25.646   7.928
  142POPC   C4B 5434  35.267  25.761   7.528
  143POPC   NC3 5435  35.433  40.365   9.502
  143POPC   PO4 5436  34.976  40.813   9.419
  143POPC   GL1 5437  35.342  40.748   9.135
  143POPC   GL2 5438  35.657  40.852   9.282
  143POPC   C1A 5439  35.321  40.665   8.682
  143POPC   D2A 5440  35.411  40.437   8.313
  143POPC   C3A 5441  35.334  40.786   8.022
  143POPC   C4A 5442  35.119  40.931   7.649
  143POPC   C1B 5443  35.774  40.669   8.882
  143POPC   C2B 5444  35.868  40.728   8.437
  143POPC   C3B 5445  35.813  40.566   8.027
  143POPC   C4B 5446  35.507  40.365   7.798
  144POPC   NC3 5447  38.243  27.254   9.517
  144POPC   PO4 5448  38.716  27.730   9.620
  144POPC   GL1 5449  38.515  27.639   9.214
  144POPC   GL2 5450  38.145  27.704   9.241
  144POPC   C1A 5451  38.662  27.558   8.763
  144POPC   D2A 5452  38.780  27.354   8.364
  144POPC   C3A 5453  38.498  27.468   8.057
  144POPC   C4A 5454  38.415  27.880   7.836
  144POPC   C1B 5455  38.163  27.422   8.872
  144POPC   C2B 5456  38.111  27.403   8.431
  144POPC   C3B 5457  38.018  27.586   8.027
  144POPC   C4B 5458  38.167  27.455   7.598
  145POPC   NC3 5459  22.603  19.967   9.422
  145POPC   PO4 5460  23.286  19.736   9.480
  145POPC   GL1 5461  22.982  19.619   9.156
  145POPC   GL2 5462  22.963  19.946   9.019
  145POPC   C1A 5463  22.780  19.476   8.754
  145POPC   D2A 5464  22.598  19.600   8.334
  145POPC   C3A 5465  22.751  19.396   7.960
  145POPC   C4A 5466  22.940  19.588   7.599
  145POPC   C1B 5467  22.947  19.953   8.565
  145POPC   C2B 5468  22.753  20.192   8.211
  145POPC   C3B 5469  22.809  20.134   7.768
  145POPC   C4B 5470  23.190  20.025   7.562
  146POPC   NC3 5471  36.117  22.074   9.746
  146POPC   PO4 5472  36.489  21.862   9.210
  146POPC   GL1 5473  36.258  22.139   8.971
  146POPC   GL2 5474  36.067  22.348   9.220
  146POPC   C1A 5475  36.064  21.896   8.633
  146POPC   D2A 5476  35.915  21.734   8.256
  146POPC   C3A 5477  36.169  21.974   8.022
  146POPC   C4A 5478  36.117  22.178   7.677
  146POPC   C1B 5479  35.813  22.320   8.807
  146POPC   C2B 5480  35.732  22.205   8.377
  146POPC   C3B 5481  35.727  22.302   7.948
  146POPC   C4B 5482  35.813  22.550   7.551
  147POPC   NC3 5483  24.399  25.439   9.517
  147POPC   PO4 5484  24.822  24.961   9.567
  147POPC   GL1 5485  24.477  25.014   9.214
  147POPC   GL2 5486  24.333  25.357   9.034
  147POPC   C1A 5487  24.546  25.006   8.762
  147POPC   D2A 5488  24.548  25.341   8.449
  147POPC   C3A 5489  24.530  25.119   8.091
  147POPC   C4A 5490  24.464  25.300   7.733
  147POPC   C1B 5491  24.089  25.283   8.637
  147POPC   C2B 5492  24.103  25.389   8.188
  147POPC   C3B 5493  24.013  25.505   7.741
  147POPC   C4B 5494  24.117  25.426   7.308
  148POPC   NC3 5495  23.903   1.324   9.528
  148POPC   PO4 5496  24.576   1.331   9.534
  148POPC   GL1 5497  24.579   1.184   9.153
  148POPC   GL2 5498  24.219   1.183   9.128
  148POPC   C1A 5499  24.780   1.342   8.804
  148POPC   D2A 5500  24.652   1.552   8.442
  148POPC   C3A 5501  24.783   1.352   8.088
  148POPC   C4A 5502  24.627   1.230   7.686
  148POPC   C1B 5503  24.267   1.294   8.700
  148POPC   C2B 5504  24.119   1.449   8.289
  148POPC   C3B 5505  24.176   1.494   7.815
  148POPC   C4B 5506  24.065   1.591   7.378
  149POPC   NC3 5507  10.559  40.256   9.560
  149POPC   PO4 5508  10.334  39.596   9.520
  149POPC   GL1 5509  10.390  39.906   9.194
  149POPC   GL2 5510  10.729  39.997   9.140
  149POPC   C1A 5511  10.438  39.892   8.733
  149POPC   D2A 5512  10.197  39.813   8.392
  149POPC   C3A 5513  10.364  39.911   8.033
  149POPC   C4A 5514  10.707  39.739   7.829
  149POPC   C1B 5515  10.903  40.140   8.760
  149POPC   C2B 5516  10.819  39.983   8.336
  149POPC   C3B 5517  10.739  40.261   7.991
  149POPC   C4B 5518  10.606  40.251   7.590
  150POPC   NC3 5519  36.857  37.828   9.736
  150POPC   PO4 5520  36.650  37.332   9.299
  150POPC   GL1 5521  36.885  37.686   9.185
  150POPC   GL2 5522  37.129  37.932   9.321
  150POPC   C1A 5523  36.897  37.692   8.756
  150POPC   D2A 5524  36.856  37.963   8.408
  150POPC   C3A 5525  36.984  37.773   8.058
  150POPC   C4A 5526  36.818  37.591   7.728
  150POPC   C1B 5527  37.202  38.058   8.904
  150POPC   C2B 5528  37.326  37.873   8.520
  150POPC   C3B 5529  37.432  37.979   8.125
  150POPC   C4B 5530  37.288  38.087   7.723
  151POPC   NC3 5531  14.920  17.073   9.537
  151POPC   PO4 5532  15.480  16.715   9.417
  151POPC   GL1 5533  15.197  16.773   9.081
  151POPC   GL2 5534  14.869  16.690   9.182
  151POPC   C1A 5535  15.033  16.580   8.690
  151POPC   D2A 5536  14.952  16.558   8.240
  151POPC   C3A 5537  15.279  16.675   7.961
  151POPC   C4A 5538  15.375  16.777   7.558
  151POPC   C1B 5539  14.824  17.053   8.883
  151POPC   C2B 5540  14.970  17.236   8.529
  151POPC   C3B 5541  15.063  17.078   8.160
  151POPC   C4B 5542  14.986  17.079   7.729
  152POPC   NC3 5543  26.084  15.769   9.489
  152POPC   PO4 5544  26.064  16.400   9.225
  152POPC   GL1 5545  25.899  16.006   9.018
  152POPC   GL2 5546  25.690  15.719   9.149
  152POPC   C1A 5547  25.957  15.806   8.600
  152POPC   D2A 5548  26.259  15.631   8.286
  152POPC   C3A 5549  26.253  15.914   7.925
  152POPC   C4A 5550  25.921  16.154   7.699
  152POPC   C1B 5551  25.597  15.458   8.785
  152POPC   C2B 5552  25.531  15.606   8.372
  152POPC   C3B 5553  25.781  15.801   8.080
  152POPC   C4B 5554  25.922  15.620   7.677
  153POPC   NC3 5555  25.191  38.021   9.753
  153POPC   PO4 5556  25.219  38.643   9.455
  153POPC   GL1 5557  25.477  38.627   9.049
  153POPC   GL2 5558  25.610  38.288   8.914
  153POPC   C1A 5559  25.329  38.574   8.612
  153POPC   D2A 5560  25.453  38.537   8.203
  153POPC   C3A 5561  25.110  38.524   7.975
  153POPC   C4A 5562  24.911  38.761   7.692
  153POPC   C1B 5563  25.658  38.141   8.514
  153POPC   C2B 5564  25.609  38.016   8.099
  153POPC   C3B 5565  25.506  38.261   7.762
  153POPC   C4B 5566  25.412  38.661   7.597
  154POPC   NC3 5567  24.416  18.100   9.345
  154POPC   PO4 5568  24.688  18.729   9.404
  154POPC   GL1 5569  24.612  18.506   9.048
  154POPC   GL2 5570  24.257  18.428   9.006
  154POPC   C1A 5571  24.663  18.235   8.694
  154POPC   D2A 5572  24.854  18.290   8.287
  154POPC   C3A 5573  24.660  18.092   7.884
  154POPC   C4A 5574  24.749  18.141   7.383
  154POPC   C1B 5575  24.049  18.444   8.631
  154POPC   C2B 5576  24.349  18.326   8.294
  154POPC   C3B 5577  24.511  18.584   8.008
  154POPC   C4B 5578  24.065  18.499   7.871
  155POPC   NC3 5579  24.903  24.519   9.484
  155POPC   PO4 5580  25.489  24.377   9.633
  155POPC   GL1 5581  25.412  24.681   9.280
  155POPC   GL2 5582  25.099  24.843   9.124
  155POPC   C1A 5583  25.568  24.655   8.858
  155POPC   D2A 5584  25.492  24.387   8.485
  155POPC   C3A 5585  25.557  24.568   8.073
  155POPC   C4A 5586  25.450  24.467   7.654
  155POPC   C1B 5587  25.087  24.430   8.854
  155POPC   C2B 5588  25.004  24.187   8.455
  155POPC   C3B 5589  25.079  24.387   8.045
  155POPC   C4B 5590  25.059  24.763   7.758
  156POPC   NC3 5591  30.215  37.245   9.553
  156POPC   PO4 5592  29.755  36.799   9.522
  156POPC   GL1 5593  30.120  36.757   9.294
  156POPC   GL2 5594  30.024  37.028   9.104
  156POPC   C1A 5595  30.165  36.612   8.850
  156POPC   D2A 5596  30.163  36.796   8.460
  156POPC   C3A 5597  29.999  36.652   8.106
  156POPC   C4A 5598  30.188  36.699   7.753
  156POPC   C1B 5599  29.887  37.151   8.687
  156POPC   C2B 5600  29.945  37.166   8.212
  156POPC   C3B 5601  29.955  37.166   7.767
  156POPC   C4B 5602  30.097  37.469   7.424
  157POPC   NC3 5603  17.999  15.815   9.567
  157POPC   PO4 5604  18.475  16.300   9.482
  157POPC   GL1 5605  18.259  16.078   9.146
  157POPC   GL2 5606  17.893  16.100   9.118
  157POPC   C1A 5607  18.436  16.114   8.724
  157POPC   D2A 5608  18.753  16.053   8.400
  157POPC   C3A 5609  18.580  16.178   8.027
  157POPC   C4A 5610  18.520  16.066   7.586
  157POPC   C1B 5611  17.905  16.127   8.661
  157POPC   C2B 5612  18.120  16.288   8.312
  157POPC   C3B 5613  18.099  16.202   7.871
  157POPC   C4B 5614  18.126  15.775   7.771
  158POPC   NC3 5615  16.483   4.317   9.623
  158POPC   PO4 5616  17.134   4.294   9.377
  158POPC   GL1 5617  16.724   4.312   9.165
  158POPC   GL2 5618  16.364   4.144   9.170
  158POPC   C1A 5619  16.847   4.367   8.761
  158POPC   D2A 5620  16.935   4.169   8.395
  158POPC   C3A 5621  17.028   4.410   8.054
  158POPC   C4A 5622  17.093   4.376   7.643
  158POPC   C1B 5623  16.463   4.016   8.756
  158POPC   C2B 5624  16.455   4.057   8.326
  158POPC   C3B 5625  16.691   4.042   7.939
  158POPC   C4B 5626  16.602   4.413   7.762
  159POPC   NC3 5627  10.811  18.439   9.552
  159POPC   PO4 5628  10.479  17.953   9.255
  159POPC   GL1 5629  10.289  18.245   9.049
  159POPC   GL2 5630  10.401  18.503   9.239
  159POPC   C1A 5631  10.315  18.272   8.617
  159POPC   D2A 5632  10.036  18.145   8.320
  159POPC   C3A 5633  10.208  18.050   7.937
  159POPC   C4A 5634  10.620  18.053   7.754
  159POPC   C1B 5635  10.508  18.676   8.882
  159POPC   C2B 5636  10.454  18.722   8.459
  159POPC   C3B 5637  10.656  18.718   8.067
  159POPC   C4B 5638  10.621  18.546   7.689
  160POPC   NC3 5639  24.651  37.639   9.780
  160POPC   PO4 5640  25.044  37.840   9.302
  160POPC   GL1 5641  24.613  37.844   9.152
  160POPC   GL2 5642  24.555  37.494   9.218
  160POPC   C1A 5643  24.330  37.724   8.772
  160POPC   D2A 5644  24.212  37.634   8.361
  160POPC   C3A 5645  24.342  37.947   8.086
  160POPC   C4A 5646  24.315  37.783   7.704
  160POPC   C1B 5647  24.784  37.502   8.797
  160POPC   C2B 5648  24.739  37.754   8.431
  160POPC   C3B 5649  24.705  37.605   8.019
  160POPC   C4B 5650  24.788  37.701   7.625
  161POPC   NC3 5651   6.466  18.606   9.468
  161POPC   PO4 5652   6.987  18.833   9.131
  161POPC   GL1 5653   6.624  19.054   9.027
  161POPC   GL2 5654   6.666  19.403   9.104
  161POPC   C1A 5655   6.573  19.132   8.583
  161POPC   D2A 5656   6.329  19.174   8.232
  161POPC   C3A 5657   6.386  18.889   7.919
  161POPC   C4A 5658   6.798  18.807   7.816
  161POPC   C1B 5659   6.917  19.483   8.716
  161POPC   C2B 5660   6.799  19.521   8.258
  161POPC   C3B 5661   6.666  19.314   7.854
  161POPC   C4B 5662   6.568  19.441   7.429
  162POPC   NC3 5663  16.738  28.490   9.558
  162POPC   PO4 5664  16.917  27.851   9.474
  162POPC   GL1 5665  16.810  28.224   9.137
  162POPC   GL2 5666  16.760  28.641   9.079
  162POPC   C1A 5667  16.582  28.324   8.724
  162POPC   D2A 5668  16.819  28.430   8.364
  162POPC   C3A 5669  16.786  28.179   7.987
  162POPC   C4A 5670  16.407  28.087   7.784
  162POPC   C1B 5671  16.934  28.891   8.692
  162POPC   C2B 5672  16.919  28.897   8.208
  162POPC   C3B 5673  16.615  28.664   7.962
  162POPC   C4B 5674  16.562  28.543   7.548
  163POPC   NC3 5675   1.492  28.616   9.413
  163POPC   PO4 5676   2.091  28.384   9.515
  163POPC   GL1 5677   1.949  28.242   9.109
  163POPC   GL2 5678   1.566  28.195   9.116
  163POPC   C1A 5679   2.133  27.993   8.723
  163POPC   D2A 5680   2.441  28.049   8.356
  163POPC   C3A 5681   2.271  28.312   8.052
  163POPC   C4A 5682   1.930  28.168   7.850
  163POPC   C1B 5683   1.699  28.400   8.697
  163POPC   C2B 5684   1.804  28.525   8.248
  163POPC   C3B 5685   1.944  28.690   7.838
  163POPC   C4B 5686   1.963  28.579   7.387
  164POPC   NC3 5687  11.166   6.781   9.604
  164POPC   PO4 5688  11.803   7.073   9.438
  164POPC   GL1 5689  11.537   6.666   9.194
  164POPC   GL2 5690  11.125   6.641   9.132
  164POPC   C1A 5691  11.408   6.479   8.770
  164POPC   D2A 5692  11.443   6.705   8.390
  164POPC   C3A 5693  11.562   6.538   8.011
  164POPC   C4A 5694  11.342   6.609   7.649
  164POPC   C1B 5695  10.926   6.314   8.845
  164POPC   C2B 5696  11.087   6.256   8.419
  164POPC   C3B 5697  11.022   6.450   8.022
  164POPC   C4B 5698  10.969   6.238   7.619
  165POPC   NC3 5699   4.393  44.795   9.629
  165POPC   PO4 5700   4.679  44.228   9.558
  165POPC   GL1 5701   4.349  44.444   9.218
  165POPC   GL2 5702   4.241  44.827   9.154
  165POPC   C1A 5703   4.187  44.506   8.796
  165POPC   D2A 5704   4.407  44.503   8.445
  165POPC   C3A 5705   4.217  44.591   8.073
  165POPC   C4A 5706   4.338  44.417   7.698
  165POPC   C1B 5707   4.580  44.889   8.789
  165POPC   C2B 5708   4.679  44.934   8.310
  165POPC   C3B 5709   4.615  44.833   7.854
  165POPC   C4B 5710   4.274  44.924   7.572
  166POPC   NC3 5711  21.083  17.736   9.280
  166POPC   PO4 5712  20.482  17.470   9.558
  166POPC   GL1 5713  20.584  17.468   9.131
  166POPC   GL2 5714  20.784  17.166   8.993
  166POPC   C1A 5715  20.630  17.570   8.735
  166POPC   D2A 5716  20.396  17.503   8.398
  166POPC   C3A 5717  20.415  17.776   8.118
  166POPC   C4A 5718  20.504  17.830   7.742
  166POPC   C1B 5719  20.628  17.066   8.607
  166POPC   C2B 5720  20.763  17.191   8.220
  166POPC   C3B 5721  20.508  17.304   7.910
  166POPC   C4B 5722  20.733  17.324   7.553
  167POPC   NC3 5723  35.556  31.864   9.526
  167POPC   PO4 5724  35.295  32.498   9.476
  167POPC   GL1 5725  35.424  32.260   9.177
  167POPC   GL2 5726  35.184  31.992   9.160
  167POPC   C1A 5727  35.320  32.368   8.770
  167POPC   D2A 5728  35.437  32.208   8.403
  167POPC   C3A 5729  35.352  32.468   8.085
  167POPC   C4A 5730  35.620  32.504   7.768
  167POPC   C1B 5731  35.501  31.895   8.821
  167POPC   C2B 5732  35.691  31.777   8.378
  167POPC   C3B 5733  35.476  31.938   7.964
  167POPC   C4B 5734  35.232  31.757   7.618
  168POPC   NC3 5735  19.270  34.221   9.622
  168POPC   PO4 5736  19.004  33.611   9.626
  168POPC   GL1 5737  19.248  33.610   9.238
  168POPC   GL2 5738  19.252  33.955   9.188
  168POPC   C1A 5739  19.343  33.706   8.778
  168POPC   D2A 5740  19.305  33.891   8.400
  168POPC   C3A 5741  19.214  33.714   7.967
  168POPC   C4A 5742  19.107  33.675   7.495
  168POPC   C1B 5743  19.150  34.203   8.810
  168POPC   C2B 5744  18.890  34.171   8.455
  168POPC   C3B 5745  19.050  34.220   8.063
  168POPC   C4B 5746  18.948  34.128   7.655
  169POPC   NC3 5747  21.533   9.312   9.756
  169POPC   PO4 5748  21.317   8.659   9.638
  169POPC   GL1 5749  21.270   8.964   9.263
  169POPC   GL2 5750  21.526   8.905   9.017
  169POPC   C1A 5751  21.177   9.240   8.858
  169POPC   D2A 5752  21.360   9.423   8.442
  169POPC   C3A 5753  21.356   9.214   8.024
  169POPC   C4A 5754  21.364   9.450   7.620
  169POPC   C1B 5755  21.114   8.719   8.826
  169POPC   C2B 5756  20.945   8.657   8.416
  169POPC   C3B 5757  21.028   8.673   7.985
  169POPC   C4B 5758  21.115   8.721   7.544
  170POPC   NC3 5759  40.502  15.925   9.555
  170POPC   PO4 5760  41.148  16.152   9.516
  170POPC   GL1 5761  40.820  16.047   9.175
  170POPC   GL2 5762  40.722  15.682   9.174
  170POPC   C1A 5763  40.525  16.107   8.809
  170POPC   D2A 5764  40.570  15.913   8.396
  170POPC   C3A 5765  40.489  16.158   8.063
  170POPC   C4A 5766  40.757  16.257   7.725
  170POPC   C1B 5767  40.885  15.712   8.769
  170POPC   C2B 5768  41.069  15.736   8.375
  170POPC   C3B 5769  40.886  15.773   7.974
  170POPC   C4B 5770  41.154  15.867   7.604
  171POPC   NC3 5771  34.823  24.973   9.445
  171POPC   PO4 5772  34.154  25.029   9.563
  171POPC   GL1 5773  34.428  25.200   9.225
  171POPC   GL2 5774  34.542  25.529   9.222
  171POPC   C1A 5775  34.603  25.115   8.826
  171POPC   D2A 5776  34.555  25.259   8.390
  171POPC   C3A 5777  34.628  25.022   8.001
  171POPC   C4A 5778  34.358  24.720   7.854
  171POPC   C1B 5779  34.736  25.613   8.821
  171POPC   C2B 5780  34.869  25.656   8.391
  171POPC   C3B 5781  34.727  25.526   7.988
  171POPC   C4B 5782  34.851  25.419   7.569
  172POPC   NC3 5783  18.950  24.536   9.488
  172POPC   PO4 5784  19.194  23.987   9.331
  172POPC   GL1 5785  19.082  24.351   9.025
  172POPC   GL2 5786  18.930  24.724   9.020
  172POPC   C1A 5787  18.971  24.393   8.592
  172POPC   D2A 5788  18.696  24.411   8.257
  172POPC   C3A 5789  18.920  24.565   7.906
  172POPC   C4A 5790  19.007  24.233   7.634
  172POPC   C1B 5791  19.310  24.757   8.742
  172POPC   C2B 5792  19.390  24.847   8.287
  172POPC   C3B 5793  19.308  24.892   7.834
  172POPC   C4B 5794  19.271  24.629   7.456
  173POPC   NC3 5795   6.148  36.574   9.820
  173POPC   PO4 5796   5.792  36.088   9.561
  173POPC   GL1 5797   5.686  36.129   9.174
  173POPC   GL2 5798   5.811  36.412   9.071
  173POPC   C1A 5799   5.821  35.951   8.811
  173POPC   D2A 5800   5.998  35.982   8.431
  173POPC   C3A 5801   5.702  36.032   8.189
  173POPC   C4A 5802   5.680  35.979   7.786
  173POPC   C1B 5803   5.816  36.467   8.654
  173POPC   C2B 5804   5.553  36.545   8.323
  173POPC   C3B 5805   5.679  36.462   7.919
  173POPC   C4B 5806   5.948  36.390   7.583
  174POPC   NC3 5807  44.385  25.314   9.492
  174POPC   PO4 5808  43.766  25.083   9.469
  174POPC   GL1 5809  43.976  25.277   9.146
  174POPC   GL2 5810  44.177  24.998   9.050
  174POPC   C1A 5811  43.856  25.298   8.726
  174POPC   D2A 5812  43.723  25.007   8.427
  174POPC   C3A 5813  43.917  25.083   8.072
  174POPC   C4A 5814  44.002  25.233   7.688
  174POPC   C1B 5815  44.263  24.966   8.578
  174POPC   C2B 5816  44.170  24.683   8.232
  174POPC   C3B 5817  44.311  24.811   7.810
  174POPC   C4B 5818  44.156  24.831   7.371
  175POPC   NC3 5819  38.960   6.245   9.466
  175POPC   PO4 5820  38.264   6.368   9.496
  175POPC   GL1 5821  38.537   6.439   9.179
  175POPC   GL2 5822  38.493   6.156   9.008
  175POPC   C1A 5823  38.457   6.691   8.803
  175POPC   D2A 5824  38.447   6.577   8.366
  175POPC   C3A 5825  38.630   6.817   8.031
  175POPC   C4A 5826  38.631   6.664   7.630
  175POPC   C1B 5827  38.165   6.296   8.709
  175POPC   C2B 5828  38.020   6.294   8.289
  175POPC   C3B 5829  38.319   6.362   7.905
  175POPC   C4B 5830  38.446   6.221   7.468
  176POPC   NC3 5831  28.662  33.564   9.578
  176POPC   PO4 5832  29.353  33.761   9.502
  176POPC   GL1 5833  29.300  33.863   9.109
  176POPC   GL2 5834  28.955  33.689   9.142
  176POPC   C1A 5835  29.255  33.770   8.685
  176POPC   D2A 5836  29.567  33.780   8.375
  176POPC   C3A 5837  29.400  33.755   7.980
  176POPC   C4A 5838  29.172  34.053   7.761
  176POPC   C1B 5839  28.880  34.063   8.925
  176POPC   C2B 5840  28.761  33.986   8.528
  176POPC   C3B 5841  28.887  33.789   8.158
  176POPC   C4B 5842  28.954  33.591   7.777
  177POPC   NC3 5843  10.873  32.527   9.457
  177POPC   PO4 5844  10.460  32.108   9.846
  177POPC   GL1 5845  10.391  32.247   9.349
  177POPC   GL2 5846  10.124  32.082   9.165
  177POPC   C1A 5847  10.489  32.350   8.861
  177POPC   D2A 5848  10.701  32.104   8.507
  177POPC   C3A 5849  10.797  32.321   8.118
  177POPC   C4A 5850  10.733  32.312   7.667
  177POPC   C1B 5851  10.022  32.185   8.715
  177POPC   C2B 5852  10.279  32.364   8.356
  177POPC   C3B 5853  10.296  32.281   7.925
  177POPC   C4B 5854  10.258  32.195   7.492
  178POPC   NC3 5855  36.310  30.818   9.647
  178POPC   PO4 5856  35.649  30.604   9.751
  178POPC   GL1 5857  35.899  30.649   9.353
  178POPC   GL2 5858  36.185  30.434   9.315
  178POPC   C1A 5859  35.871  30.515   8.925
  178POPC   D2A 5860  35.993  30.525   8.511
  178POPC   C3A 5861  35.820  30.705   8.132
  178POPC   C4A 5862  35.961  30.555   7.738
  178POPC   C1B 5863  36.389  30.549   8.911
  178POPC   C2B 5864  36.513  30.430   8.493
  178POPC   C3B 5865  36.335  30.547   8.103
  178POPC   C4B 5866  36.414  30.817   7.755
  179POPC   NC3 5867  19.695  16.108   9.582
  179POPC   PO4 5868  20.225  15.677   9.417
  179POPC   GL1 5869  20.037  16.001   9.174
  179POPC   GL2 5870  19.655  16.049   9.081
  179POPC   C1A 5871  20.105  16.074   8.766
  179POPC   D2A 5872  20.089  15.925   8.374
  179POPC   C3A 5873  19.814  16.088   8.079
  179POPC   C4A 5874  19.906  16.057   7.650
  179POPC   C1B 5875  19.659  15.833   8.683
  179POPC   C2B 5876  19.554  15.660   8.286
  179POPC   C3B 5877  19.601  15.695   7.861
  179POPC   C4B 5878  19.399  15.955   7.561
  180POPC   NC3 5879  13.645  38.719   9.520
  180POPC   PO4 5880  13.331  38.154   9.450
  180POPC   GL1 5881  13.546  38.312   9.124
  180POPC   GL2 5882  13.545  38.629   9.038
  180POPC   C1A 5883  13.807  38.250   8.788
  180POPC   D2A 5884  13.614  38.352   8.447
  180POPC   C3A 5885  13.850  38.449   8.104
  180POPC   C4A 5886  13.738  38.247   7.731
  180POPC   C1B 5887  13.780  38.871   8.786
  180POPC   C2B 5888  13.641  38.853   8.391
  180POPC   C3B 5889  13.694  38.918   7.980
  180POPC   C4B 5890  13.512  38.690   7.677
  181POPC   NC3 5891  39.984  14.065   9.392
  181POPC   PO4 5892  40.023  14.760   9.343
  181POPC   GL1 5893  39.918  14.453   9.073
  181POPC   GL2 5894  40.284  14.347   9.066
  181POPC   C1A 5895  39.964  14.246   8.694
  181POPC   D2A 5896  40.172  14.461   8.385
  181POPC   C3A 5897  39.810  14.524   8.156
  181POPC   C4A 5898  39.775  14.184   7.820
  181POPC   C1B 5899  40.451  14.700   8.807
  181POPC   C2B 5900  40.687  14.729   8.418
  181POPC   C3B 5901  40.562  14.530   8.046
  181POPC   C4B 5902  40.165  14.575   7.817
  182POPC   NC3 5903  19.577  32.369   9.734
  182POPC   PO4 5904  20.232  32.377   9.511
  182POPC   GL1 5905  19.953  32.251   9.197
  182POPC   GL2 5906  19.575  32.250   9.229
  182POPC   C1A 5907  19.992  32.412   8.784
  182POPC   D2A 5908  19.813  32.614   8.442
  182POPC   C3A 5909  19.981  32.380   8.123
  182POPC   C4A 5910  20.085  32.518   7.718
  182POPC   C1B 5911  19.470  32.385   8.803
  182POPC   C2B 5912  19.550  32.187   8.424
  182POPC   C3B 5913  19.484  32.257   8.021
  182POPC   C4B 5914  19.705  32.141   7.711
  183POPC   NC3 5915  26.201  29.153   9.511
  183POPC   PO4 5916  25.701  29.478   9.273
  183POPC   GL1 5917  26.077  29.301   9.021
  183POPC   GL2 5918  26.126  28.935   9.028
  183POPC   C1A 5919  26.117  29.277   8.562
  183POPC   D2A 5920  26.016  29.424   8.121
  183POPC   C3A 5921  26.109  29.425   7.673
  183POPC   C4A 5922  26.074  29.266   7.275
  183POPC   C1B 5923  26.123  28.780   8.603
  183POPC   C2B 5924  26.203  28.933   8.188
  183POPC   C3B 5925  26.181  28.917   7.716
  183POPC   C4B 5926  25.872  28.832   7.441
  184POPC   NC3 5927   9.507   2.392   9.557
  184POPC   PO4 5928  10.075   2.770   9.444
  184POPC   GL1 5929  10.042   2.459   9.156
  184POPC   GL2 5930   9.718   2.602   9.065
  184POPC   C1A 5931  10.052   2.416   8.706
  184POPC   D2A 5932   9.943   2.804   8.445
  184POPC   C3A 5933   9.954   2.752   7.987
  184POPC   C4A 5934   9.622   2.525   7.757
  184POPC   C1B 5935   9.642   3.018   8.813
  184POPC   C2B 5936   9.368   3.065   8.461
  184POPC   C3B 5937   9.599   3.106   8.082
  184POPC   C4B 5938   9.502   3.045   7.672
  185POPC   NC3 5939  20.643   5.373   9.389
  185POPC   PO4 5940  20.802   5.920   9.672
  185POPC   GL1 5941  20.733   5.950   9.201
  185POPC   GL2 5942  20.479   5.716   9.063
  185POPC   C1A 5943  20.587   6.099   8.752
  185POPC   D2A 5944  20.349   6.059   8.372
  185POPC   C3A 5945  20.462   6.213   7.971
  185POPC   C4A 5946  20.478   5.843   7.739
  185POPC   C1B 5947  20.848   5.637   8.837
  185POPC   C2B 5948  20.900   5.748   8.463
  185POPC   C3B 5949  20.714   5.590   8.119
  185POPC   C4B 5950  20.849   5.508   7.724
  186POPC   NC3 5951  25.479   9.971   9.584
  186POPC   PO4 5952  24.968   9.635   9.638
  186POPC   GL1 5953  25.129   9.712   9.207
  186POPC   GL2 5954  25.349   9.973   9.090
  186POPC   C1A 5955  25.278   9.498   8.810
  186POPC   D2A 5956  25.469   9.480   8.401
  186POPC   C3A 5957  25.291   9.446   7.997
  186POPC   C4A 5958  25.296   9.750   7.694
  186POPC   C1B 5959  25.657  10.215   8.849
  186POPC   C2B 5960  25.657  10.166   8.387
  186POPC   C3B 5961  25.387  10.154   7.998
  186POPC   C4B 5962  25.501  10.193   7.506
  187POPC   NC3 5963   6.713   6.009   9.448
  187POPC   PO4 5964   6.133   5.719   9.339
  187POPC   GL1 5965   6.539   5.745   9.046
  187POPC   GL2 5966   6.710   6.112   8.961
  187POPC   C1A 5967   6.955   5.665   8.825
  187POPC   D2A 5968   7.102   5.794   8.400
  187POPC   C3A 5969   6.750   5.759   8.083
  187POPC   C4A 5970   6.634   5.535   7.703
  187POPC   C1B 5971   6.635   6.012   8.559
  187POPC   C2B 5972   6.527   6.242   8.210
  187POPC   C3B 5973   6.539   6.182   7.801
  187POPC   C4B 5974   6.491   6.140   7.380
  188POPC   NC3 5975  33.314  21.715   9.565
  188POPC   PO4 5976  32.946  21.134   9.434
  188POPC   GL1 5977  33.005  21.358   9.074
  188POPC   GL2 5978  33.307  21.475   9.112
  188POPC   C1A 5979  32.800  21.430   8.697
  188POPC   D2A 5980  32.634  21.264   8.330
  188POPC   C3A 5981  32.715  21.588   8.046
  188POPC   C4A 5982  32.825  21.585   7.594
  188POPC   C1B 5983  33.375  21.401   8.678
  188POPC   C2B 5984  33.169  21.587   8.296
  188POPC   C3B 5985  33.226  21.569   7.855
  188POPC   C4B 5986  33.273  21.484   7.374
  189POPC   NC3 5987   7.884  21.585   9.530
  189POPC   PO4 5988   8.452  21.247   9.557
  189POPC   GL1 5989   8.336  21.499   9.195
  189POPC   GL2 5990   8.111  21.232   9.049
  189POPC   C1A 5991   8.263  21.624   8.749
  189POPC   D2A 5992   8.102  21.337   8.435
  189POPC   C3A 5993   8.003  21.415   7.975
  189POPC   C4A 5994   8.191  21.604   7.561
  189POPC   C1B 5995   8.498  21.173   8.785
  189POPC   C2B 5996   8.619  21.370   8.365
  189POPC   C3B 5997   8.505  21.382   7.915
  189POPC   C4B 5998   8.503  21.045   7.586
  190POPC   NC3 5999  13.910  31.036   9.493
  190POPC   PO4 6000  14.151  30.394   9.506
  190POPC   GL1 6001  13.730  30.502   9.212
  190POPC   GL2 6002  13.658  30.891   9.085
  190POPC   C1A 6003  13.419  30.554   8.826
  190POPC   D2A 6004  13.505  30.905   8.521
  190POPC   C3A 6005  13.712  30.764   8.173
  190POPC   C4A 6006  13.754  30.764   7.741
  190POPC   C1B 6007  13.950  30.907   8.735
  190POPC   C2B 6008  14.177  30.761   8.392
  190POPC   C3B 6009  14.167  30.940   7.991
  190POPC   C4B 6010  14.074  31.180   7.641
  191POPC   NC3 6011   5.400  14.717   9.724
  191POPC   PO4 6012   4.875  14.325   9.616
  191POPC   GL1 6013   5.141  14.305   9.256
  191POPC   GL2 6014   5.310  14.617   9.229
  191POPC   C1A 6015   5.109  14.312   8.812
  191POPC   D2A 6016   4.958  14.163   8.417
  191POPC   C3A 6017   5.111  14.368   8.063
  191POPC   C4A 6018   4.841  14.255   7.782
  191POPC   C1B 6019   5.504  14.673   8.833
  191POPC   C2B 6020   5.494  14.804   8.430
  191POPC   C3B 6021   5.585  14.694   8.026
  191POPC   C4B 6022   5.315  14.695   7.689
  192POPC   NC3 6023  17.319  27.970   9.293
  192POPC   PO4 6024  17.565  27.410   9.581
  192POPC   GL1 6025  17.761  27.597   9.167
  192POPC   GL2 6026  17.784  27.946   9.064
  192POPC   C1A 6027  17.624  27.580   8.705
  192POPC   D2A 6028  17.443  27.330   8.352
  192POPC   C3A 6029  17.580  27.359   7.950
  192POPC   C4A 6030  17.545  27.645   7.628
  192POPC   C1B 6031  17.995  27.942   8.677
  192POPC   C2B 6032  17.867  27.842   8.283
  192POPC   C3B 6033  17.850  27.984   7.864
  192POPC   C4B 6034  17.977  27.905   7.449
  193POPC   NC3 6035   9.642   2.961   9.439
  193POPC   PO4 6036   9.648   3.670   9.532
  193POPC   GL1 6037   9.771   3.453   9.168
  193POPC   GL2 6038  10.062   3.257   9.263
  193POPC   C1A 6039   9.791   3.574   8.743
  193POPC   D2A 6040   9.557   3.530   8.388
  193POPC   C3A 6041   9.586   3.627   7.997
  193POPC   C4A 6042   9.692   3.590   7.584
  193POPC   C1B 6043  10.142   3.215   8.819
  193POPC   C2B 6044  10.018   3.303   8.368
  193POPC   C3B 6045  10.032   3.409   7.937
  193POPC   C4B 6046  10.003   3.139   7.607
  194POPC   NC3 6047  42.038  30.862   9.765
  194POPC   PO4 6048  42.540  30.634   9.463
  194POPC   GL1 6049  42.419  30.502   9.085
  194POPC   GL2 6050  42.189  30.847   9.124
  194POPC   C1A 6051  42.100  30.513   8.750
  194POPC   D2A 6052  42.070  30.770   8.422
  194POPC   C3A 6053  42.341  30.615   8.191
  194POPC   C4A 6054  42.340  30.683   7.784
  194POPC   C1B 6055  42.540  30.904   8.835
  194POPC   C2B 6056  42.745  30.809   8.478
  194POPC   C3B 6057  42.751  30.861   8.059
  194POPC   C4B 6058  42.754  31.043   7.668
  195POPC   NC3 6059  35.897  27.811   9.277
  195POPC   PO4 6060  36.402  27.651   9.740
  195POPC   GL1 6061  36.410  27.669   9.280
  195POPC   GL2 6062  36.173  27.394   9.164
  195POPC   C1A 6063  36.352  27.733   8.814
  195POPC   D2A 6064  36.349  27.499   8.431
  195POPC   C3A 6065  36.309  27.683   8.066
  195POPC   C4A 6066  36.348  27.502   7.714
  195POPC   C1B 6067  35.925  27.414   8.737
  195POPC   C2B 6068  35.862  27.688   8.347
  195POPC   C3B 6069  35.754  27.723   7.894
  195POPC   C4B 6070  35.941  27.671   7.456
  196POPC   NC3 6071  21.730   5.323   9.454
  196POPC   PO4 6072  21.092   5.067   9.647
  196POPC   GL1 6073  21.343   5.060   9.302
  196POPC   GL2 6074  21.193   5.370   9.168
  196POPC   C1A 6075  21.449   5.017   8.894
  196POPC   D2A 6076  21.341   4.750   8.561
  196POPC   C3A 6077  21.452   4.818   8.140
  196POPC   C4A 6078  21.700   4.912   7.776
  196POPC   C1B 6079  21.299   5.463   8.723
  196POPC   C2B 6080  21.545   5.253   8.410
  196POPC   C3B 6081  21.685   5.360   8.006
  196POPC   C4B 6082  21.658   5.368   7.519
  197POPC   NC3 6083   8.113  17.792   9.456
  197POPC   PO4 6084   7.975  17.255   9.845
  197POPC   GL1 6085   8.087  17.251   9.371
  197POPC   GL2 6086   7.790  17.343   9.170
  197POPC   C1A 6087   8.226  17.324   8.901
  197POPC   D2A 6088   8.011  17.311   8.493
  197POPC   C3A 6089   8.118  17.155   8.068
  197POPC   C4A 6090   8.396  17.120   7.703
  197POPC   C1B 6091   7.853  17.685   8.834
  197POPC   C2B 6092   8.065  17.835   8.423
  197POPC   C3B 6093   7.942  17.742   7.975
  197POPC   C4B 6094   7.995  17.438   7.643
  198POPC   NC3 6095  22.266  32.496   9.486
  198POPC   PO4 6096  21.781  32.149   9.781
  198POPC   GL1 6097  21.776  32.234   9.294
  198POPC   GL2 6098  22.103  32.143   9.143
  198POPC   C1A 6099  21.835  32.467   8.861
  198POPC   D2A 6100  21.868  32.661   8.429
  198POPC   C3A 6101  22.133  32.548   8.083
  198POPC   C4A 6102  22.123  32.259   7.777
  198POPC   C1B 6103  22.264  31.905   8.768
  198POPC   C2B 6104  22.178  31.717   8.374
  198POPC   C3B 6105  22.358  31.810   7.949
  198POPC   C4B 6106  22.501  32.034   7.563
  199POPC   NC3 6107  44.516  40.480   9.544
  199POPC   PO4 6108  44.884  41.014   9.556
  199POPC   GL1 6109  44.790  40.769   9.221
  199POPC   GL2 6110  44.468  40.869   9.197
  199POPC   C1A 6111  44.983  40.637   8.828
  199POPC   D2A 6112  44.768  40.497   8.466
  199POPC   C3A 6113  44.749  40.690   8.099
  199POPC   C4A 6114  44.883  40.596   7.692
  199POPC   C1B 6115  44.459  40.688   8.827
  199POPC   C2B 6116  44.389  40.843   8.475
  199POPC   C3B 6117  44.257  40.859   8.098
  199POPC   C4B 6118  44.299  40.770   7.736
  200POPC   NC3 6119  41.681  33.857   9.604
  200POPC   PO4 6120  41.199  34.124   9.371
  200POPC   GL1 6121  41.424  33.959   9.076
  200POPC   GL2 6122  41.577  33.677   9.135
  200POPC   C1A 6123  41.546  33.998   8.671
  200POPC   D2A 6124  41.717  34.235   8.356
  200POPC   C3A 6125  41.542  33.914   8.098
  200POPC   C4A 6126  41.679  33.605   7.831
  200POPC   C1B 6127  41.627  33.510   8.753
  200POPC   C2B 6128  41.741  33.433   8.327
  200POPC   C3B 6129  41.714  33.134   7.995
  200POPC   C4B 6130  41.943  33.156   7.624
  201POPC   NC3 6131   6.436  21.218   9.297
  201POPC   PO4 6132   6.824  21.729   9.573
  201POPC   GL1 6133   6.780  21.584   9.147
  201POPC   GL2 6134   6.907  21.260   9.064
  201POPC   C1A 6135   6.793  21.586   8.687
  201POPC   D2A 6136   6.486  21.696   8.354
  201POPC   C3A 6137   6.539  21.550   7.937
  201POPC   C4A 6138   6.365  21.269   7.638
  201POPC   C1B 6139   6.804  21.057   8.683
  201POPC   C2B 6140   6.812  21.229   8.281
  201POPC   C3B 6141   6.787  21.054   7.891
  201POPC   C4B 6142   6.965  21.032   7.500
  202POPC   NC3 6143  27.505   8.350   9.586
  202POPC   PO4 6144  28.073   8.014   9.826
  202POPC   GL1 6145  27.874   8.139   9.279
  202POPC   GL2 6146  27.634   8.468   9.127
  202POPC   C1A 6147  27.931   8.253   8.807
  202POPC   D2A 6148  27.688   8.050   8.521
  202POPC   C3A 6149  27.732   8.054   8.110
  202POPC   C4A 6150  27.430   7.867   7.870
  202POPC   C1B 6151  27.419   8.465   8.702
  202POPC   C2B 6152  27.502   8.494   8.263
  202POPC   C3B 6153  27.553   8.439   7.828
  202POPC   C4B 6154  27.572   8.557   7.376
  203POPC   NC3 6155  18.183  39.563   9.575
  203POPC   PO4 6156  18.663  39.104   9.506
  203POPC   GL1 6157  18.393  39.299   9.195
  203POPC   GL2 6158  18.081  39.125   9.182
  203POPC   C1A 6159  18.490  39.461   8.780
  203POPC   D2A 6160  18.662  39.207   8.438
  203POPC   C3A 6161  18.713  39.358   8.023
  203POPC   C4A 6162  18.526  39.109   7.715
  203POPC   C1B 6163  17.995  39.389   8.861
  203POPC   C2B 6164  18.117  39.467   8.439
  203POPC   C3B 6165  18.216  39.268   8.095
  203POPC   C4B 6166  18.006  39.165   7.738
  204POPC   NC3 6167   9.714  31.078   9.643
  204POPC   PO4 6168  10.015  31.632   9.520
  204POPC   GL1 6169   9.975  31.582   9.088
  204POPC   GL2 6170   9.980  31.242   9.145
  204POPC   C1A 6171  10.027  31.446   8.646
  204POPC   D2A 6172  10.233  31.317   8.246
  204POPC   C3A 6173   9.910  31.378   7.912
  204POPC   C4A 6174   9.510  31.639   7.827
  204POPC   C1B 6175   9.607  31.208   8.849
  204POPC   C2B 6176   9.537  31.021   8.412
  204POPC   C3B 6177   9.479  31.081   7.925
  204POPC   C4B 6178   9.537  30.970   7.425
  205POPC   NC3 6179  40.027   5.008   9.449
  205POPC   PO4 6180  40.314   5.660   9.450
  205POPC   GL1 6181  40.263   5.321   9.128
  205POPC   GL2 6182  39.911   5.236   9.017
  205POPC   C1A 6183  40.271   4.945   8.821
  205POPC   D2A 6184  40.237   5.127   8.422
  205POPC   C3A 6185  40.129   4.880   8.088
  205POPC   C4A 6186  39.915   4.932   7.728
  205POPC   C1B 6187  39.769   5.568   8.811
  205POPC   C2B 6188  39.622   5.430   8.426
  205POPC   C3B 6189  39.860   5.339   8.061
  205POPC   C4B 6190  39.932   5.406   7.602
  206POPC   NC3 6191  42.749  33.562   9.513
  206POPC   PO4 6192  42.121  33.702   9.609
  206POPC   GL1 6193  42.338  33.739   9.246
  206POPC   GL2 6194  42.080  33.531   9.115
  206POPC   C1A 6195  42.443  33.888   8.819
  206POPC   D2A 6196  42.303  34.218   8.453
  206POPC   C3A 6197  42.426  34.131   7.984
  206POPC   C4A 6198  42.679  33.886   7.680
  206POPC   C1B 6199  41.959  33.926   8.952
  206POPC   C2B 6200  42.005  33.809   8.549
  206POPC   C3B 6201  42.028  33.863   8.146
  206POPC   C4B 6202  41.942  34.050   7.794
  207POPC   NC3 6203   1.270  36.095   9.551
  207POPC   PO4 6204   1.314  36.704   9.356
  207POPC   GL1 6205   1.281  36.364   9.129
  207POPC   GL2 6206   0.969  36.302   9.175
  207POPC   C1A 6207   1.288  36.004   8.852
  207POPC   D2A 6208   1.431  35.769   8.478
  207POPC   C3A 6209   1.264  35.869   8.073
  207POPC   C4A 6210   1.388  36.178   7.805
  207POPC   C1B 6211   0.994  36.419   8.737
  207POPC   C2B 6212   1.157  36.301   8.359
  207POPC   C3B 6213   0.910  36.248   7.989
  207POPC   C4B 6214   0.926  36.191   7.560
  208POPC   NC3 6215  15.413  20.003   9.526
  208POPC   PO4 6216  14.835  19.720   9.444
  208POPC   GL1 6217  15.039  19.955   9.118
  208POPC   GL2 6218  15.324  19.845   9.057
  208POPC   C1A 6219  15.047  19.832   8.660
  208POPC   D2A 6220  14.963  20.017   8.271
  208POPC   C3A 6221  15.092  19.766   7.915
  208POPC   C4A 6222  15.091  19.970   7.518
  208POPC   C1B 6223  15.593  19.789   8.702
  208POPC   C2B 6224  15.450  19.860   8.293
  208POPC   C3B 6225  15.660  19.867   7.921
  208POPC   C4B 6226  15.574  19.900   7.515
  209POPC   NC3 6227  17.674  13.314   9.368
  209POPC   PO4 6228  18.211  13.726   9.584
  209POPC   GL1 6229  18.430  13.702   9.161
  209POPC   GL2 6230  18.411  13.359   9.061
  209POPC   C1A 6231  18.270  13.702   8.713
  209POPC   D2A 6232  18.322  13.396   8.374
  209POPC   C3A 6233  18.290  13.610   7.958
  209POPC   C4A 6234  18.546  13.688   7.567
  209POPC   C1B 6235  18.017  13.259   8.789
  209POPC   C2B 6236  17.819  13.320   8.370
  209POPC   C3B 6237  17.964  13.169   7.963
  209POPC   C4B 6238  18.280  13.233   7.617
  210POPC   NC3 6239  23.162  12.699   9.435
  210POPC   PO4 6240  22.854  13.264   9.384
  210POPC   GL1 6241  23.167  13.104   9.081
  210POPC   GL2 6242  23.088  12.763   8.925
  210POPC   C1A 6243  23.399  13.133   8.709
  210POPC   D2A 6244  23.502  13.167   8.270
  210POPC   C3A 6245  23.162  12.967   8.034
  210POPC   C4A 6246  22.994  12.675   7.731
  210POPC   C1B 6247  22.863  13.061   8.671
  210POPC   C2B 6248  22.693  13.125   8.281
  210POPC   C3B 6249  22.678  13.054   7.842
  210POPC   C4B 6250  22.451  12.825   7.527
  211POPC   NC3 6251  20.929  16.800   9.596
  211POPC   PO4 6252  21.541  16.803   9.812
  211POPC   GL1 6253  21.383  16.828   9.330
  211POPC   GL2 6254  21.381  16.489   9.170
  211POPC   C1A 6255  21.176  16.856   8.884
  211POPC   D2A 6256  21.275  16.635   8.480
  211POPC   C3A 6257  21.255  16.763   8.025
  211POPC   C4A 6258  21.207  17.178   7.806
  211POPC   C1B 6259  21.669  16.650   8.839
  211POPC   C2B 6260  21.961  16.643   8.462
  211POPC   C3B 6261  21.874  16.636   8.008
  211POPC   C4B 6262  21.623  16.699   7.660
  212POPC   NC3 6263  18.822  25.172   9.471
  212POPC   PO4 6264  19.341  25.628   9.520
  212POPC   GL1 6265  19.125  25.447   9.181
  212POPC   GL2 6266  18.765  25.530   9.057
  212POPC   C1A 6267  19.109  25.238   8.809
  212POPC   D2A 6268  18.820  25.407   8.472
  212POPC   C3A 6269  19.058  25.249   8.139
  212POPC   C4A 6270  19.208  25.417   7.790
  212POPC   C1B 6271  18.639  25.111   8.848
  212POPC   C2B 6272  18.695  24.902   8.454
  212POPC   C3B 6273  18.581  25.102   8.064
  212POPC   C4B 6274  18.819  25.048   7.690
  213POPC   NC3 6275  12.446  43.280   9.340
  213POPC   PO4 6276  13.083  43.095   9.565
  213POPC   GL1 6277  12.956  43.203   9.200
  213POPC   GL2 6278  12.774  42.910   9.158
  213POPC   C1A 6279  12.924  43.305   8.785
  213POPC   D2A 6280  12.686  43.279   8.430
  213POPC   C3A 6281  12.904  43.273   8.050
  213POPC   C4A 6282  12.666  43.283   7.713
  213POPC   C1B 6283  13.104  42.829   8.860
  213POPC   C2B 6284  13.093  42.943   8.432
  213POPC   C3B 6285  13.116  42.787   8.011
  213POPC   C4B 6286  12.953  42.877   7.638
  214POPC   NC3 6287  24.857  17.422   9.451
  214POPC   PO4 6288  24.211  17.699   9.451
  214POPC   GL1 6289  24.449  17.554   9.135
  214POPC   GL2 6290  24.328  17.240   9.024
  214POPC   C1A 6291  24.496  17.737   8.751
  214POPC   D2A 6292  24.599  17.830   8.347
  214POPC   C3A 6293  24.673  17.438   8.130
  214POPC   C4A 6294  24.857  17.587   7.806
  214POPC   C1B 6295  24.409  17.252   8.597
  214POPC   C2B 6296  24.200  17.519   8.322
  214POPC   C3B 6297  24.281  17.702   7.941
  214POPC   C4B 6298  24.250  17.299   7.837
  215POPC   NC3 6299   4.733  26.546   9.530
  215POPC   PO4 6300   4.063  26.772   9.562
  215POPC   GL1 6301   4.374  26.806   9.259
  215POPC   GL2 6302   4.318  27.100   9.053
  215POPC   C1A 6303   4.362  26.605   8.851
  215POPC   D2A 6304   4.134  26.805   8.539
  215POPC   C3A 6305   4.337  26.816   8.195
  215POPC   C4A 6306   4.353  26.503   7.917
  215POPC   C1B 6307   4.639  27.019   8.703
  215POPC   C2B 6308   4.656  27.203   8.283
  215POPC   C3B 6309   4.514  27.195   7.838
  215POPC   C4B 6310   4.474  27.058   7.415
  216POPC   NC3 6311  44.294  36.327   9.632
  216POPC   PO4 6312  44.722  35.870   9.444
  216POPC   GL1 6313  44.701  36.180   9.173
  216POPC   GL2 6314  44.416  36.339   9.139
  216POPC   C1A 6315  44.757  36.230   8.748
  216POPC   D2A 6316  44.561  36.129   8.355
  216POPC   C3A 6317  44.649  35.978   7.945
  216POPC   C4A 6318  44.608  35.939   7.473
  216POPC   C1B 6319  44.224  36.262   8.723
  216POPC   C2B 6320  44.229  36.508   8.369
  216POPC   C3B 6321  44.458  36.467   7.966
  216POPC   C4B 6322  44.301  36.611   7.554
  217POPC   NC3 6323   1.103  39.482   9.709
  217POPC   PO4 6324   1.277  38.865   9.596
  217POPC   GL1 6325   1.140  39.173   9.275
  217POPC   GL2 6326   0.770  39.067   9.290
  217POPC   C1A 6327   1.357  39.267   8.832
  217POPC   D2A 6328   1.353  39.473   8.429
  217POPC   C3A 6329   1.517  39.328   8.039
  217POPC   C4A 6330   1.447  39.316   7.614
  217POPC   C1B 6331   0.834  39.224   8.875
  217POPC   C2B 6332   0.947  39.149   8.471
  217POPC   C3B 6333   0.984  39.319   8.061
  217POPC   C4B 6334   1.051  39.036   7.713
  218POPC   NC3 6335  27.423  34.513   9.547
  218POPC   PO4 6336  28.026  34.800   9.450
  218POPC   GL1 6337  27.962  34.488   9.130
  218POPC   GL2 6338  27.604  34.478   9.074
  218POPC   C1A 6339  27.934  34.557   8.680
  218POPC   D2A 6340  27.648  34.630   8.345
  218POPC   C3A 6341  27.817  34.382   8.012
  218POPC   C4A 6342  27.859  34.351   7.540
  218POPC   C1B 6343  27.295  34.345   8.759
  218POPC   C2B 6344  27.105  34.529   8.401
  218POPC   C3B 6345  27.232  34.689   8.023
  218POPC   C4B 6346  27.369  34.407   7.751
  219POPC   NC3 6347  16.291  29.074   9.486
  219POPC   PO4 6348  15.667  29.190   9.392
  219POPC   GL1 6349  15.796  29.110   9.022
  219POPC   GL2 6350  16.094  29.308   9.054
  219POPC   C1A 6351  16.091  28.918   8.729
  219POPC   D2A 6352  16.440  28.840   8.457
  219POPC   C3A 6353  16.195  28.915   8.105
  219POPC   C4A 6354  15.833  28.924   7.844
  219POPC   C1B 6355  15.879  29.411   8.649
  219POPC   C2B 6356  15.839  29.243   8.268
  219POPC   C3B 6357  16.038  29.384   7.926
  219POPC   C4B 6358  15.740  29.682   7.832
  220POPC   NC3 6359  24.488  34.132   9.418
  220POPC   PO4 6360  24.068  33.677   9.571
  220POPC   GL1 6361  24.295  33.636   9.151
  220POPC   GL2 6362  24.646  33.741   9.134
  220POPC   C1A 6363  24.491  33.559   8.700
  220POPC   D2A 6364  24.678  33.794   8.377
  220POPC   C3A 6365  24.643  33.690   7.949
  220POPC   C4A 6366  24.507  33.575   7.537
  220POPC   C1B 6367  24.500  34.066   8.791
  220POPC   C2B 6368  24.684  34.340   8.490
  220POPC   C3B 6369  24.653  34.212   8.071
  220POPC   C4B 6370  24.252  34.049   7.861
  221POPC   NC3 6371  38.169  33.219   9.528
  221POPC   PO4 6372  37.525  32.949   9.399
  221POPC   GL1 6373  37.600  33.112   9.033
  221POPC   GL2 6374  37.944  33.175   9.079
  221POPC   C1A 6375  37.704  32.905   8.674
  221POPC   D2A 6376  37.726  32.714   8.279
  221POPC   C3A 6377  37.483  32.920   7.964
  221POPC   C4A 6378  37.433  32.591   7.722
  221POPC   C1B 6379  38.047  33.308   8.681
  221POPC   C2B 6380  38.231  33.326   8.261
  221POPC   C3B 6381  38.202  33.099   7.850
  221POPC   C4B 6382  37.946  32.732   7.805
  222POPC   NC3 6383  23.631   6.195   9.408
  222POPC   PO4 6384  23.225   5.764   9.665
  222POPC   GL1 6385  23.593   5.739   9.219
  222POPC   GL2 6386  23.630   6.006   8.954
  222POPC   C1A 6387  23.609   5.562   8.762
  222POPC   D2A 6388  23.735   5.879   8.461
  222POPC   C3A 6389  23.510   5.912   8.092
  222POPC   C4A 6390  23.678   5.599   7.835
  222POPC   C1B 6391  23.910   6.259   8.786
  222POPC   C2B 6392  24.092   6.278   8.396
  222POPC   C3B 6393  24.020   6.028   8.043
  222POPC   C4B 6394  23.790   6.094   7.688
  223POPC   NC3 6395  39.003   5.432   9.464
  223POPC   PO4 6396  39.389   6.036   9.516
  223POPC   GL1 6397  39.254   5.866   9.159
  223POPC   GL2 6398  39.008   6.072   8.975
  223POPC   C1A 6399  39.485   6.012   8.836
  223POPC   D2A 6400  39.343   6.163   8.422
  223POPC   C3A 6401  39.394   5.797   8.164
  223POPC   C4A 6402  39.578   5.720   7.767
  223POPC   C1B 6403  39.131   5.732   8.643
  223POPC   C2B 6404  38.914   5.486   8.320
  223POPC   C3B 6405  39.030   5.413   7.915
  223POPC   C4B 6406  39.053   5.845   7.808
  224POPC   NC3 6407   0.144  36.609   9.481
  224POPC   PO4 6408   0.505  37.135   9.458
  224POPC   GL1 6409   0.478  37.019   9.062
  224POPC   GL2 6410   0.468  36.710   9.096
  224POPC   C1A 6411   0.549  37.114   8.643
  224POPC   D2A 6412   0.726  37.386   8.307
  224POPC   C3A 6413   0.559  37.258   7.914
  224POPC   C4A 6414   0.734  36.858   7.886
  224POPC   C1B 6415   0.492  36.546   8.723
  224POPC   C2B 6416   0.716  36.669   8.387
  224POPC   C3B 6417   0.482  36.497   8.111
  224POPC   C4B 6418   0.493  36.425   7.727
  225POPC   NC3 6419   7.727  16.895   9.673
  225POPC   PO4 6420   7.081  16.945   9.522
  225POPC   GL1 6421   7.305  16.690   9.235
  225POPC   GL2 6422   7.649  16.826   9.154
  225POPC   C1A 6423   7.288  16.670   8.798
  225POPC   D2A 6424   7.547  16.572   8.446
  225POPC   C3A 6425   7.381  16.640   8.053
  225POPC   C4A 6426   7.589  16.505   7.696
  225POPC   C1B 6427   7.600  17.085   8.738
  225POPC   C2B 6428   7.644  17.045   8.266
  225POPC   C3B 6429   7.607  17.027   7.799
  225POPC   C4B 6430   7.219  16.852   7.599
  226POPC   NC3 6431  32.167  36.494   9.572
  226POPC   PO4 6432  32.810  36.237   9.589
  226POPC   GL1 6433  32.467  36.212   9.265
  226POPC   GL2 6434  32.369  35.850   9.164
  226POPC   C1A 6435  32.490  36.198   8.812
  226POPC   D2A 6436  32.231  36.284   8.452
  226POPC   C3A 6437  32.354  36.124   8.084
  226POPC   C4A 6438  32.364  36.330   7.714
  226POPC   C1B 6439  32.027  36.016   8.832
  226POPC   C2B 6440  31.804  35.921   8.463
  226POPC   C3B 6441  31.855  35.888   8.015
  226POPC   C4B 6442  32.108  35.901   7.663
  227POPC   NC3 6443  34.881  13.944   9.618
  227POPC   PO4 6444  34.362  13.620   9.350
  227POPC   GL1 6445  34.615  13.843   9.113
  227POPC   GL2 6446  34.914  13.701   9.145
  227POPC   C1A 6447  34.766  13.893   8.692
  227POPC   D2A 6448  34.830  14.118   8.347
  227POPC   C3A 6449  34.824  13.813   8.005
  227POPC   C4A 6450  34.818  13.884   7.547
  227POPC   C1B 6451  34.733  13.404   8.813
  227POPC   C2B 6452  34.586  13.483   8.406
  227POPC   C3B 6453  34.620  13.319   8.035
  227POPC   C4B 6454  34.812  13.391   7.674
  228POPC   NC3 6455  37.019  36.193   9.636
  228POPC   PO4 6456  36.483  35.868   9.754
  228POPC   GL1 6457  36.633  36.185   9.313
  228POPC   GL2 6458  36.964  36.075   9.152
  228POPC   C1A 6459  36.601  36.216   8.826
  228POPC   D2A 6460  36.760  36.325   8.417
  228POPC   C3A 6461  36.947  35.996   8.187
  228POPC   C4A 6462  36.794  36.095   7.792
  228POPC   C1B 6463  37.083  36.033   8.728
  228POPC   C2B 6464  37.285  36.325   8.456
  228POPC   C3B 6465  37.177  36.446   8.086
  228POPC   C4B 6466  37.275  36.225   7.756
  229POPC   NC3 6467   9.935  14.602   9.696
  229POPC   PO4 6468   9.603  13.998   9.500
  229POPC   GL1 6469   9.738  14.258   9.171
  229POPC   GL2 6470  10.052  14.488   9.194
  229POPC   C1A 6471   9.555  14.269   8.757
  229POPC   D2A 6472   9.492  14.588   8.453
  229POPC   C3A 6473   9.440  14.482   8.027
  229POPC   C4A 6474   9.438  14.651   7.612
  229POPC   C1B 6475  10.036  14.484   8.720
  229POPC   C2B 6476  10.033  14.206   8.331
  229POPC   C3B 6477   9.854  14.194   7.895
  229POPC   C4B 6478  10.005  14.530   7.617
  230POPC   NC3 6479  11.614  44.734   9.914
  230POPC   PO4 6480  12.077  44.833   9.467
  230POPC   GL1 6481  12.007  44.613   9.108
  230POPC   GL2 6482  12.312  44.544   9.070
  230POPC   C1A 6483  11.950  44.435   8.699
  230POPC   D2A 6484  12.209  44.489   8.353
  230POPC   C3A 6485  12.004  44.479   7.936
  230POPC   C4A 6486  12.017  44.688   7.519
  230POPC   C1B 6487  12.255  44.849   8.736
  230POPC   C2B 6488  12.373  44.957   8.336
  230POPC   C3B 6489  12.421  44.823   7.932
  230POPC   C4B 6490  12.443   0.131   7.595
  231POPC   NC3 6491  42.437  32.637   9.339
  231POPC   PO4 6492  42.671  32.110   9.652
  231POPC   GL1 6493  42.410  32.105   9.189
  231POPC   GL2 6494  42.516  32.357   8.946
  231POPC   C1A 6495  42.294  32.020   8.667
  231POPC   D2A 6496  42.088  31.824   8.272
  231POPC   C3A 6497  42.208  31.991   7.830
  231POPC   C4A 6498  42.144  32.233   7.485
  231POPC   C1B 6499  42.834  32.692   8.857
  231POPC   C2B 6500  42.778  32.959   8.509
  231POPC   C3B 6501  42.603  32.681   8.208
  231POPC   C4B 6502  42.491  32.484   7.819
  232POPC   NC3 6503  38.945  33.848   9.477
  232POPC   PO4 6504  39.646  33.844   9.686
  232POPC   GL1 6505  39.412  33.882   9.234
  232POPC   GL2 6506  39.187  33.584   9.138
  232POPC   C1A 6507  39.399  33.844   8.757
  232POPC   D2A 6508  39.593  34.036   8.378
  232POPC   C3A 6509  39.470  33.901   7.946
  232POPC   C4A 6510  39.131  34.084   7.696
  232POPC   C1B 6511  38.918  33.588   8.786
  232POPC   C2B 6512  39.053  33.753   8.374
  232POPC   C3B 6513  39.046  33.621   7.959
  232POPC   C4B 6514  38.759  33.731   7.628
  233POPC   NC3 6515  31.174  32.344   9.506
  233POPC   PO4 6516  31.477  31.852   9.645
  233POPC   GL1 6517  31.444  32.117   9.168
  233POPC   GL2 6518  31.253  32.475   9.030
  233POPC   C1A 6519  31.579  32.197   8.737
  233POPC   D2A 6520  31.673  31.972   8.399
  233POPC   C3A 6521  31.611  32.181   8.050
  233POPC   C4A 6522  31.489  32.082   7.694
  233POPC   C1B 6523  31.536  32.696   8.767
  233POPC   C2B 6524  31.532  32.578   8.363
  233POPC   C3B 6525  31.735  32.691   8.012
  233POPC   C4B 6526  31.892  32.444   7.689
  234POPC   NC3 6527   6.347  21.947   9.570
  234POPC   PO4 6528   5.842  22.470   9.514
  234POPC   GL1 6529   5.802  22.226   9.167
  234POPC   GL2 6530   5.484  22.013   9.254
  234POPC   C1A 6531   6.103  22.224   8.786
  234POPC   D2A 6532   6.328  22.213   8.353
  234POPC   C3A 6533   6.127  21.952   8.058
  234POPC   C4A 6534   5.841  22.088   7.737
  234POPC   C1B 6535   5.430  22.156   8.834
  234POPC   C2B 6536   5.701  22.090   8.481
  234POPC   C3B 6537   5.614  21.851   8.129
  234POPC   C4B 6538   5.335  21.977   7.802
  235POPC   NC3 6539  42.584  31.664   9.515
  235POPC   PO4 6540  42.074  31.308   9.665
  235POPC   GL1 6541  42.235  31.378   9.215
  235POPC   GL2 6542  42.572  31.207   9.238
  235POPC   C1A 6543  42.176  31.516   8.746
  235POPC   D2A 6544  42.385  31.185   8.450
  235POPC   C3A 6545  42.316  31.155   8.043
  235POPC   C4A 6546  42.050  31.480   7.863
  235POPC   C1B 6547  42.653  31.416   8.841
  235POPC   C2B 6548  42.557  31.657   8.436
  235POPC   C3B 6549  42.508  31.630   8.008
  235POPC   C4B 6550  42.419  31.600   7.536
  236POPC   NC3 6551   9.432  35.682   9.558
  236POPC   PO4 6552   9.370  34.944   9.525
  236POPC   GL1 6553   9.089  35.320   9.342
  236POPC   GL2 6554   8.736  35.423   9.225
  236POPC   C1A 6555   9.130  35.542   8.923
  236POPC   D2A 6556   9.045  35.362   8.502
  236POPC   C3A 6557   9.200  35.403   8.096
  236POPC   C4A 6558   9.015  35.145   7.815
  236POPC   C1B 6559   8.656  35.588   8.756
  236POPC   C2B 6560   8.543  35.557   8.316
  236POPC   C3B 6561   8.654  35.501   7.882
  236POPC   C4B 6562   8.576  35.628   7.451
  237POPC   NC3 6563   2.444  12.805   9.456
  237POPC   PO4 6564   2.953  13.196   9.579
  237POPC   GL1 6565   2.927  12.878   9.226
  237POPC   GL2 6566   2.730  12.537   9.154
  237POPC   C1A 6567   2.840  12.987   8.811
  237POPC   D2A 6568   2.575  13.140   8.490
  237POPC   C3A 6569   2.759  13.096   8.103
  237POPC   C4A 6570   2.573  13.093   7.730
  237POPC   C1B 6571   2.803  12.398   8.753
  237POPC   C2B 6572   2.754  12.645   8.390
  237POPC   C3B 6573   2.667  12.609   7.956
  237POPC   C4B 6574   3.061  12.775   7.762
  238POPC   NC3 6575  23.536  14.940   9.481
  238POPC   PO4 6576  23.885  15.518   9.709
  238POPC   GL1 6577  23.882  15.468   9.251
  238POPC   GL2 6578  23.571  15.418   9.090
  238POPC   C1A 6579  24.065  15.329   8.833
  238POPC   D2A 6580  23.948  14.977   8.545
  238POPC   C3A 6581  23.946  14.986   8.070
  238POPC   C4A 6582  23.530  14.902   7.871
  238POPC   C1B 6583  23.587  15.365   8.661
  238POPC   C2B 6584  23.836  15.455   8.304
  238POPC   C3B 6585  23.591  15.449   7.930
  238POPC   C4B 6586  23.245  15.606   7.624
  239POPC   NC3 6587   5.374  22.473   9.520
  239POPC   PO4 6588   5.175  21.793   9.601
  239POPC   GL1 6589   4.938  22.037   9.275
  239POPC   GL2 6590   5.056  22.331   9.161
  239POPC   C1A 6591   4.938  21.989   8.803
  239POPC   D2A 6592   5.183  22.025   8.403
  239POPC   C3A 6593   4.984  22.281   8.098
  239POPC   C4A 6594   4.880  22.172   7.682
  239POPC   C1B 6595   5.028  22.507   8.751
  239POPC   C2B 6596   5.346  22.536   8.438
  239POPC   C3B 6597   5.527  22.393   8.079
  239POPC   C4B 6598   5.299  22.464   7.723
  240POPC   NC3 6599   2.197   5.598   9.543
  240POPC   PO4 6600   1.611   5.975   9.522
  240POPC   GL1 6601   1.918   5.859   9.215
  240POPC   GL2 6602   1.776   5.543   9.252
  240POPC   C1A 6603   2.167   5.972   8.841
  240POPC   D2A 6604   2.132   6.171   8.434
  240POPC   C3A 6605   2.242   5.973   8.059
  240POPC   C4A 6606   2.073   6.240   7.783
  240POPC   C1B 6607   1.583   5.792   8.861
  240POPC   C2B 6608   1.669   5.947   8.461
  240POPC   C3B 6609   1.770   5.816   8.040
  240POPC   C4B 6610   1.676   5.962   7.630
  241POPC   NC3 6611   2.296  16.083   9.466
  241POPC   PO4 6612   1.839  15.604   9.454
  241POPC   GL1 6613   2.080  15.760   9.108
  241POPC   GL2 6614   2.100  16.085   9.003
  241POPC   C1A 6615   2.226  15.563   8.746
  241POPC   D2A 6616   2.169  15.586   8.311
  241POPC   C3A 6617   1.769  15.688   8.150
  241POPC   C4A 6618   1.619  15.589   7.728
  241POPC   C1B 6619   1.841  16.392   8.789
  241POPC   C2B 6620   1.851  16.376   8.334
  241POPC   C3B 6621   2.106  16.092   8.118
  241POPC   C4B 6622   1.928  15.989   7.750
  242POPC   NC3 6623   4.904  13.879   9.495
  242POPC   PO4 6624   5.440  13.450   9.488
  242POPC   GL1 6625   5.289  13.470   9.088
  242POPC   GL2 6626   5.399  13.832   9.122
  242POPC   C1A 6627   4.887  13.472   8.835
  242POPC   D2A 6628   4.769  13.661   8.442
  242POPC   C3A 6629   4.795  13.514   8.015
  242POPC   C4A 6630   5.180  13.397   7.827
  242POPC   C1B 6631   5.218  13.828   8.699
  242POPC   C2B 6632   5.227  13.769   8.254
  242POPC   C3B 6633   5.187  13.888   7.852
  242POPC   C4B 6634   5.523  13.826   7.534
  243POPC   NC3 6635   4.678   9.909   9.691
  243POPC   PO4 6636   4.261   9.310   9.604
  243POPC   GL1 6637   4.480   9.412   9.225
  243POPC   GL2 6638   4.665   9.727   9.203
  243POPC   C1A 6639   4.310   9.565   8.818
  243POPC   D2A 6640   4.100   9.562   8.388
  243POPC   C3A 6641   4.155   9.852   8.039
  243POPC   C4A 6642   4.204   9.711   7.619
  243POPC   C1B 6643   4.693   9.916   8.768
  243POPC   C2B 6644   4.595   9.701   8.413
  243POPC   C3B 6645   4.556   9.515   8.035
  243POPC   C4B 6646   4.657   9.907   7.915
  244POPC   NC3 6647  31.333   1.846   9.826
  244POPC   PO4 6648  31.663   2.132   9.294
  244POPC   GL1 6649  31.467   1.938   8.992
  244POPC   GL2 6650  31.141   1.875   9.072
  244POPC   C1A 6651  31.436   1.975   8.581
  244POPC   D2A 6652  31.618   1.823   8.240
  244POPC   C3A 6653  31.694   1.900   7.821
  244POPC   C4A 6654  31.882   1.530   7.735
  244POPC   C1B 6655  30.956   1.975   8.717
  244POPC   C2B 6656  31.013   1.805   8.319
  244POPC   C3B 6657  31.196   1.979   7.958
  244POPC   C4B 6658  31.087   2.122   7.535
  245POPC   NC3 6659  17.633  17.398   9.618
  245POPC   PO4 6660  16.961  17.469   9.678
  245POPC   GL1 6661  17.236  17.447   9.263
  245POPC   GL2 6662  17.585  17.276   9.151
  245POPC   C1A 6663  17.284  17.436   8.786
  245POPC   D2A 6664  17.104  17.212   8.427
  245POPC   C3A 6665  17.147  17.416   8.036
  245POPC   C4A 6666  17.456  17.399   7.699
  245POPC   C1B 6667  17.779  17.506   8.809
  245POPC   C2B 6668  17.930  17.700   8.432
  245POPC   C3B 6669  17.808  17.531   8.055
  245POPC   C4B 6670  17.924  17.588   7.674
  246POPC   NC3 6671  32.663  27.425   9.345
  246POPC   PO4 6672  32.248  27.946   9.544
  246POPC   GL1 6673  32.212  27.617   9.184
  246POPC   GL2 6674  31.928  27.684   8.955
  246POPC   C1A 6675  32.441  27.558   8.769
  246POPC   D2A 6676  32.520  27.726   8.392
  246POPC   C3A 6677  32.515  27.526   8.025
  246POPC   C4A 6678  32.397  27.530   7.605
  246POPC   C1B 6679  32.034  27.264   8.750
  246POPC   C2B 6680  32.162  27.298   8.333
  246POPC   C3B 6681  32.016  27.415   7.935
  246POPC   C4B 6682  31.903  27.148   7.578
  247POPC   NC3 6683  29.267  14.666   9.470
  247POPC   PO4 6684  28.836  14.017   9.487
  247POPC   GL1 6685  29.077  14.254   9.185
  247POPC   GL2 6686  29.416  14.125   9.186
  247POPC   C1A 6687  29.016  14.489   8.789
  247POPC   D2A 6688  28.887  14.338   8.383
  247POPC   C3A 6689  28.939  14.618   8.065
  247POPC   C4A 6690  28.928  14.549   7.673
  247POPC   C1B 6691  29.521  14.330   8.807
  247POPC   C2B 6692  29.402  14.353   8.410
  247POPC   C3B 6693  29.429  14.505   8.041
  247POPC   C4B 6694  29.411  14.340   7.643
  248POPC   NC3 6695  23.183  31.023   9.510
  248POPC   PO4 6696  22.688  30.576   9.512
  248POPC   GL1 6697  22.748  30.582   9.106
  248POPC   GL2 6698  23.074  30.741   9.087
  248POPC   C1A 6699  22.739  30.702   8.697
  248POPC   D2A 6700  22.797  30.467   8.318
  248POPC   C3A 6701  22.689  30.643   7.938
  248POPC   C4A 6702  22.839  30.326   7.625
  248POPC   C1B 6703  23.241  30.744   8.657
  248POPC   C2B 6704  23.067  30.891   8.259
  248POPC   C3B 6705  23.024  31.016   7.815
  248POPC   C4B 6706  23.244  31.093   7.404
  249POPC   NC3 6707  37.057  25.049   9.468
  249POPC   PO4 6708  37.075  25.795   9.466
  249POPC   GL1 6709  37.127  25.531   9.109
  249POPC   GL2 6710  36.870  25.310   9.027
  249POPC   C1A 6711  37.252  25.378   8.692
  249POPC   D2A 6712  37.083  25.041   8.422
  249POPC   C3A 6713  37.271  25.029   8.015
  249POPC   C4A 6714  37.263  25.378   7.743
  249POPC   C1B 6715  36.553  25.055   8.862
  249POPC   C2B 6716  36.387  25.003   8.472
  249POPC   C3B 6717  36.492  24.850   8.082
  249POPC   C4B 6718  36.819  25.023   7.810
  250POPC   NC3 6719  30.250   5.671   9.435
  250POPC   PO4 6720  29.764   6.077   9.536
  250POPC   GL1 6721  29.900   5.916   9.117
  250POPC   GL2 6722  30.251   6.025   9.030
  250POPC   C1A 6723  29.880   5.925   8.657
  250POPC   D2A 6724  29.899   5.650   8.305
  250POPC   C3A 6725  29.938   5.871   7.938
  250POPC   C4A 6726  29.620   6.130   7.840
  250POPC   C1B 6727  30.254   5.603   8.790
  250POPC   C2B 6728  30.354   5.436   8.371
  250POPC   C3B 6729  30.300   5.485   7.933
  250POPC   C4B 6730  30.220   5.711   7.525
  251POPC   NC3 6731   2.091  18.806   9.492
  251POPC   PO4 6732   1.949  18.194   9.512
  251POPC   GL1 6733   2.088  18.399   9.170
  251POPC   GL2 6734   1.809  18.580   9.123
  251POPC   C1A 6735   2.248  18.382   8.766
  251POPC   D2A 6736   2.096  18.109   8.447
  251POPC   C3A 6737   2.052  18.222   8.009
  251POPC   C4A 6738   1.656  18.064   7.861
  251POPC   C1B 6739   1.749  18.327   8.759
  251POPC   C2B 6740   1.813  18.518   8.377
  251POPC   C3B 6741   1.670  18.572   7.976
  251POPC   C4B 6742   1.880  18.520   7.605
  252POPC   NC3 6743  33.787   1.128   9.482
  252POPC   PO4 6744  33.686   1.738   9.701
  252POPC   GL1 6745  33.723   1.600   9.223
  252POPC   GL2 6746  34.006   1.411   9.089
  252POPC   C1A 6747  33.568   1.374   8.803
  252POPC   D2A 6748  33.752   1.126   8.462
  252POPC   C3A 6749  33.563   1.153   8.063
  252POPC   C4A 6750  33.585   0.969   7.668
  252POPC   C1B 6751  34.046   1.520   8.667
  252POPC   C2B 6752  34.178   1.383   8.267
  252POPC   C3B 6753  34.047   1.257   7.876
  252POPC   C4B 6754  34.224   1.530   7.574
  253POPC   NC3 6755  25.051  18.402   9.408
  253POPC   PO4 6756  25.391  17.872   9.681
  253POPC   GL1 6757  25.374  17.995   9.225
  253POPC   GL2 6758  25.517  18.328   9.217
  253POPC   C1A 6759  25.155  18.032   8.781
  253POPC   D2A 6760  25.120  17.834   8.363
  253POPC   C3A 6761  25.151  18.039   7.976
  253POPC   C4A 6762  25.431  18.054   7.668
  253POPC   C1B 6763  25.539  18.363   8.794
  253POPC   C2B 6764  25.371  18.308   8.392
  253POPC   C3B 6765  25.510  18.411   8.006
  253POPC   C4B 6766  25.663  18.512   7.606
  254POPC   NC3 6767  30.254  42.350   9.538
  254POPC   PO4 6768  29.711  42.167   9.352
  254POPC   GL1 6769  30.060  42.381   9.054
  254POPC   GL2 6770  30.280  42.692   9.099
  254POPC   C1A 6771  30.356  42.316   8.687
  254POPC   D2A 6772  30.360  42.396   8.210
  254POPC   C3A 6773  29.979  42.272   7.967
  254POPC   C4A 6774  29.609  42.439   7.718
  254POPC   C1B 6775  30.254  42.802   8.639
  254POPC   C2B 6776  29.981  42.723   8.270
  254POPC   C3B 6777  30.044  42.749   7.816
  254POPC   C4B 6778  29.968  42.595   7.391
  255POPC   NC3 6779  12.369  32.112   9.229
  255POPC   PO4 6780  12.816  32.281   9.751
  255POPC   GL1 6781  12.850  32.313   9.275
  255POPC   GL2 6782  13.054  32.014   9.198
  255POPC   C1A 6783  12.805  32.373   8.780
  255POPC   D2A 6784  12.979  32.571   8.367
  255POPC   C3A 6785  12.913  32.430   7.943
  255POPC   C4A 6786  12.551  32.296   7.761
  255POPC   C1B 6787  12.995  31.841   8.774
  255POPC   C2B 6788  13.081  32.016   8.353
  255POPC   C3B 6789  12.914  31.929   7.947
  255POPC   C4B 6790  12.907  32.067   7.503
  256POPC   NC3 6791   2.132  11.037   9.375
  256POPC   PO4 6792   1.723  11.516   9.500
  256POPC   GL1 6793   1.955  11.445   9.126
  256POPC   GL2 6794   2.329  11.508   9.182
  256POPC   C1A 6795   1.820  11.344   8.715
  256POPC   D2A 6796   1.617  11.450   8.352
  256POPC   C3A 6797   1.839  11.332   7.998
  256POPC   C4A 6798   1.943  11.139   7.623
  256POPC   C1B 6799   2.343  11.296   8.784
  256POPC   C2B 6800   2.171  11.019   8.455
  256POPC   C3B 6801   2.251  11.031   8.024
  256POPC   C4B 6802   2.324  11.461   7.868
  257POPC   NC3 6803  42.289   6.078   9.424
  257POPC   PO4 6804  42.603   5.483   9.325
  257POPC   GL1 6805  42.591   5.535   8.892
  257POPC   GL2 6806  42.480   5.870   8.973
  257POPC   C1A 6807  42.520   5.685   8.456
  257POPC   D2A 6808  42.692   6.061   8.235
  257POPC   C3A 6809  42.431   6.083   7.910
  257POPC   C4A 6810  42.287   5.663   7.915
  257POPC   C1B 6811  42.110   5.748   8.755
  257POPC   C2B 6812  42.115   6.027   8.394
  257POPC   C3B 6813  41.928   6.011   8.023
  257POPC   C4B 6814  41.764   5.662   7.815
  258POPC   NC3 6815  40.089  18.347   9.509
  258POPC   PO4 6816  39.639  17.900   9.709
  258POPC   GL1 6817  39.769  17.961   9.231
  258POPC   GL2 6818  39.785  18.332   9.083
  258POPC   C1A 6819  39.995  17.981   8.793
  258POPC   D2A 6820  39.970  18.219   8.354
  258POPC   C3A 6821  39.895  18.224   7.869
  258POPC   C4A 6822  39.898  18.128   7.410
  258POPC   C1B 6823  40.117  18.514   8.764
  258POPC   C2B 6824  40.325  18.569   8.308
  258POPC   C3B 6825  40.235  18.637   7.859
  258POPC   C4B 6826  40.190  18.554   7.409
  259POPC   NC3 6827  36.285  40.879   9.628
  259POPC   PO4 6828  35.883  40.413   9.487
  259POPC   GL1 6829  36.175  40.675   9.177
  259POPC   GL2 6830  36.136  41.029   9.165
  259POPC   C1A 6831  36.276  40.845   8.734
  259POPC   D2A 6832  36.427  41.127   8.426
  259POPC   C3A 6833  36.254  40.936   8.087
  259POPC   C4A 6834  36.275  40.592   7.846
  259POPC   C1B 6835  35.876  41.147   8.781
  259POPC   C2B 6836  35.936  41.262   8.367
  259POPC   C3B 6837  35.755  41.079   8.044
  259POPC   C4B 6838  35.631  41.035   7.635
  260POPC   NC3 6839  25.065  14.076   9.535
  260POPC   PO4 6840  25.542  14.561   9.559
  260POPC   GL1 6841  25.275  14.452   9.251
  260POPC   GL2 6842  25.354  14.137   9.115
  260POPC   C1A 6843  25.148  14.586   8.883
  260POPC   D2A 6844  25.306  14.572   8.463
  260POPC   C3A 6845  25.145  14.736   8.115
  260POPC   C4A 6846  25.151  14.607   7.728
  260POPC   C1B 6847  25.311  14.107   8.677
  260POPC   C2B 6848  25.222  14.051   8.251
  260POPC   C3B 6849  25.151  14.118   7.837
  260POPC   C4B 6850  25.436  14.242   7.505
  261POPC   NC3 6851  43.512  36.485   9.280
  261POPC   PO4 6852  42.970  36.318   9.659
  261POPC   GL1 6853  42.994  36.089   9.252
  261POPC   GL2 6854  43.046  36.386   9.080
  261POPC   C1A 6855  43.173  35.960   8.817
  261POPC   D2A 6856  42.969  36.000   8.420
  261POPC   C3A 6857  43.085  36.022   8.008
  261POPC   C4A 6858  42.948  36.257   7.676
  261POPC   C1B 6859  43.181  36.442   8.667
  261POPC   C2B 6860  43.395  36.327   8.332
  261POPC   C3B 6861  43.444  36.407   7.921
  261POPC   C4B 6862  43.443  36.120   7.621
  262POPC   NC3 6863  19.316  36.601   9.407
  262POPC   PO4 6864  18.714  36.410   9.489
  262POPC   GL1 6865  18.891  36.684   9.108
  262POPC   GL2 6866  19.223  36.917   9.022
  262POPC   C1A 6867  18.840  36.860   8.703
  262POPC   D2A 6868  18.676  37.040   8.351
  262POPC   C3A 6869  18.911  36.958   8.012
  262POPC   C4A 6870  19.083  36.797   7.684
  262POPC   C1B 6871  19.444  37.152   8.691
  262POPC   C2B 6872  19.301  37.135   8.270
  262POPC   C3B 6873  19.467  37.084   7.860
  262POPC   C4B 6874  19.426  37.001   7.383
  263POPC   NC3 6875  23.513  23.995   9.402
  263POPC   PO4 6876  23.503  23.393   9.341
  263POPC   GL1 6877  23.855  23.526   9.126
  263POPC   GL2 6878  24.036  23.822   9.218
  263POPC   C1A 6879  23.800  23.505   8.717
  263POPC   D2A 6880  23.488  23.483   8.444
  263POPC   C3A 6881  23.709  23.402   8.090
  263POPC   C4A 6882  23.584  23.430   7.703
  263POPC   C1B 6883  23.906  23.998   8.804
  263POPC   C2B 6884  24.008  23.999   8.352
  263POPC   C3B 6885  23.802  23.875   7.965
  263POPC   C4B 6886  23.846  23.823   7.506
  264POPC   NC3 6887   9.103  39.807   9.336
  264POPC   PO4 6888   8.499  40.164   9.517
  264POPC   GL1 6889   8.761  40.165   9.156
  264POPC   GL2 6890   8.716  39.842   9.006
  264POPC   C1A 6891   8.891  40.192   8.705
  264POPC   D2A 6892   8.642  39.989   8.386
  264POPC   C3A 6893   8.869  40.006   7.992
  264POPC   C4A 6894   9.202  40.194   7.760
  264POPC   C1B 6895   8.883  39.596   8.703
  264POPC   C2B 6896   8.890  39.530   8.302
  264POPC   C3B 6897   8.963  39.502   7.888
  264POPC   C4B 6898   9.118  39.728   7.572
  265POPC   NC3 6899  20.093  13.798   9.516
  265POPC   PO4 6900  19.482  13.378   9.529
  265POPC   GL1 6901  19.711  13.341   9.125
  265POPC   GL2 6902  20.065  13.389   9.123
  265POPC   C1A 6903  19.815  13.481   8.697
  265POPC   D2A 6904  19.654  13.813   8.428
  265POPC   C3A 6905  19.814  13.802   7.994
  265POPC   C4A 6906  20.083  13.461   7.872
  265POPC   C1B 6907  20.280  13.697   8.878
  265POPC   C2B 6908  20.252  13.709   8.434
  265POPC   C3B 6909  20.341  13.859   8.048
  265POPC   C4B 6910  20.217  13.926   7.641
  266POPC   NC3 6911  41.175  19.064   9.764
  266POPC   PO4 6912  40.522  18.939   9.526
  266POPC   GL1 6913  40.487  18.874   9.089
  266POPC   GL2 6914  40.272  19.159   9.012
  266POPC   C1A 6915  40.832  18.934   8.776
  266POPC   D2A 6916  40.829  19.096   8.374
  266POPC   C3A 6917  41.138  19.067   8.042
  266POPC   C4A 6918  41.168  19.407   7.736
  266POPC   C1B 6919  40.337  18.976   8.604
  266POPC   C2B 6920  40.376  19.053   8.158
  266POPC   C3B 6921  40.649  19.194   7.840
  266POPC   C4B 6922  40.661  19.427   7.482
  267POPC   NC3 6923  24.648  35.801   9.604
  267POPC   PO4 6924  24.333  36.392   9.425
  267POPC   GL1 6925  24.577  36.076   9.156
  267POPC   GL2 6926  24.802  35.756   9.132
  267POPC   C1A 6927  24.560  36.189   8.734
  267POPC   D2A 6928  24.200  36.256   8.458
  267POPC   C3A 6929  24.392  36.318   8.064
  267POPC   C4A 6930  24.601  36.312   7.663
  267POPC   C1B 6931  24.621  35.668   8.735
  267POPC   C2B 6932  24.492  35.870   8.324
  267POPC   C3B 6933  24.516  35.848   7.881
  267POPC   C4B 6934  24.553  35.682   7.494
  268POPC   NC3 6935  26.620  27.489   9.458
  268POPC   PO4 6936  27.023  28.045   9.539
  268POPC   GL1 6937  26.972  27.760   9.197
  268POPC   GL2 6938  26.673  27.915   9.131
  268POPC   C1A 6939  26.785  27.515   8.834
  268POPC   D2A 6940  26.883  27.629   8.446
  268POPC   C3A 6941  26.675  27.683   8.073
  268POPC   C4A 6942  26.701  27.309   7.850
  268POPC   C1B 6943  26.397  27.857   8.797
  268POPC   C2B 6944  26.320  27.884   8.400
  268POPC   C3B 6945  26.317  28.075   8.024
  268POPC   C4B 6946  26.570  28.096   7.693
  269POPC   NC3 6947  29.407  34.273   9.441
  269POPC   PO4 6948  28.852  34.622   9.420
  269POPC   GL1 6949  29.057  34.523   9.047
  269POPC   GL2 6950  29.375  34.597   8.997
  269POPC   C1A 6951  29.011  34.449   8.601
  269POPC   D2A 6952  28.960  34.309   8.191
  269POPC   C3A 6953  29.184  34.532   7.910
  269POPC   C4A 6954  29.049  34.513   7.496
  269POPC   C1B 6955  29.451  34.246   8.749
  269POPC   C2B 6956  29.479  34.284   8.307
  269POPC   C3B 6957  29.676  34.179   7.921
  269POPC   C4B 6958  29.538  34.378   7.543
  270POPC   NC3 6959   0.155  27.284   9.570
  270POPC   PO4 6960   0.804  27.477   9.693
  270POPC   GL1 6961   0.517  27.543   9.277
  270POPC   GL2 6962   0.225  27.497   9.119
  270POPC   C1A 6963   0.564  27.786   8.867
  270POPC   D2A 6964   0.626  27.625   8.436
  270POPC   C3A 6965   0.416  27.819   8.082
  270POPC   C4A 6966   0.538  28.004   7.700
  270POPC   C1B 6967   0.140  27.558   8.708
  270POPC   C2B 6968   0.165  27.382   8.332
  270POPC   C3B 6969   0.408  27.308   8.007
  270POPC   C4B 6970   0.529  27.510   7.648
  271POPC   NC3 6971  31.614  11.528   9.641
  271POPC   PO4 6972  30.991  11.610   9.378
  271POPC   GL1 6973  31.276  11.500   9.084
  271POPC   GL2 6974  31.503  11.252   9.214
  271POPC   C1A 6975  31.413  11.677   8.692
  271POPC   D2A 6976  31.233  11.431   8.385
  271POPC   C3A 6977  31.104  11.606   7.998
  271POPC   C4A 6978  31.276  11.485   7.604
  271POPC   C1B 6979  31.736  11.324   8.852
  271POPC   C2B 6980  31.756  11.373   8.416
  271POPC   C3B 6981  31.566  11.340   8.016
  271POPC   C4B 6982  31.544  11.053   7.710
  272POPC   NC3 6983  33.291   1.829   9.463
  272POPC   PO4 6984  32.583   2.011   9.493
  272POPC   GL1 6985  32.845   2.011   9.138
  272POPC   GL2 6986  33.092   2.302   9.154
  272POPC   C1A 6987  32.924   2.079   8.715
  272POPC   D2A 6988  33.191   1.861   8.459
  272POPC   C3A 6989  32.979   1.925   8.127
  272POPC   C4A 6990  32.730   2.103   7.867
  272POPC   C1B 6991  33.338   2.376   8.759
  272POPC   C2B 6992  33.190   2.375   8.320
  272POPC   C3B 6993  33.194   2.342   7.862
  272POPC   C4B 6994  33.382   2.423   7.446
  273POPC   NC3 6995  25.570  25.794   9.364
  273POPC   PO4 6996  25.277  26.460   9.472
  273POPC   GL1 6997  25.364  26.198   9.146
  273POPC   GL2 6998  25.096  25.990   8.980
  273POPC   C1A 6999  25.555  26.128   8.750
  273POPC   D2A 7000  25.300  26.075   8.411
  273POPC   C3A 7001  25.546  26.214   8.095
  273POPC   C4A 7002  25.644  26.173   7.719
  273POPC   C1B 7003  25.345  25.661   8.728
  273POPC   C2B 7004  25.435  25.532   8.306
  273POPC   C3B 7005  25.273  25.791   7.985
  273POPC   C4B 7006  25.351  25.808   7.544
  274POPC   NC3 7007  42.467  14.553   9.498
  274POPC   PO4 7008  41.779  14.593   9.457
  274POPC   GL1 7009  41.992  14.468   9.101
  274POPC   GL2 7010  42.356  14.408   9.034
  274POPC   C1A 7011  41.955  14.418   8.666
  274POPC   D2A 7012  42.197  14.663   8.411
  274POPC   C3A 7013  42.251  14.590   7.998
  274POPC   C4A 7014  42.601  14.507   7.795
  274POPC   C1B 7015  42.258  14.017   8.808
  274POPC   C2B 7016  42.202  14.068   8.372
  274POPC   C3B 7017  42.414  14.035   8.007
  274POPC   C4B 7018  42.258  14.160   7.628
  275POPC   NC3 7019  38.620  35.727   9.450
  275POPC   PO4 7020  38.375  36.389   9.370
  275POPC   GL1 7021  38.498  36.066   9.074
  275POPC   GL2 7022  38.843  35.894   9.031
  275POPC   C1A 7023  38.327  36.103   8.672
  275POPC   D2A 7024  38.199  36.417   8.348
  275POPC   C3A 7025  38.082  36.136   8.031
  275POPC   C4A 7026  38.207  35.858   7.698
  275POPC   C1B 7027  38.837  36.223   8.706
  275POPC   C2B 7028  38.659  36.196   8.281
  275POPC   C3B 7029  38.667  35.962   7.912
  275POPC   C4B 7030  38.967  36.120   7.648
  276POPC   NC3 7031   7.154  30.016   9.842
  276POPC   PO4 7032   7.659  29.996   9.414
  276POPC   GL1 7033   7.668  29.816   9.045
  276POPC   GL2 7034   7.313  29.740   8.966
  276POPC   C1A 7035   7.576  30.041   8.682
  276POPC   D2A 7036   7.427  29.894   8.300
  276POPC   C3A 7037   7.540  30.099   7.909
  276POPC   C4A 7038   7.128  30.252   7.737
  276POPC   C1B 7039   7.178  29.487   8.627
  276POPC   C2B 7040   7.279  29.412   8.197
  276POPC   C3B 7041   7.179  29.718   7.889
  276POPC   C4B 7042   7.122  29.701   7.463
  277POPC   NC3 7043  15.702  43.379   9.595
  277POPC   PO4 7044  16.086  42.835   9.714
  277POPC   GL1 7045  15.972  43.027   9.337
  277POPC   GL2 7046  16.273  43.099   9.184
  277POPC   C1A 7047  15.804  43.127   8.917
  277POPC   D2A 7048  15.976  43.191   8.482
  277POPC   C3A 7049  15.724  43.014   8.129
  277POPC   C4A 7050  15.649  43.207   7.727
  277POPC   C1B 7051  16.378  42.944   8.763
  277POPC   C2B 7052  16.473  43.073   8.350
  277POPC   C3B 7053  16.260  43.170   8.010
  277POPC   C4B 7054  16.081  42.890   7.775
  278POPC   NC3 7055   9.087  13.453   9.558
  278POPC   PO4 7056   8.896  14.084   9.587
  278POPC   GL1 7057   8.821  13.791   9.249
  278POPC   GL2 7058   9.135  13.623   9.086
  278POPC   C1A 7059   8.690  13.702   8.854
  278POPC   D2A 7060   8.802  13.726   8.408
  278POPC   C3A 7061   8.744  13.979   8.024
  278POPC   C4A 7062   8.881  13.827   7.635
  278POPC   C1B 7063   9.029  13.335   8.730
  278POPC   C2B 7064   8.880  13.229   8.324
  278POPC   C3B 7065   9.014  13.469   8.005
  278POPC   C4B 7066   9.238  13.473   7.660
  279POPC   NC3 7067  40.244   0.984   9.755
  279POPC   PO4 7068  40.206   0.337   9.568
  279POPC   GL1 7069  40.227   0.473   9.175
  279POPC   GL2 7070  40.084   0.146   9.088
  279POPC   C1A 7071  40.208   0.482   8.726
  279POPC   D2A 7072  40.149   0.176   8.384
  279POPC   C3A 7073  40.066   0.342   7.967
  279POPC   C4A 7074  40.292   0.483   7.615
  279POPC   C1B 7075  39.762   0.219   8.752
  279POPC   C2B 7076  39.659   0.288   8.302
  279POPC   C3B 7077  39.637   0.635   8.070
  279POPC   C4B 7078  39.814   0.763   7.708
  280POPC   NC3 7079   0.998  12.587   9.448
  280POPC   PO4 7080   1.560  13.051   9.418
  280POPC   GL1 7081   1.377  12.771   9.161
  280POPC   GL2 7082   1.037  12.941   9.071
  280POPC   C1A 7083   1.316  12.683   8.757
  280POPC   D2A 7084   1.181  12.914   8.404
  280POPC   C3A 7085   1.567  12.960   8.136
  280POPC   C4A 7086   1.605  12.679   7.783
  280POPC   C1B 7087   0.831  13.217   8.766
  280POPC   C2B 7088   0.558  13.119   8.424
  280POPC   C3B 7089   0.745  12.952   8.083
  280POPC   C4B 7090   1.135  13.032   7.888
  281POPC   NC3 7091  22.543   3.888   9.461
  281POPC   PO4 7092  23.118   3.495   9.363
  281POPC   GL1 7093  22.870   3.618   9.086
  281POPC   GL2 7094  22.787   3.256   8.971
  281POPC   C1A 7095  23.061   3.714   8.690
  281POPC   D2A 7096  23.255   3.462   8.391
  281POPC   C3A 7097  22.923   3.358   8.078
  281POPC   C4A 7098  23.047   3.360   7.658
  281POPC   C1B 7099  22.566   3.572   8.700
  281POPC   C2B 7100  22.515   3.818   8.361
  281POPC   C3B 7101  22.384   3.807   7.970
  281POPC   C4B 7102  22.624   3.654   7.625
  282POPC   NC3 7103  29.687   2.266   9.401
  282POPC   PO4 7104  30.225   2.065   9.761
  282POPC   GL1 7105  30.155   1.925   9.289
  282POPC   GL2 7106  29.809   1.841   9.145
  282POPC   C1A 7107  30.209   1.766   8.854
  282POPC   D2A 7108  29.975   1.663   8.483
  282POPC   C3A 7109  30.121   1.893   8.136
  282POPC   C4A 7110  30.096   1.813   7.709
  282POPC   C1B 7111  29.888   2.150   8.765
  282POPC   C2B 7112  29.643   2.280   8.391
  282POPC   C3B 7113  29.677   2.113   7.999
  282POPC   C4B 7114  29.668   2.250   7.610
  283POPC   NC3 7115  24.397   3.204   9.548
  283POPC   PO4 7116  24.269   3.815   9.294
  283POPC   GL1 7117  24.437   3.492   9.064
  283POPC   GL2 7118  24.610   3.185   9.097
  283POPC   C1A 7119  24.488   3.567   8.635
  283POPC   D2A 7120  24.373   3.819   8.289
  283POPC   C3A 7121  24.261   3.577   7.948
  283POPC   C4A 7122  24.230   3.635   7.514
  283POPC   C1B 7123  24.855   3.232   8.753
  283POPC   C2B 7124  24.953   3.162   8.349
  283POPC   C3B 7125  24.758   3.425   8.042
  283POPC   C4B 7126  24.710   3.695   7.686
  284POPC   NC3 7127   0.733  35.253   9.600
  284POPC   PO4 7128   1.236  35.643   9.589
  284POPC   GL1 7129   0.992  35.570   9.211
  284POPC   GL2 7130   1.024  35.210   9.161
  284POPC   C1A 7131   1.114  35.525   8.775
  284POPC   D2A 7132   1.317  35.222   8.486
  284POPC   C3A 7133   1.317  35.364   8.102
  284POPC   C4A 7134   1.251  35.275   7.700
  284POPC   C1B 7135   0.811  35.139   8.746
  284POPC   C2B 7136   0.836  35.324   8.320
  284POPC   C3B 7137   0.817  35.130   7.876
  284POPC   C4B 7138   0.849  35.288   7.390
  285POPC   NC3 7139  30.410  26.756   9.318
  285POPC   PO4 7140  30.844  27.201   9.522
  285POPC   GL1 7141  30.878  26.915   9.208
  285POPC   GL2 7142  30.876  26.523   9.264
  285POPC   C1A 7143  30.723  26.977   8.812
  285POPC   D2A 7144  30.863  27.071   8.469
  285POPC   C3A 7145  30.782  26.799   8.208
  285POPC   C4A 7146  30.776  26.759   7.806
  285POPC   C1B 7147  31.035  26.571   8.848
  285POPC   C2B 7148  30.951  26.359   8.465
  285POPC   C3B 7149  30.861  26.321   8.051
  285POPC   C4B 7150  31.034  26.299   7.660
  286POPC   NC3 7151  32.214  40.331   9.744
  286POPC   PO4 7152  32.561  39.775   9.598
  286POPC   GL1 7153  32.351  40.020   9.295
  286POPC   GL2 7154  32.073  39.798   9.269
  286POPC   C1A 7155  32.475  40.057   8.849
  286POPC   D2A 7156  32.656  39.840   8.467
  286POPC   C3A 7157  32.523  39.979   8.085
  286POPC   C4A 7158  32.237  40.166   7.824
  286POPC   C1B 7159  32.102  39.705   8.829
  286POPC   C2B 7160  32.160  39.719   8.391
  286POPC   C3B 7161  32.124  39.679   7.935
  286POPC   C4B 7162  31.809  39.604   7.647
  287POPC   NC3 7163   7.487  44.248   9.440
  287POPC   PO4 7164   7.528  43.642   9.599
  287POPC   GL1 7165   7.364  43.800   9.199
  287POPC   GL2 7166   7.079  44.032   9.113
  287POPC   C1A 7167   7.335  43.673   8.784
  287POPC   D2A 7168   7.161  43.884   8.431
  287POPC   C3A 7169   7.222  43.692   8.028
  287POPC   C4A 7170   7.379  43.782   7.627
  287POPC   C1B 7171   7.398  44.196   8.811
  287POPC   C2B 7172   7.525  44.273   8.406
  287POPC   C3B 7173   7.392  44.195   7.974
  287POPC   C4B 7174   7.172  44.387   7.616
  288POPC   NC3 7175  24.981   2.547   9.583
  288POPC   PO4 7176  24.318   2.710   9.510
  288POPC   GL1 7177  24.323   2.767   9.114
  288POPC   GL2 7178  24.078   2.992   9.118
  288POPC   C1A 7179  24.597   2.775   8.738
  288POPC   D2A 7180  24.529   2.615   8.334
  288POPC   C3A 7181  24.720   2.862   8.000
  288POPC   C4A 7182  24.855   2.977   7.572
  288POPC   C1B 7183  24.244   3.122   8.738
  288POPC   C2B 7184  24.419   3.127   8.353
  288POPC   C3B 7185  24.192   3.060   7.982
  288POPC   C4B 7186  24.396   3.184   7.658
  289POPC   NC3 7187  22.563  14.341   9.566
  289POPC   PO4 7188  23.143  14.669   9.472
  289POPC   GL1 7189  23.062  14.517   9.094
  289POPC   GL2 7190  22.913  14.254   9.127
  289POPC   C1A 7191  22.993  14.551   8.637
  289POPC   D2A 7192  22.794  14.868   8.361
  289POPC   C3A 7193  22.894  14.744   7.952
  289POPC   C4A 7194  23.081  14.327   7.824
  289POPC   C1B 7195  22.583  14.478   8.912
  289POPC   C2B 7196  22.472  14.465   8.487
  289POPC   C3B 7197  22.567  14.363   8.065
  289POPC   C4B 7198  22.537  14.471   7.666
  290POPC   NC3 7199  15.958   5.683   9.652
  290POPC   PO4 7200  16.165   6.377   9.637
  290POPC   GL1 7201  16.097   6.071   9.246
  290POPC   GL2 7202  15.790   5.857   9.213
  290POPC   C1A 7203  16.279   5.926   8.807
  290POPC   D2A 7204  16.338   6.078   8.341
  290POPC   C3A 7205  16.154   5.882   7.924
  290POPC   C4A 7206  16.266   5.866   7.439
  290POPC   C1B 7207  15.759   6.021   8.820
  290POPC   C2B 7208  15.867   5.813   8.446
  290POPC   C3B 7209  15.667   5.751   8.085
  290POPC   C4B 7210  15.676   6.119   7.881
  291POPC   NC3 7211   0.853  36.800   9.430
  291POPC   PO4 7212   1.328  37.328   9.605
  291POPC   GL1 7213   1.072  37.202   9.220
  291POPC   GL2 7214   1.391  37.128   9.075
  291POPC   C1A 7215   0.985  36.924   8.822
  291POPC   D2A 7216   1.307  36.808   8.532
  291POPC   C3A 7217   1.166  36.763   8.133
  291POPC   C4A 7218   1.151  36.616   7.728
  291POPC   C1B 7219   1.233  37.346   8.727
  291POPC   C2B 7220   1.240  37.256   8.288
  291POPC   C3B 7221   1.308  37.229   7.863
  291POPC   C4B 7222   0.972  37.164   7.560
  292POPC   NC3 7223  29.326  17.996   9.539
  292POPC   PO4 7224  28.707  18.274   9.461
  292POPC   GL1 7225  28.933  18.071   9.151
  292POPC   GL2 7226  29.260  18.227   9.072
  292POPC   C1A 7227  29.002  17.949   8.740
  292POPC   D2A 7228  29.237  18.145   8.438
  292POPC   C3A 7229  29.058  18.163   8.023
  292POPC   C4A 7230  29.298  18.298   7.671
  292POPC   C1B 7231  29.018  18.496   8.748
  292POPC   C2B 7232  29.086  18.620   8.298
  292POPC   C3B 7233  28.929  18.666   7.862
  292POPC   C4B 7234  28.848  18.570   7.390
  293POPC   NC3 7235  31.206  35.092   9.452
  293POPC   PO4 7236  30.538  35.260   9.593
  293POPC   GL1 7237  30.731  35.219   9.247
  293POPC   GL2 7238  30.930  35.511   9.301
  293POPC   C1A 7239  30.688  35.081   8.846
  293POPC   D2A 7240  30.853  35.196   8.448
  293POPC   C3A 7241  30.551  35.144   8.093
  293POPC   C4A 7242  30.522  34.995   7.657
  293POPC   C1B 7243  30.879  35.551   8.860
  293POPC   C2B 7244  30.632  35.685   8.510
  293POPC   C3B 7245  30.705  35.746   8.062
  293POPC   C4B 7246  30.674  35.498   7.718
  294POPC   NC3 7247  24.343  39.469   9.530
  294POPC   PO4 7248  24.606  40.117   9.473
  294POPC   GL1 7249  24.540  39.905   9.116
  294POPC   GL2 7250  24.627  39.529   9.103
  294POPC   C1A 7251  24.440  40.165   8.761
  294POPC   D2A 7252  24.618  40.404   8.442
  294POPC   C3A 7253  24.451  40.295   8.053
  294POPC   C4A 7254  24.589  40.109   7.693
  294POPC   C1B 7255  24.693  39.707   8.678
  294POPC   C2B 7256  24.499  39.856   8.310
  294POPC   C3B 7257  24.500  39.662   7.905
  294POPC   C4B 7258  24.435  39.593   7.456
  295POPC   NC3 7259  11.515   5.711   9.381
  295POPC   PO4 7260  11.323   6.330   9.518
  295POPC   GL1 7261  11.339   6.142   9.142
  295POPC   GL2 7262  11.084   5.907   9.114
  295POPC   C1A 7263  11.391   5.972   8.721
  295POPC   D2A 7264  11.544   5.902   8.309
  295POPC   C3A 7265  11.352   6.067   7.939
  295POPC   C4A 7266  11.493   6.156   7.507
  295POPC   C1B 7267  10.886   5.776   8.764
  295POPC   C2B 7268  11.054   5.744   8.356
  295POPC   C3B 7269  11.170   5.591   7.961
  295POPC   C4B 7270  11.153   5.767   7.548
  296POPC   NC3 7271  21.336  16.131   9.567
  296POPC   PO4 7272  21.192  15.419   9.412
  296POPC   GL1 7273  21.393  15.634   9.095
  296POPC   GL2 7274  21.408  15.971   9.083
  296POPC   C1A 7275  21.440  15.695   8.638
  296POPC   D2A 7276  21.633  15.798   8.239
  296POPC   C3A 7277  21.307  15.965   7.951
  296POPC   C4A 7278  21.080  15.965   7.547
  296POPC   C1B 7279  21.426  16.205   8.710
  296POPC   C2B 7280  21.620  16.295   8.303
  296POPC   C3B 7281  21.785  16.148   7.893
  296POPC   C4B 7282  21.546  16.211   7.515
  297POPC   NC3 7283  44.648  37.659   9.712
  297POPC   PO4 7284  44.935  37.951   9.200
  297POPC   GL1 7285  44.612  37.650   9.063
  297POPC   GL2 7286  44.573  37.354   9.285
  297POPC   C1A 7287  44.458  37.605   8.598
  297POPC   D2A 7288  44.518  37.906   8.237
  297POPC   C3A 7289  44.649  37.756   7.833
  297POPC   C4A 7290  44.472  37.945   7.457
  297POPC   C1B 7291  44.602  37.187   8.862
  297POPC   C2B 7292  44.847  37.216   8.465
  297POPC   C3B 7293  44.978  37.302   8.038
  297POPC   C4B 7294  44.634  37.232   7.762
  298POPC   NC3 7295  39.394  12.891   9.755
  298POPC   PO4 7296  39.622  12.674   9.214
  298POPC   GL1 7297  39.250  12.963   8.976
  298POPC   GL2 7298  38.922  12.981   9.105
  298POPC   C1A 7299  39.055  13.285   8.679
  298POPC   D2A 7300  39.109  13.262   8.226
  298POPC   C3A 7301  39.367  12.901   8.123
  298POPC   C4A 7302  39.428  12.781   7.715
  298POPC   C1B 7303  38.796  12.836   8.686
  298POPC   C2B 7304  38.852  12.806   8.220
  298POPC   C3B 7305  38.942  12.871   7.787
  298POPC   C4B 7306  38.906  12.824   7.317
  299POPC   NC3 7307  12.038  21.225   9.724
  299POPC   PO4 7308  12.273  20.531   9.554
  299POPC   GL1 7309  12.353  20.575   9.124
  299POPC   GL2 7310  11.990  20.599   9.089
  299POPC   C1A 7311  12.276  20.813   8.724
  299POPC   D2A 7312  12.442  20.775   8.330
  299POPC   C3A 7313  12.341  20.530   7.969
  299POPC   C4A 7314  12.333  20.711   7.571
  299POPC   C1B 7315  12.011  20.377   8.707
  299POPC   C2B 7316  11.977  20.533   8.314
  299POPC   C3B 7317  11.841  20.715   7.908
  299POPC   C4B 7318  11.877  20.506   7.485
  300POPC   NC3 7319  24.237  27.093   9.437
  300POPC   PO4 7320  24.578  26.523   9.550
  300POPC   GL1 7321  24.513  26.733   9.185
  300POPC   GL2 7322  24.159  26.625   9.111
  300POPC   C1A 7323  24.637  26.919   8.789
  300POPC   D2A 7324  24.467  26.781   8.403
  300POPC   C3A 7325  24.718  26.835   8.054
  300POPC   C4A 7326  24.909  26.671   7.701
  300POPC   C1B 7327  24.107  26.956   8.786
  300POPC   C2B 7328  24.078  27.097   8.347
  300POPC   C3B 7329  24.105  26.989   7.897
  300POPC   C4B 7330  24.453  26.919   7.625
  301POPC   NC3 7331  10.893   7.652  10.011
  301POPC   PO4 7332  10.310   7.581   9.639
  301POPC   GL1 7333  10.545   7.643   9.242
  301POPC   GL2 7334  10.898   7.767   9.313
  301POPC   C1A 7335  10.626   7.474   8.812
  301POPC   D2A 7336  10.461   7.442   8.372
  301POPC   C3A 7337  10.712   7.253   8.009
  301POPC   C4A 7338  10.570   7.267   7.563
  301POPC   C1B 7339  10.918   7.894   8.876
  301POPC   C2B 7340  10.774   7.864   8.428
  301POPC   C3B 7341  10.682   7.755   7.969
  301POPC   C4B 7342  10.995   7.900   7.672
  302POPC   NC3 7343  34.842  31.176   9.450
  302POPC   PO4 7344  34.662  31.726   9.449
  302POPC   GL1 7345  34.513  31.400   9.137
  302POPC   GL2 7346  34.775  31.378   8.971
  302POPC   C1A 7347  34.314  31.533   8.783
  302POPC   D2A 7348  34.592  31.716   8.486
  302POPC   C3A 7349  34.564  31.461   8.142
  302POPC   C4A 7350  34.541  31.450   7.720
  302POPC   C1B 7351  35.021  31.671   8.798
  302POPC   C2B 7352  35.165  31.776   8.400
  302POPC   C3B 7353  34.932  31.810   8.033
  302POPC   C4B 7354  34.738  31.947   7.662
  303POPC   NC3 7355  36.436   1.398   9.509
  303POPC   PO4 7356  35.778   1.386   9.424
  303POPC   GL1 7357  35.995   1.379   9.078
  303POPC   GL2 7358  36.324   1.215   9.059
  303POPC   C1A 7359  35.962   1.228   8.688
  303POPC   D2A 7360  36.039   1.084   8.313
  303POPC   C3A 7361  36.122   1.418   8.025
  303POPC   C4A 7362  35.952   1.137   7.733
  303POPC   C1B 7363  36.338   0.852   8.788
  303POPC   C2B 7364  36.478   0.794   8.362
  303POPC   C3B 7365  36.391   0.969   7.949
  303POPC   C4B 7366  36.454   0.994   7.506
  304POPC   NC3 7367  39.499  35.521   9.550
  304POPC   PO4 7368  38.887  35.075   9.547
  304POPC   GL1 7369  39.173  35.267   9.241
  304POPC   GL2 7370  39.336  35.006   9.027
  304POPC   C1A 7371  39.142  35.435   8.841
  304POPC   D2A 7372  39.154  35.148   8.499
  304POPC   C3A 7373  39.139  35.352   8.097
  304POPC   C4A 7374  38.999  35.581   7.744
  304POPC   C1B 7375  39.640  35.088   8.708
  304POPC   C2B 7376  39.611  35.099   8.284
  304POPC   C3B 7377  39.385  34.915   7.978
  304POPC   C4B 7378  39.389  35.191   7.644
  305POPC   NC3 7379  33.658  42.777   9.484
  305POPC   PO4 7380  34.088  43.212   9.512
  305POPC   GL1 7381  33.878  43.106   9.136
  305POPC   GL2 7382  34.004  42.795   9.069
  305POPC   C1A 7383  33.816  43.192   8.700
  305POPC   D2A 7384  33.737  43.083   8.303
  305POPC   C3A 7385  33.867  43.314   7.980
  305POPC   C4A 7386  33.689  43.746   7.893
  305POPC   C1B 7387  33.669  42.714   8.773
  305POPC   C2B 7388  33.548  42.605   8.372
  305POPC   C3B 7389  33.548  42.763   7.954
  305POPC   C4B 7390  33.802  42.934   7.619
  306POPC   NC3 7391  16.461  43.094   9.768
  306POPC   PO4 7392  16.907  43.265   9.339
  306POPC   GL1 7393  16.779  43.087   9.033
  306POPC   GL2 7394  16.795  42.762   9.100
  306POPC   C1A 7395  16.823  43.256   8.660
  306POPC   D2A 7396  17.009  43.523   8.370
  306POPC   C3A 7397  16.823  43.380   8.003
  306POPC   C4A 7398  16.969  43.369   7.587
  306POPC   C1B 7399  16.898  42.683   8.676
  306POPC   C2B 7400  16.961  42.898   8.283
  306POPC   C3B 7401  16.711  42.891   7.909
  306POPC   C4B 7402  16.897  42.871   7.538
  307POPC   NC3 7403  16.946  23.440   9.411
  307POPC   PO4 7404  17.491  23.853   9.488
  307POPC   GL1 7405  17.617  23.787   9.073
  307POPC   GL2 7406  17.529  23.473   9.140
  307POPC   C1A 7407  17.714  23.855   8.656
  307POPC   D2A 7408  17.317  23.885   8.430
  307POPC   C3A 7409  17.376  23.729   8.023
  307POPC   C4A 7410  17.737  23.885   7.796
  307POPC   C1B 7411  17.325  23.476   8.773
  307POPC   C2B 7412  17.570  23.419   8.421
  307POPC   C3B 7413  17.825  23.472   8.110
  307POPC   C4B 7414  17.677  23.386   7.715
  308POPC   NC3 7415  12.204  14.857   9.324
  308POPC   PO4 7416  12.250  15.413   9.326
  308POPC   GL1 7417  12.376  15.210   8.974
  308POPC   GL2 7418  12.639  15.001   9.054
  308POPC   C1A 7419  12.172  15.202   8.583
  308POPC   D2A 7420  11.887  15.411   8.300
  308POPC   C3A 7421  11.852  15.189   7.909
  308POPC   C4A 7422  12.018  15.365   7.538
  308POPC   C1B 7423  12.482  14.645   8.789
  308POPC   C2B 7424  12.277  14.708   8.429
  308POPC   C3B 7425  12.362  14.970   8.101
  308POPC   C4B 7426  12.283  14.933   7.696
  309POPC   NC3 7427  28.105   4.289   9.546
  309POPC   PO4 7428  28.740   4.400   9.487
  309POPC   GL1 7429  28.421   4.373   9.140
  309POPC   GL2 7430  28.116   4.155   9.066
  309POPC   C1A 7431  28.406   4.317   8.675
  309POPC   D2A 7432  28.567   4.646   8.401
  309POPC   C3A 7433  28.402   4.624   7.995
  309POPC   C4A 7434  28.646   4.596   7.580
  309POPC   C1B 7435  27.933   4.118   8.669
  309POPC   C2B 7436  28.070   4.168   8.223
  309POPC   C3B 7437  28.083   4.046   7.758
  309POPC   C4B 7438  27.939   4.157   7.307
  310POPC   NC3 7439  39.590  40.717   9.504
  310POPC   PO4 7440  38.953  40.673   9.469
  310POPC   GL1 7441  39.130  40.903   9.147
  310POPC   GL2 7442  39.419  41.080   9.190
  310POPC   C1A 7443  39.164  40.764   8.739
  310POPC   D2A 7444  38.960  40.590   8.399
  310POPC   C3A 7445  39.059  40.846   8.049
  310POPC   C4A 7446  39.194  40.771   7.661
  310POPC   C1B 7447  39.510  41.142   8.783
  310POPC   C2B 7448  39.694  41.174   8.389
  310POPC   C3B 7449  39.572  40.979   8.038
  310POPC   C4B 7450  39.422  41.215   7.713
  311POPC   NC3 7451  34.962  14.706   9.439
  311POPC   PO4 7452  34.492  14.226   9.622
  311POPC   GL1 7453  34.547  14.332   9.223
  311POPC   GL2 7454  34.524  14.678   9.158
  311POPC   C1A 7455  34.402  14.233   8.781
  311POPC   D2A 7456  34.154  14.405   8.448
  311POPC   C3A 7457  34.443  14.420   8.121
  311POPC   C4A 7458  34.522  14.181   7.813
  311POPC   C1B 7459  34.853  14.453   8.850
  311POPC   C2B 7460  35.016  14.581   8.483
  311POPC   C3B 7461  34.913  14.633   8.080
  311POPC   C4B 7462  34.883  14.502   7.681
  312POPC   NC3 7463   5.745  37.439   9.522
  312POPC   PO4 7464   5.844  36.729   9.497
  312POPC   GL1 7465   5.686  36.921   9.119
  312POPC   GL2 7466   5.867  37.227   9.056
  312POPC   C1A 7467   5.559  36.928   8.679
  312POPC   D2A 7468   5.459  37.162   8.320
  312POPC   C3A 7469   5.554  36.950   7.951
  312POPC   C4A 7470   5.499  36.755   7.561
  312POPC   C1B 7471   6.071  36.946   8.729
  312POPC   C2B 7472   5.946  36.853   8.299
  312POPC   C3B 7473   6.098  36.761   7.896
  312POPC   C4B 7474   5.978  36.897   7.472
  313POPC   NC3 7475  38.506  29.955   9.499
  313POPC   PO4 7476  38.805  29.449   9.696
  313POPC   GL1 7477  38.677  29.628   9.168
  313POPC   GL2 7478  38.286  29.815   9.082
  313POPC   C1A 7479  38.511  29.584   8.722
  313POPC   D2A 7480  38.436  29.686   8.299
  313POPC   C3A 7481  38.800  29.778   8.073
  313POPC   C4A 7482  38.568  29.659   7.736
  313POPC   C1B 7483  38.087  29.999   8.749
  313POPC   C2B 7484  38.000  30.151   8.359
  313POPC   C3B 7485  38.053  29.946   7.994
  313POPC   C4B 7486  38.044  30.161   7.623
  314POPC   NC3 7487  44.641  19.485   9.549
  314POPC   PO4 7488   0.020  19.923   9.463
  314POPC   GL1 7489  44.883  19.699   9.125
  314POPC   GL2 7490  44.615  19.935   9.115
  314POPC   C1A 7491  44.839  19.674   8.665
  314POPC   D2A 7492  44.682  19.447   8.291
  314POPC   C3A 7493  44.728  19.645   7.914
  314POPC   C4A 7494  44.295  19.753   7.932
  314POPC   C1B 7495  44.607  20.144   8.727
  314POPC   C2B 7496  44.537  19.977   8.326
  314POPC   C3B 7497  44.609  20.144   7.915
  314POPC   C4B 7498  44.793  20.161   7.506
  315POPC   NC3 7499   7.934  19.154   9.566
  315POPC   PO4 7500   8.560  19.037   9.649
  315POPC   GL1 7501   8.325  19.027   9.234
  315POPC   GL2 7502   8.370  18.683   9.132
  315POPC   C1A 7503   8.231  19.232   8.810
  315POPC   D2A 7504   8.488  19.302   8.438
  315POPC   C3A 7505   8.288  19.261   8.018
  315POPC   C4A 7506   8.326  19.158   7.572
  315POPC   C1B 7507   8.165  18.714   8.767
  315POPC   C2B 7508   8.231  18.864   8.357
  315POPC   C3B 7509   8.243  18.736   7.926
  315POPC   C4B 7510   8.078  18.720   7.518
  316POPC   NC3 7511  15.257  11.636   9.849
  316POPC   PO4 7512  14.936  11.452   9.302
  316POPC   GL1 7513  14.976  11.267   8.970
  316POPC   GL2 7514  14.788  11.522   8.824
  316POPC   C1A 7515  15.318  11.101   8.775
  316POPC   D2A 7516  15.482  11.132   8.358
  316POPC   C3A 7517  15.298  11.330   8.007
  316POPC   C4A 7518  15.097  11.371   7.596
  316POPC   C1B 7519  15.155  11.545   8.598
  316POPC   C2B 7520  15.049  11.690   8.264
  316POPC   C3B 7521  14.894  11.722   7.920
  316POPC   C4B 7522  14.584  11.569   7.661
  317POPC   NC3 7523  23.347  29.220   9.384
  317POPC   PO4 7524  22.775  28.858   9.469
  317POPC   GL1 7525  22.901  28.890   9.060
  317POPC   GL2 7526  22.920  29.213   9.054
  317POPC   C1A 7527  22.880  28.961   8.592
  317POPC   D2A 7528  23.174  29.040   8.257
  317POPC   C3A 7529  23.071  28.928   7.878
  317POPC   C4A 7530  23.298  29.201   7.672
  317POPC   C1B 7531  22.631  29.364   8.758
  317POPC   C2B 7532  22.806  29.432   8.340
  317POPC   C3B 7533  22.878  29.417   7.917
  317POPC   C4B 7534  22.527  29.448   7.646
  318POPC   NC3 7535  33.213  12.477   9.503
  318POPC   PO4 7536  33.412  13.073   9.579
  318POPC   GL1 7537  33.151  12.915   9.210
  318POPC   GL2 7538  32.795  13.072   9.184
  318POPC   C1A 7539  33.045  12.650   8.836
  318POPC   D2A 7540  33.052  12.855   8.425
  318POPC   C3A 7541  32.876  12.785   8.028
  318POPC   C4A 7542  32.956  12.983   7.638
  318POPC   C1B 7543  32.641  12.948   8.768
  318POPC   C2B 7544  32.548  13.031   8.338
  318POPC   C3B 7545  32.561  13.201   7.898
  318POPC   C4B 7546  32.573  13.287   7.412
  319POPC   NC3 7547  34.463  37.441   9.518
  319POPC   PO4 7548  35.033  37.098   9.503
  319POPC   GL1 7549  34.730  37.152   9.133
  319POPC   GL2 7550  34.462  36.883   8.992
  319POPC   C1A 7551  34.904  36.976   8.745
  319POPC   D2A 7552  35.110  37.041   8.360
  319POPC   C3A 7553  34.871  37.094   7.948
  319POPC   C4A 7554  34.621  36.826   7.660
  319POPC   C1B 7555  34.381  36.443   8.769
  319POPC   C2B 7556  34.178  36.299   8.360
  319POPC   C3B 7557  34.317  36.461   7.944
  319POPC   C4B 7558  34.375  36.421   7.468
  320POPC   NC3 7559  35.846  33.764   9.302
  320POPC   PO4 7560  36.540  33.708   9.430
  320POPC   GL1 7561  36.448  33.454   9.047
  320POPC   GL2 7562  36.091  33.491   8.889
  320POPC   C1A 7563  36.518  33.524   8.599
  320POPC   D2A 7564  36.198  33.666   8.326
  320POPC   C3A 7565  36.220  33.724   7.891
  320POPC   C4A 7566  36.128  33.464   7.512
  320POPC   C1B 7567  36.188  33.917   8.778
  320POPC   C2B 7568  36.099  34.196   8.431
  320POPC   C3B 7569  35.917  34.119   8.063
  320POPC   C4B 7570  35.940  34.081   7.667
  321POPC   NC3 7571  26.226  33.859   9.594
  321POPC   PO4 7572  25.556  33.742   9.587
  321POPC   GL1 7573  25.878  33.794   9.227
  321POPC   GL2 7574  25.957  34.150   9.133
  321POPC   C1A 7575  26.186  33.763   8.866
  321POPC   D2A 7576  26.236  33.866   8.417
  321POPC   C3A 7577  26.186  33.543   8.095
  321POPC   C4A 7578  26.429  33.514   7.715
  321POPC   C1B 7579  25.838  34.138   8.684
  321POPC   C2B 7580  25.726  34.101   8.232
  321POPC   C3B 7581  25.902  34.054   7.794
  321POPC   C4B 7582  25.750  34.140   7.337
  322POPC   NC3 7583  18.427  14.925   9.407
  322POPC   PO4 7584  18.383  15.563   9.595
  322POPC   GL1 7585  18.415  15.489   9.166
  322POPC   GL2 7586  18.077  15.361   9.134
  322POPC   C1A 7587  18.486  15.265   8.759
  322POPC   D2A 7588  18.769  15.033   8.468
  322POPC   C3A 7589  18.675  15.131   8.020
  322POPC   C4A 7590  18.521  14.997   7.567
  322POPC   C1B 7591  18.139  15.695   8.809
  322POPC   C2B 7592  18.295  15.762   8.375
  322POPC   C3B 7593  18.259  15.408   8.097
  322POPC   C4B 7594  18.095  15.253   7.718
  323POPC   NC3 7595  33.760  35.299   9.643
  323POPC   PO4 7596  33.418  35.718   9.263
  323POPC   GL1 7597  33.717  35.434   9.126
  323POPC   GL2 7598  33.802  35.111   9.185
  323POPC   C1A 7599  33.889  35.405   8.737
  323POPC   D2A 7600  33.609  35.408   8.410
  323POPC   C3A 7601  33.745  35.568   8.025
  323POPC   C4A 7602  33.466  35.779   7.751
  323POPC   C1B 7603  33.580  35.013   8.844
  323POPC   C2B 7604  33.707  34.911   8.438
  323POPC   C3B 7605  33.583  35.063   8.031
  323POPC   C4B 7606  33.875  35.168   7.709
  324POPC   NC3 7607  30.525  11.619   9.472
  324POPC   PO4 7608  30.254  11.021   9.709
  324POPC   GL1 7609  30.306  11.219   9.249
  324POPC   GL2 7610  30.663  11.278   9.114
  324POPC   C1A 7611  30.269  11.455   8.821
  324POPC   D2A 7612  30.478  11.672   8.438
  324POPC   C3A 7613  30.608  11.382   8.085
  324POPC   C4A 7614  30.518  11.035   7.787
  324POPC   C1B 7615  30.953  11.177   8.767
  324POPC   C2B 7616  30.933  11.026   8.320
  324POPC   C3B 7617  31.020  11.119   7.867
  324POPC   C4B 7618  30.765  11.424   7.568
  325POPC   NC3 7619  17.715  20.875   9.627
  325POPC   PO4 7620  18.392  20.887   9.591
  325POPC   GL1 7621  18.206  20.658   9.197
  325POPC   GL2 7622  18.168  20.299   9.162
  325POPC   C1A 7623  18.205  20.722   8.724
  325POPC   D2A 7624  18.008  20.931   8.355
  325POPC   C3A 7625  18.167  21.018   7.970
  325POPC   C4A 7626  18.160  20.767   7.625
  325POPC   C1B 7627  17.909  20.254   8.788
  325POPC   C2B 7628  17.908  20.413   8.380
  325POPC   C3B 7629  18.216  20.488   8.077
  325POPC   C4B 7630  18.267  20.199   7.759
  326POPC   NC3 7631  34.119  14.013   9.405
  326POPC   PO4 7632  33.711  13.587   9.640
  326POPC   GL1 7633  33.653  13.680   9.212
  326POPC   GL2 7634  33.967  13.579   9.028
  326POPC   C1A 7635  33.526  13.566   8.794
  326POPC   D2A 7636  33.765  13.298   8.556
  326POPC   C3A 7637  33.705  13.313   8.109
  326POPC   C4A 7638  33.806  13.576   7.771
  326POPC   C1B 7639  34.275  13.741   8.712
  326POPC   C2B 7640  34.364  13.918   8.276
  326POPC   C3B 7641  34.337  13.703   7.837
  326POPC   C4B 7642  34.186  13.506   7.435
  327POPC   NC3 7643  13.868   7.216   9.919
  327POPC   PO4 7644  13.322   7.354   9.640
  327POPC   GL1 7645  13.471   7.460   9.190
  327POPC   GL2 7646  13.476   7.165   9.006
  327POPC   C1A 7647  13.482   7.644   8.756
  327POPC   D2A 7648  13.544   7.397   8.350
  327POPC   C3A 7649  13.583   7.633   7.944
  327POPC   C4A 7650  13.233   7.787   7.669
  327POPC   C1B 7651  13.868   7.203   8.737
  327POPC   C2B 7652  14.068   7.016   8.390
  327POPC   C3B 7653  13.862   7.125   8.022
  327POPC   C4B 7654  13.816   7.272   7.648
  328POPC   NC3 7655   9.993   0.827   9.495
  328POPC   PO4 7656   9.480   1.264   9.476
  328POPC   GL1 7657   9.817   1.222   9.198
  328POPC   GL2 7658   9.666   0.897   9.112
  328POPC   C1A 7659  10.078   1.064   8.865
  328POPC   D2A 7660  10.117   0.999   8.462
  328POPC   C3A 7661   9.812   1.234   8.250
  328POPC   C4A 7662   9.882   1.318   7.814
  328POPC   C1B 7663   9.567   1.115   8.745
  328POPC   C2B 7664   9.348   1.029   8.384
  328POPC   C3B 7665   9.457   0.938   7.978
  328POPC   C4B 7666   9.414   1.168   7.623
  329POPC   NC3 7667   3.664  16.666   9.327
  329POPC   PO4 7668   2.998  17.028   9.470
  329POPC   GL1 7669   3.228  16.813   9.135
  329POPC   GL2 7670   3.415  17.063   9.121
  329POPC   C1A 7671   3.447  16.677   8.714
  329POPC   D2A 7672   3.676  16.653   8.305
  329POPC   C3A 7673   3.383  16.696   7.940
  329POPC   C4A 7674   3.184  16.421   7.678
  329POPC   C1B 7675   3.549  17.169   8.741
  329POPC   C2B 7676   3.388  17.070   8.328
  329POPC   C3B 7677   3.654  17.111   7.952
  329POPC   C4B 7678   3.612  16.990   7.516
  330POPC   NC3 7679  31.809  17.952   9.493
  330POPC   PO4 7680  31.243  18.286   9.488
  330POPC   GL1 7681  31.328  18.332   9.084
  330POPC   GL2 7682  31.662  18.172   9.040
  330POPC   C1A 7683  31.356  18.399   8.662
  330POPC   D2A 7684  31.667  18.212   8.422
  330POPC   C3A 7685  31.586  18.405   8.054
  330POPC   C4A 7686  31.572  18.362   7.647
  330POPC   C1B 7687  31.808  18.549   8.815
  330POPC   C2B 7688  31.705  18.742   8.433
  330POPC   C3B 7689  31.960  18.804   8.083
  330POPC   C4B 7690  32.040  18.604   7.691
  331POPC   NC3 7691  38.243  26.422  10.071
  331POPC   PO4 7692  38.415  26.803   9.544
  331POPC   GL1 7693  38.640  26.761   9.202
  331POPC   GL2 7694  38.559  27.119   9.139
  331POPC   C1A 7695  38.484  26.551   8.839
  331POPC   D2A 7696  38.560  26.457   8.428
  331POPC   C3A 7697  38.348  26.566   8.043
  331POPC   C4A 7698  38.451  26.623   7.635
  331POPC   C1B 7699  38.588  27.042   8.731
  331POPC   C2B 7700  38.424  26.981   8.326
  331POPC   C3B 7701  38.681  26.971   7.949
  331POPC   C4B 7702  38.666  27.263   7.628
  332POPC   NC3 7703  39.383  44.609   9.865
  332POPC   PO4 7704  38.903  44.943   9.737
  332POPC   GL1 7705  38.969  44.794   9.308
  332POPC   GL2 7706  39.265  44.575   9.287
  332POPC   C1A 7707  39.155  44.900   8.917
  332POPC   D2A 7708  39.198  44.717   8.513
  332POPC   C3A 7709  39.298  44.940   8.172
  332POPC   C4A 7710  39.213  44.816   7.772
  332POPC   C1B 7711  39.535  44.545   8.868
  332POPC   C2B 7712  39.545  44.338   8.465
  332POPC   C3B 7713  39.553  44.496   8.030
  332POPC   C4B 7714  39.446  44.378   7.609
  333POPC   NC3 7715  33.373  17.665   9.479
  333POPC   PO4 7716  33.040  17.113   9.585
  333POPC   GL1 7717  33.031  17.454   9.181
  333POPC   GL2 7718  33.293  17.261   9.151
  333POPC   C1A 7719  32.933  17.727   8.800
  333POPC   D2A 7720  32.844  17.498   8.441
  333POPC   C3A 7721  32.765  17.680   8.070
  333POPC   C4A 7722  32.965  17.641   7.703
  333POPC   C1B 7723  33.339  17.420   8.760
  333POPC   C2B 7724  33.315  17.257   8.381
  333POPC   C3B 7725  33.294  17.399   7.985
  333POPC   C4B 7726  33.170  17.189   7.613
  334POPC   NC3 7727  10.744   1.290   9.510
  334POPC   PO4 7728  10.348   0.813   9.767
  334POPC   GL1 7729  10.352   1.095   9.281
  334POPC   GL2 7730  10.577   0.990   9.012
  334POPC   C1A 7731  10.416   1.430   8.862
  334POPC   D2A 7732  10.537   1.335   8.433
  334POPC   C3A 7733  10.339   1.224   8.053
  334POPC   C4A 7734  10.425   1.379   7.653
  334POPC   C1B 7735  10.581   0.842   8.610
  334POPC   C2B 7736  10.851   0.951   8.293
  334POPC   C3B 7737  10.881   1.194   7.964
  334POPC   C4B 7738  10.671   0.958   7.722
  335POPC   NC3 7739  32.255   1.726   9.653
  335POPC   PO4 7740  32.411   1.065   9.572
  335POPC   GL1 7741  32.245   0.943   9.188
  335POPC   GL2 7742  32.190   1.288   9.131
  335POPC   C1A 7743  31.983   0.952   8.790
  335POPC   D2A 7744  31.898   1.270   8.473
  335POPC   C3A 7745  32.166   1.338   8.121
  335POPC   C4A 7746  32.233   1.040   7.811
  335POPC   C1B 7747  32.348   1.355   8.731
  335POPC   C2B 7748  32.581   1.226   8.392
  335POPC   C3B 7749  32.690   1.122   8.002
  335POPC   C4B 7750  32.757   1.296   7.554
  336POPC   NC3 7751  16.417  16.218   9.653
  336POPC   PO4 7752  16.993  15.998   9.472
  336POPC   GL1 7753  16.895  15.961   9.075
  336POPC   GL2 7754  16.550  15.959   9.145
  336POPC   C1A 7755  16.819  15.960   8.645
  336POPC   D2A 7756  16.916  16.262   8.349
  336POPC   C3A 7757  17.043  16.107   7.994
  336POPC   C4A 7758  16.804  15.903   7.678
  336POPC   C1B 7759  16.473  16.280   8.871
  336POPC   C2B 7760  16.351  16.215   8.440
  336POPC   C3B 7761  16.462  15.990   8.054
  336POPC   C4B 7762  16.294  15.790   7.660
  337POPC   NC3 7763   6.840  23.947   9.504
  337POPC   PO4 7764   6.242  23.657   9.699
  337POPC   GL1 7765   6.384  23.803   9.270
  337POPC   GL2 7766   6.687  23.686   9.105
  337POPC   C1A 7767   6.305  23.829   8.803
  337POPC   D2A 7768   6.545  23.795   8.422
  337POPC   C3A 7769   6.533  23.454   8.170
  337POPC   C4A 7770   6.595  23.589   7.765
  337POPC   C1B 7771   6.926  23.805   8.749
  337POPC   C2B 7772   7.239  23.732   8.441
  337POPC   C3B 7773   6.991  23.716   8.086
  337POPC   C4B 7774   7.015  23.892   7.705
  338POPC   NC3 7775   0.967  38.499   9.587
  338POPC   PO4 7776   1.551  38.251   9.607
  338POPC   GL1 7777   1.339  38.488   9.258
  338POPC   GL2 7778   1.198  38.202   9.169
  338POPC   C1A 7779   1.190  38.793   8.928
  338POPC   D2A 7780   1.366  38.849   8.517
  338POPC   C3A 7781   1.211  38.679   8.144
  338POPC   C4A 7782   1.352  38.638   7.737
  338POPC   C1B 7783   1.072  38.333   8.755
  338POPC   C2B 7784   1.127  38.214   8.349
  338POPC   C3B 7785   0.925  38.246   7.964
  338POPC   C4B 7786   1.159  38.181   7.606
  339POPC   NC3 7787   9.868  12.118   9.765
  339POPC   PO4 7788   9.390  11.684   9.599
  339POPC   GL1 7789   9.503  12.025   9.287
  339POPC   GL2 7790   9.877  12.095   9.260
  339POPC   C1A 7791   9.576  12.062   8.842
  339POPC   D2A 7792   9.800  11.822   8.532
  339POPC   C3A 7793   9.784  11.951   8.105
  339POPC   C4A 7794   9.839  11.669   7.772
  339POPC   C1B 7795  10.072  12.122   8.855
  339POPC   C2B 7796  10.030  12.299   8.447
  339POPC   C3B 7797  10.210  12.280   8.044
  339POPC   C4B 7798  10.096  12.085   7.652
  340POPC   NC3 7799  42.352  15.562   9.500
  340POPC   PO4 7800  42.050  16.116   9.431
  340POPC   GL1 7801  42.035  15.789   9.190
  340POPC   GL2 7802  42.311  15.932   9.024
  340POPC   C1A 7803  41.925  15.663   8.813
  340POPC   D2A 7804  42.171  15.796   8.500
  340POPC   C3A 7805  42.031  15.876   8.107
  340POPC   C4A 7806  42.256  15.935   7.729
  340POPC   C1B 7807  42.642  15.928   8.721
  340POPC   C2B 7808  42.879  15.892   8.334
  340POPC   C3B 7809  42.730  15.917   7.918
  340POPC   C4B 7810  42.675  15.659   7.556
  341POPC   NC3 7811  33.407  26.032   9.579
  341POPC   PO4 7812  32.733  26.027   9.582
  341POPC   GL1 7813  32.913  26.251   9.219
  341POPC   GL2 7814  33.181  26.026   9.125
  341POPC   C1A 7815  32.898  26.235   8.762
  341POPC   D2A 7816  32.996  25.911   8.451
  341POPC   C3A 7817  32.985  26.020   8.017
  341POPC   C4A 7818  32.857  26.116   7.638
  341POPC   C1B 7819  33.279  25.701   8.831
  341POPC   C2B 7820  33.461  25.664   8.412
  341POPC   C3B 7821  33.315  25.627   8.021
  341POPC   C4B 7822  33.304  25.840   7.638
  342POPC   NC3 7823  21.262  19.303   9.488
  342POPC   PO4 7824  21.707  18.818   9.421
  342POPC   GL1 7825  21.266  18.864   9.214
  342POPC   GL2 7826  21.403  19.129   9.030
  342POPC   C1A 7827  21.076  18.863   8.769
  342POPC   D2A 7828  21.311  18.973   8.377
  342POPC   C3A 7829  21.140  19.110   7.968
  342POPC   C4A 7830  21.249  18.938   7.547
  342POPC   C1B 7831  21.599  19.283   8.674
  342POPC   C2B 7832  21.515  19.429   8.240
  342POPC   C3B 7833  21.624  19.239   7.845
  342POPC   C4B 7834  21.661  19.194   7.373
  343POPC   NC3 7835   9.859  39.554   9.429
  343POPC   PO4 7836   9.481  40.087   9.346
  343POPC   GL1 7837   9.860  39.993   9.085
  343POPC   GL2 7838   9.972  39.664   8.939
  343POPC   C1A 7839   9.820  40.049   8.639
  343POPC   D2A 7840   9.593  40.184   8.287
  343POPC   C3A 7841   9.943  40.206   8.084
  343POPC   C4A 7842  10.107  40.284   7.702
  343POPC   C1B 7843   9.511  39.666   8.821
  343POPC   C2B 7844   9.273  39.821   8.469
  343POPC   C3B 7845   9.358  39.794   8.027
  343POPC   C4B 7846   9.655  39.998   7.737
  344POPC   NC3 7847  27.286  36.741   9.391
  344POPC   PO4 7848  27.812  37.139   9.341
  344POPC   GL1 7849  27.613  36.893   9.017
  344POPC   GL2 7850  27.247  36.929   8.926
  344POPC   C1A 7851  27.686  36.833   8.591
  344POPC   D2A 7852  27.531  36.989   8.254
  344POPC   C3A 7853  27.736  37.001   7.905
  344POPC   C4A 7854  27.400  37.007   7.638
  344POPC   C1B 7855  27.378  36.480   8.776
  344POPC   C2B 7856  27.489  36.435   8.319
  344POPC   C3B 7857  27.444  36.565   7.891
  344POPC   C4B 7858  27.306  36.539   7.433
  345POPC   NC3 7859   7.103  39.805   9.431
  345POPC   PO4 7860   7.359  40.425   9.671
  345POPC   GL1 7861   7.312  40.231   9.234
  345POPC   GL2 7862   7.568  39.989   9.273
  345POPC   C1A 7863   7.316  40.027   8.802
  345POPC   D2A 7864   7.553  39.880   8.413
  345POPC   C3A 7865   7.251  39.909   8.090
  345POPC   C4A 7866   7.170  40.135   7.744
  345POPC   C1B 7867   7.808  40.076   8.904
  345POPC   C2B 7868   7.729  40.333   8.572
  345POPC   C3B 7869   7.551  40.346   8.169
  345POPC   C4B 7870   7.693  40.063   7.846
  346POPC   NC3 7871   3.483  28.508   9.514
  346POPC   PO4 7872   4.032  28.144   9.526
  346POPC   GL1 7873   3.787  28.308   9.166
  346POPC   GL2 7874   3.432  28.153   9.165
  346POPC   C1A 7875   3.604  28.413   8.767
  346POPC   D2A 7876   3.726  28.313   8.363
  346POPC   C3A 7877   3.603  28.617   8.067
  346POPC   C4A 7878   3.687  28.511   7.636
  346POPC   C1B 7879   3.229  28.040   8.792
  346POPC   C2B 7880   3.384  27.936   8.398
  346POPC   C3B 7881   3.363  28.151   8.000
  346POPC   C4B 7882   3.420  28.097   7.515
  347POPC   NC3 7883  20.159   8.544   9.467
  347POPC   PO4 7884  19.744   8.056   9.314
  347POPC   GL1 7885  19.605   8.421   9.065
  347POPC   GL2 7886  19.938   8.420   9.029
  347POPC   C1A 7887  19.615   8.399   8.599
  347POPC   D2A 7888  19.744   8.029   8.324
  347POPC   C3A 7889  19.776   8.131   7.879
  347POPC   C4A 7890  19.496   8.411   7.696
  347POPC   C1B 7891  20.075   8.598   8.737
  347POPC   C2B 7892  20.091   8.393   8.333
  347POPC   C3B 7893  20.088   8.537   7.905
  347POPC   C4B 7894  19.962   8.423   7.491
  348POPC   NC3 7895   6.959  41.774   9.335
  348POPC   PO4 7896   6.336  41.723   9.273
  348POPC   GL1 7897   6.607  41.708   8.975
  348POPC   GL2 7898   6.734  41.390   9.024
  348POPC   C1A 7899   6.882  41.745   8.646
  348POPC   D2A 7900   6.682  41.753   8.289
  348POPC   C3A 7901   6.832  41.707   7.941
  348POPC   C4A 7902   6.938  41.403   7.705
  348POPC   C1B 7903   6.572  41.345   8.583
  348POPC   C2B 7904   6.256  41.442   8.283
  348POPC   C3B 7905   6.335  41.521   7.933
  348POPC   C4B 7906   6.394  41.655   7.574
  349POPC   NC3 7907  35.620  15.527   9.904
  349POPC   PO4 7908  35.176  15.226   9.411
  349POPC   GL1 7909  35.444  14.993   9.129
  349POPC   GL2 7910  35.154  14.852   8.989
  349POPC   C1A 7911  35.718  15.165   8.787
  349POPC   D2A 7912  35.564  15.537   8.542
  349POPC   C3A 7913  35.632  15.554   8.084
  349POPC   C4A 7914  35.721  15.137   7.941
  349POPC   C1B 7915  35.164  15.235   8.735
  349POPC   C2B 7916  35.047  15.468   8.352
  349POPC   C3B 7917  35.080  15.382   7.901
  349POPC   C4B 7918  34.961  15.377   7.450
  350POPC   NC3 7919  15.816   4.725   9.588
  350POPC   PO4 7920  16.126   5.233   9.707
  350POPC   GL1 7921  16.059   5.340   9.275
  350POPC   GL2 7922  15.909   5.041   9.200
  350POPC   C1A 7923  15.976   5.507   8.853
  350POPC   D2A 7924  15.862   5.274   8.456
  350POPC   C3A 7925  15.956   5.339   8.001
  350POPC   C4A 7926  15.780   5.020   7.740
  350POPC   C1B 7927  16.158   5.020   8.862
  350POPC   C2B 7928  16.103   4.809   8.479
  350POPC   C3B 7929  16.178   4.875   8.060
  350POPC   C4B 7930  16.383   4.887   7.670
  351POPC   NC3 7931  39.453  24.341   9.541
  351POPC   PO4 7932  38.846  24.561   9.350
  351POPC   GL1 7933  39.234  24.569   9.116
  351POPC   GL2 7934  39.324  24.244   9.048
  351POPC   C1A 7935  39.394  24.808   8.756
  351POPC   D2A 7936  39.149  24.980   8.417
  351POPC   C3A 7937  39.186  24.830   8.023
  351POPC   C4A 7938  39.032  24.716   7.655
  351POPC   C1B 7939  39.197  24.349   8.637
  351POPC   C2B 7940  39.445  24.473   8.281
  351POPC   C3B 7941  39.524  24.476   7.830
  351POPC   C4B 7942  39.345  24.385   7.424
  352POPC   NC3 7943  23.928   9.472   9.752
  352POPC   PO4 7944  24.241   8.950   9.601
  352POPC   GL1 7945  24.071   9.055   9.143
  352POPC   GL2 7946  23.890   8.751   9.009
  352POPC   C1A 7947  24.014   9.061   8.641
  352POPC   D2A 7948  23.747   8.856   8.308
  352POPC   C3A 7949  23.761   9.046   7.881
  352POPC   C4A 7950  24.072   9.212   7.592
  352POPC   C1B 7951  23.820   8.470   8.666
  352POPC   C2B 7952  24.001   8.391   8.301
  352POPC   C3B 7953  24.110   8.671   7.999
  352POPC   C4B 7954  23.982   8.711   7.566
  353POPC   NC3 7955   1.739   2.284   9.505
  353POPC   PO4 7956   2.297   1.802   9.586
  353POPC   GL1 7957   2.109   2.014   9.222
  353POPC   GL2 7958   1.780   2.009   9.088
  353POPC   C1A 7959   2.295   2.101   8.819
  353POPC   D2A 7960   2.228   1.973   8.404
  353POPC   C3A 7961   2.253   2.172   8.010
  353POPC   C4A 7962   2.071   1.920   7.656
  353POPC   C1B 7963   1.787   2.022   8.675
  353POPC   C2B 7964   1.762   1.722   8.354
  353POPC   C3B 7965   1.504   1.899   8.038
  353POPC   C4B 7966   1.572   1.993   7.634
  354POPC   NC3 7967   5.535  18.140   9.471
  354POPC   PO4 7968   6.096  18.404   9.275
  354POPC   GL1 7969   5.981  18.070   9.063
  354POPC   GL2 7970   5.616  18.053   8.981
  354POPC   C1A 7971   6.002  18.130   8.632
  354POPC   D2A 7972   5.778  18.280   8.303
  354POPC   C3A 7973   5.804  18.038   7.952
  354POPC   C4A 7974   6.099  18.034   7.602
  354POPC   C1B 7975   5.570  18.444   8.765
  354POPC   C2B 7976   5.351  18.571   8.355
  354POPC   C3B 7977   5.589  18.563   7.926
  354POPC   C4B 7978   5.729  18.381   7.548
  355POPC   NC3 7979  35.659  30.088   9.853
  355POPC   PO4 7980  36.239  29.945   9.513
  355POPC   GL1 7981  36.021  29.949   9.150
  355POPC   GL2 7982  35.853  29.619   9.235
  355POPC   C1A 7983  36.177  30.084   8.741
  355POPC   D2A 7984  36.354  29.950   8.333
  355POPC   C3A 7985  36.173  30.092   7.933
  355POPC   C4A 7986  35.903  30.042   7.556
  355POPC   C1B 7987  35.871  29.620   8.775
  355POPC   C2B 7988  35.969  29.562   8.340
  355POPC   C3B 7989  35.818  29.665   7.914
  355POPC   C4B 7990  36.020  29.500   7.504
  356POPC   NC3 7991  16.348  22.039   9.682
  356POPC   PO4 7992  16.985  22.244   9.535
  356POPC   GL1 7993  16.636  22.161   9.263
  356POPC   GL2 7994  16.464  22.429   9.094
  356POPC   C1A 7995  16.508  21.993   8.867
  356POPC   D2A 7996  16.725  22.083   8.504
  356POPC   C3A 7997  16.560  21.940   8.136
  356POPC   C4A 7998  16.790  21.915   7.777
  356POPC   C1B 7999  16.344  22.634   8.732
  356POPC   C2B 8000  16.388  22.450   8.365
  356POPC   C3B 8001  16.705  22.413   8.088
  356POPC   C4B 8002  16.492  22.352   7.750
  357POPC   NC3 8003  35.154  42.850   9.468
  357POPC   PO4 8004  35.792  43.116   9.291
  357POPC   GL1 8005  35.470  42.951   9.068
  357POPC   GL2 8006  35.194  43.195   9.085
  357POPC   C1A 8007  35.498  43.055   8.643
  357POPC   D2A 8008  35.422  42.849   8.294
  357POPC   C3A 8009  35.621  43.068   7.995
  357POPC   C4A 8010  35.499  43.087   7.600
  357POPC   C1B 8011  35.022  42.923   8.760
  357POPC   C2B 8012  34.933  43.027   8.344
  357POPC   C3B 8013  35.092  43.001   7.919
  357POPC   C4B 8014  34.856  43.164   7.583
  358POPC   NC3 8015   9.918  10.478   9.609
  358POPC   PO4 8016   9.265  10.756   9.639
  358POPC   GL1 8017   9.605  10.818   9.280
  358POPC   GL2 8018   9.767  10.524   9.143
  358POPC   C1A 8019   9.746  10.923   8.827
  358POPC   D2A 8020   9.693  11.011   8.378
  358POPC   C3A 8021   9.675  10.725   8.052
  358POPC   C4A 8022   9.663  10.652   7.595
  358POPC   C1B 8023  10.035  10.463   8.791
  358POPC   C2B 8024   9.845  10.303   8.406
  358POPC   C3B 8025   9.782  10.252   7.959
  358POPC   C4B 8026  10.087  10.342   7.671
  359POPC   NC3 8027  10.232  28.745   9.525
  359POPC   PO4 8028  10.707  29.213   9.732
  359POPC   GL1 8029  10.552  29.339   9.268
  359POPC   GL2 8030  10.399  29.038   9.156
  359POPC   C1A 8031  10.675  29.224   8.797
  359POPC   D2A 8032  10.472  29.056   8.455
  359POPC   C3A 8033  10.629  29.057   8.048
  359POPC   C4A 8034  10.654  29.231   7.632
  359POPC   C1B 8035  10.163  28.824   8.830
  359POPC   C2B 8036  10.035  28.775   8.428
  359POPC   C3B 8037  10.167  28.736   8.000
  359POPC   C4B 8038  10.442  28.787   7.657
  360POPC   NC3 8039  24.840   0.928   9.542
  360POPC   PO4 8040  25.456   1.229   9.683
  360POPC   GL1 8041  25.391   1.218   9.261
  360POPC   GL2 8042  25.320   0.877   9.293
  360POPC   C1A 8043  25.385   1.257   8.800
  360POPC   D2A 8044  25.166   1.479   8.467
  360POPC   C3A 8045  25.299   1.410   8.049
  360POPC   C4A 8046  25.089   1.471   7.683
  360POPC   C1B 8047  25.048   0.898   8.925
  360POPC   C2B 8048  24.991   0.988   8.477
  360POPC   C3B 8049  25.084   0.932   8.034
  360POPC   C4B 8050  25.098   0.955   7.589
  361POPC   NC3 8051  33.665  39.635   9.639
  361POPC   PO4 8052  33.416  40.293   9.618
  361POPC   GL1 8053  33.760  40.063   9.296
  361POPC   GL2 8054  34.076  40.203   9.187
  361POPC   C1A 8055  33.848  39.887   8.841
  361POPC   D2A 8056  33.748  39.831   8.403
  361POPC   C3A 8057  33.548  40.113   8.147
  361POPC   C4A 8058  33.464  40.003   7.741
  361POPC   C1B 8059  34.062  40.367   8.773
  361POPC   C2B 8060  34.076  40.210   8.327
  361POPC   C3B 8061  34.008  40.132   7.862
  361POPC   C4B 8062  33.928  40.243   7.399
  362POPC   NC3 8063  41.070  39.347   9.270
  362POPC   PO4 8064  40.425  39.205   9.555
  362POPC   GL1 8065  40.558  39.424   9.180
  362POPC   GL2 8066  40.697  39.070   9.108
  362POPC   C1A 8067  40.767  39.513   8.748
  362POPC   D2A 8068  40.778  39.271   8.388
  362POPC   C3A 8069  40.551  39.330   8.018
  362POPC   C4A 8070  40.712  39.268   7.652
  362POPC   C1B 8071  40.932  38.941   8.764
  362POPC   C2B 8072  40.816  38.738   8.401
  362POPC   C3B 8073  40.614  38.802   8.039
  362POPC   C4B 8074  40.803  38.772   7.655
  363POPC   NC3 8075  20.499  35.467   9.539
  363POPC   PO4 8076  20.516  34.822   9.426
  363POPC   GL1 8077  20.643  35.156   9.165
  363POPC   GL2 8078  20.784  35.515   9.134
  363POPC   C1A 8079  20.886  35.161   8.803
  363POPC   D2A 8080  20.810  35.058   8.422
  363POPC   C3A 8081  20.802  35.342   8.134
  363POPC   C4A 8082  20.781  35.345   7.696
  363POPC   C1B 8083  20.445  35.405   8.776
  363POPC   C2B 8084  20.313  35.305   8.345
  363POPC   C3B 8085  20.399  35.589   7.970
  363POPC   C4B 8086  20.411  35.901   7.620
  364POPC   NC3 8087  42.800  30.252   9.528
  364POPC   PO4 8088  43.141  29.567   9.472
  364POPC   GL1 8089  43.123  29.765   9.070
  364POPC   GL2 8090  43.103  30.101   9.154
  364POPC   C1A 8091  42.885  29.867   8.670
  364POPC   D2A 8092  42.791  29.848   8.202
  364POPC   C3A 8093  43.132  29.748   7.905
  364POPC   C4A 8094  43.111  29.728   7.424
  364POPC   C1B 8095  43.324  30.144   8.762
  364POPC   C2B 8096  43.209  30.108   8.314
  364POPC   C3B 8097  43.224  30.265   7.879
  364POPC   C4B 8098  43.120  30.226   7.428
  365POPC   NC3 8099  19.803  38.938   9.535
  365POPC   PO4 8100  19.674  39.545   9.714
  365POPC   GL1 8101  19.736  39.543   9.251
  365POPC   GL2 8102  19.374  39.533   9.245
  365POPC   C1A 8103  19.958  39.472   8.838
  365POPC   D2A 8104  19.988  39.162   8.485
  365POPC   C3A 8105  20.225  39.256   8.101
  365POPC   C4A 8106  19.981  39.104   7.744
  365POPC   C1B 8107  19.463  39.320   8.863
  365POPC   C2B 8108  19.581  39.486   8.476
  365POPC   C3B 8109  19.724  39.384   8.090
  365POPC   C4B 8110  19.595  39.523   7.709
  366POPC   NC3 8111  31.411   1.580   9.355
  366POPC   PO4 8112  31.261   0.972   9.606
  366POPC   GL1 8113  31.424   1.020   9.166
  366POPC   GL2 8114  31.674   1.271   9.053
  366POPC   C1A 8115  31.387   0.985   8.708
  366POPC   D2A 8116  31.137   0.850   8.336
  366POPC   C3A 8117  31.276   0.991   7.916
  366POPC   C4A 8118  31.718   1.070   7.891
  366POPC   C1B 8119  31.489   1.485   8.696
  366POPC   C2B 8120  31.437   1.339   8.261
  366POPC   C3B 8121  31.369   1.495   7.848
  366POPC   C4B 8122  31.346   1.701   7.441
  367POPC   NC3 8123  41.657  11.872   9.297
  367POPC   PO4 8124  41.583  11.108   9.450
  367POPC   GL1 8125  41.771  11.384   9.145
  367POPC   GL2 8126  41.478  11.441   9.050
  367POPC   C1A 8127  41.824  11.236   8.705
  367POPC   D2A 8128  41.663  11.171   8.286
  367POPC   C3A 8129  41.833  11.459   7.963
  367POPC   C4A 8130  41.821  11.573   7.525
  367POPC   C1B 8131  41.266  11.260   8.722
  367POPC   C2B 8132  41.231  10.929   8.432
  367POPC   C3B 8133  41.193  11.124   8.007
  367POPC   C4B 8134  41.365  11.406   7.724
  368POPC   NC3 8135  42.094   9.228   9.462
  368POPC   PO4 8136  41.536   8.856   9.379
  368POPC   GL1 8137  41.551   8.963   9.027
  368POPC   GL2 8138  41.288   8.727   8.919
  368POPC   C1A 8139  41.759   8.824   8.709
  368POPC   D2A 8140  41.682   8.727   8.334
  368POPC   C3A 8141  41.763   8.977   7.984
  368POPC   C4A 8142  41.614   8.846   7.585
  368POPC   C1B 8143  41.264   9.107   8.646
  368POPC   C2B 8144  41.317   9.087   8.226
  368POPC   C3B 8145  41.332   8.679   7.973
  368POPC   C4B 8146  41.098   8.613   7.595
  369POPC   NC3 8147  33.468   2.702   9.480
  369POPC   PO4 8148  32.902   3.013   9.537
  369POPC   GL1 8149  33.095   2.913   9.157
  369POPC   GL2 8150  33.402   3.114   9.164
  369POPC   C1A 8151  32.904   2.662   8.816
  369POPC   D2A 8152  32.596   2.761   8.485
  369POPC   C3A 8153  32.798   2.700   8.097
  369POPC   C4A 8154  32.865   3.020   7.776
  369POPC   C1B 8155  33.467   2.889   8.798
  369POPC   C2B 8156  33.194   2.888   8.448
  369POPC   C3B 8157  33.287   2.840   8.033
  369POPC   C4B 8158  33.370   3.063   7.665
  370POPC   NC3 8159  42.783  24.502   9.351
  370POPC   PO4 8160  43.358  24.218   9.569
  370POPC   GL1 8161  43.279  24.199   9.168
  370POPC   GL2 8162  43.297  24.562   9.127
  370POPC   C1A 8163  43.078  24.224   8.771
  370POPC   D2A 8164  42.989  24.481   8.413
  370POPC   C3A 8165  43.182  24.276   8.071
  370POPC   C4A 8166  42.964  24.312   7.681
  370POPC   C1B 8167  43.385  24.685   8.689
  370POPC   C2B 8168  43.224  24.942   8.312
  370POPC   C3B 8169  43.077  24.747   7.937
  370POPC   C4B 8170  43.335  24.653   7.563
  371POPC   NC3 8171  40.146  30.106   9.690
  371POPC   PO4 8172  39.714  29.736   9.413
  371POPC   GL1 8173  40.000  29.886   9.121
  371POPC   GL2 8174  40.168  30.202   9.149
  371POPC   C1A 8175  40.227  29.809   8.723
  371POPC   D2A 8176  40.188  29.692   8.268
  371POPC   C3A 8177  40.162  29.967   7.877
  371POPC   C4A 8178  40.216  29.803   7.449
  371POPC   C1B 8179  39.911  30.233   8.750
  371POPC   C2B 8180  39.864  30.200   8.291
  371POPC   C3B 8181  39.699  30.222   7.850
  371POPC   C4B 8182  39.858  30.168   7.416
  372POPC   NC3 8183  26.964  15.950   9.553
  372POPC   PO4 8184  26.306  16.115   9.696
  372POPC   GL1 8185  26.596  16.195   9.279
  372POPC   GL2 8186  26.865  15.951   9.058
  372POPC   C1A 8187  26.585  16.294   8.826
  372POPC   D2A 8188  26.427  16.083   8.445
  372POPC   C3A 8189  26.696  16.105   8.069
  372POPC   C4A 8190  26.510  16.333   7.723
  372POPC   C1B 8191  27.157  15.723   8.731
  372POPC   C2B 8192  27.289  15.556   8.311
  372POPC   C3B 8193  27.263  15.710   7.871
  372POPC   C4B 8194  26.958  16.002   7.648
  373POPC   NC3 8195  14.316   8.793  10.203
  373POPC   PO4 8196  14.542   8.644   9.595
  373POPC   GL1 8197  14.570   8.772   9.193
  373POPC   GL2 8198  14.392   9.096   9.160
  373POPC   C1A 8199  14.332   8.568   8.905
  373POPC   D2A 8200  14.380   8.533   8.490
  373POPC   C3A 8201  14.156   8.794   8.207
  373POPC   C4A 8202  14.292   8.772   7.797
  373POPC   C1B 8203  14.482   9.012   8.707
  373POPC   C2B 8204  14.648   8.986   8.285
  373POPC   C3B 8205  14.498   9.223   7.907
  373POPC   C4B 8206  14.091   9.223   7.695
  374POPC   NC3 8207  38.217  16.872   9.550
  374POPC   PO4 8208  38.186  16.256   9.399
  374POPC   GL1 8209  38.416  16.558   9.154
  374POPC   GL2 8210  38.507  16.936   9.156
  374POPC   C1A 8211  38.381  16.691   8.733
  374POPC   D2A 8212  38.229  16.891   8.370
  374POPC   C3A 8213  38.320  16.643   8.036
  374POPC   C4A 8214  38.557  16.666   7.660
  374POPC   C1B 8215  38.734  17.051   8.831
  374POPC   C2B 8216  38.659  17.209   8.431
  374POPC   C3B 8217  38.673  17.030   8.028
  374POPC   C4B 8218  38.999  16.938   7.726
  375POPC   NC3 8219  13.708  16.356   9.311
  375POPC   PO4 8220  13.695  16.904   9.778
  375POPC   GL1 8221  13.600  16.865   9.303
  375POPC   GL2 8222  13.901  16.847   9.062
  375POPC   C1A 8223  13.498  16.901   8.820
  375POPC   D2A 8224  13.617  16.716   8.411
  375POPC   C3A 8225  13.684  16.931   8.000
  375POPC   C4A 8226  13.434  16.948   7.626
  375POPC   C1B 8227  14.018  16.565   8.736
  375POPC   C2B 8228  14.121  16.684   8.311
  375POPC   C3B 8229  13.916  16.457   7.981
  375POPC   C4B 8230  13.481  16.445   7.844
  376POPC   NC3 8231  40.890  32.027   9.626
  376POPC   PO4 8232  41.088  32.646   9.378
  376POPC   GL1 8233  41.009  32.231   9.162
  376POPC   GL2 8234  40.636  32.144   9.208
  376POPC   C1A 8235  40.812  32.100   8.748
  376POPC   D2A 8236  40.799  32.479   8.501
  376POPC   C3A 8237  40.848  32.515   8.071
  376POPC   C4A 8238  40.838  32.238   7.726
  376POPC   C1B 8239  40.379  31.880   8.911
  376POPC   C2B 8240  40.495  31.751   8.480
  376POPC   C3B 8241  40.639  31.970   8.132
  376POPC   C4B 8242  40.391  31.999   7.754
  377POPC   NC3 8243  41.812   6.672   9.486
  377POPC   PO4 8244  42.101   7.253   9.495
  377POPC   GL1 8245  41.860   6.972   9.076
  377POPC   GL2 8246  41.547   6.710   9.073
  377POPC   C1A 8247  41.689   6.807   8.612
  377POPC   D2A 8248  41.642   6.417   8.335
  377POPC   C3A 8249  41.526   6.520   7.918
  377POPC   C4A 8250  41.706   6.731   7.564
  377POPC   C1B 8251  41.336   6.425   8.790
  377POPC   C2B 8252  41.163   6.194   8.446
  377POPC   C3B 8253  41.050   6.332   8.028
  377POPC   C4B 8254  41.123   6.223   7.628
  378POPC   NC3 8255  43.550   4.002   9.397
  378POPC   PO4 8256  43.814   4.670   9.363
  378POPC   GL1 8257  44.004   4.415   9.083
  378POPC   GL2 8258  43.898   4.086   8.965
  378POPC   C1A 8259  43.926   4.542   8.679
  378POPC   D2A 8260  43.875   4.402   8.286
  378POPC   C3A 8261  44.004   4.637   7.967
  378POPC   C4A 8262  44.036   4.569   7.525
  378POPC   C1B 8263  44.257   4.173   8.648
  378POPC   C2B 8264  44.371   4.304   8.225
  378POPC   C3B 8265  44.155   4.159   7.853
  378POPC   C4B 8266  44.353   4.032   7.444
  379POPC   NC3 8267  44.862  21.912   9.651
  379POPC   PO4 8268  44.411  22.358   9.756
  379POPC   GL1 8269  44.643  22.407   9.317
  379POPC   GL2 8270  44.985  22.310   9.290
  379POPC   C1A 8271  44.792  22.512   8.845
  379POPC   D2A 8272  44.867  22.374   8.363
  379POPC   C3A 8273  44.690  22.588   7.980
  379POPC   C4A 8274  44.670  22.569   7.499
  379POPC   C1B 8275  44.973  22.044   8.911
  379POPC   C2B 8276  44.783  21.883   8.530
  379POPC   C3B 8277  44.866  21.824   8.080
  379POPC   C4B 8278  44.723  22.127   7.755
  380POPC   NC3 8279  14.237   5.697   9.562
  380POPC   PO4 8280  14.687   6.223   9.501
  380POPC   GL1 8281  14.556   6.040   9.100
  380POPC   GL2 8282  14.245   5.914   9.090
  380POPC   C1A 8283  14.402   6.103   8.649
  380POPC   D2A 8284  14.273   6.103   8.210
  380POPC   C3A 8285  14.517   6.102   7.846
  380POPC   C4A 8286  14.463   5.823   7.458
  380POPC   C1B 8287  14.149   5.663   8.727
  380POPC   C2B 8288  14.002   5.697   8.314
  380POPC   C3B 8289  14.223   5.663   7.915
  380POPC   C4B 8290  14.036   5.532   7.523
  381POPC   NC3 8291   3.552   3.944   9.313
  381POPC   PO4 8292   3.449   3.319   9.510
  381POPC   GL1 8293   3.499   3.436   9.112
  381POPC   GL2 8294   3.214   3.653   9.027
  381POPC   C1A 8295   3.458   3.311   8.705
  381POPC   D2A 8296   3.227   3.356   8.308
  381POPC   C3A 8297   3.520   3.287   7.959
  381POPC   C4A 8298   3.703   3.364   7.557
  381POPC   C1B 8299   3.429   3.887   8.692
  381POPC   C2B 8300   3.573   4.056   8.327
  381POPC   C3B 8301   3.430   3.811   8.005
  381POPC   C4B 8302   3.391   3.736   7.580
  382POPC   NC3 8303  14.821  28.552   9.509
  382POPC   PO4 8304  14.530  28.011   9.450
  382POPC   GL1 8305  14.401  28.325   9.148
  382POPC   GL2 8306  14.638  28.593   9.048
  382POPC   C1A 8307  14.221  28.252   8.752
  382POPC   D2A 8308  14.357  28.231   8.327
  382POPC   C3A 8309  14.156  28.463   8.015
  382POPC   C4A 8310  14.232  28.454   7.567
  382POPC   C1B 8311  14.592  28.570   8.631
  382POPC   C2B 8312  14.717  28.616   8.237
  382POPC   C3B 8313  14.674  28.463   7.827
  382POPC   C4B 8314  14.713  28.571   7.368
  383POPC   NC3 8315   3.533   1.777   9.545
  383POPC   PO4 8316   3.179   2.363   9.399
  383POPC   GL1 8317   3.422   2.081   9.141
  383POPC   GL2 8318   3.770   2.056   9.197
  383POPC   C1A 8319   3.487   1.865   8.770
  383POPC   D2A 8320   3.429   1.964   8.359
  383POPC   C3A 8321   3.641   1.741   8.049
  383POPC   C4A 8322   3.437   2.056   7.793
  383POPC   C1B 8323   3.850   2.252   8.836
  383POPC   C2B 8324   3.921   2.088   8.465
  383POPC   C3B 8325   3.834   2.242   8.077
  383POPC   C4B 8326   3.959   2.013   7.749
  384POPC   NC3 8327  38.149  36.174   9.726
  384POPC   PO4 8328  37.473  36.035   9.612
  384POPC   GL1 8329  37.648  36.046   9.224
  384POPC   GL2 8330  37.994  36.101   9.168
  384POPC   C1A 8331  37.585  36.112   8.813
  384POPC   D2A 8332  37.818  36.051   8.465
  384POPC   C3A 8333  37.561  35.975   8.117
  384POPC   C4A 8334  37.715  36.005   7.696
  384POPC   C1B 8335  37.974  36.440   8.814
  384POPC   C2B 8336  37.726  36.579   8.473
  384POPC   C3B 8337  37.675  36.478   8.043
  384POPC   C4B 8338  37.930  36.504   7.699
  385POPC   NC3 8339   0.918  10.207   9.563
  385POPC   PO4 8340   1.332  10.689   9.637
  385POPC   GL1 8341   1.291  10.407   9.266
  385POPC   GL2 8342   1.025  10.609   9.153
  385POPC   C1A 8343   1.382  10.468   8.794
  385POPC   D2A 8344   1.070  10.620   8.442
  385POPC   C3A 8345   1.227  10.705   8.005
  385POPC   C4A 8346   1.176  10.464   7.606
  385POPC   C1B 8347   0.945  10.226   8.887
  385POPC   C2B 8348   1.123  10.080   8.488
  385POPC   C3B 8349   1.070  10.230   8.070
  385POPC   C4B 8350   0.780  10.155   7.733
  386POPC   NC3 8351  38.058   2.148   9.641
  386POPC   PO4 8352  38.683   2.323   9.566
  386POPC   GL1 8353  38.558   2.133   9.173
  386POPC   GL2 8354  38.177   2.080   9.142
  386POPC   C1A 8355  38.519   1.916   8.787
  386POPC   D2A 8356  38.324   1.772   8.408
  386POPC   C3A 8357  38.559   1.893   8.055
  386POPC   C4A 8358  38.935   1.830   7.815
  386POPC   C1B 8359  38.150   2.316   8.732
  386POPC   C2B 8360  38.274   2.283   8.298
  386POPC   C3B 8361  38.229   2.214   7.858
  386POPC   C4B 8362  38.134   2.159   7.420
  387POPC   NC3 8363   8.884  25.225   9.482
  387POPC   PO4 8364   8.848  25.893   9.706
  387POPC   GL1 8365   8.785  25.669   9.245
  387POPC   GL2 8366   9.049  25.434   9.043
  387POPC   C1A 8367   8.622  25.559   8.800
  387POPC   D2A 8368   8.582  25.354   8.381
  387POPC   C3A 8369   8.778  25.520   7.986
  387POPC   C4A 8370   9.250  25.477   7.866
  387POPC   C1B 8371   9.222  24.987   8.958
  387POPC   C2B 8372   9.197  24.759   8.574
  387POPC   C3B 8373   8.972  24.969   8.242
  387POPC   C4B 8374   8.941  25.068   7.808
  388POPC   NC3 8375  26.972  36.016   9.498
  388POPC   PO4 8376  26.374  36.430   9.469
  388POPC   GL1 8377  26.704  36.314   9.192
  388POPC   GL2 8378  26.601  35.977   9.120
  388POPC   C1A 8379  27.009  36.133   8.851
  388POPC   D2A 8380  26.951  36.270   8.431
  388POPC   C3A 8381  26.974  35.979   8.104
  388POPC   C4A 8382  27.069  36.224   7.757
  388POPC   C1B 8383  26.523  36.223   8.735
  388POPC   C2B 8384  26.508  36.536   8.400
  388POPC   C3B 8385  26.637  36.388   8.005
  388POPC   C4B 8386  26.541  36.014   7.768
  389POPC   NC3 8387   3.170  15.096   9.690
  389POPC   PO4 8388   3.604  15.610   9.507
  389POPC   GL1 8389   3.541  15.346   9.150
  389POPC   GL2 8390   3.212  15.270   9.101
  389POPC   C1A 8391   3.546  15.118   8.740
  389POPC   D2A 8392   3.708  15.308   8.376
  389POPC   C3A 8393   3.565  15.192   7.981
  389POPC   C4A 8394   3.614  15.042   7.545
  389POPC   C1B 8395   3.054  15.319   8.738
  389POPC   C2B 8396   3.189  15.391   8.371
  389POPC   C3B 8397   3.207  15.545   8.000
  389POPC   C4B 8398   3.178  15.288   7.686
  390POPC   NC3 8399   9.529  44.171   9.713
  390POPC   PO4 8400   9.559  43.508   9.693
  390POPC   GL1 8401   9.688  43.668   9.265
  390POPC   GL2 8402   9.728  44.050   9.252
  390POPC   C1A 8403   9.835  43.782   8.818
  390POPC   D2A 8404   9.895  43.991   8.384
  390POPC   C3A 8405   9.819  43.751   7.985
  390POPC   C4A 8406   9.477  43.552   7.723
  390POPC   C1B 8407   9.473  44.160   8.891
  390POPC   C2B 8408   9.423  44.277   8.491
  390POPC   C3B 8409   9.466  44.127   8.103
  390POPC   C4B 8410   9.829  44.238   7.838
  391POPC   NC3 8411  18.551  36.890   9.471
  391POPC   PO4 8412  17.921  36.755   9.466
  391POPC   GL1 8413  18.077  36.935   9.111
  391POPC   GL2 8414  18.424  36.882   8.994
  391POPC   C1A 8415  17.996  36.765   8.753
  391POPC   D2A 8416  18.220  36.753   8.428
  391POPC   C3A 8417  18.017  36.679   8.055
  391POPC   C4A 8418  18.106  36.817   7.680
  391POPC   C1B 8419  18.367  37.194   8.728
  391POPC   C2B 8420  18.173  37.241   8.330
  391POPC   C3B 8421  18.388  37.168   7.944
  391POPC   C4B 8422  18.766  37.335   7.726
  392POPC   NC3 8423  44.517   9.286   9.547
  392POPC   PO4 8424   0.084   8.817   9.498
  392POPC   GL1 8425  44.877   8.720   9.113
  392POPC   GL2 8426  44.524   8.870   9.167
  392POPC   C1A 8427   0.050   8.687   8.698
  392POPC   D2A 8428   0.095   9.004   8.395
  392POPC   C3A 8429   0.037   8.953   7.936
  392POPC   C4A 8430  44.837   9.076   7.532
  392POPC   C1B 8431  44.634   8.988   8.734
  392POPC   C2B 8432  44.613   8.804   8.322
  392POPC   C3B 8433  44.509   8.962   7.906
  392POPC   C4B 8434  44.383   8.835   7.499
  393POPC   NC3 8435   6.736  38.281   9.580
  393POPC   PO4 8436   6.303  38.792   9.431
  393POPC   GL1 8437   6.630  38.622   9.188
  393POPC   GL2 8438   6.426  38.364   9.159
  393POPC   C1A 8439   6.847  38.575   8.786
  393POPC   D2A 8440   6.889  38.269   8.439
  393POPC   C3A 8441   6.730  38.404   8.007
  393POPC   C4A 8442   6.925  38.528   7.588
  393POPC   C1B 8443   6.498  38.194   8.774
  393POPC   C2B 8444   6.377  38.125   8.355
  393POPC   C3B 8445   6.252  38.148   7.918
  393POPC   C4B 8446   6.480  38.262   7.548
  394POPC   NC3 8447  21.736   7.531   9.528
  394POPC   PO4 8448  21.117   7.385   9.535
  394POPC   GL1 8449  21.398   7.325   9.180
  394POPC   GL2 8450  21.532   7.642   9.064
  394POPC   C1A 8451  21.472   7.047   8.817
  394POPC   D2A 8452  21.309   7.091   8.408
  394POPC   C3A 8453  21.519   7.127   8.039
  394POPC   C4A 8454  21.286   7.113   7.742
  394POPC   C1B 8455  21.358   7.528   8.691
  394POPC   C2B 8456  21.142   7.621   8.318
  394POPC   C3B 8457  21.186   7.579   7.903
  394POPC   C4B 8458  21.615   7.588   7.809
  395POPC   NC3 8459  34.194  34.401   9.479
  395POPC   PO4 8460  33.703  34.833   9.666
  395POPC   GL1 8461  33.764  34.617   9.213
  395POPC   GL2 8462  33.988  34.350   9.025
  395POPC   C1A 8463  33.573  34.507   8.815
  395POPC   D2A 8464  33.770  34.396   8.429
  395POPC   C3A 8465  33.457  34.550   8.157
  395POPC   C4A 8466  33.452  34.666   7.727
  395POPC   C1B 8467  34.050  34.761   8.806
  395POPC   C2B 8468  34.193  34.790   8.366
  395POPC   C3B 8469  33.945  34.716   7.980
  395POPC   C4B 8470  33.940  34.702   7.496
  396POPC   NC3 8471  21.018  23.917   9.575
  396POPC   PO4 8472  20.395  23.619   9.501
  396POPC   GL1 8473  20.623  23.843   9.188
  396POPC   GL2 8474  20.901  23.650   9.149
  396POPC   C1A 8475  20.728  23.909   8.733
  396POPC   D2A 8476  20.888  23.701   8.340
  396POPC   C3A 8477  20.814  23.937   7.975
  396POPC   C4A 8478  20.411  23.770   7.860
  396POPC   C1B 8479  20.592  23.422   8.874
  396POPC   C2B 8480  20.330  23.364   8.499
  396POPC   C3B 8481  20.359  23.292   8.062
  396POPC   C4B 8482  20.780  23.431   7.894
  397POPC   NC3 8483  44.180  17.987   9.580
  397POPC   PO4 8484  43.695  18.508   9.608
  397POPC   GL1 8485  43.958  18.349   9.256
  397POPC   GL2 8486  43.768  18.473   9.024
  397POPC   C1A 8487  44.045  18.058   8.890
  397POPC   D2A 8488  44.063  18.109   8.443
  397POPC   C3A 8489  43.681  18.082   8.169
  397POPC   C4A 8490  43.749  17.973   7.710
  397POPC   C1B 8491  43.678  18.461   8.592
  397POPC   C2B 8492  43.493  18.572   8.222
  397POPC   C3B 8493  43.604  18.462   7.814
  397POPC   C4B 8494  43.463  18.573   7.445
  398POPC   NC3 8495  21.613  20.845   9.666
  398POPC   PO4 8496  21.239  20.358   9.434
  398POPC   GL1 8497  21.260  20.614   9.143
  398POPC   GL2 8498  21.098  20.390   8.912
  398POPC   C1A 8499  21.514  20.670   8.799
  398POPC   D2A 8500  21.758  20.902   8.517
  398POPC   C3A 8501  21.684  20.870   8.070
  398POPC   C4A 8502  21.656  20.507   7.795
  398POPC   C1B 8503  21.009  20.784   8.742
  398POPC   C2B 8504  21.245  20.827   8.381
  398POPC   C3B 8505  21.200  20.638   7.996
  398POPC   C4B 8506  21.057  20.400   7.651
  399POPC   NC3 8507  31.912  21.282   9.469
  399POPC   PO4 8508  31.252  21.435   9.621
  399POPC   GL1 8509  31.474  21.409   9.211
  399POPC   GL2 8510  31.569  21.081   9.099
  399POPC   C1A 8511  31.703  21.527   8.826
  399POPC   D2A 8512  31.861  21.351   8.439
  399POPC   C3A 8513  31.654  21.250   8.039
  399POPC   C4A 8514  31.616  21.017   7.648
  399POPC   C1B 8515  31.329  21.179   8.699
  399POPC   C2B 8516  31.157  21.199   8.257
  399POPC   C3B 8517  31.146  21.139   7.809
  399POPC   C4B 8518  31.239  21.215   7.340
  400POPC   NC3 8519  14.060  17.106   9.505
  400POPC   PO4 8520  13.614  17.643   9.542
  400POPC   GL1 8521  13.913  17.561   9.260
  400POPC   GL2 8522  13.748  17.323   9.103
  400POPC   C1A 8523  13.998  17.714   8.839
  400POPC   D2A 8524  13.799  17.916   8.480
  400POPC   C3A 8525  13.849  17.654   8.135
  400POPC   C4A 8526  13.984  17.712   7.738
  400POPC   C1B 8527  13.442  17.563   8.862
  400POPC   C2B 8528  13.211  17.580   8.470
  400POPC   C3B 8529  13.304  17.602   8.054
  400POPC   C4B 8530  13.563  17.426   7.748
  401POPC   NC3 8531  31.967  27.087   9.542
  401POPC   PO4 8532  32.614  27.020   9.568
  401POPC   GL1 8533  32.348  26.817   9.282
  401POPC   GL2 8534  32.407  27.070   9.049
  401POPC   C1A 8535  32.085  26.718   8.937
  401POPC   D2A 8536  32.199  26.812   8.517
  401POPC   C3A 8537  31.993  26.835   8.155
  401POPC   C4A 8538  32.065  26.595   7.831
  401POPC   C1B 8539  32.583  26.657   8.801
  401POPC   C2B 8540  32.727  26.526   8.354
  401POPC   C3B 8541  32.623  26.679   7.923
  401POPC   C4B 8542  32.340  27.036   7.809
  402POPC   NC3 8543  30.810  28.086   9.444
  402POPC   PO4 8544  30.666  28.783   9.592
  402POPC   GL1 8545  30.682  28.553   9.193
  402POPC   GL2 8546  30.445  28.290   9.117
  402POPC   C1A 8547  30.748  28.441   8.747
  402POPC   D2A 8548  30.618  28.614   8.360
  402POPC   C3A 8549  30.823  28.351   8.039
  402POPC   C4A 8550  30.792  28.382   7.623
  402POPC   C1B 8551  30.351  28.062   8.741
  402POPC   C2B 8552  30.445  28.147   8.326
  402POPC   C3B 8553  30.324  28.388   7.962
  402POPC   C4B 8554  30.403  28.076   7.619
  403POPC   NC3 8555  42.700  41.185   9.644
  403POPC   PO4 8556  43.230  40.929   9.684
  403POPC   GL1 8557  43.210  40.731   9.261
  403POPC   GL2 8558  43.527  40.665   9.188
  403POPC   C1A 8559  43.084  40.839   8.823
  403POPC   D2A 8560  42.850  40.731   8.418
  403POPC   C3A 8561  42.978  40.903   8.060
  403POPC   C4A 8562  42.832  40.904   7.658
  403POPC   C1B 8563  43.526  40.571   8.769
  403POPC   C2B 8564  43.350  40.679   8.382
  403POPC   C3B 8565  43.458  40.685   7.976
  403POPC   C4B 8566  43.346  40.988   7.700
  404POPC   NC3 8567  20.742  17.809   9.710
  404POPC   PO4 8568  21.073  18.279   9.459
  404POPC   GL1 8569  20.767  18.150   9.175
  404POPC   GL2 8570  20.776  18.465   8.969
  404POPC   C1A 8571  20.484  18.041   8.842
  404POPC   D2A 8572  20.397  18.197   8.409
  404POPC   C3A 8573  20.720  18.174   8.090
  404POPC   C4A 8574  20.681  18.296   7.672
  404POPC   C1B 8575  20.355  18.543   8.792
  404POPC   C2B 8576  20.251  18.703   8.390
  404POPC   C3B 8577  20.409  18.609   7.995
  404POPC   C4B 8578  20.260  18.566   7.583
  405POPC   NC3 8579  18.973  44.944   9.450
  405POPC   PO4 8580  19.194   0.590   9.596
  405POPC   GL1 8581  19.207   0.466   9.145
  405POPC   GL2 8582  18.867   0.314   9.068
  405POPC   C1A 8583  19.041   0.669   8.755
  405POPC   D2A 8584  18.854   0.477   8.399
  405POPC   C3A 8585  19.134   0.374   8.075
  405POPC   C4A 8586  19.061   0.537   7.681
  405POPC   C1B 8587  18.631   0.128   8.700
  405POPC   C2B 8588  18.446   0.090   8.300
  405POPC   C3B 8589  18.654   0.191   7.977
  405POPC   C4B 8590  18.749   0.150   7.591
  406POPC   NC3 8591  41.277   6.345   9.462
  406POPC   PO4 8592  40.646   6.601   9.512
  406POPC   GL1 8593  40.689   6.777   9.118
  406POPC   GL2 8594  41.033   6.752   9.144
  406POPC   C1A 8595  40.818   6.584   8.703
  406POPC   D2A 8596  40.666   6.414   8.329
  406POPC   C3A 8597  40.608   6.633   7.940
  406POPC   C4A 8598  40.712   6.985   7.717
  406POPC   C1B 8599  41.193   6.916   8.778
  406POPC   C2B 8600  41.228   6.737   8.380
  406POPC   C3B 8601  41.114   6.834   7.997
  406POPC   C4B 8602  41.169   6.744   7.596
  407POPC   NC3 8603  29.628  43.231   9.823
  407POPC   PO4 8604  29.081  43.393   9.514
  407POPC   GL1 8605  29.187  43.205   9.151
  407POPC   GL2 8606  29.429  43.430   9.088
  407POPC   C1A 8607  29.110  43.138   8.713
  407POPC   D2A 8608  29.040  42.845   8.383
  407POPC   C3A 8609  29.043  43.042   8.012
  407POPC   C4A 8610  28.835  42.902   7.650
  407POPC   C1B 8611  29.548  43.405   8.668
  407POPC   C2B 8612  29.318  43.400   8.297
  407POPC   C3B 8613  29.477  43.358   7.894
  407POPC   C4B 8614  29.220  43.258   7.578
  408POPC   NC3 8615  25.508   5.366   9.214
  408POPC   PO4 8616  25.893   5.907   9.480
  408POPC   GL1 8617  26.075   5.842   9.076
  408POPC   GL2 8618  26.332   6.089   9.142
  408POPC   C1A 8619  25.945   5.870   8.630
  408POPC   D2A 8620  25.873   5.972   8.180
  408POPC   C3A 8621  25.987   5.686   7.851
  408POPC   C4A 8622  26.189   5.461   7.501
  408POPC   C1B 8623  26.335   6.203   8.713
  408POPC   C2B 8624  26.365   5.987   8.319
  408POPC   C3B 8625  26.325   6.122   7.929
  408POPC   C4B 8626  26.511   6.330   7.587
  409POPC   NC3 8627  28.998   7.002   9.695
  409POPC   PO4 8628  29.236   6.475   9.414
  409POPC   GL1 8629  28.995   6.716   9.170
  409POPC   GL2 8630  29.274   6.639   8.937
  409POPC   C1A 8631  28.937   6.957   8.767
  409POPC   D2A 8632  29.158   6.754   8.408
  409POPC   C3A 8633  28.939   6.593   8.024
  409POPC   C4A 8634  29.099   6.236   7.793
  409POPC   C1B 8635  29.437   6.276   8.703
  409POPC   C2B 8636  29.340   6.236   8.262
  409POPC   C3B 8637  29.431   6.584   7.950
  409POPC   C4B 8638  29.404   6.874   7.565
  410POPC   NC3 8639  44.580  13.225   9.298
  410POPC   PO4 8640  44.778  12.610   9.458
  410POPC   GL1 8641  44.553  12.681   9.096
  410POPC   GL2 8642  44.246  12.817   9.199
  410POPC   C1A 8643  44.745  12.726   8.684
  410POPC   D2A 8644   0.008  12.619   8.305
  410POPC   C3A 8645  44.856  12.690   7.872
  410POPC   C4A 8646  44.614  12.598   7.503
  410POPC   C1B 8647  44.282  13.038   8.775
  410POPC   C2B 8648  44.463  13.084   8.377
  410POPC   C3B 8649  44.267  13.167   7.979
  410POPC   C4B 8650  44.528  13.066   7.609
  411POPC   NC3 8651  15.772  40.278   9.269
  411POPC   PO4 8652  16.259  39.848   9.516
  411POPC   GL1 8653  16.199  40.075   9.138
  411POPC   GL2 8654  15.943  39.860   9.013
  411POPC   C1A 8655  16.073  40.241   8.709
  411POPC   D2A 8656  16.036  39.958   8.392
  411POPC   C3A 8657  16.072  40.238   8.096
  411POPC   C4A 8658  15.986  40.410   7.736
  411POPC   C1B 8659  15.605  40.013   8.715
  411POPC   C2B 8660  15.586  40.228   8.349
  411POPC   C3B 8661  15.634  40.029   7.941
  411POPC   C4B 8662  15.983  39.819   7.736
  412POPC   NC3 8663  39.564  30.235   9.325
  412POPC   PO4 8664  38.962  29.983   9.385
  412POPC   GL1 8665  39.126  29.792   9.002
  412POPC   GL2 8666  39.464  29.849   8.999
  412POPC   C1A 8667  39.004  29.825   8.557
  412POPC   D2A 8668  38.974  30.229   8.290
  412POPC   C3A 8669  39.087  30.181   7.876
  412POPC   C4A 8670  39.230  29.782   7.753
  412POPC   C1B 8671  39.407  30.120   8.648
  412POPC   C2B 8672  39.412  29.983   8.230
  412POPC   C3B 8673  39.696  29.728   8.012
  412POPC   C4B 8674  39.723  29.736   7.607
  413POPC   NC3 8675   7.232  31.744   9.326
  413POPC   PO4 8676   7.571  32.245   9.647
  413POPC   GL1 8677   7.461  32.200   9.217
  413POPC   GL2 8678   7.674  31.913   9.155
  413POPC   C1A 8679   7.268  32.314   8.830
  413POPC   D2A 8680   7.425  32.262   8.446
  413POPC   C3A 8681   7.403  32.603   8.180
  413POPC   C4A 8682   7.383  32.360   7.801
  413POPC   C1B 8683   7.488  31.851   8.763
  413POPC   C2B 8684   7.353  31.751   8.372
  413POPC   C3B 8685   7.541  31.898   8.010
  413POPC   C4B 8686   7.563  31.890   7.540
  414POPC   NC3 8687  32.592  20.840   9.582
  414POPC   PO4 8688  31.970  20.819   9.299
  414POPC   GL1 8689  32.285  20.618   9.062
  414POPC   GL2 8690  32.510  20.347   9.174
  414POPC   C1A 8691  32.179  20.400   8.673
  414POPC   D2A 8692  31.922  20.131   8.392
  414POPC   C3A 8693  31.946  20.403   8.043
  414POPC   C4A 8694  32.166  20.771   7.848
  414POPC   C1B 8695  32.677  20.480   8.747
  414POPC   C2B 8696  32.556  20.590   8.319
  414POPC   C3B 8697  32.476  20.343   7.951
  414POPC   C4B 8698  32.357  20.426   7.516
  415POPC   NC3 8699  10.636  39.538   9.872
  415POPC   PO4 8700  10.418  38.984   9.483
  415POPC   GL1 8701  10.563  39.120   9.056
  415POPC   GL2 8702  10.469  39.455   8.968
  415POPC   C1A 8703  10.777  39.201   8.659
  415POPC   D2A 8704  10.636  39.480   8.328
  415POPC   C3A 8705  10.674  39.175   8.017
  415POPC   C4A 8706  10.872  39.069   7.648
  415POPC   C1B 8707  10.235  39.347   8.640
  415POPC   C2B 8708  10.148  39.331   8.219
  415POPC   C3B 8709  10.283  39.420   7.836
  415POPC   C4B 8710  10.371  39.064   7.606
  416POPC   NC3 8711   9.563  20.979   9.441
  416POPC   PO4 8712  10.127  20.582   9.395
  416POPC   GL1 8713  10.000  20.885   9.111
  416POPC   GL2 8714   9.703  20.710   9.044
  416POPC   C1A 8715  10.110  20.823   8.688
  416POPC   D2A 8716   9.953  20.694   8.311
  416POPC   C3A 8717  10.155  20.812   7.949
  416POPC   C4A 8718   9.926  20.688   7.602
  416POPC   C1B 8719   9.552  20.597   8.665
  416POPC   C2B 8720   9.460  20.780   8.295
  416POPC   C3B 8721   9.595  20.546   7.968
  416POPC   C4B 8722   9.524  20.383   7.558
  417POPC   NC3 8723  20.038   9.322   9.567
  417POPC   PO4 8724  19.661   8.704   9.525
  417POPC   GL1 8725  19.846   8.890   9.173
  417POPC   GL2 8726  19.956   9.203   9.097
  417POPC   C1A 8727  19.695   8.941   8.753
  417POPC   D2A 8728  19.826   8.813   8.353
  417POPC   C3A 8729  19.525   8.766   8.070
  417POPC   C4A 8730  19.741   8.854   7.707
  417POPC   C1B 8731  20.225   9.104   8.765
  417POPC   C2B 8732  20.132   9.209   8.342
  417POPC   C3B 8733  20.144   9.069   7.940
  417POPC   C4B 8734  19.969   9.262   7.539
  418POPC   NC3 8735  28.521  20.427   9.647
  418POPC   PO4 8736  28.532  21.052   9.503
  418POPC   GL1 8737  28.523  20.713   9.203
  418POPC   GL2 8738  28.249  20.545   9.243
  418POPC   C1A 8739  28.578  20.503   8.796
  418POPC   D2A 8740  28.471  20.723   8.408
  418POPC   C3A 8741  28.461  20.671   7.967
  418POPC   C4A 8742  28.377  21.016   7.661
  418POPC   C1B 8743  28.138  20.282   8.907
  418POPC   C2B 8744  28.216  20.254   8.457
  418POPC   C3B 8745  28.134  20.264   8.015
  418POPC   C4B 8746  27.798  20.185   7.731
  419POPC   NC3 8747   3.848  19.200   9.337
  419POPC   PO4 8748   4.474  19.055   9.582
  419POPC   GL1 8749   4.298  19.042   9.196
  419POPC   GL2 8750   4.272  19.404   9.123
  419POPC   C1A 8751   4.196  19.044   8.773
  419POPC   D2A 8752   4.468  19.099   8.450
  419POPC   C3A 8753   4.355  18.877   8.139
  419POPC   C4A 8754   4.216  18.851   7.729
  419POPC   C1B 8755   4.182  19.532   8.677
  419POPC   C2B 8756   4.318  19.558   8.274
  419POPC   C3B 8757   4.175  19.328   7.925
  419POPC   C4B 8758   4.076  19.300   7.527
  420POPC   NC3 8759  29.311  30.392   9.723
  420POPC   PO4 8760  29.002  30.967   9.829
  420POPC   GL1 8761  29.100  30.767   9.391
  420POPC   GL2 8762  28.934  30.474   9.377
  420POPC   C1A 8763  29.311  30.841   8.976
  420POPC   D2A 8764  29.191  30.840   8.533
  420POPC   C3A 8765  29.392  30.649   8.178
  420POPC   C4A 8766  29.285  30.636   7.723
  420POPC   C1B 8767  28.957  30.483   8.928
  420POPC   C2B 8768  28.762  30.526   8.535
  420POPC   C3B 8769  28.895  30.566   8.138
  420POPC   C4B 8770  28.777  30.822   7.823
  421POPC   NC3 8771  19.281  43.338   9.345
  421POPC   PO4 8772  18.702  42.968   9.628
  421POPC   GL1 8773  18.876  43.017   9.207
  421POPC   GL2 8774  18.826  43.379   9.090
  421POPC   C1A 8775  19.040  42.961   8.781
  421POPC   D2A 8776  18.841  43.011   8.356
  421POPC   C3A 8777  18.974  43.200   7.990
  421POPC   C4A 8778  19.440  43.137   7.849
  421POPC   C1B 8779  18.987  43.455   8.656
  421POPC   C2B 8780  19.282  43.514   8.276
  421POPC   C3B 8781  19.224  43.586   7.806
  421POPC   C4B 8782  18.890  43.462   7.474
  422POPC   NC3 8783  43.521  18.157   9.383
  422POPC   PO4 8784  42.948  17.854   9.488
  422POPC   GL1 8785  43.095  18.101   9.109
  422POPC   GL2 8786  43.245  18.469   9.091
  422POPC   C1A 8787  43.300  18.130   8.697
  422POPC   D2A 8788  43.084  18.272   8.336
  422POPC   C3A 8789  43.167  18.216   7.925
  422POPC   C4A 8790  42.837  17.977   7.738
  422POPC   C1B 8791  43.168  18.653   8.664
  422POPC   C2B 8792  42.807  18.716   8.348
  422POPC   C3B 8793  42.753  18.769   7.911
  422POPC   C4B 8794  43.200  18.768   7.838
  423POPC   NC3 8795  15.188  22.432  10.195
  423POPC   PO4 8796  15.026  22.065   9.630
  423POPC   GL1 8797  15.149  22.055   9.194
  423POPC   GL2 8798  15.164  22.379   9.227
  423POPC   C1A 8799  15.361  22.153   8.778
  423POPC   D2A 8800  15.264  22.319   8.393
  423POPC   C3A 8801  15.321  22.207   7.979
  423POPC   C4A 8802  15.609  22.396   7.686
  423POPC   C1B 8803  14.944  22.500   8.894
  423POPC   C2B 8804  14.800  22.500   8.495
  423POPC   C3B 8805  14.936  22.624   8.118
  423POPC   C4B 8806  15.020  22.572   7.735
  424POPC   NC3 8807  24.785  11.785   9.537
  424POPC   PO4 8808  24.304  12.247   9.512
  424POPC   GL1 8809  24.539  12.158   9.123
  424POPC   GL2 8810  24.894  12.141   9.127
  424POPC   C1A 8811  24.404  12.167   8.680
  424POPC   D2A 8812  24.230  11.952   8.314
  424POPC   C3A 8813  24.307  12.060   7.900
  424POPC   C4A 8814  24.167  11.825   7.546
  424POPC   C1B 8815  24.882  12.012   8.701
  424POPC   C2B 8816  24.782  12.060   8.263
  424POPC   C3B 8817  24.734  11.789   7.937
  424POPC   C4B 8818  24.671  11.767   7.499
  425POPC   NC3 8819  39.597   3.221   9.332
  425POPC   PO4 8820  40.286   3.254   9.318
  425POPC   GL1 8821  40.192   3.387   8.959
  425POPC   GL2 8822  39.898   3.559   9.051
  425POPC   C1A 8823  40.193   3.701   8.667
  425POPC   D2A 8824  40.056   3.966   8.395
  425POPC   C3A 8825  40.212   3.848   7.997
  425POPC   C4A 8826  40.116   3.790   7.563
  425POPC   C1B 8827  39.766   3.350   8.676
  425POPC   C2B 8828  39.840   3.525   8.271
  425POPC   C3B 8829  39.888   3.443   7.848
  425POPC   C4B 8830  39.654   3.091   7.722
  426POPC   NC3 8831  25.696  35.337   9.569
  426POPC   PO4 8832  25.085  35.581   9.569
  426POPC   GL1 8833  25.309  35.348   9.241
  426POPC   GL2 8834  25.028  35.275   9.057
  426POPC   C1A 8835  25.482  35.425   8.834
  426POPC   D2A 8836  25.414  35.493   8.382
  426POPC   C3A 8837  25.194  35.213   8.088
  426POPC   C4A 8838  25.358  35.325   7.650
  426POPC   C1B 8839  25.019  35.281   8.620
  426POPC   C2B 8840  24.897  35.571   8.311
  426POPC   C3B 8841  24.977  35.618   7.895
  426POPC   C4B 8842  24.846  35.262   7.701
  427POPC   NC3 8843  37.680  35.605   9.535
  427POPC   PO4 8844  37.273  35.059   9.530
  427POPC   GL1 8845  37.554  35.198   9.217
  427POPC   GL2 8846  37.455  35.557   9.071
  427POPC   C1A 8847  37.690  35.184   8.817
  427POPC   D2A 8848  37.688  35.418   8.461
  427POPC   C3A 8849  37.688  35.133   8.150
  427POPC   C4A 8850  37.672  35.025   7.730
  427POPC   C1B 8851  37.854  35.685   8.874
  427POPC   C2B 8852  38.150  35.638   8.536
  427POPC   C3B 8853  37.999  35.621   8.110
  427POPC   C4B 8854  37.618  35.533   7.855
  428POPC   NC3 8855  26.312  12.743   9.486
  428POPC   PO4 8856  25.748  13.068   9.432
  428POPC   GL1 8857  25.993  12.915   9.101
  428POPC   GL2 8858  26.273  13.170   9.030
  428POPC   C1A 8859  25.825  12.769   8.695
  428POPC   D2A 8860  26.012  12.918   8.286
  428POPC   C3A 8861  25.764  12.934   7.930
  428POPC   C4A 8862  25.906  13.009   7.517
  428POPC   C1B 8863  26.324  12.880   8.703
  428POPC   C2B 8864  26.201  12.484   8.499
  428POPC   C3B 8865  26.246  12.433   8.069
  428POPC   C4B 8866  26.250  12.732   7.751
  429POPC   NC3 8867   7.654  28.272   9.590
  429POPC   PO4 8868   7.318  28.856   9.455
  429POPC   GL1 8869   7.367  28.478   9.150
  429POPC   GL2 8870   7.555  28.158   9.119
  429POPC   C1A 8871   7.274  28.312   8.719
  429POPC   D2A 8872   7.343  28.546   8.360
  429POPC   C3A 8873   7.278  28.194   8.115
  429POPC   C4A 8874   7.106  28.102   7.771
  429POPC   C1B 8875   7.772  28.313   8.774
  429POPC   C2B 8876   7.744  28.221   8.347
  429POPC   C3B 8877   7.688  28.454   7.979
  429POPC   C4B 8878   7.446  28.480   7.622
  430POPC   NC3 8879  14.898  11.875   9.453
  430POPC   PO4 8880  15.474  12.026   9.713
  430POPC   GL1 8881  15.361  12.074   9.230
  430POPC   GL2 8882  15.143  11.860   9.005
  430POPC   C1A 8883  15.090  12.365   8.927
  430POPC   D2A 8884  14.862  12.466   8.504
  430POPC   C3A 8885  14.967  12.182   8.194
  430POPC   C4A 8886  15.352  12.206   7.943
  430POPC   C1B 8887  15.298  12.029   8.587
  430POPC   C2B 8888  15.551  11.738   8.291
  430POPC   C3B 8889  15.735  11.676   7.911
  430POPC   C4B 8890  15.379  11.764   7.704
  431POPC   NC3 8891  36.275  23.448   9.303
  431POPC   PO4 8892  36.570  23.977   9.453
  431POPC   GL1 8893  36.279  23.908   9.089
  431POPC   GL2 8894  35.911  23.761   9.109
  431POPC   C1A 8895  36.324  23.661   8.697
  431POPC   D2A 8896  36.187  23.474   8.309
  431POPC   C3A 8897  36.445  23.691   8.014
  431POPC   C4A 8898  36.368  23.775   7.595
  431POPC   C1B 8899  35.834  23.512   8.722
  431POPC   C2B 8900  35.742  23.184   8.431
  431POPC   C3B 8901  35.637  23.303   8.029
  431POPC   C4B 8902  35.969  23.514   7.818
  432POPC   NC3 8903  20.233  28.750   9.422
  432POPC   PO4 8904  20.776  28.503   9.767
  432POPC   GL1 8905  20.646  28.536   9.206
  432POPC   GL2 8906  20.582  28.151   9.012
  432POPC   C1A 8907  20.487  28.528   8.739
  432POPC   D2A 8908  20.330  28.170   8.502
  432POPC   C3A 8909  20.526  28.264   8.141
  432POPC   C4A 8910  20.427  28.571   7.868
  432POPC   C1B 8911  20.974  28.313   8.855
  432POPC   C2B 8912  21.219  28.274   8.501
  432POPC   C3B 8913  21.050  28.234   8.106
  432POPC   C4B 8914  20.847  28.279   7.739
  433POPC   NC3 8915  25.540  43.609   9.249
  433POPC   PO4 8916  25.036  43.945   9.601
  433POPC   GL1 8917  25.047  43.689   9.205
  433POPC   GL2 8918  25.190  43.982   9.078
  433POPC   C1A 8919  25.111  43.547   8.755
  433POPC   D2A 8920  25.228  43.900   8.489
  433POPC   C3A 8921  25.311  43.793   8.063
  433POPC   C4A 8922  25.199  43.798   7.623
  433POPC   C1B 8923  25.550  44.126   8.852
  433POPC   C2B 8924  25.571  44.333   8.498
  433POPC   C3B 8925  25.613  44.309   8.081
  433POPC   C4B 8926  25.655  44.033   7.757
  434POPC   NC3 8927  14.163  16.764  10.104
  434POPC   PO4 8928  14.036  16.642   9.480
  434POPC   GL1 8929  14.359  16.717   9.200
  434POPC   GL2 8930  14.394  17.033   9.136
  434POPC   C1A 8931  14.533  16.549   8.829
  434POPC   D2A 8932  14.416  16.304   8.479
  434POPC   C3A 8933  14.454  16.413   8.034
  434POPC   C4A 8934  14.273  16.393   7.585
  434POPC   C1B 8935  14.304  16.989   8.722
  434POPC   C2B 8936  14.608  16.866   8.435
  434POPC   C3B 8937  14.587  16.921   8.019
  434POPC   C4B 8938  14.214  16.834   7.819
  435POPC   NC3 8939  27.931  33.585   9.853
  435POPC   PO4 8940  27.444  33.988   9.474
  435POPC   GL1 8941  27.548  33.979   9.055
  435POPC   GL2 8942  27.500  33.673   8.992
  435POPC   C1A 8943  27.728  34.059   8.657
  435POPC   D2A 8944  27.469  34.144   8.287
  435POPC   C3A 8945  27.480  33.913   7.874
  435POPC   C4A 8946  27.474  34.054   7.407
  435POPC   C1B 8947  27.274  33.802   8.629
  435POPC   C2B 8948  27.214  33.560   8.247
  435POPC   C3B 8949  27.379  33.384   7.867
  435POPC   C4B 8950  27.540  33.568   7.473
  436POPC   NC3 8951  15.889  11.845   9.586
  436POPC   PO4 8952  16.166  12.451   9.597
  436POPC   GL1 8953  15.891  12.286   9.287
  436POPC   GL2 8954  16.101  12.056   9.097
  436POPC   C1A 8955  15.686  12.329   8.903
  436POPC   D2A 8956  15.807  12.029   8.625
  436POPC   C3A 8957  15.835  12.136   8.169
  436POPC   C4A 8958  15.823  12.168   7.739
  436POPC   C1B 8959  16.345  12.069   8.694
  436POPC   C2B 8960  16.420  12.124   8.250
  436POPC   C3B 8961  16.290  11.978   7.844
  436POPC   C4B 8962  16.074  11.775   7.485
  437POPC   NC3 8963  26.145  10.091   9.562
  437POPC   PO4 8964  26.072  10.736   9.439
  437POPC   GL1 8965  26.001  10.526   9.079
  437POPC   GL2 8966  26.303  10.362   9.128
  437POPC   C1A 8967  26.088  10.494   8.629
  437POPC   D2A 8968  26.283  10.772   8.296
  437POPC   C3A 8969  26.126  10.688   7.889
  437POPC   C4A 8970  25.814  10.379   7.853
  437POPC   C1B 8971  26.151  10.051   8.886
  437POPC   C2B 8972  26.284  10.012   8.498
  437POPC   C3B 8973  26.177  10.211   8.161
  437POPC   C4B 8974  26.325  10.113   7.783
  438POPC   NC3 8975   3.087   3.180   9.769
  438POPC   PO4 8976   2.627   3.671   9.858
  438POPC   GL1 8977   2.804   3.550   9.400
  438POPC   GL2 8978   3.001   3.239   9.264
  438POPC   C1A 8979   2.703   3.698   8.951
  438POPC   D2A 8980   2.927   3.739   8.560
  438POPC   C3A 8981   2.706   3.711   8.165
  438POPC   C4A 8982   2.961   3.827   7.826
  438POPC   C1B 8983   2.946   3.251   8.801
  438POPC   C2B 8984   2.609   3.312   8.499
  438POPC   C3B 8985   2.558   3.193   8.073
  438POPC   C4B 8986   2.761   3.381   7.727
  439POPC   NC3 8987  18.412  18.939   9.435
  439POPC   PO4 8988  18.494  18.254   9.479
  439POPC   GL1 8989  18.355  17.975   9.146
  439POPC   GL2 8990  18.000  17.835   9.216
  439POPC   C1A 8991  18.384  18.104   8.706
  439POPC   D2A 8992  18.368  18.509   8.452
  439POPC   C3A 8993  18.447  18.469   7.995
  439POPC   C4A 8994  18.083  18.460   7.729
  439POPC   C1B 8995  17.886  18.012   8.828
  439POPC   C2B 8996  17.926  18.208   8.410
  439POPC   C3B 8997  18.017  18.029   8.002
  439POPC   C4B 8998  17.811  18.064   7.606
  440POPC   NC3 8999  30.215  30.143   9.686
  440POPC   PO4 9000  30.000  29.630   9.389
  440POPC   GL1 9001  30.145  29.974   9.176
  440POPC   GL2 9002  30.410  30.143   9.137
  440POPC   C1A 9003  29.957  30.168   8.795
  440POPC   D2A 9004  29.726  30.001   8.465
  440POPC   C3A 9005  29.619  30.206   8.112
  440POPC   C4A 9006  29.661  30.013   7.734
  440POPC   C1B 9007  30.380  29.891   8.753
  440POPC   C2B 9008  30.295  30.133   8.395
  440POPC   C3B 9009  30.099  30.033   8.031
  440POPC   C4B 9010  30.161  30.146   7.613
  441POPC   NC3 9011  43.876  12.647   9.540
  441POPC   PO4 9012  44.112  13.290   9.399
  441POPC   GL1 9013  43.774  13.027   9.153
  441POPC   GL2 9014  43.766  12.649   9.049
  441POPC   C1A 9015  43.700  13.006   8.706
  441POPC   D2A 9016  43.963  12.956   8.366
  441POPC   C3A 9017  43.839  12.737   8.029
  441POPC   C4A 9018  44.013  12.790   7.659
  441POPC   C1B 9019  44.103  12.572   8.769
  441POPC   C2B 9020  44.355  12.593   8.412
  441POPC   C3B 9021  44.363  12.678   8.008
  441POPC   C4B 9022  44.258  12.357   7.743
  442POPC   NC3 9023  24.683  44.290   9.672
  442POPC   PO4 9024  24.205  44.806   9.690
  442POPC   GL1 9025  24.492  44.698   9.266
  442POPC   GL2 9026  24.816  44.458   9.220
  442POPC   C1A 9027  24.550  44.867   8.783
  442POPC   D2A 9028  24.643  44.808   8.299
  442POPC   C3A 9029  24.352  44.795   7.889
  442POPC   C4A 9030  24.165   0.030   7.501
  442POPC   C1B 9031  24.552  44.377   8.882
  442POPC   C2B 9032  24.609  44.305   8.454
  442POPC   C3B 9033  24.722  44.163   8.048
  442POPC   C4B 9034  24.459  44.297   7.770
  443POPC   NC3 9035   3.370   6.385   9.689
  443POPC   PO4 9036   3.811   6.855   9.658
  443POPC   GL1 9037   3.488   6.776   9.344
  443POPC   GL2 9038   3.552   6.475   9.188
  443POPC   C1A 9039   3.304   6.932   8.967
  443POPC   D2A 9040   3.390   7.018   8.531
  443POPC   C3A 9041   3.478   6.674   8.269
  443POPC   C4A 9042   3.378   6.683   7.845
  443POPC   C1B 9043   3.573   6.398   8.734
  443POPC   C2B 9044   3.829   6.282   8.359
  443POPC   C3B 9045   3.775   6.358   7.898
  443POPC   C4B 9046   3.643   6.235   7.490
  444POPC   NC3 9047  31.124  19.604   9.455
  444POPC   PO4 9048  31.688  19.985   9.477
  444POPC   GL1 9049  31.765  19.897   9.088
  444POPC   GL2 9050  31.450  19.768   9.083
  444POPC   C1A 9051  31.796  19.605   8.749
  444POPC   D2A 9052  31.663  19.677   8.329
  444POPC   C3A 9053  31.799  19.715   7.948
  444POPC   C4A 9054  31.674  19.903   7.542
  444POPC   C1B 9055  31.406  19.932   8.695
  444POPC   C2B 9056  31.203  19.880   8.315
  444POPC   C3B 9057  31.275  19.672   7.972
  444POPC   C4B 9058  31.016  19.744   7.663
  445POPC   NC3 9059  30.948   8.785   9.370
  445POPC   PO4 9060  30.271   9.165   9.518
  445POPC   GL1 9061  30.519   9.057   9.144
  445POPC   GL2 9062  30.812   9.262   9.165
  445POPC   C1A 9063  30.645   8.874   8.715
  445POPC   D2A 9064  30.418   8.691   8.363
  445POPC   C3A 9065  30.578   8.781   7.964
  445POPC   C4A 9066  30.564   8.568   7.563
  445POPC   C1B 9067  31.071   9.124   8.809
  445POPC   C2B 9068  31.003   9.151   8.392
  445POPC   C3B 9069  31.052   8.957   7.997
  445POPC   C4B 9070  30.993   8.881   7.572
  446POPC   NC3 9071  18.171   0.540   9.409
  446POPC   PO4 9072  18.518   0.015   9.317
  446POPC   GL1 9073  18.270   0.184   9.062
  446POPC   GL2 9074  17.907   0.005   9.071
  446POPC   C1A 9075  18.422   0.582   8.823
  446POPC   D2A 9076  18.476   0.854   8.478
  446POPC   C3A 9077  18.427   0.605   8.121
  446POPC   C4A 9078  18.521   0.597   7.691
  446POPC   C1B 9079  17.895   0.387   8.826
  446POPC   C2B 9080  18.094   0.406   8.479
  446POPC   C3B 9081  17.957   0.376   8.097
  446POPC   C4B 9082  17.999   0.670   7.776
  447POPC   NC3 9083  36.322  29.441   9.461
  447POPC   PO4 9084  35.760  29.073   9.408
  447POPC   GL1 9085  36.048  29.162   9.088
  447POPC   GL2 9086  36.347  28.947   9.043
  447POPC   C1A 9087  35.963  29.125   8.671
  447POPC   D2A 9088  35.966  28.903   8.315
  447POPC   C3A 9089  35.963  29.160   7.971
  447POPC   C4A 9090  36.327  29.127   7.758
  447POPC   C1B 9091  36.437  29.274   8.731
  447POPC   C2B 9092  36.367  29.252   8.280
  447POPC   C3B 9093  36.319  29.585   7.955
  447POPC   C4B 9094  36.396  29.833   7.565
  448POPC   NC3 9095  27.364   5.842   9.406
  448POPC   PO4 9096  28.023   6.079   9.380
  448POPC   GL1 9097  27.752   5.940   9.081
  448POPC   GL2 9098  27.654   5.579   9.057
  448POPC   C1A 9099  27.508   5.933   8.712
  448POPC   D2A 9100  27.673   5.786   8.337
  448POPC   C3A 9101  27.479   6.041   8.063
  448POPC   C4A 9102  27.641   5.993   7.688
  448POPC   C1B 9103  27.296   5.467   8.750
  448POPC   C2B 9104  27.172   5.697   8.349
  448POPC   C3B 9105  27.291   5.580   7.924
  448POPC   C4B 9106  27.687   5.439   7.778
  449POPC   NC3 9107  31.856  19.551   9.476
  449POPC   PO4 9108  32.552  19.482   9.509
  449POPC   GL1 9109  32.312  19.790   9.246
  449POPC   GL2 9110  32.618  19.854   9.074
  449POPC   C1A 9111  32.204  19.900   8.796
  449POPC   D2A 9112  32.205  19.628   8.418
  449POPC   C3A 9113  32.277  19.874   8.079
  449POPC   C4A 9114  32.122  20.041   7.726
  449POPC   C1B 9115  32.547  19.515   8.813
  449POPC   C2B 9116  32.713  19.437   8.438
  449POPC   C3B 9117  32.598  19.472   8.048
  449POPC   C4B 9118  32.527  19.662   7.663
  450POPC   NC3 9119  10.415   2.972   9.670
  450POPC   PO4 9120  10.831   2.427   9.544
  450POPC   GL1 9121  10.551   2.704   9.247
  450POPC   GL2 9122  10.545   3.078   9.201
  450POPC   C1A 9123  10.422   2.754   8.814
  450POPC   D2A 9124  10.415   2.632   8.370
  450POPC   C3A 9125  10.737   2.775   8.105
  450POPC   C4A 9126  10.660   2.494   7.801
  450POPC   C1B 9127  10.657   3.225   8.826
  450POPC   C2B 9128  10.478   3.125   8.442
  450POPC   C3B 9129  10.490   3.226   8.029
  450POPC   C4B 9130  10.786   3.161   7.740
  451POPC   NC3 9131  22.553  25.246   9.448
  451POPC   PO4 9132  23.291  25.465   9.480
  451POPC   GL1 9133  22.982  25.524   9.197
  451POPC   GL2 9134  22.935  25.162   9.111
  451POPC   C1A 9135  22.821  25.592   8.792
  451POPC   D2A 9136  22.762  25.292   8.460
  451POPC   C3A 9137  22.984  25.420   8.123
  451POPC   C4A 9138  22.942  25.501   7.705
  451POPC   C1B 9139  23.179  25.216   8.735
  451POPC   C2B 9140  23.169  24.980   8.325
  451POPC   C3B 9141  23.266  25.082   7.881
  451POPC   C4B 9142  23.201  24.967   7.461
  452POPC   NC3 9143  37.651   3.273   9.531
  452POPC   PO4 9144  37.931   3.847   9.370
  452POPC   GL1 9145  37.592   3.755   9.083
  452POPC   GL2 9146  37.520   3.432   9.056
  452POPC   C1A 9147  37.377   3.709   8.660
  452POPC   D2A 9148  37.278   3.886   8.253
  452POPC   C3A 9149  37.549   3.695   7.955
  452POPC   C4A 9150  37.486   3.789   7.550
  452POPC   C1B 9151  37.728   3.253   8.732
  452POPC   C2B 9152  37.613   3.314   8.336
  452POPC   C3B 9153  37.615   3.095   7.990
  452POPC   C4B 9154  37.651   3.289   7.590
  453POPC   NC3 9155  32.825  32.553   9.488
  453POPC   PO4 9156  33.379  32.246   9.673
  453POPC   GL1 9157  33.162  32.251   9.251
  453POPC   GL2 9158  32.800  32.194   9.126
  453POPC   C1A 9159  33.177  32.162   8.801
  453POPC   D2A 9160  32.925  32.199   8.448
  453POPC   C3A 9161  33.130  32.193   8.021
  453POPC   C4A 9162  32.859  32.039   7.687
  453POPC   C1B 9163  32.824  32.566   8.819
  453POPC   C2B 9164  32.601  32.609   8.430
  453POPC   C3B 9165  32.649  32.389   8.057
  453POPC   C4B 9166  32.849  32.575   7.751
  454POPC   NC3 9167   4.669  33.176   9.345
  454POPC   PO4 9168   4.255  33.603   9.578
  454POPC   GL1 9169   4.194  33.745   9.184
  454POPC   GL2 9170   4.466  33.533   9.055
  454POPC   C1A 9171   4.329  33.970   8.817
  454POPC   D2A 9172   4.541  34.026   8.419
  454POPC   C3A 9173   4.253  33.971   8.082
  454POPC   C4A 9174   4.254  34.070   7.652
  454POPC   C1B 9175   4.134  33.410   8.793
  454POPC   C2B 9176   3.902  33.443   8.408
  454POPC   C3B 9177   4.037  33.422   7.985
  454POPC   C4B 9178   4.351  33.583   7.764
  455POPC   NC3 9179  24.071  24.708   9.435
  455POPC   PO4 9180  24.550  24.300   9.299
  455POPC   GL1 9181  24.398  24.548   8.995
  455POPC   GL2 9182  24.042  24.455   8.997
  455POPC   C1A 9183  24.505  24.501   8.544
  455POPC   D2A 9184  24.496  24.189   8.193
  455POPC   C3A 9185  24.639  24.377   7.808
  455POPC   C4A 9186  24.565  24.789   7.694
  455POPC   C1B 9187  24.076  24.764   8.665
  455POPC   C2B 9188  24.118  24.854   8.244
  455POPC   C3B 9189  24.151  24.551   7.909
  455POPC   C4B 9190  24.214  24.116   7.737
  456POPC   NC3 9191  35.553  35.264   9.531
  456POPC   PO4 9192  34.948  35.568   9.451
  456POPC   GL1 9193  35.148  35.392   9.083
  456POPC   GL2 9194  35.509  35.243   9.037
  456POPC   C1A 9195  35.313  35.592   8.728
  456POPC   D2A 9196  35.653  35.626   8.472
  456POPC   C3A 9197  35.413  35.485   8.148
  456POPC   C4A 9198  35.486  35.438   7.734
  456POPC   C1B 9199  35.599  35.114   8.615
  456POPC   C2B 9200  35.469  34.866   8.273
  456POPC   C3B 9201  35.532  34.921   7.880
  456POPC   C4B 9202  35.819  35.074   7.602
  457POPC   NC3 9203   5.975  38.133   9.302
  457POPC   PO4 9204   5.602  38.627   9.695
  457POPC   GL1 9205   5.648  38.639   9.217
  457POPC   GL2 9206   5.970  38.591   9.065
  457POPC   C1A 9207   5.543  38.477   8.787
  457POPC   D2A 9208   5.502  38.194   8.465
  457POPC   C3A 9209   5.621  38.404   8.153
  457POPC   C4A 9210   5.713  38.685   7.839
  457POPC   C1B 9211   6.016  38.388   8.631
  457POPC   C2B 9212   6.116  38.573   8.216
  457POPC   C3B 9213   6.205  38.644   7.779
  457POPC   C4B 9214   6.001  38.426   7.423
  458POPC   NC3 9215   8.027   3.363   9.503
  458POPC   PO4 9216   8.723   3.636   9.600
  458POPC   GL1 9217   8.460   3.552   9.281
  458POPC   GL2 9218   8.578   3.263   9.126
  458POPC   C1A 9219   8.241   3.564   8.901
  458POPC   D2A 9220   8.007   3.513   8.510
  458POPC   C3A 9221   8.165   3.631   8.125
  458POPC   C4A 9222   8.159   3.547   7.709
  458POPC   C1B 9223   8.344   3.085   8.754
  458POPC   C2B 9224   8.178   3.064   8.355
  458POPC   C3B 9225   8.341   3.142   7.966
  458POPC   C4B 9226   8.506   3.146   7.577
  459POPC   NC3 9227  28.757   3.576   9.804
  459POPC   PO4 9228  28.313   3.876   9.463
  459POPC   GL1 9229  28.219   3.624   9.137
  459POPC   GL2 9230  28.478   3.413   9.086
  459POPC   C1A 9231  27.964   3.589   8.799
  459POPC   D2A 9232  27.996   3.667   8.386
  459POPC   C3A 9233  28.255   3.429   8.132
  459POPC   C4A 9234  28.307   3.562   7.725
  459POPC   C1B 9235  28.380   3.295   8.662
  459POPC   C2B 9236  28.689   3.254   8.316
  459POPC   C3B 9237  28.782   3.601   7.991
  459POPC   C4B 9238  28.743   3.669   7.514
  460POPC   NC3 9239  19.137  27.721   9.705
  460POPC   PO4 9240  19.138  28.405   9.508
  460POPC   GL1 9241  19.127  28.498   9.098
  460POPC   GL2 9242  19.444  28.663   9.062
  460POPC   C1A 9243  18.951  28.570   8.677
  460POPC   D2A 9244  18.634  28.588   8.348
  460POPC   C3A 9245  18.876  28.496   7.970
  460POPC   C4A 9246  19.174  28.201   7.849
  460POPC   C1B 9247  19.452  28.390   8.728
  460POPC   C2B 9248  19.308  28.407   8.303
  460POPC   C3B 9249  19.571  28.499   7.947
  460POPC   C4B 9250  19.428  28.494   7.519
  461POPC   NC3 9251  24.970  28.208   9.318
  461POPC   PO4 9252  24.331  28.195   9.452
  461POPC   GL1 9253  24.531  28.320   9.098
  461POPC   GL2 9254  24.264  28.443   8.964
  461POPC   C1A 9255  24.727  28.306   8.683
  461POPC   D2A 9256  24.456  28.243   8.359
  461POPC   C3A 9257  24.693  28.163   7.985
  461POPC   C4A 9258  24.692  28.203   7.544
  461POPC   C1B 9259  24.234  28.705   8.613
  461POPC   C2B 9260  24.032  28.562   8.261
  461POPC   C3B 9261  24.213  28.395   7.930
  461POPC   C4B 9262  24.441  28.681   7.722
  462POPC   NC3 9263   4.949   0.175   9.494
  462POPC   PO4 9264   5.344   0.733   9.547
  462POPC   GL1 9265   4.993   0.656   9.249
  462POPC   GL2 9266   4.904   0.308   9.025
  462POPC   C1A 9267   5.021   0.748   8.824
  462POPC   D2A 9268   5.120   0.401   8.555
  462POPC   C3A 9269   5.207   0.528   8.180
  462POPC   C4A 9270   5.411   0.556   7.849
  462POPC   C1B 9271   4.626   0.426   8.672
  462POPC   C2B 9272   4.708   0.471   8.237
  462POPC   C3B 9273   4.896   0.260   7.874
  462POPC   C4B 9274   4.676   0.203   7.464
  463POPC   NC3 9275   1.952   1.506   9.679
  463POPC   PO4 9276   2.267   1.070   9.345
  463POPC   GL1 9277   2.156   1.493   9.188
  463POPC   GL2 9278   1.800   1.513   9.186
  463POPC   C1A 9279   2.107   1.609   8.773
  463POPC   D2A 9280   2.125   1.238   8.519
  463POPC   C3A 9281   2.067   1.273   8.090
  463POPC   C4A 9282   2.293   1.440   7.713
  463POPC   C1B 9283   1.619   1.375   8.813
  463POPC   C2B 9284   1.613   1.218   8.417
  463POPC   C3B 9285   1.457   1.386   8.070
  463POPC   C4B 9286   1.759   1.526   7.788
  464POPC   NC3 9287  16.273  23.778   9.343
  464POPC   PO4 9288  15.958  23.360   9.819
  464POPC   GL1 9289  15.816  23.521   9.355
  464POPC   GL2 9290  15.807  23.860   9.166
  464POPC   C1A 9291  15.834  23.451   8.860
  464POPC   D2A 9292  15.707  23.638   8.429
  464POPC   C3A 9293  15.832  23.584   7.954
  464POPC   C4A 9294  15.923  23.449   7.490
  464POPC   C1B 9295  16.057  23.891   8.747
  464POPC   C2B 9296  16.270  23.770   8.345
  464POPC   C3B 9297  16.207  23.942   7.920
  464POPC   C4B 9298  16.049  24.006   7.503
  465POPC   NC3 9299  28.109  43.809  10.201
  465POPC   PO4 9300  28.471  43.559   9.641
  465POPC   GL1 9301  28.410  43.762   9.194
  465POPC   GL2 9302  28.226  44.100   9.088
  465POPC   C1A 9303  28.501  43.860   8.740
  465POPC   D2A 9304  28.268  44.129   8.454
  465POPC   C3A 9305  28.430  44.179   8.044
  465POPC   C4A 9306  28.688  43.911   7.766
  465POPC   C1B 9307  27.995  43.800   8.770
  465POPC   C2B 9308  28.134  43.616   8.347
  465POPC   C3B 9309  28.232  43.714   7.904
  465POPC   C4B 9310  28.229  44.042   7.570
  466POPC   NC3 9311  32.698  17.442   9.545
  466POPC   PO4 9312  32.226  17.871   9.684
  466POPC   GL1 9313  32.223  17.627   9.309
  466POPC   GL2 9314  32.543  17.738   9.145
  466POPC   C1A 9315  32.125  17.641   8.854
  466POPC   D2A 9316  32.418  17.784   8.534
  466POPC   C3A 9317  32.256  17.781   8.126
  466POPC   C4A 9318  32.312  17.612   7.742
  466POPC   C1B 9319  32.544  17.361   8.855
  466POPC   C2B 9320  32.256  17.300   8.466
  466POPC   C3B 9321  32.315  17.172   8.039
  466POPC   C4B 9322  32.708  17.218   7.818
  467POPC   NC3 9323  16.556  12.229   9.488
  467POPC   PO4 9324  17.140  12.113   9.686
  467POPC   GL1 9325  16.983  12.077   9.205
  467POPC   GL2 9326  16.679  12.286   9.014
  467POPC   C1A 9327  16.914  11.909   8.764
  467POPC   D2A 9328  17.098  12.032   8.357
  467POPC   C3A 9329  16.874  11.978   7.986
  467POPC   C4A 9330  16.659  12.344   7.809
  467POPC   C1B 9331  17.023  12.415   8.787
  467POPC   C2B 9332  17.079  12.620   8.417
  467POPC   C3B 9333  17.140  12.468   8.045
  467POPC   C4B 9334  17.094  12.567   7.639
  468POPC   NC3 9335  34.359  14.641   9.800
  468POPC   PO4 9336  33.762  14.630   9.470
  468POPC   GL1 9337  33.715  14.467   9.106
  468POPC   GL2 9338  34.043  14.431   9.048
  468POPC   C1A 9339  33.536  14.428   8.715
  468POPC   D2A 9340  33.672  14.248   8.337
  468POPC   C3A 9341  33.769  14.498   8.006
  468POPC   C4A 9342  34.102  14.763   7.983
  468POPC   C1B 9343  33.875  14.048   8.790
  468POPC   C2B 9344  33.876  13.782   8.397
  468POPC   C3B 9345  33.938  13.994   7.999
  468POPC   C4B 9346  33.556  14.103   7.789
  469POPC   NC3 9347   6.049  28.770   9.788
  469POPC   PO4 9348   5.699  28.212   9.506
  469POPC   GL1 9349   5.983  28.341   9.206
  469POPC   GL2 9350   5.877  28.642   9.295
  469POPC   C1A 9351   5.915  28.274   8.770
  469POPC   D2A 9352   5.977  28.188   8.339
  469POPC   C3A 9353   5.731  28.339   8.004
  469POPC   C4A 9354   5.353  28.192   7.860
  469POPC   C1B 9355   5.686  28.751   8.872
  469POPC   C2B 9356   5.626  28.600   8.453
  469POPC   C3B 9357   5.474  28.801   8.078
  469POPC   C4B 9358   5.703  28.800   7.705
  470POPC   NC3 9359  34.187  21.228   9.601
  470POPC   PO4 9360  33.566  21.334   9.536
  470POPC   GL1 9361  33.824  21.404   9.199
  470POPC   GL2 9362  34.038  21.116   9.128
  470POPC   C1A 9363  33.897  21.472   8.769
  470POPC   D2A 9364  33.834  21.237   8.424
  470POPC   C3A 9365  33.618  21.411   8.120
  470POPC   C4A 9366  33.512  21.149   7.770
  470POPC   C1B 9367  34.314  21.191   8.734
  470POPC   C2B 9368  34.309  21.167   8.249
  470POPC   C3B 9369  34.053  21.265   7.908
  470POPC   C4B 9370  33.983  21.693   7.834
  471POPC   NC3 9371   4.180   5.081   9.430
  471POPC   PO4 9372   4.216   4.472   9.317
  471POPC   GL1 9373   4.476   4.776   9.064
  471POPC   GL2 9374   4.500   5.159   9.068
  471POPC   C1A 9375   4.518   4.929   8.618
  471POPC   D2A 9376   4.134   4.889   8.394
  471POPC   C3A 9377   4.103   4.999   7.955
  471POPC   C4A 9378   4.482   5.141   7.769
  471POPC   C1B 9379   4.238   5.351   8.752
  471POPC   C2B 9380   4.504   5.470   8.420
  471POPC   C3B 9381   4.459   5.594   8.022
  471POPC   C4B 9382   4.068   5.511   7.841
  472POPC   NC3 9383   6.254  15.731   9.456
  472POPC   PO4 9384   6.389  16.349   9.352
  472POPC   GL1 9385   6.614  16.030   9.165
  472POPC   GL2 9386   6.786  15.707   9.257
  472POPC   C1A 9387   6.528  15.855   8.791
  472POPC   D2A 9388   6.766  15.977   8.445
  472POPC   C3A 9389   6.543  15.914   8.083
  472POPC   C4A 9390   6.636  16.088   7.705
  472POPC   C1B 9391   7.019  15.764   8.847
  472POPC   C2B 9392   7.109  15.595   8.426
  472POPC   C3B 9393   7.053  15.808   8.046
  472POPC   C4B 9394   6.916  15.655   7.667
  473POPC   NC3 9395  10.388   0.367   9.658
  473POPC   PO4 9396  10.811   0.829   9.415
  473POPC   GL1 9397  10.569   0.510   9.188
  473POPC   GL2 9398  10.713   0.172   9.240
  473POPC   C1A 9399  10.351   0.425   8.799
  473POPC   D2A 9400  10.187   0.477   8.365
  473POPC   C3A 9401  10.435   0.698   8.097
  473POPC   C4A 9402  10.443   0.523   7.703
  473POPC   C1B 9403  10.852   0.253   8.808
  473POPC   C2B 9404  10.692   0.378   8.413
  473POPC   C3B 9405  10.640   0.200   8.019
  473POPC   C4B 9406  10.868   0.242   7.611
  474POPC   NC3 9407   0.657  37.548   9.608
  474POPC   PO4 9408   0.080  37.853   9.722
  474POPC   GL1 9409   0.147  37.496   9.342
  474POPC   GL2 9410   0.505  37.526   9.121
  474POPC   C1A 9411   0.088  37.382   8.885
  474POPC   D2A 9412   0.273  37.512   8.482
  474POPC   C3A 9413   0.164  37.765   8.125
  474POPC   C4A 9414   0.234  37.620   7.695
  474POPC   C1B 9415   0.705  37.711   8.746
  474POPC   C2B 9416   0.637  37.930   8.338
  474POPC   C3B 9417   0.699  37.760   7.939
  474POPC   C4B 9418   0.670  37.821   7.474
  475POPC   NC3 9419   5.388   3.681   9.474
  475POPC   PO4 9420   6.009   3.316   9.417
  475POPC   GL1 9421   5.964   3.524   9.073
  475POPC   GL2 9422   5.617   3.570   9.043
  475POPC   C1A 9423   6.187   3.460   8.717
  475POPC   D2A 9424   6.033   3.346   8.328
  475POPC   C3A 9425   6.061   3.660   8.018
  475POPC   C4A 9426   5.836   3.571   7.674
  475POPC   C1B 9427   5.777   3.769   8.672
  475POPC   C2B 9428   5.618   3.664   8.303
  475POPC   C3B 9429   5.546   3.866   7.956
  475POPC   C4B 9430   5.802   4.154   7.746
  476POPC   NC3 9431  25.262  25.135   9.561
  476POPC   PO4 9432  25.129  25.760   9.437
  476POPC   GL1 9433  25.244  25.440   9.169
  476POPC   GL2 9434  24.890  25.331   9.226
  476POPC   C1A 9435  25.405  25.161   8.837
  476POPC   D2A 9436  25.519  24.944   8.435
  476POPC   C3A 9437  25.351  25.054   8.058
  476POPC   C4A 9438  25.406  25.353   7.769
  476POPC   C1B 9439  24.890  25.418   8.817
  476POPC   C2B 9440  25.046  25.243   8.444
  476POPC   C3B 9441  24.953  25.382   8.022
  476POPC   C4B 9442  24.935  25.241   7.585
  477POPC   NC3 9443  22.492   1.929   9.595
  477POPC   PO4 9444  21.912   2.137   9.521
  477POPC   GL1 9445  22.145   1.921   9.184
  477POPC   GL2 9446  22.462   1.701   9.126
  477POPC   C1A 9447  22.260   2.085   8.772
  477POPC   D2A 9448  22.346   2.286   8.375
  477POPC   C3A 9449  22.170   2.136   7.997
  477POPC   C4A 9450  22.314   2.222   7.601
  477POPC   C1B 9451  22.158   1.575   8.784
  477POPC   C2B 9452  22.218   1.727   8.345
  477POPC   C3B 9453  22.477   1.731   7.963
  477POPC   C4B 9454  22.315   1.742   7.536
  478POPC   NC3 9455  44.769  11.532   9.612
  478POPC   PO4 9456  44.426  11.028   9.431
  478POPC   GL1 9457  44.691  11.313   9.132
  478POPC   GL2 9458  44.934  11.590   9.142
  478POPC   C1A 9459  44.616  11.365   8.677
  478POPC   D2A 9460  44.230  11.264   8.408
  478POPC   C3A 9461  44.296  11.001   8.023
  478POPC   C4A 9462  44.397  11.160   7.606
  478POPC   C1B 9463  44.844  11.813   8.801
  478POPC   C2B 9464  44.948  11.740   8.392
  478POPC   C3B 9465  44.766  11.750   8.017
  478POPC   C4B 9466  44.808  11.384   7.776
  479POPC   NC3 9467  17.486  38.151   9.233
  479POPC   PO4 9468  17.293  37.532   9.432
  479POPC   GL1 9469  17.124  37.549   9.060
  479POPC   GL2 9470  17.130  37.906   8.976
  479POPC   C1A 9471  17.343  37.577   8.672
  479POPC   D2A 9472  17.578  37.905   8.440
  479POPC   C3A 9473  17.573  37.797   7.992
  479POPC   C4A 9474  17.182  37.576   7.808
  479POPC   C1B 9475  17.151  38.241   8.636
  479POPC   C2B 9476  17.122  38.267   8.186
  479POPC   C3B 9477  17.222  38.097   7.786
  479POPC   C4B 9478  17.156  37.864   7.375
  480POPC   NC3 9479  29.273   3.155   9.507
  480POPC   PO4 9480  29.230   2.451   9.488
  480POPC   GL1 9481  28.971   2.627   9.158
  480POPC   GL2 9482  28.913   3.006   9.167
  480POPC   C1A 9483  29.142   2.629   8.744
  480POPC   D2A 9484  29.328   2.706   8.342
  480POPC   C3A 9485  29.357   2.522   7.958
  480POPC   C4A 9486  29.467   2.919   7.813
  480POPC   C1B 9487  28.721   2.926   8.765
  480POPC   C2B 9488  28.789   2.705   8.367
  480POPC   C3B 9489  28.905   2.817   7.956
  480POPC   C4B 9490  28.746   3.182   7.727
  481POPC   NC3 9491  16.416  24.547   9.542
  481POPC   PO4 9492  16.695  23.943   9.476
  481POPC   GL1 9493  16.719  24.366   9.168
  481POPC   GL2 9494  17.049  24.469   9.068
  481POPC   C1A 9495  16.707  24.664   8.751
  481POPC   D2A 9496  16.466  24.789   8.368
  481POPC   C3A 9497  16.447  24.760   7.874
  481POPC   C4A 9498  16.661  24.870   7.439
  481POPC   C1B 9499  16.997  24.258   8.668
  481POPC   C2B 9500  16.913  24.482   8.312
  481POPC   C3B 9501  17.079  24.580   7.945
  481POPC   C4B 9502  16.908  24.445   7.582
  482POPC   NC3 9503  29.306  13.702   9.440
  482POPC   PO4 9504  28.927  13.116   9.499
  482POPC   GL1 9505  29.062  13.432   9.119
  482POPC   GL2 9506  28.936  13.744   9.062
  482POPC   C1A 9507  29.209  13.428   8.683
  482POPC   D2A 9508  29.368  13.212   8.304
  482POPC   C3A 9509  29.366  13.487   7.961
  482POPC   C4A 9510  28.979  13.633   7.768
  482POPC   C1B 9511  29.139  13.967   8.738
  482POPC   C2B 9512  29.312  13.846   8.342
  482POPC   C3B 9513  29.151  14.068   7.985
  482POPC   C4B 9514  28.759  14.093   7.786
  483POPC   NC3 9515  23.724  35.461   9.775
  483POPC   PO4 9516  23.377  35.072   9.348
  483POPC   GL1 9517  23.678  35.172   9.095
  483POPC   GL2 9518  23.783  35.463   9.243
  483POPC   C1A 9519  23.725  35.019   8.690
  483POPC   D2A 9520  23.810  35.278   8.359
  483POPC   C3A 9521  23.916  35.084   7.960
  483POPC   C4A 9522  23.720  35.179   7.543
  483POPC   C1B 9523  23.617  35.578   8.800
  483POPC   C2B 9524  23.462  35.689   8.378
  483POPC   C3B 9525  23.658  35.559   7.969
  483POPC   C4B 9526  23.727  35.756   7.618
  484POPC   NC3 9527  33.330   4.952   9.480
  484POPC   PO4 9528  33.197   5.588   9.567
  484POPC   GL1 9529  33.086   5.292   9.201
  484POPC   GL2 9530  32.757   5.133   9.152
  484POPC   C1A 9531  33.151   5.136   8.776
  484POPC   D2A 9532  33.034   5.345   8.387
  484POPC   C3A 9533  33.135   5.144   8.003
  484POPC   C4A 9534  33.390   5.252   7.679
  484POPC   C1B 9535  32.657   5.023   8.715
  484POPC   C2B 9536  32.812   4.878   8.340
  484POPC   C3B 9537  32.848   4.719   7.953
  484POPC   C4B 9538  32.828   4.967   7.625
  485POPC   NC3 9539  19.513  26.768   9.582
  485POPC   PO4 9540  18.964  27.101   9.531
  485POPC   GL1 9541  19.143  26.756   9.204
  485POPC   GL2 9542  19.473  26.470   9.178
  485POPC   C1A 9543  19.107  26.894   8.771
  485POPC   D2A 9544  19.240  26.964   8.345
  485POPC   C3A 9545  18.993  26.822   8.020
  485POPC   C4A 9546  19.215  26.858   7.671
  485POPC   C1B 9547  19.306  26.426   8.780
  485POPC   C2B 9548  19.356  26.239   8.372
  485POPC   C3B 9549  19.354  26.437   7.985
  485POPC   C4B 9550  19.333  26.400   7.548
  486POPC   NC3 9551  10.108  36.018   9.411
  486POPC   PO4 9552   9.416  36.147   9.514
  486POPC   GL1 9553   9.635  36.005   9.181
  486POPC   GL2 9554   9.771  36.337   9.171
  486POPC   C1A 9555   9.862  35.901   8.804
  486POPC   D2A 9556   9.858  36.087   8.404
  486POPC   C3A 9557  10.143  36.075   8.070
  486POPC   C4A 9558   9.955  36.117   7.659
  486POPC   C1B 9559   9.885  36.447   8.778
  486POPC   C2B 9560   9.685  36.630   8.445
  486POPC   C3B 9561   9.792  36.466   8.055
  486POPC   C4B 9562   9.536  36.448   7.757
  487POPC   NC3 9563   7.128  24.835   9.561
  487POPC   PO4 9564   7.218  24.200   9.597
  487POPC   GL1 9565   7.328  24.369   9.210
  487POPC   GL2 9566   7.208  24.042   9.108
  487POPC   C1A 9567   7.283  24.739   8.886
  487POPC   D2A 9568   7.201  24.665   8.418
  487POPC   C3A 9569   7.510  24.639   8.073
  487POPC   C4A 9570   7.369  24.654   7.659
  487POPC   C1B 9571   7.106  24.281   8.756
  487POPC   C2B 9572   6.988  24.161   8.359
  487POPC   C3B 9573   7.075  24.352   7.967
  487POPC   C4B 9574   6.986  24.360   7.511
  488POPC   NC3 9575  15.007  40.931   9.520
  488POPC   PO4 9576  15.504  40.501   9.578
  488POPC   GL1 9577  15.376  40.587   9.157
  488POPC   GL2 9578  15.268  40.925   9.083
  488POPC   C1A 9579  15.475  40.659   8.719
  488POPC   D2A 9580  15.204  40.957   8.504
  488POPC   C3A 9581  15.267  40.825   8.111
  488POPC   C4A 9582  15.308  40.964   7.717
  488POPC   C1B 9583  14.927  40.708   8.861
  488POPC   C2B 9584  14.614  40.710   8.521
  488POPC   C3B 9585  14.762  40.761   8.105
  488POPC   C4B 9586  14.989  40.558   7.704
  489POPC   NC3 9587   4.040  11.558   9.625
  489POPC   PO4 9588   4.565  11.181   9.616
  489POPC   GL1 9589   4.424  11.384   9.291
  489POPC   GL2 9590   4.149  11.240   9.239
  489POPC   C1A 9591   4.554  11.352   8.863
  489POPC   D2A 9592   4.404  11.270   8.463
  489POPC   C3A 9593   4.590  11.249   8.060
  489POPC   C4A 9594   4.668  11.289   7.628
  489POPC   C1B 9595   4.077  11.467   8.851
  489POPC   C2B 9596   3.884  11.303   8.503
  489POPC   C3B 9597   4.050  11.300   8.093
  489POPC   C4B 9598   4.153  11.166   7.695
  490POPC   NC3 9599   6.507   9.050   9.560
  490POPC   PO4 9600   7.137   9.009   9.796
  490POPC   GL1 9601   7.045   8.939   9.323
  490POPC   GL2 9602   6.751   8.727   9.236
  490POPC   C1A 9603   7.022   8.965   8.836
  490POPC   D2A 9604   6.855   9.029   8.370
  490POPC   C3A 9605   6.884   8.773   7.972
  490POPC   C4A 9606   6.904   8.944   7.524
  490POPC   C1B 9607   6.393   8.794   8.930
  490POPC   C2B 9608   6.221   8.740   8.506
  490POPC   C3B 9609   6.276   8.829   8.065
  490POPC   C4B 9610   6.433   8.725   7.676
  491POPC   NC3 9611   6.293  27.179   9.752
  491POPC   PO4 9612   6.886  26.884   9.502
  491POPC   GL1 9613   6.754  26.709   9.134
  491POPC   GL2 9614   6.409  26.688   9.208
  491POPC   C1A 9615   6.879  26.831   8.739
  491POPC   D2A 9616   6.688  26.824   8.351
  491POPC   C3A 9617   6.929  26.853   8.011
  491POPC   C4A 9618   6.721  26.968   7.643
  491POPC   C1B 9619   6.400  26.606   8.743
  491POPC   C2B 9620   6.225  26.617   8.295
  491POPC   C3B 9621   6.294  26.741   7.864
  491POPC   C4B 9622   6.334  26.754   7.384
  492POPC   NC3 9623  31.505   2.518   9.483
  492POPC   PO4 9624  31.262   3.074   9.470
  492POPC   GL1 9625  31.532   2.919   9.127
  492POPC   GL2 9626  31.719   2.590   9.026
  492POPC   C1A 9627  31.563   3.006   8.723
  492POPC   D2A 9628  31.591   2.833   8.338
  492POPC   C3A 9629  31.359   2.879   7.966
  492POPC   C4A 9630  31.723   2.828   7.709
  492POPC   C1B 9631  31.413   2.486   8.700
  492POPC   C2B 9632  31.424   2.354   8.261
  492POPC   C3B 9633  31.516   2.381   7.855
  492POPC   C4B 9634  31.328   2.576   7.518
  493POPC   NC3 9635   8.803   3.103   9.561
  493POPC   PO4 9636   9.232   2.637   9.271
  493POPC   GL1 9637   8.878   2.833   9.090
  493POPC   GL2 9638   9.123   2.997   8.938
  493POPC   C1A 9639   8.685   2.672   8.691
  493POPC   D2A 9640   8.794   2.499   8.260
  493POPC   C3A 9641   9.179   2.554   8.052
  493POPC   C4A 9642   9.132   2.672   7.638
  493POPC   C1B 9643   8.845   3.184   8.710
  493POPC   C2B 9644   8.702   3.063   8.330
  493POPC   C3B 9645   8.838   2.969   7.925
  493POPC   C4B 9646   9.025   3.184   7.541
  494POPC   NC3 9647  43.994  15.511   9.599
  494POPC   PO4 9648  43.727  16.163   9.541
  494POPC   GL1 9649  43.956  15.880   9.245
  494POPC   GL2 9650  43.721  15.657   9.072
  494POPC   C1A 9651  44.114  15.862   8.819
  494POPC   D2A 9652  43.986  15.859   8.365
  494POPC   C3A 9653  44.041  16.210   8.035
  494POPC   C4A 9654  43.945  16.229   7.562
  494POPC   C1B 9655  43.481  15.607   8.685
  494POPC   C2B 9656  43.568  15.535   8.249
  494POPC   C3B 9657  43.643  15.879   7.981
  494POPC   C4B 9658  43.501  16.007   7.633
  495POPC   NC3 9659  14.209  43.852   9.485
  495POPC   PO4 9660  14.888  43.908   9.373
  495POPC   GL1 9661  14.591  43.983   9.138
  495POPC   GL2 9662  14.466  43.685   9.090
  495POPC   C1A 9663  14.456  44.075   8.734
  495POPC   D2A 9664  14.583  43.910   8.355
  495POPC   C3A 9665  14.455  43.989   7.907
  495POPC   C4A 9666  14.306  43.947   7.452
  495POPC   C1B 9667  14.421  43.527   8.698
  495POPC   C2B 9668  14.089  43.445   8.438
  495POPC   C3B 9669  14.168  43.560   8.062
  495POPC   C4B 9670  14.310  43.474   7.668
  496POPC   NC3 9671  39.607  17.471   9.541
  496POPC   PO4 9672  40.223  17.294   9.308
  496POPC   GL1 9673  39.892  17.433   9.081
  496POPC   GL2 9674  39.627  17.203   9.107
  496POPC   C1A 9675  40.060  17.479   8.682
  496POPC   D2A 9676  40.262  17.744   8.432
  496POPC   C3A 9677  39.993  17.764   8.117
  496POPC   C4A 9678  40.075  17.748   7.706
  496POPC   C1B 9679  39.738  17.091   8.718
  496POPC   C2B 9680  39.782  17.229   8.329
  496POPC   C3B 9681  39.903  17.276   7.928
  496POPC   C4B 9682  39.817  17.354   7.500
  497POPC   NC3 9683  27.733  17.878   9.197
  497POPC   PO4 9684  27.406  17.384   9.566
  497POPC   GL1 9685  27.446  17.421   9.140
  497POPC   GL2 9686  27.808  17.348   9.199
  497POPC   C1A 9687  27.426  17.606   8.681
  497POPC   D2A 9688  27.747  17.623   8.346
  497POPC   C3A 9689  27.627  17.907   8.008
  497POPC   C4A 9690  27.298  17.928   7.697
  497POPC   C1B 9691  27.751  17.226   8.783
  497POPC   C2B 9692  27.522  17.158   8.417
  497POPC   C3B 9693  27.723  17.187   8.023
  497POPC   C4B 9694  27.434  17.438   7.845
  498POPC   NC3 9695  43.480   1.762   9.503
  498POPC   PO4 9696  44.057   1.999   9.392
  498POPC   GL1 9697  43.844   1.982   9.038
  498POPC   GL2 9698  43.599   2.260   9.104
  498POPC   C1A 9699  44.033   1.857   8.625
  498POPC   D2A 9700  44.251   1.735   8.231
  498POPC   C3A 9701  44.089   1.927   7.860
  498POPC   C4A 9702  43.782   1.886   7.559
  498POPC   C1B 9703  43.799   2.325   8.670
  498POPC   C2B 9704  43.790   2.153   8.242
  498POPC   C3B 9705  43.689   2.311   7.816
  498POPC   C4B 9706  43.430   2.200   7.417
  499POPC   NC3 9707  13.174  31.561   9.451
  499POPC   PO4 9708  12.546  31.687   9.323
  499POPC   GL1 9709  12.762  31.329   9.144
  499POPC   GL2 9710  13.106  31.349   9.006
  499POPC   C1A 9711  12.699  31.293   8.716
  499POPC   D2A 9712  12.844  31.532   8.352
  499POPC   C3A 9713  12.734  31.431   7.938
  499POPC   C4A 9714  12.520  31.773   7.674
  499POPC   C1B 9715  13.267  31.371   8.595
  499POPC   C2B 9716  13.147  31.116   8.227
  499POPC   C3B 9717  13.134  31.096   7.800
  499POPC   C4B 9718  13.156  31.441   7.570
  500POPC   NC3 9719  41.228  12.696   9.467
  500POPC   PO4 9720  41.831  12.979   9.502
  500POPC   GL1 9721  41.637  12.746   9.146
  500POPC   GL2 9722  41.297  12.665   8.984
  500POPC   C1A 9723  41.733  12.686   8.729
  500POPC   D2A 9724  41.769  12.574   8.319
  500POPC   C3A 9725  41.839  12.860   8.012
  500POPC   C4A 9726  41.786  12.938   7.577
  500POPC   C1B 9727  41.205  12.681   8.542
  500POPC   C2B 9728  41.109  12.870   8.133
  500POPC   C3B 9729  41.321  12.779   7.733
  500POPC   C4B 9730  41.361  12.853   7.267
  501POPC   NC3 9731  11.379  36.439   9.512
  501POPC   PO4 9732  11.582  36.987   9.466
  501POPC   GL1 9733  11.312  36.880   9.145
  501POPC   GL2 9734  11.544  36.656   9.055
  501POPC   C1A 9735  11.347  37.028   8.728
  501POPC   D2A 9736  11.553  36.814   8.407
  501POPC   C3A 9737  11.549  37.059   8.039
  501POPC   C4A 9738  11.186  37.032   7.834
  501POPC   C1B 9739  11.272  36.509   8.774
  501POPC   C2B 9740  11.086  36.599   8.379
  501POPC   C3B 9741  11.272  36.562   7.971
  501POPC   C4B 9742  11.147  36.612   7.550
  502POPC   NC3 9743   5.238  32.881   9.443
  502POPC   PO4 9744   4.939  33.520   9.446
  502POPC   GL1 9745   5.140  33.285   9.138
  502POPC   GL2 9746   5.511  33.291   9.157
  502POPC   C1A 9747   5.065  32.957   8.811
  502POPC   D2A 9748   4.896  32.741   8.466
  502POPC   C3A 9749   5.056  32.765   8.076
  502POPC   C4A 9750   4.935  32.988   7.734
  502POPC   C1B 9751   5.422  33.319   8.718
  502POPC   C2B 9752   5.496  33.383   8.323
  502POPC   C3B 9753   5.313  33.207   7.985
  502POPC   C4B 9754   5.198  33.428   7.610
  503POPC   NC3 9755  36.540  17.552   9.679
  503POPC   PO4 9756  35.905  17.557   9.473
  503POPC   GL1 9757  36.230  17.660   9.228
  503POPC   GL2 9758  36.372  17.335   9.252
  503POPC   C1A 9759  36.043  17.706   8.820
  503POPC   D2A 9760  35.862  17.591   8.444
  503POPC   C3A 9761  36.007  17.703   8.055
  503POPC   C4A 9762  36.082  17.424   7.748
  503POPC   C1B 9763  36.473  17.422   8.847
  503POPC   C2B 9764  36.302  17.316   8.457
  503POPC   C3B 9765  36.483  17.417   8.092
  503POPC   C4B 9766  36.609  17.582   7.733
  504POPC   NC3 9767   6.705  11.472   9.703
  504POPC   PO4 9768   6.361  10.972   9.575
  504POPC   GL1 9769   6.731  11.159   9.252
  504POPC   GL2 9770   6.856  11.536   9.203
  504POPC   C1A 9771   6.878  11.140   8.784
  504POPC   D2A 9772   6.717  11.324   8.366
  504POPC   C3A 9773   6.638  11.185   7.928
  504POPC   C4A 9774   6.375  11.116   7.574
  504POPC   C1B 9775   6.794  11.662   8.783
  504POPC   C2B 9776   6.715  11.831   8.377
  504POPC   C3B 9777   6.833  11.669   7.974
  504POPC   C4B 9778   6.761  11.498   7.545
  505POPC   NC3 9779  40.309  44.880   9.602
  505POPC   PO4 9780  39.701  44.703   9.529
  505POPC   GL1 9781  39.981  44.624   9.166
  505POPC   GL2 9782  40.337  44.688   9.135
  505POPC   C1A 9783  40.017  44.784   8.742
  505POPC   D2A 9784  39.751  44.800   8.414
  505POPC   C3A 9785  39.955  44.832   8.033
  505POPC   C4A 9786  39.902  44.623   7.656
  505POPC   C1B 9787  40.466  44.548   8.731
  505POPC   C2B 9788  40.341  44.663   8.317
  505POPC   C3B 9789  40.344  44.488   7.857
  505POPC   C4B 9790  40.370  44.602   7.359
  506POPC   NC3 9791  42.718  35.916   9.719
  506POPC   PO4 9792  42.270  36.490   9.674
  506POPC   GL1 9793  42.165  36.186   9.315
  506POPC   GL2 9794  42.470  35.963   9.171
  506POPC   C1A 9795  42.159  36.233   8.860
  506POPC   D2A 9796  42.156  35.980   8.491
  506POPC   C3A 9797  41.958  36.132   8.133
  506POPC   C4A 9798  42.214  36.217   7.771
  506POPC   C1B 9799  42.666  36.127   8.803
  506POPC   C2B 9800  42.541  36.324   8.430
  506POPC   C3B 9801  42.553  36.043   8.098
  506POPC   C4B 9802  42.656  35.849   7.726
  507POPC   NC3 9803   8.290  11.694   9.634
  507POPC   PO4 9804   8.295  10.993   9.575
  507POPC   GL1 9805   8.232  11.228   9.203
  507POPC   GL2 9806   8.153  11.570   9.163
  507POPC   C1A 9807   8.110  11.118   8.819
  507POPC   D2A 9808   7.920  10.931   8.487
  507POPC   C3A 9809   8.011  11.209   8.206
  507POPC   C4A 9810   8.035  11.107   7.824
  507POPC   C1B 9811   8.456  11.577   8.854
  507POPC   C2B 9812   8.469  11.353   8.499
  507POPC   C3B 9813   8.532  11.199   8.118
  507POPC   C4B 9814   8.422  11.454   7.843
  508POPC   NC3 9815  35.011  20.395   9.590
  508POPC   PO4 9816  35.335  20.880   9.487
  508POPC   GL1 9817  35.501  20.660   9.123
  508POPC   GL2 9818  35.713  20.384   9.149
  508POPC   C1A 9819  35.375  20.564   8.711
  508POPC   D2A 9820  35.132  20.746   8.389
  508POPC   C3A 9821  35.400  20.618   8.076
  508POPC   C4A 9822  35.516  20.648   7.662
  508POPC   C1B 9823  35.759  20.197   8.747
  508POPC   C2B 9824  35.544  20.179   8.350
  508POPC   C3B 9825  35.689  20.215   7.906
  508POPC   C4B 9826  35.716  20.269   7.386
  509POPC   NC3 9827   1.851  24.801   9.434
  509POPC   PO4 9828   1.623  24.265   9.732
  509POPC   GL1 9829   2.068  24.368   9.310
  509POPC   GL2 9830   2.041  24.159   8.949
  509POPC   C1A 9831   2.091  24.642   8.858
  509POPC   D2A 9832   1.914  24.659   8.405
  509POPC   C3A 9833   2.133  24.755   8.000
  509POPC   C4A 9834   1.893  24.910   7.634
  509POPC   C1B 9835   2.182  24.202   8.523
  509POPC   C2B 9836   2.050  24.235   8.082
  509POPC   C3B 9837   1.891  24.034   7.693
  509POPC   C4B 9838   2.113  24.157   7.334
  510POPC   NC3 9839   3.743  26.426   9.614
  510POPC   PO4 9840   3.125  26.702   9.735
  510POPC   GL1 9841   3.372  26.661   9.344
  510POPC   GL2 9842   3.645  26.861   9.278
  510POPC   C1A 9843   3.298  26.709   8.899
  510POPC   D2A 9844   3.431  26.963   8.550
  510POPC   C3A 9845   3.300  26.807   8.130
  510POPC   C4A 9846   3.382  26.632   7.733
  510POPC   C1B 9847   3.807  26.653   8.908
  510POPC   C2B 9848   3.708  26.532   8.456
  510POPC   C3B 9849   3.823  26.727   8.080
  510POPC   C4B 9850   4.087  26.909   7.761
  511POPC   NC3 9851  35.455  31.040  10.083
  511POPC   PO4 9852  35.179  30.774   9.481
  511POPC   GL1 9853  35.452  30.775   9.113
  511POPC   GL2 9854  35.225  30.561   8.957
  511POPC   C1A 9855  35.572  30.877   8.733
  511POPC   D2A 9856  35.377  30.707   8.401
  511POPC   C3A 9857  35.329  30.926   8.011
  511POPC   C4A 9858  35.530  30.807   7.632
  511POPC   C1B 9859  35.128  30.159   8.800
  511POPC   C2B 9860  35.295  30.168   8.398
  511POPC   C3B 9861  35.200  30.378   8.048
  511POPC   C4B 9862  34.985  30.185   7.733
  512POPC   NC3 9863   3.975  27.222   9.459
  512POPC   PO4 9864   3.322  27.440   9.499
  512POPC   GL1 9865   3.508  27.627   9.147
  512POPC   GL2 9866   3.435  27.266   9.025
  512POPC   C1A 9867   3.720  27.895   8.797
  512POPC   D2A 9868   3.859  27.705   8.374
  512POPC   C3A 9869   3.576  27.687   7.995
  512POPC   C4A 9870   3.667  27.652   7.569
  512POPC   C1B 9871   3.397  27.507   8.675
  512POPC   C2B 9872   3.298  27.401   8.321
  512POPC   C3B 9873   3.614  27.200   8.101
  512POPC   C4B 9874   3.620  27.103   7.686
  513POPC   NC3 9875   0.748   5.418   9.387
  513POPC   PO4 9876   0.377   4.857   9.605
  513POPC   GL1 9877   0.498   5.010   9.190
  513POPC   GL2 9878   0.274   5.289   9.110
  513POPC   C1A 9879   0.732   5.055   8.786
  513POPC   D2A 9880   0.607   4.897   8.380
  513POPC   C3A 9881   0.610   5.113   7.979
  513POPC   C4A 9882   0.610   5.022   7.519
  513POPC   C1B 9883   0.209   5.101   8.681
  513POPC   C2B 9884   0.140   5.066   8.200
  513POPC   C3B 9885   0.177   5.200   7.745
  513POPC   C4B 9886   0.287   5.361   7.304
  514POPC   NC3 9887  21.727  21.540   9.458
  514POPC   PO4 9888  21.214  21.127   9.609
  514POPC   GL1 9889  21.245  21.152   9.185
  514POPC   GL2 9890  21.254  21.514   9.129
  514POPC   C1A 9891  21.359  21.156   8.753
  514POPC   D2A 9892  21.474  21.285   8.333
  514POPC   C3A 9893  21.206  21.169   8.010
  514POPC   C4A 9894  21.082  21.506   7.786
  514POPC   C1B 9895  21.637  21.561   8.825
  514POPC   C2B 9896  21.713  21.745   8.422
  514POPC   C3B 9897  21.567  21.690   8.014
  514POPC   C4B 9898  21.626  21.320   7.783
  515POPC   NC3 9899  24.715  10.069   9.599
  515POPC   PO4 9900  24.011   9.918   9.703
  515POPC   GL1 9901  24.269   9.860   9.288
  515POPC   GL2 9902  24.599   9.692   9.256
  515POPC   C1A 9903  24.274   9.672   8.830
  515POPC   D2A 9904  24.489   9.824   8.424
  515POPC   C3A 9905  24.368   9.658   7.992
  515POPC   C4A 9906  24.297   9.647   7.511
  515POPC   C1B 9907  24.773   9.596   8.841
  515POPC   C2B 9908  24.947   9.588   8.422
  515POPC   C3B 9909  24.917   9.876   8.074
  515POPC   C4B 9910  24.771   9.763   7.687
  516POPC   NC3 9911   1.658  41.127   9.362
  516POPC   PO4 9912   2.060  40.615   9.498
  516POPC   GL1 9913   1.957  40.766   9.119
  516POPC   GL2 9914   1.609  40.642   9.180
  516POPC   C1A 9915   2.111  40.884   8.692
  516POPC   D2A 9916   2.164  41.115   8.287
  516POPC   C3A 9917   2.208  40.783   7.964
  516POPC   C4A 9918   1.981  40.469   7.716
  516POPC   C1B 9919   1.621  40.768   8.737
  516POPC   C2B 9920   1.780  40.662   8.328
  516POPC   C3B 9921   1.711  40.845   7.944
  516POPC   C4B 9922   1.474  41.161   7.830
  517POPC   NC3 9923   2.903  31.050   9.382
  517POPC   PO4 9924   2.431  30.561   9.415
  517POPC   GL1 9925   2.584  30.654   9.057
  517POPC   GL2 9926   2.535  30.336   8.917
  517POPC   C1A 9927   2.842  30.814   8.729
  517POPC   D2A 9928   3.074  30.963   8.365
  517POPC   C3A 9929   2.988  30.752   7.962
  517POPC   C4A 9930   3.265  30.889   7.646
  517POPC   C1B 9931   2.350  30.653   8.607
  517POPC   C2B 9932   2.565  30.851   8.275
  517POPC   C3B 9933   2.542  30.996   7.852
  517POPC   C4B 9934   2.539  30.584   7.699
  518POPC   NC3 9935  20.784  28.876  10.069
  518POPC   PO4 9936  20.442  29.164   9.496
  518POPC   GL1 9937  20.663  29.223   9.106
  518POPC   GL2 9938  20.450  28.962   9.001
  518POPC   C1A 9939  20.668  29.257   8.636
  518POPC   D2A 9940  20.452  29.074   8.292
  518POPC   C3A 9941  20.593  29.220   7.908
  518POPC   C4A 9942  20.472  29.359   7.505
  518POPC   C1B 9943  20.872  28.829   8.843
  518POPC   C2B 9944  20.881  28.658   8.422
  518POPC   C3B 9945  20.903  28.735   7.987
  518POPC   C4B 9946  20.731  28.859   7.579
  519POPC   NC3 9947   5.679  29.080   9.448
  519POPC   PO4 9948   6.254  29.218   9.774
  519POPC   GL1 9949   5.993  29.414   9.304
  519POPC   GL2 9950   6.056  29.072   9.123
  519POPC   C1A 9951   5.880  29.389   8.803
  519POPC   D2A 9952   5.795  29.087   8.468
  519POPC   C3A 9953   5.809  29.241   8.038
  519POPC   C4A 9954   5.536  29.267   7.699
  519POPC   C1B 9955   6.176  28.711   8.894
  519POPC   C2B 9956   6.155  28.636   8.496
  519POPC   C3B 9957   6.003  28.766   8.121
  519POPC   C4B 9958   6.183  28.957   7.778
  520POPC   NC3 9959  34.521   6.063   9.595
  520POPC   PO4 9960  34.265   5.485   9.424
  520POPC   GL1 9961  34.540   5.717   9.200
  520POPC   GL2 9962  34.460   6.062   9.094
  520POPC   C1A 9963  34.707   5.738   8.804
  520POPC   D2A 9964  34.564   5.620   8.435
  520POPC   C3A 9965  34.783   5.818   8.110
  520POPC   C4A 9966  34.644   5.829   7.706
  520POPC   C1B 9967  34.255   5.970   8.696
  520POPC   C2B 9968  34.373   6.083   8.280
  520POPC   C3B 9969  34.358   6.242   7.860
  520POPC   C4B 9970  34.516   6.607   7.590
  521POPC   NC3 9971  10.942  29.056   9.366
  521POPC   PO4 9972  11.486  29.411   9.429
  521POPC   GL1 9973  11.341  29.382   9.027
  521POPC   GL2 9974  11.023  29.485   9.106
  521POPC   C1A 9975  11.163  29.068   8.737
  521POPC   D2A 9976  10.964  28.815   8.405
  521POPC   C3A 9977  11.206  28.917   8.032
  521POPC   C4A 9978  11.519  29.269   7.888
  521POPC   C1B 9979  11.016  29.584   8.691
  521POPC   C2B 9980  10.948  29.330   8.341
  521POPC   C3B 9981  11.037  29.369   7.929
  521POPC   C4B 9982  11.125  29.246   7.477
  522POPC   NC3 9983  27.053  37.589   9.469
  522POPC   PO4 9984  26.498  37.972   9.531
  522POPC   GL1 9985  26.724  37.801   9.140
  522POPC   GL2 9986  26.687  37.416   9.165
  522POPC   C1A 9987  26.814  37.809   8.665
  522POPC   D2A 9988  26.922  37.685   8.245
  522POPC   C3A 9989  26.592  37.743   7.957
  522POPC   C4A 9990  26.477  37.996   7.634
  522POPC   C1B 9991  27.029  37.392   8.834
  522POPC   C2B 9992  27.140  37.264   8.430
  522POPC   C3B 9993  27.251  37.340   8.003
  522POPC   C4B 9994  27.047  37.611   7.733
  523POPC   NC3 9995  31.759  28.043   9.332
  523POPC   PO4 9996  31.716  27.378   9.313
  523POPC   GL1 9997  31.409  27.643   9.115
  523POPC   GL2 9998  31.042  27.634   9.218
  523POPC   C1A 9999  31.403  27.771   8.690
  523POPC   D2A10000  31.690  27.645   8.322
  523POPC   C3A10001  31.679  27.845   7.891
  523POPC   C4A10002  31.764  27.629   7.481
  523POPC   C1B10003  31.052  27.408   8.812
  523POPC   C2B10004  31.200  27.427   8.371
  523POPC   C3B10005  31.206  27.672   8.064
  523POPC   C4B10006  31.061  27.548   7.695
  524POPC   NC310007  12.412  41.030   9.455
  524POPC   PO410008  11.721  40.980   9.501
  524POPC   GL110009  11.820  40.789   9.138
  524POPC   GL210010  12.054  41.080   9.099
  524POPC   C1A10011  12.080  40.614   8.793
  524POPC   D2A10012  12.422  40.778   8.498
  524POPC   C3A10013  12.327  40.728   8.021
  524POPC   C4A10014  12.087  40.471   7.659
  524POPC   C1B10015  11.871  41.095   8.713
  524POPC   C2B10016  11.923  40.853   8.342
  524POPC   C3B10017  11.919  41.013   7.940
  524POPC   C4B10018  11.671  41.046   7.615
  525POPC   NC310019  40.699  38.820   9.575
  525POPC   PO410020  41.053  38.201   9.565
  525POPC   GL110021  40.961  38.504   9.239
  525POPC   GL210022  40.634  38.560   9.141
  525POPC   C1A10023  40.949  38.420   8.790
  525POPC   D2A10024  40.665  38.240   8.461
  525POPC   C3A10025  40.820  38.334   8.056
  525POPC   C4A10026  41.009  38.301   7.660
  525POPC   C1B10027  40.461  38.681   8.766
  525POPC   C2B10028  40.260  38.559   8.376
  525POPC   C3B10029  40.278  38.359   8.017
  525POPC   C4B10030  40.505  38.335   7.662
  526POPC   NC310031  41.997  10.964   9.296
  526POPC   PO410032  42.615  11.200   9.481
  526POPC   GL110033  42.303  11.428   9.195
  526POPC   GL210034  42.309  11.226   8.920
  526POPC   C1A10035  42.084  11.679   8.835
  526POPC   D2A10036  42.139  11.836   8.395
  526POPC   C3A10037  42.333  11.544   8.100
  526POPC   C4A10038  42.338  11.551   7.639
  526POPC   C1B10039  42.683  11.036   8.682
  526POPC   C2B10040  42.795  11.133   8.260
  526POPC   C3B10041  42.616  11.184   7.866
  526POPC   C4B10042  42.167  11.079   7.786
  527POPC   NC310043  44.587  22.789   9.732
  527POPC   PO410044   0.173  22.712   9.639
  527POPC   GL110045  44.952  22.821   9.257
  527POPC   GL210046  44.609  22.920   9.237
  527POPC   C1A10047  44.951  22.992   8.839
  527POPC   D2A10048  44.740  22.885   8.458
  527POPC   C3A10049  44.764  23.177   8.131
  527POPC   C4A10050  44.699  23.045   7.724
  527POPC   C1B10051  44.380  22.853   8.897
  527POPC   C2B10052  44.214  23.000   8.515
  527POPC   C3B10053  44.253  23.090   8.086
  527POPC   C4B10054  44.226  22.834   7.713
  528POPC   NC310055  18.768  35.074   9.659
  528POPC   PO410056  19.367  35.340   9.634
  528POPC   GL110057  19.142  35.248   9.265
  528POPC   GL210058  19.196  35.565   9.179
  528POPC   C1A10059  18.991  35.296   8.808
  528POPC   D2A10060  18.876  35.492   8.405
  528POPC   C3A10061  19.109  35.380   8.063
  528POPC   C4A10062  19.156  35.098   7.737
  528POPC   C1B10063  19.424  35.585   8.824
  528POPC   C2B10064  19.362  35.700   8.415
  528POPC   C3B10065  19.502  35.707   8.024
  528POPC   C4B10066  19.336  35.608   7.627
  529POPC   NC310067  20.876   3.789   9.627
  529POPC   PO410068  20.238   3.837   9.342
  529POPC   GL110069  20.427   3.593   9.074
  529POPC   GL210070  20.744   3.629   9.176
  529POPC   C1A10071  20.518   3.605   8.667
  529POPC   D2A10072  20.489   3.361   8.333
  529POPC   C3A10073  20.574   3.605   8.006
  529POPC   C4A10074  20.516   3.420   7.667
  529POPC   C1B10075  20.912   3.363   8.883
  529POPC   C2B10076  21.024   3.428   8.458
  529POPC   C3B10077  20.934   3.252   8.077
  529POPC   C4B10078  21.009   3.532   7.714
  530POPC   NC310079  30.448   0.207   9.399
  530POPC   PO410080  30.675  44.492   9.402
  530POPC   GL110081  30.768  44.686   9.053
  530POPC   GL210082  30.821   0.041   9.080
  530POPC   C1A10083  30.558  44.619   8.687
  530POPC   D2A10084  30.660  44.317   8.402
  530POPC   C3A10085  30.775  44.505   8.028
  530POPC   C4A10086  30.565  44.368   7.695
  530POPC   C1B10087  30.475   0.134   8.757
  530POPC   C2B10088  30.366   0.065   8.322
  530POPC   C3B10089  30.404  44.870   7.915
  530POPC   C4B10090  30.357   0.039   7.517
  531POPC   NC310091  44.877  28.170   9.525
  531POPC   PO410092  44.312  28.478   9.519
  531POPC   GL110093  44.634  28.547   9.203
  531POPC   GL210094  44.572  28.209   9.126
  531POPC   C1A10095  44.744  28.454   8.733
  531POPC   D2A10096  44.563  28.656   8.371
  531POPC   C3A10097  44.645  28.471   7.978
  531POPC   C4A10098  44.488  28.581   7.582
  531POPC   C1B10099  44.334  28.092   8.773
  531POPC   C2B10100  44.501  28.132   8.357
  531POPC   C3B10101  44.273  28.112   7.989
  531POPC   C4B10102  44.304  28.086   7.576
  532POPC   NC310103   1.011  41.189   9.756
  532POPC   PO410104   1.056  41.740   9.376
  532POPC   GL110105   1.265  41.479   9.101
  532POPC   GL210106   0.920  41.383   9.020
  532POPC   C1A10107   1.226  41.557   8.652
  532POPC   D2A10108   1.311  41.658   8.240
  532POPC   C3A10109   1.081  41.857   7.932
  532POPC   C4A10110   1.236  41.712   7.503
  532POPC   C1B10111   0.770  41.245   8.623
  532POPC   C2B10112   1.040  41.191   8.237
  532POPC   C3B10113   1.008  41.369   7.800
  532POPC   C4B10114   0.796  41.453   7.355
  533POPC   NC310115   0.862   6.952   9.553
  533POPC   PO410116   0.886   7.584   9.525
  533POPC   GL110117   1.090   7.495   9.160
  533POPC   GL210118   1.209   7.183   9.231
  533POPC   C1A10119   1.168   7.603   8.734
  533POPC   D2A10120   0.950   7.873   8.451
  533POPC   C3A10121   1.138   7.712   8.119
  533POPC   C4A10122   1.180   7.726   7.690
  533POPC   C1B10123   1.081   7.102   8.800
  533POPC   C2B10124   1.331   7.251   8.412
  533POPC   C3B10125   1.483   7.332   8.006
  533POPC   C4B10126   1.250   7.208   7.670
  534POPC   NC310127  14.835  26.634   9.443
  534POPC   PO410128  14.152  26.361   9.542
  534POPC   GL110129  14.379  26.624   9.208
  534POPC   GL210130  14.262  26.941   9.090
  534POPC   C1A10131  14.529  26.609   8.779
  534POPC   D2A10132  14.621  26.780   8.377
  534POPC   C3A10133  14.791  26.555   8.046
  534POPC   C4A10134  14.730  26.648   7.632
  534POPC   C1B10135  14.270  27.086   8.661
  534POPC   C2B10136  14.251  27.115   8.226
  534POPC   C3B10137  14.346  26.964   7.823
  534POPC   C4B10138  14.215  27.035   7.341
  535POPC   NC310139  34.123   3.448   9.595
  535POPC   PO410140  33.480   3.828   9.548
  535POPC   GL110141  33.713   3.544   9.263
  535POPC   GL210142  34.023   3.685   9.144
  535POPC   C1A10143  33.744   3.351   8.856
  535POPC   D2A10144  33.536   3.288   8.473
  535POPC   C3A10145  33.682   3.211   8.085
  535POPC   C4A10146  33.585   3.514   7.797
  535POPC   C1B10147  34.244   3.474   8.804
  535POPC   C2B10148  34.084   3.357   8.429
  535POPC   C3B10149  34.173   3.410   8.020
  535POPC   C4B10150  34.048   3.669   7.693
  536POPC   NC310151  34.899  33.693   9.463
  536POPC   PO410152  34.238  33.563   9.532
  536POPC   GL110153  34.496  33.620   9.152
  536POPC   GL210154  34.561  33.990   9.155
  536POPC   C1A10155  34.700  33.711   8.740
  536POPC   D2A10156  34.875  33.593   8.340
  536POPC   C3A10157  34.566  33.632   8.028
  536POPC   C4A10158  34.491  33.831   7.656
  536POPC   C1B10159  34.819  34.202   8.815
  536POPC   C2B10160  34.739  34.103   8.373
  536POPC   C3B10161  34.509  34.215   7.991
  536POPC   C4B10162  34.647  34.294   7.559
  537POPC   NC310163  31.056  42.026   9.416
  537POPC   PO410164  31.475  42.616   9.590
  537POPC   GL110165  31.499  42.291   9.297
  537POPC   GL210166  31.830  42.332   9.155
  537POPC   C1A10167  31.376  42.291   8.857
  537POPC   D2A10168  31.287  42.538   8.480
  537POPC   C3A10169  31.377  42.391   8.090
  537POPC   C4A10170  31.655  42.298   7.794
  537POPC   C1B10171  31.813  42.546   8.756
  537POPC   C2B10172  31.874  42.461   8.305
  537POPC   C3B10173  31.757  42.748   7.973
  537POPC   C4B10174  31.791  42.822   7.502
  538POPC   NC310175   9.472  41.906   9.486
  538POPC   PO410176  10.033  42.243   9.458
  538POPC   GL110177   9.753  42.239   9.119
  538POPC   GL210178   9.427  42.378   9.239
  538POPC   C1A10179   9.845  42.224   8.682
  538POPC   D2A10180   9.715  42.055   8.287
  538POPC   C3A10181   9.882  42.256   7.894
  538POPC   C4A10182   9.967  42.191   7.419
  538POPC   C1B10183   9.339  42.416   8.802
  538POPC   C2B10184   9.519  42.513   8.410
  538POPC   C3B10185   9.390  42.510   7.998
  538POPC   C4B10186   9.465  42.351   7.613
  539POPC   NC310187  40.731  10.119   9.357
  539POPC   PO410188  40.929   9.432   9.524
  539POPC   GL110189  41.054   9.527   9.117
  539POPC   GL210190  40.744   9.714   9.062
  539POPC   C1A10191  41.019   9.569   8.674
  539POPC   D2A10192  40.672   9.699   8.428
  539POPC   C3A10193  40.855   9.829   8.132
  539POPC   C4A10194  41.034   9.584   7.827
  539POPC   C1B10195  40.838  10.049   8.740
  539POPC   C2B10196  40.568  10.217   8.397
  539POPC   C3B10197  40.579  10.339   7.985
  539POPC   C4B10198  40.799  10.079   7.716
  540POPC   NC310199   8.542  35.892   9.374
  540POPC   PO410200   7.937  35.789   9.677
  540POPC   GL110201   7.930  36.071   9.300
  540POPC   GL210202   8.222  36.251   9.208
  540POPC   C1A10203   7.917  36.147   8.835
  540POPC   D2A10204   8.255  35.999   8.552
  540POPC   C3A10205   8.204  36.150   8.125
  540POPC   C4A10206   8.109  35.899   7.752
  540POPC   C1B10207   8.404  36.441   8.798
  540POPC   C2B10208   8.503  36.650   8.387
  540POPC   C3B10209   8.589  36.494   7.973
  540POPC   C4B10210   8.595  36.063   7.778
  541POPC   NC310211  44.625  13.937   9.496
  541POPC   PO410212  44.752  14.539   9.732
  541POPC   GL110213  44.685  14.535   9.255
  541POPC   GL210214  44.436  14.267   9.180
  541POPC   C1A10215  44.580  14.555   8.804
  541POPC   D2A10216  44.827  14.569   8.411
  541POPC   C3A10217  44.716  14.401   8.063
  541POPC   C4A10218  44.957  14.305   7.740
  541POPC   C1B10219  44.442  14.002   8.805
  541POPC   C2B10220  44.430  14.164   8.433
  541POPC   C3B10221  44.275  14.139   8.066
  541POPC   C4B10222  44.435  14.118   7.683
  542POPC   NC310223  20.114  15.232   9.348
  542POPC   PO410224  19.706  14.787   9.368
  542POPC   GL110225  19.612  15.190   9.107
  542POPC   GL210226  19.775  15.541   9.106
  542POPC   C1A10227  19.659  15.253   8.660
  542POPC   D2A10228  19.620  14.961   8.319
  542POPC   C3A10229  19.657  15.199   7.963
  542POPC   C4A10230  20.082  15.201   7.776
  542POPC   C1B10231  20.079  15.538   8.739
  542POPC   C2B10232  20.007  15.435   8.281
  542POPC   C3B10233  20.133  15.685   7.911
  542POPC   C4B10234  20.191  15.679   7.443
  543POPC   NC310235  16.288  27.393   9.564
  543POPC   PO410236  15.742  27.791   9.565
  543POPC   GL110237  15.786  27.641   9.155
  543POPC   GL210238  15.965  27.301   9.154
  543POPC   C1A10239  15.885  27.912   8.809
  543POPC   D2A10240  16.228  27.952   8.499
  543POPC   C3A10241  15.966  27.981   8.134
  543POPC   C4A10242  15.915  28.061   7.735
  543POPC   C1B10243  16.161  27.487   8.768
  543POPC   C2B10244  16.042  27.504   8.334
  543POPC   C3B10245  16.187  27.578   7.919
  543POPC   C4B10246  15.814  27.573   7.718
  544POPC   NC310247   1.907  28.894   9.761
  544POPC   PO410248   1.537  29.195   9.319
  544POPC   GL110249   2.027  29.128   9.216
  544POPC   GL210250   2.284  29.444   9.187
  544POPC   C1A10251   2.051  29.157   8.769
  544POPC   D2A10252   1.632  29.123   8.537
  544POPC   C3A10253   1.578  29.426   8.218
  544POPC   C4A10254   1.749  29.268   7.851
  544POPC   C1B10255   2.509  29.402   8.774
  544POPC   C2B10256   2.418  29.434   8.308
  544POPC   C3B10257   2.348  29.330   7.833
  544POPC   C4B10258   2.342  29.440   7.364
  545POPC   NC310259  20.144  27.056   9.598
  545POPC   PO410260  19.849  26.445   9.599
  545POPC   GL110261  19.920  26.713   9.247
  545POPC   GL210262  20.107  26.946   9.113
  545POPC   C1A10263  19.849  26.579   8.821
  545POPC   D2A10264  19.650  26.669   8.448
  545POPC   C3A10265  19.843  26.604   8.066
  545POPC   C4A10266  19.730  26.736   7.667
  545POPC   C1B10267  19.880  27.095   8.759
  545POPC   C2B10268  19.978  27.279   8.370
  545POPC   C3B10269  19.917  27.128   7.955
  545POPC   C4B10270  20.202  27.084   7.591
  546POPC   NC310271  14.078   0.752   9.934
  546POPC   PO410272  14.421   0.255   9.642
  546POPC   GL110273  14.494   0.331   9.188
  546POPC   GL210274  14.165   0.279   9.050
  546POPC   C1A10275  14.612   0.119   8.788
  546POPC   D2A10276  14.556  44.958   8.356
  546POPC   C3A10277  14.602   0.235   8.009
  546POPC   C4A10278  14.587   0.657   7.813
  546POPC   C1B10279  14.226   0.413   8.611
  546POPC   C2B10280  14.134   0.299   8.201
  546POPC   C3B10281  14.112   0.483   7.770
  546POPC   C4B10282  13.779   0.649   7.455
  547POPC   NC310283  14.531  15.936   9.682
  547POPC   PO410284  14.096  16.161  10.111
  547POPC   GL110285  14.153  16.171   9.504
  547POPC   GL210286  14.540  16.266   9.314
  547POPC   C1A10287  14.205  16.120   8.971
  547POPC   D2A10288  14.162  15.854   8.561
  547POPC   C3A10289  14.412  15.894   8.150
  547POPC   C4A10290  14.200  15.902   7.752
  547POPC   C1B10291  14.742  16.093   8.922
  547POPC   C2B10292  14.862  16.072   8.484
  547POPC   C3B10293  14.909  16.095   8.055
  547POPC   C4B10294  14.675  16.099   7.706
  548POPC   NC310295  16.707   0.377   9.653
  548POPC   PO410296  17.334   0.600   9.596
  548POPC   GL110297  17.024   0.395   9.257
  548POPC   GL210298  16.604   0.369   9.169
  548POPC   C1A10299  16.946   0.346   8.795
  548POPC   D2A10300  17.092   0.570   8.416
  548POPC   C3A10301  16.920   0.451   8.016
  548POPC   C4A10302  17.138   0.173   7.797
  548POPC   C1B10303  16.491   0.576   8.769
  548POPC   C2B10304  16.594   0.653   8.360
  548POPC   C3B10305  16.423   0.783   7.984
  548POPC   C4B10306  16.348   0.636   7.539
  549POPC   NC310307  11.895   7.964   9.679
  549POPC   PO410308  12.311   8.451   9.590
  549POPC   GL110309  11.957   8.317   9.282
  549POPC   GL210310  11.827   7.978   9.173
  549POPC   C1A10311  11.843   8.372   8.848
  549POPC   D2A10312  12.104   8.315   8.477
  549POPC   C3A10313  11.980   8.423   8.058
  549POPC   C4A10314  12.278   8.730   7.861
  549POPC   C1B10315  11.881   7.871   8.730
  549POPC   C2B10316  11.936   7.868   8.300
  549POPC   C3B10317  11.849   7.929   7.925
  549POPC   C4B10318  11.810   7.873   7.474
  550POPC   NC310319  34.289  22.217   9.499
  550POPC   PO410320  34.945  22.187   9.691
  550POPC   GL110321  34.840  22.322   9.254
  550POPC   GL210322  34.695  21.988   9.218
  550POPC   C1A10323  34.785  22.540   8.821
  550POPC   D2A10324  34.731  22.398   8.383
  550POPC   C3A10325  34.426  22.414   8.039
  550POPC   C4A10326  34.430  22.529   7.603
  550POPC   C1B10327  34.943  22.038   8.833
  550POPC   C2B10328  34.928  21.885   8.417
  550POPC   C3B10329  34.857  22.065   8.028
  550POPC   C4B10330  34.842  22.245   7.641
  551POPC   NC310331  10.430  38.565   9.714
  551POPC   PO410332   9.736  38.350   9.500
  551POPC   GL110333   9.922  38.395   9.125
  551POPC   GL210334  10.141  38.167   9.001
  551POPC   C1A10335   9.736  38.509   8.776
  551POPC   D2A10336   9.791  38.331   8.404
  551POPC   C3A10337   9.672  38.557   8.079
  551POPC   C4A10338   9.468  38.770   7.748
  551POPC   C1B10339  10.239  38.352   8.663
  551POPC   C2B10340  10.216  38.092   8.313
  551POPC   C3B10341  10.102  38.273   7.947
  551POPC   C4B10342   9.947  38.579   7.669
  552POPC   NC310343  20.961  34.720   9.512
  552POPC   PO410344  21.613  34.411   9.513
  552POPC   GL110345  21.386  34.558   9.165
  552POPC   GL210346  21.167  34.333   9.027
  552POPC   C1A10347  21.537  34.482   8.732
  552POPC   D2A10348  21.561  34.783   8.396
  552POPC   C3A10349  21.442  34.574   8.064
  552POPC   C4A10350  21.421  34.713   7.676
  552POPC   C1B10351  21.045  34.580   8.621
  552POPC   C2B10352  20.933  34.624   8.197
  552POPC   C3B10353  20.987  34.432   7.827
  552POPC   C4B10354  21.119  34.404   7.394
  553POPC   NC310355   7.497  41.772   9.630
  553POPC   PO410356   6.997  41.334   9.463
  553POPC   GL110357   7.338  41.374   9.207
  553POPC   GL210358   7.476  41.690   9.122
  553POPC   C1A10359   7.252  41.391   8.780
  553POPC   D2A10360   7.401  41.633   8.435
  553POPC   C3A10361   7.286  41.444   8.079
  553POPC   C4A10362   7.521  41.327   7.744
  553POPC   C1B10363   7.316  41.957   8.804
  553POPC   C2B10364   7.150  42.141   8.433
  553POPC   C3B10365   7.250  41.994   8.042
  553POPC   C4B10366   7.280  41.770   7.659
  554POPC   NC310367  20.048   5.191   9.586
  554POPC   PO410368  19.458   5.418   9.495
  554POPC   GL110369  19.771   5.282   9.153
  554POPC   GL210370  20.168   5.267   9.112
  554POPC   C1A10371  19.872   5.277   8.714
  554POPC   D2A10372  19.723   5.196   8.333
  554POPC   C3A10373  19.709   4.935   7.994
  554POPC   C4A10374  19.846   5.246   7.727
  554POPC   C1B10375  20.184   4.875   8.797
  554POPC   C2B10376  20.032   4.777   8.433
  554POPC   C3B10377  20.200   4.932   8.072
  554POPC   C4B10378  20.143   4.823   7.680
  555POPC   NC310379  17.353  43.392   9.449
  555POPC   PO410380  16.896  42.913   9.714
  555POPC   GL110381  17.251  42.935   9.242
  555POPC   GL210382  17.595  42.874   9.340
  555POPC   C1A10383  17.315  43.299   8.821
  555POPC   D2A10384  17.517  43.474   8.428
  555POPC   C3A10385  17.340  43.237   8.092
  555POPC   C4A10386  17.341  43.051   7.726
  555POPC   C1B10387  17.588  42.885   8.858
  555POPC   C2B10388  17.659  42.979   8.410
  555POPC   C3B10389  17.803  43.010   7.951
  555POPC   C4B10390  17.735  42.775   7.504
  556POPC   NC310391  20.301   3.413   9.536
  556POPC   PO410392  19.683   3.737   9.590
  556POPC   GL110393  19.819   3.609   9.160
  556POPC   GL210394  19.532   3.528   8.966
  556POPC   C1A10395  20.004   3.502   8.737
  556POPC   D2A10396  19.968   3.314   8.298
  556POPC   C3A10397  20.042   3.587   7.923
  556POPC   C4A10398  20.049   3.477   7.476
  556POPC   C1B10399  19.298   3.470   8.603
  556POPC   C2B10400  19.407   3.253   8.255
  556POPC   C3B10401  19.650   3.209   7.886
  556POPC   C4B10402  19.559   3.408   7.492
  557POPC   NC310403  34.375  16.292   9.376
  557POPC   PO410404  34.817  16.715   9.643
  557POPC   GL110405  34.624  16.720   9.238
  557POPC   GL210406  34.648  17.023   9.084
  557POPC   C1A10407  34.578  16.597   8.794
  557POPC   D2A10408  34.723  16.707   8.390
  557POPC   C3A10409  34.650  16.513   7.985
  557POPC   C4A10410  34.500  16.715   7.635
  557POPC   C1B10411  34.888  17.079   8.716
  557POPC   C2B10412  34.852  17.264   8.329
  557POPC   C3B10413  34.715  17.050   7.987
  557POPC   C4B10414  34.789  17.237   7.598
  558POPC   NC310415  20.806  37.725   9.835
  558POPC   PO410416  21.464  37.714   9.533
  558POPC   GL110417  21.219  37.629   9.190
  558POPC   GL210418  21.467  37.591   8.974
  558POPC   C1A10419  21.045  37.484   8.755
  558POPC   D2A10420  21.284  37.736   8.451
  558POPC   C3A10421  21.277  37.586   8.038
  558POPC   C4A10422  21.067  37.381   7.713
  558POPC   C1B10423  21.742  37.724   8.690
  558POPC   C2B10424  21.867  37.697   8.287
  558POPC   C3B10425  21.697  37.823   7.879
  558POPC   C4B10426  21.855  37.937   7.478
  559POPC   NC310427  28.758   9.476   9.484
  559POPC   PO410428  29.405   9.665   9.502
  559POPC   GL110429  29.239   9.867   9.139
  559POPC   GL210430  29.053   9.579   9.086
  559POPC   C1A10431  29.299   9.764   8.689
  559POPC   D2A10432  29.154   9.709   8.290
  559POPC   C3A10433  29.370   9.733   7.945
  559POPC   C4A10434  29.465   9.549   7.546
  559POPC   C1B10435  28.890   9.450   8.712
  559POPC   C2B10436  28.671   9.645   8.389
  559POPC   C3B10437  28.741   9.627   7.971
  559POPC   C4B10438  28.673   9.314   7.722
  560POPC   NC310439   5.361  35.970   9.662
  560POPC   PO410440   4.966  36.402   9.371
  560POPC   GL110441   5.184  36.165   9.139
  560POPC   GL210442   5.153  35.849   9.209
  560POPC   C1A10443   5.362  36.210   8.755
  560POPC   D2A10444   5.106  36.329   8.427
  560POPC   C3A10445   5.250  36.230   8.069
  560POPC   C4A10446   5.168  36.127   7.694
  560POPC   C1B10447   5.003  35.814   8.797
  560POPC   C2B10448   5.205  35.841   8.417
  560POPC   C3B10449   5.298  35.728   8.021
  560POPC   C4B10450   5.018  35.638   7.698
  561POPC   NC310451  34.210  31.584   9.466
  561POPC   PO410452  33.649  31.285   9.607
  561POPC   GL110453  33.705  31.475   9.211
  561POPC   GL210454  33.399  31.361   9.111
  561POPC   C1A10455  33.731  31.683   8.797
  561POPC   D2A10456  33.611  31.504   8.401
  561POPC   C3A10457  33.876  31.563   8.044
  561POPC   C4A10458  34.030  31.463   7.638
  561POPC   C1B10459  33.374  31.120   8.756
  561POPC   C2B10460  33.537  31.000   8.356
  561POPC   C3B10461  33.506  31.181   7.953
  561POPC   C4B10462  33.583  31.063   7.515
  562POPC   NC310463  44.644  24.351   9.557
  562POPC   PO410464   0.164  24.471   9.315
  562POPC   GL110465  44.897  24.188   9.091
  562POPC   GL210466  44.515  24.232   9.083
  562POPC   C1A10467  44.927  24.392   8.694
  562POPC   D2A10468  44.870  24.824   8.535
  562POPC   C3A10469  44.731  24.911   8.110
  562POPC   C4A10470  44.853  24.844   7.673
  562POPC   C1B10471  44.436  24.504   8.718
  562POPC   C2B10472  44.604  24.436   8.293
  562POPC   C3B10473  44.633  24.403   7.850
  562POPC   C4B10474  44.560  24.511   7.411
  563POPC   NC310475  32.951  36.672   9.557
  563POPC   PO410476  33.267  37.321   9.433
  563POPC   GL110477  33.027  37.037   9.196
  563POPC   GL210478  33.173  36.724   9.108
  563POPC   C1A10479  32.885  37.000   8.773
  563POPC   D2A10480  33.043  37.198   8.427
  563POPC   C3A10481  33.197  36.944   8.093
  563POPC   C4A10482  33.212  37.112   7.687
  563POPC   C1B10483  32.911  36.479   8.853
  563POPC   C2B10484  32.744  36.428   8.429
  563POPC   C3B10485  32.501  36.639   8.118
  563POPC   C4B10486  32.679  36.843   7.749
  564POPC   NC310487  27.244  18.550   9.571
  564POPC   PO410488  27.841  18.255   9.432
  564POPC   GL110489  27.650  18.385   9.083
  564POPC   GL210490  27.292  18.353   9.102
  564POPC   C1A10491  27.867  18.332   8.697
  564POPC   D2A10492  27.964  18.122   8.334
  564POPC   C3A10493  27.848  18.380   7.999
  564POPC   C4A10494  27.692  18.252   7.597
  564POPC   C1B10495  27.357  18.489   8.667
  564POPC   C2B10496  27.397  18.368   8.224
  564POPC   C3B10497  27.431  18.625   7.827
  564POPC   C4B10498  27.505  18.631   7.332
  565POPC   NC310499  22.873  39.728   9.488
  565POPC   PO410500  23.233  40.257   9.235
  565POPC   GL110501  23.023  39.968   9.033
  565POPC   GL210502  23.236  39.696   9.132
  565POPC   C1A10503  23.020  39.927   8.588
  565POPC   D2A10504  22.750  40.040   8.286
  565POPC   C3A10505  23.023  40.235   8.092
  565POPC   C4A10506  22.926  40.412   7.747
  565POPC   C1B10507  23.034  39.472   8.779
  565POPC   C2B10508  22.987  39.488   8.308
  565POPC   C3B10509  22.989  39.709   7.916
  565POPC   C4B10510  23.236  40.013   7.707
  566POPC   NC310511  14.440  13.479   9.378
  566POPC   PO410512  13.964  13.894   9.409
  566POPC   GL110513  14.261  13.817   9.055
  566POPC   GL210514  14.518  14.008   9.250
  566POPC   C1A10515  14.355  13.539   8.677
  566POPC   D2A10516  14.612  13.346   8.311
  566POPC   C3A10517  14.365  13.296   7.913
  566POPC   C4A10518  14.098  13.666   7.838
  566POPC   C1B10519  14.651  14.103   8.833
  566POPC   C2B10520  14.613  13.923   8.434
  566POPC   C3B10521  14.699  14.042   8.044
  566POPC   C4B10522  14.587  13.733   7.755
  567POPC   NC310523   9.458  11.224   9.585
  567POPC   PO410524  10.112  10.991   9.605
  567POPC   GL110525   9.968  11.211   9.203
  567POPC   GL210526   9.819  11.555   9.294
  567POPC   C1A10527   9.981  11.364   8.732
  567POPC   D2A10528   9.985  11.416   8.258
  567POPC   C3A10529   9.761  11.188   7.882
  567POPC   C4A10530   9.726  11.256   7.418
  567POPC   C1B10531   9.505  11.556   8.961
  567POPC   C2B10532   9.472  11.415   8.570
  567POPC   C3B10533   9.493  11.517   8.166
  567POPC   C4B10534   9.334  11.494   7.787
  568POPC   NC310535   9.517  32.709   9.408
  568POPC   PO410536   9.843  33.339   9.616
  568POPC   GL110537   9.801  33.199   9.195
  568POPC   GL210538   9.440  33.185   9.184
  568POPC   C1A10539   9.701  33.008   8.776
  568POPC   D2A10540   9.826  33.147   8.380
  568POPC   C3A10541   9.808  32.980   7.998
  568POPC   C4A10542   9.656  32.796   7.634
  568POPC   C1B10543   9.365  33.419   8.801
  568POPC   C2B10544   9.207  33.268   8.408
  568POPC   C3B10545   9.334  33.357   8.016
  568POPC   C4B10546   9.621  33.351   7.703
  569POPC   NC310547   1.620   3.739   9.531
  569POPC   PO410548   1.086   3.227   9.639
  569POPC   GL110549   1.410   3.368   9.260
  569POPC   GL210550   1.391   3.696   9.061
  569POPC   C1A10551   1.497   3.241   8.821
  569POPC   D2A10552   1.155   3.302   8.520
  569POPC   C3A10553   1.215   3.615   8.188
  569POPC   C4A10554   1.065   3.547   7.771
  569POPC   C1B10555   1.155   3.854   8.668
  569POPC   C2B10556   0.791   3.949   8.401
  569POPC   C3B10557   0.705   4.148   8.009
  569POPC   C4B10558   1.003   4.065   7.700
  570POPC   NC310559  28.754  44.937   9.415
  570POPC   PO410560  29.030  44.374   9.704
  570POPC   GL110561  29.146  44.623   9.289
  570POPC   GL210562  29.426  44.863   9.267
  570POPC   C1A10563  29.007  44.692   8.841
  570POPC   D2A10564  29.110  44.504   8.445
  570POPC   C3A10565  29.123  44.737   8.063
  570POPC   C4A10566  28.939   0.042   7.828
  570POPC   C1B10567  29.400   0.058   8.858
  570POPC   C2B10568  29.398  44.991   8.421
  570POPC   C3B10569  29.459   0.151   7.994
  570POPC   C4B10570  29.410   0.039   7.568
  571POPC   NC310571  40.700  11.855   9.584
  571POPC   PO410572  41.313  11.650   9.495
  571POPC   GL110573  41.064  12.048   9.271
  571POPC   GL210574  40.722  12.013   9.105
  571POPC   C1A10575  41.043  12.264   8.843
  571POPC   D2A10576  40.868  12.202   8.474
  571POPC   C3A10577  41.129  12.073   8.176
  571POPC   C4A10578  41.003  12.197   7.773
  571POPC   C1B10579  40.477  12.220   8.808
  571POPC   C2B10580  40.303  12.255   8.415
  571POPC   C3B10581  40.517  12.140   8.040
  571POPC   C4B10582  40.428  11.966   7.649
  572POPC   NC310583  27.166  11.964   9.489
  572POPC   PO410584  26.631  12.391   9.432
  572POPC   GL110585  26.753  12.176   9.113
  572POPC   GL210586  26.742  11.847   9.203
  572POPC   C1A10587  27.082  12.102   8.827
  572POPC   D2A10588  27.112  12.001   8.409
  572POPC   C3A10589  26.920  12.287   8.116
  572POPC   C4A10590  27.041  12.202   7.711
  572POPC   C1B10591  26.693  11.729   8.765
  572POPC   C2B10592  26.781  11.587   8.342
  572POPC   C3B10593  26.907  11.785   7.972
  572POPC   C4B10594  26.923  11.676   7.541
  573POPC   NC310595  11.782   1.298   9.384
  573POPC   PO410596  11.205   1.288   9.568
  573POPC   GL110597  11.089   1.152   9.143
  573POPC   GL210598  11.393   0.996   9.033
  573POPC   C1A10599  10.966   1.204   8.715
  573POPC   D2A10600  11.338   1.040   8.447
  573POPC   C3A10601  11.325   0.951   8.014
  573POPC   C4A10602  11.267   1.130   7.600
  573POPC   C1B10603  11.415   1.413   8.794
  573POPC   C2B10604  11.210   1.525   8.366
  573POPC   C3B10605  11.416   1.482   7.964
  573POPC   C4B10606  11.556   1.614   7.545
  574POPC   NC310607   6.199  20.247   9.317
  574POPC   PO410608   5.891  19.611   9.579
  574POPC   GL110609   5.747  19.616   9.171
  574POPC   GL210610   5.620  19.972   9.194
  574POPC   C1A10611   5.899  19.724   8.748
  574POPC   D2A10612   5.727  19.936   8.355
  574POPC   C3A10613   5.813  19.901   7.891
  574POPC   C4A10614   5.791  19.623   7.488
  574POPC   C1B10615   5.742  20.203   8.826
  574POPC   C2B10616   6.143  20.162   8.598
  574POPC   C3B10617   6.213  20.151   8.153
  574POPC   C4B10618   5.962  20.394   7.847
  575POPC   NC310619  31.176   4.297   9.468
  575POPC   PO410620  31.916   4.374   9.473
  575POPC   GL110621  31.599   4.491   9.154
  575POPC   GL210622  31.223   4.552   9.026
  575POPC   C1A10623  31.649   4.618   8.735
  575POPC   D2A10624  31.425   4.436   8.367
  575POPC   C3A10625  31.672   4.343   7.987
  575POPC   C4A10626  31.974   4.619   7.762
  575POPC   C1B10627  31.363   4.139   8.833
  575POPC   C2B10628  31.181   3.934   8.467
  575POPC   C3B10629  30.979   4.236   8.182
  575POPC   C4B10630  31.177   4.483   7.835
  576POPC   NC310631  18.452  14.108   9.470
  576POPC   PO410632  18.032  14.641   9.428
  576POPC   GL110633  18.324  14.489   9.104
  576POPC   GL210634  18.257  14.155   8.991
  576POPC   C1A10635  18.344  14.706   8.702
  576POPC   D2A10636  18.221  14.983   8.384
  576POPC   C3A10637  18.240  14.824   7.976
  576POPC   C4A10638  18.297  14.460   7.709
  576POPC   C1B10639  18.427  14.191   8.588
  576POPC   C2B10640  18.423  14.176   8.120
  576POPC   C3B10641  18.692  14.116   7.767
  576POPC   C4B10642  18.662  14.126   7.293
  577POPC   NC310643  17.650   3.290   9.509
  577POPC   PO410644  17.508   3.966   9.643
  577POPC   GL110645  17.586   3.693   9.229
  577POPC   GL210646  17.351   3.548   9.004
  577POPC   C1A10647  17.807   3.609   8.830
  577POPC   D2A10648  17.745   3.818   8.451
  577POPC   C3A10649  17.607   3.625   8.088
  577POPC   C4A10650  17.701   3.802   7.706
  577POPC   C1B10651  17.366   3.325   8.609
  577POPC   C2B10652  17.629   3.131   8.268
  577POPC   C3B10653  17.834   3.200   7.876
  577POPC   C4B10654  17.563   3.036   7.521
  578POPC   NC310655  18.096  22.337   9.635
  578POPC   PO410656  18.605  21.862   9.523
  578POPC   GL110657  18.263  21.988   9.249
  578POPC   GL210658  18.325  22.353   9.186
  578POPC   C1A10659  18.116  21.863   8.835
  578POPC   D2A10660  18.184  22.072   8.434
  578POPC   C3A10661  18.303  21.938   8.032
  578POPC   C4A10662  18.262  22.097   7.634
  578POPC   C1B10663  18.496  22.290   8.779
  578POPC   C2B10664  18.665  22.283   8.352
  578POPC   C3B10665  18.609  22.354   7.914
  578POPC   C4B10666  18.804  22.460   7.530
  579POPC   NC310667  23.899  41.234   9.609
  579POPC   PO410668  23.723  40.580   9.553
  579POPC   GL110669  23.620  40.642   9.138
  579POPC   GL210670  23.572  40.996   9.209
  579POPC   C1A10671  23.571  40.803   8.723
  579POPC   D2A10672  23.660  40.637   8.320
  579POPC   C3A10673  23.643  40.918   7.969
  579POPC   C4A10674  23.781  40.764   7.563
  579POPC   C1B10675  23.905  41.165   8.933
  579POPC   C2B10676  23.988  41.233   8.504
  579POPC   C3B10677  24.205  41.116   8.134
  579POPC   C4B10678  24.056  41.148   7.727
  580POPC   NC310679  42.831   9.689   9.580
  580POPC   PO410680  43.505   9.772   9.665
  580POPC   GL110681  43.253   9.727   9.232
  580POPC   GL210682  42.998   9.486   9.159
  580POPC   C1A10683  42.953   9.891   8.851
  580POPC   D2A10684  42.801  10.133   8.449
  580POPC   C3A10685  42.850   9.905   8.030
  580POPC   C4A10686  43.203   9.775   7.740
  580POPC   C1B10687  42.806   9.329   8.793
  580POPC   C2B10688  42.728   9.527   8.391
  580POPC   C3B10689  42.641   9.423   7.960
  580POPC   C4B10690  42.742   9.638   7.578
  581POPC   NC310691  24.203  20.659   9.503
  581POPC   PO410692  24.859  20.452   9.538
  581POPC   GL110693  24.597  20.468   9.173
  581POPC   GL210694  24.489  20.125   9.181
  581POPC   C1A10695  24.516  20.504   8.721
  581POPC   D2A10696  24.684  20.610   8.297
  581POPC   C3A10697  24.428  20.611   7.913
  581POPC   C4A10698  24.059  20.801   7.747
  581POPC   C1B10699  24.480  19.994   8.742
  581POPC   C2B10700  24.402  20.158   8.328
  581POPC   C3B10701  24.689  20.183   7.997
  581POPC   C4B10702  24.574  20.208   7.570
  582POPC   NC310703  10.335  21.017   9.486
  582POPC   PO410704  10.831  20.635   9.672
  582POPC   GL110705  10.687  20.690   9.246
  582POPC   GL210706  10.817  21.040   9.225
  582POPC   C1A10707  10.525  20.500   8.833
  582POPC   D2A10708  10.375  20.453   8.406
  582POPC   C3A10709  10.578  20.544   7.992
  582POPC   C4A10710  10.407  20.511   7.587
  582POPC   C1B10711  10.574  20.995   8.845
  582POPC   C2B10712  10.641  20.881   8.412
  582POPC   C3B10713  10.604  21.056   8.001
  582POPC   C4B10714  10.621  20.953   7.583
  583POPC   NC310715  35.964  27.798   9.791
  583POPC   PO410716  36.205  28.182   9.325
  583POPC   GL110717  36.134  28.467   9.049
  583POPC   GL210718  35.923  28.662   9.189
  583POPC   C1A10719  36.321  28.511   8.684
  583POPC   D2A10720  36.300  28.094   8.441
  583POPC   C3A10721  36.046  28.111   8.065
  583POPC   C4A10722  36.309  28.096   7.717
  583POPC   C1B10723  35.756  28.670   8.777
  583POPC   C2B10724  35.890  28.424   8.432
  583POPC   C3B10725  36.297  28.536   8.169
  583POPC   C4B10726  36.079  28.628   7.813
  584POPC   NC310727  18.125  38.739   9.524
  584POPC   PO410728  18.618  38.289   9.512
  584POPC   GL110729  18.453  38.468   9.174
  584POPC   GL210730  18.483  38.787   9.158
  584POPC   C1A10731  18.351  38.442   8.755
  584POPC   D2A10732  18.412  38.151   8.418
  584POPC   C3A10733  18.189  38.188   8.010
  584POPC   C4A10734  18.503  38.250   7.717
  584POPC   C1B10735  18.342  38.962   8.773
  584POPC   C2B10736  18.191  38.829   8.378
  584POPC   C3B10737  18.291  38.705   7.949
  584POPC   C4B10738  18.192  38.759   7.509
  585POPC   NC310739  39.603   8.944   9.703
  585POPC   PO410740  39.026   9.272   9.610
  585POPC   GL110741  39.287   9.042   9.259
  585POPC   GL210742  39.656   8.944   9.196
  585POPC   C1A10743  39.337   8.974   8.786
  585POPC   D2A10744  39.457   9.149   8.370
  585POPC   C3A10745  39.392   8.914   8.002
  585POPC   C4A10746  39.004   8.877   7.762
  585POPC   C1B10747  39.764   8.693   8.830
  585POPC   C2B10748  39.642   8.637   8.405
  585POPC   C3B10749  39.651   8.475   8.004
  585POPC   C4B10750  39.459   8.551   7.610
  586POPC   NC310751   6.591  25.674   9.651
  586POPC   PO410752   6.913  25.150   9.310
  586POPC   GL110753   6.639  25.270   9.050
  586POPC   GL210754   6.620  25.571   9.164
  586POPC   C1A10755   6.575  25.374   8.654
  586POPC   D2A10756   6.430  25.338   8.267
  586POPC   C3A10757   6.790  25.349   7.974
  586POPC   C4A10758   7.065  24.994   7.886
  586POPC   C1B10759   6.350  25.770   8.886
  586POPC   C2B10760   6.362  25.861   8.455
  586POPC   C3B10761   6.187  25.721   8.082
  586POPC   C4B10762   6.354  25.470   7.771
  587POPC   NC310763   1.614  15.124   9.491
  587POPC   PO410764   0.962  15.337   9.435
  587POPC   GL110765   1.244  15.218   9.166
  587POPC   GL210766   1.040  15.010   9.011
  587POPC   C1A10767   1.415  15.275   8.780
  587POPC   D2A10768   1.186  15.169   8.445
  587POPC   C3A10769   1.360  15.319   8.115
  587POPC   C4A10770   1.078  15.412   7.826
  587POPC   C1B10771   1.260  14.761   8.726
  587POPC   C2B10772   1.146  14.680   8.309
  587POPC   C3B10773   1.101  14.894   7.924
  587POPC   C4B10774   1.185  14.746   7.493
  588POPC   NC310775   4.259  18.670   9.732
  588POPC   PO410776   4.374  18.060   9.599
  588POPC   GL110777   4.285  18.212   9.206
  588POPC   GL210778   4.446  18.549   9.245
  588POPC   C1A10779   4.188  18.029   8.772
  588POPC   D2A10780   3.979  18.066   8.344
  588POPC   C3A10781   4.188  17.897   7.979
  588POPC   C4A10782   4.084  17.873   7.543
  588POPC   C1B10783   4.130  18.564   8.899
  588POPC   C2B10784   3.985  18.662   8.486
  588POPC   C3B10785   3.998  18.526   8.074
  588POPC   C4B10786   4.246  18.340   7.759
  589POPC   NC310787  43.678  24.606   9.525
  589POPC   PO410788  44.225  24.196   9.521
  589POPC   GL110789  44.081  24.494   9.191
  589POPC   GL210790  43.784  24.327   9.117
  589POPC   C1A10791  43.911  24.654   8.768
  589POPC   D2A10792  43.745  24.409   8.426
  589POPC   C3A10793  43.584  24.626   8.082
  589POPC   C4A10794  43.813  24.707   7.733
  589POPC   C1B10795  44.070  24.163   8.780
  589POPC   C2B10796  44.263  24.080   8.406
  589POPC   C3B10797  44.089  24.186   8.039
  589POPC   C4B10798  44.150  24.343   7.659
  590POPC   NC310799   5.494   1.953   9.528
  590POPC   PO410800   4.942   2.214   9.738
  590POPC   GL110801   5.095   2.197   9.280
  590POPC   GL210802   4.830   2.403   9.179
  590POPC   C1A10803   5.197   2.031   8.837
  590POPC   D2A10804   5.403   1.707   8.567
  590POPC   C3A10805   5.282   1.726   8.128
  590POPC   C4A10806   5.085   1.789   7.722
  590POPC   C1B10807   4.703   2.075   8.922
  590POPC   C2B10808   4.814   2.238   8.507
  590POPC   C3B10809   4.825   2.063   8.107
  590POPC   C4B10810   4.802   2.204   7.699
  591POPC   NC310811  32.361  12.399   9.412
  591POPC   PO410812  31.965  11.858   9.546
  591POPC   GL110813  32.208  11.953   9.194
  591POPC   GL210814  31.980  12.213   9.110
  591POPC   C1A10815  32.472  11.883   8.820
  591POPC   D2A10816  32.665  11.870   8.409
  591POPC   C3A10817  32.334  12.000   8.168
  591POPC   C4A10818  32.238  12.071   7.751
  591POPC   C1B10819  32.100  12.243   8.661
  591POPC   C2B10820  32.002  12.459   8.284
  591POPC   C3B10821  31.817  12.271   7.932
  591POPC   C4B10822  31.764  12.404   7.494
  592POPC   NC310823  31.079  12.044   9.535
  592POPC   PO410824  30.447  12.068   9.527
  592POPC   GL110825  30.719  12.019   9.151
  592POPC   GL210826  30.965  12.310   9.118
  592POPC   C1A10827  30.672  12.156   8.703
  592POPC   D2A10828  30.552  12.367   8.290
  592POPC   C3A10829  30.595  12.096   7.940
  592POPC   C4A10830  30.350  11.759   7.803
  592POPC   C1B10831  31.131  12.388   8.716
  592POPC   C2B10832  31.063  12.260   8.284
  592POPC   C3B10833  30.970  12.438   7.875
  592POPC   C4B10834  30.949  12.380   7.453
  593POPC   NC310835  19.294  31.633   9.735
  593POPC   PO410836  19.129  32.207   9.673
  593POPC   GL110837  18.971  31.850   9.422
  593POPC   GL210838  19.292  31.804   9.250
  593POPC   C1A10839  18.876  31.657   8.981
  593POPC   D2A10840  18.775  31.654   8.496
  593POPC   C3A10841  18.916  31.523   8.050
  593POPC   C4A10842  18.849  31.226   7.726
  593POPC   C1B10843  19.425  31.556   8.895
  593POPC   C2B10844  19.578  31.619   8.468
  593POPC   C3B10845  19.442  31.564   8.067
  593POPC   C4B10846  19.330  31.474   7.683
  594POPC   NC310847  25.684  22.766   9.535
  594POPC   PO410848  25.012  22.776   9.506
  594POPC   GL110849  25.302  22.710   9.165
  594POPC   GL210850  25.446  23.036   9.161
  594POPC   C1A10851  25.213  22.808   8.727
  594POPC   D2A10852  25.044  22.634   8.363
  594POPC   C3A10853  25.093  22.916   8.037
  594POPC   C4A10854  25.023  22.703   7.682
  594POPC   C1B10855  25.633  23.093   8.760
  594POPC   C2B10856  25.615  22.939   8.330
  594POPC   C3B10857  25.726  23.163   7.954
  594POPC   C4B10858  25.434  23.177   7.601
  595POPC   NC310859  32.321  13.312   9.356
  595POPC   PO410860  32.022  12.710   9.479
  595POPC   GL110861  32.288  12.857   9.145
  595POPC   GL210862  32.200  12.642   8.937
  595POPC   C1A10863  32.158  13.116   8.752
  595POPC   D2A10864  31.854  13.003   8.440
  595POPC   C3A10865  32.095  13.037   8.079
  595POPC   C4A10866  32.111  13.177   7.651
  595POPC   C1B10867  32.577  12.415   8.791
  595POPC   C2B10868  32.758  12.404   8.393
  595POPC   C3B10869  32.497  12.457   8.035
  595POPC   C4B10870  32.168  12.602   7.791
  596POPC   NC310871  44.177  13.575   9.759
  596POPC   PO410872  44.864  13.539   9.492
  596POPC   GL110873  44.763  13.673   9.081
  596POPC   GL210874  44.875  13.998   9.078
  596POPC   C1A10875  44.669  13.501   8.695
  596POPC   D2A10876  44.471  13.582   8.342
  596POPC   C3A10877  44.736  13.386   8.022
  596POPC   C4A10878  44.484  13.540   7.710
  596POPC   C1B10879  44.892  14.168   8.721
  596POPC   C2B10880  44.859  13.893   8.411
  596POPC   C3B10881  44.726  13.893   8.027
  596POPC   C4B10882  44.874  13.834   7.637
  597POPC   NC310883  36.474  15.916   9.557
  597POPC   PO410884  35.695  15.910   9.556
  597POPC   GL110885  36.026  15.811   9.231
  597POPC   GL210886  36.183  16.096   9.124
  597POPC   C1A10887  35.980  15.820   8.767
  597POPC   D2A10888  35.832  15.944   8.384
  597POPC   C3A10889  36.066  15.892   8.043
  597POPC   C4A10890  36.319  15.902   7.691
  597POPC   C1B10891  36.499  15.901   8.850
  597POPC   C2B10892  36.417  15.796   8.423
  597POPC   C3B10893  36.649  15.907   8.053
  597POPC   C4B10894  36.683  16.239   7.669
  598POPC   NC310895  32.367   0.621   9.630
  598POPC   PO410896  32.181   0.095   9.498
  598POPC   GL110897  32.217   0.391   9.157
  598POPC   GL210898  32.548   0.516   9.137
  598POPC   C1A10899  32.054   0.422   8.715
  598POPC   D2A10900  31.941   0.320   8.282
  598POPC   C3A10901  32.035   0.569   7.888
  598POPC   C4A10902  32.238   0.704   7.442
  598POPC   C1B10903  32.445   0.741   8.764
  598POPC   C2B10904  32.270   0.806   8.341
  598POPC   C3B10905  32.522   0.632   8.002
  598POPC   C4B10906  32.560   0.345   7.680
  599POPC   NC310907  37.326  17.420   9.433
  599POPC   PO410908  36.764  17.124   9.686
  599POPC   GL110909  36.874  17.236   9.268
  599POPC   GL210910  36.833  17.592   9.217
  599POPC   C1A10911  36.976  17.281   8.827
  599POPC   D2A10912  36.805  17.585   8.508
  599POPC   C3A10913  36.985  17.511   8.132
  599POPC   C4A10914  36.954  17.218   7.828
  599POPC   C1B10915  37.113  17.778   8.885
  599POPC   C2B10916  37.263  17.825   8.449
  599POPC   C3B10917  37.343  17.873   8.012
  599POPC   C4B10918  37.107  17.705   7.665
  600POPC   NC310919  42.158  27.369   9.580
  600POPC   PO410920  42.412  28.052   9.499
  600POPC   GL110921  42.327  27.725   9.217
  600POPC   GL210922  42.117  27.896   9.038
  600POPC   C1A10923  42.371  27.469   8.817
  600POPC   D2A10924  42.145  27.393   8.375
  600POPC   C3A10925  42.294  27.564   7.931
  600POPC   C4A10926  42.576  27.516   7.537
  600POPC   C1B10927  42.254  27.920   8.637
  600POPC   C2B10928  42.124  28.012   8.236
  600POPC   C3B10929  42.057  28.028   7.800
  600POPC   C4B10930  42.150  27.776   7.401
  601POPC   NC310931  27.165  33.608   9.421
  601POPC   PO410932  26.556  33.524   9.662
  601POPC   GL110933  26.681  33.670   9.198
  601POPC   GL210934  26.964  33.503   8.977
  601POPC   C1A10935  26.657  33.982   8.841
  601POPC   D2A10936  26.723  34.152   8.408
  601POPC   C3A10937  27.019  34.043   8.095
  601POPC   C4A10938  27.024  34.028   7.650
  601POPC   C1B10939  26.813  33.588   8.569
  601POPC   C2B10940  26.669  33.682   8.182
  601POPC   C3B10941  26.896  33.595   7.859
  601POPC   C4B10942  27.026  33.530   7.492
  602POPC   NC310943  23.522   3.682   9.478
  602POPC   PO410944  24.056   3.487   9.709
  602POPC   GL110945  23.904   3.450   9.231
  602POPC   GL210946  23.540   3.456   9.031
  602POPC   C1A10947  23.980   3.540   8.796
  602POPC   D2A10948  24.014   3.456   8.381
  602POPC   C3A10949  23.706   3.604   8.082
  602POPC   C4A10950  23.576   3.302   7.767
  602POPC   C1B10951  23.563   3.810   8.710
  602POPC   C2B10952  23.405   3.986   8.338
  602POPC   C3B10953  23.194   3.786   7.990
  602POPC   C4B10954  23.199   3.830   7.550
  603POPC   NC310955  28.267  12.949   9.351
  603POPC   PO410956  28.787  12.697   9.170
  603POPC   GL110957  28.530  12.718   8.847
  603POPC   GL210958  28.259  12.606   8.965
  603POPC   C1A10959  28.270  13.061   8.696
  603POPC   D2A10960  28.340  13.245   8.310
  603POPC   C3A10961  28.600  12.927   8.139
  603POPC   C4A10962  28.620  12.833   7.711
  603POPC   C1B10963  27.960  12.644   8.686
  603POPC   C2B10964  27.966  12.876   8.325
  603POPC   C3B10965  28.137  12.926   7.935
  603POPC   C4B10966  28.178  12.659   7.558
  604POPC   NC310967  40.151  35.019   9.396
  604POPC   PO410968  39.951  35.660   9.585
  604POPC   GL110969  40.048  35.485   9.198
  604POPC   GL210970  39.756  35.271   9.176
  604POPC   C1A10971  40.131  35.262   8.799
  604POPC   D2A10972  39.979  35.418   8.440
  604POPC   C3A10973  40.134  35.243   8.094
  604POPC   C4A10974  39.858  35.180   7.836
  604POPC   C1B10975  39.656  35.588   8.860
  604POPC   C2B10976  39.467  35.573   8.447
  604POPC   C3B10977  39.615  35.570   8.031
  604POPC   C4B10978  39.843  35.660   7.630
  605POPC   NC310979  40.669   0.439   9.561
  605POPC   PO410980  41.323   0.243   9.523
  605POPC   GL110981  40.961   0.206   9.165
  605POPC   GL210982  40.602   0.109   9.194
  605POPC   C1A10983  40.765   0.467   8.796
  605POPC   D2A10984  40.548   0.642   8.392
  605POPC   C3A10985  40.659   0.480   7.993
  605POPC   C4A10986  40.862   0.586   7.630
  605POPC   C1B10987  40.492   0.044   8.758
  605POPC   C2B10988  40.643   0.077   8.316
  605POPC   C3B10989  40.476   0.006   7.855
  605POPC   C4B10990  40.487   0.103   7.364
  606POPC   NC310991  16.335  10.288   9.331
  606POPC   PO410992  16.993  10.275   9.518
  606POPC   GL110993  16.814  10.470   9.172
  606POPC   GL210994  16.968  10.805   9.160
  606POPC   C1A10995  16.631  10.326   8.754
  606POPC   D2A10996  16.418  10.354   8.361
  606POPC   C3A10997  16.667  10.588   8.105
  606POPC   C4A10998  16.760  10.422   7.707
  606POPC   C1B10999  16.636  10.852   8.849
  606POPC   C2B11000  16.571  11.032   8.448
  606POPC   C3B11001  16.353  11.006   8.091
  606POPC   C4B11002  16.514  10.870   7.715
  607POPC   NC311003  19.825  16.851   9.615
  607POPC   PO411004  20.364  16.592   9.490
  607POPC   GL111005  19.981  16.517   9.230
  607POPC   GL211006  19.924  16.855   9.101
  607POPC   C1A11007  19.752  16.475   8.820
  607POPC   D2A11008  19.780  16.786   8.489
  607POPC   C3A11009  19.861  16.587   8.154
  607POPC   C4A11010  19.936  16.536   7.772
  607POPC   C1B11011  20.128  17.078   8.732
  607POPC   C2B11012  20.140  17.094   8.263
  607POPC   C3B11013  19.904  17.028   7.891
  607POPC   C4B11014  19.932  17.115   7.430
  608POPC   NC311015   7.082  10.821   9.472
  608POPC   PO411016   7.742  10.672   9.458
  608POPC   GL111017   7.635  10.652   9.041
  608POPC   GL211018   7.302  10.573   9.077
  608POPC   C1A11019   7.506  10.652   8.604
  608POPC   D2A11020   7.208  10.765   8.317
  608POPC   C3A11021   7.484  10.880   7.986
  608POPC   C4A11022   7.609  10.955   7.597
  608POPC   C1B11023   7.070  10.417   8.743
  608POPC   C2B11024   7.167  10.205   8.365
  608POPC   C3B11025   7.312  10.389   7.971
  608POPC   C4B11026   7.152  10.245   7.578
  609POPC   NC311027   5.692   2.917   9.350
  609POPC   PO411028   6.097   2.400   9.214
  609POPC   GL111029   5.980   2.703   8.940
  609POPC   GL211030   6.082   3.019   9.004
  609POPC   C1A11031   6.008   2.817   8.515
  609POPC   D2A11032   5.699   2.557   8.315
  609POPC   C3A11033   5.555   2.653   7.944
  609POPC   C4A11034   5.809   2.576   7.596
  609POPC   C1B11035   5.726   3.182   8.735
  609POPC   C2B11036   5.557   3.094   8.321
  609POPC   C3B11037   5.691   3.135   7.891
  609POPC   C4B11038   5.482   3.001   7.507
  610POPC   NC311039  18.943   4.244   9.533
  610POPC   PO411040  19.602   4.474   9.591
  610POPC   GL111041  19.319   4.540   9.202
  610POPC   GL211042  18.967   4.648   9.216
  610POPC   C1A11043  19.284   4.424   8.749
  610POPC   D2A11044  19.397   4.159   8.366
  610POPC   C3A11045  19.245   4.253   7.918
  610POPC   C4A11046  19.219   4.632   7.626
  610POPC   C1B11047  18.773   4.428   8.864
  610POPC   C2B11048  18.779   4.551   8.453
  610POPC   C3B11049  18.518   4.619   8.114
  610POPC   C4B11050  18.716   4.550   7.746
  611POPC   NC311051  41.856  36.379   9.930
  611POPC   PO411052  41.553  36.133   9.459
  611POPC   GL111053  41.703  36.049   9.074
  611POPC   GL211054  41.461  35.808   9.053
  611POPC   C1A11055  41.694  36.163   8.659
  611POPC   D2A11056  41.392  36.372   8.451
  611POPC   C3A11057  41.425  36.183   8.069
  611POPC   C4A11058  41.707  36.337   7.736
  611POPC   C1B11059  41.238  35.937   8.729
  611POPC   C2B11060  41.227  35.711   8.365
  611POPC   C3B11061  41.397  35.678   8.005
  611POPC   C4B11062  41.248  35.849   7.669
  612POPC   NC311063  13.367  12.048   9.444
  612POPC   PO411064  13.972  11.666   9.462
  612POPC   GL111065  13.904  11.856   9.070
  612POPC   GL211066  13.683  12.149   9.046
  612POPC   C1A11067  13.810  11.843   8.657
  612POPC   D2A11068  13.651  12.215   8.493
  612POPC   C3A11069  13.779  12.247   8.106
  612POPC   C4A11070  13.738  11.956   7.765
  612POPC   C1B11071  13.271  12.240   8.839
  612POPC   C2B11072  13.060  12.266   8.467
  612POPC   C3B11073  13.267  12.329   8.106
  612POPC   C4B11074  13.434  12.376   7.720
  613POPC   NC311075   4.746  32.284   9.661
  613POPC   PO411076   5.330  31.960   9.602
  613POPC   GL111077   5.098  32.113   9.244
  613POPC   GL211078   4.864  31.835   9.216
  613POPC   C1A11079   5.183  32.413   8.860
  613POPC   D2A11080   5.355  32.496   8.414
  613POPC   C3A11081   5.203  32.255   8.003
  613POPC   C4A11082   5.440  31.925   7.727
  613POPC   C1B11083   4.841  32.021   8.788
  613POPC   C2B11084   4.773  32.237   8.370
  613POPC   C3B11085   4.701  32.073   7.940
  613POPC   C4B11086   4.813  31.759   7.622
  614POPC   NC311087   5.600   0.260   9.590
  614POPC   PO411088   6.140   0.645   9.421
  614POPC   GL111089   5.835   0.528   9.149
  614POPC   GL211090   5.777   0.835   8.987
  614POPC   C1A11091   5.941   0.397   8.733
  614POPC   D2A11092   6.221   0.172   8.464
  614POPC   C3A11093   6.013   0.139   8.096
  614POPC   C4A11094   5.815   0.238   7.723
  614POPC   C1B11095   5.527   0.701   8.652
  614POPC   C2B11096   5.686   0.489   8.302
  614POPC   C3B11097   5.890   0.653   7.984
  614POPC   C4B11098   6.121   0.678   7.610
  615POPC   NC311099  20.683  32.496   9.564
  615POPC   PO411100  20.435  33.145   9.583
  615POPC   GL111101  20.694  33.115   9.229
  615POPC   GL211102  20.634  32.791   9.133
  615POPC   C1A11103  20.676  33.152   8.770
  615POPC   D2A11104  20.462  33.310   8.386
  615POPC   C3A11105  20.576  33.102   8.023
  615POPC   C4A11106  20.401  33.368   7.713
  615POPC   C1B11107  20.882  32.680   8.777
  615POPC   C2B11108  20.906  32.741   8.355
  615POPC   C3B11109  20.892  32.666   7.923
  615POPC   C4B11110  20.954  33.027   7.660
  616POPC   NC311111  34.136  27.101   9.866
  616POPC   PO411112  33.565  26.887   9.786
  616POPC   GL111113  33.621  27.032   9.337
  616POPC   GL211114  33.984  27.118   9.249
  616POPC   C1A11115  33.675  26.902   8.888
  616POPC   D2A11116  33.570  26.694   8.499
  616POPC   C3A11117  33.635  26.618   8.075
  616POPC   C4A11118  33.528  26.862   7.732
  616POPC   C1B11119  34.050  27.258   8.823
  616POPC   C2B11120  33.906  27.076   8.413
  616POPC   C3B11121  33.970  26.992   7.978
  616POPC   C4B11122  34.057  26.611   7.741
  617POPC   NC311123   3.572  30.360   9.562
  617POPC   PO411124   3.297  30.919   9.580
  617POPC   GL111125   3.580  30.889   9.251
  617POPC   GL211126   3.386  31.162   9.115
  617POPC   C1A11127   3.472  30.658   8.856
  617POPC   D2A11128   3.684  30.580   8.457
  617POPC   C3A11129   3.456  30.597   8.104
  617POPC   C4A11130   3.601  30.515   7.699
  617POPC   C1B11131   3.688  31.175   8.818
  617POPC   C2B11132   3.579  31.083   8.429
  617POPC   C3B11133   3.540  31.089   8.030
  617POPC   C4B11134   3.736  31.058   7.678
  618POPC   NC311135  21.070  39.840   9.579
  618POPC   PO411136  20.347  40.020   9.654
  618POPC   GL111137  20.615  39.972   9.295
  618POPC   GL211138  20.908  40.164   9.174
  618POPC   C1A11139  20.466  39.985   8.874
  618POPC   D2A11140  20.447  40.091   8.463
  618POPC   C3A11141  20.469  39.882   8.114
  618POPC   C4A11142  20.577  39.932   7.714
  618POPC   C1B11143  20.880  40.243   8.706
  618POPC   C2B11144  20.887  40.232   8.238
  618POPC   C3B11145  20.944  40.327   7.795
  618POPC   C4B11146  20.975  40.123   7.375
  619POPC   NC311147  41.115  37.745   9.636
  619POPC   PO411148  41.815  37.914   9.534
  619POPC   GL111149  41.696  37.765   9.163
  619POPC   GL211150  41.357  37.690   9.196
  619POPC   C1A11151  41.661  37.651   8.757
  619POPC   D2A11152  41.836  37.514   8.381
  619POPC   C3A11153  41.760  37.734   8.041
  619POPC   C4A11154  41.816  37.569   7.642
  619POPC   C1B11155  41.166  37.545   8.831
  619POPC   C2B11156  41.277  37.687   8.414
  619POPC   C3B11157  41.288  37.512   8.033
  619POPC   C4B11158  41.390  37.287   7.673
  620POPC   NC311159  10.682  25.794   9.457
  620POPC   PO411160  11.199  26.202   9.262
  620POPC   GL111161  10.783  26.269   9.052
  620POPC   GL211162  10.427  26.129   9.130
  620POPC   C1A11163  10.632  26.093   8.641
  620POPC   D2A11164  10.407  26.206   8.240
  620POPC   C3A11165  10.617  26.017   7.868
  620POPC   C4A11166  10.923  25.691   7.825
  620POPC   C1B11167  10.149  26.045   8.758
  620POPC   C2B11168  10.204  25.759   8.365
  620POPC   C3B11169  10.116  25.907   7.932
  620POPC   C4B11170   9.997  25.961   7.508
  621POPC   NC311171  30.360  32.734   9.551
  621POPC   PO411172  30.715  33.340   9.507
  621POPC   GL111173  30.800  33.199   9.131
  621POPC   GL211174  30.817  32.876   9.196
  621POPC   C1A11175  30.678  33.288   8.759
  621POPC   D2A11176  30.803  33.510   8.438
  621POPC   C3A11177  30.782  33.173   8.117
  621POPC   C4A11178  30.603  33.075   7.700
  621POPC   C1B11179  30.494  32.825   8.896
  621POPC   C2B11180  30.535  32.788   8.476
  621POPC   C3B11181  30.382  32.822   8.084
  621POPC   C4B11182  30.202  32.745   7.676
  622POPC   NC311183  28.108  32.051   9.640
  622POPC   PO411184  28.690  32.413   9.625
  622POPC   GL111185  28.425  32.251   9.274
  622POPC   GL211186  28.111  32.135   9.127
  622POPC   C1A11187  28.559  32.207   8.862
  622POPC   D2A11188  28.571  32.399   8.449
  622POPC   C3A11189  28.502  32.098   8.134
  622POPC   C4A11190  28.637  31.997   7.755
  622POPC   C1B11191  28.107  32.425   8.770
  622POPC   C2B11192  28.078  32.289   8.342
  622POPC   C3B11193  28.188  32.476   7.936
  622POPC   C4B11194  28.328  32.336   7.554
  623POPC   NC311195   0.270  29.604   9.622
  623POPC   PO411196   0.847  29.864   9.595
  623POPC   GL111197   0.606  29.746   9.228
  623POPC   GL211198   0.219  29.799   9.164
  623POPC   C1A11199   0.640  29.771   8.787
  623POPC   D2A11200   0.598  30.014   8.388
  623POPC   C3A11201   0.516  29.787   7.986
  623POPC   C4A11202   0.186  30.016   7.757
  623POPC   C1B11203   0.137  29.541   8.823
  623POPC   C2B11204   0.344  29.552   8.422
  623POPC   C3B11205   0.175  29.383   8.072
  623POPC   C4B11206   0.153  29.511   7.703
  624POPC   NC311207  17.614  36.417   9.520
  624POPC   PO411208  17.116  36.003   9.511
  624POPC   GL111209  17.289  36.095   9.127
  624POPC   GL211210  17.609  35.964   9.094
  624POPC   C1A11211  17.327  36.092   8.672
  624POPC   D2A11212  17.252  36.371   8.347
  624POPC   C3A11213  17.275  36.231   7.898
  624POPC   C4A11214  17.544  35.956   7.629
  624POPC   C1B11215  17.704  36.354   8.885
  624POPC   C2B11216  17.759  36.409   8.448
  624POPC   C3B11217  17.762  36.226   8.049
  624POPC   C4B11218  17.827  36.383   7.649
  625POPC   NC311219  35.005  18.005   9.512
  625POPC   PO411220  35.634  18.362   9.599
  625POPC   GL111221  35.573  18.296   9.181
  625POPC   GL211222  35.220  18.213   9.094
  625POPC   C1A11223  35.567  18.423   8.771
  625POPC   D2A11224  35.345  18.297   8.433
  625POPC   C3A11225  35.488  18.504   8.064
  625POPC   C4A11226  35.616  18.443   7.668
  625POPC   C1B11227  35.013  17.962   8.780
  625POPC   C2B11228  34.879  17.933   8.344
  625POPC   C3B11229  35.007  18.219   8.038
  625POPC   C4B11230  35.190  18.179   7.653
  626POPC   NC311231  19.399  41.910   9.389
  626POPC   PO411232  20.026  42.139   9.578
  626POPC   GL111233  20.105  42.181   9.175
  626POPC   GL211234  19.802  42.046   9.081
  626POPC   C1A11235  20.107  42.446   8.818
  626POPC   D2A11236  19.786  42.308   8.546
  626POPC   C3A11237  19.885  42.295   8.112
  626POPC   C4A11238  19.706  42.320   7.684
  626POPC   C1B11239  20.033  41.896   8.733
  626POPC   C2B11240  19.821  41.821   8.333
  626POPC   C3B11241  19.656  41.876   7.932
  626POPC   C4B11242  20.070  41.928   7.770
  627POPC   NC311243  23.514  25.075   9.363
  627POPC   PO411244  23.582  24.451   9.498
  627POPC   GL111245  23.502  24.364   9.062
  627POPC   GL211246  23.155  24.209   9.064
  627POPC   C1A11247  23.644  24.463   8.663
  627POPC   D2A11248  23.625  24.709   8.299
  627POPC   C3A11249  23.702  24.376   8.081
  627POPC   C4A11250  23.727  24.281   7.685
  627POPC   C1B11251  23.378  23.957   8.758
  627POPC   C2B11252  23.495  24.010   8.381
  627POPC   C3B11253  23.281  24.077   8.036
  627POPC   C4B11254  23.364  23.925   7.679
  628POPC   NC311255  42.438   7.049   9.238
  628POPC   PO411256  42.527   7.599   9.667
  628POPC   GL111257  42.392   7.663   9.257
  628POPC   GL211258  42.025   7.662   9.208
  628POPC   C1A11259  42.382   7.798   8.852
  628POPC   D2A11260  42.445   7.487   8.542
  628POPC   C3A11261  42.391   7.569   8.132
  628POPC   C4A11262  42.433   7.380   7.748
  628POPC   C1B11263  42.037   7.385   8.814
  628POPC   C2B11264  41.975   7.289   8.336
  628POPC   C3B11265  41.926   7.407   7.863
  628POPC   C4B11266  41.872   7.229   7.410
  629POPC   NC311267  19.349  41.345   9.970
  629POPC   PO411268  18.983  41.792   9.561
  629POPC   GL111269  19.015  41.678   9.134
  629POPC   GL211270  19.215  41.405   9.107
  629POPC   C1A11271  19.041  41.819   8.722
  629POPC   D2A11272  18.841  42.008   8.358
  629POPC   C3A11273  19.035  41.815   8.036
  629POPC   C4A11274  19.163  41.460   7.892
  629POPC   C1B11275  19.091  41.305   8.714
  629POPC   C2B11276  18.830  41.477   8.385
  629POPC   C3B11277  18.702  41.274   8.033
  629POPC   C4B11278  18.914  41.055   7.699
  630POPC   NC311279  14.568  38.602   9.555
  630POPC   PO411280  13.982  38.345   9.458
  630POPC   GL111281  14.386  38.307   9.179
  630POPC   GL211282  14.633  38.609   9.056
  630POPC   C1A11283  14.521  38.192   8.773
  630POPC   D2A11284  14.288  38.277   8.397
  630POPC   C3A11285  14.534  38.311   8.032
  630POPC   C4A11286  14.222  38.429   7.744
  630POPC   C1B11287  14.249  38.653   8.797
  630POPC   C2B11288  14.156  38.801   8.370
  630POPC   C3B11289  14.451  38.815   8.032
  630POPC   C4B11290  14.658  38.695   7.668
  631POPC   NC311291  21.598  18.382   9.537
  631POPC   PO411292  21.536  17.721   9.418
  631POPC   GL111293  21.406  18.091   9.122
  631POPC   GL211294  21.484  18.435   9.068
  631POPC   C1A11295  21.335  18.131   8.683
  631POPC   D2A11296  21.586  18.030   8.325
  631POPC   C3A11297  21.387  18.107   7.964
  631POPC   C4A11298  21.104  18.461   7.900
  631POPC   C1B11299  21.556  18.671   8.733
  631POPC   C2B11300  21.559  18.540   8.325
  631POPC   C3B11301  21.518  18.734   7.959
  631POPC   C4B11302  21.587  18.443   7.648
  632POPC   NC311303   3.288  37.881   9.518
  632POPC   PO411304   3.751  38.492   9.556
  632POPC   GL111305   3.458  38.346   9.242
  632POPC   GL211306   3.606  38.034   9.170
  632POPC   C1A11307   3.447  38.332   8.781
  632POPC   D2A11308   3.670  38.447   8.397
  632POPC   C3A11309   3.560  38.243   8.032
  632POPC   C4A11310   3.485  38.334   7.611
  632POPC   C1B11311   3.779  37.921   8.794
  632POPC   C2B11312   3.820  37.937   8.361
  632POPC   C3B11313   3.765  37.718   7.989
  632POPC   C4B11314   3.606  37.850   7.615
  633POPC   NC311315   4.498  28.025   9.621
  633POPC   PO411316   4.406  27.352   9.521
  633POPC   GL111317   4.290  27.666   9.241
  633POPC   GL211318   4.591  27.815   9.138
  633POPC   C1A11319   4.076  27.548   8.871
  633POPC   D2A11320   4.238  27.300   8.564
  633POPC   C3A11321   4.117  27.290   8.150
  633POPC   C4A11322   4.091  27.609   7.855
  633POPC   C1B11323   4.400  27.911   8.722
  633POPC   C2B11324   4.461  27.693   8.312
  633POPC   C3B11325   4.607  27.699   7.905
  633POPC   C4B11326   4.353  28.044   7.733
  634POPC   NC311327  35.577  26.906   9.555
  634POPC   PO411328  34.918  27.000   9.576
  634POPC   GL111329  35.235  26.994   9.187
  634POPC   GL211330  35.486  26.710   9.095
  634POPC   C1A11331  35.448  27.160   8.788
  634POPC   D2A11332  35.581  27.227   8.321
  634POPC   C3A11333  35.398  26.948   7.957
  634POPC   C4A11334  35.645  26.863   7.567
  634POPC   C1B11335  35.109  26.571   8.883
  634POPC   C2B11336  35.001  26.504   8.452
  634POPC   C3B11337  35.178  26.453   8.041
  634POPC   C4B11338  35.160  26.223   7.666
  635POPC   NC311339  25.915   0.135   9.380
  635POPC   PO411340  26.361   0.710   9.416
  635POPC   GL111341  26.130   0.516   9.114
  635POPC   GL211342  26.257   0.207   9.004
  635POPC   C1A11343  25.856   0.472   8.759
  635POPC   D2A11344  25.752   0.761   8.444
  635POPC   C3A11345  25.925   0.604   8.068
  635POPC   C4A11346  25.932   0.711   7.634
  635POPC   C1B11347  26.367   0.493   8.661
  635POPC   C2B11348  26.461   0.486   8.261
  635POPC   C3B11349  26.392   0.550   7.841
  635POPC   C4B11350  26.242   0.335   7.486
  636POPC   NC311351  28.198  26.983   9.499
  636POPC   PO411352  28.602  26.504   9.645
  636POPC   GL111353  28.622  26.649   9.206
  636POPC   GL211354  28.316  26.759   9.078
  636POPC   C1A11355  28.720  26.797   8.768
  636POPC   D2A11356  28.594  27.044   8.429
  636POPC   C3A11357  28.662  26.817   8.070
  636POPC   C4A11358  28.459  26.759   7.760
  636POPC   C1B11359  28.161  26.966   8.696
  636POPC   C2B11360  27.999  26.868   8.262
  636POPC   C3B11361  28.043  27.059   7.847
  636POPC   C4B11362  28.122  26.885   7.419
  637POPC   NC311363  12.699  11.603   9.563
  637POPC   PO411364  12.942  12.265   9.398
  637POPC   GL111365  12.954  11.889   9.135
  637POPC   GL211366  12.634  11.724   9.065
  637POPC   C1A11367  13.027  11.757   8.705
  637POPC   D2A11368  13.332  11.796   8.347
  637POPC   C3A11369  13.112  11.829   7.950
  637POPC   C4A11370  12.953  12.180   7.705
  637POPC   C1B11371  12.374  11.795   8.689
  637POPC   C2B11372  12.387  12.053   8.293
  637POPC   C3B11373  12.576  11.896   7.902
  637POPC   C4B11374  12.808  11.733   7.523
  638POPC   NC311375   2.545  37.899   9.486
  638POPC   PO411376   1.999  37.386   9.521
  638POPC   GL111377   2.066  37.723   9.236
  638POPC   GL211378   1.781  37.977   9.179
  638POPC   C1A11379   2.179  37.708   8.809
  638POPC   D2A11380   2.088  37.453   8.453
  638POPC   C3A11381   2.295  37.565   8.074
  638POPC   C4A11382   2.136  37.550   7.677
  638POPC   C1B11383   1.771  38.008   8.706
  638POPC   C2B11384   1.955  37.981   8.274
  638POPC   C3B11385   2.042  38.019   7.804
  638POPC   C4B11386   1.856  38.054   7.331
  639POPC   NC311387  23.199  17.491   9.580
  639POPC   PO411388  22.535  17.743   9.375
  639POPC   GL111389  22.969  17.632   9.146
  639POPC   GL211390  23.354  17.776   9.178
  639POPC   C1A11391  22.904  17.468   8.722
  639POPC   D2A11392  22.710  17.334   8.336
  639POPC   C3A11393  22.782  17.569   7.955
  639POPC   C4A11394  22.936  17.435   7.557
  639POPC   C1B11395  23.380  17.644   8.785
  639POPC   C2B11396  23.200  17.804   8.406
  639POPC   C3B11397  23.374  17.883   8.004
  639POPC   C4B11398  23.214  17.901   7.601
  640POPC   NC311399  15.684  42.631   9.588
  640POPC   PO411400  16.199  42.302   9.338
  640POPC   GL111401  15.915  42.565   9.115
  640POPC   GL211402  15.554  42.436   9.148
  640POPC   C1A11403  15.926  42.686   8.678
  640POPC   D2A11404  16.054  42.407   8.358
  640POPC   C3A11405  15.865  42.458   7.979
  640POPC   C4A11406  15.969  42.458   7.536
  640POPC   C1B11407  15.654  42.268   8.780
  640POPC   C2B11408  15.543  42.393   8.408
  640POPC   C3B11409  15.469  42.129   8.093
  640POPC   C4B11410  15.524  42.196   7.676
  641POPC   NC311411  25.844  34.768   9.760
  641POPC   PO411412  26.245  34.350   9.511
  641POPC   GL111413  26.011  34.665   9.219
  641POPC   GL211414  25.792  34.920   9.253
  641POPC   C1A11415  26.232  34.738   8.784
  641POPC   D2A11416  26.299  34.335   8.609
  641POPC   C3A11417  26.269  34.329   8.155
  641POPC   C4A11418  26.305  34.691   7.836
  641POPC   C1B11419  25.749  34.629   8.811
  641POPC   C2B11420  25.895  34.599   8.399
  641POPC   C3B11421  25.837  34.531   7.962
  641POPC   C4B11422  25.809  34.613   7.542
  642POPC   NC311423  29.587  26.910   9.865
  642POPC   PO411424  29.140  26.879   9.346
  642POPC   GL111425  29.105  26.592   9.033
  642POPC   GL211426  29.409  26.480   9.056
  642POPC   C1A11427  29.112  26.417   8.656
  642POPC   D2A11428  29.055  26.703   8.357
  642POPC   C3A11429  29.232  26.741   7.942
  642POPC   C4A11430  28.960  26.733   7.589
  642POPC   C1B11431  29.464  26.795   8.702
  642POPC   C2B11432  29.484  26.998   8.308
  642POPC   C3B11433  29.574  27.116   7.892
  642POPC   C4B11434  29.520  27.027   7.446
  643POPC   NC311435  37.832  17.298   9.736
  643POPC   PO411436  37.757  17.873   9.492
  643POPC   GL111437  37.667  17.654   9.142
  643POPC   GL211438  37.987  17.481   9.064
  643POPC   C1A11439  37.509  17.441   8.754
  643POPC   D2A11440  37.653  17.529   8.325
  643POPC   C3A11441  37.454  17.362   7.971
  643POPC   C4A11442  37.345  17.264   7.510
  643POPC   C1B11443  37.883  17.799   8.722
  643POPC   C2B11444  37.768  18.042   8.387
  643POPC   C3B11445  37.849  17.881   7.993
  643POPC   C4B11446  37.689  17.650   7.642
  644POPC   NC311447   0.200  39.129   9.466
  644POPC   PO411448   0.711  39.578   9.494
  644POPC   GL111449   0.439  39.472   9.135
  644POPC   GL211450   0.063  39.481   9.113
  644POPC   C1A11451   0.341  39.279   8.743
  644POPC   D2A11452   0.524  39.425   8.374
  644POPC   C3A11453   0.425  39.233   8.038
  644POPC   C4A11454   0.614  39.291   7.681
  644POPC   C1B11455  44.873  39.521   8.683
  644POPC   C2B11456   0.028  39.554   8.225
  644POPC   C3B11457   0.017  39.361   7.776
  644POPC   C4B11458  44.944  39.348   7.320
  645POPC   NC311459   7.762  17.651   9.993
  645POPC   PO411460   7.326  17.653   9.525
  645POPC   GL111461   7.298  17.548   9.121
  645POPC   GL211462   7.290  17.206   9.150
  645POPC   C1A11463   7.344  17.669   8.701
  645POPC   D2A11464   7.609  17.620   8.377
  645POPC   C3A11465   7.506  17.467   8.022
  645POPC   C4A11466   7.505  17.661   7.696
  645POPC   C1B11467   7.080  17.233   8.790
  645POPC   C2B11468   7.197  17.281   8.394
  645POPC   C3B11469   7.121  17.116   8.019
  645POPC   C4B11470   7.118  17.346   7.630
  646POPC   NC311471   1.436  31.019   9.192
  646POPC   PO411472   0.931  30.750   9.559
  646POPC   GL111473   1.132  30.598   9.154
  646POPC   GL211474   1.438  30.375   9.209
  646POPC   C1A11475   1.151  30.722   8.690
  646POPC   D2A11476   1.318  30.918   8.326
  646POPC   C3A11477   1.015  30.875   7.977
  646POPC   C4A11478   0.988  30.627   7.580
  646POPC   C1B11479   1.618  30.499   8.795
  646POPC   C2B11480   1.546  30.412   8.360
  646POPC   C3B11481   1.309  30.444   7.965
  646POPC   C4B11482   1.262  30.177   7.600
  647POPC   NC311483  41.803  34.822   9.479
  647POPC   PO411484  41.908  34.259   9.719
  647POPC   GL111485  41.728  34.360   9.252
  647POPC   GL211486  41.397  34.592   9.227
  647POPC   C1A11487  41.732  34.642   8.847
  647POPC   D2A11488  41.480  34.708   8.451
  647POPC   C3A11489  41.654  34.738   8.050
  647POPC   C4A11490  41.645  34.448   7.725
  647POPC   C1B11491  41.282  34.401   8.812
  647POPC   C2B11492  41.172  34.242   8.439
  647POPC   C3B11493  41.300  34.342   8.073
  647POPC   C4B11494  41.312  34.065   7.678
  648POPC   NC311495  24.742  12.525   9.456
  648POPC   PO411496  24.218  12.890   9.525
  648POPC   GL111497  24.212  12.951   9.119
  648POPC   GL211498  24.396  12.648   9.066
  648POPC   C1A11499  24.400  13.096   8.747
  648POPC   D2A11500  24.623  13.200   8.367
  648POPC   C3A11501  24.455  12.947   8.010
  648POPC   C4A11502  24.591  12.554   7.853
  648POPC   C1B11503  24.165  12.604   8.683
  648POPC   C2B11504  24.260  12.459   8.252
  648POPC   C3B11505  24.090  12.521   7.837
  648POPC   C4B11506  24.274  12.756   7.498
  649POPC   NC311507  15.322  27.142   9.627
  649POPC   PO411508  14.699  27.099   9.331
  649POPC   GL111509  14.975  26.872   9.014
  649POPC   GL211510  15.356  26.912   9.046
  649POPC   C1A11511  15.105  26.825   8.574
  649POPC   D2A11512  15.236  27.078   8.241
  649POPC   C3A11513  14.984  27.034   7.884
  649POPC   C4A11514  15.163  27.065   7.450
  649POPC   C1B11515  15.510  26.548   8.777
  649POPC   C2B11516  15.424  26.335   8.415
  649POPC   C3B11517  15.294  26.569   8.096
  649POPC   C4B11518  15.262  26.644   7.697
  650POPC   NC311519   9.187   3.707   9.681
  650POPC   PO411520   9.236   2.986   9.679
  650POPC   GL111521   9.274   3.320   9.311
  650POPC   GL211522   9.020   3.566   9.207
  650POPC   C1A11523   9.308   3.433   8.829
  650POPC   D2A11524   9.062   3.547   8.453
  650POPC   C3A11525   9.151   3.358   8.062
  650POPC   C4A11526   9.148   3.641   7.722
  650POPC   C1B11527   8.746   3.700   8.866
  650POPC   C2B11528   8.535   3.545   8.493
  650POPC   C3B11529   8.674   3.533   8.098
  650POPC   C4B11530   8.633   3.682   7.732
  651POPC   NC311531  37.288   1.297   9.524
  651POPC   PO411532  36.706   1.017   9.485
  651POPC   GL111533  36.864   1.230   9.184
  651POPC   GL211534  37.101   0.990   9.111
  651POPC   C1A11535  36.738   1.171   8.777
  651POPC   D2A11536  36.461   1.322   8.503
  651POPC   C3A11537  36.727   1.262   8.185
  651POPC   C4A11538  36.806   1.240   7.775
  651POPC   C1B11539  37.257   1.276   8.819
  651POPC   C2B11540  37.132   1.434   8.454
  651POPC   C3B11541  37.258   1.333   8.045
  651POPC   C4B11542  37.256   1.098   7.652
  652POPC   NC311543  37.468  28.550   9.643
  652POPC   PO411544  37.983  28.196   9.376
  652POPC   GL111545  37.721  28.449   9.168
  652POPC   GL211546  37.391  28.450   9.158
  652POPC   C1A11547  37.669  28.564   8.766
  652POPC   D2A11548  37.675  28.324   8.439
  652POPC   C3A11549  37.623  28.594   8.108
  652POPC   C4A11550  37.666  28.323   7.766
  652POPC   C1B11551  37.229  28.187   8.848
  652POPC   C2B11552  37.167  28.035   8.469
  652POPC   C3B11553  37.308  28.175   8.103
  652POPC   C4B11554  37.116  28.135   7.734
  653POPC   NC311555  44.353  27.329   9.462
  653POPC   PO411556  44.931  27.693   9.515
  653POPC   GL111557  44.796  27.759   9.126
  653POPC   GL211558  44.455  27.683   9.105
  653POPC   C1A11559  44.774  27.891   8.725
  653POPC   D2A11560  44.761  27.682   8.350
  653POPC   C3A11561  44.717  27.850   7.958
  653POPC   C4A11562   0.066  27.741   7.695
  653POPC   C1B11563  44.612  27.387   8.766
  653POPC   C2B11564  44.588  27.206   8.342
  653POPC   C3B11565  44.620  27.336   7.925
  653POPC   C4B11566  44.449  27.262   7.520
  654POPC   NC311567  25.569  12.664   9.293
  654POPC   PO411568  24.998  12.963   9.440
  654POPC   GL111569  25.253  13.024   9.081
  654POPC   GL211570  25.277  12.717   8.886
  654POPC   C1A11571  25.449  13.178   8.738
  654POPC   D2A11572  25.443  12.931   8.369
  654POPC   C3A11573  25.290  13.181   8.038
  654POPC   C4A11574  25.529  13.326   7.700
  654POPC   C1B11575  24.861  12.539   8.807
  654POPC   C2B11576  24.730  12.551   8.405
  654POPC   C3B11577  25.027  12.679   8.095
  654POPC   C4B11578  25.020  12.884   7.716
  655POPC   NC311579   0.626  18.661   9.235
  655POPC   PO411580   0.097  18.481   9.548
  655POPC   GL111581   0.297  18.254   9.209
  655POPC   GL211582  44.969  18.256   9.102
  655POPC   C1A11583   0.553  18.183   8.795
  655POPC   D2A11584   0.783  18.462   8.469
  655POPC   C3A11585   0.684  18.348   8.044
  655POPC   C4A11586   0.623  18.044   7.715
  655POPC   C1B11587   0.075  18.386   8.727
  655POPC   C2B11588   0.295  18.329   8.363
  655POPC   C3B11589   0.224  18.106   8.005
  655POPC   C4B11590   0.041  18.133   7.613
  656POPC   NC311591  44.181  17.268   9.591
  656POPC   PO411592  43.739  17.792   9.560
  656POPC   GL111593  43.803  17.483   9.273
  656POPC   GL211594  44.133  17.628   9.215
  656POPC   C1A11595  43.823  17.556   8.833
  656POPC   D2A11596  44.000  17.611   8.445
  656POPC   C3A11597  43.730  17.580   8.106
  656POPC   C4A11598  43.747  17.454   7.730
  656POPC   C1B11599  44.200  17.246   8.926
  656POPC   C2B11600  44.268  17.186   8.490
  656POPC   C3B11601  44.075  17.179   8.086
  656POPC   C4B11602  44.235  17.197   7.702
  657POPC   NC311603  33.736  37.273   9.453
  657POPC   PO411604  34.295  36.989   9.473
  657POPC   GL111605  34.015  36.710   9.205
  657POPC   GL211606  33.664  36.830   9.186
  657POPC   C1A11607  33.939  36.741   8.740
  657POPC   D2A11608  33.666  36.943   8.394
  657POPC   C3A11609  33.860  36.983   7.979
  657POPC   C4A11610  34.099  36.812   7.637
  657POPC   C1B11611  33.437  37.083   8.845
  657POPC   C2B11612  33.496  37.422   8.543
  657POPC   C3B11613  33.497  37.362   8.083
  657POPC   C4B11614  33.668  37.342   7.673
  658POPC   NC311615  16.736   6.891   9.288
  658POPC   PO411616  16.672   7.424   9.650
  658POPC   GL111617  16.641   7.400   9.165
  658POPC   GL211618  16.873   7.228   8.953
  658POPC   C1A11619  16.532   7.673   8.803
  658POPC   D2A11620  16.663   7.948   8.442
  658POPC   C3A11621  16.501   7.828   8.040
  658POPC   C4A11622  16.633   7.783   7.609
  658POPC   C1B11623  16.656   7.215   8.595
  658POPC   C2B11624  16.504   7.370   8.259
  658POPC   C3B11625  16.689   7.320   7.877
  658POPC   C4B11626  16.848   7.077   7.538
  659POPC   NC311627  15.631   0.051   9.475
  659POPC   PO411628  16.276   0.240   9.570
  659POPC   GL111629  16.009   0.334   9.232
  659POPC   GL211630  16.015   0.004   9.148
  659POPC   C1A11631  15.977   0.534   8.821
  659POPC   D2A11632  16.080   0.772   8.438
  659POPC   C3A11633  15.949   0.598   8.038
  659POPC   C4A11634  15.872   0.814   7.644
  659POPC   C1B11635  16.288   0.113   8.828
  659POPC   C2B11636  16.245   0.279   8.406
  659POPC   C3B11637  16.333   0.256   7.959
  659POPC   C4B11638  16.017   0.270   7.621
  660POPC   NC311639  11.866  20.272   9.474
  660POPC   PO411640  11.862  19.597   9.440
  660POPC   GL111641  12.209  19.768   9.206
  660POPC   GL211642  12.149  20.090   9.101
  660POPC   C1A11643  12.397  19.731   8.807
  660POPC   D2A11644  12.183  19.598   8.472
  660POPC   C3A11645  12.333  19.623   8.103
  660POPC   C4A11646  12.039  19.716   7.798
  660POPC   C1B11647  11.885  19.877   8.794
  660POPC   C2B11648  11.772  20.043   8.379
  660POPC   C3B11649  11.888  20.189   7.948
  660POPC   C4B11650  11.738  20.031   7.545
  661POPC   NC311651  21.887  38.553   9.399
  661POPC   PO411652  22.245  38.083   9.711
  661POPC   GL111653  22.278  38.245   9.256
  661POPC   GL211654  22.360  38.582   9.132
  661POPC   C1A11655  22.060  38.300   8.824
  661POPC   D2A11656  22.171  38.191   8.411
  661POPC   C3A11657  22.036  38.477   8.112
  661POPC   C4A11658  22.042  38.451   7.676
  661POPC   C1B11659  22.523  38.722   8.743
  661POPC   C2B11660  22.551  38.593   8.315
  661POPC   C3B11661  22.443  38.701   7.887
  661POPC   C4B11662  22.437  38.811   7.413
  662POPC   NC311663  32.654  31.816   9.500
  662POPC   PO411664  32.080  31.487   9.484
  662POPC   GL111665  32.086  31.539   9.079
  662POPC   GL211666  32.387  31.692   9.090
  662POPC   C1A11667  32.284  31.367   8.707
  662POPC   D2A11668  32.468  31.259   8.318
  662POPC   C3A11669  32.151  31.305   8.024
  662POPC   C4A11670  32.230  31.159   7.653
  662POPC   C1B11671  32.658  31.841   8.793
  662POPC   C2B11672  32.699  31.714   8.407
  662POPC   C3B11673  32.529  31.826   8.024
  662POPC   C4B11674  32.320  31.661   7.690
  663POPC   NC311675  12.340  12.543   9.651
  663POPC   PO411676  11.871  12.998   9.871
  663POPC   GL111677  11.834  12.973   9.374
  663POPC   GL211678  12.171  12.883   9.253
  663POPC   C1A11679  11.785  12.961   8.913
  663POPC   D2A11680  11.693  13.062   8.496
  663POPC   C3A11681  11.919  13.074   8.092
  663POPC   C4A11682  12.037  12.926   7.700
  663POPC   C1B11683  12.297  12.770   8.857
  663POPC   C2B11684  12.157  12.794   8.449
  663POPC   C3B11685  12.382  12.809   8.074
  663POPC   C4B11686  12.528  12.809   7.670
  664POPC   NC311687  20.070  27.768   9.514
  664POPC   PO411688  19.691  27.203   9.454
  664POPC   GL111689  19.918  27.422   9.165
  664POPC   GL211690  19.699  27.680   9.159
  664POPC   C1A11691  20.025  27.613   8.772
  664POPC   D2A11692  19.927  27.801   8.403
  664POPC   C3A11693  20.080  27.709   8.048
  664POPC   C4A11694  19.811  27.586   7.746
  664POPC   C1B11695  19.534  27.814   8.795
  664POPC   C2B11696  19.410  27.933   8.433
  664POPC   C3B11697  19.580  27.951   8.042
  664POPC   C4B11698  19.630  28.047   7.632
  665POPC   NC311699   6.819  39.008   9.477
  665POPC   PO411700   6.672  39.700   9.634
  665POPC   GL111701   6.679  39.479   9.214
  665POPC   GL211702   6.962  39.567   8.973
  665POPC   C1A11703   6.593  39.211   8.851
  665POPC   D2A11704   6.572  39.348   8.415
  665POPC   C3A11705   6.797  39.212   8.044
  665POPC   C4A11706   6.629  38.923   7.750
  665POPC   C1B11707   7.085  39.118   8.799
  665POPC   C2B11708   6.947  38.909   8.427
  665POPC   C3B11709   7.107  38.773   8.044
  665POPC   C4B11710   7.146  39.001   7.693
  666POPC   NC311711   0.181  35.903   9.447
  666POPC   PO411712   0.570  36.400   9.489
  666POPC   GL111713   0.485  36.178   9.138
  666POPC   GL211714   0.179  36.287   9.071
  666POPC   C1A11715   0.734  35.978   8.831
  666POPC   D2A11716   0.669  36.133   8.423
  666POPC   C3A11717   0.396  35.998   8.079
  666POPC   C4A11718   0.483  35.930   7.646
  666POPC   C1B11719   0.232  36.045   8.701
  666POPC   C2B11720   0.109  36.289   8.378
  666POPC   C3B11721  44.983  36.410   7.993
  666POPC   C4B11722   0.026  36.157   7.686
  667POPC   NC311723  18.915  16.462   9.472
  667POPC   PO411724  19.409  16.751   9.739
  667POPC   GL111725  19.422  16.775   9.273
  667POPC   GL211726  19.099  16.679   9.074
  667POPC   C1A11727  19.465  16.909   8.858
  667POPC   D2A11728  19.301  16.598   8.570
  667POPC   C3A11729  19.352  16.684   8.138
  667POPC   C4A11730  19.453  16.388   7.821
  667POPC   C1B11731  18.866  16.416   8.780
  667POPC   C2B11732  18.753  16.566   8.402
  667POPC   C3B11733  18.860  16.617   8.000
  667POPC   C4B11734  18.707  16.563   7.572
  668POPC   NC311735  30.695  20.398   9.575
  668POPC   PO411736  30.669  19.737   9.474
  668POPC   GL111737  30.727  19.623   9.104
  668POPC   GL211738  30.950  19.896   9.059
  668POPC   C1A11739  30.534  19.501   8.749
  668POPC   D2A11740  30.750  19.503   8.366
  668POPC   C3A11741  30.733  19.807   8.096
  668POPC   C4A11742  30.505  19.789   7.735
  668POPC   C1B11743  30.842  19.930   8.659
  668POPC   C2B11744  30.848  20.250   8.337
  668POPC   C3B11745  30.983  20.274   7.922
  668POPC   C4B11746  30.838  20.429   7.512
  669POPC   NC311747  23.086  41.642   9.579
  669POPC   PO411748  22.819  40.996   9.452
  669POPC   GL111749  22.815  41.459   9.193
  669POPC   GL211750  22.738  41.864   9.256
  669POPC   C1A11751  23.060  41.720   8.855
  669POPC   D2A11752  23.008  41.549   8.418
  669POPC   C3A11753  23.042  41.805   8.040
  669POPC   C4A11754  23.353  41.864   7.723
  669POPC   C1B11755  22.566  41.795   8.861
  669POPC   C2B11756  22.661  41.924   8.460
  669POPC   C3B11757  22.534  41.807   8.060
  669POPC   C4B11758  22.610  41.932   7.684
  670POPC   NC311759   1.898  40.178   9.570
  670POPC   PO411760   1.926  39.532   9.647
  670POPC   GL111761   1.936  39.741   9.211
  670POPC   GL211762   1.636  39.973   9.166
  670POPC   C1A11763   2.102  39.864   8.788
  670POPC   D2A11764   2.312  39.908   8.380
  670POPC   C3A11765   2.087  40.088   8.055
  670POPC   C4A11766   2.051  39.963   7.648
  670POPC   C1B11767   1.549  39.821   8.763
  670POPC   C2B11768   1.719  39.835   8.346
  670POPC   C3B11769   1.647  39.817   7.903
  670POPC   C4B11770   1.622  39.747   7.441
  671POPC   NC311771  35.935  38.789   9.347
  671POPC   PO411772  36.477  39.150   9.459
  671POPC   GL111773  36.268  39.377   9.160
  671POPC   GL211774  35.944  39.248   9.114
  671POPC   C1A11775  36.287  39.498   8.736
  671POPC   D2A11776  36.511  39.263   8.440
  671POPC   C3A11777  36.447  39.376   8.042
  671POPC   C4A11778  36.468  39.023   7.774
  671POPC   C1B11779  36.063  39.034   8.722
  671POPC   C2B11780  36.033  39.168   8.273
  671POPC   C3B11781  36.005  39.204   7.822
  671POPC   C4B11782  35.862  39.399   7.462
  672POPC   NC311783  44.045  38.217   9.203
  672POPC   PO411784  43.773  38.706   9.688
  672POPC   GL111785  43.808  38.688   9.195
  672POPC   GL211786  43.648  38.564   8.891
  672POPC   C1A11787  44.126  38.714   8.800
  672POPC   D2A11788  44.117  38.396   8.438
  672POPC   C3A11789  44.128  38.497   7.980
  672POPC   C4A11790  44.136  38.344   7.539
  672POPC   C1B11791  43.637  38.179   8.614
  672POPC   C2B11792  43.622  38.090   8.155
  672POPC   C3B11793  43.677  38.351   7.827
  672POPC   C4B11794  43.589  38.793   7.905
  673POPC   NC311795  14.953   8.399   9.541
  673POPC   PO411796  14.899   7.750   9.756
  673POPC   GL111797  14.955   7.884   9.273
  673POPC   GL211798  15.238   8.131   9.197
  673POPC   C1A11799  15.051   7.906   8.788
  673POPC   D2A11800  15.234   7.972   8.381
  673POPC   C3A11801  14.999   7.939   8.017
  673POPC   C4A11802  14.784   8.155   7.695
  673POPC   C1B11803  15.311   8.369   8.786
  673POPC   C2B11804  15.268   8.538   8.356
  673POPC   C3B11805  15.225   8.399   7.962
  673POPC   C4B11806  15.547   8.100   7.855
  674POPC   NC311807  16.140  23.781   9.853
  674POPC   PO411808  16.485  23.363   9.378
  674POPC   GL111809  16.676  23.654   9.034
  674POPC   GL211810  16.968  23.922   9.054
  674POPC   C1A11811  16.867  23.704   8.618
  674POPC   D2A11812  16.790  23.961   8.302
  674POPC   C3A11813  16.667  23.733   7.982
  674POPC   C4A11814  16.975  23.644   7.701
  674POPC   C1B11815  16.543  24.083   8.791
  674POPC   C2B11816  16.395  24.280   8.395
  674POPC   C3B11817  16.581  24.279   7.953
  674POPC   C4B11818  16.594  24.010   7.563
  675POPC   NC311819  27.710  13.769   9.467
  675POPC   PO411820  27.313  13.119   9.499
  675POPC   GL111821  27.430  13.335   9.134
  675POPC   GL211822  27.779  13.456   9.080
  675POPC   C1A11823  27.189  13.514   8.797
  675POPC   D2A11824  27.259  13.809   8.457
  675POPC   C3A11825  27.431  13.611   8.088
  675POPC   C4A11826  27.615  13.841   7.756
  675POPC   C1B11827  27.693  13.601   8.671
  675POPC   C2B11828  27.841  13.382   8.323
  675POPC   C3B11829  28.001  13.433   7.925
  675POPC   C4B11830  28.035  13.687   7.537
  676POPC   NC311831  14.784  12.868   9.443
  676POPC   PO411832  15.433  12.981   9.414
  676POPC   GL111833  15.169  12.941   9.107
  676POPC   GL211834  14.994  13.244   9.072
  676POPC   C1A11835  15.150  12.831   8.719
  676POPC   D2A11836  14.979  12.983   8.387
  676POPC   C3A11837  15.138  12.688   8.099
  676POPC   C4A11838  14.940  12.470   7.785
  676POPC   C1B11839  15.329  13.303   8.733
  676POPC   C2B11840  15.476  13.072   8.347
  676POPC   C3B11841  15.226  13.174   7.960
  676POPC   C4B11842  15.289  13.385   7.527
  677POPC   NC311843  27.128  16.923   9.490
  677POPC   PO411844  27.770  16.738   9.622
  677POPC   GL111845  27.586  16.882   9.249
  677POPC   GL211846  27.469  16.536   9.194
  677POPC   C1A11847  27.378  16.869   8.834
  677POPC   D2A11848  27.453  16.533   8.519
  677POPC   C3A11849  27.486  16.713   8.127
  677POPC   C4A11850  27.379  16.885   7.772
  677POPC   C1B11851  27.258  16.229   8.890
  677POPC   C2B11852  27.060  16.152   8.477
  677POPC   C3B11853  27.238  16.191   8.073
  677POPC   C4B11854  27.368  16.270   7.655
  678POPC   NC311855  20.653  41.132   9.973
  678POPC   PO411856  20.587  41.769   9.534
  678POPC   GL111857  20.580  41.647   9.143
  678POPC   GL211858  20.416  41.352   9.219
  678POPC   C1A11859  20.526  41.660   8.716
  678POPC   D2A11860  20.326  41.725   8.344
  678POPC   C3A11861  20.580  41.709   8.001
  678POPC   C4A11862  20.416  41.598   7.610
  678POPC   C1B11863  20.560  41.183   8.851
  678POPC   C2B11864  20.497  41.230   8.415
  678POPC   C3B11865  20.707  41.218   8.001
  678POPC   C4B11866  20.822  41.275   7.574
  679POPC   NC311867  23.040  32.008   9.419
  679POPC   PO411868  22.378  31.844   9.436
  679POPC   GL111869  22.621  32.072   9.108
  679POPC   GL211870  22.619  32.430   9.127
  679POPC   C1A11871  22.829  32.207   8.702
  679POPC   D2A11872  23.189  32.415   8.443
  679POPC   C3A11873  23.141  32.415   7.957
  679POPC   C4A11874  23.012  32.047   7.686
  679POPC   C1B11875  22.340  32.423   8.769
  679POPC   C2B11876  22.358  32.216   8.371
  679POPC   C3B11877  22.629  32.268   8.009
  679POPC   C4B11878  22.726  32.463   7.597
  680POPC   NC311879  16.766   7.860   9.541
  680POPC   PO411880  16.978   8.488   9.607
  680POPC   GL111881  16.753   8.298   9.262
  680POPC   GL211882  16.998   8.077   9.136
  680POPC   C1A11883  16.558   8.244   8.850
  680POPC   D2A11884  16.282   8.312   8.496
  680POPC   C3A11885  16.487   8.345   8.070
  680POPC   C4A11886  16.523   8.275   7.621
  680POPC   C1B11887  17.047   8.343   8.787
  680POPC   C2B11888  16.918   8.406   8.365
  680POPC   C3B11889  16.996   8.479   7.923
  680POPC   C4B11890  17.369   8.492   7.653
  681POPC   NC311891   9.156   6.272   9.520
  681POPC   PO411892   8.800   5.649   9.483
  681POPC   GL111893   8.885   5.656   9.077
  681POPC   GL211894   8.537   5.647   9.034
  681POPC   C1A11895   9.126   5.613   8.713
  681POPC   D2A11896   9.340   5.904   8.450
  681POPC   C3A11897   9.279   5.748   8.047
  681POPC   C4A11898   9.092   5.877   7.701
  681POPC   C1B11899   8.583   5.983   8.759
  681POPC   C2B11900   8.830   5.941   8.403
  681POPC   C3B11901   8.681   5.837   8.017
  681POPC   C4B11902   8.635   6.131   7.716
  682POPC   NC311903  31.156  42.389   9.848
  682POPC   PO411904  30.630  42.080   9.571
  682POPC   GL111905  30.709  42.372   9.192
  682POPC   GL211906  31.049  42.564   9.155
  682POPC   C1A11907  30.863  42.246   8.763
  682POPC   D2A11908  30.975  42.161   8.310
  682POPC   C3A11909  30.717  42.187   7.916
  682POPC   C4A11910  30.381  42.384   7.666
  682POPC   C1B11911  30.776  42.747   8.828
  682POPC   C2B11912  30.733  42.633   8.452
  682POPC   C3B11913  30.904  42.634   8.081
  682POPC   C4B11914  30.800  42.718   7.696
  683POPC   NC311915  30.519  15.943   9.553
  683POPC   PO411916  31.114  15.680   9.302
  683POPC   GL111917  30.784  15.907   9.126
  683POPC   GL211918  30.599  15.589   9.110
  683POPC   C1A11919  30.587  16.138   8.789
  683POPC   D2A11920  30.474  16.036   8.373
  683POPC   C3A11921  30.761  16.052   8.019
  683POPC   C4A11922  30.507  15.812   7.801
  683POPC   C1B11923  30.734  15.645   8.666
  683POPC   C2B11924  30.741  15.550   8.200
  683POPC   C3B11925  30.985  15.598   7.805
  683POPC   C4B11926  31.092  15.502   7.348
  684POPC   NC311927  26.500  43.902  10.103
  684POPC   PO411928  26.828  43.624   9.600
  684POPC   GL111929  26.761  43.970   9.260
  684POPC   GL211930  26.627  44.329   9.216
  684POPC   C1A11931  26.948  44.125   8.856
  684POPC   D2A11932  26.753  44.015   8.434
  684POPC   C3A11933  26.931  43.889   8.035
  684POPC   C4A11934  26.893  43.887   7.561
  684POPC   C1B11935  26.509  44.335   8.760
  684POPC   C2B11936  26.433  44.394   8.294
  684POPC   C3B11937  26.565  44.226   7.864
  684POPC   C4B11938  26.523  44.202   7.413
  685POPC   NC311939  23.166  28.587   9.572
  685POPC   PO411940  22.819  28.063   9.566
  685POPC   GL111941  22.817  28.360   9.225
  685POPC   GL211942  23.167  28.262   9.186
  685POPC   C1A11943  22.864  28.473   8.783
  685POPC   D2A11944  23.090  28.548   8.379
  685POPC   C3A11945  22.851  28.466   8.022
  685POPC   C4A11946  22.760  28.523   7.608
  685POPC   C1B11947  23.338  28.289   8.789
  685POPC   C2B11948  23.467  28.205   8.379
  685POPC   C3B11949  23.259  28.144   8.000
  685POPC   C4B11950  23.374  28.043   7.584
  686POPC   NC311951  19.716  39.959   9.534
  686POPC   PO411952  19.543  40.513   9.321
  686POPC   GL111953  19.673  40.166   9.082
  686POPC   GL211954  20.046  40.104   9.151
  686POPC   C1A11955  19.501  39.852   8.834
  686POPC   D2A11956  19.516  40.083   8.459
  686POPC   C3A11957  19.575  39.875   8.109
  686POPC   C4A11958  19.590  40.058   7.732
  686POPC   C1B11959  19.979  39.973   8.700
  686POPC   C2B11960  20.053  39.686   8.356
  686POPC   C3B11961  20.036  39.735   7.894
  686POPC   C4B11962  20.104  40.127   7.715
  687POPC   NC311963  32.705  42.499   9.495
  687POPC   PO411964  33.041  41.925   9.561
  687POPC   GL111965  32.878  42.102   9.196
  687POPC   GL211966  33.101  42.366   9.125
  687POPC   C1A11967  32.919  42.115   8.744
  687POPC   D2A11968  32.775  42.102   8.334
  687POPC   C3A11969  33.013  42.023   7.954
  687POPC   C4A11970  32.857  42.143   7.546
  687POPC   C1B11971  33.121  42.606   8.710
  687POPC   C2B11972  32.996  42.584   8.255
  687POPC   C3B11973  33.114  42.503   7.819
  687POPC   C4B11974  33.442  42.599   7.447
  688POPC   NC311975  35.484  33.421   9.709
  688POPC   PO411976  35.585  34.096   9.481
  688POPC   GL111977  35.454  34.012   9.026
  688POPC   GL211978  35.577  33.668   8.877
  688POPC   C1A11979  35.217  33.944   8.626
  688POPC   D2A11980  35.292  33.951   8.190
  688POPC   C3A11981  34.948  33.959   7.906
  688POPC   C4A11982  34.932  33.608   7.621
  688POPC   C1B11983  35.726  33.847   8.501
  688POPC   C2B11984  35.741  33.646   8.101
  688POPC   C3B11985  35.661  33.569   7.732
  688POPC   C4B11986  35.386  33.874   7.687
  689POPC   NC311987  37.253  20.958   9.489
  689POPC   PO411988  37.910  21.154   9.526
  689POPC   GL111989  37.839  21.112   9.096
  689POPC   GL211990  37.537  21.262   9.166
  689POPC   C1A11991  37.812  21.180   8.628
  689POPC   D2A11992  37.940  21.538   8.393
  689POPC   C3A11993  37.901  21.529   7.968
  689POPC   C4A11994  37.768  21.154   7.734
  689POPC   C1B11995  37.348  21.218   8.833
  689POPC   C2B11996  37.371  21.348   8.416
  689POPC   C3B11997  37.379  21.113   8.056
  689POPC   C4B11998  37.207  21.084   7.651
  690POPC   NC311999  32.259  24.030   9.641
  690POPC   PO412000  32.619  23.512   9.434
  690POPC   GL112001  32.298  23.754   9.150
  690POPC   GL212002  31.938  23.738   9.117
  690POPC   C1A12003  32.248  23.881   8.722
  690POPC   D2A12004  32.340  23.655   8.330
  690POPC   C3A12005  32.195  23.813   7.922
  690POPC   C4A12006  32.281  23.786   7.477
  690POPC   C1B12007  31.937  23.478   8.678
  690POPC   C2B12008  31.938  23.338   8.199
  690POPC   C3B12009  31.916  23.421   7.734
  690POPC   C4B12010  31.742  23.813   7.538
  691POPC   NC312011  27.905  30.258   9.661
  691POPC   PO412012  27.543  29.638   9.406
  691POPC   GL112013  27.790  29.775   9.041
  691POPC   GL212014  27.890  30.089   9.176
  691POPC   C1A12015  27.972  29.488   8.728
  691POPC   D2A12016  27.762  29.443   8.323
  691POPC   C3A12017  27.564  29.797   8.119
  691POPC   C4A12018  27.166  29.822   7.886
  691POPC   C1B12019  27.815  30.200   8.736
  691POPC   C2B12020  27.758  30.286   8.293
  691POPC   C3B12021  27.921  30.154   7.913
  691POPC   C4B12022  27.968  30.157   7.481
  692POPC   NC312023  23.123  44.517   9.433
  692POPC   PO412024  22.478  44.709   9.536
  692POPC   GL112025  22.627  44.592   9.098
  692POPC   GL212026  22.986  44.518   8.958
  692POPC   C1A12027  22.598  44.479   8.659
  692POPC   D2A12028  23.013  44.483   8.407
  692POPC   C3A12029  22.855  44.552   7.999
  692POPC   C4A12030  22.784  44.732   7.571
  692POPC   C1B12031  22.905  44.869   8.699
  692POPC   C2B12032  23.031   0.008   8.314
  692POPC   C3B12033  22.926   0.058   7.914
  692POPC   C4B12034  23.250  44.995   7.606
  693POPC   NC312035  33.271  31.029   9.479
  693POPC   PO412036  32.741  30.597   9.398
  693POPC   GL112037  32.922  30.894   9.097
  693POPC   GL212038  33.228  30.725   9.060
  693POPC   C1A12039  32.971  30.807   8.638
  693POPC   D2A12040  32.728  30.700   8.302
  693POPC   C3A12041  32.779  30.967   7.959
  693POPC   C4A12042  33.104  30.974   7.661
  693POPC   C1B12043  33.307  30.402   8.756
  693POPC   C2B12044  33.109  30.351   8.382
  693POPC   C3B12045  33.197  30.660   8.079
  693POPC   C4B12046  33.410  30.485   7.765
  694POPC   NC312047  37.983  20.694   9.571
  694POPC   PO412048  37.383  20.500   9.459
  694POPC   GL112049  37.655  20.641   9.181
  694POPC   GL212050  37.896  20.375   9.140
  694POPC   C1A12051  37.620  20.736   8.775
  694POPC   D2A12052  37.326  20.835   8.492
  694POPC   C3A12053  37.319  20.548   8.171
  694POPC   C4A12054  37.414  20.652   7.784
  694POPC   C1B12055  38.114  20.697   8.900
  694POPC   C2B12056  38.042  20.739   8.486
  694POPC   C3B12057  37.762  20.766   8.173
  694POPC   C4B12058  37.913  20.680   7.763
  695POPC   NC312059  29.724   3.771   9.305
  695POPC   PO412060  29.882   4.427   9.492
  695POPC   GL112061  29.882   4.349   9.070
  695POPC   GL212062  29.592   4.173   9.043
  695POPC   C1A12063  30.186   4.218   8.752
  695POPC   D2A12064  30.107   4.154   8.330
  695POPC   C3A12065  29.986   4.454   8.041
  695POPC   C4A12066  30.140   4.232   7.680
  695POPC   C1B12067  29.697   4.127   8.639
  695POPC   C2B12068  29.765   3.774   8.358
  695POPC   C3B12069  29.824   3.917   7.969
  695POPC   C4B12070  29.651   4.030   7.632
  696POPC   NC312071  44.160   0.146   9.426
  696POPC   PO412072  43.691   0.605   9.627
  696POPC   GL112073  44.016   0.710   9.211
  696POPC   GL212074  44.187   0.477   9.079
  696POPC   C1A12075  44.047   0.687   8.676
  696POPC   D2A12076  44.099   0.752   8.270
  696POPC   C3A12077  43.767   0.532   8.000
  696POPC   C4A12078  43.693   0.120   7.801
  696POPC   C1B12079  44.253   0.152   8.771
  696POPC   C2B12080  44.203   0.247   8.331
  696POPC   C3B12081  44.191   0.285   7.891
  696POPC   C4B12082  44.080   0.199   7.473
  697POPC   NC312083  39.567   4.120   9.482
  697POPC   PO412084  38.862   4.118   9.615
  697POPC   GL112085  39.136   4.180   9.219
  697POPC   GL212086  39.396   4.465   9.153
  697POPC   C1A12087  39.249   4.178   8.785
  697POPC   D2A12088  39.047   4.197   8.425
  697POPC   C3A12089  39.228   4.031   8.057
  697POPC   C4A12090  39.288   4.247   7.691
  697POPC   C1B12091  39.702   4.677   8.857
  697POPC   C2B12092  39.750   4.901   8.446
  697POPC   C3B12093  39.676   4.621   8.059
  697POPC   C4B12094  39.466   4.714   7.650
  698POPC   NC312095  21.798   8.387   9.517
  698POPC   PO412096  22.464   8.318   9.543
  698POPC   GL112097  22.245   8.234   9.155
  698POPC   GL212098  21.926   8.392   9.039
  698POPC   C1A12099  22.375   8.049   8.775
  698POPC   D2A12100  22.560   8.078   8.362
  698POPC   C3A12101  22.300   8.056   7.955
  698POPC   C4A12102  22.177   8.363   7.655
  698POPC   C1B12103  21.851   8.060   8.770
  698POPC   C2B12104  22.033   8.129   8.381
  698POPC   C3B12105  21.829   8.270   8.003
  698POPC   C4B12106  21.761   8.059   7.600
  699POPC   NC312107  14.781  21.744   9.409
  699POPC   PO412108  14.260  22.207   9.611
  699POPC   GL112109  14.467  22.090   9.216
  699POPC   GL212110  14.322  21.751   9.189
  699POPC   C1A12111  14.708  22.035   8.800
  699POPC   D2A12112  14.510  22.088   8.380
  699POPC   C3A12113  14.776  22.144   7.997
  699POPC   C4A12114  14.616  22.304   7.566
  699POPC   C1B12115  14.244  21.799   8.760
  699POPC   C2B12116  14.295  21.615   8.337
  699POPC   C3B12117  14.194  21.731   7.908
  699POPC   C4B12118  14.393  21.858   7.553
  700POPC   NC312119   3.868  14.985   9.387
  700POPC   PO412120   4.489  15.036   9.595
  700POPC   GL112121   4.370  15.044   9.196
  700POPC   GL212122   4.195  14.750   9.045
  700POPC   C1A12123   4.583  15.138   8.841
  700POPC   D2A12124   4.498  14.891   8.501
  700POPC   C3A12125   4.537  15.021   8.098
  700POPC   C4A12126   4.497  15.274   7.756
  700POPC   C1B12127   4.073  15.090   8.743
  700POPC   C2B12128   4.218  15.326   8.370
  700POPC   C3B12129   4.057  15.200   7.972
  700POPC   C4B12130   4.118  14.956   7.600
  701POPC   NC312131   3.897  43.464   9.450
  701POPC   PO412132   4.223  42.892   9.683
  701POPC   GL112133   4.195  43.110   9.270
  701POPC   GL212134   4.473  43.230   9.086
  701POPC   C1A12135   4.022  43.084   8.857
  701POPC   D2A12136   4.129  42.882   8.458
  701POPC   C3A12137   4.205  43.148   8.127
  701POPC   C4A12138   4.031  43.089   7.718
  701POPC   C1B12139   4.465  43.208   8.637
  701POPC   C2B12140   4.659  42.915   8.358
  701POPC   C3B12141   4.675  42.940   7.930
  701POPC   C4B12142   4.658  43.339   7.723
  702POPC   NC312143  16.261  40.990   9.418
  702POPC   PO412144  16.906  40.610   9.483
  702POPC   GL112145  16.575  40.672   9.163
  702POPC   GL212146  16.498  41.036   8.985
  702POPC   C1A12147  16.445  40.588   8.768
  702POPC   D2A12148  16.561  40.840   8.453
  702POPC   C3A12149  16.869  40.608   8.252
  702POPC   C4A12150  16.728  40.507   7.843
  702POPC   C1B12151  16.911  40.954   8.832
  702POPC   C2B12152  17.023  41.069   8.416
  702POPC   C3B12153  16.786  41.039   7.996
  702POPC   C4B12154  16.819  40.949   7.546
  703POPC   NC312155  32.696  16.782   9.609
  703POPC   PO412156  33.090  16.388   9.292
  703POPC   GL112157  33.104  16.788   9.166
  703POPC   GL212158  32.843  16.994   9.141
  703POPC   C1A12159  33.196  16.923   8.764
  703POPC   D2A12160  33.121  16.711   8.389
  703POPC   C3A12161  33.223  16.882   8.005
  703POPC   C4A12162  33.353  16.711   7.601
  703POPC   C1B12163  32.690  16.871   8.760
  703POPC   C2B12164  32.690  17.021   8.380
  703POPC   C3B12165  32.712  16.775   8.068
  703POPC   C4B12166  32.839  16.710   7.681
  704POPC   NC312167  33.738  33.513   9.541
  704POPC   PO412168  33.762  34.190   9.459
  704POPC   GL112169  33.731  33.867   9.111
  704POPC   GL212170  33.982  33.609   9.090
  704POPC   C1A12171  33.569  33.508   8.806
  704POPC   D2A12172  33.352  33.559   8.385
  704POPC   C3A12173  33.611  33.897   8.158
  704POPC   C4A12174  33.762  34.241   7.889
  704POPC   C1B12175  34.188  33.916   8.797
  704POPC   C2B12176  34.208  33.961   8.320
  704POPC   C3B12177  34.051  33.783   7.889
  704POPC   C4B12178  34.089  33.656   7.415
  705POPC   NC312179  40.387  35.980   9.534
  705POPC   PO412180  39.856  36.241   9.440
  705POPC   GL112181  39.963  36.251   9.071
  705POPC   GL212182  40.301  36.252   9.118
  705POPC   C1A12183  39.759  36.108   8.719
  705POPC   D2A12184  39.851  35.902   8.358
  705POPC   C3A12185  39.942  36.053   7.967
  705POPC   C4A12186  40.319  35.813   7.832
  705POPC   C1B12187  40.357  36.534   8.806
  705POPC   C2B12188  40.525  36.493   8.415
  705POPC   C3B12189  40.412  36.294   8.036
  705POPC   C4B12190  40.254  36.253   7.606
  706POPC   NC312191  36.527  19.115   9.502
  706POPC   PO412192  37.135  18.745   9.458
  706POPC   GL112193  36.875  18.907   9.096
  706POPC   GL212194  36.494  18.889   9.066
  706POPC   C1A12195  36.999  19.123   8.696
  706POPC   D2A12196  36.844  19.006   8.261
  706POPC   C3A12197  37.092  19.194   7.976
  706POPC   C4A12198  37.246  19.073   7.593
  706POPC   C1B12199  36.536  18.955   8.670
  706POPC   C2B12200  36.604  19.400   8.470
  706POPC   C3B12201  36.624  19.433   8.027
  706POPC   C4B12202  36.484  19.101   7.714
  707POPC   NC312203   6.816  35.765   9.401
  707POPC   PO412204   6.355  35.287   9.430
  707POPC   GL112205   6.548  35.411   9.071
  707POPC   GL212206   6.848  35.223   9.073
  707POPC   C1A12207   6.550  35.571   8.667
  707POPC   D2A12208   6.462  35.833   8.300
  707POPC   C3A12209   6.651  35.664   7.939
  707POPC   C4A12210   6.888  35.302   7.825
  707POPC   C1B12211   6.742  35.037   8.631
  707POPC   C2B12212   6.545  35.238   8.247
  707POPC   C3B12213   6.377  35.248   7.809
  707POPC   C4B12214   6.243  35.137   7.362
  708POPC   NC312215  38.341  38.170   9.622
  708POPC   PO412216  38.582  38.817   9.767
  708POPC   GL112217  38.432  38.737   9.343
  708POPC   GL212218  38.723  38.706   9.121
  708POPC   C1A12219  38.199  38.621   8.954
  708POPC   D2A12220  38.148  38.613   8.481
  708POPC   C3A12221  38.320  38.271   8.199
  708POPC   C4A12222  38.306  38.235   7.755
  708POPC   C1B12223  38.632  38.695   8.682
  708POPC   C2B12224  38.825  38.476   8.311
  708POPC   C3B12225  38.712  38.540   7.918
  708POPC   C4B12226  38.365  38.829   7.861
  709POPC   NC312227   6.865  29.094   9.344
  709POPC   PO412228   6.598  28.557   9.754
  709POPC   GL112229   6.587  28.431   9.292
  709POPC   GL212230   6.903  28.221   9.167
  709POPC   C1A12231   6.437  28.279   8.894
  709POPC   D2A12232   6.478  28.196   8.460
  709POPC   C3A12233   6.381  28.437   8.085
  709POPC   C4A12234   6.595  28.289   7.738
  709POPC   C1B12235   6.901  28.577   8.908
  709POPC   C2B12236   6.671  28.647   8.556
  709POPC   C3B12237   6.852  28.452   8.228
  709POPC   C4B12238   7.027  28.597   7.908
  710POPC   NC312239   5.981  41.938   9.468
  710POPC   PO412240   6.034  41.240   9.645
  710POPC   GL112241   6.051  41.293   9.189
  710POPC   GL212242   5.810  41.551   9.163
  710POPC   C1A12243   6.097  41.478   8.749
  710POPC   D2A12244   6.275  41.870   8.595
  710POPC   C3A12245   6.261  41.985   8.141
  710POPC   C4A12246   5.993  41.917   7.760
  710POPC   C1B12247   5.683  41.221   8.850
  710POPC   C2B12248   5.799  41.167   8.427
  710POPC   C3B12249   5.766  41.430   8.078
  710POPC   C4B12250   5.911  41.398   7.687
  711POPC   NC312251  17.211  10.677   9.617
  711POPC   PO412252  17.900  10.568   9.553
  711POPC   GL112253  17.690  10.443   9.206
  711POPC   GL212254  17.360  10.484   9.179
  711POPC   C1A12255  17.658  10.651   8.802
  711POPC   D2A12256  17.467  10.704   8.403
  711POPC   C3A12257  17.800  10.664   8.121
  711POPC   C4A12258  17.889  10.762   7.733
  711POPC   C1B12259  17.142  10.516   8.785
  711POPC   C2B12260  17.036  10.382   8.394
  711POPC   C3B12261  17.287  10.264   8.051
  711POPC   C4B12262  17.615  10.336   7.766
  712POPC   NC312263  42.205  23.992   9.492
  712POPC   PO412264  42.150  24.704   9.582
  712POPC   GL112265  42.297  24.708   9.164
  712POPC   GL212266  42.321  24.337   9.136
  712POPC   C1A12267  42.123  24.601   8.733
  712POPC   D2A12268  41.881  24.673   8.339
  712POPC   C3A12269  42.148  24.644   7.974
  712POPC   C4A12270  42.513  24.880   7.834
  712POPC   C1B12271  42.561  24.314   8.760
  712POPC   C2B12272  42.434  24.415   8.353
  712POPC   C3B12273  42.569  24.347   7.964
  712POPC   C4B12274  42.471  24.419   7.526
  713POPC   NC312275  18.181  22.949   9.631
  713POPC   PO412276  18.355  23.531   9.410
  713POPC   GL112277  18.265  23.161   9.186
  713POPC   GL212278  17.936  23.186   9.245
  713POPC   C1A12279  18.178  22.824   8.892
  713POPC   D2A12280  18.185  22.604   8.466
  713POPC   C3A12281  18.405  22.762   8.141
  713POPC   C4A12282  18.445  22.799   7.677
  713POPC   C1B12283  17.860  23.238   8.811
  713POPC   C2B12284  18.022  23.097   8.409
  713POPC   C3B12285  17.971  23.000   7.955
  713POPC   C4B12286  18.089  23.173   7.536
  714POPC   NC312287  22.337  15.959   9.643
  714POPC   PO412288  21.661  15.811   9.770
  714POPC   GL112289  21.863  15.929   9.297
  714POPC   GL212290  22.224  15.931   9.137
  714POPC   C1A12291  21.882  15.942   8.767
  714POPC   D2A12292  22.114  16.132   8.372
  714POPC   C3A12293  22.241  15.889   7.979
  714POPC   C4A12294  22.057  15.849   7.561
  714POPC   C1B12295  22.482  16.173   8.803
  714POPC   C2B12296  22.599  16.435   8.421
  714POPC   C3B12297  22.548  16.307   7.982
  714POPC   C4B12298  22.507  16.106   7.549
  715POPC   NC312299  32.775  43.246   9.476
  715POPC   PO412300  33.204  42.666   9.513
  715POPC   GL112301  32.976  42.865   9.189
  715POPC   GL212302  33.200  43.162   9.214
  715POPC   C1A12303  32.806  43.041   8.807
  715POPC   D2A12304  32.647  42.955   8.413
  715POPC   C3A12305  32.856  43.138   8.075
  715POPC   C4A12306  33.126  42.989   7.773
  715POPC   C1B12307  33.321  43.073   8.813
  715POPC   C2B12308  33.237  43.032   8.388
  715POPC   C3B12309  33.347  43.343   8.060
  715POPC   C4B12310  33.498  43.346   7.634
  716POPC   NC312311  13.296   8.981   9.430
  716POPC   PO412312  12.711   9.252   9.535
  716POPC   GL112313  12.812   8.940   9.191
  716POPC   GL212314  13.063   8.646   9.146
  716POPC   C1A12315  12.711   8.813   8.772
  716POPC   D2A12316  12.533   8.802   8.360
  716POPC   C3A12317  12.786   9.096   8.160
  716POPC   C4A12318  13.102   9.087   7.875
  716POPC   C1B12319  13.213   8.672   8.721
  716POPC   C2B12320  13.026   8.606   8.302
  716POPC   C3B12321  12.818   8.660   7.901
  716POPC   C4B12322  13.030   8.604   7.488
  717POPC   NC312323  11.205  44.811   9.572
  717POPC   PO412324  11.551  44.285   9.857
  717POPC   GL112325  11.581  44.573   9.346
  717POPC   GL212326  11.334  44.770   9.110
  717POPC   C1A12327  11.456  44.418   8.809
  717POPC   D2A12328  11.141  44.419   8.440
  717POPC   C3A12329  11.308  44.628   8.097
  717POPC   C4A12330  11.529  44.484   7.753
  717POPC   C1B12331  11.155  44.847   8.724
  717POPC   C2B12332  10.954  44.943   8.354
  717POPC   C3B12333  11.141   0.105   8.004
  717POPC   C4B12334  11.264  44.903   7.633
  718POPC   NC312335  15.948  35.897   9.434
  718POPC   PO412336  15.487  36.359   9.345
  718POPC   GL112337  15.862  36.312   9.119
  718POPC   GL212338  15.727  36.017   8.988
  718POPC   C1A12339  16.120  36.228   8.752
  718POPC   D2A12340  15.990  36.251   8.321
  718POPC   C3A12341  16.295  36.295   7.998
  718POPC   C4A12342  16.364  36.099   7.631
  718POPC   C1B12343  15.521  35.790   8.662
  718POPC   C2B12344  15.434  35.818   8.227
  718POPC   C3B12345  15.653  36.044   7.927
  718POPC   C4B12346  15.973  35.816   7.700
  719POPC   NC312347  16.996  37.889   9.475
  719POPC   PO412348  16.567  37.458   9.497
  719POPC   GL112349  16.620  37.429   9.083
  719POPC   GL212350  16.650  37.778   9.095
  719POPC   C1A12351  16.811  37.462   8.668
  719POPC   D2A12352  16.971  37.546   8.276
  719POPC   C3A12353  16.751  37.335   7.926
  719POPC   C4A12354  16.817  37.247   7.483
  719POPC   C1B12355  16.709  37.961   8.723
  719POPC   C2B12356  16.593  37.923   8.337
  719POPC   C3B12357  16.766  37.893   7.960
  719POPC   C4B12358  16.706  37.761   7.585
  720POPC   NC312359  25.805  18.994   9.561
  720POPC   PO412360  26.448  19.193   9.472
  720POPC   GL112361  26.182  18.923   9.174
  720POPC   GL212362  25.790  18.858   9.077
  720POPC   C1A12363  26.192  18.994   8.739
  720POPC   D2A12364  25.996  19.122   8.363
  720POPC   C3A12365  26.242  19.053   7.993
  720POPC   C4A12366  26.158  19.242   7.563
  720POPC   C1B12367  25.526  18.866   8.692
  720POPC   C2B12368  25.601  18.843   8.241
  720POPC   C3B12369  25.760  18.982   7.824
  720POPC   C4B12370  25.816  18.924   7.345
  721POPC   NC312371   8.243  13.248   9.517
  721POPC   PO412372   8.017  13.861   9.476
  721POPC   GL112373   8.247  13.862   9.119
  721POPC   GL212374   8.164  13.530   9.095
  721POPC   C1A12375   8.243  13.770   8.672
  721POPC   D2A12376   8.317  13.930   8.311
  721POPC   C3A12377   8.306  13.682   7.961
  721POPC   C4A12378   8.371  13.894   7.604
  721POPC   C1B12379   8.016  13.314   8.738
  721POPC   C2B12380   8.135  13.398   8.343
  721POPC   C3B12381   7.967  13.269   7.992
  721POPC   C4B12382   8.117  13.187   7.627
  722POPC   NC312383  22.665  15.326   9.430
  722POPC   PO412384  23.328  15.387   9.525
  722POPC   GL112385  23.120  15.117   9.177
  722POPC   GL212386  22.772  14.923   9.144
  722POPC   C1A12387  22.960  15.246   8.761
  722POPC   D2A12388  22.997  15.502   8.385
  722POPC   C3A12389  23.148  15.244   8.065
  722POPC   C4A12390  23.087  15.114   7.655
  722POPC   C1B12391  22.492  15.017   8.777
  722POPC   C2B12392  22.525  15.307   8.415
  722POPC   C3B12393  22.646  15.223   7.979
  722POPC   C4B12394  22.579  14.981   7.573
  723POPC   NC312395  40.791   5.471   9.436
  723POPC   PO412396  40.521   4.838   9.491
  723POPC   GL112397  40.702   5.026   9.128
  723POPC   GL212398  41.029   4.928   9.050
  723POPC   C1A12399  40.641   5.308   8.763
  723POPC   D2A12400  40.673   5.432   8.334
  723POPC   C3A12401  40.616   5.104   8.072
  723POPC   C4A12402  40.417   5.068   7.706
  723POPC   C1B12403  41.142   5.193   8.772
  723POPC   C2B12404  40.984   5.031   8.432
  723POPC   C3B12405  41.126   5.002   8.048
  723POPC   C4B12406  41.177   5.140   7.662
  724POPC   NC312407  44.198  28.863   9.283
  724POPC   PO412408  43.929  29.390   9.611
  724POPC   GL112409  43.819  29.310   9.214
  724POPC   GL212410  43.721  28.972   9.075
  724POPC   C1A12411  43.985  29.311   8.831
  724POPC   D2A12412  43.925  29.369   8.446
  724POPC   C3A12413  43.996  29.059   8.162
  724POPC   C4A12414  44.202  28.905   7.818
  724POPC   C1B12415  43.734  28.923   8.646
  724POPC   C2B12416  43.498  29.138   8.326
  724POPC   C3B12417  43.584  29.232   7.895
  724POPC   C4B12418  43.688  28.881   7.623
  725POPC   NC312419  38.911  20.506   9.249
  725POPC   PO412420  38.414  20.749   9.714
  725POPC   GL112421  38.430  20.818   9.292
  725POPC   GL212422  38.404  20.453   9.259
  725POPC   C1A12423  38.575  20.923   8.864
  725POPC   D2A12424  38.537  20.640   8.542
  725POPC   C3A12425  38.526  20.790   8.156
  725POPC   C4A12426  38.807  20.807   7.797
  725POPC   C1B12427  38.391  20.247   8.854
  725POPC   C2B12428  38.197  20.211   8.463
  725POPC   C3B12429  38.140  20.405   8.115
  725POPC   C4B12430  38.420  20.458   7.793
  726POPC   NC312431   6.436  24.882   9.312
  726POPC   PO412432   6.489  24.262   9.487
  726POPC   GL112433   6.720  24.236   9.113
  726POPC   GL212434   6.852  24.565   9.159
  726POPC   C1A12435   6.606  24.243   8.697
  726POPC   D2A12436   6.622  24.483   8.294
  726POPC   C3A12437   6.628  24.100   8.010
  726POPC   C4A12438   6.555  24.093   7.606
  726POPC   C1B12439   6.782  24.729   8.740
  726POPC   C2B12440   6.787  24.983   8.357
  726POPC   C3B12441   6.526  24.919   7.980
  726POPC   C4B12442   6.615  24.563   7.778
  727POPC   NC312443  11.681  17.953   9.472
  727POPC   PO412444  11.496  17.347   9.645
  727POPC   GL112445  11.356  17.559   9.238
  727POPC   GL212446  11.163  17.890   9.198
  727POPC   C1A12447  11.139  17.432   8.834
  727POPC   D2A12448  11.144  17.200   8.427
  727POPC   C3A12449  11.407  17.395   8.079
  727POPC   C4A12450  11.499  17.670   7.704
  727POPC   C1B12451  10.968  17.918   8.777
  727POPC   C2B12452  10.955  17.693   8.401
  727POPC   C3B12453  11.011  17.752   7.997
  727POPC   C4B12454  11.048  17.840   7.618
  728POPC   NC312455   4.080  13.303   9.289
  728POPC   PO412456   4.672  13.487   9.571
  728POPC   GL112457   4.558  13.669   9.181
  728POPC   GL212458   4.232  13.784   9.095
  728POPC   C1A12459   4.648  13.957   8.846
  728POPC   D2A12460   4.368  13.928   8.508
  728POPC   C3A12461   4.540  14.002   8.124
  728POPC   C4A12462   4.293  14.114   7.796
  728POPC   C1B12463   4.343  13.493   8.745
  728POPC   C2B12464   4.158  13.371   8.373
  728POPC   C3B12465   4.248  13.575   8.001
  728POPC   C4B12466   4.019  13.651   7.647
  729POPC   NC312467  23.288  13.470   9.440
  729POPC   PO412468  22.829  13.961   9.520
  729POPC   GL112469  22.940  13.725   9.152
  729POPC   GL212470  22.628  13.585   8.988
  729POPC   C1A12471  23.066  13.536   8.756
  729POPC   D2A12472  23.147  13.662   8.340
  729POPC   C3A12473  22.985  13.444   8.016
  729POPC   C4A12474  23.130  13.302   7.654
  729POPC   C1B12475  22.718  13.968   8.766
  729POPC   C2B12476  22.815  14.080   8.398
  729POPC   C3B12477  22.819  13.916   8.000
  729POPC   C4B12478  22.538  13.958   7.690
  730POPC   NC312479  21.924  31.787   9.545
  730POPC   PO412480  22.088  31.133   9.432
  730POPC   GL112481  22.253  31.412   9.079
  730POPC   GL212482  21.995  31.626   9.078
  730POPC   C1A12483  22.347  31.328   8.671
  730POPC   D2A12484  22.024  31.192   8.409
  730POPC   C3A12485  22.021  31.381   8.025
  730POPC   C4A12486  22.072  31.292   7.639
  730POPC   C1B12487  21.752  31.931   8.845
  730POPC   C2B12488  21.823  32.128   8.443
  730POPC   C3B12489  21.850  31.936   8.054
  730POPC   C4B12490  21.910  31.768   7.677
  731POPC   NC312491   8.581  15.120   9.468
  731POPC   PO412492   9.111  15.443   9.747
  731POPC   GL112493   9.122  15.355   9.264
  731POPC   GL212494   9.111  15.654   9.030
  731POPC   C1A12495   8.976  15.133   8.859
  731POPC   D2A12496   9.106  14.941   8.439
  731POPC   C3A12497   8.946  14.991   7.999
  731POPC   C4A12498   9.185  15.116   7.617
  731POPC   C1B12499   8.691  15.562   8.827
  731POPC   C2B12500   8.717  15.346   8.421
  731POPC   C3B12501   8.644  15.414   7.986
  731POPC   C4B12502   8.744  15.344   7.558
  732POPC   NC312503   5.029  10.069   9.309
  732POPC   PO412504   4.949   9.518   9.637
  732POPC   GL112505   5.008   9.344   9.238
  732POPC   GL212506   5.193   9.580   9.097
  732POPC   C1A12507   4.809   9.410   8.824
  732POPC   D2A12508   4.941   9.322   8.445
  732POPC   C3A12509   5.054   9.625   8.159
  732POPC   C4A12510   5.058   9.685   7.736
  732POPC   C1B12511   5.210   9.727   8.677
  732POPC   C2B12512   5.290  10.038   8.370
  732POPC   C3B12513   5.407   9.975   7.955
  732POPC   C4B12514   5.239  10.135   7.568
  733POPC   NC312515  44.077  16.506   9.551
  733POPC   PO412516  43.741  17.069   9.674
  733POPC   GL112517  43.750  16.953   9.268
  733POPC   GL212518  44.079  16.851   9.178
  733POPC   C1A12519  43.603  17.090   8.875
  733POPC   D2A12520  43.698  17.188   8.445
  733POPC   C3A12521  43.695  16.841   8.135
  733POPC   C4A12522  43.628  16.457   7.874
  733POPC   C1B12523  44.021  16.798   8.706
  733POPC   C2B12524  44.187  16.694   8.265
  733POPC   C3B12525  44.124  16.690   7.785
  733POPC   C4B12526  44.299  16.512   7.374
  734POPC   NC312527  38.113  30.860   9.336
  734POPC   PO412528  37.537  30.749   9.686
  734POPC   GL112529  37.622  30.925   9.258
  734POPC   GL212530  37.664  30.593   9.177
  734POPC   C1A12531  37.792  30.905   8.797
  734POPC   D2A12532  37.861  30.663   8.422
  734POPC   C3A12533  37.785  30.834   8.004
  734POPC   C4A12534  37.927  30.856   7.575
  734POPC   C1B12535  37.459  30.514   8.768
  734POPC   C2B12536  37.495  30.313   8.353
  734POPC   C3B12537  37.646  30.344   7.913
  734POPC   C4B12538  37.613  30.494   7.465
  735POPC   NC312539   0.374  18.866   9.682
  735POPC   PO412540   0.783  19.401   9.395
  735POPC   GL112541   0.435  19.143   9.173
  735POPC   GL212542   0.254  19.384   8.967
  735POPC   C1A12543   0.242  18.898   8.787
  735POPC   D2A12544   0.071  18.778   8.377
  735POPC   C3A12545   0.353  18.753   8.007
  735POPC   C4A12546   0.299  18.577   7.596
  735POPC   C1B12547   0.599  19.258   8.683
  735POPC   C2B12548   0.557  19.214   8.238
  735POPC   C3B12549   0.386  19.533   7.997
  735POPC   C4B12550   0.356  19.513   7.577
  736POPC   NC312551  27.826  33.727   9.390
  736POPC   PO412552  28.270  33.307   9.653
  736POPC   GL112553  28.284  33.547   9.221
  736POPC   GL212554  28.034  33.718   8.955
  736POPC   C1A12555  28.514  33.721   8.894
  736POPC   D2A12556  28.342  33.664   8.495
  736POPC   C3A12557  28.356  33.982   8.197
  736POPC   C4A12558  28.491  33.840   7.803
  736POPC   C1B12559  27.869  33.483   8.659
  736POPC   C2B12560  27.708  33.668   8.307
  736POPC   C3B12561  27.865  33.558   7.918
  736POPC   C4B12562  27.998  33.963   7.821
  737POPC   NC312563   4.708   9.106   9.594
  737POPC   PO412564   5.263   8.866   9.628
  737POPC   GL112565   5.063   8.829   9.288
  737POPC   GL212566   5.299   8.610   9.137
  737POPC   C1A12567   4.945   8.931   8.912
  737POPC   D2A12568   4.788   8.813   8.530
  737POPC   C3A12569   5.043   8.935   8.166
  737POPC   C4A12570   4.897   9.199   7.818
  737POPC   C1B12571   5.330   8.669   8.705
  737POPC   C2B12572   5.502   8.810   8.354
  737POPC   C3B12573   5.376   8.617   7.956
  737POPC   C4B12574   4.931   8.706   7.735
  738POPC   NC312575  26.274  17.255   9.703
  738POPC   PO412576  25.890  17.707   9.430
  738POPC   GL112577  25.947  17.433   9.117
  738POPC   GL212578  26.283  17.423   9.199
  738POPC   C1A12579  25.932  17.498   8.676
  738POPC   D2A12580  26.089  17.808   8.361
  738POPC   C3A12581  26.053  17.626   7.933
  738POPC   C4A12582  25.782  17.673   7.568
  738POPC   C1B12583  26.466  17.511   8.806
  738POPC   C2B12584  26.343  17.363   8.405
  738POPC   C3B12585  26.518  17.322   8.023
  738POPC   C4B12586  26.478  17.552   7.668
  739POPC   NC312587   0.729  27.915   9.512
  739POPC   PO412588   0.261  28.436   9.522
  739POPC   GL112589   0.518  28.273   9.210
  739POPC   GL212590   0.275  27.998   9.222
  739POPC   C1A12591   0.682  28.323   8.804
  739POPC   D2A12592   0.548  28.134   8.458
  739POPC   C3A12593   0.533  28.390   8.111
  739POPC   C4A12594   0.494  28.515   7.701
  739POPC   C1B12595   0.179  28.171   8.816
  739POPC   C2B12596   0.044  28.119   8.348
  739POPC   C3B12597   0.093  28.210   7.907
  739POPC   C4B12598  44.787  28.178   7.565
  740POPC   NC312599   1.570  10.354   9.842
  740POPC   PO412600   2.037  10.579   9.450
  740POPC   GL112601   1.777  10.505   9.147
  740POPC   GL212602   1.581  10.812   9.171
  740POPC   C1A12603   1.968  10.345   8.770
  740POPC   D2A12604   2.288  10.503   8.466
  740POPC   C3A12605   2.079  10.396   8.092
  740POPC   C4A12606   2.007  10.467   7.671
  740POPC   C1B12607   1.785  10.842   8.774
  740POPC   C2B12608   1.657  10.940   8.368
  740POPC   C3B12609   1.760  10.816   7.982
  740POPC   C4B12610   1.580  10.774   7.602
  741POPC   NC312611   6.247  23.176   9.734
  741POPC   PO412612   6.760  22.851   9.412
  741POPC   GL112613   6.544  22.967   9.092
  741POPC   GL212614   6.345  23.283   9.167
  741POPC   C1A12615   6.707  22.836   8.715
  741POPC   D2A12616   6.623  22.953   8.319
  741POPC   C3A12617   6.230  22.990   8.153
  741POPC   C4A12618   6.497  23.083   7.803
  741POPC   C1B12619   6.567  23.355   8.734
  741POPC   C2B12620   6.943  23.321   8.460
  741POPC   C3B12621   6.955  23.211   7.999
  741POPC   C4B12622   7.003  23.374   7.548
  742POPC   NC312623  44.366  43.630   9.595
  742POPC   PO412624  44.898  43.968   9.403
  742POPC   GL112625  44.756  43.691   9.120
  742POPC   GL212626  44.411  43.809   9.111
  742POPC   C1A12627  44.770  43.786   8.679
  742POPC   D2A12628  44.882  44.130   8.393
  742POPC   C3A12629  44.731  44.079   7.954
  742POPC   C4A12630  44.568  43.703   7.779
  742POPC   C1B12631  44.265  43.938   8.705
  742POPC   C2B12632  44.367  43.888   8.255
  742POPC   C3B12633  44.210  44.060   7.849
  742POPC   C4B12634  44.195  43.883   7.418
  743POPC   NC312635   8.756  20.924   9.414
  743POPC   PO412636   9.313  20.564   9.434
  743POPC   GL112637   9.155  20.805   9.105
  743POPC   GL212638   8.860  20.565   9.054
  743POPC   C1A12639   9.084  20.785   8.670
  743POPC   D2A12640   9.072  20.461   8.419
  743POPC   C3A12641   9.066  20.568   8.014
  743POPC   C4A12642   9.008  20.446   7.617
  743POPC   C1B12643   8.593  20.638   8.707
  743POPC   C2B12644   8.580  20.469   8.276
  743POPC   C3B12645   8.569  20.605   7.840
  743POPC   C4B12646   8.537  20.532   7.373
  744POPC   NC312647  33.437  10.957   9.535
  744POPC   PO412648  32.786  11.287   9.540
  744POPC   GL112649  32.750  11.221   9.120
  744POPC   GL212650  33.111  11.131   9.152
  744POPC   C1A12651  32.709  11.411   8.697
  744POPC   D2A12652  32.910  11.184   8.402
  744POPC   C3A12653  32.797  11.107   8.028
  744POPC   C4A12654  32.973  11.268   7.708
  744POPC   C1B12655  33.005  10.892   8.806
  744POPC   C2B12656  33.244  10.807   8.440
  744POPC   C3B12657  33.276  10.937   8.025
  744POPC   C4B12658  33.173  10.802   7.647
  745POPC   NC312659  40.165  27.884   9.483
  745POPC   PO412660  40.244  27.215   9.374
  745POPC   GL112661  40.157  27.532   9.103
  745POPC   GL212662  39.819  27.657   9.163
  745POPC   C1A12663  40.170  27.566   8.683
  745POPC   D2A12664  40.248  27.370   8.292
  745POPC   C3A12665  40.192  27.645   7.978
  745POPC   C4A12666  39.838  27.737   7.731
  745POPC   C1B12667  39.727  27.342   8.835
  745POPC   C2B12668  39.726  27.487   8.400
  745POPC   C3B12669  39.792  27.293   8.002
  745POPC   C4B12670  39.673  27.243   7.569
  746POPC   NC312671  38.777   1.810   9.531
  746POPC   PO412672  39.463   2.051   9.567
  746POPC   GL112673  39.468   1.975   9.151
  746POPC   GL212674  39.103   2.045   9.188
  746POPC   C1A12675  39.338   1.771   8.745
  746POPC   D2A12676  39.355   1.584   8.307
  746POPC   C3A12677  39.431   1.856   7.923
  746POPC   C4A12678  39.327   1.805   7.464
  746POPC   C1B12679  38.997   2.195   8.814
  746POPC   C2B12680  38.790   2.191   8.420
  746POPC   C3B12681  38.905   2.310   8.022
  746POPC   C4B12682  39.152   2.252   7.650
  747POPC   NC312683  21.278  15.521   9.852
  747POPC   PO412684  21.553  14.944   9.749
  747POPC   GL112685  21.482  15.019   9.257
  747POPC   GL212686  21.229  14.918   9.149
  747POPC   C1A12687  21.521  15.232   8.817
  747POPC   D2A12688  21.616  15.300   8.353
  747POPC   C3A12689  21.393  15.418   7.978
  747POPC   C4A12690  21.561  15.218   7.628
  747POPC   C1B12691  21.551  14.743   8.851
  747POPC   C2B12692  21.414  14.845   8.451
  747POPC   C3B12693  21.420  14.896   8.008
  747POPC   C4B12694  21.209  14.791   7.621
  748POPC   NC312695   1.216  40.450   9.486
  748POPC   PO412696   1.342  39.862   9.566
  748POPC   GL112697   1.119  39.769   9.235
  748POPC   GL212698   1.075  40.108   9.125
  748POPC   C1A12699   1.047  39.686   8.825
  748POPC   D2A12700   0.904  39.765   8.441
  748POPC   C3A12701   1.187  39.877   8.137
  748POPC   C4A12702   1.182  39.709   7.745
  748POPC   C1B12703   0.918  40.239   8.695
  748POPC   C2B12704   0.865  40.329   8.254
  748POPC   C3B12705   1.052  40.303   7.846
  748POPC   C4B12706   0.932  40.471   7.439
  749POPC   NC312707  42.768  23.512   9.487
  749POPC   PO412708  42.147  23.568   9.672
  749POPC   GL112709  42.103  23.583   9.209
  749POPC   GL212710  42.450  23.619   9.074
  749POPC   C1A12711  42.089  23.883   8.841
  749POPC   D2A12712  42.361  23.929   8.508
  749POPC   C3A12713  42.253  23.973   8.086
  749POPC   C4A12714  42.404  23.817   7.703
  749POPC   C1B12715  42.386  23.447   8.641
  749POPC   C2B12716  42.473  23.512   8.181
  749POPC   C3B12717  42.450  23.302   7.767
  749POPC   C4B12718  42.531  23.359   7.334
  750POPC   NC312719   3.217  37.169   9.607
  750POPC   PO412720   3.695  37.624   9.576
  750POPC   GL112721   3.679  37.527   9.173
  750POPC   GL212722   3.341  37.424   9.158
  750POPC   C1A12723   3.766  37.377   8.769
  750POPC   D2A12724   3.517  37.507   8.419
  750POPC   C3A12725   3.455  37.297   8.029
  750POPC   C4A12726   3.672  37.322   7.614
  750POPC   C1B12727   3.285  37.755   8.839
  750POPC   C2B12728   3.315  37.978   8.430
  750POPC   C3B12729   3.248  37.824   7.999
  750POPC   C4B12730   3.100  37.894   7.561
  751POPC   NC312731  22.590  18.268   9.492
  751POPC   PO412732  23.293  18.046   9.594
  751POPC   GL112733  23.023  18.177   9.231
  751POPC   GL212734  23.040  18.553   9.156
  751POPC   C1A12735  22.916  18.014   8.817
  751POPC   D2A12736  22.623  18.126   8.482
  751POPC   C3A12737  22.854  18.091   8.098
  751POPC   C4A12738  22.729  18.023   7.682
  751POPC   C1B12739  22.828  18.522   8.804
  751POPC   C2B12740  22.972  18.512   8.413
  751POPC   C3B12741  23.172  18.649   8.085
  751POPC   C4B12742  23.088  18.402   7.750
  752POPC   NC312743  38.481  37.117   9.711
  752POPC   PO412744  38.213  37.744   9.749
  752POPC   GL112745  38.267  37.720   9.259
  752POPC   GL212746  38.613  37.723   9.119
  752POPC   C1A12747  38.231  37.804   8.782
  752POPC   D2A12748  38.221  37.614   8.355
  752POPC   C3A12749  38.400  37.738   7.937
  752POPC   C4A12750  38.344  37.450   7.559
  752POPC   C1B12751  38.719  37.615   8.657
  752POPC   C2B12752  38.779  37.454   8.200
  752POPC   C3B12753  38.833  37.535   7.757
  752POPC   C4B12754  38.777  37.428   7.312
  753POPC   NC312755  10.752  13.818   9.558
  753POPC   PO412756  10.398  14.440   9.620
  753POPC   GL112757  10.623  14.341   9.289
  753POPC   GL212758  10.988  14.370   9.307
  753POPC   C1A12759  10.516  14.414   8.898
  753POPC   D2A12760  10.559  14.643   8.542
  753POPC   C3A12761  10.494  14.487   8.125
  753POPC   C4A12762  10.363  14.136   7.898
  753POPC   C1B12763  11.016  14.309   8.853
  753POPC   C2B12764  10.776  14.137   8.538
  753POPC   C3B12765  10.823  14.098   8.115
  753POPC   C4B12766  10.885  14.297   7.763
  754POPC   NC312767  39.127   2.458   9.526
  754POPC   PO412768  38.911   3.073   9.324
  754POPC   GL112769  39.053   2.690   9.050
  754POPC   GL212770  39.376   2.487   9.084
  754POPC   C1A12771  39.246   2.694   8.598
  754POPC   D2A12772  39.487   2.940   8.241
  754POPC   C3A12773  39.185   3.022   7.900
  754POPC   C4A12774  38.927   2.721   7.723
  754POPC   C1B12775  39.493   2.262   8.727
  754POPC   C2B12776  39.383   2.234   8.293
  754POPC   C3B12777  39.439   2.530   7.946
  754POPC   C4B12778  39.393   2.671   7.512
  755POPC   NC312779  15.737  31.785   9.759
  755POPC   PO412780  15.289  31.312   9.572
  755POPC   GL112781  15.049  31.363   9.137
  755POPC   GL212782  14.875  31.685   9.047
  755POPC   C1A12783  15.137  31.402   8.700
  755POPC   D2A12784  15.173  31.199   8.349
  755POPC   C3A12785  15.350  31.320   7.989
  755POPC   C4A12786  14.943  31.321   7.859
  755POPC   C1B12787  15.113  31.899   8.693
  755POPC   C2B12788  15.316  31.725   8.314
  755POPC   C3B12789  15.233  31.804   7.880
  755POPC   C4B12790  15.445  31.974   7.519
  756POPC   NC312791   1.894  10.066   9.395
  756POPC   PO412792   1.725   9.347   9.312
  756POPC   GL112793   1.941   9.614   9.063
  756POPC   GL212794   2.262   9.666   9.176
  756POPC   C1A12795   1.954   9.767   8.653
  756POPC   D2A12796   1.969   9.551   8.266
  756POPC   C3A12797   2.079   9.878   7.986
  756POPC   C4A12798   1.830   9.917   7.649
  756POPC   C1B12799   2.396   9.548   8.778
  756POPC   C2B12800   2.437   9.722   8.378
  756POPC   C3B12801   2.410   9.492   7.998
  756POPC   C4B12802   2.398   9.677   7.570
  757POPC   NC312803  27.585  24.643   9.520
  757POPC   PO412804  27.997  24.171   9.492
  757POPC   GL112805  27.803  24.406   9.122
  757POPC   GL212806  27.416  24.322   9.161
  757POPC   C1A12807  27.534  24.635   8.788
  757POPC   D2A12808  27.479  24.487   8.366
  757POPC   C3A12809  27.814  24.502   8.037
  757POPC   C4A12810  27.606  24.523   7.631
  757POPC   C1B12811  27.540  24.120   8.763
  757POPC   C2B12812  27.531  23.986   8.316
  757POPC   C3B12813  27.426  24.166   7.932
  757POPC   C4B12814  27.394  24.066   7.490
  758POPC   NC312815  40.240  28.635   9.398
  758POPC   PO412816  39.765  28.129   9.551
  758POPC   GL112817  39.972  28.241   9.180
  758POPC   GL212818  39.787  28.493   9.115
  758POPC   C1A12819  40.168  28.116   8.791
  758POPC   D2A12820  39.960  27.939   8.403
  758POPC   C3A12821  39.869  28.146   8.048
  758POPC   C4A12822  40.205  28.123   7.774
  758POPC   C1B12823  39.983  28.612   8.763
  758POPC   C2B12824  39.806  28.578   8.378
  758POPC   C3B12825  40.002  28.648   7.996
  758POPC   C4B12826  40.283  28.611   7.661
  759POPC   NC312827  23.087  36.211   9.596
  759POPC   PO412828  22.687  35.735   9.391
  759POPC   GL112829  22.977  35.992   9.136
  759POPC   GL212830  23.306  36.186   9.138
  759POPC   C1A12831  23.101  35.941   8.712
  759POPC   D2A12832  22.798  36.006   8.376
  759POPC   C3A12833  22.993  35.994   7.976
  759POPC   C4A12834  22.896  35.672   7.672
  759POPC   C1B12835  23.321  36.418   8.762
  759POPC   C2B12836  23.188  36.336   8.353
  759POPC   C3B12837  23.309  36.511   7.973
  759POPC   C4B12838  23.238  36.459   7.523
  760POPC   NC312839   5.436  36.545   9.390
  760POPC   PO412840   5.207  37.221   9.409
  760POPC   GL112841   5.188  37.060   8.989
  760POPC   GL212842   5.201  36.679   8.972
  760POPC   C1A12843   5.040  37.263   8.607
  760POPC   D2A12844   5.009  37.340   8.158
  760POPC   C3A12845   4.813  37.047   7.854
  760POPC   C4A12846   5.094  37.053   7.529
  760POPC   C1B12847   4.950  36.760   8.644
  760POPC   C2B12848   5.079  36.811   8.223
  760POPC   C3B12849   5.076  36.618   7.807
  760POPC   C4B12850   5.089  36.555   7.328
  761POPC   NC312851  18.271   8.635   9.429
  761POPC   PO412852  18.141   9.334   9.437
  761POPC   GL112853  18.146   9.024   9.124
  761POPC   GL212854  18.519   9.135   9.066
  761POPC   C1A12855  18.190   8.893   8.691
  761POPC   D2A12856  18.473   9.154   8.444
  761POPC   C3A12857  18.522   9.219   7.996
  761POPC   C4A12858  18.449   9.305   7.546
  761POPC   C1B12859  18.668   8.762   8.848
  761POPC   C2B12860  18.521   8.580   8.465
  761POPC   C3B12861  18.523   8.703   8.071
  761POPC   C4B12862  18.309   8.616   7.722
  762POPC   NC312863  21.675  13.889   9.485
  762POPC   PO412864  21.159  13.434   9.521
  762POPC   GL112865  21.350  13.560   9.143
  762POPC   GL212866  21.249  13.907   9.176
  762POPC   C1A12867  21.149  13.513   8.717
  762POPC   D2A12868  21.322  13.328   8.364
  762POPC   C3A12869  21.145  13.413   7.982
  762POPC   C4A12870  21.345  13.254   7.661
  762POPC   C1B12871  21.366  13.954   8.761
  762POPC   C2B12872  21.370  13.822   8.332
  762POPC   C3B12873  21.241  13.909   7.927
  762POPC   C4B12874  21.243  13.793   7.505
  763POPC   NC312875  31.149  33.184   9.504
  763POPC   PO412876  31.564  32.612   9.411
  763POPC   GL112877  31.599  33.027   9.218
  763POPC   GL212878  31.292  33.021   9.056
  763POPC   C1A12879  31.663  33.260   8.808
  763POPC   D2A12880  31.707  33.042   8.433
  763POPC   C3A12881  31.605  33.230   8.055
  763POPC   C4A12882  31.590  33.035   7.672
  763POPC   C1B12883  31.026  32.886   8.740
  763POPC   C2B12884  31.033  32.722   8.346
  763POPC   C3B12885  31.231  32.874   8.008
  763POPC   C4B12886  31.111  33.177   7.711
  764POPC   NC312887  38.725  40.226   9.608
  764POPC   PO412888  38.160  39.704   9.584
  764POPC   GL112889  38.351  40.017   9.280
  764POPC   GL212890  38.709  39.922   9.209
  764POPC   C1A12891  38.352  40.080   8.828
  764POPC   D2A12892  38.387  39.751   8.495
  764POPC   C3A12893  38.268  39.910   8.090
  764POPC   C4A12894  38.121  39.738   7.695
  764POPC   C1B12895  38.821  39.843   8.794
  764POPC   C2B12896  38.747  40.126   8.471
  764POPC   C3B12897  38.624  40.309   8.092
  764POPC   C4B12898  38.659  40.224   7.678
  765POPC   NC312899  33.303  14.591   9.422
  765POPC   PO412900  32.891  14.160   9.615
  765POPC   GL112901  32.830  14.276   9.180
  765POPC   GL212902  32.616  14.565   9.229
  765POPC   C1A12903  33.022  14.315   8.752
  765POPC   D2A12904  33.213  14.427   8.324
  765POPC   C3A12905  33.091  14.123   8.027
  765POPC   C4A12906  32.786  14.113   7.725
  765POPC   C1B12907  32.760  14.770   8.839
  765POPC   C2B12908  32.761  14.612   8.424
  765POPC   C3B12909  32.870  14.595   7.979
  765POPC   C4B12910  33.271  14.551   7.793
  766POPC   NC312911  13.240  28.303   9.501
  766POPC   PO412912  12.566  28.434   9.487
  766POPC   GL112913  12.841  28.303   9.126
  766POPC   GL212914  13.015  28.003   9.131
  766POPC   C1A12915  12.873  28.196   8.664
  766POPC   D2A12916  12.798  28.460   8.319
  766POPC   C3A12917  12.621  28.364   7.936
  766POPC   C4A12918  12.567  28.734   7.682
  766POPC   C1B12919  13.342  28.263   8.861
  766POPC   C2B12920  13.324  28.431   8.431
  766POPC   C3B12921  13.152  28.221   8.057
  766POPC   C4B12922  13.055  28.484   7.725
  767POPC   NC312923   0.247  42.851   9.819
  767POPC   PO412924   0.539  43.237   9.400
  767POPC   GL112925   0.316  43.193   9.065
  767POPC   GL212926   0.629  43.032   8.949
  767POPC   C1A12927   0.345  43.338   8.665
  767POPC   D2A12928   0.371  43.084   8.313
  767POPC   C3A12929   0.079  43.101   8.012
  767POPC   C4A12930   0.038  43.530   7.915
  767POPC   C1B12931   0.767  42.863   8.554
  767POPC   C2B12932   0.744  42.832   8.103
  767POPC   C3B12933   0.561  43.098   7.810
  767POPC   C4B12934   0.649  43.062   7.366
  768POPC   NC312935  34.289   2.770   9.439
  768POPC   PO412936  33.728   3.080   9.568
  768POPC   GL112937  33.864   2.906   9.185
  768POPC   GL212938  34.131   3.162   9.165
  768POPC   C1A12939  33.859   2.537   8.857
  768POPC   D2A12940  33.752   2.309   8.456
  768POPC   C3A12941  33.974   2.413   8.071
  768POPC   C4A12942  33.699   2.672   7.790
  768POPC   C1B12943  34.088   2.969   8.751
  768POPC   C2B12944  33.925   2.843   8.359
  768POPC   C3B12945  34.117   2.908   7.931
  768POPC   C4B12946  33.901   3.143   7.626
  769POPC   NC312947  35.851  43.563   9.394
  769POPC   PO412948  35.243  44.039   9.530
  769POPC   GL112949  35.219  44.167   9.132
  769POPC   GL212950  34.889  44.028   9.149
  769POPC   C1A12951  35.399  43.969   8.774
  769POPC   D2A12952  35.282  43.522   8.641
  769POPC   C3A12953  35.281  43.417   8.191
  769POPC   C4A12954  35.231  43.496   7.723
  769POPC   C1B12955  34.894  43.892   8.764
  769POPC   C2B12956  35.084  43.902   8.367
  769POPC   C3B12957  35.182  43.937   7.979
  769POPC   C4B12958  34.954  44.116   7.653
  770POPC   NC312959  34.876  18.765   9.524
  770POPC   PO412960  34.325  19.159   9.609
  770POPC   GL112961  34.548  19.033   9.241
  770POPC   GL212962  34.678  19.338   9.159
  770POPC   C1A12963  34.614  18.968   8.802
  770POPC   D2A12964  34.711  19.011   8.393
  770POPC   C3A12965  34.530  18.836   8.061
  770POPC   C4A12966  34.642  19.048   7.727
  770POPC   C1B12967  34.302  19.379   8.851
  770POPC   C2B12968  34.266  19.252   8.397
  770POPC   C3B12969  34.293  19.443   7.969
  770POPC   C4B12970  34.099  19.537   7.585
  771POPC   NC312971  37.163  14.096   9.269
  771POPC   PO412972  36.722  14.591   9.553
  771POPC   GL112973  36.854  14.710   9.136
  771POPC   GL212974  37.182  14.570   9.023
  771POPC   C1A12975  36.789  14.638   8.699
  771POPC   D2A12976  36.818  14.323   8.392
  771POPC   C3A12977  36.778  14.546   8.028
  771POPC   C4A12978  36.614  14.743   7.682
  771POPC   C1B12979  37.246  14.213   8.661
  771POPC   C2B12980  37.154  13.933   8.297
  771POPC   C3B12981  36.902  14.049   7.915
  771POPC   C4B12982  37.045  14.089   7.445
  772POPC   NC312983   0.055  41.434   9.593
  772POPC   PO412984  44.461  41.715   9.564
  772POPC   GL112985  44.691  41.695   9.227
  772POPC   GL212986  44.694  41.343   9.214
  772POPC   C1A12987  44.562  41.660   8.803
  772POPC   D2A12988  44.803  41.803   8.448
  772POPC   C3A12989  44.599  41.839   8.073
  772POPC   C4A12990  44.630  41.621   7.702
  772POPC   C1B12991  44.775  41.134   8.846
  772POPC   C2B12992  44.667  41.285   8.463
  772POPC   C3B12993  44.850  41.319   8.093
  772POPC   C4B12994  44.723  41.088   7.782
  773POPC   NC312995  11.069  30.129   9.525
  773POPC   PO412996  11.020  30.767   9.333
  773POPC   GL112997  11.461  30.733   9.161
  773POPC   GL212998  11.478  30.360   9.156
  773POPC   C1A12999  11.662  30.708   8.747
  773POPC   D2A13000  11.622  30.465   8.369
  773POPC   C3A13001  11.680  30.651   7.939
  773POPC   C4A13002  11.715  30.538   7.458
  773POPC   C1B13003  11.221  30.435   8.770
  773POPC   C2B13004  11.006  30.690   8.446
  773POPC   C3B13005  10.967  30.569   8.005
  773POPC   C4B13006  11.246  30.592   7.632
  774POPC   NC313007  41.705  23.442   9.619
  774POPC   PO413008  41.682  24.051   9.498
  774POPC   GL113009  41.667  23.851   9.122
  774POPC   GL213010  41.567  23.520   9.122
  774POPC   C1A13011  41.556  23.841   8.687
  774POPC   D2A13012  41.312  23.801   8.322
  774POPC   C3A13013  41.547  23.738   7.995
  774POPC   C4A13014  41.452  23.351   7.780
  774POPC   C1B13015  41.858  23.433   8.758
  774POPC   C2B13016  41.962  23.648   8.363
  774POPC   C3B13017  42.003  23.532   7.926
  774POPC   C4B13018  41.933  23.173   7.664
  775POPC   NC313019  32.033  17.491   9.851
  775POPC   PO413020  31.407  17.558   9.555
  775POPC   GL113021  31.441  17.399   9.121
  775POPC   GL213022  31.709  17.617   9.125
  775POPC   C1A13023  31.653  17.205   8.739
  775POPC   D2A13024  31.490  17.061   8.319
  775POPC   C3A13025  31.480  17.425   8.045
  775POPC   C4A13026  31.844  17.429   7.795
  775POPC   C1B13027  31.590  17.756   8.738
  775POPC   C2B13028  31.822  17.710   8.372
  775POPC   C3B13029  31.722  17.906   7.975
  775POPC   C4B13030  31.291  17.962   7.796
  776POPC   NC313031  44.262  10.084   9.537
  776POPC   PO413032  43.815  10.557   9.542
  776POPC   GL113033  43.735  10.475   9.157
  776POPC   GL213034  43.974  10.197   9.135
  776POPC   C1A13035  43.834  10.558   8.757
  776POPC   D2A13036  44.033  10.788   8.449
  776POPC   C3A13037  43.875  10.701   8.065
  776POPC   C4A13038  44.026  10.474   7.770
  776POPC   C1B13039  43.841  10.060   8.757
  776POPC   C2B13040  43.846  10.188   8.373
  776POPC   C3B13041  43.956  10.034   8.004
  776POPC   C4B13042  43.645  10.153   7.710
  777POPC   NC313043   9.701  34.710   9.781
  777POPC   PO413044   9.803  34.083   9.620
  777POPC   GL113045   9.695  34.412   9.318
  777POPC   GL213046  10.024  34.440   9.267
  777POPC   C1A13047   9.531  34.495   8.868
  777POPC   D2A13048   9.516  34.597   8.409
  777POPC   C3A13049   9.683  34.487   7.996
  777POPC   C4A13050   9.459  34.497   7.603
  777POPC   C1B13051  10.058  34.496   8.825
  777POPC   C2B13052  10.083  34.668   8.411
  777POPC   C3B13053   9.960  34.922   8.078
  777POPC   C4B13054   9.857  34.825   7.632
  778POPC   NC313055  10.867   5.194   9.596
  778POPC   PO413056  10.234   5.140   9.492
  778POPC   GL113057  10.553   5.151   9.176
  778POPC   GL213058  10.818   4.909   9.178
  778POPC   C1A13059  10.628   5.217   8.751
  778POPC   D2A13060  10.407   5.031   8.425
  778POPC   C3A13061  10.533   5.164   8.039
  778POPC   C4A13062  10.375   5.128   7.643
  778POPC   C1B13063  10.980   4.866   8.772
  778POPC   C2B13064  10.894   4.928   8.371
  778POPC   C3B13065  10.780   4.696   8.012
  778POPC   C4B13066  11.028   4.669   7.639
  779POPC   NC313067  34.566  28.920   9.487
  779POPC   PO413068  34.960  29.368   9.212
  779POPC   GL113069  34.507  29.267   9.085
  779POPC   GL213070  34.361  28.896   9.036
  779POPC   C1A13071  34.354  29.216   8.662
  779POPC   D2A13072  34.483  28.921   8.329
  779POPC   C3A13073  34.593  29.222   8.012
  779POPC   C4A13074  34.767  29.284   7.609
  779POPC   C1B13075  34.057  28.800   8.685
  779POPC   C2B13076  34.037  28.610   8.272
  779POPC   C3B13077  34.201  28.837   7.895
  779POPC   C4B13078  34.622  28.807   7.689
  780POPC   NC313079  43.487  14.224   9.438
  780POPC   PO413080  42.901  14.414   9.478
  780POPC   GL113081  42.839  14.664   9.123
  780POPC   GL213082  43.198  14.668   9.011
  780POPC   C1A13083  42.769  14.584   8.685
  780POPC   D2A13084  42.996  14.356   8.359
  780POPC   C3A13085  43.210  14.568   8.021
  780POPC   C4A13086  43.055  14.463   7.586
  780POPC   C1B13087  43.148  14.205   8.837
  780POPC   C2B13088  43.273  13.867   8.508
  780POPC   C3B13089  43.215  13.981   8.052
  780POPC   C4B13090  43.459  14.234   7.754
  781POPC   NC313091  15.802   6.660   9.559
  781POPC   PO413092  16.334   7.071   9.430
  781POPC   GL113093  16.202   6.656   9.236
  781POPC   GL213094  15.900   6.769   9.089
  781POPC   C1A13095  16.135   6.414   8.831
  781POPC   D2A13096  15.879   6.362   8.446
  781POPC   C3A13097  16.086   6.455   8.064
  781POPC   C4A13098  16.060   6.315   7.630
  781POPC   C1B13099  15.841   6.848   8.689
  781POPC   C2B13100  15.584   6.790   8.369
  781POPC   C3B13101  15.595   6.639   8.001
  781POPC   C4B13102  15.869   6.772   7.721
  782POPC   NC313103  37.486   2.489   9.543
  782POPC   PO413104  37.312   3.063   9.304
  782POPC   GL113105  37.701   2.877   9.129
  782POPC   GL213106  37.735   2.508   9.067
  782POPC   C1A13107  38.008   2.819   8.771
  782POPC   D2A13108  38.028   2.987   8.342
  782POPC   C3A13109  37.952   2.690   8.008
  782POPC   C4A13110  37.746   2.766   7.592
  782POPC   C1B13111  37.501   2.507   8.728
  782POPC   C2B13112  37.558   2.749   8.369
  782POPC   C3B13113  37.452   2.539   7.980
  782POPC   C4B13114  37.733   2.260   7.765
  783POPC   NC313115   8.964  20.258   9.449
  783POPC   PO413116   8.957  19.678   9.782
  783POPC   GL113117   8.953  19.780   9.249
  783POPC   GL213118   8.682  20.018   9.115
  783POPC   C1A13119   9.172  19.889   8.788
  783POPC   D2A13120   9.426  20.101   8.399
  783POPC   C3A13121   9.213  20.084   7.960
  783POPC   C4A13122   8.994  19.714   7.775
  783POPC   C1B13123   8.749  20.164   8.709
  783POPC   C2B13124   8.881  20.002   8.324
  783POPC   C3B13125   8.721  20.127   7.911
  783POPC   C4B13126   8.691  20.045   7.462
  784POPC   NC313127   3.652   5.446   9.889
  784POPC   PO413128   3.660   6.025   9.662
  784POPC   GL113129   3.674   5.955   9.199
  784POPC   GL213130   3.494   5.652   9.166
  784POPC   C1A13131   3.661   5.882   8.730
  784POPC   D2A13132   3.498   5.672   8.347
  784POPC   C3A13133   3.624   5.841   7.934
  784POPC   C4A13134   3.735   5.730   7.511
  784POPC   C1B13135   3.200   5.650   8.814
  784POPC   C2B13136   2.989   5.650   8.399
  784POPC   C3B13137   3.112   5.700   7.956
  784POPC   C4B13138   3.206   6.090   7.748
  785POPC   NC313139  20.842  41.304   9.487
  785POPC   PO413140  21.393  41.707   9.261
  785POPC   GL113141  21.533  41.320   9.085
  785POPC   GL213142  21.256  41.157   9.223
  785POPC   C1A13143  21.503  41.262   8.652
  785POPC   D2A13144  21.390  41.658   8.476
  785POPC   C3A13145  21.517  41.757   8.061
  785POPC   C4A13146  21.513  41.957   7.643
  785POPC   C1B13147  21.020  41.388   8.839
  785POPC   C2B13148  20.911  41.518   8.405
  785POPC   C3B13149  21.187  41.353   8.095
  785POPC   C4B13150  21.299  41.456   7.675
  786POPC   NC313151  34.267  27.957   9.478
  786POPC   PO413152  34.264  28.588   9.447
  786POPC   GL113153  34.516  28.406   9.141
  786POPC   GL213154  34.842  28.290   9.284
  786POPC   C1A13155  34.490  28.536   8.708
  786POPC   D2A13156  34.433  28.306   8.346
  786POPC   C3A13157  34.498  28.423   7.985
  786POPC   C4A13158  34.587  28.232   7.607
  786POPC   C1B13159  34.916  28.305   8.832
  786POPC   C2B13160  34.900  28.538   8.409
  786POPC   C3B13161  35.013  28.401   8.012
  786POPC   C4B13162  35.019  28.507   7.585
  787POPC   NC313163   0.063  16.477   9.389
  787POPC   PO413164  44.446  16.859   9.555
  787POPC   GL113165  44.623  16.729   9.155
  787POPC   GL213166  44.945  16.925   9.135
  787POPC   C1A13167  44.508  16.566   8.719
  787POPC   D2A13168  44.737  16.495   8.323
  787POPC   C3A13169  44.526  16.381   7.960
  787POPC   C4A13170  44.718  16.352   7.590
  787POPC   C1B13171  44.953  16.820   8.708
  787POPC   C2B13172  44.730  17.015   8.380
  787POPC   C3B13173  44.567  16.920   8.004
  787POPC   C4B13174  44.910  16.742   7.828
  788POPC   NC313175  39.605  38.244   9.480
  788POPC   PO413176  40.308  38.543   9.532
  788POPC   GL113177  40.119  38.539   9.145
  788POPC   GL213178  39.816  38.692   9.126
  788POPC   C1A13179  40.001  38.337   8.758
  788POPC   D2A13180  39.756  38.336   8.361
  788POPC   C3A13181  39.823  38.114   7.959
  788POPC   C4A13182  40.006  38.294   7.573
  788POPC   C1B13183  39.981  38.842   8.725
  788POPC   C2B13184  39.813  38.836   8.338
  788POPC   C3B13185  39.790  38.641   7.913
  788POPC   C4B13186  39.827  38.739   7.438
  789POPC   NC313187  44.229   2.422   9.413
  789POPC   PO413188  43.877   2.975   9.510
  789POPC   GL113189  43.783   2.771   9.106
  789POPC   GL213190  44.112   2.709   8.981
  789POPC   C1A13191  43.724   2.846   8.655
  789POPC   D2A13192  43.834   2.663   8.257
  789POPC   C3A13193  43.653   2.857   7.911
  789POPC   C4A13194  43.703   2.913   7.456
  789POPC   C1B13195  44.308   2.336   8.779
  789POPC   C2B13196  44.312   2.226   8.375
  789POPC   C3B13197  44.197   2.393   8.018
  789POPC   C4B13198  44.077   2.644   7.706
  790POPC   NC313199  13.248  40.821   9.777
  790POPC   PO413200  12.647  40.603   9.517
  790POPC   GL113201  12.905  40.900   9.308
  790POPC   GL213202  13.235  40.817   9.221
  790POPC   C1A13203  12.813  40.960   8.870
  790POPC   D2A13204  12.992  41.121   8.510
  790POPC   C3A13205  12.752  41.011   8.146
  790POPC   C4A13206  12.751  40.895   7.706
  790POPC   C1B13207  13.225  40.683   8.784
  790POPC   C2B13208  13.094  40.642   8.332
  790POPC   C3B13209  13.193  40.837   7.949
  790POPC   C4B13210  13.382  41.121   7.717
  791POPC   NC313211   4.522   2.302   9.592
  791POPC   PO413212   4.017   1.862   9.614
  791POPC   GL113213   4.273   1.991   9.264
  791POPC   GL213214   4.227   2.346   9.177
  791POPC   C1A13215   4.203   1.879   8.860
  791POPC   D2A13216   4.430   1.897   8.505
  791POPC   C3A13217   4.294   1.963   8.126
  791POPC   C4A13218   4.452   1.822   7.773
  791POPC   C1B13219   4.339   2.368   8.748
  791POPC   C2B13220   4.296   2.436   8.317
  791POPC   C3B13221   4.388   2.505   7.881
  791POPC   C4B13222   4.343   2.251   7.512
  792POPC   NC313223   4.010  34.744   9.544
  792POPC   PO413224   4.364  34.223   9.559
  792POPC   GL113225   4.316  34.451   9.184
  792POPC   GL213226   4.461  34.813   9.156
  792POPC   C1A13227   4.498  34.470   8.771
  792POPC   D2A13228   4.299  34.639   8.393
  792POPC   C3A13229   4.380  34.462   7.999
  792POPC   C4A13230   4.249  34.561   7.583
  792POPC   C1B13231   4.512  35.013   8.703
  792POPC   C2B13232   4.667  34.970   8.239
  792POPC   C3B13233   4.674  34.808   7.765
  792POPC   C4B13234   4.602  34.723   7.279
  793POPC   NC313235  36.967  13.151   9.528
  793POPC   PO413236  36.749  12.605   9.734
  793POPC   GL113237  36.953  12.718   9.266
  793POPC   GL213238  37.203  12.845   9.078
  793POPC   C1A13239  36.788  12.751   8.829
  793POPC   D2A13240  36.911  12.852   8.467
  793POPC   C3A13241  36.728  12.640   8.119
  793POPC   C4A13242  36.856  12.684   7.712
  793POPC   C1B13243  37.357  13.077   8.727
  793POPC   C2B13244  37.175  13.300   8.385
  793POPC   C3B13245  37.103  13.041   8.050
  793POPC   C4B13246  37.258  13.039   7.662
  794POPC   NC313247  13.100   6.946   9.552
  794POPC   PO413248  12.957   6.270   9.557
  794POPC   GL113249  12.748   6.466   9.194
  794POPC   GL213250  12.858   6.816   9.110
  794POPC   C1A13251  12.732   6.504   8.728
  794POPC   D2A13252  12.994   6.635   8.409
  794POPC   C3A13253  12.848   6.515   8.014
  794POPC   C4A13254  12.479   6.636   7.828
  794POPC   C1B13255  12.707   7.005   8.712
  794POPC   C2B13256  12.543   6.917   8.290
  794POPC   C3B13257  12.765   7.035   7.929
  794POPC   C4B13258  13.207   6.848   7.866
  795POPC   NC313259  39.196  29.568   9.478
  795POPC   PO413260  39.171  28.929   9.646
  795POPC   GL113261  39.345  28.958   9.170
  795POPC   GL213262  39.411  29.314   9.084
  795POPC   C1A13263  39.265  28.983   8.692
  795POPC   D2A13264  39.461  28.975   8.260
  795POPC   C3A13265  39.136  28.854   7.949
  795POPC   C4A13266  39.077  28.974   7.540
  795POPC   C1B13267  39.394  29.485   8.659
  795POPC   C2B13268  39.287  29.491   8.236
  795POPC   C3B13269  39.357  29.309   7.872
  795POPC   C4B13270  39.456  29.336   7.475
  796POPC   NC313271  22.532  37.043   9.542
  796POPC   PO413272  21.890  37.147   9.666
  796POPC   GL113273  22.048  36.999   9.244
  796POPC   GL213274  21.751  36.800   9.147
  796POPC   C1A13275  22.378  37.019   8.889
  796POPC   D2A13276  22.515  36.953   8.476
  796POPC   C3A13277  22.260  36.766   8.145
  796POPC   C4A13278  22.447  36.862   7.744
  796POPC   C1B13279  21.957  36.751   8.744
  796POPC   C2B13280  21.746  36.850   8.379
  796POPC   C3B13281  21.755  36.759   7.962
  796POPC   C4B13282  21.948  36.637   7.588
  797POPC   NC313283  44.882  26.516   9.219
  797POPC   PO413284  44.352  26.868   9.504
  797POPC   GL113285  44.596  26.956   9.148
  797POPC   GL213286  44.791  27.241   9.216
  797POPC   C1A13287  44.600  26.859   8.707
  797POPC   D2A13288  44.348  26.702   8.350
  797POPC   C3A13289  44.598  26.601   8.025
  797POPC   C4A13290  44.724  26.833   7.660
  797POPC   C1B13291   0.034  27.083   8.872
  797POPC   C2B13292   0.073  26.900   8.484
  797POPC   C3B13293  44.975  26.988   8.065
  797POPC   C4B13294   0.050  27.219   7.652
  798POPC   NC313295  40.366  24.619   9.476
  798POPC   PO413296  39.871  24.187   9.391
  798POPC   GL113297  39.758  24.508   9.133
  798POPC   GL213298  40.029  24.719   9.110
  798POPC   C1A13299  39.745  24.440   8.703
  798POPC   D2A13300  39.946  24.607   8.340
  798POPC   C3A13301  40.021  24.385   7.985
  798POPC   C4A13302  40.009  24.645   7.653
  798POPC   C1B13303  40.263  24.586   8.747
  798POPC   C2B13304  40.463  24.662   8.354
  798POPC   C3B13305  40.376  24.837   7.973
  798POPC   C4B13306  40.524  24.692   7.600
  799POPC   NC313307  44.676  26.405   9.668
  799POPC   PO413308  44.519  25.736   9.384
  799POPC   GL113309  44.587  26.110   9.242
  799POPC   GL213310  44.845  26.062   8.970
  799POPC   C1A13311  44.388  26.233   8.880
  799POPC   D2A13312  44.502  25.873   8.613
  799POPC   C3A13313  44.424  25.889   8.200
  799POPC   C4A13314  44.377  26.157   7.862
  799POPC   C1B13315  44.779  26.380   8.576
  799POPC   C2B13316   0.071  26.471   8.207
  799POPC   C3B13317  44.964  26.329   7.808
  799POPC   C4B13318  44.813  25.918   7.823
  800POPC   NC313319  21.029   2.922   9.585
  800POPC   PO413320  21.726   2.908   9.499
  800POPC   GL113321  21.595   2.658   9.174
  800POPC   GL213322  21.330   2.855   9.162
  800POPC   C1A13323  21.716   2.459   8.790
  800POPC   D2A13324  21.532   2.492   8.396
  800POPC   C3A13325  21.787   2.521   8.053
  800POPC   C4A13326  21.469   2.478   7.763
  800POPC   C1B13327  21.264   2.774   8.761
  800POPC   C2B13328  21.293   2.967   8.391
  800POPC   C3B13329  21.462   2.927   8.022
  800POPC   C4B13330  21.199   3.051   7.707
  801POPC   NC313331   8.263  10.472   9.534
  801POPC   PO413332   7.900   9.945   9.268
  801POPC   GL113333   8.035  10.305   9.105
  801POPC   GL213334   8.411  10.276   9.079
  801POPC   C1A13335   7.997  10.471   8.712
  801POPC   D2A13336   8.171  10.431   8.312
  801POPC   C3A13337   7.908  10.587   7.964
  801POPC   C4A13338   8.042  10.703   7.528
  801POPC   C1B13339   8.413  10.706   8.897
  801POPC   C2B13340   8.438  10.845   8.459
  801POPC   C3B13341   8.399  10.729   7.978
  801POPC   C4B13342   8.557  10.294   7.928
  802POPC   NC313343  25.326  38.207   9.312
  802POPC   PO413344  25.176  37.565   9.762
  802POPC   GL113345  25.536  37.557   9.332
  802POPC   GL213346  25.457  37.804   9.034
  802POPC   C1A13347  25.541  37.355   8.867
  802POPC   D2A13348  25.481  37.637   8.513
  802POPC   C3A13349  25.188  37.613   8.214
  802POPC   C4A13350  25.242  37.530   7.776
  802POPC   C1B13351  25.180  38.017   8.702
  802POPC   C2B13352  25.154  38.131   8.309
  802POPC   C3B13353  25.081  38.007   7.915
  802POPC   C4B13354  25.008  38.150   7.535
  803POPC   NC313355  20.179  31.907   9.530
  803POPC   PO413356  20.862  32.022   9.582
  803POPC   GL113357  20.596  31.995   9.223
  803POPC   GL213358  20.720  32.289   9.102
  803POPC   C1A13359  20.420  32.066   8.775
  803POPC   D2A13360  20.449  32.414   8.454
  803POPC   C3A13361  20.474  32.329   7.997
  803POPC   C4A13362  20.223  32.004   7.755
  803POPC   C1B13363  20.906  32.187   8.710
  803POPC   C2B13364  20.910  32.241   8.261
  803POPC   C3B13365  20.919  32.067   7.845
  803POPC   C4B13366  21.146  32.219   7.457
  804POPC   NC313367  36.413  41.864   9.516
  804POPC   PO413368  37.083  41.644   9.472
  804POPC   GL113369  36.951  41.519   9.076
  804POPC   GL213370  36.590  41.579   9.094
  804POPC   C1A13371  36.819  41.452   8.664
  804POPC   D2A13372  36.810  41.672   8.279
  804POPC   C3A13373  36.884  41.505   7.883
  804POPC   C4A13374  36.621  41.334   7.560
  804POPC   C1B13375  36.590  41.892   8.698
  804POPC   C2B13376  36.569  42.118   8.291
  804POPC   C3B13377  36.596  41.926   7.851
  804POPC   C4B13378  36.711  41.821   7.407
  805POPC   NC313379  44.168  39.572   9.673
  805POPC   PO413380  43.703  39.218   9.389
  805POPC   GL113381  43.945  39.145   9.061
  805POPC   GL213382  44.128  39.399   9.163
  805POPC   C1A13383  43.765  39.029   8.655
  805POPC   D2A13384  43.918  38.852   8.290
  805POPC   C3A13385  44.056  39.013   7.869
  805POPC   C4A13386  44.297  38.834   7.524
  805POPC   C1B13387  43.812  39.526   8.782
  805POPC   C2B13388  43.964  39.400   8.371
  805POPC   C3B13389  44.182  39.485   8.028
  805POPC   C4B13390  44.003  39.497   7.662
  806POPC   NC313391  25.960  39.752   9.511
  806POPC   PO413392  26.392  40.254   9.547
  806POPC   GL113393  26.267  39.990   9.166
  806POPC   GL213394  25.930  40.130   9.109
  806POPC   C1A13395  26.119  39.906   8.709
  806POPC   D2A13396  26.096  40.117   8.376
  806POPC   C3A13397  26.026  39.903   8.026
  806POPC   C4A13398  26.084  40.051   7.622
  806POPC   C1B13399  25.691  40.175   8.705
  806POPC   C2B13400  25.617  40.347   8.305
  806POPC   C3B13401  25.528  40.206   7.875
  806POPC   C4B13402  25.615  39.980   7.475
  807POPC   NC313403  37.928  10.282   9.643
  807POPC   PO413404  38.613  10.554   9.639
  807POPC   GL113405  38.620  10.618   9.219
  807POPC   GL213406  38.251  10.720   9.248
  807POPC   C1A13407  38.655  10.418   8.796
  807POPC   D2A13408  38.555  10.627   8.416
  807POPC   C3A13409  38.730  10.542   8.034
  807POPC   C4A13410  38.649  10.319   7.668
  807POPC   C1B13411  38.301  10.825   8.821
  807POPC   C2B13412  38.252  11.031   8.441
  807POPC   C3B13413  38.388  10.975   8.045
  807POPC   C4B13414  38.254  10.612   7.837
  808POPC   NC313415  12.881  37.971   9.491
  808POPC   PO413416  13.148  37.407   9.605
  808POPC   GL113417  12.863  37.532   9.199
  808POPC   GL213418  12.643  37.829   9.092
  808POPC   C1A13419  12.998  37.616   8.800
  808POPC   D2A13420  12.835  37.691   8.428
  808POPC   C3A13421  13.023  37.549   8.076
  808POPC   C4A13422  12.876  37.399   7.695
  808POPC   C1B13423  12.753  38.078   8.764
  808POPC   C2B13424  12.547  38.106   8.389
  808POPC   C3B13425  12.554  37.831   8.027
  808POPC   C4B13426  12.882  37.895   7.719
  809POPC   NC313427  37.130  40.351   9.541
  809POPC   PO413428  37.232  39.756   9.213
  809POPC   GL113429  36.943  40.125   9.105
  809POPC   GL213430  36.662  40.312   9.308
  809POPC   C1A13431  36.891  40.186   8.667
  809POPC   D2A13432  37.068  40.080   8.303
  809POPC   C3A13433  36.776  39.846   8.088
  809POPC   C4A13434  36.955  39.995   7.696
  809POPC   C1B13435  36.573  40.484   8.896
  809POPC   C2B13436  36.476  40.472   8.432
  809POPC   C3B13437  36.668  40.338   8.049
  809POPC   C4B13438  36.738  40.522   7.666
  810POPC   NC313439  24.742  21.439   9.587
  810POPC   PO413440  24.151  21.114   9.544
  810POPC   GL113441  24.494  21.199   9.213
  810POPC   GL213442  24.777  20.969   9.349
  810POPC   C1A13443  24.569  21.535   8.855
  810POPC   D2A13444  24.309  21.657   8.480
  810POPC   C3A13445  24.424  21.616   8.023
  810POPC   C4A13446  24.153  21.327   7.778
  810POPC   C1B13447  24.828  20.932   8.897
  810POPC   C2B13448  24.759  21.097   8.471
  810POPC   C3B13449  24.508  21.088   8.079
  810POPC   C4B13450  24.567  21.073   7.618
  811POPC   NC313451  36.649  38.726   9.532
  811POPC   PO413452  37.137  38.276   9.712
  811POPC   GL113453  37.000  38.425   9.277
  811POPC   GL213454  36.681  38.223   9.311
  811POPC   C1A13455  37.033  38.544   8.811
  811POPC   D2A13456  37.180  38.365   8.400
  811POPC   C3A13457  36.940  38.349   8.018
  811POPC   C4A13458  36.852  38.716   7.744
  811POPC   C1B13459  36.688  38.166   8.866
  811POPC   C2B13460  36.652  38.404   8.461
  811POPC   C3B13461  36.467  38.594   8.108
  811POPC   C4B13462  36.493  38.336   7.752
  812POPC   NC313463  30.418  35.701   9.542
  812POPC   PO413464  30.900  36.231   9.590
  812POPC   GL113465  30.843  36.017   9.180
  812POPC   GL213466  30.526  35.857   9.066
  812POPC   C1A13467  30.967  36.020   8.727
  812POPC   D2A13468  30.748  36.170   8.361
  812POPC   C3A13469  30.981  36.198   8.018
  812POPC   C4A13470  30.904  36.040   7.633
  812POPC   C1B13471  30.517  36.241   8.826
  812POPC   C2B13472  30.612  36.608   8.582
  812POPC   C3B13473  30.531  36.612   8.142
  812POPC   C4B13474  30.611  36.427   7.762
  813POPC   NC313475  42.218   7.941   9.648
  813POPC   PO413476  42.752   8.334   9.718
  813POPC   GL113477  42.490   8.272   9.304
  813POPC   GL213478  42.157   8.157   9.183
  813POPC   C1A13479  42.583   8.294   8.844
  813POPC   D2A13480  42.650   8.432   8.408
  813POPC   C3A13481  42.336   8.336   8.089
  813POPC   C4A13482  42.325   8.506   7.685
  813POPC   C1B13483  42.092   8.244   8.740
  813POPC   C2B13484  42.185   7.952   8.404
  813POPC   C3B13485  41.989   7.893   8.000
  813POPC   C4B13486  41.982   8.138   7.653
  814POPC   NC313487  34.614  23.998   9.526
  814POPC   PO413488  34.211  23.401   9.488
  814POPC   GL113489  34.472  23.618   9.163
  814POPC   GL213490  34.512  23.944   9.042
  814POPC   C1A13491  34.508  23.541   8.738
  814POPC   D2A13492  34.476  23.826   8.425
  814POPC   C3A13493  34.480  23.676   8.017
  814POPC   C4A13494  34.644  23.586   7.634
  814POPC   C1B13495  34.852  23.986   8.769
  814POPC   C2B13496  34.993  23.871   8.348
  814POPC   C3B13497  34.878  23.967   7.932
  814POPC   C4B13498  34.790  24.057   7.498
  815POPC   NC313499  28.855  17.114   9.526
  815POPC   PO413500  29.281  16.574   9.523
  815POPC   GL113501  29.190  16.510   9.101
  815POPC   GL213502  28.867  16.679   9.211
  815POPC   C1A13503  29.347  16.609   8.671
  815POPC   D2A13504  29.474  17.002   8.420
  815POPC   C3A13505  29.549  17.000   7.953
  815POPC   C4A13506  29.312  16.773   7.626
  815POPC   C1B13507  28.999  16.969   8.897
  815POPC   C2B13508  28.952  16.859   8.490
  815POPC   C3B13509  29.118  16.718   8.118
  815POPC   C4B13510  28.866  16.408   7.936
  816POPC   NC313511   4.240  38.986   9.449
  816POPC   PO413512   4.557  39.478   9.760
  816POPC   GL113513   4.535  39.390   9.309
  816POPC   GL213514   4.231  39.575   9.233
  816POPC   C1A13515   4.493  39.208   8.856
  816POPC   D2A13516   4.165  39.227   8.524
  816POPC   C3A13517   4.266  39.259   8.072
  816POPC   C4A13518   4.115  39.029   7.724
  816POPC   C1B13519   4.359  39.698   8.820
  816POPC   C2B13520   4.486  39.617   8.407
  816POPC   C3B13521   4.399  39.777   7.994
  816POPC   C4B13522   4.581  39.636   7.625
  817POPC   NC313523  20.281  20.481   9.422
  817POPC   PO413524  19.739  20.764   9.620
  817POPC   GL113525  19.735  20.676   9.187
  817POPC   GL213526  19.874  20.370   9.107
  817POPC   C1A13527  19.631  20.651   8.747
  817POPC   D2A13528  19.833  20.578   8.340
  817POPC   C3A13529  19.586  20.584   7.970
  817POPC   C4A13530  19.579  20.216   7.721
  817POPC   C1B13531  20.130  20.482   8.776
  817POPC   C2B13532  20.214  20.223   8.453
  817POPC   C3B13533  20.371  20.416   8.139
  817POPC   C4B13534  20.071  20.542   7.839
  818POPC   NC313535   4.920  36.868   9.374
  818POPC   PO413536   4.277  37.019   9.461
  818POPC   GL113537   4.254  36.934   9.067
  818POPC   GL213538   4.601  36.947   8.975
  818POPC   C1A13539   4.232  37.132   8.666
  818POPC   D2A13540   4.591  37.068   8.422
  818POPC   C3A13541   4.382  36.888   8.123
  818POPC   C4A13542   4.309  36.861   7.728
  818POPC   C1B13543   4.416  36.656   8.672
  818POPC   C2B13544   4.647  36.506   8.318
  818POPC   C3B13545   4.536  36.416   7.939
  818POPC   C4B13546   4.642  36.521   7.543
  819POPC   NC313547  27.013  17.678   9.603
  819POPC   PO413548  26.684  17.112   9.555
  819POPC   GL113549  26.796  17.407   9.231
  819POPC   GL213550  26.645  17.780   9.253
  819POPC   C1A13551  27.000  17.394   8.855
  819POPC   D2A13552  26.897  17.462   8.428
  819POPC   C3A13553  27.084  17.158   8.138
  819POPC   C4A13554  26.878  17.052   7.766
  819POPC   C1B13555  26.866  17.901   8.884
  819POPC   C2B13556  26.913  18.062   8.469
  819POPC   C3B13557  27.129  17.843   8.161
  819POPC   C4B13558  26.950  17.562   7.849
  820POPC   NC313559  31.103   5.154   9.514
  820POPC   PO413560  30.444   5.254   9.517
  820POPC   GL113561  30.515   5.020   9.149
  820POPC   GL213562  30.863   4.993   9.023
  820POPC   C1A13563  30.379   5.096   8.743
  820POPC   D2A13564  30.659   5.015   8.407
  820POPC   C3A13565  30.742   5.175   8.007
  820POPC   C4A13566  30.831   4.859   7.689
  820POPC   C1B13567  30.794   5.408   8.746
  820POPC   C2B13568  30.834   5.605   8.301
  820POPC   C3B13569  31.132   5.515   7.950
  820POPC   C4B13570  31.055   5.292   7.587
  821POPC   NC313571   8.644   0.408   9.466
  821POPC   PO413572   9.284   0.292   9.453
  821POPC   GL113573   9.039   0.279   9.078
  821POPC   GL213574   8.921   0.608   9.042
  821POPC   C1A13575   8.713   0.287   8.728
  821POPC   D2A13576   8.604   0.444   8.301
  821POPC   C3A13577   8.877   0.259   7.973
  821POPC   C4A13578   8.905   0.212   7.520
  821POPC   C1B13579   8.945   0.769   8.619
  821POPC   C2B13580   9.019   0.718   8.179
  821POPC   C3B13581   8.758   0.755   7.856
  821POPC   C4B13582   8.820   0.743   7.431
  822POPC   NC313583   4.518  12.419   9.455
  822POPC   PO413584   3.996  12.000   9.550
  822POPC   GL113585   4.171  11.839   9.173
  822POPC   GL213586   4.563  11.845   9.149
  822POPC   C1A13587   3.963  11.981   8.769
  822POPC   D2A13588   3.874  12.192   8.371
  822POPC   C3A13589   4.285  12.283   8.209
  822POPC   C4A13590   4.446  12.194   7.815
  822POPC   C1B13591   4.462  11.842   8.713
  822POPC   C2B13592   4.198  11.739   8.357
  822POPC   C3B13593   4.361  11.692   7.931
  822POPC   C4B13594   4.668  11.795   7.599
  823POPC   NC313595  19.430  38.178   9.522
  823POPC   PO413596  20.015  38.483   9.465
  823POPC   GL113597  19.731  38.400   9.125
  823POPC   GL213598  19.526  38.113   9.044
  823POPC   C1A13599  19.858  38.240   8.706
  823POPC   D2A13600  19.847  38.054   8.321
  823POPC   C3A13601  20.109  38.335   8.132
  823POPC   C4A13602  20.279  38.438   7.769
  823POPC   C1B13603  19.373  38.506   8.765
  823POPC   C2B13604  19.221  38.524   8.363
  823POPC   C3B13605  19.621  38.510   8.154
  823POPC   C4B13606  19.800  38.628   7.774
  824POPC   NC313607  39.437  36.286   9.592
  824POPC   PO413608  39.069  35.684   9.527
  824POPC   GL113609  39.357  35.898   9.200
  824POPC   GL213610  39.410  36.274   9.099
  824POPC   C1A13611  39.269  35.926   8.757
  824POPC   D2A13612  38.964  35.757   8.466
  824POPC   C3A13613  39.153  35.897   8.104
  824POPC   C4A13614  39.438  35.958   7.765
  824POPC   C1B13615  39.337  36.430   8.697
  824POPC   C2B13616  39.479  36.248   8.297
  824POPC   C3B13617  39.555  36.444   7.897
  824POPC   C4B13618  39.290  36.533   7.523
  825POPC   NC313619   1.809  29.562   9.338
  825POPC   PO413620   2.378  29.916   9.466
  825POPC   GL113621   2.194  29.954   9.093
  825POPC   GL213622   1.838  30.039   9.094
  825POPC   C1A13623   2.061  29.699   8.748
  825POPC   D2A13624   1.923  29.841   8.367
  825POPC   C3A13625   2.038  29.679   8.028
  825POPC   C4A13626   1.960  29.662   7.624
  825POPC   C1B13627   1.594  29.989   8.710
  825POPC   C2B13628   1.409  29.915   8.289
  825POPC   C3B13629   1.687  30.085   7.976
  825POPC   C4B13630   2.116  30.146   7.816
  826POPC   NC313631  26.640  15.005   9.519
  826POPC   PO413632  27.034  15.535   9.329
  826POPC   GL113633  26.934  15.125   9.111
  826POPC   GL213634  27.109  15.107   8.808
  826POPC   C1A13635  26.611  14.935   8.789
  826POPC   D2A13636  26.431  15.110   8.367
  826POPC   C3A13637  26.674  14.959   8.017
  826POPC   C4A13638  27.103  15.140   7.878
  826POPC   C1B13639  26.754  15.413   8.710
  826POPC   C2B13640  26.772  15.694   8.379
  826POPC   C3B13641  26.775  15.567   7.962
  826POPC   C4B13642  26.577  15.678   7.607
  827POPC   NC313643  30.822   0.857   9.717
  827POPC   PO413644  30.933   1.458   9.399
  827POPC   GL113645  31.066   1.353   8.994
  827POPC   GL213646  30.944   1.017   8.962
  827POPC   C1A13647  31.019   1.319   8.536
  827POPC   D2A13648  30.928   1.323   8.100
  827POPC   C3A13649  30.516   1.261   7.903
  827POPC   C4A13650  30.450   1.501   7.531
  827POPC   C1B13651  30.596   1.077   8.668
  827POPC   C2B13652  30.628   0.948   8.292
  827POPC   C3B13653  30.792   0.823   7.927
  827POPC   C4B13654  30.586   0.882   7.575
  828POPC   NC313655  35.455  10.340   9.558
  828POPC   PO413656  35.087  10.898   9.370
  828POPC   GL113657  35.379  10.690   9.118
  828POPC   GL213658  35.402  10.336   9.061
  828POPC   C1A13659  35.561  10.811   8.760
  828POPC   D2A13660  35.335  10.769   8.375
  828POPC   C3A13661  35.550  10.847   8.028
  828POPC   C4A13662  35.803  10.717   7.665
  828POPC   C1B13663  35.635  10.312   8.682
  828POPC   C2B13664  35.610  10.354   8.236
  828POPC   C3B13665  35.351  10.373   7.868
  828POPC   C4B13666  35.243  10.010   7.546
  829POPC   NC313667  28.222  26.227   9.640
  829POPC   PO413668  28.578  25.689   9.435
  829POPC   GL113669  28.258  25.903   9.226
  829POPC   GL213670  28.269  26.256   9.151
  829POPC   C1A13671  28.058  25.927   8.835
  829POPC   D2A13672  28.255  26.055   8.471
  829POPC   C3A13673  28.126  25.865   8.128
  829POPC   C4A13674  28.174  25.934   7.713
  829POPC   C1B13675  28.118  26.438   8.783
  829POPC   C2B13676  28.359  26.562   8.442
  829POPC   C3B13677  28.261  26.394   8.065
  829POPC   C4B13678  28.087  26.436   7.648
  830POPC   NC313679  11.241  42.293   9.491
  830POPC   PO413680  10.709  42.695   9.272
  830POPC   GL113681  11.042  42.528   8.983
  830POPC   GL213682  11.351  42.582   9.072
  830POPC   C1A13683  11.155  42.306   8.557
  830POPC   D2A13684  11.357  42.007   8.230
  830POPC   C3A13685  11.268  42.157   7.794
  830POPC   C4A13686  11.028  42.249   7.391
  830POPC   C1B13687  11.573  42.536   8.684
  830POPC   C2B13688  11.530  42.487   8.235
  830POPC   C3B13689  11.754  42.497   7.840
  830POPC   C4B13690  11.539  42.433   7.448
  831POPC   NC313691  12.004  30.411   9.737
  831POPC   PO413692  12.259  30.036   9.322
  831POPC   GL113693  12.145  29.793   8.986
  831POPC   GL213694  11.841  29.948   8.985
  831POPC   C1A13695  12.339  29.746   8.623
  831POPC   D2A13696  12.535  30.107   8.503
  831POPC   C3A13697  12.511  30.054   8.091
  831POPC   C4A13698  12.273  29.967   7.744
  831POPC   C1B13699  11.903  30.032   8.560
  831POPC   C2B13700  12.010  30.183   8.163
  831POPC   C3B13701  11.808  30.146   7.798
  831POPC   C4B13702  11.561  29.782   7.835
  832POPC   NC313703  27.252   9.060   9.681
  832POPC   PO413704  27.870   9.214   9.529
  832POPC   GL113705  27.553   9.033   9.269
  832POPC   GL213706  27.256   9.267   9.224
  832POPC   C1A13707  27.573   8.937   8.850
  832POPC   D2A13708  27.773   8.868   8.457
  832POPC   C3A13709  27.592   8.960   8.039
  832POPC   C4A13710  27.882   9.235   7.829
  832POPC   C1B13711  27.111   9.161   8.820
  832POPC   C2B13712  27.228   8.912   8.450
  832POPC   C3B13713  27.069   9.053   8.077
  832POPC   C4B13714  27.205   9.271   7.726
  833POPC   NC313715  38.400  23.334   9.534
  833POPC   PO413716  38.169  23.934   9.417
  833POPC   GL113717  38.510  23.776   9.162
  833POPC   GL213718  38.810  23.520   9.246
  833POPC   C1A13719  38.506  23.941   8.733
  833POPC   D2A13720  38.462  24.069   8.274
  833POPC   C3A13721  38.284  23.729   8.012
  833POPC   C4A13722  37.982  23.711   7.658
  833POPC   C1B13723  38.796  23.503   8.799
  833POPC   C2B13724  38.899  23.797   8.434
  833POPC   C3B13725  38.824  23.832   7.976
  833POPC   C4B13726  38.707  23.446   7.810
  834POPC   NC313727  36.203  22.790   9.576
  834POPC   PO413728  35.851  23.295   9.318
  834POPC   GL113729  36.133  23.008   9.104
  834POPC   GL213730  36.376  22.732   9.115
  834POPC   C1A13731  36.233  23.135   8.714
  834POPC   D2A13732  36.308  22.928   8.363
  834POPC   C3A13733  36.116  23.035   8.007
  834POPC   C4A13734  36.238  22.836   7.606
  834POPC   C1B13735  36.220  22.612   8.762
  834POPC   C2B13736  36.232  22.363   8.424
  834POPC   C3B13737  36.237  22.518   8.027
  834POPC   C4B13738  36.540  22.442   7.705
  835POPC   NC313739   9.281  37.358   9.673
  835POPC   PO413740   8.857  37.850   9.513
  835POPC   GL113741   9.112  37.648   9.229
  835POPC   GL213742   8.983  37.304   9.241
  835POPC   C1A13743   9.156  37.804   8.821
  835POPC   D2A13744   8.923  38.049   8.483
  835POPC   C3A13745   9.031  37.903   8.044
  835POPC   C4A13746   9.353  37.695   7.774
  835POPC   C1B13747   9.133  37.284   8.826
  835POPC   C2B13748   9.082  37.506   8.421
  835POPC   C3B13749   8.790  37.451   8.104
  835POPC   C4B13750   8.874  37.531   7.711
  836POPC   NC313751   7.553  36.035   9.658
  836POPC   PO413752   7.581  36.707   9.521
  836POPC   GL113753   7.501  36.327   9.236
  836POPC   GL213754   7.191  36.200   9.295
  836POPC   C1A13755   7.412  35.998   8.880
  836POPC   D2A13756   7.256  35.943   8.429
  836POPC   C3A13757   7.476  36.145   8.076
  836POPC   C4A13758   7.625  36.014   7.680
  836POPC   C1B13759   7.058  36.397   8.896
  836POPC   C2B13760   7.144  36.446   8.441
  836POPC   C3B13761   7.100  36.479   7.979
  836POPC   C4B13762   7.189  36.271   7.564
  837POPC   NC313763   8.402  42.930   9.367
  837POPC   PO413764   8.214  42.286   9.482
  837POPC   GL113765   8.295  42.179   9.089
  837POPC   GL213766   8.097  42.476   8.992
  837POPC   C1A13767   8.358  41.935   8.704
  837POPC   D2A13768   8.178  42.100   8.326
  837POPC   C3A13769   8.212  41.952   7.901
  837POPC   C4A13770   8.055  42.235   7.552
  837POPC   C1B13771   8.445  42.458   8.684
  837POPC   C2B13772   8.628  42.349   8.284
  837POPC   C3B13773   8.477  42.390   7.880
  837POPC   C4B13774   8.411  42.580   7.483
  838POPC   NC313775  31.513  40.393   9.697
  838POPC   PO413776  31.130  40.092   9.401
  838POPC   GL113777  31.546  40.086   9.118
  838POPC   GL213778  31.855  40.268   9.276
  838POPC   C1A13779  31.628  39.868   8.677
  838POPC   D2A13780  31.677  39.672   8.224
  838POPC   C3A13781  31.375  39.736   7.872
  838POPC   C4A13782  31.332  39.538   7.439
  838POPC   C1B13783  31.982  40.222   8.809
  838POPC   C2B13784  31.895  40.145   8.334
  838POPC   C3B13785  31.752  40.116   7.910
  838POPC   C4B13786  31.867  40.396   7.540
  839POPC   NC313787  21.716  42.571   9.602
  839POPC   PO413788  22.058  41.981   9.518
  839POPC   GL113789  22.288  42.169   9.180
  839POPC   GL213790  22.051  42.431   9.190
  839POPC   C1A13791  22.219  42.131   8.700
  839POPC   D2A13792  22.078  42.321   8.316
  839POPC   C3A13793  22.316  42.292   7.957
  839POPC   C4A13794  22.294  42.671   7.713
  839POPC   C1B13795  21.783  42.107   8.933
  839POPC   C2B13796  21.683  42.068   8.480
  839POPC   C3B13797  21.651  42.240   8.047
  839POPC   C4B13798  21.882  42.325   7.688
  840POPC   NC313799  42.113  44.192   9.579
  840POPC   PO413800  42.445  43.570   9.464
  840POPC   GL113801  42.382  43.761   9.086
  840POPC   GL213802  42.247  44.073   9.118
  840POPC   C1A13803  42.273  43.751   8.659
  840POPC   D2A13804  42.526  43.555   8.358
  840POPC   C3A13805  42.530  43.771   7.969
  840POPC   C4A13806  42.429  43.704   7.541
  840POPC   C1B13807  42.481  44.229   8.807
  840POPC   C2B13808  42.299  44.212   8.410
  840POPC   C3B13809  42.121  44.108   8.069
  840POPC   C4B13810  42.299  44.168   7.697
  841POPC   NC313811  30.224  44.425   9.281
  841POPC   PO413812  30.017   0.021   9.334
  841POPC   GL113813  29.874  44.714   9.049
  841POPC   GL213814  29.683  44.394   9.183
  841POPC   C1A13815  30.023  44.543   8.653
  841POPC   D2A13816  30.228  44.552   8.264
  841POPC   C3A13817  30.089  44.329   7.899
  841POPC   C4A13818  30.110  44.346   7.431
  841POPC   C1B13819  29.499  44.543   8.774
  841POPC   C2B13820  29.604  44.518   8.328
  841POPC   C3B13821  29.607  44.652   7.905
  841POPC   C4B13822  29.956  44.772   7.673
  842POPC   NC313823  14.060   9.477   9.519
  842POPC   PO413824  14.708   9.626   9.509
  842POPC   GL113825  14.562   9.581   9.127
  842POPC   GL213826  14.263   9.757   9.138
  842POPC   C1A13827  14.450   9.558   8.713
  842POPC   D2A13828  14.567   9.539   8.312
  842POPC   C3A13829  14.348   9.762   8.056
  842POPC   C4A13830  14.289   9.676   7.651
  842POPC   C1B13831  14.080   9.987   8.767
  842POPC   C2B13832  13.943   9.951   8.323
  842POPC   C3B13833  13.941   9.987   7.855
  842POPC   C4B13834  13.968   9.980   7.402
  843POPC   NC313835  18.954   5.430   9.590
  843POPC   PO413836  19.221   6.054   9.573
  843POPC   GL113837  19.263   5.944   9.174
  843POPC   GL213838  19.104   5.635   9.131
  843POPC   C1A13839  19.192   6.017   8.757
  843POPC   D2A13840  18.970   5.937   8.379
  843POPC   C3A13841  19.235   5.920   8.060
  843POPC   C4A13842  19.213   6.046   7.664
  843POPC   C1B13843  18.979   5.524   8.702
  843POPC   C2B13844  18.920   5.465   8.232
  843POPC   C3B13845  18.953   5.470   7.762
  843POPC   C4B13846  19.065   5.408   7.309
  844POPC   NC313847  10.287  33.337   9.487
  844POPC   PO413848  10.787  32.980   9.481
  844POPC   GL113849  10.678  32.864   9.087
  844POPC   GL213850  10.464  33.134   9.066
  844POPC   C1A13851  10.726  32.972   8.653
  844POPC   D2A13852  10.981  33.097   8.331
  844POPC   C3A13853  10.870  32.851   8.029
  844POPC   C4A13854  10.553  32.738   7.855
  844POPC   C1B13855  10.213  33.031   8.712
  844POPC   C2B13856  10.283  32.920   8.265
  844POPC   C3B13857  10.266  33.183   7.880
  844POPC   C4B13858  10.032  33.194   7.479
  845POPC   NC313859   7.133  25.596   9.338
  845POPC   PO413860   7.511  25.098   9.637
  845POPC   GL113861   7.565  25.208   9.204
  845POPC   GL213862   7.604  25.562   9.079
  845POPC   C1A13863   7.701  25.099   8.801
  845POPC   D2A13864   7.583  25.022   8.415
  845POPC   C3A13865   7.686  25.310   8.103
  845POPC   C4A13866   7.573  25.092   7.764
  845POPC   C1B13867   7.307  25.442   8.719
  845POPC   C2B13868   7.192  25.347   8.285
  845POPC   C3B13869   7.255  25.493   7.839
  845POPC   C4B13870   7.183  25.305   7.443
  846POPC   NC313871  38.951   3.440   9.592
  846POPC   PO413872  39.605   3.669   9.445
  846POPC   GL113873  39.418   3.765   9.077
  846POPC   GL213874  39.197   3.470   9.093
  846POPC   C1A13875  39.436   3.729   8.628
  846POPC   D2A13876  39.316   3.385   8.382
  846POPC   C3A13877  39.407   3.498   7.977
  846POPC   C4A13878  39.459   3.775   7.628
  846POPC   C1B13879  38.954   3.730   8.806
  846POPC   C2B13880  38.957   3.725   8.357
  846POPC   C3B13881  38.902   3.485   8.018
  846POPC   C4B13882  39.064   3.440   7.609
  847POPC   NC313883  33.276  44.219   9.395
  847POPC   PO413884  32.847  43.703   9.477
  847POPC   GL113885  32.977  43.850   9.099
  847POPC   GL213886  32.639  43.850   9.009
  847POPC   C1A13887  33.081  43.724   8.664
  847POPC   D2A13888  32.888  43.831   8.259
  847POPC   C3A13889  33.149  43.806   7.914
  847POPC   C4A13890  33.328  43.813   7.507
  847POPC   C1B13891  32.746  44.104   8.673
  847POPC   C2B13892  32.559  44.264   8.321
  847POPC   C3B13893  32.703  44.201   7.914
  847POPC   C4B13894  32.650  43.768   7.806
  848POPC   NC313895  20.327  30.236   9.487
  848POPC   PO413896  21.010  29.966   9.485
  848POPC   GL113897  20.642  29.881   9.224
  848POPC   GL213898  20.526  30.131   9.003
  848POPC   C1A13899  20.442  29.638   8.898
  848POPC   D2A13900  20.360  29.599   8.419
  848POPC   C3A13901  20.752  29.623   8.175
  848POPC   C4A13902  20.888  29.632   7.732
  848POPC   C1B13903  20.258  30.057   8.661
  848POPC   C2B13904  20.422  30.075   8.273
  848POPC   C3B13905  20.684  30.124   7.956
  848POPC   C4B13906  20.320  30.340   7.799
  849POPC   NC313907  33.458   7.394   9.651
  849POPC   PO413908  32.790   7.473   9.648
  849POPC   GL113909  32.747   7.369   9.155
  849POPC   GL213910  33.034   7.403   8.999
  849POPC   C1A13911  32.642   7.515   8.692
  849POPC   D2A13912  32.636   7.702   8.279
  849POPC   C3A13913  32.923   7.561   7.974
  849POPC   C4A13914  33.250   7.840   7.851
  849POPC   C1B13915  32.962   7.086   8.690
  849POPC   C2B13916  33.066   7.098   8.247
  849POPC   C3B13917  32.805   7.048   7.880
  849POPC   C4B13918  32.858   7.026   7.404
  850POPC   NC313919  28.259  18.390   9.563
  850POPC   PO413920  28.106  17.710   9.406
  850POPC   GL113921  28.231  18.075   9.120
  850POPC   GL213922  28.173  18.447   9.088
  850POPC   C1A13923  28.538  18.193   8.793
  850POPC   D2A13924  28.675  18.288   8.371
  850POPC   C3A13925  28.407  18.049   8.097
  850POPC   C4A13926  28.142  18.081   7.733
  850POPC   C1B13927  28.304  18.655   8.766
  850POPC   C2B13928  28.209  18.577   8.361
  850POPC   C3B13929  28.319  18.550   7.968
  850POPC   C4B13930  28.569  18.356   7.742
  851POPC   NC313931  33.885  13.140   9.585
  851POPC   PO413932  34.125  12.554   9.292
  851POPC   GL113933  33.861  12.848   9.078
  851POPC   GL213934  33.650  13.162   9.120
  851POPC   C1A13935  33.966  12.824   8.651
  851POPC   D2A13936  34.132  12.597   8.307
  851POPC   C3A13937  33.952  12.740   7.946
  851POPC   C4A13938  33.702  12.552   7.640
  851POPC   C1B13939  33.469  12.938   8.761
  851POPC   C2B13940  33.571  12.851   8.321
  851POPC   C3B13941  33.431  12.901   7.912
  851POPC   C4B13942  33.412  13.258   7.669
  852POPC   NC313943  26.836  33.132   9.909
  852POPC   PO413944  27.158  32.815   9.423
  852POPC   GL113945  26.884  33.005   9.117
  852POPC   GL213946  26.631  33.167   9.288
  852POPC   C1A13947  26.934  33.072   8.675
  852POPC   D2A13948  27.157  33.017   8.280
  852POPC   C3A13949  26.934  33.094   7.897
  852POPC   C4A13950  26.724  33.125   7.498
  852POPC   C1B13951  26.498  33.312   8.846
  852POPC   C2B13952  26.541  33.205   8.351
  852POPC   C3B13953  26.401  33.039   7.916
  852POPC   C4B13954  26.409  32.699   7.574
  853POPC   NC313955  15.520   1.042   9.403
  853POPC   PO413956  15.233   1.568   9.635
  853POPC   GL113957  15.147   1.330   9.205
  853POPC   GL213958  15.140   0.937   9.056
  853POPC   C1A13959  15.314   1.332   8.781
  853POPC   D2A13960  15.459   1.173   8.426
  853POPC   C3A13961  15.398   1.360   8.062
  853POPC   C4A13962  15.366   1.118   7.725
  853POPC   C1B13963  15.072   0.858   8.580
  853POPC   C2B13964  15.086   0.920   8.115
  853POPC   C3B13965  14.837   1.112   7.758
  853POPC   C4B13966  14.510   1.149   7.440
  854POPC   NC313967  24.538   1.807   9.511
  854POPC   PO413968  23.939   1.787   9.578
  854POPC   GL113969  24.159   1.864   9.190
  854POPC   GL213970  24.254   2.236   9.199
  854POPC   C1A13971  24.384   1.775   8.835
  854POPC   D2A13972  24.211   1.914   8.461
  854POPC   C3A13973  24.421   1.831   8.098
  854POPC   C4A13974  24.648   1.738   7.788
  854POPC   C1B13975  24.426   2.283   8.778
  854POPC   C2B13976  24.672   2.127   8.416
  854POPC   C3B13977  24.694   2.249   7.980
  854POPC   C4B13978  24.525   2.526   7.674
  855POPC   NC313979  32.462  26.389   9.531
  855POPC   PO413980  31.888  25.986   9.464
  855POPC   GL113981  32.051  26.250   9.138
  855POPC   GL213982  32.414  26.234   9.050
  855POPC   C1A13983  31.958  26.298   8.689
  855POPC   D2A13984  32.127  26.337   8.267
  855POPC   C3A13985  32.047  25.949   8.030
  855POPC   C4A13986  32.364  25.691   7.886
  855POPC   C1B13987  32.432  26.125   8.620
  855POPC   C2B13988  32.535  26.063   8.201
  855POPC   C3B13989  32.410  26.229   7.818
  855POPC   C4B13990  32.530  26.421   7.404
  856POPC   NC313991  16.055  21.330   9.322
  856POPC   PO413992  15.578  21.789   9.358
  856POPC   GL113993  15.665  21.484   9.016
  856POPC   GL213994  15.700  21.097   9.022
  856POPC   C1A13995  15.528  21.393   8.613
  856POPC   D2A13996  15.773  21.407   8.230
  856POPC   C3A13997  15.708  21.683   7.871
  856POPC   C4A13998  16.058  21.564   7.579
  856POPC   C1B13999  15.985  21.169   8.678
  856POPC   C2B14000  16.171  21.070   8.291
  856POPC   C3B14001  16.113  21.116   7.819
  856POPC   C4B14002  16.002  21.077   7.354
  857POPC   NC314003   7.823   8.337   9.355
  857POPC   PO414004   7.393   7.959   9.711
  857POPC   GL114005   7.454   8.034   9.195
  857POPC   GL214006   7.199   8.064   8.966
  857POPC   C1A14007   7.549   8.326   8.728
  857POPC   D2A14008   7.674   8.410   8.288
  857POPC   C3A14009   7.363   8.224   7.960
  857POPC   C4A14010   7.235   8.151   7.502
  857POPC   C1B14011   7.665   7.846   8.798
  857POPC   C2B14012   7.708   7.902   8.359
  857POPC   C3B14013   7.451   7.711   8.039
  857POPC   C4B14014   7.224   7.681   7.646
  858POPC   NC314015  35.514  28.701   9.526
  858POPC   PO414016  35.584  27.998   9.592
  858POPC   GL114017  35.628  28.248   9.229
  858POPC   GL214018  35.323  28.429   9.141
  858POPC   C1A14019  35.596  28.177   8.794
  858POPC   D2A14020  35.314  28.237   8.479
  858POPC   C3A14021  35.525  28.278   8.083
  858POPC   C4A14022  35.353  28.162   7.714
  858POPC   C1B14023  35.255  28.658   8.758
  858POPC   C2B14024  35.416  28.727   8.364
  858POPC   C3B14025  35.584  28.813   7.982
  858POPC   C4B14026  35.594  28.614   7.603
  859POPC   NC314027  20.462   0.302   9.637
  859POPC   PO414028  21.020   0.652   9.543
  859POPC   GL114029  20.821   0.478   9.136
  859POPC   GL214030  20.464   0.408   9.111
  859POPC   C1A14031  20.884   0.424   8.683
  859POPC   D2A14032  21.057   0.105   8.405
  859POPC   C3A14033  21.010   0.200   7.961
  859POPC   C4A14034  20.675   0.406   7.731
  859POPC   C1B14035  20.392   0.615   8.721
  859POPC   C2B14036  20.529   0.568   8.286
  859POPC   C3B14037  20.408   0.825   7.947
  859POPC   C4B14038  20.309   0.699   7.517
  860POPC   NC314039  38.355  21.256   9.608
  860POPC   PO414040  38.908  20.913   9.460
  860POPC   GL114041  38.797  21.303   9.232
  860POPC   GL214042  38.471  21.332   9.152
  860POPC   C1A14043  38.729  21.555   8.807
  860POPC   D2A14044  38.424  21.681   8.468
  860POPC   C3A14045  38.425  21.487   8.063
  860POPC   C4A14046  38.644  21.528   7.678
  860POPC   C1B14047  38.240  21.346   8.834
  860POPC   C2B14048  38.312  21.165   8.463
  860POPC   C3B14049  38.129  21.085   8.083
  860POPC   C4B14050  38.354  21.010   7.717
  861POPC   NC314051   5.538  39.854   9.562
  861POPC   PO414052   4.922  40.174   9.607
  861POPC   GL114053   5.206  40.194   9.280
  861POPC   GL214054   4.910  40.283   9.102
  861POPC   C1A14055   5.305  39.993   8.876
  861POPC   D2A14056   5.260  40.080   8.434
  861POPC   C3A14057   5.365  39.890   8.014
  861POPC   C4A14058   5.433  40.057   7.566
  861POPC   C1B14059   4.797  39.968   8.813
  861POPC   C2B14060   4.743  40.058   8.401
  861POPC   C3B14061   4.942  40.361   8.161
  861POPC   C4B14062   4.988  40.235   7.756
  862POPC   NC314063  32.754  33.432   9.547
  862POPC   PO414064  33.159  32.863   9.555
  862POPC   GL114065  33.162  33.158   9.203
  862POPC   GL214066  32.852  33.023   9.097
  862POPC   C1A14067  33.195  33.160   8.724
  862POPC   D2A14068  33.010  32.907   8.362
  862POPC   C3A14069  33.102  33.023   7.938
  862POPC   C4A14070  33.324  32.781   7.656
  862POPC   C1B14071  32.684  33.104   8.676
  862POPC   C2B14072  32.514  33.073   8.238
  862POPC   C3B14073  32.611  33.045   7.799
  862POPC   C4B14074  32.773  33.329   7.476
  863POPC   NC314075  10.997  33.354   9.639
  863POPC   PO414076  11.314  32.733   9.541
  863POPC   GL114077  11.200  32.903   9.166
  863POPC   GL214078  11.281  33.219   9.223
  863POPC   C1A14079  11.276  33.001   8.731
  863POPC   D2A14080  11.525  33.285   8.456
  863POPC   C3A14081  11.404  33.255   8.069
  863POPC   C4A14082  11.267  33.023   7.786
  863POPC   C1B14083  10.948  33.335   8.948
  863POPC   C2B14084  10.917  33.545   8.578
  863POPC   C3B14085  10.980  33.555   8.141
  863POPC   C4B14086  10.842  33.310   7.766
  864POPC   NC314087  18.789   2.084   9.599
  864POPC   PO414088  19.445   2.207   9.415
  864POPC   GL114089  19.065   1.996   9.165
  864POPC   GL214090  18.681   1.897   9.139
  864POPC   C1A14091  19.025   1.722   8.792
  864POPC   D2A14092  19.039   1.565   8.364
  864POPC   C3A14093  19.104   1.846   8.024
  864POPC   C4A14094  19.276   1.748   7.633
  864POPC   C1B14095  18.722   2.135   8.795
  864POPC   C2B14096  18.980   2.183   8.416
  864POPC   C3B14097  19.038   2.349   7.987
  864POPC   C4B14098  19.038   2.205   7.524
  865POPC   NC314099  30.498   1.729   9.615
  865POPC   PO414100  30.997   2.139   9.707
  865POPC   GL114101  30.730   2.082   9.286
  865POPC   GL214102  30.640   1.774   9.133
  865POPC   C1A14103  30.530   2.202   8.876
  865POPC   D2A14104  30.513   2.021   8.457
  865POPC   C3A14105  30.570   2.241   8.045
  865POPC   C4A14106  30.533   2.033   7.627
  865POPC   C1B14107  30.653   1.570   8.763
  865POPC   C2B14108  30.485   1.510   8.370
  865POPC   C3B14109  30.600   1.733   8.019
  865POPC   C4B14110  30.900   1.665   7.702
  866POPC   NC314111   2.258  35.870   9.235
  866POPC   PO414112   1.746  36.076   9.643
  866POPC   GL114113   1.705  36.063   9.223
  866POPC   GL214114   1.779  36.409   9.158
  866POPC   C1A14115   1.807  36.003   8.795
  866POPC   D2A14116   2.135  36.185   8.548
  866POPC   C3A14117   2.135  35.996   8.145
  866POPC   C4A14118   1.774  35.848   7.943
  866POPC   C1B14119   1.573  36.426   8.720
  866POPC   C2B14120   1.662  36.196   8.315
  866POPC   C3B14121   1.825  36.380   7.942
  866POPC   C4B14122   1.615  36.791   7.896
  867POPC   NC314123  41.917   1.462   9.239
  867POPC   PO414124  41.639   1.924   9.584
  867POPC   GL114125  41.551   1.860   9.142
  867POPC   GL214126  41.378   1.542   9.147
  867POPC   C1A14127  41.586   2.081   8.712
  867POPC   D2A14128  41.841   1.986   8.328
  867POPC   C3A14129  41.943   2.258   8.001
  867POPC   C4A14130  41.670   2.208   7.657
  867POPC   C1B14131  41.214   1.728   8.782
  867POPC   C2B14132  41.402   1.665   8.408
  867POPC   C3B14133  41.408   1.903   8.053
  867POPC   C4B14134  41.279   1.855   7.663
  868POPC   NC314135  23.707   0.065   9.691
  868POPC   PO414136  23.587  44.449   9.477
  868POPC   GL114137  23.792  44.756   9.227
  868POPC   GL214138  23.450  44.872   9.172
  868POPC   C1A14139  24.064  44.651   8.842
  868POPC   D2A14140  24.124  44.743   8.375
  868POPC   C3A14141  24.005  44.424   8.051
  868POPC   C4A14142  23.649  44.351   7.741
  868POPC   C1B14143  23.465  44.618   8.779
  868POPC   C2B14144  23.589  44.531   8.345
  868POPC   C3B14145  23.353  44.681   7.993
  868POPC   C4B14146  23.161  44.414   7.628
  869POPC   NC314147  19.622  22.756   9.566
  869POPC   PO414148  20.260  22.630   9.441
  869POPC   GL114149  20.024  22.950   9.160
  869POPC   GL214150  19.633  22.993   9.141
  869POPC   C1A14151  19.940  23.195   8.779
  869POPC   D2A14152  19.912  23.040   8.362
  869POPC   C3A14153  19.802  23.064   7.921
  869POPC   C4A14154  19.704  22.915   7.495
  869POPC   C1B14155  19.431  23.240   8.870
  869POPC   C2B14156  19.503  23.353   8.471
  869POPC   C3B14157  19.457  23.403   8.035
  869POPC   C4B14158  19.403  23.314   7.599
  870POPC   NC314159  36.321  14.270   9.595
  870POPC   PO414160  36.013  14.836   9.794
  870POPC   GL114161  36.112  14.668   9.348
  870POPC   GL214162  35.935  14.344   9.232
  870POPC   C1A14163  36.382  14.489   8.979
  870POPC   D2A14164  36.279  14.208   8.616
  870POPC   C3A14165  36.344  14.278   8.169
  870POPC   C4A14166  36.208  14.465   7.780
  870POPC   C1B14167  35.917  14.621   8.862
  870POPC   C2B14168  35.856  14.491   8.436
  870POPC   C3B14169  35.778  14.387   8.017
  870POPC   C4B14170  35.756  14.695   7.681
  871POPC   NC314171  43.638  26.250   9.438
  871POPC   PO414172  44.244  26.270   9.713
  871POPC   GL114173  44.087  26.091   9.280
  871POPC   GL214174  43.930  25.773   9.308
  871POPC   C1A14175  43.883  26.246   8.844
  871POPC   D2A14176  44.117  26.241   8.450
  871POPC   C3A14177  43.896  26.186   8.083
  871POPC   C4A14178  43.971  26.415   7.735
  871POPC   C1B14179  44.037  25.768   8.858
  871POPC   C2B14180  43.856  25.791   8.437
  871POPC   C3B14181  43.977  25.673   8.016
  871POPC   C4B14182  43.974  25.899   7.631
  872POPC   NC314183  27.279   2.911   9.512
  872POPC   PO414184  28.036   2.737   9.518
  872POPC   GL114185  27.667   2.741   9.254
  872POPC   GL214186  27.822   2.627   9.032
  872POPC   C1A14187  27.404   2.841   8.846
  872POPC   D2A14188  27.528   2.712   8.396
  872POPC   C3A14189  27.428   2.898   7.974
  872POPC   C4A14190  27.765   2.901   7.660
  872POPC   C1B14191  27.842   2.433   8.685
  872POPC   C2B14192  27.808   2.241   8.304
  872POPC   C3B14193  27.704   2.468   7.943
  872POPC   C4B14194  27.673   2.458   7.446
  873POPC   NC314195  44.246  34.829   9.565
  873POPC   PO414196  43.731  34.410   9.817
  873POPC   GL114197  43.710  34.471   9.316
  873POPC   GL214198  43.719  34.184   9.091
  873POPC   C1A14199  43.774  34.620   8.821
  873POPC   D2A14200  43.609  34.630   8.367
  873POPC   C3A14201  43.714  34.834   7.954
  873POPC   C4A14202  43.959  34.868   7.584
  873POPC   C1B14203  43.462  34.175   8.711
  873POPC   C2B14204  43.510  34.117   8.249
  873POPC   C3B14205  43.552  34.275   7.823
  873POPC   C4B14206  43.850  34.383   7.536
  874POPC   NC314207  39.323   4.783   9.535
  874POPC   PO414208  39.640   5.309   9.439
  874POPC   GL114209  39.361   5.363   9.085
  874POPC   GL214210  39.342   5.024   9.089
  874POPC   C1A14211  39.015   5.258   8.770
  874POPC   D2A14212  38.974   4.981   8.384
  874POPC   C3A14213  39.355   5.044   8.144
  874POPC   C4A14214  39.471   5.216   7.764
  874POPC   C1B14215  39.157   4.752   8.820
  874POPC   C2B14216  39.330   4.606   8.460
  874POPC   C3B14217  39.143   4.565   8.068
  874POPC   C4B14218  38.972   4.886   7.841
  875POPC   NC314219   6.043  27.891   9.452
  875POPC   PO414220   5.950  27.232   9.443
  875POPC   GL114221   5.771  27.325   9.110
  875POPC   GL214222   6.025  27.585   9.038
  875POPC   C1A14223   5.640  27.456   8.720
  875POPC   D2A14224   5.807  27.700   8.388
  875POPC   C3A14225   5.932  27.543   7.989
  875POPC   C4A14226   5.721  27.343   7.710
  875POPC   C1B14227   6.217  27.825   8.707
  875POPC   C2B14228   6.293  27.791   8.242
  875POPC   C3B14229   6.141  28.044   7.878
  875POPC   C4B14230   6.211  28.040   7.420
  876POPC   NC314231  22.536  13.590   9.478
  876POPC   PO414232  21.883  13.476   9.491
  876POPC   GL114233  22.082  13.674   9.145
  876POPC   GL214234  21.817  13.825   9.008
  876POPC   C1A14235  22.214  13.620   8.694
  876POPC   D2A14236  22.611  13.598   8.431
  876POPC   C3A14237  22.470  13.506   8.013
  876POPC   C4A14238  22.250  13.282   7.670
  876POPC   C1B14239  21.686  13.544   8.700
  876POPC   C2B14240  21.831  13.547   8.284
  876POPC   C3B14241  21.648  13.613   7.900
  876POPC   C4B14242  21.745  13.818   7.532
  877POPC   NC314243  18.352  29.294   9.470
  877POPC   PO414244  18.449  28.622   9.375
  877POPC   GL114245  18.386  28.912   9.067
  877POPC   GL214246  18.073  28.943   9.177
  877POPC   C1A14247  18.267  28.911   8.630
  877POPC   D2A14248  18.173  28.827   8.194
  877POPC   C3A14249  18.293  29.092   7.845
  877POPC   C4A14250  18.443  29.042   7.386
  877POPC   C1B14251  18.000  29.263   8.879
  877POPC   C2B14252  18.070  29.355   8.447
  877POPC   C3B14253  17.872  29.301   8.057
  877POPC   C4B14254  17.957  29.344   7.602
  878POPC   NC314255  12.545  35.615   9.315
  878POPC   PO414256  11.860  35.325   9.588
  878POPC   GL114257  12.107  35.289   9.214
  878POPC   GL214258  12.094  35.599   9.052
  878POPC   C1A14259  12.145  35.227   8.750
  878POPC   D2A14260  12.227  35.461   8.417
  878POPC   C3A14261  12.004  35.327   8.091
  878POPC   C4A14262  12.074  35.323   7.698
  878POPC   C1B14263  11.792  35.653   8.715
  878POPC   C2B14264  11.789  35.762   8.266
  878POPC   C3B14265  11.665  35.595   7.841
  878POPC   C4B14266  11.758  35.544   7.386
  879POPC   NC314267  36.623  30.199   9.448
  879POPC   PO414268  37.188  29.844   9.568
  879POPC   GL114269  37.080  29.923   9.174
  879POPC   GL214270  37.274  30.214   9.126
  879POPC   C1A14271  36.861  29.702   8.818
  879POPC   D2A14272  36.732  29.583   8.382
  879POPC   C3A14273  36.742  29.860   7.985
  879POPC   C4A14274  36.890  29.818   7.547
  879POPC   C1B14275  37.061  30.179   8.738
  879POPC   C2B14276  37.084  29.992   8.347
  879POPC   C3B14277  37.153  30.167   7.929
  879POPC   C4B14278  37.277  30.142   7.509
  880POPC   NC314279  34.525  27.207   9.426
  880POPC   PO414280  34.740  27.819   9.482
  880POPC   GL114281  34.634  27.855   9.104
  880POPC   GL214282  34.397  27.598   9.124
  880POPC   C1A14283  34.489  28.012   8.752
  880POPC   D2A14284  34.313  27.822   8.392
  880POPC   C3A14285  34.458  27.896   7.978
  880POPC   C4A14286  34.576  27.710   7.554
  880POPC   C1B14287  34.509  27.495   8.738
  880POPC   C2B14288  34.746  27.518   8.382
  880POPC   C3B14289  34.701  27.453   7.989
  880POPC   C4B14290  34.910  27.157   7.776
  881POPC   NC314291   0.219   1.519   9.614
  881POPC   PO414292   0.381   0.865   9.597
  881POPC   GL114293   0.285   1.181   9.227
  881POPC   GL214294   0.622   1.144   9.095
  881POPC   C1A14295   0.345   1.442   8.806
  881POPC   D2A14296   0.597   1.342   8.463
  881POPC   C3A14297   0.346   1.490   8.150
  881POPC   C4A14298   0.194   1.427   7.781
  881POPC   C1B14299   0.318   0.938   8.775
  881POPC   C2B14300   0.381   0.787   8.363
  881POPC   C3B14301   0.385   0.981   7.973
  881POPC   C4B14302   0.675   1.244   7.801
  882POPC   NC314303  36.044  19.608   9.598
  882POPC   PO414304  36.494  20.061   9.589
  882POPC   GL114305  36.237  19.935   9.176
  882POPC   GL214306  35.966  19.707   9.103
  882POPC   C1A14307  36.229  19.875   8.699
  882POPC   D2A14308  36.058  20.077   8.316
  882POPC   C3A14309  36.162  19.901   7.921
  882POPC   C4A14310  36.296  19.568   7.638
  882POPC   C1B14311  35.703  19.393   8.917
  882POPC   C2B14312  35.721  19.359   8.465
  882POPC   C3B14313  35.728  19.684   8.133
  882POPC   C4B14314  35.739  19.762   7.665
  883POPC   NC314315  39.186  31.909   9.610
  883POPC   PO414316  39.369  31.302   9.573
  883POPC   GL114317  39.372  31.311   9.127
  883POPC   GL214318  39.085  31.510   9.187
  883POPC   C1A14319  39.276  31.324   8.670
  883POPC   D2A14320  39.136  31.202   8.267
  883POPC   C3A14321  39.258  31.528   8.041
  883POPC   C4A14322  39.460  31.787   7.830
  883POPC   C1B14323  38.975  31.680   8.818
  883POPC   C2B14324  38.872  31.725   8.408
  883POPC   C3B14325  38.757  31.557   8.041
  883POPC   C4B14326  38.945  31.246   7.777
  884POPC   NC314327  39.886  23.744   9.540
  884POPC   PO414328  40.587  23.753   9.587
  884POPC   GL114329  40.288  23.911   9.223
  884POPC   GL214330  40.089  23.667   9.078
  884POPC   C1A14331  40.143  24.087   8.781
  884POPC   D2A14332  39.910  24.066   8.381
  884POPC   C3A14333  40.013  23.857   7.966
  884POPC   C4A14334  40.181  23.800   7.523
  884POPC   C1B14335  39.890  23.512   8.717
  884POPC   C2B14336  39.730  23.507   8.315
  884POPC   C3B14337  39.638  23.299   7.936
  884POPC   C4B14338  39.694  23.607   7.634
  885POPC   NC314339  39.542  33.392   9.727
  885POPC   PO414340  38.894  33.185   9.699
  885POPC   GL114341  38.966  33.119   9.220
  885POPC   GL214342  39.331  33.095   9.143
  885POPC   C1A14343  39.029  33.063   8.751
  885POPC   D2A14344  39.097  32.800   8.399
  885POPC   C3A14345  39.011  33.024   8.030
  885POPC   C4A14346  39.237  33.174   7.692
  885POPC   C1B14347  39.496  32.856   8.838
  885POPC   C2B14348  39.641  32.959   8.444
  885POPC   C3B14349  39.510  32.936   8.065
  885POPC   C4B14350  39.541  32.743   7.687
  886POPC   NC314351   0.708  41.030   9.294
  886POPC   PO414352   1.321  40.881   9.579
  886POPC   GL114353   1.196  40.958   9.181
  886POPC   GL214354   1.096  40.639   9.019
  886POPC   C1A14355   1.213  41.052   8.754
  886POPC   D2A14356   1.137  40.702   8.494
  886POPC   C3A14357   1.226  40.724   8.071
  886POPC   C4A14358   1.082  40.879   7.680
  886POPC   C1B14359   1.398  40.334   8.828
  886POPC   C2B14360   1.408  40.257   8.400
  886POPC   C3B14361   1.560  40.313   7.986
  886POPC   C4B14362   1.459  40.535   7.608
  887POPC   NC314363  37.458  41.212   9.419
  887POPC   PO414364  38.042  41.472   9.698
  887POPC   GL114365  37.863  41.551   9.222
  887POPC   GL214366  37.537  41.743   9.198
  887POPC   C1A14367  37.944  41.519   8.744
  887POPC   D2A14368  37.755  41.378   8.335
  887POPC   C3A14369  37.840  41.413   7.859
  887POPC   C4A14370  37.665  41.763   7.585
  887POPC   C1B14371  37.422  41.480   8.826
  887POPC   C2B14372  37.271  41.496   8.424
  887POPC   C3B14373  37.386  41.642   8.029
  887POPC   C4B14374  37.327  41.281   7.817
  888POPC   NC314375  17.503  31.832   9.501
  888POPC   PO414376  17.774  31.213   9.499
  888POPC   GL114377  17.588  31.409   9.188
  888POPC   GL214378  17.318  31.485   9.101
  888POPC   C1A14379  17.580  31.204   8.779
  888POPC   D2A14380  17.352  31.177   8.392
  888POPC   C3A14381  17.608  31.308   8.036
  888POPC   C4A14382  17.637  31.141   7.659
  888POPC   C1B14383  17.372  31.646   8.664
  888POPC   C2B14384  17.530  31.756   8.232
  888POPC   C3B14385  17.455  31.711   7.752
  888POPC   C4B14386  17.110  31.838   7.448
  889POPC   NC314387  41.548  17.274   9.331
  889POPC   PO414388  41.513  16.719   9.731
  889POPC   GL114389  41.618  16.686   9.260
  889POPC   GL214390  41.864  16.948   9.127
  889POPC   C1A14391  41.416  16.489   8.856
  889POPC   D2A14392  41.196  16.658   8.456
  889POPC   C3A14393  41.411  16.688   8.045
  889POPC   C4A14394  41.504  16.805   7.595
  889POPC   C1B14395  41.745  16.852   8.721
  889POPC   C2B14396  41.762  16.968   8.305
  889POPC   C3B14397  41.905  16.784   7.937
  889POPC   C4B14398  42.001  16.890   7.524
  890POPC   NC314399  40.996  35.155   9.614
  890POPC   PO414400  40.740  35.715   9.399
  890POPC   GL114401  40.982  35.612   9.049
  890POPC   GL214402  41.116  35.325   9.149
  890POPC   C1A14403  40.809  35.654   8.647
  890POPC   D2A14404  40.498  35.385   8.437
  890POPC   C3A14405  40.627  35.361   8.000
  890POPC   C4A14406  41.033  35.376   7.792
  890POPC   C1B14407  40.801  35.186   8.834
  890POPC   C2B14408  40.976  35.209   8.407
  890POPC   C3B14409  41.113  34.946   8.056
  890POPC   C4B14410  40.758  34.914   7.772
  891POPC   NC314411  21.705  26.428   9.611
  891POPC   PO414412  21.031  26.527   9.313
  891POPC   GL114413  21.254  26.922   9.051
  891POPC   GL214414  21.588  27.028   9.215
  891POPC   C1A14415  21.238  26.960   8.614
  891POPC   D2A14416  21.077  26.623   8.361
  891POPC   C3A14417  21.272  26.539   7.972
  891POPC   C4A14418  21.689  26.346   7.917
  891POPC   C1B14419  21.737  26.881   8.792
  891POPC   C2B14420  21.648  26.749   8.331
  891POPC   C3B14421  21.549  26.979   7.941
  891POPC   C4B14422  21.720  27.136   7.516
  892POPC   NC314423   6.066  24.155   9.644
  892POPC   PO414424   5.873  24.801   9.405
  892POPC   GL114425   5.937  24.584   9.053
  892POPC   GL214426   6.277  24.484   9.049
  892POPC   C1A14427   5.696  24.576   8.684
  892POPC   D2A14428   5.725  24.387   8.283
  892POPC   C3A14429   5.802  24.652   7.999
  892POPC   C4A14430   6.126  24.701   7.690
  892POPC   C1B14431   6.193  24.515   8.612
  892POPC   C2B14432   6.223  24.187   8.326
  892POPC   C3B14433   6.154  24.256   7.917
  892POPC   C4B14434   5.780  24.169   7.769
  893POPC   NC314435  31.702  25.541   9.426
  893POPC   PO414436  32.359  25.187   9.441
  893POPC   GL114437  32.095  25.376   9.131
  893POPC   GL214438  32.021  25.092   8.913
  893POPC   C1A14439  32.077  25.610   8.730
  893POPC   D2A14440  32.121  25.467   8.298
  893POPC   C3A14441  31.825  25.456   7.963
  893POPC   C4A14442  31.839  25.073   7.692
  893POPC   C1B14443  32.440  25.235   8.777
  893POPC   C2B14444  32.577  25.153   8.378
  893POPC   C3B14445  32.440  25.192   7.953
  893POPC   C4B14446  32.761  25.098   7.672
  894POPC   NC314447  17.434  19.100   9.429
  894POPC   PO414448  17.165  19.741   9.420
  894POPC   GL114449  17.284  19.460   9.101
  894POPC   GL214450  17.082  19.186   9.038
  894POPC   C1A14451  17.458  19.304   8.712
  894POPC   D2A14452  17.828  19.232   8.483
  894POPC   C3A14453  17.767  19.136   8.052
  894POPC   C4A14454  18.023  19.187   7.697
  894POPC   C1B14455  17.297  18.826   8.829
  894POPC   C2B14456  17.472  18.780   8.403
  894POPC   C3B14457  17.304  18.870   7.990
  894POPC   C4B14458  17.248  19.199   7.669
  895POPC   NC314459  38.564   2.865   9.542
  895POPC   PO414460  37.939   2.574   9.509
  895POPC   GL114461  38.301   2.580   9.174
  895POPC   GL214462  38.489   2.878   9.054
  895POPC   C1A14463  38.601   2.501   8.783
  895POPC   D2A14464  38.464   2.744   8.423
  895POPC   C3A14465  38.479   2.651   7.970
  895POPC   C4A14466  38.219   2.627   7.572
  895POPC   C1B14467  38.801   2.994   8.714
  895POPC   C2B14468  38.856   3.053   8.303
  895POPC   C3B14469  38.488   3.155   8.072
  895POPC   C4B14470  38.670   3.156   7.689
  896POPC   NC314471  31.893  33.695   9.523
  896POPC   PO414472  32.558  33.890   9.443
  896POPC   GL114473  32.236  33.829   9.143
  896POPC   GL214474  32.011  33.520   9.078
  896POPC   C1A14475  32.435  33.830   8.756
  896POPC   D2A14476  32.565  34.160   8.507
  896POPC   C3A14477  32.599  34.032   8.098
  896POPC   C4A14478  32.300  33.999   7.779
  896POPC   C1B14479  31.956  33.731   8.687
  896POPC   C2B14480  32.134  33.824   8.276
  896POPC   C3B14481  31.909  33.702   7.891
  896POPC   C4B14482  31.953  33.865   7.443
  897POPC   NC314483  21.135  39.054   9.361
  897POPC   PO414484  21.526  39.613   9.582
  897POPC   GL114485  21.404  39.476   9.204
  897POPC   GL214486  21.706  39.297   9.131
  897POPC   C1A14487  21.231  39.368   8.808
  897POPC   D2A14488  21.338  39.534   8.460
  897POPC   C3A14489  21.204  39.383   8.101
  897POPC   C4A14490  21.163  39.341   7.692
  897POPC   C1B14491  21.617  39.043   8.757
  897POPC   C2B14492  21.692  39.158   8.331
  897POPC   C3B14493  21.645  39.213   7.905
  897POPC   C4B14494  21.654  39.276   7.464
  898POPC   NC314495  21.149   0.208   9.405
  898POPC   PO414496  21.797   0.469   9.444
  898POPC   GL114497  21.546   0.327   9.061
  898POPC   GL214498  21.237   0.107   8.932
  898POPC   C1A14499  21.560   0.446   8.633
  898POPC   D2A14500  21.252   0.590   8.355
  898POPC   C3A14501  21.372   0.551   7.952
  898POPC   C4A14502  21.168   0.487   7.543
  898POPC   C1B14503  21.500  44.939   8.642
  898POPC   C2B14504  21.529   0.052   8.213
  898POPC   C3B14505  21.465   0.075   7.761
  898POPC   C4B14506  21.513   0.141   7.318
  899POPC   NC314507  24.700   3.866   9.472
  899POPC   PO414508  24.385   4.431   9.697
  899POPC   GL114509  24.510   4.311   9.260
  899POPC   GL214510  24.193   4.311   9.139
  899POPC   C1A14511  24.555   4.162   8.788
  899POPC   D2A14512  24.503   4.318   8.329
  899POPC   C3A14513  24.541   4.143   7.886
  899POPC   C4A14514  24.872   4.220   7.564
  899POPC   C1B14515  24.204   4.550   8.778
  899POPC   C2B14516  24.043   4.515   8.379
  899POPC   C3B14517  24.186   4.518   7.956
  899POPC   C4B14518  23.956   4.649   7.615
  900POPC   NC314519  40.449   6.141   9.515
  900POPC   PO414520  41.057   5.877   9.496
  900POPC   GL114521  40.767   5.921   9.184
  900POPC   GL214522  40.813   6.269   9.129
  900POPC   C1A14523  40.844   5.789   8.790
  900POPC   D2A14524  40.723   5.924   8.428
  900POPC   C3A14525  40.915   5.830   8.042
  900POPC   C4A14526  40.825   5.474   7.798
  900POPC   C1B14527  40.489   6.185   8.817
  900POPC   C2B14528  40.255   6.149   8.425
  900POPC   C3B14529  40.416   6.011   8.047
  900POPC   C4B14530  40.637   6.156   7.739
  901POPC   NC314531  43.431  42.755   9.203
  901POPC   PO414532  43.210  43.289   9.380
  901POPC   GL114533  43.021  43.080   9.070
  901POPC   GL214534  42.937  42.730   9.079
  901POPC   C1A14535  43.106  43.125   8.668
  901POPC   D2A14536  42.955  43.062   8.276
  901POPC   C3A14537  43.167  43.292   7.937
  901POPC   C4A14538  42.922  43.569   7.673
  901POPC   C1B14539  43.090  42.611   8.691
  901POPC   C2B14540  43.308  42.703   8.342
  901POPC   C3B14541  43.146  42.763   7.900
  901POPC   C4B14542  43.373  42.866   7.530
  902POPC   NC314543  12.954  35.714   9.656
  902POPC   PO414544  12.553  35.163   9.448
  902POPC   GL114545  12.754  35.251   9.051
  902POPC   GL214546  13.072  35.301   8.906
  902POPC   C1A14547  12.623  35.201   8.648
  902POPC   D2A14548  12.763  35.178   8.284
  902POPC   C3A14549  12.516  35.356   7.993
  902POPC   C4A14550  12.635  35.574   7.676
  902POPC   C1B14551  12.860  35.649   8.721
  902POPC   C2B14552  12.722  35.710   8.323
  902POPC   C3B14553  13.000  35.570   8.014
  902POPC   C4B14554  13.173  35.570   7.592
  903POPC   NC314555  36.654  33.726   9.891
  903POPC   PO414556  37.204  34.079   9.718
  903POPC   GL114557  37.122  34.038   9.228
  903POPC   GL214558  37.195  34.276   8.965
  903POPC   C1A14559  37.145  33.785   8.828
  903POPC   D2A14560  37.090  33.896   8.384
  903POPC   C3A14561  37.025  33.722   7.949
  903POPC   C4A14562  37.018  33.809   7.485
  903POPC   C1B14563  36.752  34.116   8.880
  903POPC   C2B14564  36.585  34.041   8.487
  903POPC   C3B14565  36.732  34.118   8.105
  903POPC   C4B14566  36.636  34.059   7.722
  904POPC   NC314567  42.768  13.961   9.389
  904POPC   PO414568  43.363  13.763   9.357
  904POPC   GL114569  43.185  13.389   9.134
  904POPC   GL214570  42.809  13.436   9.194
  904POPC   C1A14571  43.277  13.315   8.686
  904POPC   D2A14572  43.065  13.410   8.301
  904POPC   C3A14573  43.302  13.464   7.917
  904POPC   C4A14574  43.636  13.777   7.860
  904POPC   C1B14575  42.854  13.638   8.759
  904POPC   C2B14576  42.791  13.857   8.339
  904POPC   C3B14577  42.823  13.669   7.920
  904POPC   C4B14578  42.796  13.569   7.477
  905POPC   NC314579  26.648   6.382   9.440
  905POPC   PO414580  27.072   6.850   9.667
  905POPC   GL114581  26.996   6.891   9.207
  905POPC   GL214582  26.699   6.755   9.051
  905POPC   C1A14583  27.043   6.989   8.765
  905POPC   D2A14584  27.011   6.763   8.380
  905POPC   C3A14585  26.795   6.958   8.024
  905POPC   C4A14586  26.669   6.843   7.598
  905POPC   C1B14587  26.780   6.454   8.736
  905POPC   C2B14588  26.638   6.418   8.304
  905POPC   C3B14589  26.903   6.472   7.919
  905POPC   C4B14590  26.982   6.478   7.471
  906POPC   NC314591   9.247  43.240   9.485
  906POPC   PO414592   8.867  43.875   9.679
  906POPC   GL114593   8.948  43.853   9.228
  906POPC   GL214594   8.700  44.125   9.110
  906POPC   C1A14595   9.285  43.689   8.939
  906POPC   D2A14596   9.432  43.737   8.494
  906POPC   C3A14597   9.153  43.645   8.138
  906POPC   C4A14598   8.987  43.718   7.715
  906POPC   C1B14599   8.928  44.016   8.717
  906POPC   C2B14600   8.740  43.922   8.318
  906POPC   C3B14601   8.756  44.125   7.922
  906POPC   C4B14602   8.940  44.177   7.485
  907POPC   NC314603  41.296  44.068   9.696
  907POPC   PO414604  41.872  43.815   9.695
  907POPC   GL114605  41.693  44.052   9.282
  907POPC   GL214606  41.307  44.206   9.203
  907POPC   C1A14607  41.811  43.943   8.841
  907POPC   D2A14608  41.590  43.703   8.502
  907POPC   C3A14609  41.814  43.713   8.128
  907POPC   C4A14610  41.971  43.719   7.732
  907POPC   C1B14611  41.314  44.037   8.803
  907POPC   C2B14612  41.178  44.105   8.389
  907POPC   C3B14613  41.349  43.890   8.052
  907POPC   C4B14614  41.534  44.013   7.693
  908POPC   NC314615  44.487  44.289   9.335
  908POPC   PO414616  44.955  44.645   9.609
  908POPC   GL114617  44.735  44.773   9.233
  908POPC   GL214618   0.026  44.804   9.095
  908POPC   C1A14619  44.592  44.747   8.777
  908POPC   D2A14620  44.469  44.380   8.523
  908POPC   C3A14621  44.435  44.483   8.089
  908POPC   C4A14622  44.497  44.860   7.819
  908POPC   C1B14623   0.024  44.465   8.820
  908POPC   C2B14624  44.964  44.648   8.415
  908POPC   C3B14625   0.031  44.497   8.022
  908POPC   C4B14626  44.941  44.431   7.612
  909POPC   NC314627  31.401  28.795   9.408
  909POPC   PO414628  31.273  28.093   9.375
  909POPC   GL114629  31.159  28.383   9.072
  909POPC   GL214630  31.421  28.606   8.962
  909POPC   C1A14631  31.245  28.265   8.655
  909POPC   D2A14632  31.547  28.136   8.368
  909POPC   C3A14633  31.312  28.193   8.048
  909POPC   C4A14634  31.175  28.044   7.706
  909POPC   C1B14635  31.676  28.574   8.631
  909POPC   C2B14636  31.542  28.626   8.227
  909POPC   C3B14637  31.656  28.478   7.815
  909POPC   C4B14638  31.518  28.630   7.424
  910POPC   NC314639  16.667  13.147   9.591
  910POPC   PO414640  16.892  12.540   9.416
  910POPC   GL114641  16.709  12.801   9.111
  910POPC   GL214642  16.587  13.151   9.096
  910POPC   C1A14643  16.643  12.758   8.684
  910POPC   D2A14644  16.725  13.065   8.373
  910POPC   C3A14645  16.855  12.909   7.977
  910POPC   C4A14646  16.935  13.039   7.539
  910POPC   C1B14647  16.279  13.086   8.808
  910POPC   C2B14648  16.196  12.932   8.433
  910POPC   C3B14649  16.304  13.018   8.027
  910POPC   C4B14650  16.466  12.846   7.670
  911POPC   NC314651  39.139  10.407   9.605
  911POPC   PO414652  39.566  10.895   9.434
  911POPC   GL114653  39.125  10.840   9.287
  911POPC   GL214654  39.275  10.546   9.106
  911POPC   C1A14655  38.958  10.850   8.860
  911POPC   D2A14656  39.296  10.856   8.530
  911POPC   C3A14657  39.231  10.668   8.118
  911POPC   C4A14658  39.154  10.683   7.663
  911POPC   C1B14659  39.181  10.359   8.680
  911POPC   C2B14660  39.012  10.203   8.295
  911POPC   C3B14661  39.108  10.217   7.845
  911POPC   C4B14662  39.146  10.242   7.378
  912POPC   NC314663   8.825  26.216   9.381
  912POPC   PO414664   9.259  25.629   9.457
  912POPC   GL114665   9.183  25.947   9.151
  912POPC   GL214666   9.137  26.251   8.991
  912POPC   C1A14667   9.141  25.835   8.726
  912POPC   D2A14668   8.906  25.791   8.395
  912POPC   C3A14669   9.124  25.945   8.038
  912POPC   C4A14670   9.015  25.847   7.601
  912POPC   C1B14671   8.890  26.493   8.744
  912POPC   C2B14672   9.070  26.334   8.409
  912POPC   C3B14673   9.189  26.483   8.050
  912POPC   C4B14674   9.208  26.312   7.674
  913POPC   NC314675  20.203  39.529   9.767
  913POPC   PO414676  20.679  39.100   9.447
  913POPC   GL114677  20.400  39.214   9.098
  913POPC   GL214678  20.354  39.560   9.147
  913POPC   C1A14679  20.454  39.301   8.636
  913POPC   D2A14680  20.861  39.200   8.446
  913POPC   C3A14681  20.874  38.969   8.067
  913POPC   C4A14682  21.012  38.850   7.679
  913POPC   C1B14683  20.777  39.599   8.884
  913POPC   C2B14684  20.854  39.705   8.401
  913POPC   C3B14685  20.710  39.467   7.960
  913POPC   C4B14686  20.362  39.450   7.613
  914POPC   NC314687   6.278  39.966   9.798
  914POPC   PO414688   6.787  40.123   9.274
  914POPC   GL114689   6.571  40.132   8.923
  914POPC   GL214690   6.222  40.288   9.067
  914POPC   C1A14691   6.630  39.811   8.641
  914POPC   D2A14692   6.754  39.782   8.216
  914POPC   C3A14693   6.726  40.145   7.985
  914POPC   C4A14694   6.721  39.932   7.578
  914POPC   C1B14695   6.134  39.990   8.718
  914POPC   C2B14696   6.231  39.760   8.324
  914POPC   C3B14697   6.276  39.897   7.901
  914POPC   C4B14698   6.342  40.267   7.670
  915POPC   NC314699   5.158   5.140   9.629
  915POPC   PO414700   4.684   4.592   9.632
  915POPC   GL114701   4.933   4.873   9.267
  915POPC   GL214702   4.963   5.296   9.201
  915POPC   C1A14703   5.180   4.945   8.884
  915POPC   D2A14704   5.251   4.858   8.439
  915POPC   C3A14705   4.907   5.008   8.144
  915POPC   C4A14706   5.076   4.881   7.736
  915POPC   C1B14707   4.893   5.360   8.758
  915POPC   C2B14708   5.184   5.363   8.401
  915POPC   C3B14709   5.291   5.315   7.985
  915POPC   C4B14710   4.922   5.383   7.749
  916POPC   NC314711  23.631   5.523   9.654
  916POPC   PO414712  23.647   4.851   9.527
  916POPC   GL114713  23.499   5.197   9.267
  916POPC   GL214714  23.856   5.309   9.161
  916POPC   C1A14715  23.362   5.129   8.860
  916POPC   D2A14716  23.591   5.067   8.488
  916POPC   C3A14717  23.442   4.963   8.077
  916POPC   C4A14718  23.768   5.086   7.786
  916POPC   C1B14719  24.064   5.322   8.733
  916POPC   C2B14720  23.949   5.423   8.292
  916POPC   C3B14721  24.153   5.414   7.877
  916POPC   C4B14722  24.066   5.339   7.425
  917POPC   NC314723  25.471  41.062   9.367
  917POPC   PO414724  24.971  40.609   9.469
  917POPC   GL114725  25.077  40.677   9.103
  917POPC   GL214726  24.981  41.062   9.168
  917POPC   C1A14727  25.413  40.619   8.786
  917POPC   D2A14728  25.527  40.943   8.478
  917POPC   C3A14729  25.649  40.799   8.084
  917POPC   C4A14730  25.411  40.749   7.716
  917POPC   C1B14731  25.058  40.988   8.727
  917POPC   C2B14732  25.060  40.706   8.407
  917POPC   C3B14733  25.121  40.948   8.080
  917POPC   C4B14734  24.948  41.005   7.688
  918POPC   NC314735   1.016  30.291   9.575
  918POPC   PO414736   1.532  29.893   9.482
  918POPC   GL114737   1.344  29.843   9.110
  918POPC   GL214738   1.050  30.000   9.145
  918POPC   C1A14739   1.160  29.694   8.718
  918POPC   D2A14740   0.895  29.618   8.358
  918POPC   C3A14741   1.111  29.535   7.996
  918POPC   C4A14742   1.462  29.689   7.752
  918POPC   C1B14743   1.152  30.220   8.787
  918POPC   C2B14744   1.048  30.276   8.373
  918POPC   C3B14745   0.973  30.036   7.998
  918POPC   C4B14746   0.712  30.143   7.637
  919POPC   NC314747  11.798  38.993   9.433
  919POPC   PO414748  12.388  39.210   9.544
  919POPC   GL114749  12.165  39.261   9.183
  919POPC   GL214750  12.453  39.294   9.004
  919POPC   C1A14751  11.888  39.268   8.809
  919POPC   D2A14752  11.827  39.603   8.521
  919POPC   C3A14753  11.923  39.575   8.083
  919POPC   C4A14754  12.047  39.420   7.681
  919POPC   C1B14755  12.273  38.921   8.815
  919POPC   C2B14756  12.179  38.988   8.388
  919POPC   C3B14757  12.253  39.029   7.927
  919POPC   C4B14758  12.302  39.034   7.454
  920POPC   NC314759  13.533  27.511   9.544
  920POPC   PO414760  13.662  28.147   9.544
  920POPC   GL114761  13.493  27.866   9.192
  920POPC   GL214762  13.703  27.602   9.082
  920POPC   C1A14763  13.305  27.718   8.793
  920POPC   D2A14764  13.368  27.928   8.429
  920POPC   C3A14765  13.488  27.744   8.078
  920POPC   C4A14766  13.818  27.781   7.816
  920POPC   C1B14767  13.819  27.365   8.742
  920POPC   C2B14768  13.916  27.478   8.359
  920POPC   C3B14769  13.787  27.324   8.040
  920POPC   C4B14770  13.549  27.373   7.702
  921POPC   NC314771  33.444  32.807   9.913
  921POPC   PO414772  33.884  33.061   9.472
  921POPC   GL114773  33.732  32.950   9.101
  921POPC   GL214774  34.031  32.759   9.044
  921POPC   C1A14775  33.715  33.003   8.660
  921POPC   D2A14776  33.496  33.015   8.279
  921POPC   C3A14777  33.701  33.069   7.892
  921POPC   C4A14778  33.743  33.307   7.520
  921POPC   C1B14779  34.003  32.558   8.666
  921POPC   C2B14780  33.974  32.733   8.258
  921POPC   C3B14781  34.002  32.663   7.826
  921POPC   C4B14782  33.802  32.797   7.438
  922POPC   NC314783  35.160   0.222   9.600
  922POPC   PO414784  35.753   0.513   9.392
  922POPC   GL114785  35.293   0.591   9.231
  922POPC   GL214786  35.038   0.356   9.133
  922POPC   C1A14787  35.296   0.601   8.786
  922POPC   D2A14788  35.496   0.250   8.603
  922POPC   C3A14789  35.503   0.262   8.173
  922POPC   C4A14790  35.456   0.355   7.740
  922POPC   C1B14791  34.823   0.347   8.755
  922POPC   C2B14792  35.033   0.365   8.396
  922POPC   C3B14793  35.096   0.580   8.051
  922POPC   C4B14794  34.980   0.473   7.610
  923POPC   NC314795  38.698  15.282   9.518
  923POPC   PO414796  38.193  14.754   9.625
  923POPC   GL114797  38.530  14.814   9.263
  923POPC   GL214798  38.687  15.087   9.051
  923POPC   C1A14799  38.479  14.708   8.798
  923POPC   D2A14800  38.153  14.827   8.450
  923POPC   C3A14801  38.317  14.904   8.033
  923POPC   C4A14802  38.625  14.886   7.697
  923POPC   C1B14803  38.461  15.203   8.676
  923POPC   C2B14804  38.625  15.356   8.283
  923POPC   C3B14805  38.541  15.349   7.875
  923POPC   C4B14806  38.101  15.313   7.770
  924POPC   NC314807   6.328   5.308   9.403
  924POPC   PO414808   6.913   5.155   9.301
  924POPC   GL114809   6.602   5.143   9.010
  924POPC   GL214810   6.347   4.862   9.137
  924POPC   C1A14811   6.776   5.185   8.609
  924POPC   D2A14812   6.957   4.908   8.320
  924POPC   C3A14813   6.835   5.147   7.988
  924POPC   C4A14814   6.922   5.028   7.588
  924POPC   C1B14815   6.482   4.751   8.707
  924POPC   C2B14816   6.432   4.939   8.298
  924POPC   C3B14817   6.588   4.693   7.960
  924POPC   C4B14818   6.481   4.710   7.537
  925POPC   NC314819   7.083  36.724   9.498
  925POPC   PO414820   6.450  36.849   9.606
  925POPC   GL114821   6.659  36.865   9.182
  925POPC   GL214822   6.376  37.108   9.142
  925POPC   C1A14823   6.628  36.648   8.742
  925POPC   D2A14824   6.764  36.782   8.326
  925POPC   C3A14825   6.594  36.661   7.946
  925POPC   C4A14826   6.800  36.635   7.571
  925POPC   C1B14827   6.565  37.161   8.751
  925POPC   C2B14828   6.391  37.135   8.347
  925POPC   C3B14829   6.560  37.182   7.953
  925POPC   C4B14830   6.450  37.023   7.566
  926POPC   NC314831  18.778  44.144   9.891
  926POPC   PO414832  19.170  43.783   9.431
  926POPC   GL114833  18.931  43.935   9.053
  926POPC   GL214834  19.279  44.090   9.061
  926POPC   C1A14835  18.790  43.927   8.566
  926POPC   D2A14836  19.029  43.940   8.145
  926POPC   C3A14837  18.906  43.944   7.670
  926POPC   C4A14838  18.992  44.210   7.283
  926POPC   C1B14839  19.305  43.860   8.710
  926POPC   C2B14840  19.508  43.982   8.388
  926POPC   C3B14841  19.546  44.186   8.054
  926POPC   C4B14842  19.401  44.050   7.709
  927POPC   NC314843   5.995  40.737   9.669
  927POPC   PO414844   5.408  40.785   9.415
  927POPC   GL114845   5.777  40.830   9.159
  927POPC   GL214846   6.135  40.782   9.185
  927POPC   C1A14847   5.898  40.759   8.732
  927POPC   D2A14848   5.875  40.603   8.323
  927POPC   C3A14849   5.634  40.870   8.033
  927POPC   C4A14850   5.688  40.935   7.617
  927POPC   C1B14851   6.324  41.005   8.856
  927POPC   C2B14852   6.267  40.950   8.404
  927POPC   C3B14853   6.117  41.018   7.969
  927POPC   C4B14854   6.174  40.783   7.555
  928POPC   NC314855  16.100   9.468   9.421
  928POPC   PO414856  15.706   9.946   9.513
  928POPC   GL114857  15.571   9.834   9.110
  928POPC   GL214858  15.934   9.760   9.032
  928POPC   C1A14859  15.635   9.881   8.655
  928POPC   D2A14860  15.964   9.766   8.381
  928POPC   C3A14861  15.786   9.792   7.983
  928POPC   C4A14862  15.637   9.690   7.573
  928POPC   C1B14863  16.315   9.717   8.776
  928POPC   C2B14864  16.529   9.843   8.418
  928POPC   C3B14865  16.287   9.965   8.039
  928POPC   C4B14866  16.085   9.955   7.592
  929POPC   NC314867   8.478  41.808   9.439
  929POPC   PO414868   7.793  41.472   9.476
  929POPC   GL114869   8.176  41.421   9.269
  929POPC   GL214870   8.105  41.698   9.105
  929POPC   C1A14871   8.375  41.372   8.846
  929POPC   D2A14872   8.242  41.192   8.475
  929POPC   C3A14873   8.304  41.444   8.096
  929POPC   C4A14874   8.033  41.312   7.782
  929POPC   C1B14875   7.857  41.497   8.801
  929POPC   C2B14876   7.923  41.654   8.400
  929POPC   C3B14877   7.722  41.767   8.023
  929POPC   C4B14878   7.837  41.754   7.611
  930POPC   NC314879   3.796  39.730   9.535
  930POPC   PO414880   3.278  40.061   9.665
  930POPC   GL114881   3.504  40.049   9.242
  930POPC   GL214882   3.633  39.760   9.059
  930POPC   C1A14883   3.559  40.197   8.823
  930POPC   D2A14884   3.633  39.967   8.442
  930POPC   C3A14885   3.463  40.056   8.038
  930POPC   C4A14886   3.616  40.226   7.632
  930POPC   C1B14887   3.865  39.598   8.718
  930POPC   C2B14888   3.962  39.633   8.258
  930POPC   C3B14889   3.805  39.718   7.835
  930POPC   C4B14890   3.734  39.797   7.353
  931POPC   NC314891  26.311  35.718   9.452
  931POPC   PO414892  26.201  35.037   9.621
  931POPC   GL114893  26.251  35.180   9.182
  931POPC   GL214894  25.981  35.412   9.144
  931POPC   C1A14895  26.326  35.344   8.728
  931POPC   D2A14896  26.197  35.572   8.307
  931POPC   C3A14897  26.298  35.292   7.954
  931POPC   C4A14898  26.386  35.386   7.522
  931POPC   C1B14899  25.879  35.120   8.809
  931POPC   C2B14900  25.862  35.208   8.396
  931POPC   C3B14901  25.759  35.398   8.008
  931POPC   C4B14902  25.848  35.079   7.757
  932POPC   NC314903  43.430   3.009   9.406
  932POPC   PO414904  43.129   2.439   9.425
  932POPC   GL114905  43.226   2.635   9.110
  932POPC   GL214906  42.969   2.880   9.148
  932POPC   C1A14907  43.333   2.527   8.732
  932POPC   D2A14908  43.327   2.738   8.335
  932POPC   C3A14909  43.259   2.502   8.007
  932POPC   C4A14910  43.297   2.633   7.612
  932POPC   C1B14911  43.114   2.985   8.728
  932POPC   C2B14912  42.907   3.065   8.318
  932POPC   C3B14913  42.711   3.185   7.921
  932POPC   C4B14914  42.548   3.000   7.540
  933POPC   NC314915  19.322  10.807   9.371
  933POPC   PO414916  19.239  11.501   9.316
  933POPC   GL114917  18.984  11.267   8.997
  933POPC   GL214918  19.261  11.105   8.940
  933POPC   C1A14919  18.737  11.060   8.673
  933POPC   D2A14920  18.802  10.936   8.228
  933POPC   C3A14921  19.014  11.295   8.012
  933POPC   C4A14922  18.988  11.493   7.586
  933POPC   C1B14923  19.191  11.255   8.524
  933POPC   C2B14924  19.497  11.228   8.255
  933POPC   C3B14925  19.515  10.992   7.890
  933POPC   C4B14926  19.321  11.116   7.494
  934POPC   NC314927   6.827  28.150   9.671
  934POPC   PO414928   6.437  27.601   9.509
  934POPC   GL114929   6.562  27.821   9.171
  934POPC   GL214930   6.922  27.694   9.214
  934POPC   C1A14931   6.762  27.884   8.766
  934POPC   D2A14932   6.975  27.842   8.370
  934POPC   C3A14933   6.728  27.856   7.984
  934POPC   C4A14934   6.402  27.661   7.724
  934POPC   C1B14935   6.972  27.340   8.886
  934POPC   C2B14936   7.068  27.256   8.417
  934POPC   C3B14937   6.843  27.352   8.001
  934POPC   C4B14938   6.810  27.454   7.544
  935POPC   NC314939  27.603  20.063   9.677
  935POPC   PO414940  28.090  19.589   9.682
  935POPC   GL114941  27.701  19.649   9.376
  935POPC   GL214942  27.571  19.947   9.162
  935POPC   C1A14943  27.573  19.500   8.952
  935POPC   D2A14944  27.574  19.766   8.584
  935POPC   C3A14945  27.379  19.623   8.187
  935POPC   C4A14946  27.541  19.717   7.774
  935POPC   C1B14947  27.233  20.059   8.831
  935POPC   C2B14948  27.195  20.067   8.375
  935POPC   C3B14949  27.321  20.169   7.937
  935POPC   C4B14950  27.343  20.100   7.466
  936POPC   NC314951  35.617  31.033   9.528
  936POPC   PO414952  35.263  31.531   9.726
  936POPC   GL114953  35.322  31.493   9.231
  936POPC   GL214954  35.221  31.200   9.122
  936POPC   C1A14955  35.457  31.414   8.748
  936POPC   D2A14956  35.533  31.229   8.383
  936POPC   C3A14957  35.469  31.440   8.034
  936POPC   C4A14958  35.504  31.315   7.633
  936POPC   C1B14959  35.076  31.075   8.677
  936POPC   C2B14960  35.027  31.291   8.269
  936POPC   C3B14961  35.022  31.324   7.799
  936POPC   C4B14962  35.085  31.104   7.393
  937POPC   NC314963  10.626  30.832   9.575
  937POPC   PO414964  10.684  30.210   9.808
  937POPC   GL114965  10.651  30.337   9.306
  937POPC   GL214966  10.344  30.529   9.259
  937POPC   C1A14967  10.644  30.539   8.833
  937POPC   D2A14968  10.402  30.788   8.492
  937POPC   C3A14969  10.653  30.966   8.136
  937POPC   C4A14970  10.809  30.914   7.688
  937POPC   C1B14971  10.158  30.366   8.877
  937POPC   C2B14972  10.343  30.256   8.482
  937POPC   C3B14973  10.279  30.452   8.080
  937POPC   C4B14974  10.320  30.799   7.786
  938POPC   NC314975  31.243  17.127   9.507
  938POPC   PO414976  31.576  16.564   9.368
  938POPC   GL114977  31.483  16.857   9.074
  938POPC   GL214978  31.139  16.915   9.070
  938POPC   C1A14979  31.378  16.701   8.673
  938POPC   D2A14980  31.256  16.464   8.341
  938POPC   C3A14981  31.541  16.593   8.058
  938POPC   C4A14982  31.517  16.650   7.600
  938POPC   C1B14983  31.121  17.147   8.719
  938POPC   C2B14984  30.981  16.938   8.364
  938POPC   C3B14985  31.096  16.812   7.980
  938POPC   C4B14986  31.275  17.100   7.715
  939POPC   NC314987  21.478   0.710   9.678
  939POPC   PO414988  21.429   1.338   9.575
  939POPC   GL114989  21.429   1.161   9.183
  939POPC   GL214990  21.333   0.794   9.168
  939POPC   C1A14991  21.502   1.441   8.821
  939POPC   D2A14992  21.728   1.590   8.461
  939POPC   C3A14993  21.485   1.578   8.095
  939POPC   C4A14994  21.558   1.352   7.738
  939POPC   C1B14995  21.383   0.923   8.736
  939POPC   C2B14996  21.299   1.203   8.396
  939POPC   C3B14997  21.125   1.226   7.976
  939POPC   C4B14998  21.254   0.959   7.638
  940POPC   NC314999   2.941  34.301   9.822
  940POPC   PO415000   2.634  34.749   9.572
  940POPC   GL115001   2.609  34.481   9.152
  940POPC   GL215002   2.970  34.271   9.021
  940POPC   C1A15003   2.668  34.506   8.706
  940POPC   D2A15004   2.476  34.552   8.364
  940POPC   C3A15005   2.622  34.578   7.977
  940POPC   C4A15006   2.562  34.817   7.620
  940POPC   C1B15007   3.169  34.557   8.716
  940POPC   C2B15008   3.040  34.598   8.290
  940POPC   C3B15009   3.081  34.961   8.012
  940POPC   C4B15010   2.990  35.120   7.606
  941POPC   NC315011  41.323  26.560   9.477
  941POPC   PO415012  41.810  27.044   9.502
  941POPC   GL115013  41.713  26.836   9.137
  941POPC   GL215014  41.382  26.962   9.159
  941POPC   C1A15015  41.481  26.702   8.739
  941POPC   D2A15016  41.404  26.738   8.300
  941POPC   C3A15017  41.747  26.617   8.035
  941POPC   C4A15018  41.900  26.677   7.631
  941POPC   C1B15019  41.494  27.218   8.848
  941POPC   C2B15020  41.687  27.147   8.485
  941POPC   C3B15021  41.586  27.180   8.094
  941POPC   C4B15022  41.581  27.040   7.708
  942POPC   NC315023  22.244  30.685   9.446
  942POPC   PO415024  21.630  30.583   9.482
  942POPC   GL115025  21.955  30.486   9.085
  942POPC   GL215026  22.258  30.225   9.178
  942POPC   C1A15027  22.190  30.784   8.748
  942POPC   D2A15028  22.454  30.916   8.361
  942POPC   C3A15029  22.213  30.891   8.020
  942POPC   C4A15030  22.020  30.543   7.888
  942POPC   C1B15031  22.406  30.321   8.747
  942POPC   C2B15032  22.295  30.408   8.307
  942POPC   C3B15033  22.415  30.226   7.881
  942POPC   C4B15034  22.370  30.363   7.424
  943POPC   NC315035   1.901   6.992   9.482
  943POPC   PO415036   1.805   7.592   9.653
  943POPC   GL115037   1.856   7.747   9.219
  943POPC   GL215038   1.596   7.540   9.132
  943POPC   C1A15039   2.040   7.626   8.799
  943POPC   D2A15040   2.087   7.352   8.429
  943POPC   C3A15041   2.012   7.506   8.031
  943POPC   C4A15042   2.104   7.312   7.609
  943POPC   C1B15043   1.613   7.182   8.851
  943POPC   C2B15044   1.738   6.955   8.481
  943POPC   C3B15045   1.885   6.998   8.057
  943POPC   C4B15046   1.693   7.010   7.634
  944POPC   NC315047  35.656  21.201   9.585
  944POPC   PO415048  36.235  21.598   9.645
  944POPC   GL115049  36.237  21.391   9.167
  944POPC   GL215050  36.426  21.100   9.014
  944POPC   C1A15051  35.995  21.272   8.767
  944POPC   D2A15052  36.068  21.109   8.328
  944POPC   C3A15053  36.024  21.349   7.926
  944POPC   C4A15054  35.996  21.691   7.622
  944POPC   C1B15055  36.473  21.456   8.689
  944POPC   C2B15056  36.394  21.554   8.227
  944POPC   C3B15057  36.482  21.583   7.749
  944POPC   C4B15058  36.569  21.514   7.262
  945POPC   NC315059  41.868  15.031   9.594
  945POPC   PO415060  42.610  15.008   9.525
  945POPC   GL115061  42.254  14.942   9.243
  945POPC   GL215062  42.074  15.266   9.151
  945POPC   C1A15063  42.298  14.937   8.825
  945POPC   D2A15064  42.131  15.232   8.528
  945POPC   C3A15065  42.173  15.093   8.146
  945POPC   C4A15066  42.429  15.046   7.817
  945POPC   C1B15067  42.428  15.456   8.871
  945POPC   C2B15068  42.569  15.488   8.437
  945POPC   C3B15069  42.419  15.531   8.036
  945POPC   C4B15070  42.115  15.453   7.737
  946POPC   NC315071   1.439  26.267   9.416
  946POPC   PO415072   1.102  25.698   9.503
  946POPC   GL115073   1.093  25.992   9.158
  946POPC   GL215074   1.377  25.831   9.073
  946POPC   C1A15075   1.096  26.313   8.832
  946POPC   D2A15076   1.152  26.448   8.411
  946POPC   C3A15077   1.298  26.188   8.114
  946POPC   C4A15078   1.250  26.108   7.671
  946POPC   C1B15079   1.452  25.995   8.670
  946POPC   C2B15080   1.733  26.006   8.347
  946POPC   C3B15081   1.559  25.761   8.007
  946POPC   C4B15082   1.160  25.632   7.852
  947POPC   NC315083   9.577  44.932   9.448
  947POPC   PO415084   9.936  44.376   9.608
  947POPC   GL115085   9.886  44.594   9.210
  947POPC   GL215086  10.038  44.945   9.207
  947POPC   C1A15087   9.676  44.647   8.804
  947POPC   D2A15088   9.864  44.601   8.392
  947POPC   C3A15089   9.604  44.650   8.039
  947POPC   C4A15090   9.764  44.798   7.633
  947POPC   C1B15091   9.953   0.089   8.789
  947POPC   C2B15092   9.767   0.164   8.410
  947POPC   C3B15093   9.955   0.028   8.050
  947POPC   C4B15094  10.223   0.064   7.696
  948POPC   NC315095  12.205  13.203   9.641
  948POPC   PO415096  12.123  13.815   9.433
  948POPC   GL115097  12.190  13.691   9.061
  948POPC   GL215098  11.979  13.404   9.099
  948POPC   C1A15099  11.976  13.791   8.699
  948POPC   D2A15100  11.890  13.517   8.359
  948POPC   C3A15101  12.069  13.609   8.008
  948POPC   C4A15102  12.211  13.973   7.921
  948POPC   C1B15103  12.179  13.269   8.713
  948POPC   C2B15104  12.365  13.258   8.297
  948POPC   C3B15105  12.403  13.273   7.846
  948POPC   C4B15106  12.444  13.615   7.583
  949POPC   NC315107  41.295  15.419   9.596
  949POPC   PO415108  41.327  14.773   9.848
  949POPC   GL115109  41.401  14.989   9.363
  949POPC   GL215110  41.551  14.827   9.099
  949POPC   C1A15111  41.588  15.305   8.989
  949POPC   D2A15112  41.642  15.351   8.538
  949POPC   C3A15113  41.797  15.428   8.153
  949POPC   C4A15114  41.603  15.368   7.763
  949POPC   C1B15115  41.797  14.897   8.754
  949POPC   C2B15116  41.710  14.863   8.336
  949POPC   C3B15117  41.534  14.844   7.938
  949POPC   C4B15118  41.904  14.971   7.737
  950POPC   NC315119   9.793  16.373   9.422
  950POPC   PO415120   9.424  15.808   9.423
  950POPC   GL115121   9.792  15.946   9.123
  950POPC   GL215122   9.979  16.270   8.977
  950POPC   C1A15123   9.825  15.894   8.680
  950POPC   D2A15124   9.685  15.630   8.381
  950POPC   C3A15125   9.803  15.729   7.978
  950POPC   C4A15126   9.588  15.569   7.641
  950POPC   C1B15127   9.690  16.377   8.620
  950POPC   C2B15128   9.718  16.197   8.209
  950POPC   C3B15129   9.958  16.204   7.830
  950POPC   C4B15130   9.844  16.441   7.475
  951POPC   NC315131   4.134  44.150   9.565
  951POPC   PO415132   4.428  43.572   9.456
  951POPC   GL115133   4.377  43.913   9.186
  951POPC   GL215134   4.015  43.923   9.108
  951POPC   C1A15135   4.418  44.066   8.783
  951POPC   D2A15136   4.086  44.077   8.480
  951POPC   C3A15137   4.255  44.095   8.087
  951POPC   C4A15138   4.543  43.916   7.786
  951POPC   C1B15139   4.182  43.613   8.799
  951POPC   C2B15140   4.342  43.618   8.364
  951POPC   C3B15141   4.158  43.625   7.969
  951POPC   C4B15142   4.174  43.542   7.587
  952POPC   NC315143  20.174  32.841   9.377
  952POPC   PO415144  19.538  32.854   9.248
  952POPC   GL115145  19.819  33.188   9.117
  952POPC   GL215146  19.528  33.272   8.954
  952POPC   C1A15147  20.178  33.253   8.852
  952POPC   D2A15148  20.260  32.884   8.581
  952POPC   C3A15149  20.101  32.945   8.161
  952POPC   C4A15150  20.013  33.042   7.734
  952POPC   C1B15151  19.748  33.106   8.594
  952POPC   C2B15152  19.596  33.033   8.188
  952POPC   C3B15153  19.673  32.722   7.917
  952POPC   C4B15154  19.596  32.785   7.489
  953POPC   NC315155  43.771  30.474   9.616
  953POPC   PO415156  44.310  30.768   9.692
  953POPC   GL115157  44.063  30.700   9.247
  953POPC   GL215158  44.022  30.361   9.156
  953POPC   C1A15159  43.782  30.671   8.817
  953POPC   D2A15160  43.592  30.432   8.437
  953POPC   C3A15161  43.641  30.539   8.016
  953POPC   C4A15162  43.914  30.763   7.737
  953POPC   C1B15163  43.881  30.168   8.767
  953POPC   C2B15164  44.067  30.322   8.384
  953POPC   C3B15165  44.118  30.334   7.970
  953POPC   C4B15166  44.344  30.516   7.631
  954POPC   NC315167  29.832  43.611   9.371
  954POPC   PO415168  30.031  43.047   9.702
  954POPC   GL115169  30.089  43.160   9.278
  954POPC   GL215170  29.740  43.081   9.266
  954POPC   C1A15171  29.984  43.199   8.830
  954POPC   D2A15172  30.131  43.255   8.414
  954POPC   C3A15173  29.923  43.187   8.071
  954POPC   C4A15174  30.016  43.234   7.673
  954POPC   C1B15175  29.555  42.925   8.876
  954POPC   C2B15176  29.549  42.958   8.414
  954POPC   C3B15177  29.528  42.858   7.981
  954POPC   C4B15178  29.620  42.934   7.541
  955POPC   NC315179  26.565  18.730   9.494
  955POPC   PO415180  26.965  18.135   9.544
  955POPC   GL115181  26.781  18.336   9.157
  955POPC   GL215182  26.480  18.479   9.075
  955POPC   C1A15183  26.842  18.505   8.717
  955POPC   D2A15184  26.953  18.629   8.268
  955POPC   C3A15185  26.992  18.326   7.879
  955POPC   C4A15186  27.117  18.298   7.418
  955POPC   C1B15187  26.433  18.175   8.755
  955POPC   C2B15188  26.424  18.441   8.390
  955POPC   C3B15189  26.531  18.550   7.973
  955POPC   C4B15190  26.446  18.181   7.733
  956POPC   NC315191  23.076  19.281   9.549
  956POPC   PO415192  22.698  18.721   9.508
  956POPC   GL115193  22.721  19.047   9.222
  956POPC   GL215194  23.068  19.086   9.074
  956POPC   C1A15195  22.613  18.984   8.819
  956POPC   D2A15196  22.882  19.017   8.478
  956POPC   C3A15197  22.713  18.892   8.095
  956POPC   C4A15198  22.896  18.908   7.741
  956POPC   C1B15199  23.286  19.349   8.760
  956POPC   C2B15200  23.163  19.416   8.324
  956POPC   C3B15201  23.251  19.189   7.943
  956POPC   C4B15202  23.206  19.186   7.445
  957POPC   NC315203  38.758  36.713   9.356
  957POPC   PO415204  38.223  36.711   9.755
  957POPC   GL115205  38.276  36.897   9.265
  957POPC   GL215206  38.454  37.218   9.207
  957POPC   C1A15207  38.397  36.770   8.810
  957POPC   D2A15208  38.714  36.692   8.481
  957POPC   C3A15209  38.523  36.726   8.066
  957POPC   C4A15210  38.431  36.402   7.781
  957POPC   C1B15211  38.340  37.294   8.805
  957POPC   C2B15212  38.466  37.133   8.421
  957POPC   C3B15213  38.353  37.216   8.008
  957POPC   C4B15214  38.190  36.965   7.659
  958POPC   NC315215  25.892  24.567   9.736
  958POPC   PO415216  26.519  24.745   9.460
  958POPC   GL115217  26.267  24.530   9.167
  958POPC   GL215218  25.910  24.475   9.229
  958POPC   C1A15219  26.104  24.615   8.742
  958POPC   D2A15220  26.233  24.844   8.359
  958POPC   C3A15221  26.231  24.574   8.032
  958POPC   C4A15222  25.929  24.631   7.731
  958POPC   C1B15223  25.777  24.169   8.910
  958POPC   C2B15224  25.802  23.976   8.489
  958POPC   C3B15225  25.890  24.179   8.114
  958POPC   C4B15226  25.768  24.100   7.737
  959POPC   NC315227  26.113  13.407   9.468
  959POPC   PO415228  25.516  13.817   9.473
  959POPC   GL115229  25.860  13.755   9.176
  959POPC   GL215230  25.800  13.409   9.069
  959POPC   C1A15231  26.159  13.705   8.822
  959POPC   D2A15232  26.124  13.639   8.390
  959POPC   C3A15233  26.312  13.803   8.051
  959POPC   C4A15234  26.100  13.908   7.692
  959POPC   C1B15235  25.932  13.266   8.669
  959POPC   C2B15236  25.715  13.366   8.279
  959POPC   C3B15237  25.969  13.435   7.918
  959POPC   C4B15238  25.966  13.491   7.468
  960POPC   NC315239  30.163   4.857   9.508
  960POPC   PO415240  29.855   5.433   9.385
  960POPC   GL115241  30.048   5.230   9.100
  960POPC   GL215242  29.956   4.877   9.058
  960POPC   C1A15243  29.892   5.264   8.690
  960POPC   D2A15244  29.610   5.239   8.372
  960POPC   C3A15245  29.836   5.260   7.970
  960POPC   C4A15246  30.038   5.225   7.549
  960POPC   C1B15247  30.015   4.706   8.666
  960POPC   C2B15248  30.094   4.961   8.319
  960POPC   C3B15249  30.281   4.959   7.936
  960POPC   C4B15250  30.113   4.731   7.616
  961POPC   NC315251  40.823  18.607   9.381
  961POPC   PO415252  40.476  18.063   9.444
  961POPC   GL115253  40.488  18.326   9.105
  961POPC   GL215254  40.836  18.187   9.074
  961POPC   C1A15255  40.634  18.482   8.704
  961POPC   D2A15256  40.924  18.568   8.372
  961POPC   C3A15257  40.746  18.725   7.999
  961POPC   C4A15258  40.670  18.593   7.577
  961POPC   C1B15259  40.609  17.979   8.731
  961POPC   C2B15260  40.584  18.124   8.286
  961POPC   C3B15261  40.853  18.242   7.945
  961POPC   C4B15262  41.251  18.086   7.765
  962POPC   NC315263   9.099  17.830   9.618
  962POPC   PO415264   8.691  17.331   9.361
  962POPC   GL115265   8.983  17.445   9.053
  962POPC   GL215266   9.226  17.617   9.139
  962POPC   C1A15267   8.919  17.499   8.611
  962POPC   D2A15268   8.490  17.532   8.474
  962POPC   C3A15269   8.431  17.650   8.059
  962POPC   C4A15270   8.664  17.561   7.717
  962POPC   C1B15271   9.274  17.866   8.750
  962POPC   C2B15272   9.221  17.826   8.310
  962POPC   C3B15273   9.025  17.502   8.079
  962POPC   C4B15274   9.132  17.416   7.655
  963POPC   NC315275  32.510   9.241   9.515
  963POPC   PO415276  32.192   8.667   9.493
  963POPC   GL115277  32.251   8.961   9.188
  963POPC   GL215278  32.403   8.742   9.005
  963POPC   C1A15279  32.106   9.110   8.811
  963POPC   D2A15280  32.211   9.192   8.405
  963POPC   C3A15281  32.316   8.912   8.098
  963POPC   C4A15282  32.238   9.076   7.692
  963POPC   C1B15283  32.092   8.599   8.708
  963POPC   C2B15284  31.890   8.702   8.307
  963POPC   C3B15285  31.944   8.677   7.822
  963POPC   C4B15286  32.223   8.638   7.434
  964POPC   NC315287  24.409  42.596   9.655
  964POPC   PO415288  24.897  42.360   9.222
  964POPC   GL115289  24.435  42.344   9.196
  964POPC   GL215290  24.251  42.627   9.173
  964POPC   C1A15291  24.237  42.254   8.816
  964POPC   D2A15292  24.359  42.046   8.445
  964POPC   C3A15293  24.177  42.089   8.064
  964POPC   C4A15294  24.398  42.072   7.699
  964POPC   C1B15295  24.351  42.762   8.752
  964POPC   C2B15296  24.313  42.561   8.366
  964POPC   C3B15297  24.449  42.507   7.971
  964POPC   C4B15298  24.445  42.724   7.611
  965POPC   NC315299  38.668  11.025   9.620
  965POPC   PO415300  38.140  11.433   9.581
  965POPC   GL115301  38.224  11.277   9.173
  965POPC   GL215302  38.532  11.145   9.138
  965POPC   C1A15303  38.201  11.434   8.744
  965POPC   D2A15304  38.387  11.493   8.303
  965POPC   C3A15305  38.130  11.409   7.926
  965POPC   C4A15306  38.141  11.644   7.537
  965POPC   C1B15307  38.642  11.220   8.711
  965POPC   C2B15308  38.842  11.026   8.359
  965POPC   C3B15309  38.893  11.036   7.938
  965POPC   C4B15310  38.661  10.853   7.626
  966POPC   NC315311  36.356  31.548   9.368
  966POPC   PO415312  37.033  31.603   9.557
  966POPC   GL115313  37.017  31.371   9.177
  966POPC   GL215314  37.391  31.391   9.186
  966POPC   C1A15315  36.768  31.518   8.777
  966POPC   D2A15316  36.753  31.800   8.391
  966POPC   C3A15317  36.718  31.479   8.075
  966POPC   C4A15318  36.381  31.321   7.853
  966POPC   C1B15319  37.257  31.643   8.830
  966POPC   C2B15320  37.178  31.510   8.410
  966POPC   C3B15321  37.171  31.722   8.000
  966POPC   C4B15322  37.291  31.442   7.680
  967POPC   NC315323   9.506   7.165   9.444
  967POPC   PO415324   8.799   7.420   9.493
  967POPC   GL115325   9.092   7.453   9.213
  967POPC   GL215326   9.101   7.094   9.166
  967POPC   C1A15327   9.009   7.585   8.803
  967POPC   D2A15328   8.687   7.433   8.508
  967POPC   C3A15329   8.800   7.448   8.079
  967POPC   C4A15330   9.181   7.433   7.861
  967POPC   C1B15331   8.950   7.067   8.786
  967POPC   C2B15332   8.861   6.921   8.407
  967POPC   C3B15333   8.999   6.968   8.031
  967POPC   C4B15334   8.920   7.081   7.622
  968POPC   NC315335  11.986  34.019   9.415
  968POPC   PO415336  12.074  33.373   9.423
  968POPC   GL115337  12.226  33.604   9.079
  968POPC   GL215338  11.876  33.678   8.994
  968POPC   C1A15339  12.224  33.850   8.682
  968POPC   D2A15340  11.830  33.745   8.452
  968POPC   C3A15341  11.919  33.490   8.109
  968POPC   C4A15342  12.309  33.668   7.947
  968POPC   C1B15343  11.615  34.043   8.831
  968POPC   C2B15344  11.611  34.220   8.418
  968POPC   C3B15345  11.824  34.106   8.061
  968POPC   C4B15346  12.149  34.126   7.784
  969POPC   NC315347  21.337  23.085   9.523
  969POPC   PO415348  21.081  22.587   9.156
  969POPC   GL115349  21.313  22.918   8.961
  969POPC   GL215350  21.639  22.997   9.043
  969POPC   C1A15351  21.374  23.065   8.530
  969POPC   D2A15352  21.276  23.331   8.186
  969POPC   C3A15353  21.134  23.090   7.846
  969POPC   C4A15354  20.999  23.256   7.438
  969POPC   C1B15355  21.758  22.766   8.686
  969POPC   C2B15356  21.665  22.734   8.268
  969POPC   C3B15357  21.658  23.036   7.971
  969POPC   C4B15358  21.524  23.267   7.609
  970POPC   NC315359   5.502  20.943   9.524
  970POPC   PO415360   6.039  20.600   9.554
  970POPC   GL115361   5.887  20.653   9.161
  970POPC   GL215362   5.573  20.507   9.236
  970POPC   C1A15363   5.945  20.666   8.718
  970POPC   D2A15364   6.022  20.591   8.319
  970POPC   C3A15365   5.916  20.929   8.067
  970POPC   C4A15366   6.015  20.897   7.654
  970POPC   C1B15367   5.477  20.697   8.848
  970POPC   C2B15368   5.539  20.499   8.426
  970POPC   C3B15369   5.509  20.619   7.996
  970POPC   C4B15370   5.474  20.995   7.779
  971POPC   NC315371  24.294  27.795   9.700
  971POPC   PO415372  24.733  27.282   9.524
  971POPC   GL115373  24.570  27.645   9.274
  971POPC   GL215374  24.266  27.538   9.094
  971POPC   C1A15375  24.584  27.859   8.870
  971POPC   D2A15376  24.729  27.812   8.448
  971POPC   C3A15377  24.399  27.770   8.150
  971POPC   C4A15378  24.228  27.916   7.754
  971POPC   C1B15379  24.379  27.407   8.688
  971POPC   C2B15380  24.627  27.285   8.357
  971POPC   C3B15381  24.487  27.304   7.955
  971POPC   C4B15382  24.237  27.405   7.609
  972POPC   NC315383  21.123  26.155   9.564
  972POPC   PO415384  21.436  26.777   9.692
  972POPC   GL115385  21.515  26.522   9.185
  972POPC   GL215386  21.369  26.187   9.133
  972POPC   C1A15387  21.416  26.491   8.743
  972POPC   D2A15388  21.496  26.248   8.403
  972POPC   C3A15389  21.112  26.099   8.224
  972POPC   C4A15390  21.107  26.070   7.787
  972POPC   C1B15391  21.503  25.893   8.849
  972POPC   C2B15392  21.488  25.734   8.440
  972POPC   C3B15393  21.577  25.861   8.053
  972POPC   C4B15394  21.491  25.751   7.679
  973POPC   NC315395  21.299   4.658   9.632
  973POPC   PO415396  21.278   4.029   9.514
  973POPC   GL115397  21.191   4.200   9.122
  973POPC   GL215398  21.335   4.549   9.128
  973POPC   C1A15399  21.285   4.250   8.701
  973POPC   D2A15400  21.417   4.320   8.289
  973POPC   C3A15401  21.125   4.412   7.995
  973POPC   C4A15402  21.102   4.337   7.586
  973POPC   C1B15403  21.716   4.611   8.897
  973POPC   C2B15404  21.860   4.799   8.520
  973POPC   C3B15405  21.878   4.545   8.159
  973POPC   C4B15406  21.615   4.408   7.792
  974POPC   NC315407  32.376  14.962   9.469
  974POPC   PO415408  32.018  15.458   9.484
  974POPC   GL115409  32.234  15.298   9.086
  974POPC   GL215410  32.292  14.924   8.983
  974POPC   C1A15411  32.298  15.335   8.656
  974POPC   D2A15412  32.137  15.249   8.282
  974POPC   C3A15413  32.280  15.332   7.878
  974POPC   C4A15414  32.022  15.412   7.532
  974POPC   C1B15415  32.335  14.837   8.540
  974POPC   C2B15416  32.594  15.029   8.177
  974POPC   C3B15417  32.602  14.966   7.731
  974POPC   C4B15418  32.399  14.849   7.344
  975POPC   NC315419  36.022  21.825   9.291
  975POPC   PO415420  35.731  22.364   9.627
  975POPC   GL115421  35.551  22.240   9.229
  975POPC   GL215422  35.251  22.034   9.239
  975POPC   C1A15423  35.318  22.451   8.870
  975POPC   D2A15424  35.230  22.287   8.467
  975POPC   C3A15425  35.231  22.485   8.069
  975POPC   C4A15426  35.320  22.442   7.648
  975POPC   C1B15427  35.459  21.946   8.821
  975POPC   C2B15428  35.428  21.781   8.415
  975POPC   C3B15429  35.352  21.987   8.050
  975POPC   C4B15430  35.245  21.936   7.626
  976POPC   NC315431  44.918  23.265   9.478
  976POPC   PO415432  44.755  23.901   9.584
  976POPC   GL115433  44.644  23.732   9.188
  976POPC   GL215434  44.491  23.429   9.158
  976POPC   C1A15435  44.483  23.825   8.801
  976POPC   D2A15436  44.749  23.960   8.495
  976POPC   C3A15437  44.907  23.709   8.196
  976POPC   C4A15438  44.951  24.007   7.855
  976POPC   C1B15439  44.547  23.321   8.730
  976POPC   C2B15440  44.399  23.543   8.365
  976POPC   C3B15441  44.429  23.768   7.993
  976POPC   C4B15442  44.717  23.565   7.742
  977POPC   NC315443  14.404  14.917   9.377
  977POPC   PO415444  14.632  15.501   9.583
  977POPC   GL115445  14.644  15.327   9.145
  977POPC   GL215446  14.261  15.306   9.071
  977POPC   C1A15447  14.578  15.063   8.748
  977POPC   D2A15448  14.557  14.933   8.319
  977POPC   C3A15449  14.596  15.213   7.981
  977POPC   C4A15450  14.684  14.903   7.697
  977POPC   C1B15451  14.016  15.045   8.761
  977POPC   C2B15452  14.070  15.097   8.329
  977POPC   C3B15453  14.185  14.905   7.950
  977POPC   C4B15454  14.212  15.038   7.536
  978POPC   NC315455  29.346   7.618   9.460
  978POPC   PO415456  28.747   7.340   9.523
  978POPC   GL115457  29.005   7.263   9.182
  978POPC   GL215458  29.328   7.091   9.279
  978POPC   C1A15459  29.021   7.508   8.776
  978POPC   D2A15460  29.197   7.745   8.393
  978POPC   C3A15461  29.043   7.556   8.011
  978POPC   C4A15462  29.234   7.428   7.623
  978POPC   C1B15463  29.390   7.157   8.861
  978POPC   C2B15464  29.302   7.251   8.434
  978POPC   C3B15465  29.240   7.080   8.022
  978POPC   C4B15466  28.924   7.039   7.774
  979POPC   NC315467   1.855  33.131   9.510
  979POPC   PO415468   2.542  33.284   9.401
  979POPC   GL115469   2.243  33.043   9.112
  979POPC   GL215470   1.911  32.871   9.037
  979POPC   C1A15471   2.174  33.088   8.655
  979POPC   D2A15472   2.419  33.112   8.283
  979POPC   C3A15473   2.256  32.933   7.835
  979POPC   C4A15474   2.028  32.762   7.438
  979POPC   C1B15475   1.749  32.843   8.591
  979POPC   C2B15476   1.894  33.054   8.196
  979POPC   C3B15477   1.767  33.030   7.771
  979POPC   C4B15478   1.498  32.822   7.479
  980POPC   NC315479  24.702  23.157   9.538
  980POPC   PO415480  24.225  22.709   9.410
  980POPC   GL115481  24.527  22.891   9.106
  980POPC   GL215482  24.883  22.999   9.074
  980POPC   C1A15483  24.680  22.663   8.743
  980POPC   D2A15484  24.515  22.484   8.372
  980POPC   C3A15485  24.607  22.731   8.031
  980POPC   C4A15486  24.366  22.756   7.686
  980POPC   C1B15487  24.692  23.186   8.700
  980POPC   C2B15488  24.669  23.217   8.279
  980POPC   C3B15489  24.420  23.205   7.934
  980POPC   C4B15490  24.758  23.136   7.682
  981POPC   NC315491  36.049   0.088   9.441
  981POPC   PO415492  36.699   0.189   9.397
  981POPC   GL115493  36.520   0.416   9.063
  981POPC   GL215494  36.142   0.423   9.025
  981POPC   C1A15495  36.496   0.286   8.645
  981POPC   D2A15496  36.273  44.947   8.450
  981POPC   C3A15497  36.375   0.012   8.035
  981POPC   C4A15498  36.361   0.471   7.882
  981POPC   C1B15499  35.831   0.701   8.750
  981POPC   C2B15500  35.613   0.769   8.343
  981POPC   C3B15501  35.808   0.664   7.946
  981POPC   C4B15502  35.928   0.215   7.896
  982POPC   NC315503  30.522   2.392   9.615
  982POPC   PO415504  30.555   3.033   9.629
  982POPC   GL115505  30.802   2.878   9.268
  982POPC   GL215506  30.502   2.769   9.096
  982POPC   C1A15507  31.063   2.822   8.879
  982POPC   D2A15508  31.059   2.920   8.438
  982POPC   C3A15509  30.727   2.810   8.135
  982POPC   C4A15510  30.841   2.910   7.737
  982POPC   C1B15511  30.621   2.671   8.649
  982POPC   C2B15512  30.928   2.407   8.397
  982POPC   C3B15513  31.019   2.457   7.931
  982POPC   C4B15514  30.733   2.470   7.554
  983POPC   NC315515   7.364  33.673   9.680
  983POPC   PO415516   7.696  34.239   9.560
  983POPC   GL115517   7.476  33.969   9.235
  983POPC   GL215518   7.467  33.592   9.156
  983POPC   C1A15519   7.419  33.940   8.799
  983POPC   D2A15520   7.558  33.857   8.394
  983POPC   C3A15521   7.296  33.687   8.050
  983POPC   C4A15522   7.393  33.966   7.724
  983POPC   C1B15523   7.810  33.442   8.848
  983POPC   C2B15524   7.904  33.446   8.380
  983POPC   C3B15525   7.806  33.673   7.987
  983POPC   C4B15526   7.666  33.565   7.606
  984POPC   NC315527  42.886  30.936   9.551
  984POPC   PO415528  43.302  30.435   9.575
  984POPC   GL115529  43.359  30.546   9.146
  984POPC   GL215530  42.996  30.641   9.145
  984POPC   C1A15531  43.258  30.678   8.705
  984POPC   D2A15532  43.151  30.606   8.254
  984POPC   C3A15533  43.232  30.853   7.860
  984POPC   C4A15534  43.510  31.017   7.515
  984POPC   C1B15535  42.840  30.391   8.821
  984POPC   C2B15536  42.685  30.302   8.438
  984POPC   C3B15537  42.759  30.343   8.056
  984POPC   C4B15538  42.810  30.513   7.694
  985POPC   NC315539  14.392  29.452   9.584
  985POPC   PO415540  14.400  28.739   9.513
  985POPC   GL115541  14.443  29.057   9.184
  985POPC   GL215542  14.251  29.367   9.117
  985POPC   C1A15543  14.329  28.989   8.752
  985POPC   D2A15544  14.067  28.941   8.374
  985POPC   C3A15545  14.363  28.935   8.054
  985POPC   C4A15546  14.470  28.906   7.639
  985POPC   C1B15547  14.510  29.465   8.825
  985POPC   C2B15548  14.269  29.402   8.471
  985POPC   C3B15549  14.139  29.410   8.085
  985POPC   C4B15550  14.399  29.410   7.760
  986POPC   NC315551  41.123  28.177   9.501
  986POPC   PO415552  40.492  28.184   9.387
  986POPC   GL115553  40.804  28.195   9.071
  986POPC   GL215554  41.003  28.494   9.118
  986POPC   C1A15555  40.646  28.314   8.678
  986POPC   D2A15556  40.308  28.412   8.381
  986POPC   C3A15557  40.566  28.427   8.030
  986POPC   C4A15558  40.692  28.268   7.641
  986POPC   C1B15559  40.976  28.690   8.744
  986POPC   C2B15560  41.035  28.474   8.342
  986POPC   C3B15561  41.098  28.410   7.917
  986POPC   C4B15562  41.279  28.726   7.637
  987POPC   NC315563  10.157   3.935   9.586
  987POPC   PO415564  10.609   3.400   9.602
  987POPC   GL115565  10.593   3.630   9.194
  987POPC   GL215566  10.255   3.730   9.118
  987POPC   C1A15567  10.680   3.725   8.753
  987POPC   D2A15568  10.515   3.655   8.337
  987POPC   C3A15569  10.725   3.686   7.924
  987POPC   C4A15570  10.473   3.547   7.575
  987POPC   C1B15571  10.189   3.872   8.698
  987POPC   C2B15572  10.011   3.805   8.304
  987POPC   C3B15573  10.244   3.880   7.947
  987POPC   C4B15574  10.095   3.882   7.552
  988POPC   NC315575  27.140  23.443   9.742
  988POPC   PO415576  26.599  23.739   9.455
  988POPC   GL115577  26.627  23.823   9.051
  988POPC   GL215578  26.942  23.683   9.019
  988POPC   C1A15579  26.631  23.819   8.592
  988POPC   D2A15580  26.729  23.528   8.282
  988POPC   C3A15581  26.699  23.657   7.880
  988POPC   C4A15582  26.570  23.414   7.528
  988POPC   C1B15583  27.122  23.863   8.642
  988POPC   C2B15584  27.033  23.937   8.209
  988POPC   C3B15585  27.215  23.707   7.853
  988POPC   C4B15586  27.029  23.689   7.446
  989POPC   NC315587  25.776  18.117   9.609
  989POPC   PO415588  26.113  18.652   9.627
  989POPC   GL115589  26.014  18.423   9.250
  989POPC   GL215590  26.180  18.087   9.222
  989POPC   C1A15591  26.034  18.500   8.796
  989POPC   D2A15592  25.893  18.310   8.399
  989POPC   C3A15593  26.006  18.573   8.061
  989POPC   C4A15594  26.151  18.669   7.663
  989POPC   C1B15595  25.922  18.001   8.851
  989POPC   C2B15596  25.604  17.877   8.560
  989POPC   C3B15597  25.645  17.921   8.120
  989POPC   C4B15598  25.932  18.122   7.807
  990POPC   NC315599  19.653  40.947   9.480
  990POPC   PO415600  20.395  40.967   9.581
  990POPC   GL115601  20.251  40.880   9.116
  990POPC   GL215602  19.929  40.735   9.070
  990POPC   C1A15603  20.171  40.907   8.639
  990POPC   D2A15604  19.857  40.854   8.318
  990POPC   C3A15605  19.868  40.933   7.913
  990POPC   C4A15606  20.111  40.648   7.731
  990POPC   C1B15607  19.708  40.550   8.706
  990POPC   C2B15608  19.404  40.594   8.397
  990POPC   C3B15609  19.504  40.487   7.991
  990POPC   C4B15610  19.505  40.630   7.574
  991POPC   NC315611   7.846  20.030   9.427
  991POPC   PO415612   7.263  19.657   9.360
  991POPC   GL115613   7.496  19.875   9.057
  991POPC   GL215614   7.683  20.213   8.979
  991POPC   C1A15615   7.361  19.784   8.651
  991POPC   D2A15616   7.588  19.802   8.281
  991POPC   C3A15617   7.413  19.653   7.929
  991POPC   C4A15618   7.524  19.605   7.501
  991POPC   C1B15619   7.285  20.257   8.779
  991POPC   C2B15620   7.198  20.192   8.339
  991POPC   C3B15621   7.245  20.187   7.873
  991POPC   C4B15622   7.106  20.096   7.458
  992POPC   NC315623  36.438  10.846   9.441
  992POPC   PO415624  35.780  10.637   9.459
  992POPC   GL115625  36.023  10.668   9.136
  992POPC   GL215626  36.268  10.391   9.191
  992POPC   C1A15627  36.076  10.567   8.718
  992POPC   D2A15628  36.322  10.667   8.395
  992POPC   C3A15629  36.066  10.528   8.090
  992POPC   C4A15630  36.283  10.597   7.759
  992POPC   C1B15631  36.118  10.087   8.849
  992POPC   C2B15632  36.150  10.135   8.389
  992POPC   C3B15633  36.329  10.121   7.942
  992POPC   C4B15634  36.215   9.958   7.558
  993POPC   NC315635   0.626  17.200   9.627
  993POPC   PO415636   0.402  17.815   9.468
  993POPC   GL115637   0.465  17.436   9.189
  993POPC   GL215638   0.791  17.197   9.165
  993POPC   C1A15639   0.318  17.520   8.771
  993POPC   D2A15640   0.436  17.818   8.451
  993POPC   C3A15641   0.456  17.646   8.054
  993POPC   C4A15642   0.126  17.646   7.747
  993POPC   C1B15643   0.540  17.063   8.834
  993POPC   C2B15644   0.317  17.091   8.461
  993POPC   C3B15645   0.548  17.123   8.091
  993POPC   C4B15646   0.529  17.292   7.688
  994POPC   NC315647   1.561  37.760   9.603
  994POPC   PO415648   0.810  37.986   9.502
  994POPC   GL115649   1.008  37.728   9.169
  994POPC   GL215650   1.346  37.635   9.185
  994POPC   C1A15651   1.246  37.861   8.764
  994POPC   D2A15652   1.097  37.721   8.401
  994POPC   C3A15653   1.250  37.815   8.034
  994POPC   C4A15654   1.107  37.678   7.665
  994POPC   C1B15655   1.669  37.556   8.908
  994POPC   C2B15656   1.603  37.591   8.458
  994POPC   C3B15657   1.721  37.573   8.038
  994POPC   C4B15658   1.615  37.767   7.674
  995POPC   NC315659  42.842  27.811   9.326
  995POPC   PO415660  42.993  27.244   9.404
  995POPC   GL115661  43.150  27.424   9.065
  995POPC   GL215662  43.425  27.632   9.192
  995POPC   C1A15663  42.884  27.488   8.696
  995POPC   D2A15664  42.593  27.638   8.369
  995POPC   C3A15665  42.774  27.787   8.004
  995POPC   C4A15666  43.000  27.459   7.883
  995POPC   C1B15667  43.276  27.846   8.795
  995POPC   C2B15668  43.226  27.711   8.387
  995POPC   C3B15669  43.277  27.923   8.046
  995POPC   C4B15670  43.334  27.779   7.685
  996POPC   NC315671  37.181  29.379   9.575
  996POPC   PO415672  36.625  29.023   9.467
  996POPC   GL115673  36.886  29.223   9.160
  996POPC   GL215674  37.210  29.067   9.156
  996POPC   C1A15675  36.928  29.173   8.720
  996POPC   D2A15676  36.730  28.860   8.462
  996POPC   C3A15677  36.722  28.975   8.038
  996POPC   C4A15678  36.770  29.368   7.783
  996POPC   C1B15679  37.412  29.034   8.749
  996POPC   C2B15680  37.261  29.052   8.327
  996POPC   C3B15681  37.225  29.071   7.909
  996POPC   C4B15682  37.356  29.042   7.471
  997POPC   NC315683  40.206  41.504   9.494
  997POPC   PO415684  39.634  41.863   9.342
  997POPC   GL115685  39.954  41.707   9.101
  997POPC   GL215686  39.841  41.390   9.071
  997POPC   C1A15687  40.183  41.561   8.705
  997POPC   D2A15688  40.110  41.438   8.263
  997POPC   C3A15689  40.416  41.233   7.965
  997POPC   C4A15690  40.492  41.484   7.633
  997POPC   C1B15691  39.659  41.615   8.694
  997POPC   C2B15692  39.493  41.643   8.282
  997POPC   C3B15693  39.737  41.643   7.940
  997POPC   C4B15694  39.935  41.293   7.801
  998POPC   NC315695   2.159   7.975   9.574
  998POPC   PO415696   1.568   8.158   9.343
  998POPC   GL115697   1.786   8.336   9.040
  998POPC   GL215698   2.093   8.226   9.118
  998POPC   C1A15699   1.884   8.268   8.624
  998POPC   D2A15700   2.003   7.991   8.324
  998POPC   C3A15701   1.914   8.252   7.987
  998POPC   C4A15702   1.792   8.641   7.775
  998POPC   C1B15703   2.335   8.055   8.785
  998POPC   C2B15704   2.509   8.087   8.385
  998POPC   C3B15705   2.370   8.006   7.958
  998POPC   C4B15706   2.201   8.245   7.578
  999POPC   NC315707  26.195  23.617   9.659
  999POPC   PO415708  26.195  24.256   9.623
  999POPC   GL115709  26.176  24.005   9.251
  999POPC   GL215710  25.884  23.775   9.243
  999POPC   C1A15711  26.177  23.854   8.822
  999POPC   D2A15712  26.191  23.618   8.438
  999POPC   C3A15713  26.253  23.816   8.065
  999POPC   C4A15714  26.157  23.683   7.671
  999POPC   C1B15715  25.728  23.596   8.835
  999POPC   C2B15716  25.713  23.450   8.405
  999POPC   C3B15717  25.774  23.659   8.030
  999POPC   C4B15718  25.581  23.659   7.626
 1000POPC   NC315719   9.092  23.803  10.088
 1000POPC   PO415720   8.786  23.856   9.427
 1000POPC   GL115721   8.896  23.636   9.099
 1000POPC   GL215722   8.578  23.541   9.015
 1000POPC   C1A15723   8.935  23.541   8.659
 1000POPC   D2A15724   9.167  23.462   8.323
 1000POPC   C3A15725   9.343  23.788   8.104
 1000POPC   C4A15726   9.267  23.805   7.687
 1000POPC   C1B15727   8.711  23.978   8.767
 1000POPC   C2B15728   8.936  23.960   8.368
 1000POPC   C3B15729   8.820  23.724   8.006
 1000POPC   C4B15730   8.745  23.826   7.581
 1001POPC   NC315731   2.924  33.618   9.482
 1001POPC   PO415732   2.529  34.138   9.691
 1001POPC   GL115733   2.643  33.971   9.257
 1001POPC   GL215734   2.703  33.618   9.048
 1001POPC   C1A15735   2.541  34.024   8.818
 1001POPC   D2A15736   2.750  34.070   8.418
 1001POPC   C3A15737   2.531  34.030   8.036
 1001POPC   C4A15738   2.744  34.119   7.719
 1001POPC   C1B15739   2.773  33.556   8.615
 1001POPC   C2B15740   2.655  33.562   8.184
 1001POPC   C3B15741   2.883  33.643   7.792
 1001POPC   C4B15742   2.992  33.540   7.371
 1002POPC   NC315743   6.570   1.720   9.616
 1002POPC   PO415744   6.743   2.350   9.483
 1002POPC   GL115745   6.823   1.968   9.252
 1002POPC   GL215746   6.485   1.899   9.132
 1002POPC   C1A15747   6.889   1.896   8.823
 1002POPC   D2A15748   6.728   2.081   8.457
 1002POPC   C3A15749   6.749   1.941   8.038
 1002POPC   C4A15750   6.827   2.224   7.720
 1002POPC   C1B15751   6.305   1.975   8.711
 1002POPC   C2B15752   6.279   1.827   8.277
 1002POPC   C3B15753   6.177   1.791   7.827
 1002POPC   C4B15754   6.376   1.759   7.380
 1003POPC   NC315755  11.802  44.098   9.493
 1003POPC   PO415756  12.101  43.493   9.591
 1003POPC   GL115757  11.944  43.751   9.169
 1003POPC   GL215758  12.095  44.082   9.086
 1003POPC   C1A15759  11.694  43.935   8.770
 1003POPC   D2A15760  11.597  44.192   8.372
 1003POPC   C3A15761  11.684  44.046   7.970
 1003POPC   C4A15762  12.036  43.918   7.798
 1003POPC   C1B15763  12.192  44.004   8.673
 1003POPC   C2B15764  12.108  44.022   8.276
 1003POPC   C3B15765  12.417  44.192   7.975
 1003POPC   C4B15766  12.291  44.231   7.521
 1004POPC   NC315767  41.605  39.243   9.579
 1004POPC   PO415768  41.966  38.608   9.529
 1004POPC   GL115769  41.909  39.009   9.216
 1004POPC   GL215770  41.566  39.148   9.104
 1004POPC   C1A15771  41.952  39.249   8.794
 1004POPC   D2A15772  41.877  39.037   8.390
 1004POPC   C3A15773  41.633  39.155   8.036
 1004POPC   C4A15774  41.694  38.856   7.700
 1004POPC   C1B15775  41.478  39.022   8.728
 1004POPC   C2B15776  41.267  39.160   8.406
 1004POPC   C3B15777  41.084  39.010   8.066
 1004POPC   C4B15778  41.221  39.082   7.712
 1005POPC   NC315779  14.453  41.314   9.433
 1005POPC   PO415780  14.448  41.976   9.568
 1005POPC   GL115781  14.484  41.745   9.171
 1005POPC   GL215782  14.821  41.657   9.125
 1005POPC   C1A15783  14.381  41.538   8.756
 1005POPC   D2A15784  14.257  41.738   8.373
 1005POPC   C3A15785  14.216  41.634   7.970
 1005POPC   C4A15786  14.213  41.469   7.581
 1005POPC   C1B15787  14.784  41.866   8.765
 1005POPC   C2B15788  14.711  41.978   8.342
 1005POPC   C3B15789  14.716  41.757   7.924
 1005POPC   C4B15790  14.603  41.764   7.470
 1006POPC   NC315791  29.565  17.226   9.434
 1006POPC   PO415792  29.739  17.842   9.658
 1006POPC   GL115793  29.692  17.768   9.244
 1006POPC   GL215794  29.949  17.510   9.229
 1006POPC   C1A15795  29.558  17.594   8.877
 1006POPC   D2A15796  29.657  17.505   8.480
 1006POPC   C3A15797  29.692  17.828   8.224
 1006POPC   C4A15798  29.563  17.551   7.900
 1006POPC   C1B15799  30.056  17.630   8.825
 1006POPC   C2B15800  30.171  17.554   8.412
 1006POPC   C3B15801  30.059  17.496   8.012
 1006POPC   C4B15802  30.160  17.690   7.635
 1007POPC   NC315803  41.878  39.932   9.386
 1007POPC   PO415804  41.311  39.665   9.486
 1007POPC   GL115805  41.410  39.983   9.159
 1007POPC   GL215806  41.183  40.325   9.108
 1007POPC   C1A15807  41.647  39.838   8.763
 1007POPC   D2A15808  41.658  39.512   8.435
 1007POPC   C3A15809  41.540  39.700   8.027
 1007POPC   C4A15810  41.206  39.969   7.848
 1007POPC   C1B15811  41.455  40.309   8.771
 1007POPC   C2B15812  41.452  40.114   8.353
 1007POPC   C3B15813  41.589  40.295   7.962
 1007POPC   C4B15814  41.365  40.330   7.544
 1008POPC   NC315815  30.134  31.755   9.518
 1008POPC   PO415816  29.770  31.162   9.461
 1008POPC   GL115817  30.115  31.327   9.213
 1008POPC   GL215818  29.956  31.618   9.058
 1008POPC   C1A15819  30.269  31.299   8.790
 1008POPC   D2A15820  30.076  31.455   8.420
 1008POPC   C3A15821  29.939  31.368   8.019
 1008POPC   C4A15822  29.535  31.523   7.882
 1008POPC   C1B15823  30.131  31.865   8.724
 1008POPC   C2B15824  30.299  31.909   8.314
 1008POPC   C3B15825  30.013  31.873   8.006
 1008POPC   C4B15826  29.950  31.707   7.603
 1009POPC   NC315827  38.715  29.003   9.723
 1009POPC   PO415828  38.300  29.445   9.415
 1009POPC   GL115829  38.526  29.138   9.169
 1009POPC   GL215830  38.885  29.164   9.262
 1009POPC   C1A15831  38.454  29.046   8.725
 1009POPC   D2A15832  38.454  29.060   8.262
 1009POPC   C3A15833  38.225  29.323   7.967
 1009POPC   C4A15834  38.137  29.152   7.541
 1009POPC   C1B15835  38.934  29.332   8.853
 1009POPC   C2B15836  38.844  29.353   8.415
 1009POPC   C3B15837  38.844  29.280   7.971
 1009POPC   C4B15838  38.586  29.007   7.732
 1010POPC   NC315839  11.030  10.218   9.417
 1010POPC   PO415840  11.462  10.696   9.413
 1010POPC   GL115841  11.414  10.435   9.090
 1010POPC   GL215842  11.483  10.104   9.154
 1010POPC   C1A15843  11.458  10.565   8.687
 1010POPC   D2A15844  11.222  10.788   8.381
 1010POPC   C3A15845  11.345  10.657   7.988
 1010POPC   C4A15846  11.392  10.794   7.559
 1010POPC   C1B15847  11.218  10.060   8.798
 1010POPC   C2B15848  11.127  10.256   8.441
 1010POPC   C3B15849  11.154  10.163   8.045
 1010POPC   C4B15850  11.009  10.372   7.729
 1011POPC   NC315851  14.184  11.175   9.494
 1011POPC   PO415852  14.535  11.686   9.667
 1011POPC   GL115853  14.461  11.431   9.197
 1011POPC   GL215854  14.574  11.057   9.200
 1011POPC   C1A15855  14.246  11.516   8.821
 1011POPC   D2A15856  14.076  11.422   8.483
 1011POPC   C3A15857  14.302  11.381   8.114
 1011POPC   C4A15858  14.086  11.592   7.755
 1011POPC   C1B15859  14.528  11.091   8.760
 1011POPC   C2B15860  14.795  11.233   8.409
 1011POPC   C3B15861  14.784  11.216   7.976
 1011POPC   C4B15862  14.712  11.056   7.550
 1012POPC   NC315863  37.905  13.348   9.493
 1012POPC   PO415864  37.427  13.789   9.475
 1012POPC   GL115865  37.493  13.778   9.082
 1012POPC   GL215866  37.749  13.591   9.085
 1012POPC   C1A15867  37.414  13.626   8.697
 1012POPC   D2A15868  37.726  13.663   8.409
 1012POPC   C3A15869  37.575  13.733   8.060
 1012POPC   C4A15870  37.382  13.964   7.799
 1012POPC   C1B15871  37.825  13.268   8.817
 1012POPC   C2B15872  37.759  13.158   8.419
 1012POPC   C3B15873  37.572  13.224   8.062
 1012POPC   C4B15874  37.649  13.378   7.684
 1013POPC   NC315875  40.195  11.314   9.418
 1013POPC   PO415876  39.647  11.732   9.344
 1013POPC   GL115877  39.873  11.492   9.068
 1013POPC   GL215878  39.870  11.122   9.069
 1013POPC   C1A15879  40.018  11.417   8.673
 1013POPC   D2A15880  39.941  11.513   8.266
 1013POPC   C3A15881  40.281  11.626   8.037
 1013POPC   C4A15882  40.264  11.481   7.638
 1013POPC   C1B15883  40.212  10.954   8.745
 1013POPC   C2B15884  40.303  11.144   8.341
 1013POPC   C3B15885  40.123  11.105   7.961
 1013POPC   C4B15886  40.238  10.748   7.746
 1014POPC   NC315887  10.875  20.179   9.571
 1014POPC   PO415888  10.253  19.757   9.536
 1014POPC   GL115889  10.606  19.808   9.289
 1014POPC   GL215890  10.521  19.495   9.142
 1014POPC   C1A15891  10.614  19.998   8.889
 1014POPC   D2A15892  10.338  19.958   8.514
 1014POPC   C3A15893  10.564  20.067   8.136
 1014POPC   C4A15894  10.460  19.966   7.713
 1014POPC   C1B15895  10.491  19.535   8.752
 1014POPC   C2B15896  10.743  19.656   8.422
 1014POPC   C3B15897  10.432  19.600   8.105
 1014POPC   C4B15898  10.311  19.439   7.756
 1015POPC   NC315899  33.246  40.798   9.648
 1015POPC   PO415900  32.641  40.503   9.607
 1015POPC   GL115901  32.710  40.741   9.207
 1015POPC   GL215902  33.043  40.795   9.197
 1015POPC   C1A15903  32.778  40.871   8.770
 1015POPC   D2A15904  32.629  40.770   8.347
 1015POPC   C3A15905  32.902  40.854   8.015
 1015POPC   C4A15906  32.916  41.165   7.737
 1015POPC   C1B15907  33.282  40.767   8.829
 1015POPC   C2B15908  33.160  40.717   8.450
 1015POPC   C3B15909  33.313  40.576   8.104
 1015POPC   C4B15910  33.152  40.459   7.741
 1016POPC   NC315911   3.780   7.932   9.527
 1016POPC   PO415912   3.130   8.329   9.361
 1016POPC   GL115913   3.426   8.056   9.148
 1016POPC   GL215914   3.772   8.222   9.065
 1016POPC   C1A15915   3.349   7.977   8.730
 1016POPC   D2A15916   3.537   8.030   8.334
 1016POPC   C3A15917   3.348   8.305   8.076
 1016POPC   C4A15918   3.198   8.258   7.699
 1016POPC   C1B15919   3.901   8.359   8.635
 1016POPC   C2B15920   3.878   8.368   8.156
 1016POPC   C3B15921   3.745   8.201   7.731
 1016POPC   C4B15922   3.945   8.232   7.274
 1017POPC   NC315923  20.402  38.740   9.582
 1017POPC   PO415924  20.679  38.114   9.617
 1017POPC   GL115925  20.653  38.339   9.262
 1017POPC   GL215926  20.872  38.605   9.337
 1017POPC   C1A15927  20.587  38.189   8.839
 1017POPC   D2A15928  20.336  38.055   8.498
 1017POPC   C3A15929  20.586  38.135   8.120
 1017POPC   C4A15930  20.765  38.455   7.883
 1017POPC   C1B15931  20.800  38.664   8.883
 1017POPC   C2B15932  20.674  38.547   8.447
 1017POPC   C3B15933  20.407  38.755   8.161
 1017POPC   C4B15934  20.457  38.923   7.764
 1018POPC   NC315935  20.656  43.794   9.511
 1018POPC   PO415936  20.209  44.287   9.404
 1018POPC   GL115937  20.401  44.013   9.120
 1018POPC   GL215938  20.735  44.116   9.102
 1018POPC   C1A15939  20.602  43.733   8.798
 1018POPC   D2A15940  20.620  43.516   8.384
 1018POPC   C3A15941  20.385  43.712   8.066
 1018POPC   C4A15942  20.430  43.984   7.676
 1018POPC   C1B15943  20.598  44.291   8.731
 1018POPC   C2B15944  20.441  44.108   8.393
 1018POPC   C3B15945  20.729  44.117   8.061
 1018POPC   C4B15946  20.801  44.342   7.696
 1019POPC   NC315947   3.877   4.510   9.619
 1019POPC   PO415948   3.251   4.295   9.320
 1019POPC   GL115949   3.708   4.385   9.140
 1019POPC   GL215950   3.788   4.680   8.924
 1019POPC   C1A15951   3.874   4.197   8.753
 1019POPC   D2A15952   3.891   4.449   8.368
 1019POPC   C3A15953   4.022   4.330   7.948
 1019POPC   C4A15954   3.749   4.084   7.699
 1019POPC   C1B15955   3.427   4.430   8.706
 1019POPC   C2B15956   3.104   4.470   8.409
 1019POPC   C3B15957   3.242   4.305   8.025
 1019POPC   C4B15958   3.419   4.451   7.691
 1020POPC   NC315959  33.957   0.319  10.199
 1020POPC   PO415960  33.834   0.479   9.561
 1020POPC   GL115961  33.683   0.503   9.157
 1020POPC   GL215962  33.939   0.288   9.087
 1020POPC   C1A15963  33.774   0.660   8.736
 1020POPC   D2A15964  34.118   0.766   8.452
 1020POPC   C3A15965  33.913   0.776   8.070
 1020POPC   C4A15966  33.583   0.511   7.873
 1020POPC   C1B15967  33.923   0.180   8.683
 1020POPC   C2B15968  33.870   0.312   8.287
 1020POPC   C3B15969  34.060   0.274   7.905
 1020POPC   C4B15970  33.822   0.118   7.569
 1021POPC   NC315971  12.259  15.844   9.476
 1021POPC   PO415972  11.647  15.864   9.608
 1021POPC   GL115973  11.822  15.741   9.204
 1021POPC   GL215974  11.949  16.061   9.147
 1021POPC   C1A15975  12.104  15.720   8.792
 1021POPC   D2A15976  11.928  15.911   8.440
 1021POPC   C3A15977  12.140  15.808   8.073
 1021POPC   C4A15978  12.097  15.914   7.692
 1021POPC   C1B15979  12.201  16.220   8.812
 1021POPC   C2B15980  12.187  16.363   8.420
 1021POPC   C3B15981  11.985  16.291   8.062
 1021POPC   C4B15982  12.018  16.424   7.667
 1022POPC   NC315983  12.094   7.089   9.813
 1022POPC   PO415984  12.242   6.501   9.498
 1022POPC   GL115985  12.058   6.640   9.138
 1022POPC   GL215986  12.350   6.709   8.972
 1022POPC   C1A15987  11.868   6.631   8.757
 1022POPC   D2A15988  11.807   6.326   8.450
 1022POPC   C3A15989  12.054   6.507   8.145
 1022POPC   C4A15990  11.998   6.513   7.702
 1022POPC   C1B15991  12.196   6.988   8.672
 1022POPC   C2B15992  11.919   6.962   8.322
 1022POPC   C3B15993  12.155   7.012   7.935
 1022POPC   C4B15994  12.214   6.924   7.465
 1023POPC   NC315995  11.309  17.162  10.014
 1023POPC   PO415996  11.267  16.654   9.590
 1023POPC   GL115997  11.117  16.601   9.178
 1023POPC   GL215998  10.919  16.311   9.177
 1023POPC   C1A15999  11.023  16.780   8.760
 1023POPC   D2A16000  11.242  16.664   8.378
 1023POPC   C3A16001  11.220  16.917   8.006
 1023POPC   C4A16002  11.265  16.826   7.575
 1023POPC   C1B16003  10.734  16.348   8.744
 1023POPC   C2B16004  10.832  16.352   8.271
 1023POPC   C3B16005  11.137  16.418   7.922
 1023POPC   C4B16006  11.121  16.370   7.459
 1024POPC   NC316007  14.774  17.784   9.449
 1024POPC   PO416008  14.317  18.325   9.609
 1024POPC   GL116009  14.410  18.388   9.187
 1024POPC   GL216010  14.181  18.561   9.121
 1024POPC   C1A16011  14.558  18.436   8.759
 1024POPC   D2A16012  14.644  18.217   8.359
 1024POPC   C3A16013  14.521  18.341   7.964
 1024POPC   C4A16014  14.726  18.335   7.555
 1024POPC   C1B16015  14.057  18.272   8.805
 1024POPC   C2B16016  14.151  18.311   8.401
 1024POPC   C3B16017  14.052  18.146   8.020
 1024POPC   C4B16018  14.131  18.408   7.670
 1025POPC   NC316019  32.455  14.061   9.459
 1025POPC   PO416020  31.921  13.509   9.469
 1025POPC   GL116021  32.128  13.779   9.148
 1025POPC   GL216022  32.490  13.863   9.002
 1025POPC   C1A16023  32.136  13.660   8.720
 1025POPC   D2A16024  32.270  13.474   8.375
 1025POPC   C3A16025  32.135  13.813   8.173
 1025POPC   C4A16026  32.046  13.650   7.814
 1025POPC   C1B16027  32.617  13.476   8.776
 1025POPC   C2B16028  32.780  13.503   8.363
 1025POPC   C3B16029  32.594  13.718   7.999
 1025POPC   C4B16030  32.450  13.751   7.548
 1026POPC   NC316031  41.115  40.151   9.568
 1026POPC   PO416032  40.416  40.089   9.630
 1026POPC   GL116033  40.666  40.146   9.262
 1026POPC   GL216034  40.890  39.863   9.175
 1026POPC   C1A16035  40.705  40.222   8.825
 1026POPC   D2A16036  40.486  40.090   8.453
 1026POPC   C3A16037  40.753  40.104   8.120
 1026POPC   C4A16038  40.693  40.289   7.736
 1026POPC   C1B16039  41.110  39.906   8.762
 1026POPC   C2B16040  41.161  39.668   8.388
 1026POPC   C3B16041  41.034  39.515   7.994
 1026POPC   C4B16042  40.757  39.767   7.726
 1027POPC   NC316043  41.115  30.089   9.443
 1027POPC   PO416044  40.429  29.864   9.434
 1027POPC   GL116045  40.739  29.966   9.133
 1027POPC   GL216046  40.952  29.642   9.187
 1027POPC   C1A16047  41.080  30.046   8.794
 1027POPC   D2A16048  41.172  30.383   8.472
 1027POPC   C3A16049  41.016  30.246   8.071
 1027POPC   C4A16050  40.622  30.368   7.905
 1027POPC   C1B16051  40.739  29.612   8.789
 1027POPC   C2B16052  40.900  29.727   8.393
 1027POPC   C3B16053  40.647  29.859   8.069
 1027POPC   C4B16054  40.697  29.927   7.657
 1028POPC   NC316055  39.323  13.849   9.479
 1028POPC   PO416056  39.144  13.217   9.501
 1028POPC   GL116057  39.206  13.466   9.142
 1028POPC   GL216058  38.984  13.692   9.095
 1028POPC   C1A16059  39.408  13.657   8.782
 1028POPC   D2A16060  39.266  13.739   8.366
 1028POPC   C3A16061  39.468  13.605   8.024
 1028POPC   C4A16062  39.505  13.279   7.766
 1028POPC   C1B16063  38.960  13.924   8.720
 1028POPC   C2B16064  38.950  14.134   8.323
 1028POPC   C3B16065  39.238  14.070   7.957
 1028POPC   C4B16066  39.256  13.777   7.578
 1029POPC   NC316067   2.493  18.163   9.419
 1029POPC   PO416068   2.895  18.640   9.471
 1029POPC   GL116069   2.972  18.438   9.042
 1029POPC   GL216070   2.831  18.107   9.047
 1029POPC   C1A16071   2.812  18.301   8.587
 1029POPC   D2A16072   2.464  18.393   8.275
 1029POPC   C3A16073   2.601  18.485   7.903
 1029POPC   C4A16074   3.028  18.391   7.839
 1029POPC   C1B16075   2.488  17.925   8.796
 1029POPC   C2B16076   2.551  17.897   8.384
 1029POPC   C3B16077   2.793  17.981   8.050
 1029POPC   C4B16078   2.539  18.023   7.704
 1030POPC   NC316079   5.066   4.337   9.582
 1030POPC   PO416080   5.525   4.831   9.506
 1030POPC   GL116081   5.326   4.502   9.174
 1030POPC   GL216082   5.185   4.103   9.155
 1030POPC   C1A16083   5.162   4.439   8.781
 1030POPC   D2A16084   4.842   4.546   8.531
 1030POPC   C3A16085   4.981   4.516   8.131
 1030POPC   C4A16086   4.845   4.415   7.736
 1030POPC   C1B16087   5.293   3.918   8.786
 1030POPC   C2B16088   5.268   4.116   8.384
 1030POPC   C3B16089   5.081   4.045   8.007
 1030POPC   C4B16090   5.296   4.148   7.613
 1031POPC   NC316091   6.235  36.600   9.283
 1031POPC   PO416092   6.710  36.221   9.444
 1031POPC   GL116093   6.621  36.024   9.033
 1031POPC   GL216094   6.278  35.866   9.036
 1031POPC   C1A16095   6.787  36.048   8.630
 1031POPC   D2A16096   6.710  36.273   8.255
 1031POPC   C3A16097   6.734  36.155   7.817
 1031POPC   C4A16098   6.888  35.836   7.504
 1031POPC   C1B16099   6.286  36.246   8.747
 1031POPC   C2B16100   6.272  36.484   8.374
 1031POPC   C3B16101   6.223  36.254   7.998
 1031POPC   C4B16102   6.153  35.815   7.893
 1032POPC   NC316103  39.579  13.156   9.285
 1032POPC   PO416104  40.037  12.961   9.743
 1032POPC   GL116105  40.060  12.912   9.210
 1032POPC   GL216106  40.372  12.791   9.083
 1032POPC   C1A16107  39.936  13.111   8.749
 1032POPC   D2A16108  39.779  13.270   8.321
 1032POPC   C3A16109  39.865  12.976   7.963
 1032POPC   C4A16110  39.876  12.911   7.527
 1032POPC   C1B16111  40.220  12.692   8.699
 1032POPC   C2B16112  40.212  12.858   8.325
 1032POPC   C3B16113  40.204  12.572   7.996
 1032POPC   C4B16114  40.055  12.398   7.627
 1033POPC   NC316115  36.432  15.007   9.638
 1033POPC   PO416116  35.991  15.486   9.619
 1033POPC   GL116117  36.144  15.264   9.237
 1033POPC   GL216118  36.413  15.007   9.123
 1033POPC   C1A16119  36.290  15.414   8.832
 1033POPC   D2A16120  36.058  15.425   8.445
 1033POPC   C3A16121  36.271  15.427   8.075
 1033POPC   C4A16122  36.080  15.460   7.730
 1033POPC   C1B16123  36.299  14.916   8.683
 1033POPC   C2B16124  36.082  14.935   8.275
 1033POPC   C3B16125  36.188  14.969   7.834
 1033POPC   C4B16126  36.375  15.129   7.453
 1034POPC   NC316127  22.723  21.486   9.529
 1034POPC   PO416128  22.803  22.138   9.664
 1034POPC   GL116129  22.781  22.079   9.229
 1034POPC   GL216130  22.522  21.864   9.275
 1034POPC   C1A16131  22.971  22.077   8.805
 1034POPC   D2A16132  23.132  22.261   8.431
 1034POPC   C3A16133  22.931  22.114   8.083
 1034POPC   C4A16134  23.047  22.232   7.681
 1034POPC   C1B16135  22.489  21.868   8.854
 1034POPC   C2B16136  22.687  21.756   8.481
 1034POPC   C3B16137  22.481  21.805   8.088
 1034POPC   C4B16138  22.627  21.908   7.703
 1035POPC   NC316139   6.239  18.208   9.673
 1035POPC   PO416140   6.887  18.539   9.668
 1035POPC   GL116141   6.771  18.301   9.217
 1035POPC   GL216142   6.578  18.537   8.991
 1035POPC   C1A16143   6.494  18.058   8.866
 1035POPC   D2A16144   6.452  18.072   8.390
 1035POPC   C3A16145   6.822  18.262   8.182
 1035POPC   C4A16146   7.076  18.359   7.809
 1035POPC   C1B16147   6.277  18.727   8.725
 1035POPC   C2B16148   6.245  18.579   8.309
 1035POPC   C3B16149   6.141  18.438   7.918
 1035POPC   C4B16150   6.540  18.287   7.754
 1036POPC   NC316151  31.010  17.861   9.462
 1036POPC   PO416152  30.821  17.181   9.367
 1036POPC   GL116153  30.920  17.489   9.107
 1036POPC   GL216154  30.543  17.534   9.083
 1036POPC   C1A16155  30.893  17.612   8.681
 1036POPC   D2A16156  30.636  17.347   8.427
 1036POPC   C3A16157  30.791  17.285   8.038
 1036POPC   C4A16158  30.977  17.540   7.763
 1036POPC   C1B16159  30.487  17.888   8.822
 1036POPC   C2B16160  30.567  17.937   8.387
 1036POPC   C3B16161  30.531  17.736   8.007
 1036POPC   C4B16162  30.626  17.994   7.676
 1037POPC   NC316163  30.426  27.381   9.595
 1037POPC   PO416164  30.353  28.012   9.531
 1037POPC   GL116165  30.527  27.765   9.144
 1037POPC   GL216166  30.594  27.381   9.119
 1037POPC   C1A16167  30.836  27.887   8.792
 1037POPC   D2A16168  30.949  27.987   8.363
 1037POPC   C3A16169  30.719  27.854   7.952
 1037POPC   C4A16170  30.559  27.564   7.609
 1037POPC   C1B16171  30.560  27.460   8.715
 1037POPC   C2B16172  30.717  27.538   8.343
 1037POPC   C3B16173  30.759  27.290   8.006
 1037POPC   C4B16174  31.136  27.081   7.952
 1038POPC   NC316175  16.681  11.029   9.505
 1038POPC   PO416176  16.303  11.619   9.452
 1038POPC   GL116177  16.530  11.357   9.136
 1038POPC   GL216178  16.925  11.324   9.132
 1038POPC   C1A16179  16.661  11.450   8.728
 1038POPC   D2A16180  16.614  11.675   8.372
 1038POPC   C3A16181  16.706  11.389   8.069
 1038POPC   C4A16182  16.893  11.187   7.735
 1038POPC   C1B16183  17.081  11.084   8.728
 1038POPC   C2B16184  17.058  11.003   8.252
 1038POPC   C3B16185  17.122  10.735   7.866
 1038POPC   C4B16186  16.931  10.769   7.403
 1039POPC   NC316187  15.900  19.370   9.616
 1039POPC   PO416188  16.250  18.888   9.621
 1039POPC   GL116189  15.989  18.880   9.248
 1039POPC   GL216190  16.107  19.208   9.114
 1039POPC   C1A16191  15.720  18.997   8.877
 1039POPC   D2A16192  15.948  19.158   8.516
 1039POPC   C3A16193  15.894  19.043   8.080
 1039POPC   C4A16194  15.981  19.223   7.670
 1039POPC   C1B16195  16.280  18.891   8.795
 1039POPC   C2B16196  16.514  18.872   8.353
 1039POPC   C3B16197  16.360  18.726   7.915
 1039POPC   C4B16198  16.337  18.896   7.463
 1040POPC   NC316199  15.322  23.213   9.759
 1040POPC   PO416200  15.125  23.784   9.747
 1040POPC   GL116201  15.321  23.725   9.338
 1040POPC   GL216202  15.324  24.032   9.138
 1040POPC   C1A16203  15.345  23.576   8.881
 1040POPC   D2A16204  15.274  23.342   8.480
 1040POPC   C3A16205  15.328  23.527   8.051
 1040POPC   C4A16206  15.051  23.544   7.675
 1040POPC   C1B16207  15.491  24.055   8.702
 1040POPC   C2B16208  15.366  23.996   8.260
 1040POPC   C3B16209  15.230  23.993   7.821
 1040POPC   C4B16210  15.495  23.753   7.514
 1041POPC   NC316211  42.901   8.626   9.395
 1041POPC   PO416212  43.145   9.275   9.638
 1041POPC   GL116213  43.234   9.040   9.230
 1041POPC   GL216214  43.443   9.228   9.024
 1041POPC   C1A16215  43.181   8.873   8.797
 1041POPC   D2A16216  43.407   8.734   8.426
 1041POPC   C3A16217  43.294   8.862   7.993
 1041POPC   C4A16218  43.049   8.813   7.584
 1041POPC   C1B16219  43.303   9.425   8.704
 1041POPC   C2B16220  43.138   9.198   8.395
 1041POPC   C3B16221  43.161   9.384   8.060
 1041POPC   C4B16222  43.063   9.276   7.704
 1042POPC   NC316223   6.325   3.672   9.403
 1042POPC   PO416224   6.920   3.726   9.460
 1042POPC   GL116225   6.841   3.464   9.111
 1042POPC   GL216226   6.530   3.244   9.125
 1042POPC   C1A16227   6.712   3.505   8.711
 1042POPC   D2A16228   6.523   3.574   8.344
 1042POPC   C3A16229   6.804   3.471   8.076
 1042POPC   C4A16230   6.668   3.538   7.674
 1042POPC   C1B16231   6.493   3.028   8.696
 1042POPC   C2B16232   6.427   3.034   8.252
 1042POPC   C3B16233   6.211   3.197   7.838
 1042POPC   C4B16234   6.238   3.421   7.418
 1043POPC   NC316235  20.684  25.327   9.570
 1043POPC   PO416236  20.078  25.014   9.489
 1043POPC   GL116237  20.396  25.102   9.192
 1043POPC   GL216238  20.701  24.927   9.258
 1043POPC   C1A16239  20.358  25.242   8.785
 1043POPC   D2A16240  20.455  25.384   8.398
 1043POPC   C3A16241  20.278  25.148   8.066
 1043POPC   C4A16242  20.467  25.236   7.682
 1043POPC   C1B16243  20.861  25.205   8.922
 1043POPC   C2B16244  20.880  25.117   8.515
 1043POPC   C3B16245  20.842  25.203   8.089
 1043POPC   C4B16246  20.914  24.995   7.708
 1044POPC   NC316247  16.973  44.286   9.426
 1044POPC   PO416248  16.909  44.939   9.579
 1044POPC   GL116249  16.865  44.908   9.154
 1044POPC   GL216250  17.070  44.637   9.063
 1044POPC   C1A16251  16.737  44.880   8.730
 1044POPC   D2A16252  16.739   0.119   8.356
 1044POPC   C3A16253  16.730  44.912   7.946
 1044POPC   C4A16254  16.447  44.921   7.570
 1044POPC   C1B16255  16.773  44.374   8.799
 1044POPC   C2B16256  16.665  44.512   8.374
 1044POPC   C3B16257  16.800  44.397   7.969
 1044POPC   C4B16258  16.913  44.367   7.531
 1045POPC   NC316259  32.210   6.347   9.552
 1045POPC   PO416260  32.294   6.971   9.448
 1045POPC   GL116261  32.316   6.657   9.135
 1045POPC   GL216262  31.987   6.566   9.138
 1045POPC   C1A16263  32.277   6.496   8.713
 1045POPC   D2A16264  32.286   6.712   8.316
 1045POPC   C3A16265  32.136   6.537   7.923
 1045POPC   C4A16266  32.390   6.232   7.740
 1045POPC   C1B16267  31.859   6.772   8.732
 1045POPC   C2B16268  31.995   7.116   8.461
 1045POPC   C3B16269  32.033   7.041   8.012
 1045POPC   C4B16270  32.357   6.936   7.692
 1046POPC   NC316271  23.473   1.823   9.608
 1046POPC   PO416272  23.447   2.414   9.283
 1046POPC   GL116273  23.712   2.089   9.191
 1046POPC   GL216274  23.652   1.692   9.161
 1046POPC   C1A16275  23.902   2.122   8.802
 1046POPC   D2A16276  23.831   2.275   8.369
 1046POPC   C3A16277  23.960   2.013   8.020
 1046POPC   C4A16278  24.232   2.021   7.643
 1046POPC   C1B16279  23.863   1.601   8.799
 1046POPC   C2B16280  23.707   1.758   8.430
 1046POPC   C3B16281  23.594   1.641   8.023
 1046POPC   C4B16282  23.616   1.877   7.675
 1047POPC   NC316283  30.615   7.985   9.517
 1047POPC   PO416284  30.544   8.554   9.286
 1047POPC   GL116285  30.850   8.346   9.048
 1047POPC   GL216286  30.948   8.005   9.127
 1047POPC   C1A16287  30.766   8.362   8.606
 1047POPC   D2A16288  30.986   8.572   8.304
 1047POPC   C3A16289  30.945   8.443   7.877
 1047POPC   C4A16290  30.931   8.024   7.709
 1047POPC   C1B16291  30.746   7.861   8.751
 1047POPC   C2B16292  30.420   7.984   8.473
 1047POPC   C3B16293  30.524   8.206   8.096
 1047POPC   C4B16294  30.393   8.085   7.696
 1048POPC   NC316295  28.536  37.511   9.541
 1048POPC   PO416296  28.054  37.961   9.489
 1048POPC   GL116297  28.157  37.617   9.161
 1048POPC   GL216298  28.507  37.543   9.040
 1048POPC   C1A16299  28.090  37.363   8.775
 1048POPC   D2A16300  28.006  37.175   8.356
 1048POPC   C3A16301  28.209  37.396   7.990
 1048POPC   C4A16302  28.157  37.815   7.784
 1048POPC   C1B16303  28.672  37.397   8.646
 1048POPC   C2B16304  28.641  37.617   8.245
 1048POPC   C3B16305  28.660  37.663   7.817
 1048POPC   C4B16306  28.864  37.407   7.563
 1049POPC   NC316307  26.339  16.566   9.571
 1049POPC   PO416308  27.025  16.462   9.494
 1049POPC   GL116309  26.964  16.594   9.111
 1049POPC   GL216310  26.671  16.708   9.183
 1049POPC   C1A16311  26.954  16.618   8.688
 1049POPC   D2A16312  26.705  16.504   8.369
 1049POPC   C3A16313  26.972  16.636   8.086
 1049POPC   C4A16314  26.971  16.558   7.691
 1049POPC   C1B16315  26.668  17.010   8.857
 1049POPC   C2B16316  26.672  16.990   8.397
 1049POPC   C3B16317  26.492  16.802   7.995
 1049POPC   C4B16318  26.372  17.021   7.607
 1050POPC   NC316319  31.144  16.268   9.366
 1050POPC   PO416320  31.468  15.792   9.775
 1050POPC   GL116321  31.578  15.995   9.341
 1050POPC   GL216322  31.843  15.829   9.197
 1050POPC   C1A16323  31.565  16.063   8.851
 1050POPC   D2A16324  31.719  16.222   8.429
 1050POPC   C3A16325  31.542  16.036   8.028
 1050POPC   C4A16326  31.373  15.883   7.599
 1050POPC   C1B16327  31.871  15.584   8.825
 1050POPC   C2B16328  31.970  15.716   8.421
 1050POPC   C3B16329  31.863  15.612   8.002
 1050POPC   C4B16330  31.874  15.877   7.651
 1051POPC   NC316331   9.306  26.006   9.718
 1051POPC   PO416332   9.978  25.936   9.452
 1051POPC   GL116333   9.680  25.934   9.095
 1051POPC   GL216334   9.533  25.624   8.999
 1051POPC   C1A16335   9.595  26.096   8.680
 1051POPC   D2A16336   9.869  26.166   8.316
 1051POPC   C3A16337   9.674  26.319   7.936
 1051POPC   C4A16338   9.692  26.364   7.503
 1051POPC   C1B16339   9.856  25.647   8.721
 1051POPC   C2B16340   9.691  25.651   8.351
 1051POPC   C3B16341   9.627  25.812   8.004
 1051POPC   C4B16342   9.506  25.908   7.639
 1052POPC   NC316343  17.070  30.296   9.534
 1052POPC   PO416344  16.479  29.903   9.451
 1052POPC   GL116345  16.610  29.894   9.041
 1052POPC   GL216346  16.973  30.014   9.063
 1052POPC   C1A16347  16.708  29.810   8.642
 1052POPC   D2A16348  16.478  29.994   8.345
 1052POPC   C3A16349  16.654  29.755   8.086
 1052POPC   C4A16350  16.689  29.716   7.683
 1052POPC   C1B16351  17.232  29.890   8.721
 1052POPC   C2B16352  17.138  29.791   8.292
 1052POPC   C3B16353  17.137  29.925   7.853
 1052POPC   C4B16354  17.280  29.902   7.418
 1053POPC   NC316355  41.553  25.589   9.529
 1053POPC   PO416356  41.722  26.260   9.500
 1053POPC   GL116357  41.640  25.951   9.161
 1053POPC   GL216358  41.305  25.771   9.114
 1053POPC   C1A16359  41.642  25.938   8.705
 1053POPC   D2A16360  41.455  25.827   8.290
 1053POPC   C3A16361  41.702  25.967   7.929
 1053POPC   C4A16362  41.739  26.212   7.512
 1053POPC   C1B16363  41.138  25.840   8.713
 1053POPC   C2B16364  41.220  26.242   8.512
 1053POPC   C3B16365  41.300  26.295   8.094
 1053POPC   C4B16366  41.269  26.099   7.733
 1054POPC   NC316367   4.855  25.034   9.792
 1054POPC   PO416368   5.373  25.460   9.528
 1054POPC   GL116369   5.369  25.405   9.102
 1054POPC   GL216370   5.696  25.521   9.045
 1054POPC   C1A16371   5.113  25.267   8.733
 1054POPC   D2A16372   4.949  25.026   8.363
 1054POPC   C3A16373   4.982  25.200   7.918
 1054POPC   C4A16374   4.861  25.101   7.469
 1054POPC   C1B16375   5.526  25.539   8.621
 1054POPC   C2B16376   5.226  25.509   8.284
 1054POPC   C3B16377   5.366  25.591   7.875
 1054POPC   C4B16378   5.307  25.369   7.478
 1055POPC   NC316379   9.606  33.705   9.414
 1055POPC   PO416380  10.274  33.798   9.457
 1055POPC   GL116381  10.058  33.667   9.144
 1055POPC   GL216382   9.888  33.973   9.100
 1055POPC   C1A16383   9.897  33.516   8.759
 1055POPC   D2A16384   9.634  33.600   8.395
 1055POPC   C3A16385   9.928  33.545   8.069
 1055POPC   C4A16386   9.998  33.679   7.665
 1055POPC   C1B16387   9.696  34.026   8.709
 1055POPC   C2B16388   9.591  34.080   8.278
 1055POPC   C3B16389   9.558  33.859   7.885
 1055POPC   C4B16390   9.611  34.000   7.471
 1056POPC   NC316391  17.180  11.675   9.575
 1056POPC   PO416392  17.779  12.097   9.547
 1056POPC   GL116393  17.527  12.146   9.166
 1056POPC   GL216394  17.439  11.815   9.168
 1056POPC   C1A16395  17.448  12.014   8.719
 1056POPC   D2A16396  17.699  11.889   8.381
 1056POPC   C3A16397  17.478  11.898   8.014
 1056POPC   C4A16398  17.428  12.197   7.739
 1056POPC   C1B16399  17.279  11.553   8.833
 1056POPC   C2B16400  17.101  11.513   8.432
 1056POPC   C3B16401  17.205  11.479   8.013
 1056POPC   C4B16402  17.166  11.611   7.597
 1057POPC   NC316403  24.096   4.776   9.634
 1057POPC   PO416404  24.564   5.199   9.626
 1057POPC   GL116405  24.603   5.211   9.194
 1057POPC   GL216406  24.379   5.484   9.124
 1057POPC   C1A16407  24.546   4.996   8.804
 1057POPC   D2A16408  24.314   4.949   8.433
 1057POPC   C3A16409  24.567   4.837   8.081
 1057POPC   C4A16410  24.360   4.966   7.700
 1057POPC   C1B16411  24.577   5.511   8.722
 1057POPC   C2B16412  24.705   5.281   8.356
 1057POPC   C3B16413  24.668   5.318   7.902
 1057POPC   C4B16414  24.706   5.246   7.432
 1058POPC   NC316415  12.075  38.008   9.484
 1058POPC   PO416416  11.831  38.625   9.698
 1058POPC   GL116417  11.852  38.473   9.241
 1058POPC   GL216418  12.202  38.426   9.049
 1058POPC   C1A16419  11.790  38.275   8.814
 1058POPC   D2A16420  12.089  38.424   8.499
 1058POPC   C3A16421  11.949  38.637   8.115
 1058POPC   C4A16422  12.106  38.593   7.709
 1058POPC   C1B16423  12.230  37.992   8.811
 1058POPC   C2B16424  12.090  37.883   8.378
 1058POPC   C3B16425  12.188  38.197   8.038
 1058POPC   C4B16426  12.371  38.141   7.636
 1059POPC   NC316427  14.691   6.700   9.577
 1059POPC   PO416428  14.120   6.877   9.272
 1059POPC   GL116429  14.212   6.652   8.921
 1059POPC   GL216430  14.512   6.553   9.110
 1059POPC   C1A16431  14.065   6.497   8.532
 1059POPC   D2A16432  14.336   6.591   8.225
 1059POPC   C3A16433  14.239   6.545   7.781
 1059POPC   C4A16434  14.095   6.684   7.362
 1059POPC   C1B16435  14.681   6.532   8.709
 1059POPC   C2B16436  14.770   6.312   8.342
 1059POPC   C3B16437  14.806   6.589   8.030
 1059POPC   C4B16438  14.751   6.569   7.667
 1060POPC   NC316439  28.946  35.861   9.379
 1060POPC   PO416440  28.353  36.308   9.527
 1060POPC   GL116441  28.273  36.212   9.111
 1060POPC   GL216442  28.608  36.114   9.095
 1060POPC   C1A16443  28.364  36.213   8.672
 1060POPC   D2A16444  28.697  36.246   8.425
 1060POPC   C3A16445  28.424  36.210   8.108
 1060POPC   C4A16446  28.434  36.147   7.704
 1060POPC   C1B16447  28.732  35.855   8.756
 1060POPC   C2B16448  28.729  35.748   8.328
 1060POPC   C3B16449  28.826  35.916   7.932
 1060POPC   C4B16450  28.748  35.743   7.529
 1061POPC   NC316451  39.681  39.995   9.429
 1061POPC   PO416452  39.084  39.889   9.584
 1061POPC   GL116453  39.248  39.821   9.140
 1061POPC   GL216454  39.578  39.661   9.052
 1061POPC   C1A16455  39.273  40.082   8.743
 1061POPC   D2A16456  39.205  39.994   8.287
 1061POPC   C3A16457  39.170  40.333   7.984
 1061POPC   C4A16458  39.554  40.395   7.734
 1061POPC   C1B16459  39.471  39.632   8.615
 1061POPC   C2B16460  39.544  39.628   8.175
 1061POPC   C3B16461  39.507  39.750   7.783
 1061POPC   C4B16462  39.110  39.905   7.724
 1062POPC   NC316463  41.119   9.054   9.319
 1062POPC   PO416464  40.685   8.583   9.560
 1062POPC   GL116465  40.625   8.842   9.190
 1062POPC   GL216466  40.633   9.189   9.192
 1062POPC   C1A16467  40.818   8.876   8.787
 1062POPC   D2A16468  40.981   8.639   8.451
 1062POPC   C3A16469  40.859   8.820   8.062
 1062POPC   C4A16470  41.077   9.087   7.780
 1062POPC   C1B16471  40.585   9.319   8.787
 1062POPC   C2B16472  40.794   9.204   8.406
 1062POPC   C3B16473  40.665   9.302   8.045
 1062POPC   C4B16474  40.444   8.989   7.822
 1063POPC   NC316475  10.513  15.686   9.513
 1063POPC   PO416476  10.277  16.330   9.454
 1063POPC   GL116477  10.448  16.079   9.116
 1063POPC   GL216478  10.735  15.846   9.066
 1063POPC   C1A16479  10.347  15.996   8.696
 1063POPC   D2A16480  10.178  15.960   8.274
 1063POPC   C3A16481  10.529  15.967   8.047
 1063POPC   C4A16482  10.700  16.227   7.725
 1063POPC   C1B16483  10.627  15.508   8.801
 1063POPC   C2B16484  10.625  15.484   8.351
 1063POPC   C3B16485  10.513  15.469   7.954
 1063POPC   C4B16486  10.726  15.698   7.665
 1064POPC   NC316487  31.571  13.812   9.570
 1064POPC   PO416488  31.201  13.271   9.583
 1064POPC   GL116489  31.238  13.581   9.266
 1064POPC   GL216490  31.521  13.480   9.145
 1064POPC   C1A16491  31.160  13.858   8.931
 1064POPC   D2A16492  31.345  13.695   8.576
 1064POPC   C3A16493  31.245  13.586   8.156
 1064POPC   C4A16494  31.091  13.706   7.756
 1064POPC   C1B16495  31.716  13.396   8.783
 1064POPC   C2B16496  31.762  13.495   8.361
 1064POPC   C3B16497  31.677  13.326   7.988
 1064POPC   C4B16498  31.581  13.564   7.655
 1065POPC   NC316499  23.967  44.213   9.618
 1065POPC   PO416500  24.123  43.613   9.365
 1065POPC   GL116501  23.858  43.928   9.196
 1065POPC   GL216502  23.507  43.922   9.288
 1065POPC   C1A16503  23.737  43.878   8.780
 1065POPC   D2A16504  23.908  43.696   8.410
 1065POPC   C3A16505  23.766  43.923   8.050
 1065POPC   C4A16506  24.037  44.044   7.716
 1065POPC   C1B16507  23.324  44.133   8.923
 1065POPC   C2B16508  23.359  44.089   8.490
 1065POPC   C3B16509  23.260  44.177   8.086
 1065POPC   C4B16510  23.335  43.949   7.758
 1066POPC   NC316511   1.323   6.245   9.267
 1066POPC   PO416512   1.057   5.704   9.610
 1066POPC   GL116513   0.905   5.848   9.158
 1066POPC   GL216514   0.835   6.208   9.109
 1066POPC   C1A16515   0.975   5.557   8.763
 1066POPC   D2A16516   1.308   5.560   8.473
 1066POPC   C3A16517   1.273   5.847   8.133
 1066POPC   C4A16518   1.387   5.597   7.773
 1066POPC   C1B16519   1.025   6.076   8.702
 1066POPC   C2B16520   0.792   5.858   8.388
 1066POPC   C3B16521   0.833   5.617   8.049
 1066POPC   C4B16522   0.956   5.841   7.719
 1067POPC   NC316523  15.958  39.210   9.491
 1067POPC   PO416524  16.518  39.204   9.194
 1067POPC   GL116525  16.091  39.327   9.011
 1067POPC   GL216526  15.707  39.417   9.111
 1067POPC   C1A16527  15.806  39.034   8.799
 1067POPC   D2A16528  15.686  38.981   8.368
 1067POPC   C3A16529  16.022  38.951   8.036
 1067POPC   C4A16530  16.226  39.301   7.800
 1067POPC   C1B16531  15.732  39.530   8.680
 1067POPC   C2B16532  15.623  39.645   8.284
 1067POPC   C3B16533  15.724  39.396   7.918
 1067POPC   C4B16534  15.835  39.341   7.456
 1068POPC   NC316535  34.726  36.728   9.409
 1068POPC   PO416536  34.300  36.199   9.381
 1068POPC   GL116537  34.447  35.950   9.044
 1068POPC   GL216538  34.811  35.911   9.105
 1068POPC   C1A16539  34.335  35.693   8.700
 1068POPC   D2A16540  34.192  35.506   8.330
 1068POPC   C3A16541  34.239  35.842   8.065
 1068POPC   C4A16542  34.493  36.025   7.756
 1068POPC   C1B16543  34.786  36.018   8.674
 1068POPC   C2B16544  34.667  36.140   8.260
 1068POPC   C3B16545  34.925  36.274   7.924
 1068POPC   C4B16546  34.905  36.215   7.498
 1069POPC   NC316547  34.859   2.490   9.279
 1069POPC   PO416548  35.364   2.834   9.623
 1069POPC   GL116549  35.287   2.820   9.208
 1069POPC   GL216550  35.433   2.493   9.203
 1069POPC   C1A16551  35.534   2.846   8.818
 1069POPC   D2A16552  35.709   2.711   8.423
 1069POPC   C3A16553  35.450   2.945   8.159
 1069POPC   C4A16554  35.122   2.977   7.891
 1069POPC   C1B16555  35.299   2.377   8.785
 1069POPC   C2B16556  35.216   2.493   8.375
 1069POPC   C3B16557  35.321   2.473   7.956
 1069POPC   C4B16558  35.718   2.303   7.826
 1070POPC   NC316559  41.857  35.771   9.470
 1070POPC   PO416560  41.468  35.148   9.528
 1070POPC   GL116561  41.580  35.126   9.113
 1070POPC   GL216562  41.738  35.409   9.141
 1070POPC   C1A16563  41.428  35.383   8.737
 1070POPC   D2A16564  41.477  35.205   8.347
 1070POPC   C3A16565  41.651  35.249   7.977
 1070POPC   C4A16566  41.520  35.376   7.596
 1070POPC   C1B16567  41.887  35.655   8.796
 1070POPC   C2B16568  41.765  35.662   8.371
 1070POPC   C3B16569  41.979  35.652   7.969
 1070POPC   C4B16570  41.766  35.838   7.655
 1071POPC   NC316571  24.374  36.757   9.710
 1071POPC   PO416572  23.671  36.881   9.484
 1071POPC   GL116573  23.632  36.905   9.103
 1071POPC   GL216574  23.963  36.971   9.060
 1071POPC   C1A16575  23.414  36.957   8.747
 1071POPC   D2A16576  23.500  36.741   8.401
 1071POPC   C3A16577  23.572  36.952   8.051
 1071POPC   C4A16578  23.568  36.817   7.657
 1071POPC   C1B16579  23.894  36.657   8.730
 1071POPC   C2B16580  23.995  36.678   8.285
 1071POPC   C3B16581  23.992  36.601   7.882
 1071POPC   C4B16582  24.033  36.992   7.698
 1072POPC   NC316583   8.851  43.453   9.868
 1072POPC   PO416584   8.857  43.012   9.337
 1072POPC   GL116585   9.096  43.190   9.011
 1072POPC   GL216586   9.324  42.899   9.075
 1072POPC   C1A16587   9.020  43.399   8.615
 1072POPC   D2A16588   8.914  43.130   8.301
 1072POPC   C3A16589   8.848  43.251   7.917
 1072POPC   C4A16590   8.588  43.397   7.634
 1072POPC   C1B16591   9.324  42.950   8.633
 1072POPC   C2B16592   9.406  43.218   8.308
 1072POPC   C3B16593   9.327  43.073   7.892
 1072POPC   C4B16594   9.258  42.798   7.568
 1073POPC   NC316595  40.083  19.243   9.528
 1073POPC   PO416596  39.650  18.625   9.485
 1073POPC   GL116597  39.850  18.922   9.187
 1073POPC   GL216598  39.796  19.330   9.133
 1073POPC   C1A16599  39.842  18.965   8.754
 1073POPC   D2A16600  39.805  18.743   8.359
 1073POPC   C3A16601  39.890  18.988   7.994
 1073POPC   C4A16602  39.977  19.007   7.541
 1073POPC   C1B16603  39.979  19.467   8.713
 1073POPC   C2B16604  40.085  19.446   8.260
 1073POPC   C3B16605  40.178  19.402   7.797
 1073POPC   C4B16606  40.166  19.430   7.301
 1074POPC   NC316607  22.166  18.876   9.497
 1074POPC   PO416608  22.303  19.606   9.575
 1074POPC   GL116609  22.260  19.336   9.218
 1074POPC   GL216610  21.911  19.219   9.158
 1074POPC   C1A16611  22.256  19.347   8.783
 1074POPC   D2A16612  22.371  19.144   8.396
 1074POPC   C3A16613  22.242  19.201   7.974
 1074POPC   C4A16614  22.382  18.913   7.685
 1074POPC   C1B16615  22.000  18.910   8.823
 1074POPC   C2B16616  21.891  18.936   8.396
 1074POPC   C3B16617  22.023  18.733   8.042
 1074POPC   C4B16618  21.892  18.852   7.641
 1075POPC   NC316619  41.376  27.350   9.532
 1075POPC   PO416620  41.850  27.789   9.521
 1075POPC   GL116621  41.811  27.490   9.205
 1075POPC   GL216622  41.492  27.645   9.126
 1075POPC   C1A16623  41.857  27.560   8.771
 1075POPC   D2A16624  41.557  27.648   8.470
 1075POPC   C3A16625  41.790  27.644   8.091
 1075POPC   C4A16626  41.781  27.522   7.662
 1075POPC   C1B16627  41.276  27.957   8.900
 1075POPC   C2B16628  41.041  27.995   8.530
 1075POPC   C3B16629  41.155  27.797   8.151
 1075POPC   C4B16630  41.042  27.886   7.739
 1076POPC   NC316631  22.828   8.577   9.506
 1076POPC   PO416632  23.123   8.008   9.470
 1076POPC   GL116633  22.858   8.185   9.150
 1076POPC   GL216634  23.010   8.493   9.026
 1076POPC   C1A16635  22.895   7.996   8.756
 1076POPC   D2A16636  23.099   8.064   8.344
 1076POPC   C3A16637  22.876   8.104   7.972
 1076POPC   C4A16638  22.676   8.333   7.699
 1076POPC   C1B16639  22.861   8.469   8.591
 1076POPC   C2B16640  22.897   8.584   8.164
 1076POPC   C3B16641  23.116   8.564   7.800
 1076POPC   C4B16642  23.374   8.847   7.598
 1077POPC   NC316643  18.709  10.436   9.274
 1077POPC   PO416644  19.368  10.343   9.453
 1077POPC   GL116645  19.168  10.332   9.061
 1077POPC   GL216646  19.022  10.665   8.949
 1077POPC   C1A16647  19.227  10.309   8.622
 1077POPC   D2A16648  19.217  10.531   8.236
 1077POPC   C3A16649  19.174  10.268   7.871
 1077POPC   C4A16650  19.223  10.617   7.624
 1077POPC   C1B16651  18.764  10.539   8.611
 1077POPC   C2B16652  18.776  10.280   8.256
 1077POPC   C3B16653  18.721  10.473   7.855
 1077POPC   C4B16654  18.749  10.550   7.408
 1078POPC   NC316655   8.878  42.689   9.672
 1078POPC   PO416656   9.051  42.066   9.525
 1078POPC   GL116657   8.916  42.301   9.140
 1078POPC   GL216658   8.668  42.543   9.160
 1078POPC   C1A16659   8.892  42.177   8.699
 1078POPC   D2A16660   9.168  42.121   8.337
 1078POPC   C3A16661   8.989  42.141   7.949
 1078POPC   C4A16662   9.075  42.005   7.520
 1078POPC   C1B16663   8.892  42.700   8.775
 1078POPC   C2B16664   9.030  42.634   8.364
 1078POPC   C3B16665   8.903  42.708   7.953
 1078POPC   C4B16666   8.890  42.463   7.577
 1079POPC   NC316667  11.294  34.778   9.363
 1079POPC   PO416668  10.906  34.267   9.455
 1079POPC   GL116669  11.063  34.437   9.063
 1079POPC   GL216670  10.903  34.758   9.014
 1079POPC   C1A16671  11.412  34.563   8.750
 1079POPC   D2A16672  11.751  34.707   8.422
 1079POPC   C3A16673  11.584  34.563   8.015
 1079POPC   C4A16674  11.412  34.557   7.600
 1079POPC   C1B16675  10.972  34.931   8.610
 1079POPC   C2B16676  11.215  34.777   8.320
 1079POPC   C3B16677  11.066  34.672   7.968
 1079POPC   C4B16678  11.086  34.958   7.679
 1080POPC   NC316679  36.607  25.742   9.457
 1080POPC   PO416680  36.717  26.208   9.875
 1080POPC   GL116681  36.746  26.193   9.299
 1080POPC   GL216682  37.037  26.055   9.056
 1080POPC   C1A16683  36.705  26.318   8.821
 1080POPC   D2A16684  36.860  26.146   8.402
 1080POPC   C3A16685  36.781  26.284   7.942
 1080POPC   C4A16686  36.885  26.116   7.486
 1080POPC   C1B16687  36.744  25.772   8.807
 1080POPC   C2B16688  36.733  25.410   8.530
 1080POPC   C3B16689  36.906  25.421   8.122
 1080POPC   C4B16690  36.893  25.770   7.849
 1081POPC   NC316691  12.499   9.655   9.441
 1081POPC   PO416692  11.891   9.926   9.422
 1081POPC   GL116693  12.018   9.659   9.094
 1081POPC   GL216694  12.313   9.854   9.013
 1081POPC   C1A16695  11.867   9.354   8.711
 1081POPC   D2A16696  11.623   9.327   8.332
 1081POPC   C3A16697  11.893   9.441   7.985
 1081POPC   C4A16698  11.915   9.702   7.615
 1081POPC   C1B16699  12.144   9.766   8.613
 1081POPC   C2B16700  11.965   9.898   8.232
 1081POPC   C3B16701  12.149  10.062   7.877
 1081POPC   C4B16702  12.440   9.770   7.629
 1082POPC   NC316703  13.850  30.038   9.507
 1082POPC   PO416704  13.186  30.219   9.454
 1082POPC   GL116705  13.415  29.864   9.200
 1082POPC   GL216706  13.784  29.800   9.075
 1082POPC   C1A16707  13.425  29.710   8.749
 1082POPC   D2A16708  13.543  29.922   8.375
 1082POPC   C3A16709  13.697  29.736   8.023
 1082POPC   C4A16710  13.337  29.762   7.807
 1082POPC   C1B16711  13.753  30.159   8.795
 1082POPC   C2B16712  13.866  30.324   8.376
 1082POPC   C3B16713  13.715  30.263   7.935
 1082POPC   C4B16714  13.817  30.339   7.477
 1083POPC   NC316715  43.947  10.989   9.436
 1083POPC   PO416716  43.545  11.566   9.512
 1083POPC   GL116717  43.614  11.370   9.128
 1083POPC   GL216718  43.497  10.996   9.183
 1083POPC   C1A16719  43.880  11.511   8.732
 1083POPC   D2A16720  43.899  11.690   8.310
 1083POPC   C3A16721  44.056  11.456   7.950
 1083POPC   C4A16722  43.952  11.473   7.526
 1083POPC   C1B16723  43.708  11.040   8.766
 1083POPC   C2B16724  43.661  11.150   8.335
 1083POPC   C3B16725  43.661  11.132   7.888
 1083POPC   C4B16726  43.946  10.952   7.593
 1084POPC   NC316727  32.867   5.978   9.575
 1084POPC   PO416728  33.510   6.141   9.446
 1084POPC   GL116729  33.207   6.127   9.123
 1084POPC   GL216730  33.173   5.774   9.055
 1084POPC   C1A16731  33.162   6.107   8.660
 1084POPC   D2A16732  32.891   5.861   8.409
 1084POPC   C3A16733  33.079   5.796   8.026
 1084POPC   C4A16734  33.488   5.783   7.805
 1084POPC   C1B16735  32.792   5.558   8.825
 1084POPC   C2B16736  32.545   5.474   8.420
 1084POPC   C3B16737  32.680   5.376   7.987
 1084POPC   C4B16738  32.953   5.496   7.652
 1085POPC   NC316739  43.309  23.744   9.547
 1085POPC   PO416740  42.672  23.973   9.380
 1085POPC   GL116741  42.954  23.803   9.081
 1085POPC   GL216742  43.233  23.595   9.082
 1085POPC   C1A16743  42.955  23.716   8.647
 1085POPC   D2A16744  42.814  24.008   8.336
 1085POPC   C3A16745  42.841  23.860   7.952
 1085POPC   C4A16746  43.205  23.887   7.747
 1085POPC   C1B16747  43.518  23.538   8.749
 1085POPC   C2B16748  43.387  23.611   8.339
 1085POPC   C3B16749  43.277  23.428   7.968
 1085POPC   C4B16750  42.959  23.444   7.626
 1086POPC   NC316751  16.797   2.096   9.703
 1086POPC   PO416752  16.891   1.480   9.424
 1086POPC   GL116753  16.868   1.882   9.238
 1086POPC   GL216754  16.636   2.186   9.224
 1086POPC   C1A16755  16.776   1.898   8.822
 1086POPC   D2A16756  17.016   1.815   8.459
 1086POPC   C3A16757  17.035   1.894   8.005
 1086POPC   C4A16758  16.677   1.803   7.748
 1086POPC   C1B16759  16.403   2.242   8.836
 1086POPC   C2B16760  16.606   2.163   8.434
 1086POPC   C3B16761  16.672   2.258   8.042
 1086POPC   C4B16762  16.459   2.251   7.687
 1087POPC   NC316763  21.894  14.826   9.452
 1087POPC   PO416764  22.105  14.192   9.580
 1087POPC   GL116765  22.185  14.341   9.203
 1087POPC   GL216766  22.426  14.050   9.167
 1087POPC   C1A16767  22.104  14.632   8.844
 1087POPC   D2A16768  21.874  14.568   8.468
 1087POPC   C3A16769  22.071  14.461   8.101
 1087POPC   C4A16770  21.862  14.623   7.742
 1087POPC   C1B16771  22.227  14.117   8.764
 1087POPC   C2B16772  22.300  13.991   8.328
 1087POPC   C3B16773  22.113  13.857   7.957
 1087POPC   C4B16774  22.076  14.168   7.676
 1088POPC   NC316775   7.553   9.131   9.634
 1088POPC   PO416776   7.415   8.552   9.299
 1088POPC   GL116777   7.645   8.885   9.167
 1088POPC   GL216778   7.468   9.191   9.143
 1088POPC   C1A16779   7.710   8.863   8.734
 1088POPC   D2A16780   7.381   8.822   8.429
 1088POPC   C3A16781   7.473   8.771   7.985
 1088POPC   C4A16782   7.292   8.645   7.622
 1088POPC   C1B16783   7.415   9.285   8.742
 1088POPC   C2B16784   7.298   9.307   8.321
 1088POPC   C3B16785   7.165   9.185   7.921
 1088POPC   C4B16786   7.406   9.126   7.534
 1089POPC   NC316787  37.830  32.578   9.451
 1089POPC   PO416788  37.230  32.272   9.568
 1089POPC   GL116789  37.513  32.255   9.204
 1089POPC   GL216790  37.515  32.579   9.040
 1089POPC   C1A16791  37.557  32.045   8.820
 1089POPC   D2A16792  37.437  31.945   8.409
 1089POPC   C3A16793  37.520  32.236   8.081
 1089POPC   C4A16794  37.584  32.117   7.665
 1089POPC   C1B16795  37.855  32.443   8.804
 1089POPC   C2B16796  37.892  32.222   8.436
 1089POPC   C3B16797  38.014  32.098   8.050
 1089POPC   C4B16798  38.089  32.255   7.692
 1090POPC   NC316799  21.365  43.506   9.572
 1090POPC   PO416800  21.039  44.089   9.544
 1090POPC   GL116801  21.104  43.790   9.225
 1090POPC   GL216802  21.433  43.853   9.162
 1090POPC   C1A16803  21.101  43.834   8.777
 1090POPC   D2A16804  21.128  43.533   8.442
 1090POPC   C3A16805  21.117  43.735   8.039
 1090POPC   C4A16806  21.240  44.170   7.886
 1090POPC   C1B16807  21.625  43.939   8.755
 1090POPC   C2B16808  21.546  44.066   8.315
 1090POPC   C3B16809  21.753  44.096   7.904
 1090POPC   C4B16810  21.741  44.180   7.435
 1091POPC   NC316811  31.894  38.763   9.403
 1091POPC   PO416812  31.286  38.837   9.323
 1091POPC   GL116813  31.342  38.440   9.052
 1091POPC   GL216814  31.690  38.271   9.116
 1091POPC   C1A16815  31.291  38.460   8.588
 1091POPC   D2A16816  31.413  38.785   8.284
 1091POPC   C3A16817  31.601  38.583   7.975
 1091POPC   C4A16818  31.385  38.301   7.694
 1091POPC   C1B16819  31.603  38.064   8.707
 1091POPC   C2B16820  31.535  38.142   8.256
 1091POPC   C3B16821  31.817  38.122   7.896
 1091POPC   C4B16822  31.818  38.184   7.418
 1092POPC   NC316823   6.399  34.051   9.455
 1092POPC   PO416824   7.021  33.751   9.401
 1092POPC   GL116825   6.968  33.810   8.991
 1092POPC   GL216826   6.665  34.030   9.000
 1092POPC   C1A16827   6.924  33.964   8.561
 1092POPC   D2A16828   6.549  33.904   8.309
 1092POPC   C3A16829   6.624  33.691   7.916
 1092POPC   C4A16830   6.890  33.901   7.623
 1092POPC   C1B16831   6.257  34.047   8.751
 1092POPC   C2B16832   6.121  34.181   8.319
 1092POPC   C3B16833   6.250  34.042   7.893
 1092POPC   C4B16834   6.406  33.876   7.462
 1093POPC   NC316835  23.431  15.838   9.385
 1093POPC   PO416836  22.752  15.759   9.601
 1093POPC   GL116837  22.735  15.933   9.212
 1093POPC   GL216838  23.043  16.002   9.082
 1093POPC   C1A16839  22.710  15.708   8.808
 1093POPC   D2A16840  22.522  15.824   8.432
 1093POPC   C3A16841  22.763  15.854   8.098
 1093POPC   C4A16842  22.746  15.652   7.713
 1093POPC   C1B16843  23.234  15.724   8.781
 1093POPC   C2B16844  23.444  15.787   8.390
 1093POPC   C3B16845  23.280  15.919   8.027
 1093POPC   C4B16846  22.999  16.087   7.718
 1094POPC   NC316847  29.731  32.467   9.396
 1094POPC   PO416848  30.356  32.157   9.485
 1094POPC   GL116849  30.071  32.160   9.155
 1094POPC   GL216850  30.167  32.505   9.130
 1094POPC   C1A16851  29.799  32.252   8.768
 1094POPC   D2A16852  29.656  32.484   8.394
 1094POPC   C3A16853  29.759  32.352   7.984
 1094POPC   C4A16854  29.613  32.064   7.696
 1094POPC   C1B16855  30.318  32.359   8.753
 1094POPC   C2B16856  30.162  32.393   8.369
 1094POPC   C3B16857  30.269  32.332   7.979
 1094POPC   C4B16858  30.108  32.185   7.624
 1095POPC   NC316859  16.248  13.756   9.502
 1095POPC   PO416860  15.672  13.941   9.354
 1095POPC   GL116861  15.927  13.784   9.032
 1095POPC   GL216862  16.146  13.517   9.033
 1095POPC   C1A16863  16.103  13.798   8.605
 1095POPC   D2A16864  15.902  13.863   8.203
 1095POPC   C3A16865  16.002  13.651   7.847
 1095POPC   C4A16866  15.790  13.577   7.449
 1095POPC   C1B16867  15.859  13.349   8.693
 1095POPC   C2B16868  15.926  13.313   8.231
 1095POPC   C3B16869  15.695  13.242   7.825
 1095POPC   C4B16870  15.689  13.082   7.345
 1096POPC   NC316871   4.150  17.220   9.636
 1096POPC   PO416872   4.387  16.523   9.514
 1096POPC   GL116873   4.173  16.583   9.159
 1096POPC   GL216874   4.091  16.914   9.180
 1096POPC   C1A16875   4.314  16.436   8.766
 1096POPC   D2A16876   4.203  16.596   8.379
 1096POPC   C3A16877   4.548  16.608   8.112
 1096POPC   C4A16878   4.579  16.743   7.704
 1096POPC   C1B16879   3.960  16.858   8.756
 1096POPC   C2B16880   3.947  17.069   8.364
 1096POPC   C3B16881   4.167  16.972   8.005
 1096POPC   C4B16882   4.099  16.939   7.589
 1097POPC   NC316883  23.987  12.306   9.840
 1097POPC   PO416884  23.516  12.408   9.439
 1097POPC   GL116885  23.692  12.231   9.041
 1097POPC   GL216886  24.030  12.085   9.086
 1097POPC   C1A16887  23.842  12.159   8.618
 1097POPC   D2A16888  23.782  12.303   8.222
 1097POPC   C3A16889  23.786  12.119   7.822
 1097POPC   C4A16890  23.917  12.265   7.409
 1097POPC   C1B16891  24.080  11.739   8.760
 1097POPC   C2B16892  23.847  11.604   8.353
 1097POPC   C3B16893  23.835  11.610   7.880
 1097POPC   C4B16894  23.654  11.765   7.469
 1098POPC   NC316895  10.146   8.088   9.509
 1098POPC   PO416896  10.603   8.517   9.443
 1098POPC   GL116897  10.552   8.217   9.138
 1098POPC   GL216898  10.243   8.352   9.055
 1098POPC   C1A16899  10.731   8.327   8.715
 1098POPC   D2A16900  10.592   8.360   8.322
 1098POPC   C3A16901  10.838   8.231   8.035
 1098POPC   C4A16902  10.561   8.206   7.723
 1098POPC   C1B16903  10.333   8.006   8.717
 1098POPC   C2B16904  10.293   7.937   8.258
 1098POPC   C3B16905  10.099   8.003   7.857
 1098POPC   C4B16906  10.025   7.940   7.430
 1099POPC   NC316907  37.971  44.344   9.627
 1099POPC   PO416908  37.789  44.938   9.766
 1099POPC   GL116909  37.730  44.804   9.266
 1099POPC   GL216910  37.738  44.418   9.181
 1099POPC   C1A16911  37.651  44.702   8.775
 1099POPC   D2A16912  37.692  44.450   8.364
 1099POPC   C3A16913  37.687  44.681   7.938
 1099POPC   C4A16914  37.403   0.002   7.730
 1099POPC   C1B16915  37.996  44.267   8.815
 1099POPC   C2B16916  38.187  44.357   8.391
 1099POPC   C3B16917  38.011  44.257   7.949
 1099POPC   C4B16918  37.777  44.375   7.516
 1100POPC   NC316919  17.182  42.580   9.600
 1100POPC   PO416920  17.858  42.424   9.546
 1100POPC   GL116921  17.556  42.350   9.204
 1100POPC   GL216922  17.463  41.995   9.135
 1100POPC   C1A16923  17.612  42.376   8.749
 1100POPC   D2A16924  17.331  42.511   8.426
 1100POPC   C3A16925  17.438  42.665   8.037
 1100POPC   C4A16926  17.296  42.542   7.623
 1100POPC   C1B16927  17.683  41.866   8.736
 1100POPC   C2B16928  17.757  42.073   8.316
 1100POPC   C3B16929  17.584  42.196   7.892
 1100POPC   C4B16930  17.615  41.928   7.506
 1101POPC   NC316931  11.253  26.614   9.461
 1101POPC   PO416932  11.521  27.295   9.484
 1101POPC   GL116933  11.445  27.001   9.189
 1101POPC   GL216934  11.128  27.051   9.150
 1101POPC   C1A16935  11.458  26.691   8.847
 1101POPC   D2A16936  11.616  26.446   8.513
 1101POPC   C3A16937  11.360  26.476   8.160
 1101POPC   C4A16938  11.314  26.773   7.861
 1101POPC   C1B16939  10.965  26.823   8.837
 1101POPC   C2B16940  11.130  26.835   8.456
 1101POPC   C3B16941  10.903  26.926   8.106
 1101POPC   C4B16942  10.803  26.867   7.699
 1102POPC   NC316943  17.514   7.333   9.724
 1102POPC   PO416944  17.063   6.818   9.628
 1102POPC   GL116945  17.210   7.216   9.336
 1102POPC   GL216946  17.109   7.571   9.281
 1102POPC   C1A16947  17.463   7.411   8.946
 1102POPC   D2A16948  17.486   7.519   8.469
 1102POPC   C3A16949  17.672   7.272   8.094
 1102POPC   C4A16950  17.806   6.895   7.844
 1102POPC   C1B16951  17.043   7.677   8.823
 1102POPC   C2B16952  16.981   7.554   8.394
 1102POPC   C3B16953  16.997   7.715   7.993
 1102POPC   C4B16954  17.070   7.521   7.583
 1103POPC   NC316955  19.535   4.929   9.462
 1103POPC   PO416956  18.866   4.977   9.609
 1103POPC   GL116957  18.799   5.147   9.201
 1103POPC   GL216958  19.153   5.132   9.184
 1103POPC   C1A16959  18.844   4.987   8.780
 1103POPC   D2A16960  18.629   5.053   8.381
 1103POPC   C3A16961  18.868   4.987   7.991
 1103POPC   C4A16962  18.856   5.005   7.540
 1103POPC   C1B16963  19.360   5.190   8.815
 1103POPC   C2B16964  19.218   5.088   8.418
 1103POPC   C3B16965  19.313   5.235   8.030
 1103POPC   C4B16966  19.341   5.116   7.631
 1104POPC   NC316967  25.961  41.603   9.421
 1104POPC   PO416968  26.369  41.157   9.646
 1104POPC   GL116969  26.367  41.401   9.204
 1104POPC   GL216970  26.376  41.799   9.168
 1104POPC   C1A16971  26.099  41.493   8.790
 1104POPC   D2A16972  26.258  41.526   8.375
 1104POPC   C3A16973  25.988  41.480   8.010
 1104POPC   C4A16974  25.948  41.727   7.633
 1104POPC   C1B16975  26.273  41.958   8.744
 1104POPC   C2B16976  26.412  42.040   8.339
 1104POPC   C3B16977  26.338  41.875   7.959
 1104POPC   C4B16978  26.501  42.104   7.654
 1105POPC   NC316979  18.310  10.691   9.721
 1105POPC   PO416980  18.816  10.913   9.349
 1105POPC   GL116981  18.493  10.821   9.035
 1105POPC   GL216982  18.230  10.646   9.180
 1105POPC   C1A16983  18.278  10.692   8.647
 1105POPC   D2A16984  18.327  10.566   8.199
 1105POPC   C3A16985  18.386  10.849   7.836
 1105POPC   C4A16986  18.269  10.768   7.388
 1105POPC   C1B16987  18.060  10.324   8.901
 1105POPC   C2B16988  17.923  10.327   8.475
 1105POPC   C3B16989  18.004  10.161   8.046
 1105POPC   C4B16990  18.246  10.339   7.691
 1106POPC   NC316991   1.433  22.399   9.438
 1106POPC   PO416992   0.840  22.166   9.493
 1106POPC   GL116993   1.107  21.992   9.231
 1106POPC   GL216994   1.161  21.634   9.272
 1106POPC   C1A16995   1.176  22.141   8.852
 1106POPC   D2A16996   1.040  22.248   8.461
 1106POPC   C3A16997   1.339  22.202   8.126
 1106POPC   C4A16998   1.389  22.526   7.809
 1106POPC   C1B16999   1.016  21.665   8.834
 1106POPC   C2B17000   1.291  21.811   8.489
 1106POPC   C3B17001   1.419  21.672   8.118
 1106POPC   C4B17002   1.435  21.839   7.789
 1107POPC   NC317003  17.313  24.988   9.499
 1107POPC   PO417004  17.608  25.624   9.469
 1107POPC   GL117005  17.530  25.323   9.178
 1107POPC   GL217006  17.766  25.044   9.176
 1107POPC   C1A17007  17.321  25.200   8.814
 1107POPC   D2A17008  17.261  25.404   8.441
 1107POPC   C3A17009  17.308  25.164   8.090
 1107POPC   C4A17010  17.269  25.415   7.741
 1107POPC   C1B17011  17.824  25.295   8.778
 1107POPC   C2B17012  17.748  25.317   8.378
 1107POPC   C3B17013  17.751  25.402   7.981
 1107POPC   C4B17014  17.661  25.086   7.703
 1108POPC   NC317015  40.018  43.347   9.562
 1108POPC   PO417016  39.679  42.764   9.436
 1108POPC   GL117017  39.812  43.096   9.125
 1108POPC   GL217018  40.171  43.241   9.102
 1108POPC   C1A17019  39.778  43.308   8.724
 1108POPC   D2A17020  40.050  43.386   8.350
 1108POPC   C3A17021  39.933  43.154   7.951
 1108POPC   C4A17022  39.767  43.265   7.540
 1108POPC   C1B17023  40.224  43.039   8.731
 1108POPC   C2B17024  40.538  42.939   8.478
 1108POPC   C3B17025  40.420  43.060   8.106
 1108POPC   C4B17026  40.296  42.825   7.787
 1109POPC   NC317027  44.075   5.065   9.484
 1109POPC   PO417028  43.471   5.243   9.349
 1109POPC   GL117029  43.827   5.249   9.078
 1109POPC   GL217030  44.014   4.938   8.982
 1109POPC   C1A17031  43.853   5.269   8.657
 1109POPC   D2A17032  43.835   4.961   8.372
 1109POPC   C3A17033  43.913   5.148   8.037
 1109POPC   C4A17034  44.081   5.073   7.693
 1109POPC   C1B17035  43.558   4.883   8.800
 1109POPC   C2B17036  43.322   4.927   8.440
 1109POPC   C3B17037  43.482   4.731   8.071
 1109POPC   C4B17038  43.626   4.841   7.674
 1110POPC   NC317039  20.113  41.719   9.418
 1110POPC   PO417040  19.514  41.433   9.508
 1110POPC   GL117041  19.711  41.527   9.147
 1110POPC   GL217042  19.914  41.262   9.181
 1110POPC   C1A17043  19.572  41.614   8.742
 1110POPC   D2A17044  19.367  41.594   8.347
 1110POPC   C3A17045  19.657  41.392   8.026
 1110POPC   C4A17046  19.884  41.435   7.624
 1110POPC   C1B17047  20.090  41.392   8.812
 1110POPC   C2B17048  19.980  41.343   8.413
 1110POPC   C3B17049  20.185  41.344   8.025
 1110POPC   C4B17050  20.290  41.125   7.665
 1111POPC   NC317051   8.456  14.223   9.467
 1111POPC   PO417052   7.982  14.743   9.553
 1111POPC   GL117053   8.120  14.503   9.197
 1111POPC   GL217054   7.875  14.271   9.208
 1111POPC   C1A17055   8.376  14.528   8.797
 1111POPC   D2A17056   8.269  14.699   8.396
 1111POPC   C3A17057   8.405  14.412   8.097
 1111POPC   C4A17058   8.500  14.399   7.688
 1111POPC   C1B17059   7.990  14.186   8.792
 1111POPC   C2B17060   7.955  14.285   8.360
 1111POPC   C3B17061   8.034  14.135   7.921
 1111POPC   C4B17062   8.047  14.324   7.494
 1112POPC   NC317063  18.955  18.147   9.579
 1112POPC   PO417064  19.430  18.572   9.493
 1112POPC   GL117065  19.205  18.313   9.141
 1112POPC   GL217066  18.835  18.239   9.086
 1112POPC   C1A17067  19.192  18.233   8.686
 1112POPC   D2A17068  19.154  18.007   8.287
 1112POPC   C3A17069  19.015  18.275   7.949
 1112POPC   C4A17070  18.995  18.250   7.531
 1112POPC   C1B17071  18.813  18.590   8.793
 1112POPC   C2B17072  18.862  18.498   8.373
 1112POPC   C3B17073  18.652  18.093   8.253
 1112POPC   C4B17074  18.563  18.005   7.826
 1113POPC   NC317075  20.114  17.733   9.515
 1113POPC   PO417076  19.742  17.272   9.479
 1113POPC   GL117077  20.068  17.334   9.194
 1113POPC   GL217078  19.745  17.332   8.969
 1113POPC   C1A17079  20.135  17.608   8.828
 1113POPC   D2A17080  19.891  17.486   8.452
 1113POPC   C3A17081  20.002  17.518   7.988
 1113POPC   C4A17082  19.931  17.816   7.647
 1113POPC   C1B17083  19.441  17.353   8.622
 1113POPC   C2B17084  19.529  17.172   8.221
 1113POPC   C3B17085  19.478  17.257   7.767
 1113POPC   C4B17086  19.433  17.214   7.315
 1114POPC   NC317087  27.977   2.262   9.469
 1114POPC   PO417088  27.790   1.598   9.481
 1114POPC   GL117089  27.514   1.833   9.196
 1114POPC   GL217090  27.568   2.190   9.178
 1114POPC   C1A17091  27.474   1.836   8.752
 1114POPC   D2A17092  27.804   1.719   8.466
 1114POPC   C3A17093  27.709   1.697   8.059
 1114POPC   C4A17094  27.586   2.014   7.774
 1114POPC   C1B17095  27.339   2.336   8.841
 1114POPC   C2B17096  27.295   2.229   8.445
 1114POPC   C3B17097  27.190   2.449   8.106
 1114POPC   C4B17098  27.261   2.405   7.714
 1115POPC   NC317099  17.264  31.086   9.436
 1115POPC   PO417100  17.599  30.505   9.652
 1115POPC   GL117101  17.614  30.742   9.290
 1115POPC   GL217102  17.314  30.623   9.208
 1115POPC   C1A17103  17.607  30.709   8.811
 1115POPC   D2A17104  17.802  30.592   8.414
 1115POPC   C3A17105  17.599  30.794   8.052
 1115POPC   C4A17106  17.211  31.008   7.907
 1115POPC   C1B17107  17.199  30.407   8.805
 1115POPC   C2B17108  17.277  30.620   8.391
 1115POPC   C3B17109  17.250  30.425   7.954
 1115POPC   C4B17110  17.342  30.403   7.492
 1116POPC   NC317111   7.248  21.560   9.766
 1116POPC   PO417112   7.700  21.191   9.348
 1116POPC   GL117113   7.602  21.444   9.090
 1116POPC   GL217114   7.299  21.555   9.186
 1116POPC   C1A17115   7.737  21.564   8.716
 1116POPC   D2A17116   7.591  21.439   8.315
 1116POPC   C3A17117   7.581  21.696   7.958
 1116POPC   C4A17118   7.656  21.516   7.560
 1116POPC   C1B17119   7.258  21.317   8.718
 1116POPC   C2B17120   7.298  21.030   8.303
 1116POPC   C3B17121   7.262  21.271   7.908
 1116POPC   C4B17122   7.031  21.627   8.022
 1117POPC   NC317123  43.100  31.957   9.751
 1117POPC   PO417124  42.961  31.390   9.569
 1117POPC   GL117125  43.109  31.151   9.168
 1117POPC   GL217126  43.450  31.053   9.047
 1117POPC   C1A17127  43.039  31.120   8.753
 1117POPC   D2A17128  43.217  31.106   8.350
 1117POPC   C3A17129  42.955  31.309   8.077
 1117POPC   C4A17130  42.890  31.536   7.715
 1117POPC   C1B17131  43.479  31.409   8.713
 1117POPC   C2B17132  43.484  31.584   8.265
 1117POPC   C3B17133  43.391  31.453   7.817
 1117POPC   C4B17134  43.546  31.502   7.366
 1118POPC   NC317135  44.151  38.891   9.504
 1118POPC   PO417136  44.646  39.391   9.486
 1118POPC   GL117137  44.601  39.249   9.082
 1118POPC   GL217138  44.824  38.999   9.134
 1118POPC   C1A17139  44.364  39.337   8.704
 1118POPC   D2A17140  44.575  39.327   8.317
 1118POPC   C3A17141  44.569  39.141   7.938
 1118POPC   C4A17142  44.479  39.314   7.565
 1118POPC   C1B17143  44.906  38.992   8.701
 1118POPC   C2B17144  45.000  39.038   8.277
 1118POPC   C3B17145   0.100  38.859   7.890
 1118POPC   C4B17146  44.823  38.910   7.547
 1119POPC   NC317147  15.262   7.447   9.561
 1119POPC   PO417148  15.409   6.780   9.358
 1119POPC   GL117149  15.347   7.179   9.146
 1119POPC   GL217150  14.992   7.353   9.168
 1119POPC   C1A17151  15.325   7.403   8.778
 1119POPC   D2A17152  15.465   7.293   8.380
 1119POPC   C3A17153  15.269   7.494   8.023
 1119POPC   C4A17154  15.256   7.319   7.645
 1119POPC   C1B17155  14.813   7.470   8.823
 1119POPC   C2B17156  14.951   7.438   8.427
 1119POPC   C3B17157  14.758   7.430   8.053
 1119POPC   C4B17158  14.730   7.641   7.684
 1120POPC   NC317159   9.286  14.415   9.545
 1120POPC   PO417160   8.618  14.655   9.390
 1120POPC   GL117161   8.891  14.345   9.138
 1120POPC   GL217162   9.213  14.126   9.147
 1120POPC   C1A17163   9.060  14.498   8.751
 1120POPC   D2A17164   8.785  14.547   8.402
 1120POPC   C3A17165   8.926  14.467   7.987
 1120POPC   C4A17166   8.927  14.642   7.572
 1120POPC   C1B17167   9.100  13.994   8.751
 1120POPC   C2B17168   9.154  14.146   8.352
 1120POPC   C3B17169   9.271  13.964   7.977
 1120POPC   C4B17170   9.209  14.207   7.644
 1121POPC   NC317171   1.312  23.962   9.506
 1121POPC   PO417172   1.553  23.308   9.448
 1121POPC   GL117173   1.236  23.464   9.125
 1121POPC   GL217174   1.292  23.824   9.034
 1121POPC   C1A17175   1.101  23.555   8.683
 1121POPC   D2A17176   1.163  23.817   8.372
 1121POPC   C3A17177   1.280  23.561   8.094
 1121POPC   C4A17178   1.115  23.519   7.707
 1121POPC   C1B17179   1.570  23.922   8.682
 1121POPC   C2B17180   1.772  23.873   8.339
 1121POPC   C3B17181   1.551  24.074   8.085
 1121POPC   C4B17182   1.337  23.972   7.775
 1122POPC   NC317183   5.546  15.549   9.331
 1122POPC   PO417184   5.920  16.028   9.634
 1122POPC   GL117185   5.855  15.983   9.194
 1122POPC   GL217186   6.101  16.159   8.977
 1122POPC   C1A17187   5.601  16.099   8.836
 1122POPC   D2A17188   5.814  16.239   8.482
 1122POPC   C3A17189   5.886  15.926   8.147
 1122POPC   C4A17190   5.836  16.096   7.714
 1122POPC   C1B17191   6.031  15.821   8.677
 1122POPC   C2B17192   6.267  15.471   8.505
 1122POPC   C3B17193   6.190  15.426   8.087
 1122POPC   C4B17194   6.193  15.745   7.747
 1123POPC   NC317195  28.562  17.795   9.406
 1123POPC   PO417196  29.160  17.484   9.477
 1123POPC   GL117197  29.106  17.581   9.086
 1123POPC   GL217198  28.803  17.460   9.038
 1123POPC   C1A17199  29.142  17.441   8.644
 1123POPC   D2A17200  29.205  17.674   8.279
 1123POPC   C3A17201  29.040  17.652   7.878
 1123POPC   C4A17202  29.311  17.799   7.542
 1123POPC   C1B17203  28.676  17.267   8.613
 1123POPC   C2B17204  28.906  17.266   8.206
 1123POPC   C3B17205  28.974  17.117   7.790
 1123POPC   C4B17206  28.977  17.050   7.304
 1124POPC   NC317207  23.366   0.631   9.464
 1124POPC   PO417208  23.431   1.358   9.531
 1124POPC   GL117209  23.607   1.155   9.141
 1124POPC   GL217210  23.816   0.851   9.208
 1124POPC   C1A17211  23.571   1.027   8.710
 1124POPC   D2A17212  23.594   1.251   8.349
 1124POPC   C3A17213  23.472   1.134   7.944
 1124POPC   C4A17214  23.726   1.303   7.656
 1124POPC   C1B17215  24.039   0.812   8.820
 1124POPC   C2B17216  23.998   0.954   8.426
 1124POPC   C3B17217  23.997   1.046   8.018
 1124POPC   C4B17218  24.157   0.986   7.648
 1125POPC   NC317219  43.869   8.556   9.442
 1125POPC   PO417220  43.365   8.010   9.410
 1125POPC   GL117221  43.683   8.140   9.099
 1125POPC   GL217222  44.005   8.315   9.022
 1125POPC   C1A17223  43.776   7.931   8.735
 1125POPC   D2A17224  43.652   8.022   8.356
 1125POPC   C3A17225  43.939   8.044   8.046
 1125POPC   C4A17226  43.726   8.103   7.692
 1125POPC   C1B17227  44.212   8.152   8.662
 1125POPC   C2B17228  44.372   8.261   8.271
 1125POPC   C3B17229  44.279   8.519   7.921
 1125POPC   C4B17230  44.014   8.486   7.554
 1126POPC   NC317231  35.042  16.302   9.545
 1126POPC   PO417232  35.528  16.733   9.370
 1126POPC   GL117233  35.143  16.695   9.128
 1126POPC   GL217234  35.173  17.065   9.120
 1126POPC   C1A17235  35.103  16.465   8.691
 1126POPC   D2A17236  35.100  16.364   8.220
 1126POPC   C3A17237  35.350  16.614   7.927
 1126POPC   C4A17238  35.026  16.780   7.662
 1126POPC   C1B17239  35.385  16.899   8.723
 1126POPC   C2B17240  35.188  16.868   8.327
 1126POPC   C3B17241  35.233  17.112   7.956
 1126POPC   C4B17242  35.683  17.063   7.834
 1127POPC   NC317243  11.198  43.829   9.831
 1127POPC   PO417244  11.362  44.143   9.356
 1127POPC   GL117245  11.281  43.852   9.065
 1127POPC   GL217246  11.467  43.551   9.120
 1127POPC   C1A17247  11.169  43.963   8.669
 1127POPC   D2A17248  10.967  43.868   8.283
 1127POPC   C3A17249  11.160  44.123   7.970
 1127POPC   C4A17250  11.317  44.019   7.576
 1127POPC   C1B17251  11.350  43.458   8.704
 1127POPC   C2B17252  11.459  43.680   8.348
 1127POPC   C3B17253  11.391  43.637   7.934
 1127POPC   C4B17254  11.635  43.353   7.758
 1128POPC   NC317255   6.966  42.522   9.540
 1128POPC   PO417256   6.330  42.244   9.540
 1128POPC   GL117257   6.656  42.222   9.248
 1128POPC   GL217258   6.630  42.593   9.162
 1128POPC   C1A17259   6.862  42.224   8.858
 1128POPC   D2A17260   6.631  42.221   8.501
 1128POPC   C3A17261   6.770  42.223   8.086
 1128POPC   C4A17262   6.472  42.325   7.797
 1128POPC   C1B17263   6.937  42.726   8.834
 1128POPC   C2B17264   6.925  42.636   8.410
 1128POPC   C3B17265   6.829  42.735   8.006
 1128POPC   C4B17266   6.772  42.909   7.587
 1129POPC   NC317267  36.889   3.056   9.509
 1129POPC   PO417268  36.965   2.368   9.520
 1129POPC   GL117269  36.813   2.638   9.194
 1129POPC   GL217270  37.185   2.618   9.122
 1129POPC   C1A17271  36.567   2.881   8.832
 1129POPC   D2A17272  36.719   3.007   8.415
 1129POPC   C3A17273  36.649   2.679   8.100
 1129POPC   C4A17274  36.918   2.593   7.777
 1129POPC   C1B17275  37.029   2.699   8.742
 1129POPC   C2B17276  37.074   2.627   8.362
 1129POPC   C3B17277  37.133   2.924   8.087
 1129POPC   C4B17278  37.287   2.943   7.653
 1130POPC   NC317279   8.391  37.826   9.468
 1130POPC   PO417280   8.163  37.131   9.488
 1130POPC   GL117281   8.120  37.454   9.203
 1130POPC   GL217282   8.420  37.311   9.032
 1130POPC   C1A17283   8.103  37.684   8.817
 1130POPC   D2A17284   8.002  37.572   8.398
 1130POPC   C3A17285   7.932  37.909   8.089
 1130POPC   C4A17286   8.069  38.021   7.646
 1130POPC   C1B17287   8.660  37.560   8.736
 1130POPC   C2B17288   8.489  37.776   8.352
 1130POPC   C3B17289   8.353  37.669   7.911
 1130POPC   C4B17290   8.453  37.513   7.451
 1131POPC   NC317291  15.153   4.419   9.963
 1131POPC   PO417292  14.689   4.538   9.551
 1131POPC   GL117293  15.014   4.503   9.159
 1131POPC   GL217294  15.378   4.507   9.085
 1131POPC   C1A17295  15.122   4.609   8.672
 1131POPC   D2A17296  15.126   4.441   8.223
 1131POPC   C3A17297  15.036   4.527   7.739
 1131POPC   C4A17298  15.052   4.537   7.264
 1131POPC   C1B17299  15.492   4.258   8.726
 1131POPC   C2B17300  15.507   4.108   8.334
 1131POPC   C3B17301  15.478   4.218   7.914
 1131POPC   C4B17302  15.297   4.142   7.497
 1132POPC   NC317303   4.223  33.135   9.715
 1132POPC   PO417304   4.767  32.749   9.483
 1132POPC   GL117305   4.407  32.781   9.169
 1132POPC   GL217306   4.202  33.076   9.181
 1132POPC   C1A17307   4.513  33.018   8.762
 1132POPC   D2A17308   4.481  33.288   8.441
 1132POPC   C3A17309   4.581  33.008   8.163
 1132POPC   C4A17310   4.451  33.103   7.828
 1132POPC   C1B17311   4.017  32.895   8.778
 1132POPC   C2B17312   4.072  32.972   8.309
 1132POPC   C3B17313   4.006  32.902   7.842
 1132POPC   C4B17314   3.910  32.802   7.385
 1133POPC   NC317315  33.092  24.809   9.559
 1133POPC   PO417316  32.575  24.352   9.501
 1133POPC   GL117317  32.912  24.426   9.195
 1133POPC   GL217318  33.268  24.440   9.202
 1133POPC   C1A17319  32.882  24.477   8.756
 1133POPC   D2A17320  33.038  24.648   8.376
 1133POPC   C3A17321  32.998  24.332   8.039
 1133POPC   C4A17322  33.158  24.322   7.624
 1133POPC   C1B17323  33.398  24.538   8.757
 1133POPC   C2B17324  33.560  24.609   8.293
 1133POPC   C3B17325  33.303  24.733   7.910
 1133POPC   C4B17326  33.134  24.810   7.464
 1134POPC   NC317327  21.039  41.980   9.209
 1134POPC   PO417328  21.228  42.537   9.530
 1134POPC   GL117329  21.430  42.347   9.205
 1134POPC   GL217330  21.583  42.629   9.100
 1134POPC   C1A17331  21.351  42.342   8.748
 1134POPC   D2A17332  21.198  42.260   8.331
 1134POPC   C3A17333  21.121  42.084   7.917
 1134POPC   C4A17334  21.123  42.165   7.379
 1134POPC   C1B17335  21.842  42.560   8.736
 1134POPC   C2B17336  21.636  42.605   8.389
 1134POPC   C3B17337  21.360  42.684   8.091
 1134POPC   C4B17338  21.346  42.483   7.697
 1135POPC   NC317339  17.051  16.218   9.876
 1135POPC   PO417340  17.592  16.076   9.546
 1135POPC   GL117341  17.410  15.899   9.166
 1135POPC   GL217342  17.596  15.609   9.101
 1135POPC   C1A17343  17.334  16.076   8.735
 1135POPC   D2A17344  17.461  16.284   8.334
 1135POPC   C3A17345  17.600  16.098   7.948
 1135POPC   C4A17346  17.660  15.880   7.564
 1135POPC   C1B17347  17.214  15.583   8.799
 1135POPC   C2B17348  17.195  15.746   8.348
 1135POPC   C3B17349  17.301  15.682   7.905
 1135POPC   C4B17350  17.172  15.627   7.493
 1136POPC   NC317351  29.603  18.935   9.466
 1136POPC   PO417352  30.227  19.169   9.483
 1136POPC   GL117353  30.118  19.185   9.063
 1136POPC   GL217354  29.759  19.197   9.076
 1136POPC   C1A17355  29.948  19.043   8.650
 1136POPC   D2A17356  29.934  18.825   8.306
 1136POPC   C3A17357  29.876  19.007   7.961
 1136POPC   C4A17358  29.799  18.840   7.609
 1136POPC   C1B17359  29.537  19.338   8.708
 1136POPC   C2B17360  29.743  19.375   8.284
 1136POPC   C3B17361  29.491  19.326   7.885
 1136POPC   C4B17362  29.514  19.227   7.430
 1137POPC   NC317363   4.220   7.035   9.572
 1137POPC   PO417364   4.359   7.679   9.480
 1137POPC   GL117365   4.289   7.422   9.132
 1137POPC   GL217366   4.004   7.216   9.143
 1137POPC   C1A17367   4.177   7.497   8.712
 1137POPC   D2A17368   4.349   7.459   8.321
 1137POPC   C3A17369   4.315   7.499   7.900
 1137POPC   C4A17370   4.686   7.607   7.692
 1137POPC   C1B17371   4.280   7.010   8.814
 1137POPC   C2B17372   4.474   6.985   8.442
 1137POPC   C3B17373   4.332   7.014   8.030
 1137POPC   C4B17374   4.540   7.080   7.634
 1138POPC   NC317375   7.111  23.130   9.232
 1138POPC   PO417376   7.497  22.658   9.503
 1138POPC   GL117377   7.529  22.802   9.099
 1138POPC   GL217378   7.649  23.137   9.029
 1138POPC   C1A17379   7.311  22.816   8.706
 1138POPC   D2A17380   7.326  22.976   8.308
 1138POPC   C3A17381   7.194  22.673   8.016
 1138POPC   C4A17382   7.051  22.862   7.648
 1138POPC   C1B17383   7.829  22.912   8.657
 1138POPC   C2B17384   7.827  23.058   8.226
 1138POPC   C3B17385   7.603  22.930   7.849
 1138POPC   C4B17386   7.466  23.175   7.528
 1139POPC   NC317387  37.695  19.327   9.652
 1139POPC   PO417388  37.285  19.799   9.626
 1139POPC   GL117389  37.445  19.746   9.210
 1139POPC   GL217390  37.815  19.740   9.241
 1139POPC   C1A17391  37.508  19.973   8.804
 1139POPC   D2A17392  37.673  20.299   8.482
 1139POPC   C3A17393  37.634  20.168   8.039
 1139POPC   C4A17394  37.511  19.849   7.726
 1139POPC   C1B17395  37.789  19.528   8.832
 1139POPC   C2B17396  37.766  19.747   8.415
 1139POPC   C3B17397  37.890  19.667   8.007
 1139POPC   C4B17398  37.919  19.587   7.552
 1140POPC   NC317399  44.277  41.219   9.545
 1140POPC   PO417400  43.732  41.639   9.665
 1140POPC   GL117401  43.852  41.665   9.204
 1140POPC   GL217402  44.190  41.554   9.155
 1140POPC   C1A17403  43.830  41.577   8.739
 1140POPC   D2A17404  43.636  41.484   8.313
 1140POPC   C3A17405  43.927  41.572   7.959
 1140POPC   C4A17406  44.192  41.882   7.741
 1140POPC   C1B17407  44.253  41.220   8.841
 1140POPC   C2B17408  44.122  41.271   8.408
 1140POPC   C3B17409  44.352  41.343   8.027
 1140POPC   C4B17410  44.294  41.252   7.578
 1141POPC   NC317411  17.462  20.099   9.469
 1141POPC   PO417412  17.752  19.437   9.411
 1141POPC   GL117413  17.731  19.784   9.149
 1141POPC   GL217414  17.409  19.945   9.011
 1141POPC   C1A17415  17.747  19.723   8.741
 1141POPC   D2A17416  17.725  19.923   8.399
 1141POPC   C3A17417  17.577  19.632   8.104
 1141POPC   C4A17418  17.656  19.514   7.690
 1141POPC   C1B17419  17.229  19.776   8.690
 1141POPC   C2B17420  17.215  19.946   8.304
 1141POPC   C3B17421  17.474  20.177   8.032
 1141POPC   C4B17422  17.377  19.931   7.710
 1142POPC   NC317423  15.685   1.680   9.633
 1142POPC   PO417424  16.329   2.006   9.618
 1142POPC   GL117425  16.218   1.900   9.219
 1142POPC   GL217426  15.877   1.902   9.194
 1142POPC   C1A17427  16.249   1.734   8.822
 1142POPC   D2A17428  16.108   1.973   8.459
 1142POPC   C3A17429  16.277   1.908   8.059
 1142POPC   C4A17430  16.184   1.682   7.693
 1142POPC   C1B17431  15.750   1.614   8.845
 1142POPC   C2B17432  15.641   1.672   8.398
 1142POPC   C3B17433  15.751   1.782   7.958
 1142POPC   C4B17434  15.667   1.745   7.470
 1143POPC   NC317435  34.695  13.320   9.446
 1143POPC   PO417436  34.368  12.843   9.760
 1143POPC   GL117437  34.451  12.926   9.284
 1143POPC   GL217438  34.245  13.162   9.171
 1143POPC   C1A17439  34.617  12.864   8.864
 1143POPC   D2A17440  34.614  12.971   8.418
 1143POPC   C3A17441  34.494  12.796   7.999
 1143POPC   C4A17442  34.706  12.620   7.640
 1143POPC   C1B17443  34.256  13.228   8.727
 1143POPC   C2B17444  34.161  13.140   8.278
 1143POPC   C3B17445  34.170  13.197   7.847
 1143POPC   C4B17446  34.433  13.060   7.488
 1144POPC   NC317447  27.523   6.769   9.732
 1144POPC   PO417448  27.705   6.163  10.024
 1144POPC   GL117449  27.601   6.319   9.512
 1144POPC   GL217450  27.807   6.618   9.316
 1144POPC   C1A17451  27.477   6.374   9.015
 1144POPC   D2A17452  27.675   6.405   8.570
 1144POPC   C3A17453  27.665   6.541   8.110
 1144POPC   C4A17454  27.410   6.432   7.729
 1144POPC   C1B17455  27.621   6.856   8.905
 1144POPC   C2B17456  27.504   6.974   8.441
 1144POPC   C3B17457  27.330   6.918   8.011
 1144POPC   C4B17458  27.529   6.897   7.618
 1145POPC   NC317459  37.129  14.858   9.555
 1145POPC   PO417460  36.778  15.440   9.601
 1145POPC   GL117461  36.864  15.219   9.243
 1145POPC   GL217462  37.183  15.138   9.145
 1145POPC   C1A17463  36.794  15.152   8.798
 1145POPC   D2A17464  36.591  15.262   8.426
 1145POPC   C3A17465  36.738  15.186   7.990
 1145POPC   C4A17466  36.639  15.501   7.694
 1145POPC   C1B17467  37.306  15.205   8.748
 1145POPC   C2B17468  37.126  15.205   8.354
 1145POPC   C3B17469  37.269  15.106   7.942
 1145POPC   C4B17470  37.128  14.765   7.719
 1146POPC   NC317471  20.308  34.426   9.505
 1146POPC   PO417472  19.661  34.457   9.611
 1146POPC   GL117473  19.861  34.581   9.243
 1146POPC   GL217474  20.038  34.841   9.292
 1146POPC   C1A17475  20.059  34.478   8.859
 1146POPC   D2A17476  20.168  34.357   8.451
 1146POPC   C3A17477  19.929  34.444   8.115
 1146POPC   C4A17478  19.868  34.335   7.709
 1146POPC   C1B17479  19.993  34.985   8.876
 1146POPC   C2B17480  19.860  34.843   8.474
 1146POPC   C3B17481  20.012  34.939   8.079
 1146POPC   C4B17482  20.142  34.760   7.731
 1147POPC   NC317483  26.872  44.498   9.620
 1147POPC   PO417484  26.295  44.854   9.445
 1147POPC   GL117485  26.602  44.841   9.163
 1147POPC   GL217486  26.886  44.968   9.308
 1147POPC   C1A17487  26.859  44.686   8.854
 1147POPC   D2A17488  26.923  44.502   8.470
 1147POPC   C3A17489  26.856  44.589   8.058
 1147POPC   C4A17490  27.060  44.313   7.781
 1147POPC   C1B17491  27.198   0.055   9.007
 1147POPC   C2B17492  27.202  44.976   8.589
 1147POPC   C3B17493  27.164  44.962   8.172
 1147POPC   C4B17494  27.170  44.888   7.742
 1148POPC   NC317495   2.221  34.897   9.466
 1148POPC   PO417496   1.709  34.417   9.580
 1148POPC   GL117497   2.041  34.453   9.242
 1148POPC   GL217498   1.966  34.773   9.057
 1148POPC   C1A17499   2.171  34.383   8.812
 1148POPC   D2A17500   1.986  34.538   8.426
 1148POPC   C3A17501   2.149  34.374   8.018
 1148POPC   C4A17502   2.093  34.575   7.615
 1148POPC   C1B17503   2.310  34.868   8.769
 1148POPC   C2B17504   2.235  35.029   8.402
 1148POPC   C3B17505   2.174  34.873   8.026
 1148POPC   C4B17506   2.126  35.089   7.662
 1149POPC   NC317507  29.319  31.183   9.568
 1149POPC   PO417508  28.708  31.425   9.470
 1149POPC   GL117509  29.043  31.398   9.160
 1149POPC   GL217510  29.427  31.489   9.169
 1149POPC   C1A17511  29.047  31.703   8.816
 1149POPC   D2A17512  28.842  31.947   8.496
 1149POPC   C3A17513  28.933  31.761   8.102
 1149POPC   C4A17514  29.034  31.584   7.699
 1149POPC   C1B17515  29.378  31.304   8.754
 1149POPC   C2B17516  29.183  31.363   8.348
 1149POPC   C3B17517  29.174  31.128   7.961
 1149POPC   C4B17518  29.342  31.195   7.546
 1150POPC   NC317519  19.194   8.804   9.429
 1150POPC   PO417520  18.993   9.447   9.491
 1150POPC   GL117521  19.093   9.204   9.135
 1150POPC   GL217522  19.433   9.216   9.168
 1150POPC   C1A17523  19.172   8.941   8.767
 1150POPC   D2A17524  18.920   8.884   8.416
 1150POPC   C3A17525  18.989   8.960   8.008
 1150POPC   C4A17526  18.741   8.888   7.638
 1150POPC   C1B17527  19.416   9.394   8.745
 1150POPC   C2B17528  19.594   9.261   8.332
 1150POPC   C3B17529  19.421   9.248   7.888
 1150POPC   C4B17530  19.263   8.893   7.592
 1151POPC   NC317531   3.417   7.078   9.761
 1151POPC   PO417532   3.363   7.727   9.552
 1151POPC   GL117533   3.574   7.523   9.213
 1151POPC   GL217534   3.861   7.706   9.102
 1151POPC   C1A17535   3.660   7.361   8.795
 1151POPC   D2A17536   3.478   7.531   8.430
 1151POPC   C3A17537   3.514   7.286   8.060
 1151POPC   C4A17538   3.484   7.514   7.684
 1151POPC   C1B17539   3.839   7.862   8.722
 1151POPC   C2B17540   4.043   7.890   8.348
 1151POPC   C3B17541   3.851   7.740   7.973
 1151POPC   C4B17542   3.901   7.761   7.520
 1152POPC   NC317543  36.215  36.217   9.579
 1152POPC   PO417544  35.746  35.702   9.415
 1152POPC   GL117545  36.083  35.944   9.166
 1152POPC   GL217546  36.179  36.329   9.091
 1152POPC   C1A17547  36.149  35.924   8.748
 1152POPC   D2A17548  36.288  36.113   8.401
 1152POPC   C3A17549  36.125  35.905   8.041
 1152POPC   C4A17550  36.352  35.902   7.657
 1152POPC   C1B17551  36.326  36.636   8.788
 1152POPC   C2B17552  36.329  36.634   8.353
 1152POPC   C3B17553  36.393  36.390   7.974
 1152POPC   C4B17554  36.039  36.304   7.741
 1153POPC   NC317555  16.323  30.760   9.331
 1153POPC   PO417556  16.906  30.798   9.528
 1153POPC   GL117557  16.827  30.640   9.139
 1153POPC   GL217558  16.650  30.370   9.231
 1153POPC   C1A17559  17.059  30.883   8.809
 1153POPC   D2A17560  16.817  30.732   8.512
 1153POPC   C3A17561  16.845  30.707   8.085
 1153POPC   C4A17562  16.930  30.681   7.649
 1153POPC   C1B17563  16.701  30.305   8.759
 1153POPC   C2B17564  16.912  30.249   8.346
 1153POPC   C3B17565  16.714  30.241   7.914
 1153POPC   C4B17566  16.871  30.215   7.494
 1154POPC   NC317567  26.815  41.154   9.515
 1154POPC   PO417568  26.827  41.824   9.504
 1154POPC   GL117569  26.852  41.613   9.132
 1154POPC   GL217570  27.090  41.379   9.115
 1154POPC   C1A17571  26.619  41.541   8.771
 1154POPC   D2A17572  26.756  41.670   8.390
 1154POPC   C3A17573  26.629  41.450   8.025
 1154POPC   C4A17574  26.741  41.573   7.620
 1154POPC   C1B17575  27.118  41.448   8.677
 1154POPC   C2B17576  27.051  41.270   8.250
 1154POPC   C3B17577  27.177  41.413   7.834
 1154POPC   C4B17578  27.138  41.368   7.369
 1155POPC   NC317579  33.215  15.335   9.863
 1155POPC   PO417580  32.797  14.844   9.623
 1155POPC   GL117581  33.021  14.969   9.228
 1155POPC   GL217582  33.146  15.291   9.281
 1155POPC   C1A17583  33.184  15.081   8.780
 1155POPC   D2A17584  33.118  14.950   8.320
 1155POPC   C3A17585  33.093  15.053   7.871
 1155POPC   C4A17586  33.274  15.388   7.615
 1155POPC   C1B17587  32.760  15.334   8.985
 1155POPC   C2B17588  32.793  15.344   8.537
 1155POPC   C3B17589  32.970  15.454   8.148
 1155POPC   C4B17590  32.780  15.490   7.743
 1156POPC   NC317591  32.824   0.947   9.415
 1156POPC   PO417592  33.342   1.335   9.403
 1156POPC   GL117593  33.010   1.315   9.108
 1156POPC   GL217594  32.674   1.498   9.146
 1156POPC   C1A17595  32.854   1.037   8.772
 1156POPC   D2A17596  32.811   0.757   8.403
 1156POPC   C3A17597  33.170   0.801   8.182
 1156POPC   C4A17598  33.124   0.993   7.822
 1156POPC   C1B17599  32.848   1.555   8.708
 1156POPC   C2B17600  33.095   1.332   8.388
 1156POPC   C3B17601  33.168   1.464   7.990
 1156POPC   C4B17602  33.053   1.705   7.679
 1157POPC   NC317603  15.690  30.999  10.007
 1157POPC   PO417604  15.937  30.555   9.495
 1157POPC   GL117605  15.928  30.474   9.090
 1157POPC   GL217606  16.199  30.260   9.034
 1157POPC   C1A17607  15.778  30.660   8.711
 1157POPC   D2A17608  15.978  30.795   8.334
 1157POPC   C3A17609  15.709  30.956   8.038
 1157POPC   C4A17610  15.580  30.608   7.882
 1157POPC   C1B17611  16.289  30.581   8.709
 1157POPC   C2B17612  16.429  30.510   8.310
 1157POPC   C3B17613  16.308  30.637   7.949
 1157POPC   C4B17614  16.042  30.354   7.744
 1158POPC   NC317615  38.662  13.507   9.474
 1158POPC   PO417616  38.084  13.761   9.583
 1158POPC   GL117617  38.337  13.770   9.192
 1158POPC   GL217618  38.247  13.445   9.126
 1158POPC   C1A17619  38.604  13.566   8.794
 1158POPC   D2A17620  38.623  13.737   8.369
 1158POPC   C3A17621  38.879  13.663   7.991
 1158POPC   C4A17622  38.724  13.691   7.565
 1158POPC   C1B17623  38.119  13.666   8.756
 1158POPC   C2B17624  38.190  13.454   8.389
 1158POPC   C3B17625  38.054  13.537   7.998
 1158POPC   C4B17626  38.254  13.498   7.612
 1159POPC   NC317627  25.792   6.884   9.555
 1159POPC   PO417628  26.428   6.789   9.467
 1159POPC   GL117629  26.175   6.768   9.099
 1159POPC   GL217630  25.792   6.873   9.045
 1159POPC   C1A17631  26.339   6.728   8.670
 1159POPC   D2A17632  26.333   6.910   8.275
 1159POPC   C3A17633  26.359   6.654   7.960
 1159POPC   C4A17634  26.179   6.747   7.611
 1159POPC   C1B17635  25.894   6.489   8.785
 1159POPC   C2B17636  26.046   6.444   8.340
 1159POPC   C3B17637  25.884   6.432   7.913
 1159POPC   C4B17638  25.735   6.102   7.676
 1160POPC   NC317639  43.258   0.266   9.562
 1160POPC   PO417640  43.574   0.546   9.060
 1160POPC   GL117641  43.119   0.390   8.995
 1160POPC   GL217642  42.891   0.157   9.147
 1160POPC   C1A17643  42.912   0.552   8.609
 1160POPC   D2A17644  43.024   0.783   8.217
 1160POPC   C3A17645  43.009   0.541   7.829
 1160POPC   C4A17646  43.360   0.423   7.562
 1160POPC   C1B17647  42.623   0.195   8.813
 1160POPC   C2B17648  42.721   0.059   8.407
 1160POPC   C3B17649  42.637   0.171   7.992
 1160POPC   C4B17650  42.792   0.120   7.592
 1161POPC   NC317651  42.572  17.004   9.545
 1161POPC   PO417652  42.030  17.459   9.471
 1161POPC   GL117653  42.311  17.497   9.086
 1161POPC   GL217654  42.475  17.193   9.063
 1161POPC   C1A17655  42.551  17.677   8.699
 1161POPC   D2A17656  42.706  17.815   8.256
 1161POPC   C3A17657  42.415  17.702   7.914
 1161POPC   C4A17658  42.035  17.564   7.658
 1161POPC   C1B17659  42.630  17.170   8.627
 1161POPC   C2B17660  42.576  17.326   8.218
 1161POPC   C3B17661  42.831  17.426   7.809
 1161POPC   C4B17662  42.780  17.248   7.333
 1162POPC   NC317663  14.232  37.067   9.422
 1162POPC   PO417664  14.628  36.568   9.428
 1162POPC   GL117665  14.400  36.713   9.087
 1162POPC   GL217666  14.080  36.602   9.167
 1162POPC   C1A17667  14.455  36.887   8.702
 1162POPC   D2A17668  14.718  36.812   8.371
 1162POPC   C3A17669  14.549  36.820   7.983
 1162POPC   C4A17670  14.592  37.046   7.601
 1162POPC   C1B17671  13.949  36.767   8.779
 1162POPC   C2B17672  14.064  36.743   8.368
 1162POPC   C3B17673  14.136  37.086   8.116
 1162POPC   C4B17674  13.922  37.242   7.765
 1163POPC   NC317675  39.032  38.729   9.596
 1163POPC   PO417676  39.174  38.090   9.612
 1163POPC   GL117677  39.129  38.360   9.222
 1163POPC   GL217678  39.264  38.694   9.130
 1163POPC   C1A17679  39.051  38.407   8.767
 1163POPC   D2A17680  39.264  38.209   8.405
 1163POPC   C3A17681  39.221  38.340   7.962
 1163POPC   C4A17682  39.136  38.372   7.510
 1163POPC   C1B17683  39.501  38.634   8.732
 1163POPC   C2B17684  39.317  38.697   8.335
 1163POPC   C3B17685  39.150  38.849   7.965
 1163POPC   C4B17686  39.372  38.786   7.641
 1164POPC   NC317687   1.941  31.284   9.525
 1164POPC   PO417688   2.401  31.782   9.653
 1164POPC   GL117689   2.198  31.634   9.246
 1164POPC   GL217690   2.382  31.321   9.207
 1164POPC   C1A17691   2.012  31.471   8.822
 1164POPC   D2A17692   1.736  31.332   8.446
 1164POPC   C3A17693   1.767  31.569   8.071
 1164POPC   C4A17694   1.703  31.470   7.649
 1164POPC   C1B17695   2.412  31.129   8.807
 1164POPC   C2B17696   2.228  31.201   8.398
 1164POPC   C3B17697   2.230  31.382   8.003
 1164POPC   C4B17698   2.170  31.299   7.584
 1165POPC   NC317699   1.022  11.885   9.272
 1165POPC   PO417700   1.453  12.330   9.487
 1165POPC   GL117701   1.427  12.166   9.098
 1165POPC   GL217702   1.506  11.820   9.135
 1165POPC   C1A17703   1.272  12.185   8.672
 1165POPC   D2A17704   1.471  12.457   8.329
 1165POPC   C3A17705   1.246  12.353   7.989
 1165POPC   C4A17706   1.065  11.993   7.805
 1165POPC   C1B17707   1.645  11.838   8.716
 1165POPC   C2B17708   1.531  11.947   8.298
 1165POPC   C3B17709   1.485  11.729   7.915
 1165POPC   C4B17710   1.500  11.870   7.473
 1166POPC   NC317711  19.643  35.658   9.468
 1166POPC   PO417712  20.143  35.181   9.689
 1166POPC   GL117713  20.009  35.346   9.280
 1166POPC   GL217714  19.676  35.223   9.216
 1166POPC   C1A17715  19.938  35.492   8.838
 1166POPC   D2A17716  19.762  35.355   8.448
 1166POPC   C3A17717  19.917  35.419   8.021
 1166POPC   C4A17718  19.959  35.763   7.806
 1166POPC   C1B17719  19.488  35.095   8.875
 1166POPC   C2B17720  19.340  35.073   8.467
 1166POPC   C3B17721  19.530  35.087   8.065
 1166POPC   C4B17722  19.619  34.858   7.668
 1167POPC   NC317723  23.595  40.146   9.481
 1167POPC   PO417724  23.886  39.586   9.586
 1167POPC   GL117725  23.794  39.802   9.159
 1167POPC   GL217726  23.946  40.178   9.108
 1167POPC   C1A17727  23.881  39.826   8.708
 1167POPC   D2A17728  24.044  40.152   8.404
 1167POPC   C3A17729  24.055  39.989   7.981
 1167POPC   C4A17730  23.755  39.965   7.666
 1167POPC   C1B17731  23.672  40.294   8.758
 1167POPC   C2B17732  23.496  40.065   8.433
 1167POPC   C3B17733  23.560  40.206   8.059
 1167POPC   C4B17734  23.433  40.481   7.762
 1168POPC   NC317735  42.485  17.802   9.464
 1168POPC   PO417736  42.077  18.285   9.649
 1168POPC   GL117737  42.041  18.197   9.206
 1168POPC   GL217738  41.933  17.882   9.204
 1168POPC   C1A17739  42.235  18.302   8.785
 1168POPC   D2A17740  42.556  18.265   8.454
 1168POPC   C3A17741  42.434  18.224   8.021
 1168POPC   C4A17742  42.503  18.348   7.599
 1168POPC   C1B17743  42.049  17.841   8.778
 1168POPC   C2B17744  42.177  17.865   8.356
 1168POPC   C3B17745  41.993  17.958   7.954
 1168POPC   C4B17746  42.124  18.033   7.513
 1169POPC   NC317747  29.784   9.395   9.472
 1169POPC   PO417748  29.634   8.701   9.360
 1169POPC   GL117749  29.889   9.026   9.098
 1169POPC   GL217750  30.089   9.346   9.082
 1169POPC   C1A17751  30.150   8.995   8.741
 1169POPC   D2A17752  29.941   9.110   8.406
 1169POPC   C3A17753  30.100   8.991   8.051
 1169POPC   C4A17754  30.344   9.192   7.786
 1169POPC   C1B17755  30.011   9.525   8.681
 1169POPC   C2B17756  29.672   9.573   8.383
 1169POPC   C3B17757  29.641   9.314   8.042
 1169POPC   C4B17758  29.869   9.269   7.676
 1170POPC   NC317759  12.468  27.932   9.430
 1170POPC   PO417760  13.072  27.579   9.533
 1170POPC   GL117761  12.982  27.490   9.138
 1170POPC   GL217762  13.274  27.325   9.135
 1170POPC   C1A17763  12.778  27.687   8.753
 1170POPC   D2A17764  12.896  27.808   8.303
 1170POPC   C3A17765  12.633  27.846   7.948
 1170POPC   C4A17766  12.615  27.630   7.585
 1170POPC   C1B17767  13.348  27.163   8.765
 1170POPC   C2B17768  13.408  27.354   8.408
 1170POPC   C3B17769  13.209  27.329   8.056
 1170POPC   C4B17770  13.090  27.623   7.784
 1171POPC   NC317771  44.476   7.654   9.415
 1171POPC   PO417772  44.615   7.001   9.516
 1171POPC   GL117773  44.834   7.169   9.191
 1171POPC   GL217774   0.066   6.939   9.050
 1171POPC   C1A17775  44.652   7.358   8.836
 1171POPC   D2A17776  44.541   7.354   8.416
 1171POPC   C3A17777  44.821   7.317   8.064
 1171POPC   C4A17778  44.918   7.565   7.687
 1171POPC   C1B17779  44.964   7.016   8.620
 1171POPC   C2B17780  44.616   6.851   8.349
 1171POPC   C3B17781  44.343   7.054   8.036
 1171POPC   C4B17782  44.524   7.213   7.627
 1172POPC   NC317783   7.299  12.928   9.431
 1172POPC   PO417784   7.422  12.255   9.416
 1172POPC   GL117785   7.380  12.557   9.056
 1172POPC   GL217786   7.668  12.815   9.069
 1172POPC   C1A17787   7.457  12.666   8.593
 1172POPC   D2A17788   7.479  12.853   8.159
 1172POPC   C3A17789   7.171  12.790   7.813
 1172POPC   C4A17790   7.238  12.486   7.454
 1172POPC   C1B17791   7.532  13.147   8.772
 1172POPC   C2B17792   7.622  13.340   8.380
 1172POPC   C3B17793   7.469  13.313   7.945
 1172POPC   C4B17794   7.615  13.223   7.540
 1173POPC   NC317795   4.493  14.582   9.668
 1173POPC   PO417796   3.872  14.558   9.554
 1173POPC   GL117797   4.155  14.293   9.294
 1173POPC   GL217798   4.489  14.174   9.325
 1173POPC   C1A17799   4.163  14.253   8.840
 1173POPC   D2A17800   4.103  14.311   8.362
 1173POPC   C3A17801   4.089  14.608   8.047
 1173POPC   C4A17802   3.972  14.471   7.617
 1173POPC   C1B17803   4.619  14.455   9.001
 1173POPC   C2B17804   4.564  14.407   8.571
 1173POPC   C3B17805   4.613  14.521   8.146
 1173POPC   C4B17806   4.481  14.615   7.719
 1174POPC   NC317807  44.308  23.736   9.568
 1174POPC   PO417808  43.644  23.464   9.410
 1174POPC   GL117809  43.686  23.834   9.177
 1174POPC   GL217810  44.055  23.860   9.157
 1174POPC   C1A17811  43.571  24.033   8.773
 1174POPC   D2A17812  43.800  23.898   8.416
 1174POPC   C3A17813  43.636  23.928   8.012
 1174POPC   C4A17814  43.613  23.621   7.660
 1174POPC   C1B17815  44.055  23.539   8.841
 1174POPC   C2B17816  43.919  23.406   8.441
 1174POPC   C3B17817  43.955  23.526   8.044
 1174POPC   C4B17818  44.024  23.308   7.671
 1175POPC   NC317819  21.649  15.410   9.503
 1175POPC   PO417820  22.253  15.116   9.383
 1175POPC   GL117821  21.963  15.145   9.059
 1175POPC   GL217822  21.894  15.482   9.060
 1175POPC   C1A17823  21.982  15.081   8.625
 1175POPC   D2A17824  22.256  14.888   8.334
 1175POPC   C3A17825  22.203  14.969   7.926
 1175POPC   C4A17826  22.031  15.040   7.537
 1175POPC   C1B17827  22.212  15.530   8.768
 1175POPC   C2B17828  22.072  15.560   8.348
 1175POPC   C3B17829  21.954  15.455   7.913
 1175POPC   C4B17830  22.317  15.422   7.632
 1176POPC   NC317831   7.801  23.050   9.502
 1176POPC   PO417832   8.449  22.961   9.558
 1176POPC   GL117833   8.231  23.180   9.231
 1176POPC   GL217834   8.096  22.867   9.111
 1176POPC   C1A17835   8.100  23.323   8.822
 1176POPC   D2A17836   8.456  23.375   8.513
 1176POPC   C3A17837   8.371  23.299   8.084
 1176POPC   C4A17838   8.061  23.138   7.764
 1176POPC   C1B17839   8.408  22.936   8.777
 1176POPC   C2B17840   8.283  22.864   8.361
 1176POPC   C3B17841   8.404  22.811   7.922
 1176POPC   C4B17842   8.331  22.815   7.460
 1177POPC   NC317843  35.181  27.760   9.577
 1177POPC   PO417844  35.733  27.398   9.442
 1177POPC   GL117845  35.444  27.598   9.131
 1177POPC   GL217846  35.227  27.921   9.098
 1177POPC   C1A17847  35.474  27.680   8.687
 1177POPC   D2A17848  35.337  27.791   8.267
 1177POPC   C3A17849  35.226  27.486   8.012
 1177POPC   C4A17850  35.455  27.368   7.682
 1177POPC   C1B17851  34.986  27.826   8.713
 1177POPC   C2B17852  34.856  28.007   8.308
 1177POPC   C3B17853  34.949  27.902   7.853
 1177POPC   C4B17854  34.983  28.021   7.389
 1178POPC   NC317855  44.945   0.839   9.439
 1178POPC   PO417856  44.743   1.424   9.676
 1178POPC   GL117857  44.665   1.257   9.277
 1178POPC   GL217858  44.408   1.021   9.358
 1178POPC   C1A17859  44.853   1.199   8.872
 1178POPC   D2A17860  44.899   1.433   8.494
 1178POPC   C3A17861  44.960   1.168   8.172
 1178POPC   C4A17862  44.792   1.119   7.783
 1178POPC   C1B17863  44.384   0.972   8.930
 1178POPC   C2B17864  44.497   1.021   8.504
 1178POPC   C3B17865  44.464   1.255   8.163
 1178POPC   C4B17866  44.258   1.405   7.827
 1179POPC   NC317867   6.713  29.129   9.840
 1179POPC   PO417868   6.456  29.323   9.287
 1179POPC   GL117869   6.486  29.255   8.952
 1179POPC   GL217870   6.586  28.938   8.973
 1179POPC   C1A17871   6.311  29.116   8.592
 1179POPC   D2A17872   6.481  28.998   8.223
 1179POPC   C3A17873   6.339  29.361   8.033
 1179POPC   C4A17874   6.301  29.409   7.623
 1179POPC   C1B17875   6.851  29.105   8.653
 1179POPC   C2B17876   7.026  28.967   8.292
 1179POPC   C3B17877   6.910  29.145   7.913
 1179POPC   C4B17878   6.790  29.271   7.511
 1180POPC   NC317879  38.465  22.349   9.376
 1180POPC   PO417880  38.220  21.700   9.474
 1180POPC   GL117881  38.418  21.925   9.078
 1180POPC   GL217882  38.293  22.301   8.908
 1180POPC   C1A17883  38.665  22.040   8.722
 1180POPC   D2A17884  38.483  22.213   8.356
 1180POPC   C3A17885  38.579  21.969   8.022
 1180POPC   C4A17886  38.287  21.888   7.727
 1180POPC   C1B17887  38.688  22.536   8.707
 1180POPC   C2B17888  38.626  22.698   8.266
 1180POPC   C3B17889  38.541  22.447   7.868
 1180POPC   C4B17890  38.521  22.260   7.447
 1181POPC   NC317891   1.549  18.465   9.548
 1181POPC   PO417892   1.011  18.421   9.250
 1181POPC   GL117893   1.341  18.357   9.055
 1181POPC   GL217894   1.568  18.086   9.170
 1181POPC   C1A17895   1.252  18.355   8.636
 1181POPC   D2A17896   1.394  18.230   8.281
 1181POPC   C3A17897   1.175  18.469   7.994
 1181POPC   C4A17898   1.316  18.590   7.600
 1181POPC   C1B17899   1.384  17.896   8.779
 1181POPC   C2B17900   1.016  17.904   8.482
 1181POPC   C3B17901   1.014  17.960   8.056
 1181POPC   C4B17902   1.150  18.101   7.660
 1182POPC   NC317903  18.153  32.469   9.466
 1182POPC   PO417904  18.449  31.826   9.591
 1182POPC   GL117905  18.540  32.000   9.206
 1182POPC   GL217906  18.289  32.174   9.093
 1182POPC   C1A17907  18.658  32.080   8.782
 1182POPC   D2A17908  18.394  31.971   8.428
 1182POPC   C3A17909  18.403  32.167   8.062
 1182POPC   C4A17910  18.326  31.995   7.706
 1182POPC   C1B17911  18.052  32.215   8.722
 1182POPC   C2B17912  17.919  32.094   8.303
 1182POPC   C3B17913  17.842  32.077   7.888
 1182POPC   C4B17914  18.016  32.367   7.562
 1183POPC   NC317915  29.339  16.173   9.744
 1183POPC   PO417916  28.822  15.712   9.583
 1183POPC   GL117917  29.006  15.944   9.218
 1183POPC   GL217918  29.371  15.992   9.200
 1183POPC   C1A17919  29.095  15.863   8.755
 1183POPC   D2A17920  28.935  16.136   8.404
 1183POPC   C3A17921  28.996  15.909   8.022
 1183POPC   C4A17922  29.213  15.537   7.877
 1183POPC   C1B17923  29.530  16.117   8.758
 1183POPC   C2B17924  29.405  15.984   8.334
 1183POPC   C3B17925  29.500  16.035   7.907
 1183POPC   C4B17926  29.550  16.313   7.554
 1184POPC   NC317927   9.502  28.336   9.437
 1184POPC   PO417928  10.205  28.281   9.513
 1184POPC   GL117929   9.961  28.501   9.169
 1184POPC   GL217930   9.835  28.255   9.063
 1184POPC   C1A17931   9.645  28.628   8.813
 1184POPC   D2A17932   9.442  28.427   8.441
 1184POPC   C3A17933   9.748  28.467   8.145
 1184POPC   C4A17934   9.633  28.526   7.770
 1184POPC   C1B17935   9.607  28.074   8.778
 1184POPC   C2B17936   9.765  28.020   8.412
 1184POPC   C3B17937   9.567  28.009   8.043
 1184POPC   C4B17938   9.755  28.048   7.671
 1185POPC   NC317939  44.943   4.907   9.416
 1185POPC   PO417940  44.449   5.402   9.482
 1185POPC   GL117941  44.486   5.050   9.172
 1185POPC   GL217942  44.385   4.703   9.285
 1185POPC   C1A17943  44.616   5.071   8.739
 1185POPC   D2A17944  44.811   5.367   8.479
 1185POPC   C3A17945  44.732   5.378   8.043
 1185POPC   C4A17946  44.531   5.318   7.653
 1185POPC   C1B17947  44.414   4.617   8.845
 1185POPC   C2B17948  44.307   4.773   8.428
 1185POPC   C3B17949  44.431   4.919   8.033
 1185POPC   C4B17950  44.787   4.884   7.806
 1186POPC   NC317951  28.583  28.904   9.410
 1186POPC   PO417952  29.277  29.066   9.478
 1186POPC   GL117953  29.038  29.155   9.151
 1186POPC   GL217954  28.884  28.886   8.998
 1186POPC   C1A17955  29.033  29.344   8.745
 1186POPC   D2A17956  28.984  29.601   8.387
 1186POPC   C3A17957  29.157  29.281   8.132
 1186POPC   C4A17958  28.952  29.116   7.808
 1186POPC   C1B17959  29.295  28.901   8.787
 1186POPC   C2B17960  29.451  28.847   8.351
 1186POPC   C3B17961  29.422  28.896   7.877
 1186POPC   C4B17962  29.518  28.929   7.390
 1187POPC   NC317963  19.129  12.518   9.429
 1187POPC   PO417964  18.732  12.896   9.670
 1187POPC   GL117965  18.779  13.006   9.193
 1187POPC   GL217966  19.095  12.866   9.087
 1187POPC   C1A17967  18.908  13.146   8.735
 1187POPC   D2A17968  19.136  12.964   8.373
 1187POPC   C3A17969  19.072  13.149   7.973
 1187POPC   C4A17970  19.099  12.899   7.623
 1187POPC   C1B17971  19.157  12.586   8.719
 1187POPC   C2B17972  19.024  12.431   8.287
 1187POPC   C3B17973  19.235  12.477   7.862
 1187POPC   C4B17974  19.381  12.466   7.391
 1188POPC   NC317975   7.747  37.080   9.298
 1188POPC   PO417976   7.185  37.338   9.499
 1188POPC   GL117977   7.180  37.073   9.133
 1188POPC   GL217978   7.381  36.786   9.069
 1188POPC   C1A17979   7.066  36.915   8.717
 1188POPC   D2A17980   7.296  36.919   8.352
 1188POPC   C3A17981   7.099  36.982   7.969
 1188POPC   C4A17982   7.395  37.217   7.735
 1188POPC   C1B17983   7.535  36.490   8.756
 1188POPC   C2B17984   7.681  36.547   8.355
 1188POPC   C3B17985   7.565  36.710   7.964
 1188POPC   C4B17986   7.694  36.519   7.598
 1189POPC   NC317987  41.157  30.858   9.552
 1189POPC   PO417988  40.956  31.525   9.662
 1189POPC   GL117989  40.821  31.395   9.250
 1189POPC   GL217990  40.933  31.724   9.172
 1189POPC   C1A17991  40.639  31.430   8.844
 1189POPC   D2A17992  40.602  31.167   8.480
 1189POPC   C3A17993  40.629  31.397   8.096
 1189POPC   C4A17994  40.655  31.249   7.683
 1189POPC   C1B17995  41.142  31.514   8.850
 1189POPC   C2B17996  41.007  31.543   8.451
 1189POPC   C3B17997  41.070  31.682   8.057
 1189POPC   C4B17998  40.827  31.737   7.693
 1190POPC   NC317999  42.943  13.002   9.469
 1190POPC   PO418000  43.433  12.558   9.453
 1190POPC   GL118001  43.277  12.815   9.071
 1190POPC   GL218002  42.945  12.749   9.021
 1190POPC   C1A18003  43.205  12.803   8.592
 1190POPC   D2A18004  43.433  12.999   8.257
 1190POPC   C3A18005  43.336  12.927   7.854
 1190POPC   C4A18006  42.996  12.693   7.743
 1190POPC   C1B18007  42.826  13.105   8.814
 1190POPC   C2B18008  42.640  13.147   8.468
 1190POPC   C3B18009  42.853  12.981   8.138
 1190POPC   C4B18010  42.765  13.156   7.765
 1191POPC   NC318011   9.627  36.893   9.459
 1191POPC   PO418012  10.188  36.551   9.435
 1191POPC   GL118013  10.000  36.813   9.120
 1191POPC   GL218014  10.008  37.173   9.141
 1191POPC   C1A18015  10.069  36.931   8.705
 1191POPC   D2A18016   9.909  37.159   8.397
 1191POPC   C3A18017   9.715  36.960   8.044
 1191POPC   C4A18018   9.846  36.821   7.649
 1191POPC   C1B18019   9.610  37.066   8.848
 1191POPC   C2B18020   9.397  37.092   8.427
 1191POPC   C3B18021   9.257  37.226   8.005
 1191POPC   C4B18022   9.509  37.219   7.636
 1192POPC   NC318023  17.967  41.051   9.425
 1192POPC   PO418024  18.665  40.907   9.442
 1192POPC   GL118025  18.353  40.922   9.111
 1192POPC   GL218026  18.124  40.634   9.148
 1192POPC   C1A18027  18.380  40.880   8.672
 1192POPC   D2A18028  18.521  40.724   8.274
 1192POPC   C3A18029  18.339  40.917   7.928
 1192POPC   C4A18030  18.497  40.796   7.558
 1192POPC   C1B18031  17.997  40.393   8.805
 1192POPC   C2B18032  18.068  40.551   8.424
 1192POPC   C3B18033  17.911  40.675   8.033
 1192POPC   C4B18034  18.055  40.558   7.610
 1193POPC   NC318035  31.379   0.568   9.442
 1193POPC   PO418036  31.502  44.941   9.420
 1193POPC   GL118037  31.580   0.207   9.081
 1193POPC   GL218038  31.876   0.027   9.007
 1193POPC   C1A18039  31.548   0.490   8.711
 1193POPC   D2A18040  31.715   0.769   8.379
 1193POPC   C3A18041  31.544   0.588   8.027
 1193POPC   C4A18042  31.575   0.648   7.572
 1193POPC   C1B18043  31.647  44.977   8.618
 1193POPC   C2B18044  31.509   0.066   8.203
 1193POPC   C3B18045  31.554   0.156   7.772
 1193POPC   C4B18046  31.190   0.275   7.600
 1194POPC   NC318047   3.191  43.558   9.520
 1194POPC   PO418048   3.724  43.932   9.551
 1194POPC   GL118049   3.501  43.986   9.183
 1194POPC   GL218050   3.528  43.669   9.128
 1194POPC   C1A18051   3.642  43.986   8.738
 1194POPC   D2A18052   3.456  43.930   8.324
 1194POPC   C3A18053   3.741  43.977   7.974
 1194POPC   C4A18054   3.852  44.353   7.797
 1194POPC   C1B18055   3.693  43.476   8.767
 1194POPC   C2B18056   3.834  43.595   8.375
 1194POPC   C3B18057   3.683  43.462   7.966
 1194POPC   C4B18058   3.651  43.650   7.555
 1195POPC   NC318059   5.387   9.307   9.602
 1195POPC   PO418060   6.086   9.226   9.644
 1195POPC   GL118061   5.849   9.087   9.233
 1195POPC   GL218062   5.483   9.104   9.153
 1195POPC   C1A18063   5.810   8.937   8.775
 1195POPC   D2A18064   5.939   9.170   8.389
 1195POPC   C3A18065   5.793   9.048   8.007
 1195POPC   C4A18066   5.880   8.811   7.690
 1195POPC   C1B18067   5.355   9.219   8.747
 1195POPC   C2B18068   5.455   9.348   8.327
 1195POPC   C3B18069   5.385   9.304   7.870
 1195POPC   C4B18070   5.373   8.939   7.576
 1196POPC   NC318071   8.249   5.003   9.628
 1196POPC   PO418072   7.812   5.493   9.491
 1196POPC   GL118073   8.194   5.273   9.190
 1196POPC   GL218074   8.291   4.864   9.158
 1196POPC   C1A18075   8.226   5.119   8.745
 1196POPC   D2A18076   8.098   5.005   8.349
 1196POPC   C3A18077   8.278   5.128   8.010
 1196POPC   C4A18078   8.134   5.276   7.647
 1196POPC   C1B18079   8.617   4.801   8.828
 1196POPC   C2B18080   8.604   4.917   8.370
 1196POPC   C3B18081   8.722   4.923   7.912
 1196POPC   C4B18082   8.664   5.153   7.490
 1197POPC   NC318083  26.302   5.720   9.540
 1197POPC   PO418084  26.892   5.903   9.462
 1197POPC   GL118085  26.780   5.824   9.102
 1197POPC   GL218086  26.534   5.595   9.122
 1197POPC   C1A18087  26.955   5.947   8.735
 1197POPC   D2A18088  27.091   6.199   8.389
 1197POPC   C3A18089  26.865   5.984   8.046
 1197POPC   C4A18090  27.093   5.978   7.667
 1197POPC   C1B18091  26.450   5.704   8.729
 1197POPC   C2B18092  26.646   5.545   8.374
 1197POPC   C3B18093  26.490   5.598   7.967
 1197POPC   C4B18094  26.604   5.771   7.610
 1198POPC   NC318095   3.317  18.454   9.474
 1198POPC   PO418096   3.594  17.832   9.457
 1198POPC   GL118097   3.466  18.078   9.151
 1198POPC   GL218098   3.761  18.294   9.186
 1198POPC   C1A18099   3.250  18.050   8.780
 1198POPC   D2A18100   3.388  17.933   8.405
 1198POPC   C3A18101   3.367  18.017   7.995
 1198POPC   C4A18102   3.770  18.140   7.839
 1198POPC   C1B18103   3.717  18.271   8.731
 1198POPC   C2B18104   3.553  18.405   8.318
 1198POPC   C3B18105   3.504  18.558   7.900
 1198POPC   C4B18106   3.813  18.585   7.575
 1199POPC   NC318107   9.790  34.936   9.286
 1199POPC   PO418108   9.938  35.585   9.513
 1199POPC   GL118109   9.652  35.492   9.129
 1199POPC   GL218110   9.464  35.202   9.054
 1199POPC   C1A18111   9.570  35.499   8.660
 1199POPC   D2A18112   9.863  35.542   8.331
 1199POPC   C3A18113   9.815  35.412   7.908
 1199POPC   C4A18114  10.154  35.644   7.710
 1199POPC   C1B18115   9.364  35.004   8.707
 1199POPC   C2B18116   9.553  35.106   8.319
 1199POPC   C3B18117   9.468  34.965   7.911
 1199POPC   C4B18118   9.371  34.985   7.461
 1200POPC   NC318119  27.324  41.929   9.533
 1200POPC   PO418120  27.356  41.275   9.539
 1200POPC   GL118121  27.544  41.586   9.193
 1200POPC   GL218122  27.323  41.847   9.048
 1200POPC   C1A18123  27.609  41.599   8.723
 1200POPC   D2A18124  27.535  41.332   8.368
 1200POPC   C3A18125  27.707  41.460   7.990
 1200POPC   C4A18126  27.656  41.467   7.552
 1200POPC   C1B18127  27.238  41.947   8.651
 1200POPC   C2B18128  27.274  41.755   8.241
 1200POPC   C3B18129  27.428  41.863   7.813
 1200POPC   C4B18130  27.376  41.813   7.323
 1201POPC   NC318131  44.500  30.363   9.634
 1201POPC   PO418132  44.843  29.795   9.594
 1201POPC   GL118133  44.673  29.784   9.183
 1201POPC   GL218134  44.443  30.054   9.192
 1201POPC   C1A18135  44.697  29.811   8.750
 1201POPC   D2A18136  44.839  29.607   8.406
 1201POPC   C3A18137  44.788  29.733   8.011
 1201POPC   C4A18138  44.730  29.803   7.603
 1201POPC   C1B18139  44.396  30.209   8.754
 1201POPC   C2B18140  44.518  30.073   8.306
 1201POPC   C3B18141  44.667  30.222   7.888
 1201POPC   C4B18142  44.803  30.332   7.455
 1202POPC   NC318143  41.069  15.027  10.195
 1202POPC   PO418144  40.845  15.200   9.556
 1202POPC   GL118145  40.804  15.167   9.121
 1202POPC   GL218146  41.105  15.351   9.096
 1202POPC   C1A18147  40.665  15.176   8.693
 1202POPC   D2A18148  40.817  15.299   8.313
 1202POPC   C3A18149  40.625  15.258   7.972
 1202POPC   C4A18150  40.493  14.932   7.764
 1202POPC   C1B18151  41.170  15.299   8.664
 1202POPC   C2B18152  41.292  15.304   8.172
 1202POPC   C3B18153  41.090  15.361   7.747
 1202POPC   C4B18154  41.019  15.423   7.286
 1203POPC   NC318155  38.019  15.052   9.967
 1203POPC   PO418156  37.523  15.190   9.531
 1203POPC   GL118157  37.677  15.279   9.115
 1203POPC   GL218158  37.936  15.491   8.999
 1203POPC   C1A18159  37.810  15.089   8.729
 1203POPC   D2A18160  37.616  15.019   8.358
 1203POPC   C3A18161  37.736  14.688   8.107
 1203POPC   C4A18162  37.727  14.894   7.717
 1203POPC   C1B18163  37.546  15.694   8.865
 1203POPC   C2B18164  37.429  15.620   8.460
 1203POPC   C3B18165  37.620  15.469   8.079
 1203POPC   C4B18166  37.629  15.411   7.641
 1204POPC   NC318167  34.692   9.939   9.560
 1204POPC   PO418168  34.362   9.422   9.365
 1204POPC   GL118169  34.584   9.749   9.108
 1204POPC   GL218170  34.759   9.584   8.873
 1204POPC   C1A18171  34.748  10.073   8.810
 1204POPC   D2A18172  34.554  10.137   8.426
 1204POPC   C3A18173  34.606   9.800   8.142
 1204POPC   C4A18174  34.480   9.841   7.741
 1204POPC   C1B18175  34.345   9.418   8.707
 1204POPC   C2B18176  34.176   9.134   8.385
 1204POPC   C3B18177  34.304   9.194   7.942
 1204POPC   C4B18178  34.679   9.377   7.798
 1205POPC   NC318179  42.697  36.795   9.770
 1205POPC   PO418180  43.362  36.844   9.538
 1205POPC   GL118181  43.133  36.935   9.212
 1205POPC   GL218182  42.854  36.828   9.257
 1205POPC   C1A18183  43.144  36.940   8.800
 1205POPC   D2A18184  43.133  36.872   8.390
 1205POPC   C3A18185  42.953  36.541   8.150
 1205POPC   C4A18186  43.071  36.719   7.761
 1205POPC   C1B18187  42.727  36.665   8.791
 1205POPC   C2B18188  42.594  36.849   8.393
 1205POPC   C3B18189  42.509  36.986   7.987
 1205POPC   C4B18190  42.548  36.633   7.698
 1206POPC   NC318191   2.364  43.896   9.384
 1206POPC   PO418192   3.002  44.053   9.521
 1206POPC   GL118193   2.980  43.848   9.153
 1206POPC   GL218194   2.722  43.588   9.195
 1206POPC   C1A18195   2.770  43.936   8.798
 1206POPC   D2A18196   2.962  43.961   8.441
 1206POPC   C3A18197   2.788  44.091   8.105
 1206POPC   C4A18198   2.898  43.943   7.718
 1206POPC   C1B18199   2.610  43.447   8.752
 1206POPC   C2B18200   2.556  43.657   8.335
 1206POPC   C3B18201   2.599  43.568   7.877
 1206POPC   C4B18202   2.653  43.584   7.389
 1207POPC   NC318203  25.188  33.438   9.588
 1207POPC   PO418204  24.944  34.039   9.443
 1207POPC   GL118205  25.174  33.831   9.144
 1207POPC   GL218206  25.462  34.024   9.053
 1207POPC   C1A18207  25.002  33.632   8.759
 1207POPC   D2A18208  25.159  33.573   8.329
 1207POPC   C3A18209  25.151  33.450   7.900
 1207POPC   C4A18210  24.996  33.633   7.536
 1207POPC   C1B18211  25.368  33.959   8.636
 1207POPC   C2B18212  25.092  34.074   8.337
 1207POPC   C3B18213  25.104  33.968   7.910
 1207POPC   C4B18214  25.474  33.791   7.660
 1208POPC   NC318215   7.328   5.328   9.415
 1208POPC   PO418216   7.323   4.631   9.354
 1208POPC   GL118217   7.388   4.954   9.073
 1208POPC   GL218218   7.723   5.088   9.139
 1208POPC   C1A18219   7.304   5.135   8.677
 1208POPC   D2A18220   7.279   5.332   8.284
 1208POPC   C3A18221   7.338   5.099   7.910
 1208POPC   C4A18222   7.394   5.238   7.498
 1208POPC   C1B18223   7.765   4.877   8.732
 1208POPC   C2B18224   7.608   4.900   8.302
 1208POPC   C3B18225   7.834   4.894   7.895
 1208POPC   C4B18226   7.785   4.890   7.442
 1209POPC   NC318227   1.569   0.910   9.430
 1209POPC   PO418228   1.492   1.601   9.581
 1209POPC   GL118229   1.212   1.414   9.230
 1209POPC   GL218230   1.273   1.056   9.045
 1209POPC   C1A18231   0.981   1.395   8.831
 1209POPC   D2A18232   1.116   1.196   8.501
 1209POPC   C3A18233   0.910   1.012   8.188
 1209POPC   C4A18234   1.161   1.016   7.819
 1209POPC   C1B18235   1.321   0.769   8.665
 1209POPC   C2B18236   1.403   0.787   8.232
 1209POPC   C3B18237   1.676   0.966   7.928
 1209POPC   C4B18238   1.574   1.069   7.526
 1210POPC   NC318239   7.269  21.043   9.414
 1210POPC   PO418240   7.554  20.386   9.449
 1210POPC   GL118241   7.259  20.594   9.165
 1210POPC   GL218242   7.571  20.786   9.070
 1210POPC   C1A18243   7.225  20.769   8.735
 1210POPC   D2A18244   7.580  20.583   8.533
 1210POPC   C3A18245   7.544  20.540   8.110
 1210POPC   C4A18246   7.246  20.757   7.860
 1210POPC   C1B18247   7.682  21.054   8.702
 1210POPC   C2B18248   7.815  20.956   8.288
 1210POPC   C3B18249   7.698  20.993   7.880
 1210POPC   C4B18250   7.492  21.009   7.484
 1211POPC   NC318251   4.524  22.461   9.593
 1211POPC   PO418252   4.448  21.880   9.287
 1211POPC   GL118253   4.358  22.065   8.955
 1211POPC   GL218254   4.123  22.281   9.118
 1211POPC   C1A18255   4.517  22.163   8.535
 1211POPC   D2A18256   4.488  22.517   8.236
 1211POPC   C3A18257   4.443  22.372   7.826
 1211POPC   C4A18258   4.441  21.900   7.732
 1211POPC   C1B18259   3.953  22.180   8.680
 1211POPC   C2B18260   4.077  22.171   8.229
 1211POPC   C3B18261   3.991  22.164   7.774
 1211POPC   C4B18262   4.163  22.124   7.377
 1212POPC   NC318263  34.033  15.009   9.388
 1212POPC   PO418264  33.566  15.457   9.607
 1212POPC   GL118265  33.656  15.345   9.159
 1212POPC   GL218266  33.562  14.988   9.141
 1212POPC   C1A18267  33.639  15.330   8.680
 1212POPC   D2A18268  33.791  15.319   8.241
 1212POPC   C3A18269  33.747  15.463   7.803
 1212POPC   C4A18270  34.067  15.511   7.482
 1212POPC   C1B18271  33.802  14.857   8.770
 1212POPC   C2B18272  33.627  14.829   8.357
 1212POPC   C3B18273  33.602  14.971   7.913
 1212POPC   C4B18274  33.445  14.926   7.503
 1213POPC   NC318275  35.875  42.669   9.285
 1213POPC   PO418276  36.234  43.094   9.711
 1213POPC   GL118277  36.290  43.091   9.237
 1213POPC   GL218278  36.416  42.783   9.168
 1213POPC   C1A18279  36.215  43.214   8.791
 1213POPC   D2A18280  36.049  43.041   8.395
 1213POPC   C3A18281  36.097  43.240   7.981
 1213POPC   C4A18282  35.995  42.912   7.639
 1213POPC   C1B18283  36.614  42.892   8.746
 1213POPC   C2B18284  36.580  43.092   8.357
 1213POPC   C3B18285  36.491  42.928   7.950
 1213POPC   C4B18286  36.449  43.162   7.605
 1214POPC   NC318287  37.612  22.626   9.436
 1214POPC   PO418288  38.101  23.037   9.723
 1214POPC   GL118289  37.986  23.107   9.260
 1214POPC   GL218290  37.606  23.057   9.154
 1214POPC   C1A18291  37.960  23.085   8.820
 1214POPC   D2A18292  37.970  23.095   8.403
 1214POPC   C3A18293  37.670  22.997   8.149
 1214POPC   C4A18294  37.738  23.109   7.755
 1214POPC   C1B18295  37.614  22.725   8.807
 1214POPC   C2B18296  37.498  22.562   8.436
 1214POPC   C3B18297  37.716  22.503   8.082
 1214POPC   C4B18298  37.500  22.655   7.746
 1215POPC   NC318299   6.474  32.419   9.466
 1215POPC   PO418300   6.796  31.847   9.495
 1215POPC   GL118301   6.913  32.088   9.131
 1215POPC   GL218302   6.891  32.444   9.144
 1215POPC   C1A18303   6.907  31.972   8.703
 1215POPC   D2A18304   6.528  32.037   8.396
 1215POPC   C3A18305   6.660  32.084   7.951
 1215POPC   C4A18306   7.081  31.951   7.787
 1215POPC   C1B18307   6.711  32.432   8.729
 1215POPC   C2B18308   6.933  32.355   8.329
 1215POPC   C3B18309   6.918  32.552   7.933
 1215POPC   C4B18310   6.547  32.753   7.714
 1216POPC   NC318311  19.156  35.795   9.627
 1216POPC   PO418312  19.543  36.220   9.230
 1216POPC   GL118313  19.099  36.067   9.164
 1216POPC   GL218314  18.776  36.197   9.031
 1216POPC   C1A18315  18.984  35.853   8.754
 1216POPC   D2A18316  18.980  36.065   8.342
 1216POPC   C3A18317  18.986  35.860   7.948
 1216POPC   C4A18318  19.068  36.015   7.539
 1216POPC   C1B18319  19.077  36.401   8.729
 1216POPC   C2B18320  19.143  36.579   8.284
 1216POPC   C3B18321  18.912  36.378   7.902
 1216POPC   C4B18322  18.814  36.428   7.448
 1217POPC   NC318323  37.468  27.038   9.479
 1217POPC   PO418324  37.496  26.414   9.603
 1217POPC   GL118325  37.652  26.660   9.202
 1217POPC   GL218326  38.032  26.739   9.190
 1217POPC   C1A18327  37.540  26.794   8.756
 1217POPC   D2A18328  37.767  26.810   8.379
 1217POPC   C3A18329  37.539  26.824   7.991
 1217POPC   C4A18330  37.476  26.822   7.568
 1217POPC   C1B18331  37.943  26.498   8.810
 1217POPC   C2B18332  38.030  26.373   8.406
 1217POPC   C3B18333  37.860  26.431   7.977
 1217POPC   C4B18334  37.958  26.718   7.622
 1218POPC   NC318335  36.093  42.664   9.758
 1218POPC   PO418336  35.862  42.203   9.337
 1218POPC   GL118337  36.188  42.324   9.093
 1218POPC   GL218338  36.302  42.027   9.071
 1218POPC   C1A18339  36.194  42.592   8.726
 1218POPC   D2A18340  36.370  42.610   8.339
 1218POPC   C3A18341  36.017  42.602   8.049
 1218POPC   C4A18342  35.996  42.403   7.624
 1218POPC   C1B18343  36.061  41.967   8.747
 1218POPC   C2B18344  36.045  42.196   8.411
 1218POPC   C3B18345  36.135  42.091   8.028
 1218POPC   C4B18346  36.111  41.811   7.746
 1219POPC   NC318347  21.651   3.735   9.477
 1219POPC   PO418348  21.076   3.374   9.525
 1219POPC   GL118349  21.377   3.367   9.227
 1219POPC   GL218350  21.262   3.683   9.131
 1219POPC   C1A18351  21.393   3.284   8.798
 1219POPC   D2A18352  21.624   3.354   8.437
 1219POPC   C3A18353  21.418   3.442   8.059
 1219POPC   C4A18354  21.633   3.308   7.720
 1219POPC   C1B18355  21.511   3.788   8.805
 1219POPC   C2B18356  21.392   3.816   8.420
 1219POPC   C3B18357  21.132   3.880   8.098
 1219POPC   C4B18358  21.379   3.946   7.759
 1220POPC   NC318359  36.620  43.275   9.566
 1220POPC   PO418360  37.353  43.326   9.512
 1220POPC   GL118361  37.171  43.108   9.160
 1220POPC   GL218362  36.806  43.159   9.123
 1220POPC   C1A18363  37.095  43.118   8.710
 1220POPC   D2A18364  37.055  42.856   8.389
 1220POPC   C3A18365  36.993  42.999   8.004
 1220POPC   C4A18366  36.895  42.841   7.619
 1220POPC   C1B18367  36.690  43.427   8.773
 1220POPC   C2B18368  36.832  43.639   8.406
 1220POPC   C3B18369  36.718  43.457   8.007
 1220POPC   C4B18370  36.909  43.360   7.637
 1221POPC   NC318371  41.617  10.697   9.676
 1221POPC   PO418372  41.094  10.250   9.606
 1221POPC   GL118373  41.430  10.462   9.260
 1221POPC   GL218374  41.766  10.306   9.155
 1221POPC   C1A18375  41.525  10.644   8.809
 1221POPC   D2A18376  41.540  10.403   8.382
 1221POPC   C3A18377  41.459  10.674   8.048
 1221POPC   C4A18378  41.652  10.984   7.806
 1221POPC   C1B18379  41.939  10.376   8.717
 1221POPC   C2B18380  41.960  10.692   8.358
 1221POPC   C3B18381  41.971  10.562   7.934
 1221POPC   C4B18382  41.654  10.354   7.696
 1222POPC   NC318383  20.004  36.300   9.785
 1222POPC   PO418384  19.691  36.866   9.510
 1222POPC   GL118385  19.716  36.782   9.117
 1222POPC   GL218386  19.813  37.115   9.057
 1222POPC   C1A18387  19.543  36.647   8.713
 1222POPC   D2A18388  19.661  36.779   8.296
 1222POPC   C3A18389  19.655  36.596   7.876
 1222POPC   C4A18390  19.871  36.808   7.548
 1222POPC   C1B18391  20.019  36.860   8.724
 1222POPC   C2B18392  20.149  37.019   8.333
 1222POPC   C3B18393  20.075  37.245   7.948
 1222POPC   C4B18394  20.221  37.175   7.528
 1223POPC   NC318395  10.825  37.984   9.493
 1223POPC   PO418396  10.718  37.346   9.518
 1223POPC   GL118397  10.530  37.414   9.150
 1223POPC   GL218398  10.454  37.769   9.167
 1223POPC   C1A18399  10.366  37.325   8.787
 1223POPC   D2A18400  10.325  37.454   8.378
 1223POPC   C3A18401  10.661  37.379   8.096
 1223POPC   C4A18402  10.485  37.308   7.715
 1223POPC   C1B18403  10.452  37.843   8.730
 1223POPC   C2B18404  10.657  37.844   8.319
 1223POPC   C3B18405  10.365  37.764   7.955
 1223POPC   C4B18406  10.309  38.015   7.565
 1224POPC   NC318407   2.991  27.126   9.612
 1224POPC   PO418408   2.408  26.749   9.589
 1224POPC   GL118409   2.620  26.665   9.232
 1224POPC   GL218410   2.919  26.845   9.208
 1224POPC   C1A18411   2.664  26.636   8.802
 1224POPC   D2A18412   2.961  26.730   8.503
 1224POPC   C3A18413   2.778  26.782   8.122
 1224POPC   C4A18414   2.953  26.900   7.744
 1224POPC   C1B18415   2.966  27.106   8.843
 1224POPC   C2B18416   2.718  27.188   8.479
 1224POPC   C3B18417   2.864  27.280   8.074
 1224POPC   C4B18418   3.213  27.373   7.812
 1225POPC   NC318419  20.968  31.545   9.485
 1225POPC   PO418420  20.267  31.381   9.421
 1225POPC   GL118421  20.601  31.436   9.116
 1225POPC   GL218422  20.771  31.141   8.969
 1225POPC   C1A18423  20.808  31.707   8.862
 1225POPC   D2A18424  20.852  31.774   8.428
 1225POPC   C3A18425  20.516  31.852   8.172
 1225POPC   C4A18426  20.572  31.618   7.797
 1225POPC   C1B18427  20.712  31.300   8.584
 1225POPC   C2B18428  20.382  31.573   8.582
 1225POPC   C3B18429  20.098  31.477   8.276
 1225POPC   C4B18430  20.183  31.278   7.871
 1226POPC   NC318431   0.718  42.801   9.473
 1226POPC   PO418432   0.241  42.274   9.600
 1226POPC   GL118433   0.442  42.391   9.236
 1226POPC   GL218434   0.292  42.710   9.214
 1226POPC   C1A18435   0.324  42.194   8.859
 1226POPC   D2A18436   0.290  41.979   8.491
 1226POPC   C3A18437   0.542  42.077   8.128
 1226POPC   C4A18438   0.424  42.193   7.720
 1226POPC   C1B18439   0.323  42.692   8.770
 1226POPC   C2B18440   0.385  42.506   8.389
 1226POPC   C3B18441   0.267  42.625   7.996
 1226POPC   C4B18442   0.349  42.679   7.585
 1227POPC   NC318443  28.692  12.356   9.454
 1227POPC   PO418444  28.365  11.729   9.483
 1227POPC   GL118445  28.581  11.925   9.168
 1227POPC   GL218446  28.323  12.141   9.144
 1227POPC   C1A18447  28.639  12.125   8.742
 1227POPC   D2A18448  28.445  11.897   8.424
 1227POPC   C3A18449  28.522  11.962   8.020
 1227POPC   C4A18450  28.654  12.179   7.621
 1227POPC   C1B18451  28.128  12.150   8.743
 1227POPC   C2B18452  28.286  12.406   8.400
 1227POPC   C3B18453  28.380  12.457   7.992
 1227POPC   C4B18454  28.155  12.167   7.735
 1228POPC   NC318455  39.832   1.758   9.637
 1228POPC   PO418456  40.243   2.266   9.469
 1228POPC   GL118457  40.012   1.966   9.171
 1228POPC   GL218458  40.052   1.612   9.190
 1228POPC   C1A18459  39.858   1.914   8.757
 1228POPC   D2A18460  40.026   2.104   8.371
 1228POPC   C3A18461  39.926   1.992   7.940
 1228POPC   C4A18462  39.962   1.758   7.552
 1228POPC   C1B18463  40.215   1.542   8.772
 1228POPC   C2B18464  40.371   1.687   8.411
 1228POPC   C3B18465  40.338   1.705   8.004
 1228POPC   C4B18466  40.432   1.531   7.607
 1229POPC   NC318467  11.404  15.500   9.474
 1229POPC   PO418468  11.144  14.856   9.494
 1229POPC   GL118469  11.275  15.118   9.151
 1229POPC   GL218470  11.648  15.239   9.095
 1229POPC   C1A18471  11.200  15.316   8.775
 1229POPC   D2A18472  11.488  15.130   8.469
 1229POPC   C3A18473  11.383  14.900   8.104
 1229POPC   C4A18474  11.347  15.051   7.678
 1229POPC   C1B18475  11.631  15.570   8.761
 1229POPC   C2B18476  11.408  15.627   8.381
 1229POPC   C3B18477  11.433  15.495   7.951
 1229POPC   C4B18478  11.636  15.684   7.600
 1230POPC   NC318479  13.237  33.315   9.471
 1230POPC   PO418480  13.623  32.807   9.793
 1230POPC   GL118481  13.627  32.854   9.299
 1230POPC   GL218482  13.395  33.059   9.060
 1230POPC   C1A18483  13.705  32.722   8.837
 1230POPC   D2A18484  13.897  32.927   8.459
 1230POPC   C3A18485  13.808  32.831   8.019
 1230POPC   C4A18486  13.590  32.836   7.629
 1230POPC   C1B18487  13.213  32.776   8.767
 1230POPC   C2B18488  13.386  32.891   8.392
 1230POPC   C3B18489  13.336  33.091   8.020
 1230POPC   C4B18490  13.072  32.895   7.748
 1231POPC   NC318491   8.279  16.068   9.574
 1231POPC   PO418492   7.708  15.704   9.519
 1231POPC   GL118493   8.043  15.796   9.206
 1231POPC   GL218494   7.873  15.950   8.952
 1231POPC   C1A18495   8.364  15.988   8.902
 1231POPC   D2A18496   8.171  16.234   8.579
 1231POPC   C3A18497   8.268  16.186   8.151
 1231POPC   C4A18498   7.983  16.189   7.790
 1231POPC   C1B18499   8.063  15.597   8.744
 1231POPC   C2B18500   8.336  15.708   8.430
 1231POPC   C3B18501   8.187  15.671   8.036
 1231POPC   C4B18502   8.196  15.325   7.753
 1232POPC   NC318503  35.312  35.865   9.330
 1232POPC   PO418504  35.131  36.490   9.321
 1232POPC   GL118505  35.411  36.436   8.986
 1232POPC   GL218506  35.677  36.279   9.125
 1232POPC   C1A18507  35.444  36.097   8.658
 1232POPC   D2A18508  35.166  35.915   8.321
 1232POPC   C3A18509  35.313  35.920   7.876
 1232POPC   C4A18510  35.709  35.929   7.621
 1232POPC   C1B18511  35.854  36.419   8.701
 1232POPC   C2B18512  35.851  36.343   8.257
 1232POPC   C3B18513  35.568  36.361   7.918
 1232POPC   C4B18514  35.443  36.339   7.475
 1233POPC   NC318515   8.485  17.042   9.666
 1233POPC   PO418516   7.977  16.504   9.576
 1233POPC   GL118517   8.177  16.738   9.295
 1233POPC   GL218518   8.330  16.443   9.160
 1233POPC   C1A18519   8.071  16.835   8.862
 1233POPC   D2A18520   8.187  16.754   8.442
 1233POPC   C3A18521   7.935  16.641   8.084
 1233POPC   C4A18522   8.044  16.751   7.670
 1233POPC   C1B18523   8.571  16.494   8.778
 1233POPC   C2B18524   8.719  16.740   8.424
 1233POPC   C3B18525   8.487  16.720   8.023
 1233POPC   C4B18526   8.454  16.400   7.721
 1234POPC   NC318527  31.527  15.490   9.430
 1234POPC   PO418528  31.210  14.870   9.498
 1234POPC   GL118529  31.440  14.943   9.118
 1234POPC   GL218530  31.764  15.115   9.165
 1234POPC   C1A18531  31.446  15.254   8.784
 1234POPC   D2A18532  31.637  15.300   8.391
 1234POPC   C3A18533  31.377  15.350   8.053
 1234POPC   C4A18534  31.502  15.379   7.649
 1234POPC   C1B18535  31.874  14.989   8.721
 1234POPC   C2B18536  31.885  14.813   8.294
 1234POPC   C3B18537  31.807  15.060   7.934
 1234POPC   C4B18538  31.475  14.851   7.760
 1235POPC   NC318539  14.044  28.419   9.515
 1235POPC   PO418540  13.400  28.738   9.519
 1235POPC   GL118541  13.673  28.573   9.198
 1235POPC   GL218542  13.825  28.245   9.081
 1235POPC   C1A18543  13.948  28.676   8.857
 1235POPC   D2A18544  13.848  28.476   8.473
 1235POPC   C3A18545  13.698  28.691   8.110
 1235POPC   C4A18546  13.747  28.527   7.682
 1235POPC   C1B18547  13.772  27.975   8.741
 1235POPC   C2B18548  13.901  27.985   8.319
 1235POPC   C3B18549  13.671  28.203   8.051
 1235POPC   C4B18550  13.447  28.122   7.657
 1236POPC   NC318551   9.114   4.771   9.586
 1236POPC   PO418552   9.071   4.093   9.423
 1236POPC   GL118553   8.909   4.436   9.170
 1236POPC   GL218554   9.209   4.650   9.104
 1236POPC   C1A18555   8.717   4.296   8.773
 1236POPC   D2A18556   8.813   3.993   8.429
 1236POPC   C3A18557   8.787   4.103   7.999
 1236POPC   C4A18558   8.621   4.453   7.765
 1236POPC   C1B18559   9.255   4.381   8.755
 1236POPC   C2B18560   9.398   4.367   8.339
 1236POPC   C3B18561   9.289   4.039   8.098
 1236POPC   C4B18562   9.294   4.116   7.680
 1237POPC   NC318563  33.037  23.402   9.622
 1237POPC   PO418564  32.941  22.775   9.533
 1237POPC   GL118565  33.044  23.106   9.213
 1237POPC   GL218566  33.367  23.315   9.237
 1237POPC   C1A18567  32.939  23.265   8.782
 1237POPC   D2A18568  32.795  23.411   8.385
 1237POPC   C3A18569  32.868  23.159   8.075
 1237POPC   C4A18570  33.076  23.324   7.764
 1237POPC   C1B18571  33.403  23.055   8.858
 1237POPC   C2B18572  33.387  22.817   8.480
 1237POPC   C3B18573  33.383  22.956   8.061
 1237POPC   C4B18574  33.129  22.798   7.761
 1238POPC   NC318575  33.825  32.583   9.489
 1238POPC   PO418576  33.910  31.930   9.383
 1238POPC   GL118577  33.851  32.230   9.068
 1238POPC   GL218578  33.587  32.456   9.079
 1238POPC   C1A18579  33.660  32.186   8.662
 1238POPC   D2A18580  33.601  32.067   8.271
 1238POPC   C3A18581  33.899  32.162   7.988
 1238POPC   C4A18582  33.823  31.916   7.653
 1238POPC   C1B18583  33.342  32.666   8.808
 1238POPC   C2B18584  33.337  32.518   8.404
 1238POPC   C3B18585  33.546  32.537   8.031
 1238POPC   C4B18586  33.601  32.362   7.611
 1239POPC   NC318587   0.911  28.857   9.688
 1239POPC   PO418588   1.115  28.170   9.548
 1239POPC   GL118589   1.043  28.128   9.140
 1239POPC   GL218590   1.044  28.472   9.136
 1239POPC   C1A18591   1.202  28.207   8.740
 1239POPC   D2A18592   1.022  28.307   8.389
 1239POPC   C3A18593   0.915  28.052   8.097
 1239POPC   C4A18594   0.953  28.274   7.767
 1239POPC   C1B18595   1.287  28.692   8.811
 1239POPC   C2B18596   1.337  28.708   8.391
 1239POPC   C3B18597   1.336  28.505   8.011
 1239POPC   C4B18598   1.540  28.396   7.642
 1240POPC   NC318599  15.426  30.499   9.352
 1240POPC   PO418600  14.845  30.751   9.682
 1240POPC   GL118601  14.986  30.840   9.205
 1240POPC   GL218602  14.872  30.594   8.916
 1240POPC   C1A18603  15.270  30.902   8.804
 1240POPC   D2A18604  15.382  30.728   8.375
 1240POPC   C3A18605  15.132  30.833   7.990
 1240POPC   C4A18606  15.122  30.557   7.651
 1240POPC   C1B18607  14.914  30.326   8.560
 1240POPC   C2B18608  14.951  30.330   8.111
 1240POPC   C3B18609  14.657  30.351   7.754
 1240POPC   C4B18610  14.704  30.553   7.361
 1241POPC   NC318611  21.005  29.508   9.383
 1241POPC   PO418612  21.424  29.073   9.664
 1241POPC   GL118613  21.525  29.005   9.217
 1241POPC   GL218614  21.213  29.130   9.106
 1241POPC   C1A18615  21.649  29.127   8.810
 1241POPC   D2A18616  21.568  29.294   8.393
 1241POPC   C3A18617  21.566  29.079   8.023
 1241POPC   C4A18618  21.693  29.303   7.700
 1241POPC   C1B18619  21.165  29.216   8.675
 1241POPC   C2B18620  21.043  29.173   8.236
 1241POPC   C3B18621  21.107  29.160   7.775
 1241POPC   C4B18622  20.934  29.265   7.355
 1242POPC   NC318623  11.740  41.446   9.526
 1242POPC   PO418624  12.382  41.490   9.499
 1242POPC   GL118625  12.159  41.601   9.137
 1242POPC   GL218626  11.813  41.548   9.045
 1242POPC   C1A18627  12.148  41.894   8.800
 1242POPC   D2A18628  12.187  41.744   8.368
 1242POPC   C3A18629  12.417  41.913   8.016
 1242POPC   C4A18630  12.313  41.798   7.604
 1242POPC   C1B18631  11.750  41.613   8.630
 1242POPC   C2B18632  11.810  41.397   8.294
 1242POPC   C3B18633  11.980  41.530   7.926
 1242POPC   C4B18634  12.063  41.357   7.545
 1243POPC   NC318635  29.941  15.378   9.666
 1243POPC   PO418636  29.762  16.053   9.596
 1243POPC   GL118637  29.889  15.978   9.168
 1243POPC   GL218638  30.157  15.814   9.232
 1243POPC   C1A18639  30.048  16.116   8.759
 1243POPC   D2A18640  29.878  15.852   8.441
 1243POPC   C3A18641  30.054  15.954   8.076
 1243POPC   C4A18642  29.968  16.057   7.690
 1243POPC   C1B18643  30.129  15.627   8.839
 1243POPC   C2B18644  30.285  15.556   8.458
 1243POPC   C3B18645  30.221  15.457   8.074
 1243POPC   C4B18646  30.096  15.563   7.679
 1244POPC   NC318647  34.335  33.101   9.569
 1244POPC   PO418648  35.025  33.294   9.689
 1244POPC   GL118649  34.901  33.220   9.246
 1244POPC   GL218650  34.603  32.980   9.140
 1244POPC   C1A18651  34.956  33.264   8.790
 1244POPC   D2A18652  34.814  33.037   8.402
 1244POPC   C3A18653  34.411  33.147   8.175
 1244POPC   C4A18654  34.315  33.265   7.718
 1244POPC   C1B18655  34.490  32.732   8.745
 1244POPC   C2B18656  34.487  32.618   8.291
 1244POPC   C3B18657  34.558  32.781   7.855
 1244POPC   C4B18658  34.339  32.770   7.469
 1245POPC   NC318659  15.299  29.033   9.606
 1245POPC   PO418660  15.330  28.382   9.586
 1245POPC   GL118661  15.188  28.429   9.177
 1245POPC   GL218662  14.935  28.175   9.176
 1245POPC   C1A18663  15.096  28.519   8.766
 1245POPC   D2A18664  15.352  28.381   8.441
 1245POPC   C3A18665  15.164  28.399   8.045
 1245POPC   C4A18666  15.139  28.544   7.628
 1245POPC   C1B18667  14.726  28.083   8.807
 1245POPC   C2B18668  14.865  28.172   8.422
 1245POPC   C3B18669  14.772  28.001   8.052
 1245POPC   C4B18670  15.016  28.024   7.717
 1246POPC   NC318671  19.660  34.931   9.636
 1246POPC   PO418672  19.019  34.628   9.624
 1246POPC   GL118673  19.304  34.752   9.307
 1246POPC   GL218674  19.384  34.449   9.179
 1246POPC   C1A18675  19.086  34.796   8.919
 1246POPC   D2A18676  19.070  34.639   8.515
 1246POPC   C3A18677  18.976  34.867   8.161
 1246POPC   C4A18678  18.905  34.654   7.788
 1246POPC   C1B18679  19.549  34.603   8.818
 1246POPC   C2B18680  19.520  34.437   8.435
 1246POPC   C3B18681  19.410  34.592   8.066
 1246POPC   C4B18682  19.365  34.400   7.696
 1247POPC   NC318683  26.830  40.160   9.620
 1247POPC   PO418684  27.269  39.747   9.557
 1247POPC   GL118685  26.882  39.816   9.243
 1247POPC   GL218686  26.749  40.188   9.133
 1247POPC   C1A18687  26.856  39.773   8.791
 1247POPC   D2A18688  27.033  39.973   8.431
 1247POPC   C3A18689  26.916  39.917   8.012
 1247POPC   C4A18690  27.099  40.104   7.612
 1247POPC   C1B18691  26.534  40.172   8.764
 1247POPC   C2B18692  26.620  40.275   8.372
 1247POPC   C3B18693  26.465  40.160   8.012
 1247POPC   C4B18694  26.579  40.003   7.640
 1248POPC   NC318695  38.612  44.590   9.642
 1248POPC   PO418696  38.339   0.153   9.481
 1248POPC   GL118697  38.239  44.850   9.158
 1248POPC   GL218698  38.265  44.499   9.223
 1248POPC   C1A18699  38.160  44.767   8.730
 1248POPC   D2A18700  38.341  44.905   8.373
 1248POPC   C3A18701  38.202  44.754   8.016
 1248POPC   C4A18702  38.327  44.988   7.680
 1248POPC   C1B18703  38.501  44.402   8.856
 1248POPC   C2B18704  38.674  44.531   8.459
 1248POPC   C3B18705  38.569  44.404   8.049
 1248POPC   C4B18706  38.706  44.669   7.742
 1249POPC   NC318707  28.335  31.105   9.409
 1249POPC   PO418708  28.335  31.674   9.756
 1249POPC   GL118709  28.334  31.686   9.244
 1249POPC   GL218710  28.529  31.404   9.007
 1249POPC   C1A18711  28.298  31.780   8.760
 1249POPC   D2A18712  28.484  31.618   8.345
 1249POPC   C3A18713  28.273  31.673   7.931
 1249POPC   C4A18714  28.075  31.444   7.610
 1249POPC   C1B18715  28.850  31.191   8.733
 1249POPC   C2B18716  28.779  31.054   8.303
 1249POPC   C3B18717  28.667  31.314   7.939
 1249POPC   C4B18718  28.584  31.154   7.516
 1250POPC   NC318719  39.225  23.368   9.565
 1250POPC   PO418720  39.491  23.900   9.733
 1250POPC   GL118721  39.416  23.811   9.306
 1250POPC   GL218722  39.595  23.549   9.142
 1250POPC   C1A18723  39.199  23.757   8.905
 1250POPC   D2A18724  39.266  23.439   8.560
 1250POPC   C3A18725  39.250  23.587   8.121
 1250POPC   C4A18726  39.206  23.476   7.686
 1250POPC   C1B18727  39.659  23.926   8.842
 1250POPC   C2B18728  39.432  23.937   8.461
 1250POPC   C3B18729  39.529  24.006   8.038
 1250POPC   C4B18730  39.289  23.968   7.704
 1251POPC   NC318731  31.043  37.740   9.724
 1251POPC   PO418732  30.500  37.537   9.344
 1251POPC   GL118733  30.699  37.762   9.062
 1251POPC   GL218734  31.031  37.872   9.215
 1251POPC   C1A18735  30.752  37.544   8.682
 1251POPC   D2A18736  30.561  37.596   8.317
 1251POPC   C3A18737  30.794  37.456   8.019
 1251POPC   C4A18738  30.559  37.445   7.666
 1251POPC   C1B18739  31.095  37.966   8.783
 1251POPC   C2B18740  31.016  37.853   8.360
 1251POPC   C3B18741  30.825  37.972   7.963
 1251POPC   C4B18742  31.041  37.961   7.580
 1252POPC   NC318743  30.588  24.577   9.581
 1252POPC   PO418744  30.914  24.060   9.403
 1252POPC   GL118745  30.875  24.460   9.176
 1252POPC   GL218746  30.848  24.842   9.217
 1252POPC   C1A18747  30.574  24.641   8.846
 1252POPC   D2A18748  30.382  24.477   8.456
 1252POPC   C3A18749  30.564  24.455   8.031
 1252POPC   C4A18750  30.592  24.650   7.608
 1252POPC   C1B18751  31.063  24.712   8.802
 1252POPC   C2B18752  30.903  24.616   8.394
 1252POPC   C3B18753  31.059  24.518   7.943
 1252POPC   C4B18754  30.836  24.204   7.627
 1253POPC   NC318755  28.085  20.956   9.570
 1253POPC   PO418756  28.072  20.282   9.706
 1253POPC   GL118757  27.786  20.378   9.298
 1253POPC   GL218758  27.767  20.719   9.132
 1253POPC   C1A18759  27.651  20.331   8.814
 1253POPC   D2A18760  27.697  20.266   8.347
 1253POPC   C3A18761  27.643  20.581   7.993
 1253POPC   C4A18762  27.491  20.595   7.565
 1253POPC   C1B18763  27.612  20.814   8.661
 1253POPC   C2B18764  27.455  21.024   8.262
 1253POPC   C3B18765  27.472  21.037   7.826
 1253POPC   C4B18766  27.849  20.968   7.567
 1254POPC   NC318767  31.692   3.235   9.493
 1254POPC   PO418768  31.185   3.749   9.469
 1254POPC   GL118769  31.359   3.481   9.159
 1254POPC   GL218770  31.086   3.302   9.057
 1254POPC   C1A18771  31.692   3.498   8.847
 1254POPC   D2A18772  31.799   3.355   8.418
 1254POPC   C3A18773  31.689   3.605   8.098
 1254POPC   C4A18774  31.605   3.330   7.768
 1254POPC   C1B18775  31.217   3.386   8.654
 1254POPC   C2B18776  31.266   3.336   8.219
 1254POPC   C3B18777  31.108   3.320   7.810
 1254POPC   C4B18778  31.229   3.557   7.461
 1255POPC   NC318779  11.716   9.501   9.538
 1255POPC   PO418780  11.066   9.765   9.489
 1255POPC   GL118781  11.349   9.618   9.214
 1255POPC   GL218782  11.109   9.567   9.006
 1255POPC   C1A18783  11.576   9.715   8.848
 1255POPC   D2A18784  11.511   9.829   8.435
 1255POPC   C3A18785  11.467   9.732   8.001
 1255POPC   C4A18786  11.541  10.058   7.705
 1255POPC   C1B18787  11.191   9.456   8.613
 1255POPC   C2B18788  11.047   9.712   8.327
 1255POPC   C3B18789  10.937   9.719   7.944
 1255POPC   C4B18790  10.979   9.427   7.649
 1256POPC   NC318791  43.614   5.147   9.788
 1256POPC   PO418792  42.952   5.018   9.612
 1256POPC   GL118793  42.889   5.036   9.174
 1256POPC   GL218794  43.053   5.313   9.021
 1256POPC   C1A18795  42.728   5.031   8.750
 1256POPC   D2A18796  42.695   5.180   8.332
 1256POPC   C3A18797  42.984   4.993   8.040
 1256POPC   C4A18798  43.077   5.157   7.651
 1256POPC   C1B18799  43.361   5.527   8.771
 1256POPC   C2B18800  43.495   5.441   8.359
 1256POPC   C3B18801  43.432   5.255   7.984
 1256POPC   C4B18802  43.627   5.333   7.570
 1257POPC   NC318803  23.486  20.328   9.787
 1257POPC   PO418804  22.918  20.367   9.371
 1257POPC   GL118805  22.972  20.724   9.119
 1257POPC   GL218806  23.284  20.723   9.033
 1257POPC   C1A18807  22.834  20.836   8.693
 1257POPC   D2A18808  22.981  20.763   8.263
 1257POPC   C3A18809  22.677  20.674   7.926
 1257POPC   C4A18810  22.647  20.547   7.483
 1257POPC   C1B18811  23.172  20.431   8.700
 1257POPC   C2B18812  23.262  20.322   8.285
 1257POPC   C3B18813  23.164  20.470   7.877
 1257POPC   C4B18814  23.266  20.884   7.720
 1258POPC   NC318815   3.128  31.976   9.342
 1258POPC   PO418816   2.638  32.366   9.597
 1258POPC   GL118817   2.779  32.317   9.151
 1258POPC   GL218818   3.095  32.274   8.924
 1258POPC   C1A18819   2.614  32.197   8.755
 1258POPC   D2A18820   2.510  32.236   8.344
 1258POPC   C3A18821   2.839  32.239   8.044
 1258POPC   C4A18822   2.621  32.144   7.679
 1258POPC   C1B18823   2.981  31.866   8.753
 1258POPC   C2B18824   2.825  31.814   8.416
 1258POPC   C3B18825   3.014  31.760   8.057
 1258POPC   C4B18826   3.160  31.892   7.698
 1259POPC   NC318827  11.673  27.724   9.380
 1259POPC   PO418828  11.035  27.910   9.539
 1259POPC   GL118829  11.254  27.878   9.122
 1259POPC   GL218830  11.330  27.516   9.064
 1259POPC   C1A18831  11.208  27.794   8.669
 1259POPC   D2A18832  11.481  27.627   8.364
 1259POPC   C3A18833  11.283  27.730   8.008
 1259POPC   C4A18834  11.391  27.648   7.619
 1259POPC   C1B18835  11.430  27.212   8.727
 1259POPC   C2B18836  11.569  27.059   8.315
 1259POPC   C3B18837  11.425  27.253   7.947
 1259POPC   C4B18838  11.155  27.196   7.585
 1260POPC   NC318839  23.060  25.932   9.563
 1260POPC   PO418840  22.507  25.705   9.362
 1260POPC   GL118841  22.766  26.009   9.145
 1260POPC   GL218842  23.157  26.071   9.084
 1260POPC   C1A18843  22.774  26.164   8.730
 1260POPC   D2A18844  22.992  26.132   8.333
 1260POPC   C3A18845  22.800  25.947   7.955
 1260POPC   C4A18846  22.747  25.970   7.510
 1260POPC   C1B18847  23.230  26.400   8.750
 1260POPC   C2B18848  23.285  26.551   8.299
 1260POPC   C3B18849  23.211  26.286   7.887
 1260POPC   C4B18850  23.112  26.334   7.403
 1261POPC   NC318851  33.416  39.020   9.514
 1261POPC   PO418852  34.021  39.371   9.482
 1261POPC   GL118853  33.991  39.250   9.109
 1261POPC   GL218854  33.654  39.286   9.122
 1261POPC   C1A18855  34.034  39.362   8.707
 1261POPC   D2A18856  33.733  39.344   8.472
 1261POPC   C3A18857  33.847  39.223   8.073
 1261POPC   C4A18858  33.877  39.038   7.664
 1261POPC   C1B18859  33.424  39.593   8.881
 1261POPC   C2B18860  33.210  39.531   8.490
 1261POPC   C3B18861  33.427  39.513   8.088
 1261POPC   C4B18862  33.702  39.550   7.721
 1262POPC   NC318863  44.368  29.673   9.582
 1262POPC   PO418864  44.592  28.998   9.537
 1262POPC   GL118865  44.641  29.125   9.145
 1262POPC   GL218866  44.365  29.365   9.156
 1262POPC   C1A18867  44.820  28.957   8.763
 1262POPC   D2A18868  44.871  29.102   8.366
 1262POPC   C3A18869  44.695  28.991   7.978
 1262POPC   C4A18870  44.861  29.093   7.589
 1262POPC   C1B18871  44.478  29.349   8.687
 1262POPC   C2B18872  44.406  29.406   8.222
 1262POPC   C3B18873  44.456  29.392   7.760
 1262POPC   C4B18874  44.392  29.539   7.313
 1263POPC   NC318875  35.395  29.372   9.358
 1263POPC   PO418876  35.082  28.863   9.612
 1263POPC   GL118877  35.205  28.928   9.173
 1263POPC   GL218878  34.889  28.773   9.109
 1263POPC   C1A18879  35.425  29.126   8.768
 1263POPC   D2A18880  35.570  29.212   8.357
 1263POPC   C3A18881  35.357  29.327   8.003
 1263POPC   C4A18882  35.588  29.282   7.643
 1263POPC   C1B18883  34.807  28.948   8.740
 1263POPC   C2B18884  35.026  29.092   8.405
 1263POPC   C3B18885  35.025  28.909   8.030
 1263POPC   C4B18886  35.210  28.957   7.670
 1264POPC   NC318887  32.762  38.366   9.360
 1264POPC   PO418888  33.431  38.236   9.225
 1264POPC   GL118889  33.150  38.507   9.076
 1264POPC   GL218890  33.401  38.745   9.092
 1264POPC   C1A18891  32.923  38.353   8.699
 1264POPC   D2A18892  33.076  38.180   8.293
 1264POPC   C3A18893  32.780  38.324   7.982
 1264POPC   C4A18894  32.747  38.239   7.562
 1264POPC   C1B18895  33.347  38.619   8.628
 1264POPC   C2B18896  33.059  38.672   8.242
 1264POPC   C3B18897  33.035  38.754   7.776
 1264POPC   C4B18898  33.055  38.966   7.341
 1265POPC   NC318899  20.060  29.417   9.592
 1265POPC   PO418900  19.713  28.847   9.481
 1265POPC   GL118901  19.898  29.008   9.135
 1265POPC   GL218902  19.916  29.357   9.118
 1265POPC   C1A18903  19.723  29.018   8.759
 1265POPC   D2A18904  19.648  28.786   8.402
 1265POPC   C3A18905  19.553  29.080   8.128
 1265POPC   C4A18906  19.669  29.129   7.732
 1265POPC   C1B18907  20.152  29.261   8.751
 1265POPC   C2B18908  19.963  29.270   8.378
 1265POPC   C3B18909  20.072  29.345   7.995
 1265POPC   C4B18910  19.988  29.509   7.588
 1266POPC   NC318911  35.224  37.571   9.523
 1266POPC   PO418912  35.493  38.222   9.562
 1266POPC   GL118913  35.486  37.865   9.195
 1266POPC   GL218914  35.142  37.778   9.067
 1266POPC   C1A18915  35.589  37.792   8.758
 1266POPC   D2A18916  35.334  37.780   8.363
 1266POPC   C3A18917  35.571  37.686   7.999
 1266POPC   C4A18918  35.660  37.932   7.651
 1266POPC   C1B18919  34.909  37.736   8.673
 1266POPC   C2B18920  34.903  37.496   8.290
 1266POPC   C3B18921  35.084  37.576   7.869
 1266POPC   C4B18922  35.018  37.612   7.427
 1267POPC   NC318923  44.833  17.122   9.601
 1267POPC   PO418924  44.529  17.660   9.605
 1267POPC   GL118925  44.591  17.423   9.224
 1267POPC   GL218926  44.941  17.472   9.209
 1267POPC   C1A18927  44.438  17.655   8.805
 1267POPC   D2A18928  44.483  17.783   8.423
 1267POPC   C3A18929  44.465  17.501   8.119
 1267POPC   C4A18930  44.201  17.690   7.810
 1267POPC   C1B18931  44.840  17.331   8.780
 1267POPC   C2B18932  44.984  17.476   8.370
 1267POPC   C3B18933   0.046  17.221   8.017
 1267POPC   C4B18934  44.733  17.314   7.733
 1268POPC   NC318935   9.063  31.834   9.577
 1268POPC   PO418936   9.248  31.176   9.630
 1268POPC   GL118937   9.172  31.177   9.151
 1268POPC   GL218938   9.168  31.493   8.946
 1268POPC   C1A18939   9.116  31.059   8.740
 1268POPC   D2A18940   9.209  31.413   8.437
 1268POPC   C3A18941   9.077  31.404   8.015
 1268POPC   C4A18942   9.178  31.307   7.590
 1268POPC   C1B18943   8.752  31.420   8.677
 1268POPC   C2B18944   8.487  31.717   8.466
 1268POPC   C3B18945   8.568  31.552   8.053
 1268POPC   C4B18946   8.740  31.612   7.668
 1269POPC   NC318947  27.883  37.520   9.577
 1269POPC   PO418948  27.311  37.985   9.520
 1269POPC   GL118949  27.518  37.737   9.209
 1269POPC   GL218950  27.408  37.381   9.165
 1269POPC   C1A18951  27.367  37.792   8.784
 1269POPC   D2A18952  27.216  38.047   8.444
 1269POPC   C3A18953  27.351  37.892   8.035
 1269POPC   C4A18954  27.687  38.041   7.781
 1269POPC   C1B18955  27.557  37.314   8.736
 1269POPC   C2B18956  27.592  37.529   8.355
 1269POPC   C3B18957  27.724  37.530   7.935
 1269POPC   C4B18958  27.526  37.510   7.560
 1270POPC   NC318959  10.392  35.422   9.658
 1270POPC   PO418960  11.014  35.237   9.716
 1270POPC   GL118961  10.645  35.206   9.288
 1270POPC   GL218962  10.230  35.238   9.229
 1270POPC   C1A18963  10.580  35.324   8.847
 1270POPC   D2A18964  10.752  35.382   8.441
 1270POPC   C3A18965  10.794  35.099   8.103
 1270POPC   C4A18966  10.705  35.298   7.705
 1270POPC   C1B18967  10.069  35.392   8.832
 1270POPC   C2B18968  10.228  35.201   8.468
 1270POPC   C3B18969  10.327  35.326   8.086
 1270POPC   C4B18970  10.230  35.152   7.727
 1271POPC   NC318971  12.243  11.186   9.494
 1271POPC   PO418972  12.302  11.880   9.443
 1271POPC   GL118973  12.153  11.547   9.117
 1271POPC   GL218974  12.252  11.161   8.994
 1271POPC   C1A18975  11.986  11.456   8.709
 1271POPC   D2A18976  12.226  11.232   8.397
 1271POPC   C3A18977  12.185  11.275   7.962
 1271POPC   C4A18978  12.371  11.509   7.646
 1271POPC   C1B18979  12.104  10.832   8.679
 1271POPC   C2B18980  11.782  10.767   8.337
 1271POPC   C3B18981  11.763  10.956   7.941
 1271POPC   C4B18982  11.712  11.375   7.785
 1272POPC   NC318983  30.200   7.510   9.427
 1272POPC   PO418984  30.915   7.648   9.494
 1272POPC   GL118985  30.835   7.477   9.119
 1272POPC   GL218986  30.511   7.552   9.055
 1272POPC   C1A18987  30.832   7.317   8.712
 1272POPC   D2A18988  30.622   7.014   8.454
 1272POPC   C3A18989  30.746   7.136   8.047
 1272POPC   C4A18990  30.879   7.577   7.962
 1272POPC   C1B18991  30.329   7.420   8.678
 1272POPC   C2B18992  30.472   7.497   8.297
 1272POPC   C3B18993  30.361   7.618   7.897
 1272POPC   C4B18994  30.511   7.637   7.484
 1273POPC   NC318995  17.447  35.691   9.497
 1273POPC   PO418996  17.727  35.207   9.398
 1273POPC   GL118997  17.567  35.464   9.040
 1273POPC   GL218998  17.192  35.584   9.088
 1273POPC   C1A18999  17.676  35.698   8.632
 1273POPC   D2A19000  17.465  35.844   8.217
 1273POPC   C3A19001  17.424  35.525   7.878
 1273POPC   C4A19002  17.646  35.134   7.938
 1273POPC   C1B19003  17.173  35.608   8.651
 1273POPC   C2B19004  17.333  35.334   8.339
 1273POPC   C3B19005  17.117  35.130   7.975
 1273POPC   C4B19006  16.887  35.316   7.605
 1274POPC   NC319007  31.018  36.672   9.715
 1274POPC   PO419008  31.691  36.694   9.603
 1274POPC   GL119009  31.470  36.909   9.242
 1274POPC   GL219010  31.097  36.884   9.216
 1274POPC   C1A19011  31.450  36.771   8.805
 1274POPC   D2A19012  31.593  36.519   8.447
 1274POPC   C3A19013  31.523  36.788   8.157
 1274POPC   C4A19014  31.651  36.859   7.755
 1274POPC   C1B19015  30.960  36.967   8.767
 1274POPC   C2B19016  31.141  37.200   8.413
 1274POPC   C3B19017  31.211  37.168   7.971
 1274POPC   C4B19018  31.131  37.460   7.613
 1275POPC   NC319019  27.432  27.842   9.456
 1275POPC   PO419020  27.793  27.240   9.575
 1275POPC   GL119021  27.537  27.412   9.217
 1275POPC   GL219022  27.805  27.630   9.155
 1275POPC   C1A19023  27.314  27.609   8.829
 1275POPC   D2A19024  27.385  27.695   8.373
 1275POPC   C3A19025  27.176  27.517   7.979
 1275POPC   C4A19026  27.280  27.409   7.501
 1275POPC   C1B19027  27.777  27.882   8.790
 1275POPC   C2B19028  27.885  27.797   8.370
 1275POPC   C3B19029  27.726  27.646   7.971
 1275POPC   C4B19030  27.783  27.567   7.543
 1276POPC   NC319031   0.688  25.952   9.477
 1276POPC   PO419032   0.046  26.159   9.461
 1276POPC   GL119033   0.319  26.240   9.106
 1276POPC   GL219034   0.663  26.344   9.127
 1276POPC   C1A19035   0.244  26.196   8.663
 1276POPC   D2A19036  44.995  25.969   8.356
 1276POPC   C3A19037   0.295  25.969   8.033
 1276POPC   C4A19038   0.449  26.216   7.701
 1276POPC   C1B19039   0.696  25.997   8.819
 1276POPC   C2B19040   0.871  26.030   8.409
 1276POPC   C3B19041   0.831  26.008   7.983
 1276POPC   C4B19042   0.677  25.750   7.684
 1277POPC   NC319043   2.948   7.896   9.428
 1277POPC   PO419044   2.533   8.255   9.736
 1277POPC   GL119045   2.594   8.220   9.225
 1277POPC   GL219046   2.809   7.995   8.977
 1277POPC   C1A19047   2.688   8.437   8.812
 1277POPC   D2A19048   2.978   8.306   8.485
 1277POPC   C3A19049   2.830   8.332   8.073
 1277POPC   C4A19050   2.701   8.274   7.681
 1277POPC   C1B19051   2.888   7.807   8.602
 1277POPC   C2B19052   3.046   7.837   8.191
 1277POPC   C3B19053   2.827   7.791   7.798
 1277POPC   C4B19054   2.485   7.825   7.486
 1278POPC   NC319055   2.869  35.500   9.476
 1278POPC   PO419056   2.235  35.664   9.639
 1278POPC   GL119057   2.510  35.457   9.159
 1278POPC   GL219058   2.592  35.091   9.160
 1278POPC   C1A19059   2.520  35.384   8.685
 1278POPC   D2A19060   2.564  35.609   8.249
 1278POPC   C3A19061   2.872  35.556   7.881
 1278POPC   C4A19062   3.281  35.693   7.748
 1278POPC   C1B19063   2.835  34.979   8.792
 1278POPC   C2B19064   2.735  35.015   8.368
 1278POPC   C3B19065   2.574  35.169   7.968
 1278POPC   C4B19066   2.542  35.310   7.502
 1279POPC   NC319067  40.516  31.625   9.584
 1279POPC   PO419068  40.218  31.113   9.408
 1279POPC   GL119069  40.235  31.427   9.147
 1279POPC   GL219070  39.885  31.498   9.164
 1279POPC   C1A19071  40.144  31.425   8.705
 1279POPC   D2A19072  40.118  31.270   8.291
 1279POPC   C3A19073  40.167  31.636   8.047
 1279POPC   C4A19074  39.938  31.791   7.700
 1279POPC   C1B19075  39.669  31.628   8.793
 1279POPC   C2B19076  39.663  31.546   8.339
 1279POPC   C3B19077  39.746  31.367   7.913
 1279POPC   C4B19078  40.122  31.180   7.706
 1280POPC   NC319079  19.293  37.563   9.464
 1280POPC   PO419080  18.993  37.023   9.457
 1280POPC   GL119081  18.799  37.240   9.096
 1280POPC   GL219082  18.874  37.606   9.130
 1280POPC   C1A19083  18.969  37.349   8.670
 1280POPC   D2A19084  19.227  37.610   8.393
 1280POPC   C3A19085  19.115  37.589   7.993
 1280POPC   C4A19086  19.241  37.471   7.573
 1280POPC   C1B19087  19.205  37.775   8.865
 1280POPC   C2B19088  19.390  38.050   8.559
 1280POPC   C3B19089  19.363  38.072   8.139
 1280POPC   C4B19090  19.294  38.009   7.733
 1281POPC   NC319091   0.675  40.041   9.445
 1281POPC   PO419092  44.985  40.254   9.441
 1281POPC   GL119093   0.241  39.965   9.115
 1281POPC   GL219094   0.611  39.948   8.972
 1281POPC   C1A19095   0.298  39.786   8.647
 1281POPC   D2A19096   0.479  39.978   8.267
 1281POPC   C3A19097   0.412  39.726   7.910
 1281POPC   C4A19098   0.264  39.711   7.490
 1281POPC   C1B19099   0.385  40.280   8.736
 1281POPC   C2B19100   0.278  40.498   8.374
 1281POPC   C3B19101   0.263  40.390   7.963
 1281POPC   C4B19102   0.574  40.182   7.744
 1282POPC   NC319103  34.397  20.298   9.300
 1282POPC   PO419104  34.655  20.694   9.733
 1282POPC   GL119105  34.705  20.766   9.272
 1282POPC   GL219106  34.388  20.738   9.012
 1282POPC   C1A19107  34.871  20.604   8.872
 1282POPC   D2A19108  34.602  20.423   8.539
 1282POPC   C3A19109  34.640  20.569   8.122
 1282POPC   C4A19110  34.958  20.689   7.832
 1282POPC   C1B19111  34.140  20.378   8.756
 1282POPC   C2B19112  34.125  20.199   8.370
 1282POPC   C3B19113  34.180  20.379   7.969
 1282POPC   C4B19114  34.291  20.803   7.831
 1283POPC   NC319115  41.054  33.099   9.425
 1283POPC   PO419116  40.550  33.491   9.442
 1283POPC   GL119117  40.743  33.329   9.080
 1283POPC   GL219118  40.653  32.963   9.120
 1283POPC   C1A19119  40.998  33.123   8.756
 1283POPC   D2A19120  40.857  32.958   8.367
 1283POPC   C3A19121  40.781  33.240   8.071
 1283POPC   C4A19122  40.850  33.185   7.640
 1283POPC   C1B19123  40.465  32.996   8.711
 1283POPC   C2B19124  40.379  32.800   8.323
 1283POPC   C3B19125  40.517  32.850   7.870
 1283POPC   C4B19126  40.415  33.006   7.411
 1284POPC   NC319127   2.058  30.293   9.485
 1284POPC   PO419128   1.742  30.871   9.486
 1284POPC   GL119129   2.064  30.864   9.163
 1284POPC   GL219130   2.068  30.522   9.036
 1284POPC   C1A19131   1.938  30.946   8.746
 1284POPC   D2A19132   1.834  30.826   8.337
 1284POPC   C3A19133   1.832  31.052   7.927
 1284POPC   C4A19134   1.838  30.941   7.447
 1284POPC   C1B19135   2.071  30.233   8.691
 1284POPC   C2B19136   2.073  30.332   8.288
 1284POPC   C3B19137   2.131  30.629   7.984
 1284POPC   C4B19138   1.754  30.563   7.766
 1285POPC   NC319139   2.550  17.165   9.409
 1285POPC   PO419140   2.806  17.791   9.430
 1285POPC   GL119141   2.701  17.544   9.068
 1285POPC   GL219142   2.955  17.306   9.058
 1285POPC   C1A19143   2.667  17.454   8.602
 1285POPC   D2A19144   2.589  17.480   8.114
 1285POPC   C3A19145   2.790  17.556   7.753
 1285POPC   C4A19146   3.070  17.816   7.586
 1285POPC   C1B19147   3.034  17.040   8.714
 1285POPC   C2B19148   2.857  17.081   8.306
 1285POPC   C3B19149   2.897  16.875   7.935
 1285POPC   C4B19150   3.075  16.897   7.514
 1286POPC   NC319151  36.533  12.473   9.345
 1286POPC   PO419152  36.065  12.113   9.581
 1286POPC   GL119153  36.198  12.106   9.154
 1286POPC   GL219154  35.897  12.282   9.075
 1286POPC   C1A19155  36.336  12.090   8.694
 1286POPC   D2A19156  36.542  12.169   8.263
 1286POPC   C3A19157  36.510  11.873   7.942
 1286POPC   C4A19158  36.104  11.990   7.809
 1286POPC   C1B19159  35.845  11.915   8.782
 1286POPC   C2B19160  35.683  11.921   8.334
 1286POPC   C3B19161  35.656  11.759   7.895
 1286POPC   C4B19162  35.772  11.642   7.451
 1287POPC   NC319163  37.167  10.213   9.372
 1287POPC   PO419164  37.624  10.700   9.663
 1287POPC   GL119165  37.719  10.621   9.248
 1287POPC   GL219166  37.369  10.646   9.179
 1287POPC   C1A19167  37.859  10.545   8.808
 1287POPC   D2A19168  38.050  10.517   8.352
 1287POPC   C3A19169  37.801  10.430   7.928
 1287POPC   C4A19170  38.002  10.240   7.530
 1287POPC   C1B19171  37.335  10.900   8.816
 1287POPC   C2B19172  37.285  10.897   8.358
 1287POPC   C3B19173  37.373  10.778   7.961
 1287POPC   C4B19174  37.355  10.544   7.611
 1288POPC   NC319175  16.748  17.132   9.400
 1288POPC   PO419176  16.733  16.548   9.791
 1288POPC   GL119177  16.764  16.453   9.282
 1288POPC   GL219178  16.669  16.742   9.068
 1288POPC   C1A19179  16.986  16.460   8.810
 1288POPC   D2A19180  17.198  16.703   8.436
 1288POPC   C3A19181  16.978  16.861   8.043
 1288POPC   C4A19182  17.030  17.096   7.649
 1288POPC   C1B19183  16.581  16.702   8.601
 1288POPC   C2B19184  16.566  16.594   8.173
 1288POPC   C3B19185  16.380  16.676   7.810
 1288POPC   C4B19186  16.185  16.607   7.411
 1289POPC   NC319187   3.152  15.673   9.383
 1289POPC   PO419188   3.415  16.294   9.520
 1289POPC   GL119189   3.481  16.254   9.087
 1289POPC   GL219190   3.521  15.909   9.096
 1289POPC   C1A19191   3.370  16.167   8.644
 1289POPC   D2A19192   3.354  16.273   8.209
 1289POPC   C3A19193   3.547  16.086   7.875
 1289POPC   C4A19194   3.464  16.068   7.435
 1289POPC   C1B19195   3.484  15.649   8.736
 1289POPC   C2B19196   3.534  15.788   8.324
 1289POPC   C3B19197   3.814  15.674   8.005
 1289POPC   C4B19198   3.607  15.597   7.639
 1290POPC   NC319199  35.745  18.852   9.494
 1290POPC   PO419200  35.118  19.179   9.433
 1290POPC   GL119201  35.058  18.973   9.096
 1290POPC   GL219202  35.275  18.712   9.199
 1290POPC   C1A19203  35.096  19.083   8.709
 1290POPC   D2A19204  35.212  19.274   8.401
 1290POPC   C3A19205  35.082  19.190   8.021
 1290POPC   C4A19206  35.357  19.440   7.819
 1290POPC   C1B19207  35.521  18.907   8.890
 1290POPC   C2B19208  35.548  18.856   8.490
 1290POPC   C3B19209  35.558  19.013   8.111
 1290POPC   C4B19210  35.487  18.936   7.708
 1291POPC   NC319211  10.381  12.423   9.697
 1291POPC   PO419212  10.857  12.659   9.299
 1291POPC   GL119213  10.504  12.908   9.111
 1291POPC   GL219214  10.203  12.932   9.308
 1291POPC   C1A19215  10.528  13.100   8.691
 1291POPC   D2A19216  10.693  12.878   8.367
 1291POPC   C3A19217  10.840  13.078   8.023
 1291POPC   C4A19218  10.799  12.897   7.638
 1291POPC   C1B19219  10.083  12.918   8.837
 1291POPC   C2B19220  10.194  12.779   8.408
 1291POPC   C3B19221  10.329  12.866   7.990
 1291POPC   C4B19222  10.137  12.940   7.536
 1292POPC   NC319223  18.773  29.794   9.566
 1292POPC   PO419224  19.145  30.359   9.601
 1292POPC   GL119225  18.988  30.187   9.219
 1292POPC   GL219226  19.008  29.810   9.117
 1292POPC   C1A19227  19.112  30.187   8.775
 1292POPC   D2A19228  19.024  29.868   8.470
 1292POPC   C3A19229  19.222  29.881   8.070
 1292POPC   C4A19230  19.121  30.212   7.778
 1292POPC   C1B19231  19.052  29.474   8.799
 1292POPC   C2B19232  19.043  29.359   8.364
 1292POPC   C3B19233  18.858  29.497   7.988
 1292POPC   C4B19234  18.944  29.744   7.639
 1293POPC   NC319235  23.157  24.403   9.704
 1293POPC   PO419236  22.620  24.724   9.522
 1293POPC   GL119237  22.847  24.615   9.177
 1293POPC   GL219238  23.171  24.703   9.261
 1293POPC   C1A19239  22.742  24.469   8.765
 1293POPC   D2A19240  22.710  24.722   8.402
 1293POPC   C3A19241  22.758  24.412   8.099
 1293POPC   C4A19242  22.898  24.240   7.734
 1293POPC   C1B19243  23.205  24.701   8.799
 1293POPC   C2B19244  23.187  24.466   8.407
 1293POPC   C3B19245  23.228  24.581   7.968
 1293POPC   C4B19246  23.278  24.470   7.536
 1294POPC   NC319247  32.019  29.263   9.526
 1294POPC   PO419248  32.573  28.892   9.501
 1294POPC   GL119249  32.398  29.191   9.165
 1294POPC   GL219250  32.117  29.419   9.038
 1294POPC   C1A19251  32.522  29.257   8.758
 1294POPC   D2A19252  32.405  29.061   8.390
 1294POPC   C3A19253  32.251  29.263   8.058
 1294POPC   C4A19254  32.292  29.215   7.637
 1294POPC   C1B19255  32.037  29.059   8.786
 1294POPC   C2B19256  31.905  28.972   8.359
 1294POPC   C3B19257  31.939  28.889   7.921
 1294POPC   C4B19258  31.917  28.929   7.470
 1295POPC   NC319259  20.700  22.509   9.393
 1295POPC   PO419260  20.524  21.878   9.588
 1295POPC   GL119261  20.440  22.057   9.167
 1295POPC   GL219262  20.124  21.897   9.047
 1295POPC   C1A19263  20.621  22.243   8.791
 1295POPC   D2A19264  20.777  22.548   8.504
 1295POPC   C3A19265  20.659  22.430   8.081
 1295POPC   C4A19266  20.403  22.448   7.702
 1295POPC   C1B19267  20.114  22.264   8.811
 1295POPC   C2B19268  20.263  22.358   8.416
 1295POPC   C3B19269  20.079  22.205   8.048
 1295POPC   C4B19270  20.138  21.922   7.714
 1296POPC   NC319271   8.606  29.415   9.529
 1296POPC   PO419272   8.456  30.020   9.483
 1296POPC   GL119273   8.195  29.920   9.120
 1296POPC   GL219274   8.162  29.594   9.150
 1296POPC   C1A19275   8.068  29.824   8.694
 1296POPC   D2A19276   7.918  30.013   8.330
 1296POPC   C3A19277   8.089  30.026   7.994
 1296POPC   C4A19278   8.136  29.729   7.718
 1296POPC   C1B19279   8.462  29.518   8.764
 1296POPC   C2B19280   8.389  29.522   8.347
 1296POPC   C3B19281   8.426  29.378   7.935
 1296POPC   C4B19282   8.606  29.560   7.567
 1297POPC   NC319283  36.871  23.538   9.567
 1297POPC   PO419284  37.289  22.962   9.536
 1297POPC   GL119285  37.132  23.360   9.174
 1297POPC   GL219286  36.767  23.616   9.091
 1297POPC   C1A19287  37.193  23.750   8.861
 1297POPC   D2A19288  37.038  24.023   8.489
 1297POPC   C3A19289  37.014  23.860   8.062
 1297POPC   C4A19290  36.805  23.999   7.678
 1297POPC   C1B19291  36.862  23.368   8.724
 1297POPC   C2B19292  36.781  23.211   8.325
 1297POPC   C3B19293  36.829  23.341   7.909
 1297POPC   C4B19294  36.426  23.287   7.687
 1298POPC   NC319295  22.368  41.149   9.544
 1298POPC   PO419296  21.979  40.500   9.672
 1298POPC   GL119297  22.154  40.698   9.309
 1298POPC   GL219298  22.016  40.450   9.144
 1298POPC   C1A19299  22.111  40.877   8.869
 1298POPC   D2A19300  22.336  40.911   8.483
 1298POPC   C3A19301  22.126  40.689   8.170
 1298POPC   C4A19302  22.042  40.906   7.813
 1298POPC   C1B19303  22.380  40.448   8.914
 1298POPC   C2B19304  22.416  40.389   8.485
 1298POPC   C3B19305  22.642  40.574   8.170
 1298POPC   C4B19306  22.451  40.594   7.777
 1299POPC   NC319307  13.307  26.285   9.657
 1299POPC   PO419308  13.722  25.698   9.668
 1299POPC   GL119309  13.728  26.042   9.399
 1299POPC   GL219310  13.398  25.956   9.284
 1299POPC   C1A19311  13.708  26.259   9.014
 1299POPC   D2A19312  13.627  26.130   8.620
 1299POPC   C3A19313  13.840  26.152   8.234
 1299POPC   C4A19314  13.578  26.087   7.818
 1299POPC   C1B19315  13.436  25.741   8.917
 1299POPC   C2B19316  13.340  25.738   8.485
 1299POPC   C3B19317  13.204  25.869   8.091
 1299POPC   C4B19318  13.333  25.634   7.729
 1300POPC   NC319319  35.202  24.341   9.577
 1300POPC   PO419320  35.276  24.927   9.431
 1300POPC   GL119321  35.071  24.646   9.156
 1300POPC   GL219322  35.333  24.419   9.065
 1300POPC   C1A19323  34.957  24.660   8.737
 1300POPC   D2A19324  35.156  24.327   8.535
 1300POPC   C3A19325  35.190  24.335   8.132
 1300POPC   C4A19326  35.219  24.623   7.826
 1300POPC   C1B19327  35.618  24.459   8.712
 1300POPC   C2B19328  35.695  24.273   8.309
 1300POPC   C3B19329  35.627  24.311   7.869
 1300POPC   C4B19330  35.268  24.139   7.659
 1301POPC   NC319331  25.469  17.494   9.416
 1301POPC   PO419332  24.848  17.870   9.320
 1301POPC   GL119333  25.085  17.568   9.031
 1301POPC   GL219334  24.858  17.251   8.970
 1301POPC   C1A19335  25.406  17.390   8.737
 1301POPC   D2A19336  25.637  17.117   8.429
 1301POPC   C3A19337  25.635  17.356   8.053
 1301POPC   C4A19338  25.361  17.604   7.848
 1301POPC   C1B19339  24.898  17.427   8.581
 1301POPC   C2B19340  25.169  17.336   8.243
 1301POPC   C3B19341  25.151  17.163   7.827
 1301POPC   C4B19342  24.934  17.266   7.411
 1302POPC   NC319343  39.789   2.335   9.419
 1302POPC   PO419344  39.412   2.822   9.477
 1302POPC   GL119345  39.785   2.792   9.133
 1302POPC   GL219346  40.112   2.655   9.187
 1302POPC   C1A19347  40.078   2.926   8.778
 1302POPC   D2A19348  40.204   3.188   8.466
 1302POPC   C3A19349  40.005   3.017   8.116
 1302POPC   C4A19350  40.177   3.027   7.703
 1302POPC   C1B19351  39.978   2.422   8.803
 1302POPC   C2B19352  39.784   2.561   8.425
 1302POPC   C3B19353  39.951   2.500   8.029
 1302POPC   C4B19354  39.869   2.639   7.655
 1303POPC   NC319355  41.566  38.368   9.563
 1303POPC   PO419356  41.217  38.965   9.463
 1303POPC   GL119357  41.449  38.639   9.143
 1303POPC   GL219358  41.385  38.234   9.130
 1303POPC   C1A19359  41.493  38.510   8.699
 1303POPC   D2A19360  41.501  38.706   8.298
 1303POPC   C3A19361  41.316  38.569   7.945
 1303POPC   C4A19362  41.520  38.357   7.611
 1303POPC   C1B19363  41.286  38.041   8.785
 1303POPC   C2B19364  41.193  38.218   8.380
 1303POPC   C3B19365  41.276  38.039   8.005
 1303POPC   C4B19366  41.398  37.855   7.643
 1304POPC   NC319367   2.885  40.275   9.697
 1304POPC   PO419368   2.321  40.007   9.419
 1304POPC   GL119369   2.653  40.037   9.088
 1304POPC   GL219370   2.991  40.148   9.198
 1304POPC   C1A19371   2.715  40.108   8.645
 1304POPC   D2A19372   3.062  40.121   8.355
 1304POPC   C3A19373   2.946  40.134   7.932
 1304POPC   C4A19374   2.541  40.042   7.777
 1304POPC   C1B19375   3.156  39.872   8.819
 1304POPC   C2B19376   3.242  39.643   8.393
 1304POPC   C3B19377   3.079  39.647   7.980
 1304POPC   C4B19378   3.331  39.769   7.641
 1305POPC   NC319379  27.971  36.025   9.527
 1305POPC   PO419380  27.350  36.278   9.469
 1305POPC   GL119381  27.655  36.252   9.179
 1305POPC   GL219382  27.894  36.526   9.236
 1305POPC   C1A19383  27.599  35.994   8.815
 1305POPC   D2A19384  27.352  35.970   8.459
 1305POPC   C3A19385  27.561  35.952   8.078
 1305POPC   C4A19386  27.968  35.945   7.878
 1305POPC   C1B19387  27.902  36.399   8.772
 1305POPC   C2B19388  27.939  36.208   8.339
 1305POPC   C3B19389  27.954  36.446   7.906
 1305POPC   C4B19390  27.800  36.646   7.494
 1306POPC   NC319391  14.854   4.951   9.431
 1306POPC   PO419392  15.379   4.575   9.597
 1306POPC   GL119393  15.413   4.965   9.293
 1306POPC   GL219394  15.163   4.982   9.048
 1306POPC   C1A19395  15.540   5.244   8.881
 1306POPC   D2A19396  15.405   5.506   8.494
 1306POPC   C3A19397  15.442   5.270   8.095
 1306POPC   C4A19398  15.372   4.829   7.972
 1306POPC   C1B19399  15.020   5.239   8.743
 1306POPC   C2B19400  15.096   5.033   8.387
 1306POPC   C3B19401  14.859   4.887   8.073
 1306POPC   C4B19402  14.939   5.179   7.784
 1307POPC   NC319403  23.694  34.334   9.598
 1307POPC   PO419404  23.755  34.999   9.773
 1307POPC   GL119405  23.702  34.708   9.293
 1307POPC   GL219406  23.966  34.722   9.032
 1307POPC   C1A19407  23.526  34.516   8.898
 1307POPC   D2A19408  23.663  34.446   8.454
 1307POPC   C3A19409  23.408  34.565   8.113
 1307POPC   C4A19410  23.597  34.750   7.775
 1307POPC   C1B19411  24.025  34.316   8.783
 1307POPC   C2B19412  24.156  34.266   8.355
 1307POPC   C3B19413  23.973  34.475   7.984
 1307POPC   C4B19414  23.969  34.392   7.530
 1308POPC   NC319415   6.390  39.890   9.314
 1308POPC   PO419416   5.910  40.252   9.737
 1308POPC   GL119417   5.736  40.314   9.263
 1308POPC   GL219418   5.787  39.982   9.115
 1308POPC   C1A19419   5.694  40.300   8.746
 1308POPC   D2A19420   5.757  40.007   8.390
 1308POPC   C3A19421   5.836  40.117   8.001
 1308POPC   C4A19422   5.903  40.483   7.828
 1308POPC   C1B19423   5.696  39.678   8.791
 1308POPC   C2B19424   5.554  39.534   8.387
 1308POPC   C3B19425   5.836  39.599   8.064
 1308POPC   C4B19426   5.782  39.621   7.678
 1309POPC   NC319427  11.577  16.961   9.404
 1309POPC   PO419428  12.269  16.730   9.493
 1309POPC   GL119429  12.088  16.576   9.141
 1309POPC   GL219430  11.753  16.537   9.203
 1309POPC   C1A19431  12.150  16.755   8.745
 1309POPC   D2A19432  12.455  16.821   8.408
 1309POPC   C3A19433  12.236  16.761   8.035
 1309POPC   C4A19434  12.225  16.984   7.661
 1309POPC   C1B19435  11.629  16.677   8.790
 1309POPC   C2B19436  11.760  16.649   8.361
 1309POPC   C3B19437  11.622  16.624   7.932
 1309POPC   C4B19438  11.759  16.855   7.564
 1310POPC   NC319439  16.801  36.411   9.526
 1310POPC   PO419440  16.171  36.198   9.683
 1310POPC   GL119441  16.377  36.232   9.246
 1310POPC   GL219442  16.716  36.051   9.168
 1310POPC   C1A19443  16.542  36.480   8.877
 1310POPC   D2A19444  16.451  36.526   8.444
 1310POPC   C3A19445  16.783  36.408   8.140
 1310POPC   C4A19446  16.813  36.339   7.700
 1310POPC   C1B19447  16.803  36.063   8.708
 1310POPC   C2B19448  16.968  35.942   8.301
 1310POPC   C3B19449  16.993  35.796   7.885
 1310POPC   C4B19450  16.776  35.828   7.526
 1311POPC   NC319451  32.562  44.065   9.537
 1311POPC   PO419452  32.059  43.723   9.831
 1311POPC   GL119453  32.183  43.666   9.358
 1311POPC   GL219454  32.190  43.982   9.209
 1311POPC   C1A19455  31.980  43.653   8.892
 1311POPC   D2A19456  32.184  43.702   8.473
 1311POPC   C3A19457  31.966  43.618   8.073
 1311POPC   C4A19458  32.158  43.625   7.670
 1311POPC   C1B19459  32.241  44.129   8.787
 1311POPC   C2B19460  32.036  44.192   8.379
 1311POPC   C3B19461  32.207  44.045   7.969
 1311POPC   C4B19462  32.370  44.059   7.506
 1312POPC   NC319463  44.854  15.004   9.535
 1312POPC   PO419464  44.283  14.960   9.376
 1312POPC   GL119465  44.643  15.061   9.078
 1312POPC   GL219466   0.021  15.021   9.058
 1312POPC   C1A19467  44.720  15.003   8.647
 1312POPC   D2A19468  44.758  15.190   8.292
 1312POPC   C3A19469  44.480  15.106   7.963
 1312POPC   C4A19470  44.451  15.462   7.704
 1312POPC   C1B19471   0.076  15.353   8.747
 1312POPC   C2B19472   0.238  15.359   8.324
 1312POPC   C3B19473   0.031  15.434   7.921
 1312POPC   C4B19474  44.864  15.187   7.576
 1313POPC   NC319475  42.227  10.020   9.534
 1313POPC   PO419476  42.522   9.348   9.616
 1313POPC   GL119477  42.423   9.572   9.233
 1313POPC   GL219478  42.520   9.879   9.139
 1313POPC   C1A19479  42.339   9.522   8.778
 1313POPC   D2A19480  42.245   9.355   8.360
 1313POPC   C3A19481  42.261   9.704   8.128
 1313POPC   C4A19482  42.274   9.787   7.721
 1313POPC   C1B19483  42.053   9.917   8.907
 1313POPC   C2B19484  41.804   9.916   8.487
 1313POPC   C3B19485  41.885  10.038   8.038
 1313POPC   C4B19486  41.773   9.826   7.632
 1314POPC   NC319487  33.905   9.329   9.460
 1314POPC   PO419488  33.566   9.870   9.771
 1314POPC   GL119489  33.607   9.979   9.322
 1314POPC   GL219490  33.372   9.760   9.163
 1314POPC   C1A19491  33.617  10.153   8.907
 1314POPC   D2A19492  33.938  10.094   8.577
 1314POPC   C3A19493  33.792  10.152   8.153
 1314POPC   C4A19494  33.844   9.988   7.742
 1314POPC   C1B19495  33.534   9.628   8.776
 1314POPC   C2B19496  33.889   9.587   8.483
 1314POPC   C3B19497  34.090   9.683   8.082
 1314POPC   C4B19498  34.069   9.550   7.646
 1315POPC   NC319499  33.120  11.709   9.557
 1315POPC   PO419500  32.803  12.282   9.436
 1315POPC   GL119501  32.979  12.026   9.173
 1315POPC   GL219502  32.755  11.728   9.202
 1315POPC   C1A19503  32.992  12.076   8.739
 1315POPC   D2A19504  33.194  12.074   8.326
 1315POPC   C3A19505  32.969  12.167   7.968
 1315POPC   C4A19506  33.145  12.504   7.718
 1315POPC   C1B19507  33.114  11.602   8.925
 1315POPC   C2B19508  33.168  11.605   8.516
 1315POPC   C3B19509  33.017  11.608   8.126
 1315POPC   C4B19510  33.222  11.697   7.772
 1316POPC   NC319511  24.370  14.795   9.494
 1316POPC   PO419512  24.827  15.238   9.525
 1316POPC   GL119513  24.633  15.162   9.146
 1316POPC   GL219514  24.741  14.820   9.121
 1316POPC   C1A19515  24.565  15.341   8.726
 1316POPC   D2A19516  24.342  15.234   8.341
 1316POPC   C3A19517  24.566  15.368   7.973
 1316POPC   C4A19518  24.548  15.339   7.516
 1316POPC   C1B19519  24.418  14.833   8.793
 1316POPC   C2B19520  24.338  14.708   8.369
 1316POPC   C3B19521  24.570  14.821   8.029
 1316POPC   C4B19522  24.357  14.939   7.723
 1317POPC   NC319523  35.808   2.621   9.566
 1317POPC   PO419524  36.321   3.060   9.442
 1317POPC   GL119525  36.263   2.648   9.165
 1317POPC   GL219526  35.922   2.611   9.066
 1317POPC   C1A19527  36.269   2.494   8.680
 1317POPC   D2A19528  36.079   2.351   8.250
 1317POPC   C3A19529  36.155   2.674   7.946
 1317POPC   C4A19530  36.397   3.096   7.979
 1317POPC   C1B19531  36.040   2.966   8.781
 1317POPC   C2B19532  35.934   3.202   8.396
 1317POPC   C3B19533  35.894   3.120   7.975
 1317POPC   C4B19534  35.709   2.806   7.734
 1318POPC   NC319535  28.214   1.414   9.483
 1318POPC   PO419536  28.460   2.132   9.528
 1318POPC   GL119537  28.233   1.905   9.208
 1318POPC   GL219538  28.504   1.971   9.022
 1318POPC   C1A19539  28.087   2.013   8.767
 1318POPC   D2A19540  28.259   1.943   8.343
 1318POPC   C3A19541  28.074   2.033   7.911
 1318POPC   C4A19542  28.036   2.131   7.465
 1318POPC   C1B19543  28.664   1.714   8.684
 1318POPC   C2B19544  28.778   1.786   8.285
 1318POPC   C3B19545  28.565   1.939   7.933
 1318POPC   C4B19546  28.526   2.214   7.620
 1319POPC   NC319547  11.408  38.748   9.816
 1319POPC   PO419548  10.875  38.422   9.624
 1319POPC   GL119549  11.185  38.447   9.255
 1319POPC   GL219550  11.384  38.768   9.237
 1319POPC   C1A19551  11.150  38.613   8.803
 1319POPC   D2A19552  11.012  38.722   8.392
 1319POPC   C3A19553  11.078  38.330   8.144
 1319POPC   C4A19554  11.142  38.076   7.744
 1319POPC   C1B19555  11.644  38.762   8.819
 1319POPC   C2B19556  11.532  38.517   8.407
 1319POPC   C3B19557  11.499  38.505   7.922
 1319POPC   C4B19558  11.519  38.590   7.478
 1320POPC   NC319559   3.532  40.433   9.579
 1320POPC   PO419560   3.755  41.043   9.423
 1320POPC   GL119561   3.524  40.840   9.107
 1320POPC   GL219562   3.350  40.531   9.129
 1320POPC   C1A19563   3.460  40.750   8.693
 1320POPC   D2A19564   3.468  40.442   8.393
 1320POPC   C3A19565   3.577  40.562   8.028
 1320POPC   C4A19566   3.480  40.937   7.863
 1320POPC   C1B19567   3.096  40.414   8.787
 1320POPC   C2B19568   3.000  40.636   8.436
 1320POPC   C3B19569   2.996  40.764   8.052
 1320POPC   C4B19570   3.159  40.544   7.721
 1321POPC   NC319571  25.665  16.513   9.422
 1321POPC   PO419572  26.040  16.880   9.771
 1321POPC   GL119573  25.907  16.938   9.287
 1321POPC   GL219574  26.227  16.930   9.228
 1321POPC   C1A19575  25.750  16.764   8.807
 1321POPC   D2A19576  25.912  16.364   8.542
 1321POPC   C3A19577  26.154  16.414   8.125
 1321POPC   C4A19578  26.034  16.650   7.735
 1321POPC   C1B19579  26.168  17.058   8.813
 1321POPC   C2B19580  26.138  16.871   8.409
 1321POPC   C3B19581  26.058  17.076   8.032
 1321POPC   C4B19582  25.877  17.180   7.642
 1322POPC   NC319583   2.208  32.202   9.660
 1322POPC   PO419584   1.942  32.684   9.508
 1322POPC   GL119585   2.259  32.509   9.226
 1322POPC   GL219586   2.300  32.148   9.169
 1322POPC   C1A19587   2.303  32.591   8.798
 1322POPC   D2A19588   2.205  32.662   8.363
 1322POPC   C3A19589   2.184  32.453   7.976
 1322POPC   C4A19590   1.769  32.437   7.765
 1322POPC   C1B19591   2.119  32.063   8.767
 1322POPC   C2B19592   2.010  32.118   8.327
 1322POPC   C3B19593   2.029  31.970   7.899
 1322POPC   C4B19594   1.785  31.956   7.528
 1323POPC   NC319595   7.366  18.491   9.624
 1323POPC   PO419596   7.967  18.696   9.414
 1323POPC   GL119597   7.639  18.506   9.145
 1323POPC   GL219598   7.436  18.684   8.900
 1323POPC   C1A19599   7.456  18.150   8.884
 1323POPC   D2A19600   7.303  18.120   8.430
 1323POPC   C3A19601   7.540  18.075   8.035
 1323POPC   C4A19602   7.465  18.129   7.568
 1323POPC   C1B19603   7.708  18.485   8.592
 1323POPC   C2B19604   7.812  18.594   8.183
 1323POPC   C3B19605   7.584  18.568   7.819
 1323POPC   C4B19606   7.635  18.543   7.353
 1324POPC   NC319607  28.237   6.146   9.786
 1324POPC   PO419608  28.642   6.698   9.684
 1324POPC   GL119609  28.348   6.657   9.308
 1324POPC   GL219610  28.532   6.909   9.129
 1324POPC   C1A19611  28.097   6.649   8.879
 1324POPC   D2A19612  27.995   6.798   8.447
 1324POPC   C3A19613  28.176   6.671   8.027
 1324POPC   C4A19614  28.015   6.734   7.601
 1324POPC   C1B19615  28.601   6.588   8.826
 1324POPC   C2B19616  28.578   6.605   8.389
 1324POPC   C3B19617  28.529   6.281   8.061
 1324POPC   C4B19618  28.597   6.337   7.653
 1325POPC   NC319619  26.883   5.402   9.488
 1325POPC   PO419620  26.751   4.701   9.475
 1325POPC   GL119621  26.916   4.868   9.122
 1325POPC   GL219622  26.713   5.126   9.108
 1325POPC   C1A19623  26.918   5.054   8.662
 1325POPC   D2A19624  27.103   5.219   8.289
 1325POPC   C3A19625  27.070   5.114   7.852
 1325POPC   C4A19626  26.851   4.739   7.749
 1325POPC   C1B19627  26.435   5.206   8.779
 1325POPC   C2B19628  26.384   5.048   8.400
 1325POPC   C3B19629  26.632   5.119   8.076
 1325POPC   C4B19630  26.586   5.188   7.635
 1326POPC   NC319631   4.059  30.702   9.834
 1326POPC   PO419632   3.968  30.154   9.456
 1326POPC   GL119633   3.983  30.526   9.231
 1326POPC   GL219634   4.335  30.590   9.146
 1326POPC   C1A19635   3.964  30.759   8.845
 1326POPC   D2A19636   4.057  30.926   8.414
 1326POPC   C3A19637   3.960  30.733   8.008
 1326POPC   C4A19638   4.039  30.720   7.498
 1326POPC   C1B19639   4.444  30.755   8.706
 1326POPC   C2B19640   4.378  30.542   8.295
 1326POPC   C3B19641   4.593  30.346   7.981
 1326POPC   C4B19642   4.698  30.710   7.763
 1327POPC   NC319643  37.231  31.117   9.589
 1327POPC   PO419644  36.711  30.657   9.513
 1327POPC   GL119645  36.878  30.544   9.138
 1327POPC   GL219646  37.161  30.737   9.197
 1327POPC   C1A19647  36.926  30.679   8.719
 1327POPC   D2A19648  37.027  30.506   8.333
 1327POPC   C3A19649  36.836  30.602   7.968
 1327POPC   C4A19650  37.078  30.608   7.581
 1327POPC   C1B19651  37.296  31.016   8.851
 1327POPC   C2B19652  37.390  30.885   8.419
 1327POPC   C3B19653  37.275  30.851   7.983
 1327POPC   C4B19654  36.916  31.076   7.754
 1328POPC   NC319655  35.259  12.992   9.546
 1328POPC   PO419656  35.764  12.605   9.561
 1328POPC   GL119657  35.821  12.794   9.141
 1328POPC   GL219658  35.552  13.036   9.099
 1328POPC   C1A19659  35.618  12.688   8.729
 1328POPC   D2A19660  35.318  12.820   8.432
 1328POPC   C3A19661  35.520  13.006   8.082
 1328POPC   C4A19662  35.756  12.754   7.837
 1328POPC   C1B19663  35.151  13.085   8.855
 1328POPC   C2B19664  35.037  13.236   8.411
 1328POPC   C3B19665  35.028  13.027   7.978
 1328POPC   C4B19666  35.338  13.173   7.621
 1329POPC   NC319667  21.076   8.255   9.740
 1329POPC   PO419668  21.552   7.982   9.437
 1329POPC   GL119669  21.394   8.143   9.082
 1329POPC   GL219670  21.398   8.447   9.174
 1329POPC   C1A19671  21.339   8.027   8.663
 1329POPC   D2A19672  21.580   7.900   8.334
 1329POPC   C3A19673  21.396   8.014   7.992
 1329POPC   C4A19674  21.305   8.310   7.765
 1329POPC   C1B19675  21.547   8.481   8.721
 1329POPC   C2B19676  21.425   8.447   8.298
 1329POPC   C3B19677  21.533   8.719   7.961
 1329POPC   C4B19678  21.706   8.588   7.593
 1330POPC   NC319679  30.923  18.624   9.484
 1330POPC   PO419680  30.569  18.099   9.461
 1330POPC   GL119681  30.521  18.364   9.110
 1330POPC   GL219682  30.835  18.503   8.991
 1330POPC   C1A19683  30.461  18.372   8.671
 1330POPC   D2A19684  30.298  18.475   8.311
 1330POPC   C3A19685  30.583  18.381   8.015
 1330POPC   C4A19686  30.613  18.548   7.608
 1330POPC   C1B19687  30.923  18.150   8.716
 1330POPC   C2B19688  31.040  18.193   8.257
 1330POPC   C3B19689  31.084  18.430   7.854
 1330POPC   C4B19690  31.061  18.347   7.408
 1331POPC   NC319691  14.873   9.138   9.447
 1331POPC   PO419692  15.380   8.572   9.450
 1331POPC   GL119693  15.083   8.716   9.146
 1331POPC   GL219694  15.227   9.031   9.050
 1331POPC   C1A19695  14.976   8.778   8.696
 1331POPC   D2A19696  15.343   9.022   8.530
 1331POPC   C3A19697  15.449   8.984   8.093
 1331POPC   C4A19698  15.310   8.843   7.689
 1331POPC   C1B19699  14.908   9.269   8.793
 1331POPC   C2B19700  15.020   9.377   8.375
 1331POPC   C3B19701  15.008   9.196   7.995
 1331POPC   C4B19702  14.950   9.215   7.596
 1332POPC   NC319703  12.367  36.369   9.375
 1332POPC   PO419704  12.317  36.971   9.526
 1332POPC   GL119705  12.080  36.886   9.175
 1332POPC   GL219706  12.399  36.779   9.062
 1332POPC   C1A19707  11.916  36.940   8.766
 1332POPC   D2A19708  12.039  36.927   8.314
 1332POPC   C3A19709  11.801  36.618   7.996
 1332POPC   C4A19710  11.620  36.792   7.579
 1332POPC   C1B19711  12.442  36.993   8.691
 1332POPC   C2B19712  12.537  36.810   8.303
 1332POPC   C3B19713  12.317  36.791   7.902
 1332POPC   C4B19714  12.015  37.037   7.808
 1333POPC   NC319715  42.112  42.455   9.549
 1333POPC   PO419716  42.736  42.410   9.435
 1333POPC   GL119717  42.405  42.479   9.111
 1333POPC   GL219718  42.230  42.164   8.968
 1333POPC   C1A19719  42.168  42.604   8.731
 1333POPC   D2A19720  42.033  42.386   8.362
 1333POPC   C3A19721  42.395  42.294   8.193
 1333POPC   C4A19722  42.375  42.348   7.785
 1333POPC   C1B19723  42.002  41.833   8.744
 1333POPC   C2B19724  41.827  41.874   8.350
 1333POPC   C3B19725  42.058  41.997   7.990
 1333POPC   C4B19726  42.222  41.920   7.585
 1334POPC   NC319727  42.029  37.485   9.491
 1334POPC   PO419728  42.596  37.843   9.398
 1334POPC   GL119729  42.241  37.809   9.131
 1334POPC   GL219730  42.317  37.475   9.069
 1334POPC   C1A19731  42.146  37.781   8.694
 1334POPC   D2A19732  42.146  38.013   8.315
 1334POPC   C3A19733  42.360  37.910   7.991
 1334POPC   C4A19734  42.285  37.760   7.609
 1334POPC   C1B19735  42.641  37.688   8.781
 1334POPC   C2B19736  42.660  37.950   8.450
 1334POPC   C3B19737  42.835  37.772   8.098
 1334POPC   C4B19738  42.677  37.497   7.812
 1335POPC   NC319739  38.650  41.015   9.341
 1335POPC   PO419740  38.287  40.490   9.635
 1335POPC   GL119741  38.477  40.527   9.245
 1335POPC   GL219742  38.292  40.763   9.021
 1335POPC   C1A19743  38.696  40.473   8.862
 1335POPC   D2A19744  38.426  40.537   8.517
 1335POPC   C3A19745  38.565  40.833   8.183
 1335POPC   C4A19746  38.554  40.728   7.748
 1335POPC   C1B19747  38.207  40.999   8.616
 1335POPC   C2B19748  38.148  41.114   8.166
 1335POPC   C3B19749  38.336  41.222   7.759
 1335POPC   C4B19750  38.332  40.994   7.363
 1336POPC   NC319751  22.361  20.824   9.749
 1336POPC   PO419752  22.177  21.456   9.583
 1336POPC   GL119753  22.138  21.553   9.148
 1336POPC   GL219754  22.429  21.384   9.111
 1336POPC   C1A19755  22.133  21.519   8.691
 1336POPC   D2A19756  21.970  21.312   8.351
 1336POPC   C3A19757  22.051  21.525   8.014
 1336POPC   C4A19758  22.272  21.548   7.665
 1336POPC   C1B19759  22.591  21.300   8.729
 1336POPC   C2B19760  22.459  21.339   8.322
 1336POPC   C3B19761  22.555  21.248   7.949
 1336POPC   C4B19762  22.558  21.050   7.577
 1337POPC   NC319763  18.611  17.414   9.452
 1337POPC   PO419764  18.009  17.115   9.566
 1337POPC   GL119765  18.109  17.342   9.226
 1337POPC   GL219766  18.334  17.108   9.144
 1337POPC   C1A19767  18.277  17.560   8.848
 1337POPC   D2A19768  18.459  17.660   8.455
 1337POPC   C3A19769  18.311  17.607   8.063
 1337POPC   C4A19770  18.530  17.518   7.709
 1337POPC   C1B19771  18.044  17.059   8.807
 1337POPC   C2B19772  18.118  17.249   8.423
 1337POPC   C3B19773  18.129  17.111   8.023
 1337POPC   C4B19774  17.883  17.082   7.729
 1338POPC   NC319775   0.614  15.642   9.410
 1338POPC   PO419776   0.215  16.104   9.629
 1338POPC   GL119777   0.435  16.058   9.176
 1338POPC   GL219778   0.713  15.970   9.014
 1338POPC   C1A19779   0.376  15.779   8.721
 1338POPC   D2A19780   0.391  15.828   8.263
 1338POPC   C3A19781   0.491  16.218   8.061
 1338POPC   C4A19782   0.242  16.317   7.707
 1338POPC   C1B19783   0.684  16.192   8.645
 1338POPC   C2B19784   0.872  15.969   8.338
 1338POPC   C3B19785   0.789  15.830   7.931
 1338POPC   C4B19786   0.729  16.119   7.606
 1339POPC   NC319787  29.683   6.516   9.456
 1339POPC   PO419788  30.191   6.967   9.601
 1339POPC   GL119789  30.081   6.694   9.209
 1339POPC   GL219790  29.749   6.829   9.066
 1339POPC   C1A19791  29.964   6.413   8.834
 1339POPC   D2A19792  29.841   6.360   8.370
 1339POPC   C3A19793  30.120   6.374   8.023
 1339POPC   C4A19794  30.267   6.699   7.766
 1339POPC   C1B19795  29.655   6.776   8.632
 1339POPC   C2B19796  29.665   6.957   8.257
 1339POPC   C3B19797  29.817   6.877   7.878
 1339POPC   C4B19798  29.847   6.489   7.584
 1340POPC   NC319799  12.278  26.445   9.375
 1340POPC   PO419800  12.055  25.897   9.580
 1340POPC   GL119801  12.046  26.066   9.132
 1340POPC   GL219802  11.773  26.300   8.989
 1340POPC   C1A19803  12.018  25.950   8.707
 1340POPC   D2A19804  11.993  26.162   8.327
 1340POPC   C3A19805  12.129  25.924   7.998
 1340POPC   C4A19806  12.074  25.732   7.621
 1340POPC   C1B19807  12.137  26.437   8.745
 1340POPC   C2B19808  12.439  26.436   8.376
 1340POPC   C3B19809  12.232  26.416   7.941
 1340POPC   C4B19810  12.106  26.237   7.547
 1341POPC   NC319811  26.534   9.631   9.875
 1341POPC   PO419812  25.888   9.698   9.606
 1341POPC   GL119813  25.961   9.692   9.200
 1341POPC   GL219814  25.632   9.541   9.161
 1341POPC   C1A19815  26.225   9.549   8.806
 1341POPC   D2A19816  26.492   9.548   8.420
 1341POPC   C3A19817  26.302   9.648   8.025
 1341POPC   C4A19818  26.431   9.657   7.603
 1341POPC   C1B19819  25.740   9.724   8.758
 1341POPC   C2B19820  25.925   9.694   8.371
 1341POPC   C3B19821  25.819   9.863   7.968
 1341POPC   C4B19822  25.933   9.937   7.547
 1342POPC   NC319823  31.708  43.773   9.517
 1342POPC   PO419824  31.183  44.181   9.684
 1342POPC   GL119825  31.222  44.003   9.249
 1342POPC   GL219826  31.251  43.623   9.258
 1342POPC   C1A19827  31.413  43.997   8.809
 1342POPC   D2A19828  31.683  43.821   8.458
 1342POPC   C3A19829  31.643  44.020   8.011
 1342POPC   C4A19830  31.244  44.248   7.932
 1342POPC   C1B19831  31.474  43.504   8.900
 1342POPC   C2B19832  31.407  43.386   8.502
 1342POPC   C3B19833  31.386  43.567   8.110
 1342POPC   C4B19834  31.162  43.675   7.795
 1343POPC   NC319835  20.744   7.096   9.514
 1343POPC   PO419836  20.652   7.665   9.136
 1343POPC   GL119837  20.801   7.288   9.055
 1343POPC   GL219838  20.449   7.140   9.107
 1343POPC   C1A19839  20.906   7.280   8.660
 1343POPC   D2A19840  20.692   7.669   8.535
 1343POPC   C3A19841  20.678   7.697   8.084
 1343POPC   C4A19842  20.765   7.327   7.827
 1343POPC   C1B19843  20.385   7.254   8.689
 1343POPC   C2B19844  20.542   7.192   8.304
 1343POPC   C3B19845  20.291   7.334   8.034
 1343POPC   C4B19846  20.332   7.619   7.696
 1344POPC   NC319847  26.386  40.709   9.563
 1344POPC   PO419848  25.916  41.130   9.303
 1344POPC   GL119849  26.242  40.894   9.095
 1344POPC   GL219850  26.295  40.511   9.107
 1344POPC   C1A19851  26.304  41.045   8.690
 1344POPC   D2A19852  26.025  41.069   8.363
 1344POPC   C3A19853  26.157  40.962   7.966
 1344POPC   C4A19854  25.838  41.071   7.706
 1344POPC   C1B19855  26.115  40.514   8.721
 1344POPC   C2B19856  26.244  40.606   8.320
 1344POPC   C3B19857  26.034  40.444   7.982
 1344POPC   C4B19858  25.859  40.510   7.622
 1345POPC   NC319859  19.088  40.436   9.455
 1345POPC   PO419860  19.340  40.910   9.815
 1345POPC   GL119861  19.172  40.924   9.304
 1345POPC   GL219862  19.428  40.932   9.041
 1345POPC   C1A19863  18.998  40.781   8.827
 1345POPC   D2A19864  18.976  40.920   8.359
 1345POPC   C3A19865  18.985  40.625   7.970
 1345POPC   C4A19866  18.984  40.603   7.477
 1345POPC   C1B19867  19.667  41.090   8.754
 1345POPC   C2B19868  19.448  41.112   8.403
 1345POPC   C3B19869  19.353  40.977   8.009
 1345POPC   C4B19870  19.440  41.135   7.631
 1346POPC   NC319871  13.145   5.152   9.666
 1346POPC   PO419872  12.659   4.893   9.724
 1346POPC   GL119873  12.772   5.076   9.284
 1346POPC   GL219874  12.630   5.405   9.222
 1346POPC   C1A19875  12.841   5.182   8.801
 1346POPC   D2A19876  13.103   5.049   8.407
 1346POPC   C3A19877  12.917   4.992   7.986
 1346POPC   C4A19878  13.090   5.105   7.607
 1346POPC   C1B19879  12.342   5.410   8.900
 1346POPC   C2B19880  12.366   5.477   8.444
 1346POPC   C3B19881  12.559   5.335   8.075
 1346POPC   C4B19882  12.528   5.115   7.662
 1347POPC   NC319883  43.728  38.050   9.693
 1347POPC   PO419884  44.164  37.466   9.614
 1347POPC   GL119885  44.049  37.530   9.211
 1347POPC   GL219886  43.757  37.739   9.230
 1347POPC   C1A19887  44.007  37.413   8.787
 1347POPC   D2A19888  43.975  37.244   8.337
 1347POPC   C3A19889  44.248  37.481   8.049
 1347POPC   C4A19890  44.137  37.920   7.855
 1347POPC   C1B19891  43.586  37.707   8.802
 1347POPC   C2B19892  43.830  37.717   8.418
 1347POPC   C3B19893  43.759  37.603   7.992
 1347POPC   C4B19894  43.593  37.864   7.667
 1348POPC   NC319895  17.769   2.325   9.741
 1348POPC   PO419896  18.338   2.074   9.508
 1348POPC   GL119897  18.189   2.084   9.130
 1348POPC   GL219898  17.938   2.366   9.193
 1348POPC   C1A19899  18.287   1.822   8.778
 1348POPC   D2A19900  18.562   1.803   8.423
 1348POPC   C3A19901  18.384   1.832   8.006
 1348POPC   C4A19902  18.610   2.110   7.792
 1348POPC   C1B19903  18.158   2.433   8.771
 1348POPC   C2B19904  18.142   2.159   8.424
 1348POPC   C3B19905  17.922   2.005   8.087
 1348POPC   C4B19906  17.905   2.079   7.664
 1349POPC   NC319907   8.611  12.619   9.837
 1349POPC   PO419908   8.072  12.817   9.458
 1349POPC   GL119909   8.172  12.993   9.082
 1349POPC   GL219910   8.503  13.169   9.077
 1349POPC   C1A19911   8.085  12.786   8.731
 1349POPC   D2A19912   7.923  12.931   8.379
 1349POPC   C3A19913   7.981  12.740   7.980
 1349POPC   C4A19914   7.663  12.685   7.689
 1349POPC   C1B19915   8.514  13.247   8.690
 1349POPC   C2B19916   8.439  12.973   8.395
 1349POPC   C3B19917   8.432  13.046   8.001
 1349POPC   C4B19918   8.416  12.759   7.671
 1350POPC   NC319919   5.785  25.257   9.498
 1350POPC   PO419920   6.418  25.256   9.568
 1350POPC   GL119921   6.159  25.387   9.180
 1350POPC   GL219922   6.052  25.091   9.044
 1350POPC   C1A19923   6.053  25.402   8.676
 1350POPC   D2A19924   6.001  25.011   8.413
 1350POPC   C3A19925   6.027  25.130   7.976
 1350POPC   C4A19926   5.825  25.438   7.696
 1350POPC   C1B19927   5.644  25.062   8.825
 1350POPC   C2B19928   5.465  25.009   8.422
 1350POPC   C3B19929   5.501  25.107   7.986
 1350POPC   C4B19930   5.690  24.948   7.614
 1351POPC   NC319931  16.079   0.675   9.605
 1351POPC   PO419932  15.905   1.314   9.450
 1351POPC   GL119933  15.951   0.935   9.176
 1351POPC   GL219934  16.266   0.778   9.160
 1351POPC   C1A19935  15.796   1.040   8.788
 1351POPC   D2A19936  15.969   1.288   8.471
 1351POPC   C3A19937  15.845   1.101   8.085
 1351POPC   C4A19938  15.815   1.335   7.725
 1351POPC   C1B19939  16.309   1.059   8.816
 1351POPC   C2B19940  16.462   1.138   8.407
 1351POPC   C3B19941  16.293   1.341   8.057
 1351POPC   C4B19942  16.266   1.146   7.663
 1352POPC   NC319943   1.394   7.798   9.554
 1352POPC   PO419944   0.921   8.270   9.507
 1352POPC   GL119945   1.141   8.319   9.124
 1352POPC   GL219946   1.235   7.981   9.034
 1352POPC   C1A19947   1.373   8.354   8.737
 1352POPC   D2A19948   1.413   8.113   8.376
 1352POPC   C3A19949   1.412   8.324   8.044
 1352POPC   C4A19950   1.114   8.418   7.771
 1352POPC   C1B19951   1.599   7.875   8.772
 1352POPC   C2B19952   1.644   7.646   8.398
 1352POPC   C3B19953   1.614   7.827   7.978
 1352POPC   C4B19954   1.566   8.088   7.615
 1353POPC   NC319955  40.405   4.436   9.671
 1353POPC   PO419956  39.752   4.566   9.524
 1353POPC   GL119957  40.063   4.409   9.251
 1353POPC   GL219958  40.072   4.041   9.198
 1353POPC   C1A19959  40.205   4.392   8.823
 1353POPC   D2A19960  40.018   4.481   8.463
 1353POPC   C3A19961  40.186   4.360   8.109
 1353POPC   C4A19962  40.138   4.477   7.751
 1353POPC   C1B19963  39.771   4.097   8.831
 1353POPC   C2B19964  39.598   4.176   8.397
 1353POPC   C3B19965  39.743   4.078   7.974
 1353POPC   C4B19966  39.776   4.182   7.540
 1354POPC   NC319967   6.149  14.940   9.565
 1354POPC   PO419968   5.989  15.447   9.194
 1354POPC   GL119969   5.697  15.167   9.028
 1354POPC   GL219970   5.770  14.862   9.220
 1354POPC   C1A19971   5.712  15.240   8.576
 1354POPC   D2A19972   5.456  15.272   8.204
 1354POPC   C3A19973   5.744  15.354   7.855
 1354POPC   C4A19974   5.740  15.622   7.510
 1354POPC   C1B19975   6.023  14.879   8.791
 1354POPC   C2B19976   6.094  14.950   8.327
 1354POPC   C3B19977   6.043  14.923   7.855
 1354POPC   C4B19978   5.961  14.779   7.427
 1355POPC   NC319979  13.817  19.352   9.393
 1355POPC   PO419980  13.526  19.817   9.717
 1355POPC   GL119981  13.529  19.786   9.262
 1355POPC   GL219982  13.378  19.474   9.084
 1355POPC   C1A19983  13.389  19.923   8.860
 1355POPC   D2A19984  13.300  19.721   8.472
 1355POPC   C3A19985  13.578  19.861   8.146
 1355POPC   C4A19986  13.515  20.143   7.805
 1355POPC   C1B19987  13.737  19.543   8.763
 1355POPC   C2B19988  13.896  19.378   8.352
 1355POPC   C3B19989  13.829  19.470   7.934
 1355POPC   C4B19990  13.385  19.594   7.763
 1356POPC   NC319991   7.857  43.373   9.752
 1356POPC   PO419992   8.480  43.336   9.607
 1356POPC   GL119993   8.124  43.345   9.279
 1356POPC   GL219994   8.007  43.033   9.062
 1356POPC   C1A19995   8.249  43.488   8.862
 1356POPC   D2A19996   8.476  43.465   8.456
 1356POPC   C3A19997   8.187  43.289   8.159
 1356POPC   C4A19998   8.075  43.367   7.741
 1356POPC   C1B19999   8.319  42.989   8.708
 1356POPC   C2B20000   8.505  42.851   8.316
 1356POPC   C3B20001   8.419  42.915   7.890
 1356POPC   C4B20002   8.016  42.754   7.756
 1357POPC   NC320003  43.561   0.937   9.304
 1357POPC   PO420004  43.183   1.446   9.323
 1357POPC   GL120005  43.221   1.244   8.970
 1357POPC   GL220006  43.090   0.902   9.015
 1357POPC   C1A20007  43.131   1.469   8.603
 1357POPC   D2A20008  42.982   1.317   8.214
 1357POPC   C3A20009  43.248   1.344   7.866
 1357POPC   C4A20010  43.326   1.255   7.435
 1357POPC   C1B20011  42.822   1.058   8.662
 1357POPC   C2B20012  42.565   0.964   8.286
 1357POPC   C3B20013  42.711   1.030   7.855
 1357POPC   C4B20014  42.954   0.924   7.496
 1358POPC   NC320015  16.040  20.055   9.773
 1358POPC   PO420016  15.661  19.647   9.342
 1358POPC   GL120017  16.053  19.757   9.208
 1358POPC   GL220018  15.991  20.102   9.276
 1358POPC   C1A20019  16.141  19.640   8.774
 1358POPC   D2A20020  15.915  19.639   8.343
 1358POPC   C3A20021  16.141  19.687   7.974
 1358POPC   C4A20022  16.041  19.711   7.553
 1358POPC   C1B20023  15.910  20.155   8.856
 1358POPC   C2B20024  15.808  20.192   8.436
 1358POPC   C3B20025  15.800  20.339   8.037
 1358POPC   C4B20026  15.970  20.209   7.650
 1359POPC   NC320027  13.530  37.151   9.587
 1359POPC   PO420028  13.778  36.487   9.547
 1359POPC   GL120029  13.551  36.685   9.185
 1359POPC   GL220030  13.695  36.996   9.141
 1359POPC   C1A20031  13.363  36.737   8.747
 1359POPC   D2A20032  13.410  36.949   8.305
 1359POPC   C3A20033  13.702  36.806   7.958
 1359POPC   C4A20034  14.105  36.769   7.713
 1359POPC   C1B20035  13.466  37.231   8.825
 1359POPC   C2B20036  13.333  37.428   8.473
 1359POPC   C3B20037  13.575  37.431   8.116
 1359POPC   C4B20038  13.393  37.286   7.786
 1360POPC   NC320039  14.509  10.065   9.532
 1360POPC   PO420040  14.298  10.724   9.539
 1360POPC   GL120041  14.390  10.556   9.154
 1360POPC   GL220042  14.218  10.270   9.165
 1360POPC   C1A20043  14.547  10.567   8.740
 1360POPC   D2A20044  14.606  10.765   8.357
 1360POPC   C3A20045  14.558  10.756   7.940
 1360POPC   C4A20046  14.241  10.634   7.714
 1360POPC   C1B20047  14.562  10.088   8.894
 1360POPC   C2B20048  14.523  10.030   8.471
 1360POPC   C3B20049  14.486  10.273   8.110
 1360POPC   C4B20050  14.409  10.164   7.702
 1361POPC   NC320051  31.730  12.333   9.556
 1361POPC   PO420052  31.379  11.876   9.833
 1361POPC   GL120053  31.508  11.925   9.323
 1361POPC   GL220054  31.725  11.717   9.150
 1361POPC   C1A20055  31.529  12.131   8.907
 1361POPC   D2A20056  31.555  12.229   8.452
 1361POPC   C3A20057  31.446  11.973   8.112
 1361POPC   C4A20058  31.373  12.172   7.699
 1361POPC   C1B20059  31.933  11.787   8.798
 1361POPC   C2B20060  31.880  11.869   8.391
 1361POPC   C3B20061  31.951  11.685   8.040
 1361POPC   C4B20062  31.700  11.764   7.730
 1362POPC   NC320063  11.312  31.099   9.517
 1362POPC   PO420064  11.249  31.782   9.608
 1362POPC   GL120065  11.423  31.668   9.188
 1362POPC   GL220066  11.287  31.352   9.078
 1362POPC   C1A20067  11.461  31.663   8.708
 1362POPC   D2A20068  11.156  31.684   8.323
 1362POPC   C3A20069  11.276  31.499   7.909
 1362POPC   C4A20070  11.516  31.713   7.582
 1362POPC   C1B20071  11.260  31.030   8.763
 1362POPC   C2B20072  11.439  30.963   8.356
 1362POPC   C3B20073  11.264  30.988   7.967
 1362POPC   C4B20074  11.473  31.071   7.604
 1363POPC   NC320075  16.367  25.852   9.416
 1363POPC   PO420076  15.772  26.087   9.394
 1363POPC   GL120077  15.858  25.913   9.067
 1363POPC   GL220078  16.173  26.057   8.992
 1363POPC   C1A20079  15.757  26.012   8.662
 1363POPC   D2A20080  16.022  26.096   8.334
 1363POPC   C3A20081  15.915  26.032   7.914
 1363POPC   C4A20082  15.514  26.201   7.774
 1363POPC   C1B20083  16.358  25.834   8.654
 1363POPC   C2B20084  16.374  25.718   8.224
 1363POPC   C3B20085  16.419  25.880   7.840
 1363POPC   C4B20086  16.166  25.929   7.473
 1364POPC   NC320087  28.110  16.986   9.446
 1364POPC   PO420088  28.303  16.429   9.669
 1364POPC   GL120089  28.351  16.537   9.249
 1364POPC   GL220090  28.010  16.516   9.220
 1364POPC   C1A20091  28.539  16.600   8.824
 1364POPC   D2A20092  28.389  16.700   8.428
 1364POPC   C3A20093  28.606  16.859   8.096
 1364POPC   C4A20094  28.463  16.682   7.740
 1364POPC   C1B20095  27.883  16.736   8.854
 1364POPC   C2B20096  27.887  16.827   8.431
 1364POPC   C3B20097  28.047  16.771   8.040
 1364POPC   C4B20098  28.013  16.901   7.552
 1365POPC   NC320099  18.750  41.376   9.484
 1365POPC   PO420100  18.052  41.539   9.563
 1365POPC   GL120101  18.286  41.500   9.188
 1365POPC   GL220102  18.512  41.800   9.227
 1365POPC   C1A20103  18.156  41.413   8.747
 1365POPC   D2A20104  17.931  41.573   8.347
 1365POPC   C3A20105  18.175  41.448   7.957
 1365POPC   C4A20106  18.450  41.316   7.596
 1365POPC   C1B20107  18.499  41.825   8.761
 1365POPC   C2B20108  18.356  41.849   8.317
 1365POPC   C3B20109  18.549  41.775   7.919
 1365POPC   C4B20110  18.768  41.778   7.549
 1366POPC   NC320111  11.575  39.702   9.569
 1366POPC   PO420112  10.866  39.869   9.615
 1366POPC   GL120113  11.187  39.794   9.251
 1366POPC   GL220114  11.381  40.125   9.208
 1366POPC   C1A20115  11.470  39.755   8.872
 1366POPC   D2A20116  11.352  39.989   8.506
 1366POPC   C3A20117  11.468  39.858   8.092
 1366POPC   C4A20118  11.170  39.944   7.774
 1366POPC   C1B20119  11.602  40.321   8.830
 1366POPC   C2B20120  11.534  40.490   8.373
 1366POPC   C3B20121  11.527  40.370   7.901
 1366POPC   C4B20122  11.426  40.622   7.515
 1367POPC   NC320123  19.178  11.949   9.370
 1367POPC   PO420124  18.732  12.476   9.214
 1367POPC   GL120125  18.935  12.144   8.963
 1367POPC   GL220126  18.820  11.787   9.054
 1367POPC   C1A20127  19.318  12.075   8.676
 1367POPC   D2A20128  19.475  11.789   8.340
 1367POPC   C3A20129  19.301  11.988   7.983
 1367POPC   C4A20130  19.234  12.008   7.540
 1367POPC   C1B20131  18.998  11.687   8.699
 1367POPC   C2B20132  18.959  11.893   8.345
 1367POPC   C3B20133  18.809  11.796   7.965
 1367POPC   C4B20134  18.741  12.017   7.623
 1368POPC   NC320135   7.419   7.474   9.640
 1368POPC   PO420136   6.986   7.801   9.352
 1368POPC   GL120137   7.189   7.571   9.052
 1368POPC   GL220138   7.294   7.256   9.139
 1368POPC   C1A20139   7.279   7.571   8.613
 1368POPC   D2A20140   7.654   7.403   8.470
 1368POPC   C3A20141   7.529   7.196   8.130
 1368POPC   C4A20142   7.549   7.309   7.728
 1368POPC   C1B20143   7.024   7.148   8.773
 1368POPC   C2B20144   7.095   7.015   8.325
 1368POPC   C3B20145   7.072   7.301   7.953
 1368POPC   C4B20146   6.783   7.422   7.651
 1369POPC   NC320147  44.278  35.871   9.275
 1369POPC   PO420148  44.095  35.282   9.547
 1369POPC   GL120149  43.942  35.328   9.158
 1369POPC   GL220150  43.868  35.652   9.038
 1369POPC   C1A20151  43.792  35.150   8.799
 1369POPC   D2A20152  43.882  35.075   8.386
 1369POPC   C3A20153  43.800  35.368   8.080
 1369POPC   C4A20154  43.908  35.362   7.644
 1369POPC   C1B20155  43.824  35.611   8.571
 1369POPC   C2B20156  43.449  35.755   8.336
 1369POPC   C3B20157  43.420  35.663   7.904
 1369POPC   C4B20158  43.795  35.826   7.797
 1370POPC   NC320159  16.104  37.433   9.487
 1370POPC   PO420160  15.732  38.000   9.591
 1370POPC   GL120161  15.772  37.728   9.204
 1370POPC   GL220162  16.135  37.740   9.095
 1370POPC   C1A20163  15.762  37.590   8.749
 1370POPC   D2A20164  15.906  37.466   8.317
 1370POPC   C3A20165  15.761  37.751   8.010
 1370POPC   C4A20166  15.768  38.142   7.791
 1370POPC   C1B20167  16.313  37.600   8.707
 1370POPC   C2B20168  16.417  37.411   8.309
 1370POPC   C3B20169  16.285  37.547   7.872
 1370POPC   C4B20170  16.346  37.471   7.390
 1371POPC   NC320171  38.135   4.937   9.460
 1371POPC   PO420172  38.883   4.935   9.607
 1371POPC   GL120173  38.802   5.058   9.178
 1371POPC   GL220174  38.467   5.180   9.159
 1371POPC   C1A20175  38.657   4.895   8.783
 1371POPC   D2A20176  38.400   4.980   8.420
 1371POPC   C3A20177  38.583   5.126   8.073
 1371POPC   C4A20178  38.471   4.762   7.884
 1371POPC   C1B20179  38.454   5.359   8.738
 1371POPC   C2B20180  38.399   5.519   8.334
 1371POPC   C3B20181  38.131   5.434   7.974
 1371POPC   C4B20182  38.285   5.196   7.668
 1372POPC   NC320183   6.997  22.520   9.644
 1372POPC   PO420184   7.426  21.956   9.521
 1372POPC   GL120185   7.453  22.223   9.141
 1372POPC   GL220186   7.626  21.955   9.053
 1372POPC   C1A20187   7.657  22.418   8.802
 1372POPC   D2A20188   7.593  22.506   8.385
 1372POPC   C3A20189   7.713  22.200   8.095
 1372POPC   C4A20190   7.598  22.393   7.760
 1372POPC   C1B20191   7.317  21.833   8.764
 1372POPC   C2B20192   7.419  21.931   8.391
 1372POPC   C3B20193   7.235  22.081   8.009
 1372POPC   C4B20194   7.226  21.827   7.593
 1373POPC   NC320195  18.564   9.590   9.391
 1373POPC   PO420196  18.369  10.273   9.544
 1373POPC   GL120197  18.208   9.900   9.134
 1373POPC   GL220198  18.448   9.634   8.914
 1373POPC   C1A20199  18.117   9.879   8.649
 1373POPC   D2A20200  18.452   9.702   8.369
 1373POPC   C3A20201  18.477   9.960   7.995
 1373POPC   C4A20202  18.329   9.828   7.605
 1373POPC   C1B20203  18.141   9.394   8.781
 1373POPC   C2B20204  17.970   9.411   8.411
 1373POPC   C3B20205  18.048   9.612   8.037
 1373POPC   C4B20206  17.833   9.461   7.708
 1374POPC   NC320207   8.020  32.204   9.733
 1374POPC   PO420208   8.570  31.911   9.634
 1374POPC   GL120209   8.339  32.069   9.212
 1374POPC   GL220210   8.043  32.250   9.182
 1374POPC   C1A20211   8.359  32.189   8.733
 1374POPC   D2A20212   8.654  32.255   8.371
 1374POPC   C3A20213   8.568  32.066   7.958
 1374POPC   C4A20214   8.373  32.228   7.588
 1374POPC   C1B20215   7.809  32.277   8.815
 1374POPC   C2B20216   7.891  32.455   8.423
 1374POPC   C3B20217   8.123  32.295   8.109
 1374POPC   C4B20218   7.924  32.131   7.778
 1375POPC   NC320219   6.672  26.393   9.542
 1375POPC   PO420220   7.007  25.872   9.721
 1375POPC   GL120221   6.840  26.009   9.235
 1375POPC   GL220222   6.562  26.202   9.073
 1375POPC   C1A20223   6.838  25.808   8.775
 1375POPC   D2A20224   6.942  25.866   8.326
 1375POPC   C3A20225   6.671  25.853   7.954
 1375POPC   C4A20226   6.832  25.691   7.543
 1375POPC   C1B20227   6.806  26.309   8.762
 1375POPC   C2B20228   6.645  26.297   8.377
 1375POPC   C3B20229   6.793  26.356   8.007
 1375POPC   C4B20230   6.642  26.468   7.654
 1376POPC   NC320231   4.245  38.313   9.646
 1376POPC   PO420232   4.676  38.817   9.370
 1376POPC   GL120233   4.341  38.537   9.165
 1376POPC   GL220234   4.072  38.247   9.182
 1376POPC   C1A20235   4.407  38.253   8.795
 1376POPC   D2A20236   4.233  38.217   8.381
 1376POPC   C3A20237   4.486  38.269   7.989
 1376POPC   C4A20238   4.784  38.268   7.666
 1376POPC   C1B20239   3.947  38.483   8.830
 1376POPC   C2B20240   4.123  38.709   8.470
 1376POPC   C3B20241   4.075  38.572   8.043
 1376POPC   C4B20242   4.002  38.153   7.811
 1377POPC   NC320243  15.769  12.707   9.557
 1377POPC   PO420244  16.039  13.331   9.474
 1377POPC   GL120245  15.901  13.048   9.155
 1377POPC   GL220246  16.178  12.822   9.234
 1377POPC   C1A20247  15.753  12.832   8.754
 1377POPC   D2A20248  15.523  12.534   8.445
 1377POPC   C3A20249  15.650  12.625   8.012
 1377POPC   C4A20250  15.924  12.812   7.728
 1377POPC   C1B20251  16.195  12.545   8.892
 1377POPC   C2B20252  16.058  12.456   8.479
 1377POPC   C3B20253  16.182  12.503   8.025
 1377POPC   C4B20254  16.217  12.427   7.570
 1378POPC   NC320255  14.345  11.890   9.310
 1378POPC   PO420256  14.597  12.434   9.459
 1378POPC   GL120257  14.605  12.267   9.073
 1378POPC   GL220258  14.542  12.544   8.884
 1378POPC   C1A20259  14.711  12.016   8.709
 1378POPC   D2A20260  14.541  11.707   8.423
 1378POPC   C3A20261  14.379  11.877   8.053
 1378POPC   C4A20262  14.589  12.100   7.782
 1378POPC   C1B20263  14.146  12.298   8.823
 1378POPC   C2B20264  14.189  12.138   8.453
 1378POPC   C3B20265  14.362  12.385   8.130
 1378POPC   C4B20266  14.109  12.349   7.750
 1379POPC   NC320267  13.266  25.599   9.635
 1379POPC   PO420268  13.454  25.027   9.622
 1379POPC   GL120269  13.617  25.367   9.269
 1379POPC   GL220270  13.983  25.510   9.268
 1379POPC   C1A20271  13.757  25.341   8.815
 1379POPC   D2A20272  13.582  25.280   8.383
 1379POPC   C3A20273  13.660  25.214   7.911
 1379POPC   C4A20274  13.290  25.126   7.633
 1379POPC   C1B20275  13.938  25.804   8.917
 1379POPC   C2B20276  13.901  25.716   8.488
 1379POPC   C3B20277  13.700  25.688   8.094
 1379POPC   C4B20278  13.841  25.637   7.654
 1380POPC   NC320279   8.810  27.765   9.437
 1380POPC   PO420280   8.843  27.041   9.547
 1380POPC   GL120281   8.871  27.276   9.214
 1380POPC   GL220282   9.189  27.466   9.210
 1380POPC   C1A20283   8.793  27.445   8.824
 1380POPC   D2A20284   9.058  27.395   8.491
 1380POPC   C3A20285   8.858  27.458   8.101
 1380POPC   C4A20286   8.975  27.559   7.710
 1380POPC   C1B20287   9.189  27.777   8.869
 1380POPC   C2B20288   9.102  27.914   8.451
 1380POPC   C3B20289   9.040  28.012   8.031
 1380POPC   C4B20290   9.275  27.946   7.628
 1381POPC   NC320291  38.786  11.929   9.555
 1381POPC   PO420292  39.159  12.499   9.656
 1381POPC   GL120293  39.191  12.206   9.279
 1381POPC   GL220294  39.148  12.478   9.088
 1381POPC   C1A20295  39.370  12.100   8.825
 1381POPC   D2A20296  39.169  11.935   8.444
 1381POPC   C3A20297  39.378  11.938   8.033
 1381POPC   C4A20298  39.429  11.751   7.598
 1381POPC   C1B20299  39.229  12.562   8.671
 1381POPC   C2B20300  39.346  12.392   8.334
 1381POPC   C3B20301  39.159  12.419   7.972
 1381POPC   C4B20302  39.116  12.423   7.556
 1382POPC   NC320303  23.196  26.596   9.612
 1382POPC   PO420304  23.849  26.816   9.509
 1382POPC   GL120305  23.673  26.853   9.127
 1382POPC   GL220306  23.365  26.687   9.156
 1382POPC   C1A20307  23.678  26.653   8.754
 1382POPC   D2A20308  23.915  26.594   8.419
 1382POPC   C3A20309  23.690  26.806   8.111
 1382POPC   C4A20310  23.728  26.688   7.700
 1382POPC   C1B20311  23.235  26.947   8.829
 1382POPC   C2B20312  23.309  27.237   8.485
 1382POPC   C3B20313  23.315  27.145   8.041
 1382POPC   C4B20314  23.220  26.776   7.812
 1383POPC   NC320315   6.235  34.822   9.468
 1383POPC   PO420316   6.753  34.370   9.479
 1383POPC   GL120317   6.508  34.508   9.139
 1383POPC   GL220318   6.462  34.873   9.030
 1383POPC   C1A20319   6.545  34.474   8.709
 1383POPC   D2A20320   6.817  34.444   8.390
 1383POPC   C3A20321   6.631  34.339   8.035
 1383POPC   C4A20322   6.598  34.327   7.617
 1383POPC   C1B20323   6.232  34.995   8.652
 1383POPC   C2B20324   6.379  34.741   8.291
 1383POPC   C3B20325   6.778  34.832   8.071
 1383POPC   C4B20326   6.844  34.799   7.675
 1384POPC   NC320327  13.842  33.201   9.814
 1384POPC   PO420328  13.556  33.701   9.541
 1384POPC   GL120329  13.234  33.776   9.235
 1384POPC   GL220330  13.281  34.097   9.113
 1384POPC   C1A20331  13.288  33.691   8.791
 1384POPC   D2A20332  13.386  33.913   8.399
 1384POPC   C3A20333  13.436  33.668   8.015
 1384POPC   C4A20334  13.518  33.826   7.599
 1384POPC   C1B20335  13.662  34.128   8.790
 1384POPC   C2B20336  13.873  34.111   8.343
 1384POPC   C3B20337  13.923  33.992   7.894
 1384POPC   C4B20338  13.928  34.124   7.448
 1385POPC   NC320339   9.883  23.617   9.417
 1385POPC   PO420340   9.361  23.852   9.723
 1385POPC   GL120341   9.398  23.586   9.209
 1385POPC   GL220342   9.682  23.464   8.993
 1385POPC   C1A20343   9.401  23.746   8.701
 1385POPC   D2A20344   9.685  23.509   8.381
 1385POPC   C3A20345   9.846  23.694   7.981
 1385POPC   C4A20346   9.711  24.074   7.842
 1385POPC   C1B20347   9.414  23.216   8.729
 1385POPC   C2B20348   9.464  23.045   8.307
 1385POPC   C3B20349   9.504  23.311   7.915
 1385POPC   C4B20350   9.480  23.338   7.443
 1386POPC   NC320351  40.846  24.047   9.820
 1386POPC   PO420352  41.206  23.567   9.526
 1386POPC   GL120353  41.034  23.558   9.118
 1386POPC   GL220354  40.677  23.597   9.110
 1386POPC   C1A20355  40.999  23.792   8.741
 1386POPC   D2A20356  40.783  23.809   8.365
 1386POPC   C3A20357  40.933  24.091   8.116
 1386POPC   C4A20358  41.104  23.887   7.793
 1386POPC   C1B20359  40.474  23.713   8.754
 1386POPC   C2B20360  40.258  23.672   8.379
 1386POPC   C3B20361  40.486  23.684   7.954
 1386POPC   C4B20362  40.583  23.498   7.544
 1387POPC   NC320363  25.375  34.173   9.527
 1387POPC   PO420364  25.418  34.902   9.617
 1387POPC   GL120365  25.154  34.629   9.304
 1387POPC   GL220366  25.471  34.531   9.199
 1387POPC   C1A20367  25.134  34.369   8.864
 1387POPC   D2A20368  25.398  34.462   8.493
 1387POPC   C3A20369  25.268  34.456   8.073
 1387POPC   C4A20370  25.450  34.301   7.732
 1387POPC   C1B20371  25.374  34.920   8.951
 1387POPC   C2B20372  25.428  34.985   8.541
 1387POPC   C3B20373  25.549  34.884   8.147
 1387POPC   C4B20374  25.374  34.823   7.740
 1388POPC   NC320375  21.530  44.253   9.511
 1388POPC   PO420376  21.008  44.777   9.428
 1388POPC   GL120377  21.353  44.629   9.189
 1388POPC   GL220378  21.203  44.314   9.112
 1388POPC   C1A20379  21.579  44.463   8.795
 1388POPC   D2A20380  21.746  44.566   8.356
 1388POPC   C3A20381  21.558  44.581   7.950
 1388POPC   C4A20382  21.635  44.668   7.487
 1388POPC   C1B20383  21.052  44.583   8.790
 1388POPC   C2B20384  21.216  44.594   8.394
 1388POPC   C3B20385  21.026  44.680   8.046
 1388POPC   C4B20386  21.162  44.667   7.645
 1389POPC   NC320387   8.590   4.076   9.473
 1389POPC   PO420388   8.088   4.540   9.618
 1389POPC   GL120389   8.092   4.368   9.196
 1389POPC   GL220390   8.182   4.014   9.138
 1389POPC   C1A20391   8.190   4.509   8.778
 1389POPC   D2A20392   7.985   4.522   8.398
 1389POPC   C3A20393   8.205   4.572   8.042
 1389POPC   C4A20394   7.958   4.439   7.700
 1389POPC   C1B20395   8.287   4.005   8.677
 1389POPC   C2B20396   8.325   4.115   8.257
 1389POPC   C3B20397   8.299   4.056   7.811
 1389POPC   C4B20398   8.354   4.235   7.396
 1390POPC   NC320399  11.054  41.299   9.485
 1390POPC   PO420400  11.473  41.826   9.467
 1390POPC   GL120401  11.295  41.578   9.146
 1390POPC   GL220402  10.897  41.561   9.085
 1390POPC   C1A20403  11.379  41.329   8.825
 1390POPC   D2A20404  11.277  41.513   8.427
 1390POPC   C3A20405  11.413  41.372   8.004
 1390POPC   C4A20406  11.524  41.724   7.811
 1390POPC   C1B20407  11.026  41.858   8.784
 1390POPC   C2B20408  10.882  41.901   8.367
 1390POPC   C3B20409  10.997  41.651   8.023
 1390POPC   C4B20410  11.044  41.605   7.583
 1391POPC   NC320411   4.556  19.613   9.586
 1391POPC   PO420412   4.252  20.221   9.436
 1391POPC   GL120413   4.128  19.903   9.128
 1391POPC   GL220414   4.434  19.860   8.949
 1391POPC   C1A20415   3.979  20.009   8.718
 1391POPC   D2A20416   4.269  20.164   8.419
 1391POPC   C3A20417   4.267  19.998   7.997
 1391POPC   C4A20418   4.012  19.788   7.692
 1391POPC   C1B20419   4.678  19.468   8.754
 1391POPC   C2B20420   4.864  19.396   8.331
 1391POPC   C3B20421   4.674  19.378   7.950
 1391POPC   C4B20422   4.488  19.658   7.684
 1392POPC   NC320423  39.376  16.556   9.587
 1392POPC   PO420424  38.674  16.694   9.585
 1392POPC   GL120425  38.938  16.642   9.231
 1392POPC   GL220426  39.255  16.795   9.171
 1392POPC   C1A20427  38.978  16.583   8.783
 1392POPC   D2A20428  38.980  16.787   8.367
 1392POPC   C3A20429  39.204  16.574   8.009
 1392POPC   C4A20430  39.168  16.480   7.544
 1392POPC   C1B20431  39.497  16.650   8.825
 1392POPC   C2B20432  39.492  16.793   8.403
 1392POPC   C3B20433  39.731  16.785   8.061
 1392POPC   C4B20434  39.677  16.405   7.878
 1393POPC   NC320435  44.906  10.814   9.456
 1393POPC   PO420436  44.709  10.121   9.651
 1393POPC   GL120437  44.819  10.269   9.217
 1393POPC   GL220438  44.503  10.185   9.069
 1393POPC   C1A20439  44.754  10.563   8.832
 1393POPC   D2A20440  44.578  10.761   8.438
 1393POPC   C3A20441  44.887  10.829   8.099
 1393POPC   C4A20442  44.868  10.866   7.656
 1393POPC   C1B20443  44.290  10.336   8.684
 1393POPC   C2B20444  44.277  10.396   8.228
 1393POPC   C3B20445  44.511  10.539   7.919
 1393POPC   C4B20446  44.816  10.282   7.853
 1394POPC   NC320447  42.201  38.208   9.466
 1394POPC   PO420448  42.801  38.558   9.504
 1394POPC   GL120449  42.501  38.486   9.119
 1394POPC   GL220450  42.100  38.545   9.057
 1394POPC   C1A20451  42.333  38.265   8.733
 1394POPC   D2A20452  41.992  38.481   8.455
 1394POPC   C3A20453  42.144  38.575   8.017
 1394POPC   C4A20454  42.361  38.317   7.704
 1394POPC   C1B20455  41.843  38.172   8.875
 1394POPC   C2B20456  41.670  38.065   8.459
 1394POPC   C3B20457  41.733  38.255   8.068
 1394POPC   C4B20458  41.918  38.077   7.705
 1395POPC   NC320459  26.464  25.937   9.335
 1395POPC   PO420460  26.999  26.335   9.461
 1395POPC   GL120461  26.923  26.135   9.120
 1395POPC   GL220462  26.630  26.345   9.060
 1395POPC   C1A20463  27.066  25.930   8.753
 1395POPC   D2A20464  26.812  26.073   8.414
 1395POPC   C3A20465  26.868  25.947   7.995
 1395POPC   C4A20466  26.568  25.756   7.708
 1395POPC   C1B20467  26.522  26.487   8.669
 1395POPC   C2B20468  26.739  26.558   8.296
 1395POPC   C3B20469  26.539  26.333   7.998
 1395POPC   C4B20470  26.405  26.365   7.600
 1396POPC   NC320471  27.768   4.986   9.728
 1396POPC   PO420472  27.344   5.395   9.459
 1396POPC   GL120473  27.637   5.115   9.259
 1396POPC   GL220474  27.428   4.845   9.360
 1396POPC   C1A20475  27.834   5.115   8.841
 1396POPC   D2A20476  27.591   5.109   8.446
 1396POPC   C3A20477  27.749   4.981   8.022
 1396POPC   C4A20478  27.826   4.957   7.572
 1396POPC   C1B20479  27.373   4.869   8.911
 1396POPC   C2B20480  27.242   4.678   8.562
 1396POPC   C3B20481  27.313   4.777   8.161
 1396POPC   C4B20482  27.352   4.707   7.744
 1397POPC   NC320483  36.081  20.303   9.491
 1397POPC   PO420484  36.106  20.974   9.462
 1397POPC   GL120485  36.100  20.713   9.111
 1397POPC   GL220486  36.382  20.483   9.136
 1397POPC   C1A20487  35.876  20.723   8.719
 1397POPC   D2A20488  35.887  20.573   8.272
 1397POPC   C3A20489  36.001  20.830   7.891
 1397POPC   C4A20490  36.366  20.789   7.590
 1397POPC   C1B20491  36.256  20.388   8.714
 1397POPC   C2B20492  36.430  20.445   8.310
 1397POPC   C3B20493  36.477  20.397   7.900
 1397POPC   C4B20494  36.108  20.367   7.698
 1398POPC   NC320495  43.689  37.366   9.589
 1398POPC   PO420496  43.909  36.641   9.548
 1398POPC   GL120497  43.822  36.987   9.208
 1398POPC   GL220498  43.602  36.907   8.989
 1398POPC   C1A20499  44.083  36.927   8.783
 1398POPC   D2A20500  44.389  37.000   8.438
 1398POPC   C3A20501  44.240  36.919   8.042
 1398POPC   C4A20502  44.099  37.063   7.694
 1398POPC   C1B20503  43.553  37.181   8.610
 1398POPC   C2B20504  43.502  37.160   8.139
 1398POPC   C3B20505  43.628  36.879   7.779
 1398POPC   C4B20506  43.437  36.685   7.404
 1399POPC   NC320507  12.563   9.442   9.931
 1399POPC   PO420508  12.871   9.925   9.620
 1399POPC   GL120509  12.970   9.659   9.259
 1399POPC   GL220510  12.841   9.941   9.093
 1399POPC   C1A20511  12.838   9.434   8.848
 1399POPC   D2A20512  12.578   9.481   8.434
 1399POPC   C3A20513  12.819   9.611   8.061
 1399POPC   C4A20514  13.266   9.566   7.864
 1399POPC   C1B20515  12.709   9.911   8.679
 1399POPC   C2B20516  12.483   9.985   8.302
 1399POPC   C3B20517  12.644  10.087   7.954
 1399POPC   C4B20518  13.020  10.037   7.815
 1400POPC   NC320519  27.357  43.624   9.669
 1400POPC   PO420520  27.837  44.019   9.411
 1400POPC   GL120521  27.588  43.709   9.176
 1400POPC   GL220522  27.233  43.770   9.168
 1400POPC   C1A20523  27.575  43.481   8.760
 1400POPC   D2A20524  27.604  43.687   8.369
 1400POPC   C3A20525  27.744  43.551   7.976
 1400POPC   C4A20526  27.774  43.841   7.639
 1400POPC   C1B20527  27.408  43.962   8.765
 1400POPC   C2B20528  27.269  44.131   8.365
 1400POPC   C3B20529  27.425  43.992   7.968
 1400POPC   C4B20530  27.297  43.621   7.707
 1401POPC   NC320531  25.825   7.673   9.552
 1401POPC   PO420532  26.479   7.576   9.462
 1401POPC   GL120533  26.167   7.271   9.249
 1401POPC   GL220534  25.853   7.416   9.134
 1401POPC   C1A20535  26.104   7.166   8.786
 1401POPC   D2A20536  25.858   7.011   8.443
 1401POPC   C3A20537  25.943   7.312   8.098
 1401POPC   C4A20538  25.908   7.260   7.645
 1401POPC   C1B20539  26.103   7.672   8.909
 1401POPC   C2B20540  26.209   7.600   8.509
 1401POPC   C3B20541  26.170   7.802   8.142
 1401POPC   C4B20542  26.000   7.756   7.756
 1402POPC   NC320543  28.984  25.422   9.516
 1402POPC   PO420544  29.558  25.037   9.702
 1402POPC   GL120545  29.400  25.184   9.277
 1402POPC   GL220546  29.588  25.483   9.208
 1402POPC   C1A20547  29.094  25.167   8.884
 1402POPC   D2A20548  28.889  25.260   8.463
 1402POPC   C3A20549  29.087  25.244   8.050
 1402POPC   C4A20550  29.249  25.015   7.688
 1402POPC   C1B20551  29.392  25.578   8.824
 1402POPC   C2B20552  29.472  25.365   8.448
 1402POPC   C3B20553  29.519  25.527   8.056
 1402POPC   C4B20554  29.287  25.546   7.666
 1403POPC   NC320555  39.477  28.609   9.519
 1403POPC   PO420556  38.967  28.210   9.367
 1403POPC   GL120557  39.305  28.302   9.131
 1403POPC   GL220558  39.466  28.025   9.163
 1403POPC   C1A20559  39.434  28.510   8.751
 1403POPC   D2A20560  39.229  28.533   8.356
 1403POPC   C3A20561  39.491  28.498   7.982
 1403POPC   C4A20562  39.319  28.541   7.551
 1403POPC   C1B20563  39.667  28.069   8.799
 1403POPC   C2B20564  39.464  28.082   8.398
 1403POPC   C3B20565  39.188  28.104   8.041
 1403POPC   C4B20566  39.455  28.080   7.663
 1404POPC   NC320567   4.053  17.780   9.408
 1404POPC   PO420568   4.409  17.285   9.266
 1404POPC   GL120569   4.301  17.551   9.028
 1404POPC   GL220570   4.520  17.768   9.184
 1404POPC   C1A20571   4.101  17.383   8.713
 1404POPC   D2A20572   4.127  17.566   8.354
 1404POPC   C3A20573   4.437  17.469   8.076
 1404POPC   C4A20574   4.484  17.256   7.717
 1404POPC   C1B20575   4.700  17.823   8.790
 1404POPC   C2B20576   4.535  17.890   8.389
 1404POPC   C3B20577   4.699  17.959   7.986
 1404POPC   C4B20578   4.563  17.800   7.611
 1405POPC   NC320579   1.200  29.551   9.499
 1405POPC   PO420580   1.369  28.929   9.736
 1405POPC   GL120581   1.125  28.959   9.249
 1405POPC   GL220582   0.896  29.213   9.205
 1405POPC   C1A20583   1.174  29.180   8.791
 1405POPC   D2A20584   1.099  29.155   8.363
 1405POPC   C3A20585   1.305  29.041   7.978
 1405POPC   C4A20586   1.187  29.232   7.585
 1405POPC   C1B20587   0.801  28.836   8.877
 1405POPC   C2B20588   0.780  28.743   8.419
 1405POPC   C3B20589   0.869  28.771   7.951
 1405POPC   C4B20590   1.134  28.687   7.558
 1406POPC   NC320591  20.901  27.754   9.782
 1406POPC   PO420592  21.450  27.370   9.590
 1406POPC   GL120593  21.283  27.455   9.207
 1406POPC   GL220594  20.965  27.675   9.261
 1406POPC   C1A20595  21.552  27.398   8.831
 1406POPC   D2A20596  21.589  27.255   8.406
 1406POPC   C3A20597  21.609  27.528   8.083
 1406POPC   C4A20598  21.386  27.445   7.748
 1406POPC   C1B20599  21.239  27.869   8.910
 1406POPC   C2B20600  21.420  27.793   8.505
 1406POPC   C3B20601  21.147  27.699   8.159
 1406POPC   C4B20602  21.059  27.825   7.769
 1407POPC   NC320603  19.864  42.571   9.459
 1407POPC   PO420604  19.720  43.235   9.457
 1407POPC   GL120605  19.997  43.250   9.118
 1407POPC   GL220606  20.268  43.507   9.139
 1407POPC   C1A20607  19.864  43.052   8.719
 1407POPC   D2A20608  19.968  42.751   8.378
 1407POPC   C3A20609  19.805  42.771   7.929
 1407POPC   C4A20610  19.670  42.837   7.464
 1407POPC   C1B20611  20.218  43.425   8.685
 1407POPC   C2B20612  19.993  43.294   8.286
 1407POPC   C3B20613  19.944  43.265   7.855
 1407POPC   C4B20614  20.141  43.584   7.651
 1408POPC   NC320615  35.567  13.943   9.539
 1408POPC   PO420616  35.128  13.458   9.549
 1408POPC   GL120617  35.391  13.527   9.172
 1408POPC   GL220618  35.515  13.849   9.060
 1408POPC   C1A20619  35.221  13.581   8.751
 1408POPC   D2A20620  35.217  13.754   8.360
 1408POPC   C3A20621  35.237  13.497   8.023
 1408POPC   C4A20622  35.257  13.698   7.687
 1408POPC   C1B20623  35.761  14.096   8.774
 1408POPC   C2B20624  35.884  13.966   8.357
 1408POPC   C3B20625  35.610  13.914   8.017
 1408POPC   C4B20626  35.669  13.980   7.580
 1409POPC   NC320627   1.806  12.647   9.444
 1409POPC   PO420628   2.212  13.205   9.460
 1409POPC   GL120629   2.000  13.008   9.132
 1409POPC   GL220630   2.135  12.689   9.067
 1409POPC   C1A20631   1.805  12.974   8.729
 1409POPC   D2A20632   1.901  13.273   8.398
 1409POPC   C3A20633   2.200  13.160   8.091
 1409POPC   C4A20634   1.975  13.063   7.734
 1409POPC   C1B20635   2.386  12.752   8.763
 1409POPC   C2B20636   2.242  12.718   8.368
 1409POPC   C3B20637   2.083  12.623   7.990
 1409POPC   C4B20638   2.276  12.670   7.613
 1410POPC   NC320639  10.391  24.866   9.680
 1410POPC   PO420640  10.775  25.339   9.540
 1410POPC   GL120641  10.426  25.325   9.244
 1410POPC   GL220642  10.318  24.970   9.170
 1410POPC   C1A20643  10.368  25.544   8.845
 1410POPC   D2A20644  10.683  25.478   8.521
 1410POPC   C3A20645  10.535  25.431   8.095
 1410POPC   C4A20646  10.429  25.571   7.709
 1410POPC   C1B20647  10.379  25.037   8.718
 1410POPC   C2B20648  10.578  24.974   8.300
 1410POPC   C3B20649  10.492  24.836   7.864
 1410POPC   C4B20650  10.238  25.131   7.597
 1411POPC   NC320651  43.312  17.671   9.709
 1411POPC   PO420652  42.966  17.192   9.679
 1411POPC   GL120653  43.189  17.388   9.313
 1411POPC   GL220654  42.880  17.492   9.134
 1411POPC   C1A20655  43.342  17.668   8.968
 1411POPC   D2A20656  43.453  17.667   8.524
 1411POPC   C3A20657  43.221  17.783   8.190
 1411POPC   C4A20658  43.307  17.722   7.791
 1411POPC   C1B20659  43.101  17.256   8.804
 1411POPC   C2B20660  43.086  17.329   8.371
 1411POPC   C3B20661  43.330  17.225   8.009
 1411POPC   C4B20662  43.268  17.267   7.568
 1412POPC   NC320663  13.234  12.699   9.425
 1412POPC   PO420664  12.598  12.948   9.582
 1412POPC   GL120665  12.719  12.853   9.190
 1412POPC   GL220666  12.557  13.164   9.065
 1412POPC   C1A20667  12.844  12.603   8.828
 1412POPC   D2A20668  12.600  12.518   8.448
 1412POPC   C3A20669  12.799  12.529   8.029
 1412POPC   C4A20670  13.008  12.675   7.608
 1412POPC   C1B20671  12.688  13.045   8.634
 1412POPC   C2B20672  13.055  12.817   8.427
 1412POPC   C3B20673  13.177  12.856   8.053
 1412POPC   C4B20674  12.883  13.094   7.880
 1413POPC   NC320675  37.251  19.177   9.326
 1413POPC   PO420676  37.745  18.863   9.627
 1413POPC   GL120677  37.745  18.999   9.216
 1413POPC   GL220678  37.554  18.689   9.172
 1413POPC   C1A20679  37.974  19.006   8.814
 1413POPC   D2A20680  37.802  18.877   8.418
 1413POPC   C3A20681  37.609  19.206   8.193
 1413POPC   C4A20682  37.716  19.197   7.798
 1413POPC   C1B20683  37.297  18.680   8.807
 1413POPC   C2B20684  37.296  18.838   8.392
 1413POPC   C3B20685  37.352  18.756   7.972
 1413POPC   C4B20686  37.623  18.705   7.604
 1414POPC   NC320687   8.764   9.279   9.689
 1414POPC   PO420688   8.107   9.082   9.555
 1414POPC   GL120689   8.125   9.081   9.133
 1414POPC   GL220690   8.433   9.265   9.121
 1414POPC   C1A20691   8.213   8.809   8.797
 1414POPC   D2A20692   8.329   8.904   8.367
 1414POPC   C3A20693   7.989   8.811   8.099
 1414POPC   C4A20694   8.024   8.772   7.658
 1414POPC   C1B20695   8.274   9.333   8.699
 1414POPC   C2B20696   8.290   9.419   8.258
 1414POPC   C3B20697   8.229   9.233   7.855
 1414POPC   C4B20698   8.445   9.380   7.474
 1415POPC   NC320699  22.458  42.096   9.695
 1415POPC   PO420700  22.987  42.383   9.503
 1415POPC   GL120701  23.004  42.287   9.117
 1415POPC   GL220702  23.330  42.213   9.047
 1415POPC   C1A20703  22.674  42.301   8.846
 1415POPC   D2A20704  22.561  42.418   8.427
 1415POPC   C3A20705  22.812  42.266   8.077
 1415POPC   C4A20706  22.739  42.430   7.653
 1415POPC   C1B20707  23.119  42.270   8.616
 1415POPC   C2B20708  22.999  42.660   8.372
 1415POPC   C3B20709  23.111  42.661   7.917
 1415POPC   C4B20710  23.194  42.577   7.474
 1416POPC   NC320711  20.956  36.319   9.528
 1416POPC   PO420712  20.307  36.079   9.489
 1416POPC   GL120713  20.662  36.107   9.150
 1416POPC   GL220714  20.881  36.415   9.045
 1416POPC   C1A20715  20.748  35.873   8.778
 1416POPC   D2A20716  20.572  35.752   8.400
 1416POPC   C3A20717  20.391  36.103   8.115
 1416POPC   C4A20718  20.610  36.356   7.783
 1416POPC   C1B20719  21.086  36.232   8.699
 1416POPC   C2B20720  20.868  36.165   8.321
 1416POPC   C3B20721  20.824  35.897   7.971
 1416POPC   C4B20722  21.051  36.102   7.731
 1417POPC   NC320723  16.870  19.412   9.486
 1417POPC   PO420724  16.423  19.873   9.600
 1417POPC   GL120725  16.612  19.886   9.184
 1417POPC   GL220726  16.926  20.098   9.167
 1417POPC   C1A20727  16.671  19.777   8.765
 1417POPC   D2A20728  16.844  19.604   8.412
 1417POPC   C3A20729  16.676  19.705   8.040
 1417POPC   C4A20730  16.943  19.645   7.683
 1417POPC   C1B20731  16.949  20.208   8.744
 1417POPC   C2B20732  16.748  20.140   8.342
 1417POPC   C3B20733  16.943  20.149   7.909
 1417POPC   C4B20734  16.998  20.109   7.446
 1418POPC   NC320735  35.728   4.977   9.459
 1418POPC   PO420736  36.391   4.948   9.610
 1418POPC   GL120737  36.142   4.989   9.143
 1418POPC   GL220738  35.808   4.821   8.998
 1418POPC   C1A20739  36.051   5.141   8.668
 1418POPC   D2A20740  36.230   5.125   8.237
 1418POPC   C3A20741  36.025   5.268   7.848
 1418POPC   C4A20742  36.145   5.594   7.532
 1418POPC   C1B20743  35.846   4.681   8.591
 1418POPC   C2B20744  36.178   4.620   8.246
 1418POPC   C3B20745  36.265   4.790   7.850
 1418POPC   C4B20746  36.221   4.869   7.409
 1419POPC   NC320747  17.049   9.736   9.588
 1419POPC   PO420748  16.362   9.843   9.401
 1419POPC   GL120749  16.752   9.942   9.159
 1419POPC   GL220750  16.922   9.618   9.119
 1419POPC   C1A20751  17.008   9.974   8.757
 1419POPC   D2A20752  17.102   9.857   8.334
 1419POPC   C3A20753  16.795  10.072   8.053
 1419POPC   C4A20754  16.593   9.951   7.634
 1419POPC   C1B20755  17.017   9.438   8.752
 1419POPC   C2B20756  16.849   9.398   8.372
 1419POPC   C3B20757  16.713   9.572   7.997
 1419POPC   C4B20758  16.790   9.380   7.604
 1420POPC   NC320759   2.746  29.583   9.576
 1420POPC   PO420760   2.341  29.030   9.638
 1420POPC   GL120761   2.553  29.021   9.216
 1420POPC   GL220762   2.810  29.246   9.202
 1420POPC   C1A20763   2.673  28.927   8.799
 1420POPC   D2A20764   2.857  29.152   8.444
 1420POPC   C3A20765   2.751  29.077   8.036
 1420POPC   C4A20766   3.012  28.975   7.675
 1420POPC   C1B20767   3.061  29.339   8.867
 1420POPC   C2B20768   2.999  29.644   8.526
 1420POPC   C3B20769   2.832  29.661   8.105
 1420POPC   C4B20770   2.862  29.455   7.705
 1421POPC   NC320771  19.846  44.936   9.466
 1421POPC   PO420772  19.396  44.417   9.647
 1421POPC   GL120773  19.623  44.441   9.184
 1421POPC   GL220774  19.923  44.581   9.113
 1421POPC   C1A20775  19.561  44.344   8.743
 1421POPC   D2A20776  19.349  44.626   8.436
 1421POPC   C3A20777  19.482  44.681   8.033
 1421POPC   C4A20778  19.837  44.533   7.799
 1421POPC   C1B20779  19.759  44.795   8.747
 1421POPC   C2B20780  19.663   0.041   8.421
 1421POPC   C3B20781  19.846   0.009   8.009
 1421POPC   C4B20782  19.741  44.964   7.562
 1422POPC   NC320783  31.358  24.146   9.485
 1422POPC   PO420784  31.021  24.679   9.682
 1422POPC   GL120785  31.341  24.716   9.261
 1422POPC   GL220786  31.605  24.486   9.167
 1422POPC   C1A20787  31.543  24.829   8.789
 1422POPC   D2A20788  31.420  24.653   8.390
 1422POPC   C3A20789  31.749  24.580   8.097
 1422POPC   C4A20790  31.631  24.562   7.684
 1422POPC   C1B20791  31.302  24.282   8.856
 1422POPC   C2B20792  31.182  24.192   8.434
 1422POPC   C3B20793  31.427  24.181   8.072
 1422POPC   C4B20794  31.339  24.118   7.669
 1423POPC   NC320795  10.129  21.785   9.613
 1423POPC   PO420796  10.700  21.445   9.535
 1423POPC   GL120797  10.371  21.455   9.231
 1423POPC   GL220798  10.635  21.475   8.976
 1423POPC   C1A20799  10.162  21.323   8.840
 1423POPC   D2A20800  10.430  21.336   8.465
 1423POPC   C3A20801  10.298  21.476   8.062
 1423POPC   C4A20802  10.216  21.267   7.703
 1423POPC   C1B20803  10.917  21.304   8.628
 1423POPC   C2B20804  10.970  21.336   8.182
 1423POPC   C3B20805  10.794  21.541   7.807
 1423POPC   C4B20806  10.819  21.894   7.460
 1424POPC   NC320807  37.160  12.412   9.613
 1424POPC   PO420808  36.713  12.030   9.358
 1424POPC   GL120809  36.876  12.266   9.050
 1424POPC   GL220810  37.212  12.277   9.089
 1424POPC   C1A20811  36.857  12.299   8.633
 1424POPC   D2A20812  37.129  12.265   8.327
 1424POPC   C3A20813  36.955  12.203   7.931
 1424POPC   C4A20814  37.276  12.404   7.753
 1424POPC   C1B20815  37.053  11.865   8.810
 1424POPC   C2B20816  36.889  11.786   8.360
 1424POPC   C3B20817  37.010  11.698   7.914
 1424POPC   C4B20818  37.235  11.910   7.539
 1425POPC   NC320819  27.848  17.492   9.718
 1425POPC   PO420820  28.440  17.312   9.509
 1425POPC   GL120821  28.322  17.356   9.118
 1425POPC   GL220822  28.496  17.035   9.073
 1425POPC   C1A20823  28.398  17.667   8.765
 1425POPC   D2A20824  28.700  17.737   8.404
 1425POPC   C3A20825  28.527  17.564   8.054
 1425POPC   C4A20826  28.067  17.627   7.938
 1425POPC   C1B20827  28.227  17.081   8.720
 1425POPC   C2B20828  28.174  17.250   8.311
 1425POPC   C3B20829  28.271  17.178   7.876
 1425POPC   C4B20830  28.541  17.196   7.551
 1426POPC   NC320831   1.764  17.760   9.570
 1426POPC   PO420832   2.047  17.155   9.567
 1426POPC   GL120833   2.133  17.412   9.207
 1426POPC   GL220834   2.193  17.781   9.238
 1426POPC   C1A20835   2.117  17.297   8.791
 1426POPC   D2A20836   1.788  17.213   8.446
 1426POPC   C3A20837   1.815  17.365   8.033
 1426POPC   C4A20838   1.899  17.182   7.654
 1426POPC   C1B20839   1.965  17.791   8.836
 1426POPC   C2B20840   2.099  17.621   8.400
 1426POPC   C3B20841   2.171  17.732   7.964
 1426POPC   C4B20842   2.284  17.535   7.590
 1427POPC   NC320843  43.575   9.361   9.468
 1427POPC   PO420844  44.100   8.980   9.525
 1427POPC   GL120845  43.992   8.880   9.074
 1427POPC   GL220846  43.656   8.754   8.991
 1427POPC   C1A20847  44.161   8.770   8.658
 1427POPC   D2A20848  44.125   8.990   8.249
 1427POPC   C3A20849  43.850   8.802   7.948
 1427POPC   C4A20850  43.609   8.445   8.052
 1427POPC   C1B20851  43.735   9.093   8.634
 1427POPC   C2B20852  43.651   9.217   8.177
 1427POPC   C3B20853  43.569   9.165   7.702
 1427POPC   C4B20854  43.414   9.068   7.283
 1428POPC   NC320855  23.310  14.222   9.486
 1428POPC   PO420856  23.940  14.598   9.471
 1428POPC   GL120857  23.709  14.377   9.215
 1428POPC   GL220858  23.547  14.633   9.049
 1428POPC   C1A20859  23.875  14.216   8.864
 1428POPC   D2A20860  23.808  14.123   8.484
 1428POPC   C3A20861  23.876  14.475   8.232
 1428POPC   C4A20862  24.177  14.493   7.914
 1428POPC   C1B20863  23.374  14.240   8.831
 1428POPC   C2B20864  23.303  14.146   8.420
 1428POPC   C3B20865  23.503  14.112   8.061
 1428POPC   C4B20866  23.654  14.404   7.777
 1429POPC   NC320867  14.747  18.616   9.521
 1429POPC   PO420868  14.203  19.085   9.447
 1429POPC   GL120869  14.313  19.070   9.078
 1429POPC   GL220870  14.623  18.879   9.105
 1429POPC   C1A20871  14.249  19.320   8.711
 1429POPC   D2A20872  14.395  19.209   8.289
 1429POPC   C3A20873  14.464  19.280   7.870
 1429POPC   C4A20874  14.193  19.287   7.573
 1429POPC   C1B20875  14.568  18.923   8.678
 1429POPC   C2B20876  14.468  18.712   8.332
 1429POPC   C3B20877  14.656  18.833   7.990
 1429POPC   C4B20878  14.465  18.777   7.613
 1430POPC   NC320879  13.658  35.688   9.461
 1430POPC   PO420880  13.112  35.345   9.421
 1430POPC   GL120881  13.502  35.330   9.151
 1430POPC   GL220882  13.550  35.643   8.980
 1430POPC   C1A20883  13.815  35.254   8.814
 1430POPC   D2A20884  13.981  35.142   8.412
 1430POPC   C3A20885  13.708  34.944   8.138
 1430POPC   C4A20886  13.815  34.992   7.705
 1430POPC   C1B20887  13.368  35.589   8.587
 1430POPC   C2B20888  13.282  35.277   8.311
 1430POPC   C3B20889  13.413  35.261   7.896
 1430POPC   C4B20890  13.805  35.498   7.789
 1431POPC   NC320891   6.466  41.335   9.489
 1431POPC   PO420892   6.439  40.641   9.560
 1431POPC   GL120893   6.655  40.907   9.238
 1431POPC   GL220894   6.638  40.618   9.043
 1431POPC   C1A20895   6.862  40.972   8.784
 1431POPC   D2A20896   6.781  40.790   8.377
 1431POPC   C3A20897   6.638  41.106   8.080
 1431POPC   C4A20898   6.518  41.138   7.659
 1431POPC   C1B20899   6.374  40.517   8.660
 1431POPC   C2B20900   6.278  40.283   8.289
 1431POPC   C3B20901   6.400  40.602   8.031
 1431POPC   C4B20902   6.676  40.663   7.709
 1432POPC   NC320903  19.987  36.385   9.288
 1432POPC   PO420904  19.608  36.025   9.728
 1432POPC   GL120905  19.930  35.904   9.178
 1432POPC   GL220906  20.293  35.734   9.134
 1432POPC   C1A20907  19.745  35.954   8.702
 1432POPC   D2A20908  19.468  36.212   8.448
 1432POPC   C3A20909  19.370  36.195   8.012
 1432POPC   C4A20910  19.592  36.080   7.661
 1432POPC   C1B20911  20.243  35.911   8.746
 1432POPC   C2B20912  20.050  35.793   8.343
 1432POPC   C3B20913  19.871  36.147   8.110
 1432POPC   C4B20914  20.064  36.300   7.718
 1433POPC   NC320915  29.428  44.129   9.727
 1433POPC   PO420916  30.066  44.009   9.432
 1433POPC   GL120917  30.033  43.969   9.051
 1433POPC   GL220918  30.226  43.638   9.038
 1433POPC   C1A20919  29.774  44.113   8.738
 1433POPC   D2A20920  29.923  44.120   8.338
 1433POPC   C3A20921  29.625  44.087   8.016
 1433POPC   C4A20922  29.654  44.233   7.632
 1433POPC   C1B20923  30.011  43.681   8.640
 1433POPC   C2B20924  29.772  43.638   8.262
 1433POPC   C3B20925  29.938  43.702   7.863
 1433POPC   C4B20926  30.326  43.903   7.703
 1434POPC   NC320927  32.629  21.484   9.390
 1434POPC   PO420928  32.230  21.092   9.744
 1434POPC   GL120929  32.361  21.113   9.219
 1434POPC   GL220930  32.086  21.230   8.994
 1434POPC   C1A20931  32.462  20.993   8.761
 1434POPC   D2A20932  32.154  20.926   8.404
 1434POPC   C3A20933  32.188  21.234   8.059
 1434POPC   C4A20934  32.530  21.205   7.788
 1434POPC   C1B20935  32.289  21.512   8.687
 1434POPC   C2B20936  32.240  21.694   8.269
 1434POPC   C3B20937  31.902  21.728   7.903
 1434POPC   C4B20938  31.892  21.639   7.393
 1435POPC   NC320939  23.501  38.186   9.703
 1435POPC   PO420940  23.996  37.869   9.284
 1435POPC   GL120941  23.634  38.173   9.153
 1435POPC   GL220942  23.338  38.385   9.240
 1435POPC   C1A20943  23.470  38.211   8.705
 1435POPC   D2A20944  23.685  38.268   8.338
 1435POPC   C3A20945  23.666  38.289   7.912
 1435POPC   C4A20946  23.868  38.679   7.744
 1435POPC   C1B20947  23.380  38.668   8.849
 1435POPC   C2B20948  23.503  38.757   8.398
 1435POPC   C3B20949  23.376  38.691   7.932
 1435POPC   C4B20950  23.341  38.762   7.457
 1436POPC   NC320951  35.137  19.626   9.318
 1436POPC   PO420952  35.749  19.970   9.481
 1436POPC   GL120953  35.492  19.925   9.101
 1436POPC   GL220954  35.226  20.176   9.113
 1436POPC   C1A20955  35.429  19.770   8.679
 1436POPC   D2A20956  35.142  19.767   8.347
 1436POPC   C3A20957  35.295  19.905   7.990
 1436POPC   C4A20958  35.322  20.048   7.596
 1436POPC   C1B20959  35.071  20.159   8.688
 1436POPC   C2B20960  35.038  20.270   8.258
 1436POPC   C3B20961  34.891  20.169   7.861
 1436POPC   C4B20962  34.843  20.006   7.437
 1437POPC   NC320963   8.017  33.237   9.541
 1437POPC   PO420964   8.190  32.584   9.521
 1437POPC   GL120965   8.287  32.924   9.235
 1437POPC   GL220966   7.959  32.973   9.080
 1437POPC   C1A20967   8.422  33.230   8.901
 1437POPC   D2A20968   8.696  33.258   8.530
 1437POPC   C3A20969   8.427  33.160   8.218
 1437POPC   C4A20970   8.426  33.184   7.793
 1437POPC   C1B20971   8.168  32.670   8.810
 1437POPC   C2B20972   8.349  32.676   8.387
 1437POPC   C3B20973   8.421  32.682   7.951
 1437POPC   C4B20974   8.046  32.624   7.691
 1438POPC   NC320975  34.666  23.301   9.501
 1438POPC   PO420976  34.479  22.628   9.418
 1438POPC   GL120977  34.641  22.936   9.136
 1438POPC   GL220978  34.370  23.143   9.047
 1438POPC   C1A20979  34.752  23.091   8.710
 1438POPC   D2A20980  34.772  23.375   8.329
 1438POPC   C3A20981  34.723  23.169   7.950
 1438POPC   C4A20982  34.805  22.727   7.922
 1438POPC   C1B20983  34.315  22.818   8.739
 1438POPC   C2B20984  34.453  22.851   8.324
 1438POPC   C3B20985  34.289  22.899   7.920
 1438POPC   C4B20986  34.491  23.022   7.509
 1439POPC   NC320987  19.514  33.258   9.513
 1439POPC   PO420988  19.997  33.691   9.543
 1439POPC   GL120989  19.750  34.012   9.291
 1439POPC   GL220990  19.739  33.714   9.103
 1439POPC   C1A20991  19.658  34.118   8.833
 1439POPC   D2A20992  19.795  34.017   8.408
 1439POPC   C3A20993  19.577  34.083   8.038
 1439POPC   C4A20994  19.555  33.920   7.649
 1439POPC   C1B20995  19.832  33.597   8.687
 1439POPC   C2B20996  19.832  33.497   8.256
 1439POPC   C3B20997  19.688  33.448   7.838
 1439POPC   C4B20998  19.977  33.623   7.551
 1440POPC   NC320999   7.183  43.361   9.442
 1440POPC   PO421000   7.778  42.967   9.533
 1440POPC   GL121001   7.494  43.002   9.202
 1440POPC   GL221002   7.597  43.340   9.155
 1440POPC   C1A21003   7.324  43.088   8.779
 1440POPC   D2A21004   7.382  43.331   8.387
 1440POPC   C3A21005   7.098  43.185   8.078
 1440POPC   C4A21006   7.244  42.927   7.770
 1440POPC   C1B21007   7.767  43.364   8.751
 1440POPC   C2B21008   7.844  43.035   8.466
 1440POPC   C3B21009   7.676  43.001   8.054
 1440POPC   C4B21010   7.566  43.362   7.839
 1441POPC   NC321011  15.477  40.053   9.730
 1441POPC   PO421012  14.796  39.923   9.493
 1441POPC   GL121013  15.153  40.090   9.245
 1441POPC   GL221014  15.441  39.859   9.208
 1441POPC   C1A21015  15.155  40.237   8.815
 1441POPC   D2A21016  15.053  40.443   8.433
 1441POPC   C3A21017  15.181  40.277   8.065
 1441POPC   C4A21018  15.486  40.486   7.792
 1441POPC   C1B21019  15.191  39.723   8.831
 1441POPC   C2B21020  15.139  39.865   8.383
 1441POPC   C3B21021  15.233  39.678   7.950
 1441POPC   C4B21022  15.505  39.703   7.570
 1442POPC   NC321023   1.786  14.502   9.437
 1442POPC   PO421024   2.432  14.728   9.362
 1442POPC   GL121025   2.137  14.530   9.054
 1442POPC   GL221026   2.245  14.207   9.091
 1442POPC   C1A21027   1.853  14.273   8.758
 1442POPC   D2A21028   1.932  14.115   8.325
 1442POPC   C3A21029   1.867  14.451   8.015
 1442POPC   C4A21030   1.951  14.808   7.730
 1442POPC   C1B21031   2.320  14.010   8.683
 1442POPC   C2B21032   2.418  14.040   8.204
 1442POPC   C3B21033   2.157  14.108   7.807
 1442POPC   C4B21034   1.961  14.359   7.461
 1443POPC   NC321035  40.423  14.962   9.434
 1443POPC   PO421036  39.878  15.428   9.443
 1443POPC   GL121037  39.937  15.185   9.074
 1443POPC   GL221038  40.254  15.182   8.985
 1443POPC   C1A21039  39.947  14.886   8.708
 1443POPC   D2A21040  40.242  14.968   8.396
 1443POPC   C3A21041  40.096  15.120   8.023
 1443POPC   C4A21042  39.962  15.057   7.618
 1443POPC   C1B21043  39.943  15.412   8.651
 1443POPC   C2B21044  39.790  15.452   8.249
 1443POPC   C3B21045  39.830  15.531   7.821
 1443POPC   C4B21046  39.754  15.453   7.389
 1444POPC   NC321047  11.427  19.422   9.524
 1444POPC   PO421048  10.919  19.754   9.755
 1444POPC   GL121049  11.136  19.804   9.264
 1444POPC   GL221050  10.975  19.617   8.964
 1444POPC   C1A21051  11.341  19.894   8.798
 1444POPC   D2A21052  11.183  20.014   8.367
 1444POPC   C3A21053  11.423  19.940   7.984
 1444POPC   C4A21054  11.299  19.761   7.594
 1444POPC   C1B21055  11.156  19.381   8.628
 1444POPC   C2B21056  11.168  19.451   8.188
 1444POPC   C3B21057  10.911  19.706   7.925
 1444POPC   C4B21058  10.773  19.530   7.557
 1445POPC   NC321059   5.356  23.195   9.480
 1445POPC   PO421060   4.933  22.712   9.514
 1445POPC   GL121061   5.124  22.839   9.184
 1445POPC   GL221062   4.854  22.932   9.018
 1445POPC   C1A21063   5.314  22.943   8.802
 1445POPC   D2A21064   5.103  23.039   8.413
 1445POPC   C3A21065   5.182  22.882   7.986
 1445POPC   C4A21066   4.876  22.700   7.649
 1445POPC   C1B21067   4.835  23.300   8.798
 1445POPC   C2B21068   4.724  23.477   8.441
 1445POPC   C3B21069   4.784  23.314   8.117
 1445POPC   C4B21070   4.813  23.183   7.782
 1446POPC   NC321071  23.176  32.911   9.466
 1446POPC   PO421072  23.783  33.145   9.563
 1446POPC   GL121073  23.584  33.107   9.183
 1446POPC   GL221074  23.595  32.758   9.227
 1446POPC   C1A21075  23.562  33.318   8.777
 1446POPC   D2A21076  23.778  33.292   8.406
 1446POPC   C3A21077  23.643  33.242   7.986
 1446POPC   C4A21078  23.860  33.045   7.618
 1446POPC   C1B21079  23.541  32.792   8.773
 1446POPC   C2B21080  23.464  32.878   8.352
 1446POPC   C3B21081  23.715  32.713   8.013
 1446POPC   C4B21082  23.591  32.605   7.603
 1447POPC   NC321083  19.073  22.926   9.448
 1447POPC   PO421084  18.497  22.604   9.639
 1447POPC   GL121085  18.648  22.751   9.162
 1447POPC   GL221086  18.995  22.796   8.979
 1447POPC   C1A21087  18.625  22.775   8.671
 1447POPC   D2A21088  18.922  22.771   8.355
 1447POPC   C3A21089  18.842  22.961   7.973
 1447POPC   C4A21090  18.940  22.962   7.524
 1447POPC   C1B21091  19.337  22.794   8.674
 1447POPC   C2B21092  19.421  22.899   8.257
 1447POPC   C3B21093  19.326  22.880   7.846
 1447POPC   C4B21094  19.320  22.590   7.500
 1448POPC   NC321095  36.079  32.634   9.544
 1448POPC   PO421096  36.072  31.878   9.586
 1448POPC   GL121097  35.929  32.111   9.219
 1448POPC   GL221098  36.209  32.350   9.131
 1448POPC   C1A21099  35.941  32.122   8.766
 1448POPC   D2A21100  36.189  32.124   8.434
 1448POPC   C3A21101  35.894  32.208   8.131
 1448POPC   C4A21102  35.905  32.081   7.719
 1448POPC   C1B21103  36.231  32.570   8.718
 1448POPC   C2B21104  36.219  32.612   8.280
 1448POPC   C3B21105  36.155  32.536   7.851
 1448POPC   C4B21106  36.353  32.233   7.565
 1449POPC   NC321107  43.798  42.678   9.676
 1449POPC   PO421108  44.040  43.303   9.510
 1449POPC   GL121109  43.916  43.035   9.155
 1449POPC   GL221110  44.107  42.703   9.149
 1449POPC   C1A21111  43.635  43.205   8.789
 1449POPC   D2A21112  43.503  43.190   8.355
 1449POPC   C3A21113  43.842  43.202   8.096
 1449POPC   C4A21114  43.675  43.264   7.725
 1449POPC   C1B21115  43.951  42.666   8.736
 1449POPC   C2B21116  43.877  42.758   8.331
 1449POPC   C3B21117  43.653  42.745   7.966
 1449POPC   C4B21118  43.865  42.803   7.623
 1450POPC   NC321119   9.290   8.048   9.296
 1450POPC   PO421120   9.816   8.444   9.534
 1450POPC   GL121121   9.756   8.214   9.178
 1450POPC   GL221122   9.964   7.934   9.064
 1450POPC   C1A21123   9.645   8.249   8.782
 1450POPC   D2A21124   9.909   8.200   8.475
 1450POPC   C3A21125   9.720   8.232   8.098
 1450POPC   C4A21126   9.588   8.147   7.686
 1450POPC   C1B21127   9.762   7.751   8.718
 1450POPC   C2B21128   9.392   7.826   8.517
 1450POPC   C3B21129   9.378   7.850   8.093
 1450POPC   C4B21130   9.637   7.667   7.797
 1451POPC   NC321131  17.439  38.907   9.701
 1451POPC   PO421132  17.804  38.391   9.458
 1451POPC   GL121133  17.702  38.757   9.221
 1451POPC   GL221134  17.358  38.732   9.224
 1451POPC   C1A21135  17.848  38.723   8.793
 1451POPC   D2A21136  17.916  38.366   8.478
 1451POPC   C3A21137  17.653  38.301   8.122
 1451POPC   C4A21138  17.783  38.455   7.757
 1451POPC   C1B21139  17.284  38.754   8.803
 1451POPC   C2B21140  17.429  38.676   8.406
 1451POPC   C3B21141  17.560  38.824   8.021
 1451POPC   C4B21142  17.436  38.781   7.579
 1452POPC   NC321143  43.648   9.480  10.003
 1452POPC   PO421144  44.230   9.666   9.751
 1452POPC   GL121145  43.945   9.706   9.362
 1452POPC   GL221146  44.053   9.390   9.250
 1452POPC   C1A21147  43.773   9.593   8.906
 1452POPC   D2A21148  43.893   9.593   8.492
 1452POPC   C3A21149  43.586   9.725   8.193
 1452POPC   C4A21150  43.691   9.641   7.782
 1452POPC   C1B21151  44.204   9.274   8.850
 1452POPC   C2B21152  44.378   9.383   8.473
 1452POPC   C3B21153  44.203   9.478   8.090
 1452POPC   C4B21154  44.082   9.232   7.757
 1453POPC   NC321155  37.480   5.550   9.561
 1453POPC   PO421156  38.116   5.417   9.498
 1453POPC   GL121157  37.879   5.267   9.154
 1453POPC   GL221158  37.474   5.288   9.118
 1453POPC   C1A21159  38.020   5.065   8.793
 1453POPC   D2A21160  37.955   5.224   8.398
 1453POPC   C3A21161  37.991   4.952   8.044
 1453POPC   C4A21162  37.659   5.113   7.778
 1453POPC   C1B21163  37.501   5.063   8.707
 1453POPC   C2B21164  37.523   4.910   8.259
 1453POPC   C3B21165  37.324   4.726   7.874
 1453POPC   C4B21166  37.457   4.785   7.435
 1454POPC   NC321167  30.860  13.707   9.564
 1454POPC   PO421168  30.244  13.429   9.700
 1454POPC   GL121169  30.485  13.494   9.266
 1454POPC   GL221170  30.793  13.318   9.224
 1454POPC   C1A21171  30.555  13.604   8.804
 1454POPC   D2A21172  30.853  13.768   8.477
 1454POPC   C3A21173  30.714  13.925   8.073
 1454POPC   C4A21174  30.488  13.757   7.725
 1454POPC   C1B21175  31.005  13.361   8.836
 1454POPC   C2B21176  30.822  13.261   8.422
 1454POPC   C3B21177  30.778  13.409   8.029
 1454POPC   C4B21178  30.748  13.343   7.604
 1455POPC   NC321179   7.856  15.188   9.516
 1455POPC   PO421180   8.442  15.626   9.462
 1455POPC   GL121181   8.254  15.329   9.125
 1455POPC   GL221182   8.076  15.003   9.106
 1455POPC   C1A21183   8.322  15.144   8.696
 1455POPC   D2A21184   8.252  15.198   8.256
 1455POPC   C3A21185   8.418  14.905   7.930
 1455POPC   C4A21186   8.431  14.961   7.469
 1455POPC   C1B21187   7.908  14.722   8.768
 1455POPC   C2B21188   7.692  14.722   8.366
 1455POPC   C3B21189   7.929  14.643   7.975
 1455POPC   C4B21190   7.956  14.841   7.592
 1456POPC   NC321191   4.869  18.794   9.478
 1456POPC   PO421192   5.335  19.259   9.444
 1456POPC   GL121193   5.058  19.158   9.124
 1456POPC   GL221194   4.761  19.263   9.206
 1456POPC   C1A21195   5.089  19.127   8.692
 1456POPC   D2A21196   5.438  19.083   8.444
 1456POPC   C3A21197   5.362  18.997   8.062
 1456POPC   C4A21198   5.131  19.218   7.797
 1456POPC   C1B21199   4.670  18.891   8.886
 1456POPC   C2B21200   4.830  18.702   8.515
 1456POPC   C3B21201   4.884  18.907   8.160
 1456POPC   C4B21202   4.706  18.926   7.770
 1457POPC   NC321203  14.541  30.398   9.806
 1457POPC   PO421204  14.367  30.980   9.423
 1457POPC   GL121205  14.176  30.749   9.130
 1457POPC   GL221206  14.423  30.878   8.919
 1457POPC   C1A21207  14.201  30.426   8.784
 1457POPC   D2A21208  14.411  30.296   8.377
 1457POPC   C3A21209  14.199  30.428   7.984
 1457POPC   C4A21210  14.232  30.615   7.584
 1457POPC   C1B21211  14.782  31.052   8.778
 1457POPC   C2B21212  14.866  30.815   8.441
 1457POPC   C3B21213  14.622  30.728   8.108
 1457POPC   C4B21214  14.602  30.936   7.734
 1458POPC   NC321215  43.387  39.537   9.497
 1458POPC   PO421216  43.417  40.192   9.362
 1458POPC   GL121217  43.149  40.043   9.054
 1458POPC   GL221218  42.912  40.332   9.091
 1458POPC   C1A21219  43.017  39.863   8.624
 1458POPC   D2A21220  43.258  39.788   8.221
 1458POPC   C3A21221  43.045  39.893   7.806
 1458POPC   C4A21222  42.688  39.786   7.532
 1458POPC   C1B21223  43.071  40.355   8.670
 1458POPC   C2B21224  43.032  40.266   8.242
 1458POPC   C3B21225  43.015  40.439   7.836
 1458POPC   C4B21226  42.843  40.272   7.450
 1459POPC   NC321227  13.326   9.972   9.562
 1459POPC   PO421228  14.036   9.981   9.548
 1459POPC   GL121229  13.757   9.856   9.196
 1459POPC   GL221230  13.487   9.604   9.241
 1459POPC   C1A21231  13.763   9.592   8.804
 1459POPC   D2A21232  13.591   9.489   8.389
 1459POPC   C3A21233  13.834   9.523   8.025
 1459POPC   C4A21234  13.755   9.585   7.595
 1459POPC   C1B21235  13.262   9.757   8.846
 1459POPC   C2B21236  13.183   9.789   8.391
 1459POPC   C3B21237  13.470   9.985   8.060
 1459POPC   C4B21238  13.471  10.021   7.583
 1460POPC   NC321239   3.596  29.432   9.377
 1460POPC   PO421240   3.803  28.820   9.409
 1460POPC   GL121241   3.541  28.840   9.056
 1460POPC   GL221242   3.568  29.210   8.936
 1460POPC   C1A21243   3.425  28.872   8.609
 1460POPC   D2A21244   3.361  29.271   8.453
 1460POPC   C3A21245   3.254  29.178   8.077
 1460POPC   C4A21246   3.511  29.009   7.750
 1460POPC   C1B21247   3.919  29.472   8.781
 1460POPC   C2B21248   4.121  29.511   8.401
 1460POPC   C3B21249   3.918  29.488   7.989
 1460POPC   C4B21250   3.943  29.804   7.692
 1461POPC   NC321251  14.212  39.525   9.693
 1461POPC   PO421252  14.676  39.062   9.568
 1461POPC   GL121253  14.441  39.145   9.176
 1461POPC   GL221254  14.204  39.457   9.174
 1461POPC   C1A21255  14.323  39.177   8.734
 1461POPC   D2A21256  14.419  39.259   8.296
 1461POPC   C3A21257  14.117  39.196   7.982
 1461POPC   C4A21258  14.080  38.899   7.657
 1461POPC   C1B21259  14.209  39.686   8.762
 1461POPC   C2B21260  14.138  39.698   8.300
 1461POPC   C3B21261  14.118  39.686   7.859
 1461POPC   C4B21262  14.468  39.703   7.561
 1462POPC   NC321263  23.177   4.509   9.923
 1462POPC   PO421264  22.888   5.064   9.547
 1462POPC   GL121265  22.919   5.157   9.124
 1462POPC   GL221266  22.692   5.407   8.994
 1462POPC   C1A21267  22.888   4.962   8.717
 1462POPC   D2A21268  22.970   5.100   8.274
 1462POPC   C3A21269  22.932   4.870   7.929
 1462POPC   C4A21270  22.954   5.030   7.547
 1462POPC   C1B21271  23.034   5.438   8.624
 1462POPC   C2B21272  23.321   5.468   8.253
 1462POPC   C3B21273  23.142   5.435   7.799
 1462POPC   C4B21274  23.038   5.457   7.287
 1463POPC   NC321275  25.972   2.412   9.613
 1463POPC   PO421276  26.186   2.979   9.618
 1463POPC   GL121277  25.831   2.822   9.337
 1463POPC   GL221278  26.099   2.686   9.186
 1463POPC   C1A21279  25.759   2.895   8.861
 1463POPC   D2A21280  26.013   2.942   8.464
 1463POPC   C3A21281  25.864   2.858   8.037
 1463POPC   C4A21282  26.052   2.504   7.816
 1463POPC   C1B21283  26.262   2.611   8.797
 1463POPC   C2B21284  26.512   2.736   8.486
 1463POPC   C3B21285  26.375   2.833   8.093
 1463POPC   C4B21286  26.502   3.025   7.741
 1464POPC   NC321287  22.695  30.099   9.518
 1464POPC   PO421288  23.007  29.517   9.455
 1464POPC   GL121289  22.768  29.710   9.117
 1464POPC   GL221290  22.723  30.057   9.025
 1464POPC   C1A21291  22.949  29.755   8.709
 1464POPC   D2A21292  23.205  29.799   8.353
 1464POPC   C3A21293  22.980  30.017   8.024
 1464POPC   C4A21294  22.869  29.829   7.607
 1464POPC   C1B21295  23.010  30.265   8.733
 1464POPC   C2B21296  23.325  30.302   8.386
 1464POPC   C3B21297  23.536  30.134   8.012
 1464POPC   C4B21298  23.321  30.104   7.642
 1465POPC   NC321299   4.083  23.826   9.652
 1465POPC   PO421300   4.111  23.269   9.393
 1465POPC   GL121301   4.342  23.606   9.231
 1465POPC   GL221302   4.127  23.904   9.149
 1465POPC   C1A21303   4.391  23.605   8.801
 1465POPC   D2A21304   4.201  23.352   8.482
 1465POPC   C3A21305   4.272  23.498   8.090
 1465POPC   C4A21306   4.542  23.629   7.792
 1465POPC   C1B21307   3.962  23.879   8.736
 1465POPC   C2B21308   4.079  23.942   8.290
 1465POPC   C3B21309   4.143  23.934   7.837
 1465POPC   C4B21310   4.098  24.015   7.368
 1466POPC   NC321311  41.117  35.979   9.388
 1466POPC   PO421312  40.600  36.420   9.549
 1466POPC   GL121313  40.817  36.398   9.173
 1466POPC   GL221314  40.767  36.072   9.025
 1466POPC   C1A21315  40.960  36.437   8.750
 1466POPC   D2A21316  40.914  36.162   8.406
 1466POPC   C3A21317  40.942  36.414   8.063
 1466POPC   C4A21318  41.173  36.384   7.685
 1466POPC   C1B21319  40.470  36.044   8.692
 1466POPC   C2B21320  40.490  35.869   8.304
 1466POPC   C3B21321  40.829  35.838   8.013
 1466POPC   C4B21322  40.755  36.100   7.692
 1467POPC   NC321323  24.276   8.619   9.299
 1467POPC   PO421324  24.737   8.742   9.811
 1467POPC   GL121325  24.761   8.838   9.337
 1467POPC   GL221326  24.605   9.168   9.303
 1467POPC   C1A21327  24.741   8.679   8.864
 1467POPC   D2A21328  24.444   8.774   8.497
 1467POPC   C3A21329  24.657   8.736   8.113
 1467POPC   C4A21330  24.511   8.745   7.705
 1467POPC   C1B21331  24.479   9.160   8.865
 1467POPC   C2B21332  24.444   9.310   8.448
 1467POPC   C3B21333  24.325   9.140   8.057
 1467POPC   C4B21334  24.556   9.256   7.698
 1468POPC   NC321335  33.310  38.401   9.628
 1468POPC   PO421336  33.940  38.769   9.696
 1468POPC   GL121337  33.861  38.522   9.269
 1468POPC   GL221338  33.982  38.750   9.102
 1468POPC   C1A21339  33.820  38.433   8.744
 1468POPC   D2A21340  33.612  38.345   8.297
 1468POPC   C3A21341  33.861  38.195   7.943
 1468POPC   C4A21342  34.066  38.014   7.612
 1468POPC   C1B21343  33.751  38.931   8.783
 1468POPC   C2B21344  33.819  38.825   8.395
 1468POPC   C3B21345  33.907  38.686   8.018
 1468POPC   C4B21346  33.520  38.542   7.791
 1469POPC   NC321347  34.315  17.951   9.373
 1469POPC   PO421348  33.800  18.354   9.664
 1469POPC   GL121349  33.779  18.527   9.243
 1469POPC   GL221350  34.022  18.297   9.136
 1469POPC   C1A21351  33.629  18.460   8.822
 1469POPC   D2A21352  33.879  18.413   8.458
 1469POPC   C3A21353  33.754  18.271   8.057
 1469POPC   C4A21354  33.435  18.509   7.866
 1469POPC   C1B21355  33.994  18.023   8.777
 1469POPC   C2B21356  34.194  18.034   8.359
 1469POPC   C3B21357  34.180  17.930   7.929
 1469POPC   C4B21358  34.156  18.252   7.622
 1470POPC   NC321359  24.949  22.338   9.386
 1470POPC   PO421360  25.668  22.266   9.494
 1470POPC   GL121361  25.402  22.183   9.168
 1470POPC   GL221362  25.187  21.915   9.192
 1470POPC   C1A21363  25.392  22.328   8.765
 1470POPC   D2A21364  25.534  22.431   8.344
 1470POPC   C3A21365  25.321  22.318   7.981
 1470POPC   C4A21366  25.152  22.215   7.573
 1470POPC   C1B21367  24.991  21.943   8.802
 1470POPC   C2B21368  25.159  22.058   8.408
 1470POPC   C3B21369  25.117  21.866   8.039
 1470POPC   C4B21370  25.014  21.723   7.661
 1471POPC   NC321371  21.491  35.562   9.621
 1471POPC   PO421372  20.888  35.189   9.626
 1471POPC   GL121373  21.162  35.094   9.245
 1471POPC   GL221374  21.301  35.398   9.169
 1471POPC   C1A21375  21.335  34.958   8.830
 1471POPC   D2A21376  21.287  35.218   8.446
 1471POPC   C3A21377  21.221  35.053   8.022
 1471POPC   C4A21378  21.346  35.205   7.602
 1471POPC   C1B21379  21.180  35.593   8.796
 1471POPC   C2B21380  21.085  35.691   8.380
 1471POPC   C3B21381  21.209  35.577   7.943
 1471POPC   C4B21382  21.115  35.665   7.489
 1472POPC   NC321383  17.269  39.482   9.694
 1472POPC   PO421384  17.867  39.116   9.637
 1472POPC   GL121385  17.580  39.276   9.284
 1472POPC   GL221386  17.422  39.628   9.234
 1472POPC   C1A21387  17.499  39.249   8.837
 1472POPC   D2A21388  17.733  39.107   8.488
 1472POPC   C3A21389  17.694  39.310   8.139
 1472POPC   C4A21390  17.512  39.254   7.747
 1472POPC   C1B21391  17.253  39.722   8.812
 1472POPC   C2B21392  17.269  39.496   8.420
 1472POPC   C3B21393  17.169  39.158   8.146
 1472POPC   C4B21394  16.988  39.200   7.726
 1473POPC   NC321395  31.129   6.141   9.356
 1473POPC   PO421396  31.411   5.539   9.594
 1473POPC   GL121397  31.482   5.764   9.244
 1473POPC   GL221398  31.193   5.607   9.083
 1473POPC   C1A21399  31.667   5.727   8.835
 1473POPC   D2A21400  31.731   5.873   8.421
 1473POPC   C3A21401  31.673   5.564   8.096
 1473POPC   C4A21402  31.839   5.673   7.674
 1473POPC   C1B21403  31.129   5.852   8.696
 1473POPC   C2B21404  31.261   5.884   8.265
 1473POPC   C3B21405  31.452   5.942   7.854
 1473POPC   C4B21406  31.302   5.717   7.508
 1474POPC   NC321407  15.054  29.741   9.638
 1474POPC   PO421408  15.001  30.328   9.308
 1474POPC   GL121409  15.127  29.948   9.141
 1474POPC   GL221410  14.936  29.613   9.143
 1474POPC   C1A21411  15.260  29.960   8.733
 1474POPC   D2A21412  15.062  29.872   8.363
 1474POPC   C3A21413  15.261  29.861   7.984
 1474POPC   C4A21414  15.049  30.021   7.653
 1474POPC   C1B21415  15.004  29.484   8.696
 1474POPC   C2B21416  15.170  29.377   8.266
 1474POPC   C3B21417  14.921  29.478   7.900
 1474POPC   C4B21418  14.990  29.542   7.482
 1475POPC   NC321419   5.020   1.075   9.585
 1475POPC   PO421420   5.506   1.484   9.420
 1475POPC   GL121421   5.253   1.394   9.027
 1475POPC   GL221422   4.942   1.182   9.100
 1475POPC   C1A21423   5.090   1.244   8.609
 1475POPC   D2A21424   4.926   0.915   8.352
 1475POPC   C3A21425   5.045   0.930   7.904
 1475POPC   C4A21426   5.206   1.314   7.816
 1475POPC   C1B21427   4.730   1.530   8.875
 1475POPC   C2B21428   4.890   1.707   8.487
 1475POPC   C3B21429   4.787   1.549   8.069
 1475POPC   C4B21430   4.731   1.411   7.640
 1476POPC   NC321431  11.351  16.204   9.687
 1476POPC   PO421432  10.979  15.701   9.498
 1476POPC   GL121433  11.252  15.880   9.194
 1476POPC   GL221434  11.432  16.151   9.193
 1476POPC   C1A21435  11.197  15.869   8.788
 1476POPC   D2A21436  10.866  15.896   8.516
 1476POPC   C3A21437  11.000  15.786   8.109
 1476POPC   C4A21438  11.154  15.945   7.747
 1476POPC   C1B21439  11.624  16.159   8.787
 1476POPC   C2B21440  11.446  16.159   8.390
 1476POPC   C3B21441  11.588  15.974   8.039
 1476POPC   C4B21442  11.585  16.180   7.687
 1477POPC   NC321443  34.577   4.411   9.914
 1477POPC   PO421444  34.250   3.908   9.550
 1477POPC   GL121445  34.264   4.142   9.122
 1477POPC   GL221446  34.542   4.407   9.038
 1477POPC   C1A21447  34.161   4.339   8.722
 1477POPC   D2A21448  34.437   4.334   8.405
 1477POPC   C3A21449  34.456   4.650   8.182
 1477POPC   C4A21450  34.438   4.545   7.780
 1477POPC   C1B21451  34.622   4.697   8.698
 1477POPC   C2B21452  34.924   4.573   8.409
 1477POPC   C3B21453  34.861   4.293   8.092
 1477POPC   C4B21454  34.925   4.399   7.694
 1478POPC   NC321455  26.428  36.840   9.661
 1478POPC   PO421456  27.030  37.128   9.468
 1478POPC   GL121457  26.752  36.843   9.216
 1478POPC   GL221458  26.379  36.965   9.159
 1478POPC   C1A21459  26.841  36.629   8.803
 1478POPC   D2A21460  27.119  36.757   8.452
 1478POPC   C3A21461  27.029  36.832   8.020
 1478POPC   C4A21462  26.867  36.669   7.637
 1478POPC   C1B21463  26.635  37.086   8.785
 1478POPC   C2B21464  26.696  37.017   8.369
 1478POPC   C3B21465  26.752  37.262   8.003
 1478POPC   C4B21466  26.899  37.161   7.606
 1479POPC   NC321467   7.351   1.643   9.483
 1479POPC   PO421468   7.719   2.168   9.496
 1479POPC   GL121469   7.549   2.003   9.150
 1479POPC   GL221470   7.270   2.176   9.097
 1479POPC   C1A21471   7.540   1.816   8.757
 1479POPC   D2A21472   7.724   1.686   8.363
 1479POPC   C3A21473   7.378   1.831   8.171
 1479POPC   C4A21474   7.253   1.988   7.820
 1479POPC   C1B21475   7.218   2.239   8.638
 1479POPC   C2B21476   7.100   2.343   8.204
 1479POPC   C3B21477   7.242   2.518   7.836
 1479POPC   C4B21478   7.629   2.308   7.727
 1480POPC   NC321479   8.838   2.405   9.354
 1480POPC   PO421480   9.318   1.926   9.535
 1480POPC   GL121481   9.191   2.080   9.161
 1480POPC   GL221482   8.845   1.913   9.125
 1480POPC   C1A21483   9.051   2.202   8.747
 1480POPC   D2A21484   8.845   1.985   8.438
 1480POPC   C3A21485   9.055   2.017   8.099
 1480POPC   C4A21486   8.960   2.201   7.733
 1480POPC   C1B21487   8.513   2.099   8.831
 1480POPC   C2B21488   8.398   2.237   8.421
 1480POPC   C3B21489   8.527   2.125   7.988
 1480POPC   C4B21490   8.558   1.948   7.530
 1481POPC   NC321491  27.864  16.276   9.688
 1481POPC   PO421492  27.367  15.832   9.750
 1481POPC   GL121493  27.407  15.937   9.284
 1481POPC   GL221494  27.702  16.088   9.259
 1481POPC   C1A21495  27.629  15.773   8.886
 1481POPC   D2A21496  27.557  15.976   8.484
 1481POPC   C3A21497  27.752  15.774   8.138
 1481POPC   C4A21498  27.724  15.888   7.722
 1481POPC   C1B21499  27.769  16.256   8.866
 1481POPC   C2B21500  27.953  16.327   8.482
 1481POPC   C3B21501  27.755  16.288   8.107
 1481POPC   C4B21502  27.783  16.492   7.744
 1482POPC   NC321503  10.203  17.651   9.648
 1482POPC   PO421504   9.553  17.639   9.764
 1482POPC   GL121505   9.695  17.471   9.323
 1482POPC   GL221506   9.506  17.177   9.146
 1482POPC   C1A21507   9.729  17.634   8.907
 1482POPC   D2A21508   9.703  17.806   8.485
 1482POPC   C3A21509   9.993  17.640   8.186
 1482POPC   C4A21510   9.912  17.643   7.754
 1482POPC   C1B21511   9.387  17.331   8.750
 1482POPC   C2B21512   9.600  17.318   8.398
 1482POPC   C3B21513   9.526  17.475   8.015
 1482POPC   C4B21514   9.596  17.262   7.611
 1483POPC   NC321515   2.442  40.447   9.317
 1483POPC   PO421516   3.058  40.675   9.518
 1483POPC   GL121517   2.856  40.679   9.142
 1483POPC   GL221518   2.625  40.953   9.157
 1483POPC   C1A21519   2.609  40.649   8.752
 1483POPC   D2A21520   2.515  40.765   8.377
 1483POPC   C3A21521   2.572  40.438   8.123
 1483POPC   C4A21522   2.632  40.575   7.720
 1483POPC   C1B21523   2.959  41.032   8.796
 1483POPC   C2B21524   3.204  41.116   8.423
 1483POPC   C3B21525   3.118  41.269   8.019
 1483POPC   C4B21526   3.042  41.077   7.637
 1484POPC   NC321527  41.996  43.361   9.591
 1484POPC   PO421528  41.391  42.976   9.442
 1484POPC   GL121529  41.750  43.057   9.234
 1484POPC   GL221530  41.913  42.730   9.174
 1484POPC   C1A21531  41.695  43.311   8.853
 1484POPC   D2A21532  41.453  43.185   8.477
 1484POPC   C3A21533  41.637  43.221   8.075
 1484POPC   C4A21534  41.517  43.489   7.760
 1484POPC   C1B21535  41.701  42.797   8.800
 1484POPC   C2B21536  41.844  42.857   8.387
 1484POPC   C3B21537  41.665  42.708   7.996
 1484POPC   C4B21538  41.603  42.777   7.561
 1485POPC   NC321539  18.200  16.685   9.489
 1485POPC   PO421540  18.792  16.977   9.412
 1485POPC   GL121541  18.573  16.655   9.131
 1485POPC   GL221542  18.646  16.842   8.853
 1485POPC   C1A21543  18.218  16.560   8.823
 1485POPC   D2A21544  18.297  16.786   8.444
 1485POPC   C3A21545  18.360  16.649   8.053
 1485POPC   C4A21546  18.209  16.676   7.682
 1485POPC   C1B21547  18.574  17.190   8.643
 1485POPC   C2B21548  18.590  17.189   8.202
 1485POPC   C3B21549  18.601  17.024   7.752
 1485POPC   C4B21550  18.521  16.932   7.274
 1486POPC   NC321551  40.948  33.734   9.460
 1486POPC   PO421552  40.337  34.164   9.452
 1486POPC   GL121553  40.400  33.867   9.146
 1486POPC   GL221554  40.746  33.854   9.000
 1486POPC   C1A21555  40.370  33.564   8.816
 1486POPC   D2A21556  40.648  33.446   8.522
 1486POPC   C3A21557  40.478  33.649   8.163
 1486POPC   C4A21558  40.660  33.636   7.770
 1486POPC   C1B21559  41.097  33.649   8.801
 1486POPC   C2B21560  41.200  33.678   8.381
 1486POPC   C3B21561  41.160  33.576   7.934
 1486POPC   C4B21562  41.049  33.673   7.475
 1487POPC   NC321563  34.927   4.912   9.618
 1487POPC   PO421564  35.413   5.318   9.517
 1487POPC   GL121565  35.299   5.077   9.179
 1487POPC   GL221566  35.296   4.733   9.272
 1487POPC   C1A21567  35.510   5.159   8.781
 1487POPC   D2A21568  35.524   5.318   8.362
 1487POPC   C3A21569  35.308   5.123   8.012
 1487POPC   C4A21570  35.446   5.284   7.646
 1487POPC   C1B21571  35.355   4.639   8.829
 1487POPC   C2B21572  35.389   4.824   8.426
 1487POPC   C3B21573  35.747   4.902   8.141
 1487POPC   C4B21574  35.737   4.873   7.711
 1488POPC   NC321575  23.902  13.237   9.485
 1488POPC   PO421576  23.614  13.872   9.538
 1488POPC   GL121577  23.530  13.818   9.124
 1488POPC   GL221578  23.658  13.465   9.066
 1488POPC   C1A21579  23.516  13.759   8.685
 1488POPC   D2A21580  23.685  13.658   8.292
 1488POPC   C3A21581  23.463  13.621   7.919
 1488POPC   C4A21582  23.668  13.896   7.638
 1488POPC   C1B21583  23.985  13.528   8.709
 1488POPC   C2B21584  24.046  13.306   8.288
 1488POPC   C3B21585  23.948  13.485   7.848
 1488POPC   C4B21586  23.995  13.228   7.426
 1489POPC   NC321587   5.230  28.201   9.606
 1489POPC   PO421588   5.568  28.758   9.748
 1489POPC   GL121589   5.362  28.705   9.267
 1489POPC   GL221590   5.069  28.520   9.238
 1489POPC   C1A21591   5.207  28.601   8.773
 1489POPC   D2A21592   5.160  28.423   8.344
 1489POPC   C3A21593   5.025  28.561   7.948
 1489POPC   C4A21594   5.182  28.543   7.507
 1489POPC   C1B21595   4.966  28.157   8.940
 1489POPC   C2B21596   4.847  28.043   8.511
 1489POPC   C3B21597   4.923  28.049   8.068
 1489POPC   C4B21598   4.841  28.166   7.614
 1490POPC   NC321599  13.722  40.069   9.477
 1490POPC   PO421600  13.099  39.910   9.610
 1490POPC   GL121601  13.296  39.846   9.195
 1490POPC   GL221602  13.616  39.843   9.041
 1490POPC   C1A21603  13.241  39.760   8.722
 1490POPC   D2A21604  13.324  39.976   8.327
 1490POPC   C3A21605  13.658  39.929   8.066
 1490POPC   C4A21606  13.344  39.968   7.733
 1490POPC   C1B21607  13.755  39.850   8.601
 1490POPC   C2B21608  14.002  40.192   8.410
 1490POPC   C3B21609  13.968  40.401   8.001
 1490POPC   C4B21610  13.762  40.204   7.647
 1491POPC   NC321611  27.714  38.273   9.470
 1491POPC   PO421612  27.378  38.839   9.464
 1491POPC   GL121613  27.485  38.569   9.118
 1491POPC   GL221614  27.238  38.327   9.133
 1491POPC   C1A21615  27.576  38.302   8.722
 1491POPC   D2A21616  27.632  38.262   8.244
 1491POPC   C3A21617  27.767  38.591   7.934
 1491POPC   C4A21618  27.924  38.850   7.573
 1491POPC   C1B21619  27.156  38.596   8.737
 1491POPC   C2B21620  27.196  38.559   8.277
 1491POPC   C3B21621  27.301  38.425   7.857
 1491POPC   C4B21622  27.565  38.456   7.475
 1492POPC   NC321623  37.086  32.750   9.515
 1492POPC   PO421624  36.907  33.386   9.695
 1492POPC   GL121625  36.999  33.218   9.269
 1492POPC   GL221626  36.812  32.918   9.124
 1492POPC   C1A21627  36.932  33.309   8.830
 1492POPC   D2A21628  36.845  33.096   8.437
 1492POPC   C3A21629  36.694  33.367   8.120
 1492POPC   C4A21630  36.968  33.223   7.805
 1492POPC   C1B21631  37.136  32.831   8.799
 1492POPC   C2B21632  37.216  32.717   8.359
 1492POPC   C3B21633  36.996  32.721   7.964
 1492POPC   C4B21634  37.052  32.834   7.485
 1493POPC   NC321635  22.826  42.817   9.461
 1493POPC   PO421636  22.602  43.285   9.806
 1493POPC   GL121637  22.660  43.261   9.296
 1493POPC   GL221638  22.991  43.335   9.111
 1493POPC   C1A21639  22.672  43.069   8.853
 1493POPC   D2A21640  22.874  43.295   8.504
 1493POPC   C3A21641  22.955  43.120   8.107
 1493POPC   C4A21642  22.724  42.977   7.727
 1493POPC   C1B21643  23.191  43.026   8.811
 1493POPC   C2B21644  23.382  42.994   8.420
 1493POPC   C3B21645  23.479  42.984   8.025
 1493POPC   C4B21646  23.232  43.102   7.670
 1494POPC   NC321647  14.268  42.858   9.577
 1494POPC   PO421648  14.525  43.501   9.588
 1494POPC   GL121649  14.426  43.178   9.217
 1494POPC   GL221650  14.667  42.880   9.180
 1494POPC   C1A21651  14.382  43.025   8.779
 1494POPC   D2A21652  14.078  42.899   8.486
 1494POPC   C3A21653  14.238  43.062   8.126
 1494POPC   C4A21654  13.997  43.079   7.780
 1494POPC   C1B21655  14.876  42.917   8.765
 1494POPC   C2B21656  14.814  43.177   8.468
 1494POPC   C3B21657  14.804  43.035   8.068
 1494POPC   C4B21658  14.530  43.004   7.717
 1495POPC   NC321659  37.166   4.893   9.439
 1495POPC   PO421660  36.995   4.253   9.486
 1495POPC   GL121661  36.810   4.145   9.134
 1495POPC   GL221662  36.682   4.467   9.043
 1495POPC   C1A21663  36.931   4.183   8.703
 1495POPC   D2A21664  36.646   4.295   8.380
 1495POPC   C3A21665  36.801   4.082   8.023
 1495POPC   C4A21666  37.107   4.193   7.749
 1495POPC   C1B21667  36.978   4.699   8.758
 1495POPC   C2B21668  37.074   4.575   8.308
 1495POPC   C3B21669  36.795   4.581   7.944
 1495POPC   C4B21670  36.712   4.770   7.570
 1496POPC   NC321671  43.681  28.069   9.482
 1496POPC   PO421672  43.792  28.811   9.534
 1496POPC   GL121673  43.854  28.485   9.213
 1496POPC   GL221674  44.067  28.170   9.185
 1496POPC   C1A21675  44.006  28.496   8.791
 1496POPC   D2A21676  44.031  28.300   8.432
 1496POPC   C3A21677  44.034  28.541   8.117
 1496POPC   C4A21678  43.954  28.435   7.700
 1496POPC   C1B21679  43.800  27.996   8.837
 1496POPC   C2B21680  43.580  28.099   8.463
 1496POPC   C3B21681  43.760  28.077   8.056
 1496POPC   C4B21682  43.825  27.919   7.658
 1497POPC   NC321683  17.330  22.520   9.327
 1497POPC   PO421684  17.669  22.085   9.684
 1497POPC   GL121685  17.593  22.050   9.257
 1497POPC   GL221686  17.818  22.268   9.209
 1497POPC   C1A21687  17.593  22.017   8.798
 1497POPC   D2A21688  17.235  22.150   8.556
 1497POPC   C3A21689  17.141  22.054   8.131
 1497POPC   C4A21690  17.155  22.368   7.825
 1497POPC   C1B21691  17.958  22.354   8.827
 1497POPC   C2B21692  17.739  22.329   8.399
 1497POPC   C3B21693  17.832  22.235   7.959
 1497POPC   C4B21694  18.020  22.540   7.703
 1498POPC   NC321695  30.452  29.204   9.435
 1498POPC   PO421696  31.149  29.289   9.347
 1498POPC   GL121697  30.848  29.050   9.158
 1498POPC   GL221698  31.071  28.982   8.932
 1498POPC   C1A21699  30.586  28.956   8.769
 1498POPC   D2A21700  30.646  29.134   8.337
 1498POPC   C3A21701  30.325  29.298   8.061
 1498POPC   C4A21702  30.283  28.977   7.769
 1498POPC   C1B21703  31.126  28.760   8.573
 1498POPC   C2B21704  31.056  28.777   8.175
 1498POPC   C3B21705  30.764  28.823   7.872
 1498POPC   C4B21706  31.056  28.813   7.537
 1499POPC   NC321707   9.975  13.247   9.640
 1499POPC   PO421708   9.934  12.566   9.673
 1499POPC   GL121709   9.783  12.621   9.256
 1499POPC   GL221710   9.696  12.955   9.152
 1499POPC   C1A21711   9.751  12.542   8.813
 1499POPC   D2A21712   9.654  12.721   8.414
 1499POPC   C3A21713   9.852  12.671   8.017
 1499POPC   C4A21714   9.680  12.724   7.615
 1499POPC   C1B21715   9.698  13.239   8.759
 1499POPC   C2B21716   9.899  13.187   8.371
 1499POPC   C3B21717   9.947  13.196   7.951
 1499POPC   C4B21718   9.731  13.250   7.603
 1500POPC   NC321719   0.177  43.549   9.428
 1500POPC   PO421720   0.671  44.061   9.569
 1500POPC   GL121721   0.492  43.967   9.189
 1500POPC   GL221722   0.594  43.632   9.102
 1500POPC   C1A21723   0.273  43.917   8.791
 1500POPC   D2A21724   0.234  43.748   8.389
 1500POPC   C3A21725   0.233  44.003   8.052
 1500POPC   C4A21726   0.126  43.956   7.649
 1500POPC   C1B21727   0.891  43.429   8.806
 1500POPC   C2B21728   0.803  43.394   8.360
 1500POPC   C3B21729   0.546  43.566   8.028
 1500POPC   C4B21730   0.652  43.934   7.794
 1501POPC   NC321731  33.614   5.690   9.396
 1501POPC   PO421732  34.074   6.093   9.716
 1501POPC   GL121733  33.958   6.074   9.229
 1501POPC   GL221734  34.014   5.769   9.092
 1501POPC   C1A21735  33.670   6.041   8.805
 1501POPC   D2A21736  33.604   5.889   8.351
 1501POPC   C3A21737  33.795   6.164   8.007
 1501POPC   C4A21738  33.623   6.478   7.728
 1501POPC   C1B21739  33.834   5.576   8.727
 1501POPC   C2B21740  33.949   5.327   8.391
 1501POPC   C3B21741  33.776   5.360   7.983
 1501POPC   C4B21742  33.827   5.485   7.543
 1502POPC   NC321743  22.062  17.732   9.484
 1502POPC   PO421744  22.107  18.398   9.584
 1502POPC   GL121745  22.010  18.459   9.184
 1502POPC   GL221746  21.908  18.113   9.175
 1502POPC   C1A21747  22.301  18.470   8.836
 1502POPC   D2A21748  22.458  18.641   8.447
 1502POPC   C3A21749  22.446  18.424   8.032
 1502POPC   C4A21750  22.149  18.399   7.660
 1502POPC   C1B21751  21.835  18.229   8.758
 1502POPC   C2B21752  22.027  18.360   8.405
 1502POPC   C3B21753  22.013  18.134   8.059
 1502POPC   C4B21754  22.273  17.860   7.812
 1503POPC   NC321755  23.281  21.041   9.424
 1503POPC   PO421756  22.643  21.039   9.450
 1503POPC   GL121757  22.925  21.235   9.117
 1503POPC   GL221758  22.905  21.596   9.058
 1503POPC   C1A21759  23.112  21.255   8.714
 1503POPC   D2A21760  22.955  21.278   8.322
 1503POPC   C3A21761  22.933  21.591   8.024
 1503POPC   C4A21762  22.998  21.300   7.715
 1503POPC   C1B21763  23.283  21.692   8.856
 1503POPC   C2B21764  23.204  21.732   8.446
 1503POPC   C3B21765  23.415  21.514   8.147
 1503POPC   C4B21766  23.529  21.542   7.722
 1504POPC   NC321767   3.775  22.893   9.900
 1504POPC   PO421768   3.211  22.844   9.485
 1504POPC   GL121769   3.507  22.700   9.163
 1504POPC   GL221770   3.854  22.690   9.248
 1504POPC   C1A21771   3.467  22.667   8.718
 1504POPC   D2A21772   3.241  22.742   8.329
 1504POPC   C3A21773   3.502  22.830   7.987
 1504POPC   C4A21774   3.455  23.202   7.756
 1504POPC   C1B21775   3.894  22.916   8.855
 1504POPC   C2B21776   3.679  23.075   8.492
 1504POPC   C3B21777   3.886  23.126   8.135
 1504POPC   C4B21778   3.940  23.080   7.716
 1505POPC   NC321779   1.427   5.387   9.611
 1505POPC   PO421780   2.059   5.160   9.655
 1505POPC   GL121781   2.257   5.186   9.246
 1505POPC   GL221782   1.962   5.079   9.088
 1505POPC   C1A21783   2.397   5.067   8.824
 1505POPC   D2A21784   2.127   5.105   8.481
 1505POPC   C3A21785   1.943   4.831   8.225
 1505POPC   C4A21786   2.049   4.879   7.820
 1505POPC   C1B21787   2.037   5.468   8.837
 1505POPC   C2B21788   2.088   5.636   8.431
 1505POPC   C3B21789   2.104   5.404   8.044
 1505POPC   C4B21790   1.836   5.378   7.699
 1506POPC   NC321791   8.091   1.790   9.517
 1506POPC   PO421792   8.389   2.369   9.429
 1506POPC   GL121793   8.074   2.128   9.117
 1506POPC   GL221794   7.970   1.730   9.048
 1506POPC   C1A21795   7.983   2.066   8.674
 1506POPC   D2A21796   7.694   2.195   8.351
 1506POPC   C3A21797   8.001   2.204   8.063
 1506POPC   C4A21798   8.117   2.173   7.660
 1506POPC   C1B21799   8.097   1.546   8.679
 1506POPC   C2B21800   8.248   1.764   8.328
 1506POPC   C3B21801   8.212   1.729   7.903
 1506POPC   C4B21802   7.770   1.790   7.803
 1507POPC   NC321803  39.901  34.051   9.371
 1507POPC   PO421804  39.657  33.450   9.285
 1507POPC   GL121805  39.898  33.719   8.991
 1507POPC   GL221806  39.813  34.098   8.888
 1507POPC   C1A21807  39.947  33.719   8.554
 1507POPC   D2A21808  39.705  33.525   8.233
 1507POPC   C3A21809  39.963  33.682   7.922
 1507POPC   C4A21810  40.276  33.938   7.767
 1507POPC   C1B21811  40.255  34.105   8.734
 1507POPC   C2B21812  40.341  34.345   8.354
 1507POPC   C3B21813  39.992  34.243   8.070
 1507POPC   C4B21814  39.823  34.138   7.673
 1508POPC   NC321815  13.792  11.449   9.819
 1508POPC   PO421816  13.171  11.596   9.504
 1508POPC   GL121817  13.468  11.605   9.174
 1508POPC   GL221818  13.746  11.352   9.138
 1508POPC   C1A21819  13.458  11.477   8.750
 1508POPC   D2A21820  13.611  11.190   8.455
 1508POPC   C3A21821  13.763  11.395   8.095
 1508POPC   C4A21822  13.712  11.216   7.713
 1508POPC   C1B21823  13.962  11.065   8.870
 1508POPC   C2B21824  14.127  10.921   8.484
 1508POPC   C3B21825  14.036  10.948   8.060
 1508POPC   C4B21826  14.235  11.122   7.694
 1509POPC   NC321827  44.738  39.822   9.321
 1509POPC   PO421828  44.248  40.095   9.530
 1509POPC   GL121829  44.313  40.279   9.113
 1509POPC   GL221830  44.659  40.293   9.072
 1509POPC   C1A21831  44.432  40.169   8.657
 1509POPC   D2A21832  44.507  39.830   8.377
 1509POPC   C3A21833  44.270  39.986   8.028
 1509POPC   C4A21834  44.490  40.302   7.846
 1509POPC   C1B21835  44.909  40.087   8.746
 1509POPC   C2B21836  44.992  40.072   8.312
 1509POPC   C3B21837  44.937  39.969   7.900
 1509POPC   C4B21838  44.633  39.669   7.880
 1510POPC   NC321839  10.456  34.221   9.500
 1510POPC   PO421840  10.109  34.831   9.590
 1510POPC   GL121841  10.408  34.763   9.204
 1510POPC   GL221842  10.508  34.457   9.078
 1510POPC   C1A21843  10.476  34.824   8.729
 1510POPC   D2A21844  10.625  34.629   8.320
 1510POPC   C3A21845  10.343  34.590   7.950
 1510POPC   C4A21846  10.599  34.803   7.679
 1510POPC   C1B21847  10.697  34.335   8.734
 1510POPC   C2B21848  10.663  33.976   8.478
 1510POPC   C3B21849  10.573  34.138   8.121
 1510POPC   C4B21850  10.756  34.328   7.777
 1511POPC   NC321851  30.098  18.070   9.491
 1511POPC   PO421852  29.511  18.472   9.483
 1511POPC   GL121853  29.753  18.372   9.158
 1511POPC   GL221854  29.977  18.691   9.144
 1511POPC   C1A21855  29.734  18.073   8.798
 1511POPC   D2A21856  30.082  18.049   8.501
 1511POPC   C3A21857  30.111  18.055   8.034
 1511POPC   C4A21858  29.751  18.000   7.738
 1511POPC   C1B21859  29.970  18.527   8.725
 1511POPC   C2B21860  29.673  18.403   8.398
 1511POPC   C3B21861  29.744  18.448   7.973
 1511POPC   C4B21862  30.135  18.536   7.817
 1512POPC   NC321863  34.308  38.966   9.434
 1512POPC   PO421864  34.744  39.497   9.287
 1512POPC   GL121865  34.496  39.220   9.006
 1512POPC   GL221866  34.477  38.858   8.982
 1512POPC   C1A21867  34.541  39.345   8.611
 1512POPC   D2A21868  34.750  39.574   8.305
 1512POPC   C3A21869  34.643  39.393   7.918
 1512POPC   C4A21870  34.218  39.410   7.790
 1512POPC   C1B21871  34.247  38.885   8.669
 1512POPC   C2B21872  34.267  39.078   8.291
 1512POPC   C3B21873  34.366  38.939   7.919
 1512POPC   C4B21874  34.381  38.569   7.732
 1513POPC   NC321875  38.483  41.711   9.715
 1513POPC   PO421876  38.247  41.224   9.259
 1513POPC   GL121877  38.528  41.563   9.220
 1513POPC   GL221878  38.319  41.842   9.242
 1513POPC   C1A21879  38.660  41.659   8.814
 1513POPC   D2A21880  38.424  41.445   8.487
 1513POPC   C3A21881  38.360  41.614   8.105
 1513POPC   C4A21882  38.670  41.677   7.796
 1513POPC   C1B21883  38.310  42.034   8.836
 1513POPC   C2B21884  38.099  41.930   8.457
 1513POPC   C3B21885  37.905  41.884   8.052
 1513POPC   C4B21886  38.160  41.821   7.683
 1514POPC   NC321887  14.779  17.425  10.123
 1514POPC   PO421888  14.542  17.357   9.498
 1514POPC   GL121889  14.416  17.550   9.144
 1514POPC   GL221890  14.325  17.887   9.217
 1514POPC   C1A21891  14.496  17.452   8.735
 1514POPC   D2A21892  14.506  17.346   8.311
 1514POPC   C3A21893  14.305  17.353   7.924
 1514POPC   C4A21894  14.654  17.476   7.704
 1514POPC   C1B21895  14.461  17.950   8.808
 1514POPC   C2B21896  14.301  17.821   8.412
 1514POPC   C3B21897  14.474  17.829   8.028
 1514POPC   C4B21898  14.400  17.963   7.615
 1515POPC   NC321899  24.133   7.092   9.354
 1515POPC   PO421900  23.700   6.637   9.560
 1515POPC   GL121901  23.816   6.602   9.153
 1515POPC   GL221902  23.503   6.519   9.052
 1515POPC   C1A21903  24.098   6.722   8.804
 1515POPC   D2A21904  23.973   6.791   8.383
 1515POPC   C3A21905  24.072   6.665   8.008
 1515POPC   C4A21906  23.799   6.641   7.652
 1515POPC   C1B21907  23.592   6.646   8.683
 1515POPC   C2B21908  23.593   6.371   8.357
 1515POPC   C3B21909  23.474   6.414   7.954
 1515POPC   C4B21910  23.400   6.343   7.490
 1516POPC   NC321911  23.217  21.998   9.488
 1516POPC   PO421912  23.798  22.043   9.646
 1516POPC   GL121913  23.805  22.233   9.195
 1516POPC   GL221914  23.620  21.938   9.144
 1516POPC   C1A21915  23.934  22.447   8.768
 1516POPC   D2A21916  23.651  22.522   8.423
 1516POPC   C3A21917  23.786  22.357   8.035
 1516POPC   C4A21918  24.005  22.405   7.659
 1516POPC   C1B21919  23.516  22.137   8.762
 1516POPC   C2B21920  23.616  21.997   8.361
 1516POPC   C3B21921  23.411  21.994   7.965
 1516POPC   C4B21922  23.523  22.195   7.571
 1517POPC   NC321923  28.867  18.815   9.431
 1517POPC   PO421924  29.399  19.344   9.422
 1517POPC   GL121925  29.237  19.093   9.097
 1517POPC   GL221926  29.280  18.745   9.117
 1517POPC   C1A21927  29.051  19.057   8.694
 1517POPC   D2A21928  28.803  19.287   8.374
 1517POPC   C3A21929  29.018  19.130   8.045
 1517POPC   C4A21930  29.041  19.202   7.622
 1517POPC   C1B21931  29.511  18.792   8.749
 1517POPC   C2B21932  29.445  18.977   8.344
 1517POPC   C3B21933  29.407  18.820   7.943
 1517POPC   C4B21934  29.306  18.775   7.534
 1518POPC   NC321935  38.710   4.528   9.773
 1518POPC   PO421936  38.169   4.419   9.493
 1518POPC   GL121937  38.436   4.624   9.173
 1518POPC   GL221938  38.802   4.558   9.256
 1518POPC   C1A21939  38.266   4.574   8.729
 1518POPC   D2A21940  38.218   4.243   8.395
 1518POPC   C3A21941  38.203   4.345   7.957
 1518POPC   C4A21942  38.410   4.061   7.650
 1518POPC   C1B21943  38.775   4.402   8.830
 1518POPC   C2B21944  38.676   4.537   8.395
 1518POPC   C3B21945  38.702   4.265   8.047
 1518POPC   C4B21946  38.789   4.425   7.672
 1519POPC   NC321947  35.089  42.108   9.546
 1519POPC   PO421948  35.536  42.607   9.609
 1519POPC   GL121949  35.386  42.424   9.216
 1519POPC   GL221950  35.411  42.050   9.159
 1519POPC   C1A21951  35.149  42.406   8.828
 1519POPC   D2A21952  35.017  42.512   8.403
 1519POPC   C3A21953  35.190  42.313   8.052
 1519POPC   C4A21954  35.525  42.575   7.863
 1519POPC   C1B21955  35.573  42.126   8.762
 1519POPC   C2B21956  35.553  42.360   8.413
 1519POPC   C3B21957  35.647  42.123   8.073
 1519POPC   C4B21958  35.631  42.032   7.687
 1520POPC   NC321959  32.538  31.038   9.459
 1520POPC   PO421960  32.146  30.540   9.796
 1520POPC   GL121961  32.185  30.687   9.338
 1520POPC   GL221962  31.879  30.860   9.226
 1520POPC   C1A21963  32.343  30.764   8.886
 1520POPC   D2A21964  32.233  30.618   8.473
 1520POPC   C3A21965  32.294  30.806   8.084
 1520POPC   C4A21966  32.515  30.554   7.810
 1520POPC   C1B21967  31.840  30.771   8.778
 1520POPC   C2B21968  31.936  31.015   8.397
 1520POPC   C3B21969  31.813  30.908   7.977
 1520POPC   C4B21970  32.033  30.696   7.659
 1521POPC   NC321971  28.299   0.581  10.029
 1521POPC   PO421972  28.452   1.005   9.452
 1521POPC   GL121973  28.424   1.144   9.079
 1521POPC   GL221974  28.585   1.463   9.121
 1521POPC   C1A21975  28.578   1.123   8.674
 1521POPC   D2A21976  28.756   0.834   8.364
 1521POPC   C3A21977  28.560   0.888   7.962
 1521POPC   C4A21978  28.487   0.887   7.494
 1521POPC   C1B21979  28.210   1.529   8.841
 1521POPC   C2B21980  28.242   1.441   8.436
 1521POPC   C3B21981  28.268   1.533   8.041
 1521POPC   C4B21982  28.451   1.323   7.728
 1522POPC   NC321983  22.007  43.376   9.588
 1522POPC   PO421984  22.183  42.714   9.764
 1522POPC   GL121985  22.249  42.959   9.380
 1522POPC   GL221986  21.934  42.947   9.268
 1522POPC   C1A21987  22.215  43.272   8.989
 1522POPC   D2A21988  22.332  43.278   8.540
 1522POPC   C3A21989  22.110  43.421   8.169
 1522POPC   C4A21990  22.166  43.148   7.819
 1522POPC   C1B21991  21.773  43.045   8.848
 1522POPC   C2B21992  21.901  43.035   8.438
 1522POPC   C3B21993  21.722  43.091   8.051
 1522POPC   C4B21994  21.754  42.805   7.750
 1523POPC   NC321995   2.214   3.083   9.514
 1523POPC   PO421996   2.827   2.812   9.588
 1523POPC   GL121997   2.914   2.738   9.110
 1523POPC   GL221998   3.244   2.875   8.978
 1523POPC   C1A21999   2.821   2.568   8.693
 1523POPC   D2A22000   2.559   2.490   8.309
 1523POPC   C3A22001   2.657   2.683   7.917
 1523POPC   C4A22002   2.496   2.980   7.602
 1523POPC   C1B22003   3.246   2.872   8.556
 1523POPC   C2B22004   2.929   2.911   8.304
 1523POPC   C3B22005   3.056   3.009   7.922
 1523POPC   C4B22006   2.977   2.818   7.528
 1524POPC   NC322007  38.830  20.541   9.757
 1524POPC   PO422008  39.489  20.593   9.467
 1524POPC   GL122009  39.346  20.672   9.051
 1524POPC   GL222010  39.261  20.326   8.917
 1524POPC   C1A22011  39.068  20.768   8.688
 1524POPC   D2A22012  39.000  20.666   8.270
 1524POPC   C3A22013  39.294  20.743   7.923
 1524POPC   C4A22014  39.408  20.522   7.551
 1524POPC   C1B22015  38.874  20.263   8.634
 1524POPC   C2B22016  38.686  20.261   8.215
 1524POPC   C3B22017  38.984  20.322   7.877
 1524POPC   C4B22018  38.963  20.320   7.444
 1525POPC   NC322019  40.666  27.287   9.515
 1525POPC   PO422020  41.080  27.723   9.581
 1525POPC   GL122021  40.932  27.672   9.184
 1525POPC   GL222022  41.059  27.357   9.128
 1525POPC   C1A22023  40.642  27.756   8.831
 1525POPC   D2A22024  40.463  27.911   8.429
 1525POPC   C3A22025  40.643  27.920   8.050
 1525POPC   C4A22026  40.564  27.773   7.629
 1525POPC   C1B22027  41.087  27.515   8.699
 1525POPC   C2B22028  40.758  27.502   8.377
 1525POPC   C3B22029  40.826  27.441   7.945
 1525POPC   C4B22030  41.239  27.402   7.791
 1526POPC   NC322031  10.040   5.580   9.477
 1526POPC   PO422032   9.559   6.031   9.510
 1526POPC   GL122033   9.672   5.782   9.182
 1526POPC   GL222034   9.382   5.881   9.039
 1526POPC   C1A22035   9.784   5.629   8.770
 1526POPC   D2A22036   9.848   5.848   8.374
 1526POPC   C3A22037   9.806   5.623   8.004
 1526POPC   C4A22038  10.215   5.581   7.824
 1526POPC   C1B22039   9.688   6.134   8.779
 1526POPC   C2B22040   9.574   6.355   8.426
 1526POPC   C3B22041   9.577   6.162   8.035
 1526POPC   C4B22042   9.850   6.044   7.705
 1527POPC   NC322043   3.689  29.879   9.728
 1527POPC   PO422044   3.203  30.166   9.370
 1527POPC   GL122045   3.568  30.159   9.109
 1527POPC   GL222046   3.681  29.861   9.159
 1527POPC   C1A22047   3.701  30.148   8.726
 1527POPC   D2A22048   3.425  30.140   8.408
 1527POPC   C3A22049   3.619  30.109   8.023
 1527POPC   C4A22050   3.486  30.014   7.654
 1527POPC   C1B22051   3.453  29.712   8.798
 1527POPC   C2B22052   3.637  29.691   8.399
 1527POPC   C3B22053   3.342  29.699   8.098
 1527POPC   C4B22054   3.368  29.524   7.737
 1528POPC   NC322055  22.383  38.456   9.948
 1528POPC   PO422056  22.944  38.301   9.603
 1528POPC   GL122057  22.789  38.318   9.198
 1528POPC   GL222058  22.904  38.602   9.059
 1528POPC   C1A22059  22.564  38.207   8.806
 1528POPC   D2A22060  22.710  38.089   8.380
 1528POPC   C3A22061  22.471  38.178   7.982
 1528POPC   C4A22062  22.548  38.339   7.555
 1528POPC   C1B22063  22.973  38.463   8.643
 1528POPC   C2B22064  23.170  38.345   8.291
 1528POPC   C3B22065  22.914  38.423   7.969
 1528POPC   C4B22066  22.906  38.756   7.725
 1529POPC   NC322067  44.969  25.701   9.457
 1529POPC   PO422068  44.762  25.039   9.552
 1529POPC   GL122069  44.813  25.297   9.191
 1529POPC   GL222070  44.681  25.072   8.952
 1529POPC   C1A22071  44.875  25.541   8.817
 1529POPC   D2A22072  44.740  25.324   8.474
 1529POPC   C3A22073  44.811  25.536   8.155
 1529POPC   C4A22074  44.853  25.340   7.815
 1529POPC   C1B22075  44.383  25.400   8.827
 1529POPC   C2B22076  44.235  25.451   8.420
 1529POPC   C3B22077  44.375  25.298   8.046
 1529POPC   C4B22078  44.417  25.614   7.771
 1530POPC   NC322079   5.694   5.639   9.512
 1530POPC   PO422080   5.377   6.355   9.432
 1530POPC   GL122081   5.659   6.199   9.086
 1530POPC   GL222082   5.720   5.849   9.053
 1530POPC   C1A22083   6.067   6.114   8.803
 1530POPC   D2A22084   6.147   5.925   8.377
 1530POPC   C3A22085   5.894   6.086   8.052
 1530POPC   C4A22086   6.018   6.302   7.679
 1530POPC   C1B22087   5.819   5.679   8.677
 1530POPC   C2B22088   5.619   5.627   8.278
 1530POPC   C3B22089   5.834   5.559   7.892
 1530POPC   C4B22090   6.190   5.807   7.704
 1531POPC   NC322091  21.177   6.197   9.580
 1531POPC   PO422092  21.757   5.777   9.413
 1531POPC   GL122093  21.611   5.689   9.059
 1531POPC   GL222094  21.272   5.871   9.114
 1531POPC   C1A22095  21.740   5.696   8.642
 1531POPC   D2A22096  21.422   5.903   8.463
 1531POPC   C3A22097  21.285   5.661   8.152
 1531POPC   C4A22098  21.324   5.677   7.741
 1531POPC   C1B22099  21.096   6.126   8.790
 1531POPC   C2B22100  20.981   6.236   8.345
 1531POPC   C3B22101  20.960   6.015   7.949
 1531POPC   C4B22102  21.152   6.131   7.563
 1532POPC   NC322103  28.557  36.773   9.505
 1532POPC   PO422104  28.233  37.278   9.779
 1532POPC   GL122105  28.294  37.129   9.265
 1532POPC   GL222106  28.554  37.026   9.041
 1532POPC   C1A22107  28.125  36.859   8.853
 1532POPC   D2A22108  28.168  36.656   8.410
 1532POPC   C3A22109  28.238  36.864   8.003
 1532POPC   C4A22110  28.528  37.082   7.742
 1532POPC   C1B22111  28.580  36.676   8.734
 1532POPC   C2B22112  28.687  36.727   8.283
 1532POPC   C3B22113  28.665  36.597   7.844
 1532POPC   C4B22114  28.854  36.770   7.460
 1533POPC   NC322115  31.340   7.872   9.475
 1533POPC   PO422116  31.643   7.250   9.505
 1533POPC   GL122117  31.630   7.393   9.045
 1533POPC   GL222118  31.624   7.727   9.066
 1533POPC   C1A22119  31.560   7.429   8.539
 1533POPC   D2A22120  31.165   7.272   8.333
 1533POPC   C3A22121  31.245   7.221   7.923
 1533POPC   C4A22122  31.680   7.308   7.758
 1533POPC   C1B22123  31.227   7.676   8.839
 1533POPC   C2B22124  31.149   7.779   8.407
 1533POPC   C3B22125  31.418   7.671   8.070
 1533POPC   C4B22126  31.312   7.647   7.647
 1534POPC   NC322127  21.805  27.101   9.700
 1534POPC   PO422128  22.157  26.575   9.597
 1534POPC   GL122129  22.335  26.715   9.222
 1534POPC   GL222130  22.139  27.031   9.248
 1534POPC   C1A22131  22.270  26.759   8.783
 1534POPC   D2A22132  22.108  26.512   8.440
 1534POPC   C3A22133  22.241  26.679   8.051
 1534POPC   C4A22134  21.958  26.746   7.741
 1534POPC   C1B22135  22.092  27.259   8.856
 1534POPC   C2B22136  22.060  27.079   8.433
 1534POPC   C3B22137  21.996  27.205   8.029
 1534POPC   C4B22138  22.243  27.227   7.692
 1535POPC   NC322139   9.711   9.510   9.467
 1535POPC   PO422140   9.610  10.129   9.670
 1535POPC   GL122141   9.837  10.043   9.309
 1535POPC   GL222142  10.192  10.145   9.330
 1535POPC   C1A22143   9.719  10.072   8.876
 1535POPC   D2A22144   9.690   9.746   8.601
 1535POPC   C3A22145   9.573   9.873   8.220
 1535POPC   C4A22146   9.625   9.613   7.854
 1535POPC   C1B22147  10.212   9.900   8.961
 1535POPC   C2B22148  10.232   9.966   8.550
 1535POPC   C3B22149  10.074   9.882   8.179
 1535POPC   C4B22150  10.048   9.860   7.771
 1536POPC   NC322151  33.001   7.775   9.364
 1536POPC   PO422152  32.935   8.458   9.552
 1536POPC   GL122153  33.174   8.301   9.218
 1536POPC   GL222154  32.877   8.204   9.099
 1536POPC   C1A22155  33.218   8.213   8.752
 1536POPC   D2A22156  33.131   8.489   8.411
 1536POPC   C3A22157  33.374   8.316   8.077
 1536POPC   C4A22158  33.659   8.138   7.800
 1536POPC   C1B22159  32.852   8.570   8.854
 1536POPC   C2B22160  32.601   8.624   8.483
 1536POPC   C3B22161  32.769   8.678   8.083
 1536POPC   C4B22162  33.118   8.643   7.771
 1537POPC   NC322163  20.308   2.428   9.707
 1537POPC   PO422164  20.596   3.108   9.754
 1537POPC   GL122165  20.637   3.126   9.276
 1537POPC   GL222166  20.832   2.871   9.087
 1537POPC   C1A22167  20.470   3.120   8.834
 1537POPC   D2A22168  20.779   2.972   8.523
 1537POPC   C3A22169  20.594   2.772   8.169
 1537POPC   C4A22170  20.643   2.941   7.763
 1537POPC   C1B22171  20.814   2.522   8.769
 1537POPC   C2B22172  21.030   2.516   8.374
 1537POPC   C3B22173  21.031   2.629   7.963
 1537POPC   C4B22174  20.707   2.449   7.733
 1538POPC   NC322175  22.164  24.652   9.629
 1538POPC   PO422176  22.083  25.306   9.560
 1538POPC   GL122177  22.107  25.190   9.152
 1538POPC   GL222178  21.739  25.165   9.144
 1538POPC   C1A22179  22.330  25.303   8.768
 1538POPC   D2A22180  22.294  25.150   8.337
 1538POPC   C3A22181  22.513  25.306   7.981
 1538POPC   C4A22182  22.417  25.580   7.628
 1538POPC   C1B22183  21.824  24.996   8.755
 1538POPC   C2B22184  21.689  24.844   8.374
 1538POPC   C3B22185  21.904  24.964   8.035
 1538POPC   C4B22186  21.750  24.958   7.671
 1539POPC   NC322187  38.123  12.675   9.610
 1539POPC   PO422188  37.410  12.791   9.530
 1539POPC   GL122189  37.653  12.632   9.176
 1539POPC   GL222190  37.887  12.915   9.184
 1539POPC   C1A22191  37.476  12.561   8.748
 1539POPC   D2A22192  37.408  12.742   8.322
 1539POPC   C3A22193  37.620  12.733   7.904
 1539POPC   C4A22194  37.626  12.760   7.452
 1539POPC   C1B22195  37.945  12.771   8.746
 1539POPC   C2B22196  37.935  12.716   8.301
 1539POPC   C3B22197  38.031  13.030   7.952
 1539POPC   C4B22198  38.010  13.090   7.461
 1540POPC   NC322199  15.738  17.567   9.605
 1540POPC   PO422200  15.040  17.496   9.737
 1540POPC   GL122201  15.114  17.448   9.263
 1540POPC   GL222202  15.393  17.221   9.242
 1540POPC   C1A22203  14.980  17.624   8.861
 1540POPC   D2A22204  14.815  17.763   8.473
 1540POPC   C3A22205  14.932  17.564   8.120
 1540POPC   C4A22206  15.173  17.558   7.762
 1540POPC   C1B22207  15.426  17.113   8.776
 1540POPC   C2B22208  15.555  17.213   8.326
 1540POPC   C3B22209  15.496  17.158   7.867
 1540POPC   C4B22210  15.361  17.253   7.397
 1541POPC   NC322211  10.372   2.284   9.528
 1541POPC   PO422212  10.263   1.607   9.461
 1541POPC   GL122213  10.232   1.952   9.112
 1541POPC   GL222214  10.506   2.235   9.043
 1541POPC   C1A22215  10.362   1.925   8.670
 1541POPC   D2A22216  10.781   1.770   8.542
 1541POPC   C3A22217  10.776   1.667   8.105
 1541POPC   C4A22218  10.434   1.819   7.894
 1541POPC   C1B22219  10.714   2.328   8.645
 1541POPC   C2B22220  10.728   2.175   8.202
 1541POPC   C3B22221  10.866   2.053   7.755
 1541POPC   C4B22222  10.732   2.270   7.321
 1542POPC   NC322223   3.198  25.592   9.525
 1542POPC   PO422224   3.767  25.962   9.534
 1542POPC   GL122225   3.520  26.161   9.227
 1542POPC   GL222226   3.285  25.896   9.114
 1542POPC   C1A22227   3.495  26.249   8.811
 1542POPC   D2A22228   3.365  26.030   8.449
 1542POPC   C3A22229   3.413  26.275   8.103
 1542POPC   C4A22230   3.338  26.086   7.739
 1542POPC   C1B22231   3.681  25.788   8.875
 1542POPC   C2B22232   3.762  25.683   8.456
 1542POPC   C3B22233   3.661  25.798   8.052
 1542POPC   C4B22234   3.470  25.573   7.736
 1543POPC   NC322235  32.111  24.792   9.365
 1543POPC   PO422236  31.840  24.136   9.496
 1543POPC   GL122237  32.081  24.262   9.118
 1543POPC   GL222238  32.442  24.277   9.011
 1543POPC   C1A22239  32.077  24.357   8.660
 1543POPC   D2A22240  32.485  24.282   8.435
 1543POPC   C3A22241  32.411  24.294   7.985
 1543POPC   C4A22242  32.178  24.657   7.809
 1543POPC   C1B22243  32.418  24.706   8.781
 1543POPC   C2B22244  32.276  24.754   8.339
 1543POPC   C3B22245  32.640  24.742   8.062
 1543POPC   C4B22246  32.729  24.596   7.672
 1544POPC   NC322247  26.622  24.247   9.450
 1544POPC   PO422248  27.117  24.646   9.500
 1544POPC   GL122249  26.886  24.567   9.136
 1544POPC   GL222250  26.925  24.237   8.992
 1544POPC   C1A22251  26.798  24.696   8.729
 1544POPC   D2A22252  26.669  24.548   8.357
 1544POPC   C3A22253  27.021  24.467   8.109
 1544POPC   C4A22254  27.114  24.600   7.713
 1544POPC   C1B22255  26.501  24.273   8.801
 1544POPC   C2B22256  26.313  24.193   8.401
 1544POPC   C3B22257  26.580  24.191   7.984
 1544POPC   C4B22258  26.950  24.121   7.731
 1545POPC   NC322259  39.879  32.462   9.668
 1545POPC   PO422260  40.402  32.062   9.663
 1545POPC   GL122261  40.144  32.234   9.283
 1545POPC   GL222262  40.233  32.591   9.241
 1545POPC   C1A22263  39.972  32.200   8.844
 1545POPC   D2A22264  39.994  31.901   8.494
 1545POPC   C3A22265  39.795  32.059   8.125
 1545POPC   C4A22266  39.878  32.342   7.784
 1545POPC   C1B22267  40.431  32.462   8.859
 1545POPC   C2B22268  40.343  32.271   8.457
 1545POPC   C3B22269  40.331  32.402   8.021
 1545POPC   C4B22270  40.315  32.497   7.550
 1546POPC   NC322271  41.011   8.128   9.509
 1546POPC   PO422272  40.377   8.049   9.294
 1546POPC   GL122273  40.732   8.098   9.078
 1546POPC   GL222274  40.891   8.422   9.084
 1546POPC   C1A22275  40.867   8.086   8.686
 1546POPC   D2A22276  40.678   8.200   8.330
 1546POPC   C3A22277  40.956   8.322   8.028
 1546POPC   C4A22278  40.798   8.197   7.658
 1546POPC   C1B22279  40.542   8.474   8.772
 1546POPC   C2B22280  40.437   8.674   8.377
 1546POPC   C3B22281  40.467   8.502   7.950
 1546POPC   C4B22282  40.563   8.614   7.497
 1547POPC   NC322283  25.481  39.109   9.491
 1547POPC   PO422284  24.798  39.251   9.583
 1547POPC   GL122285  25.047  39.232   9.158
 1547POPC   GL222286  25.392  39.385   9.063
 1547POPC   C1A22287  25.055  39.328   8.689
 1547POPC   D2A22288  25.355  39.353   8.350
 1547POPC   C3A22289  25.286  39.009   8.098
 1547POPC   C4A22290  25.214  39.161   7.719
 1547POPC   C1B22291  25.509  39.055   8.738
 1547POPC   C2B22292  25.752  39.009   8.310
 1547POPC   C3B22293  25.706  39.148   7.860
 1547POPC   C4B22294  25.651  39.052   7.405
 1548POPC   NC322295  40.879   7.043   9.553
 1548POPC   PO422296  41.208   7.701   9.524
 1548POPC   GL122297  40.953   7.637   9.161
 1548POPC   GL222298  40.877   7.284   9.112
 1548POPC   C1A22299  40.615   7.639   8.815
 1548POPC   D2A22300  40.757   7.673   8.382
 1548POPC   C3A22301  40.579   7.544   7.985
 1548POPC   C4A22302  40.572   7.756   7.560
 1548POPC   C1B22303  41.042   7.385   8.721
 1548POPC   C2B22304  40.918   7.173   8.363
 1548POPC   C3B22305  41.067   7.332   8.002
 1548POPC   C4B22306  40.940   7.431   7.624
 1549POPC   NC322307  18.502  36.008   9.420
 1549POPC   PO422308  17.848  35.914   9.556
 1549POPC   GL122309  18.077  36.146   9.160
 1549POPC   GL222310  18.270  36.445   9.211
 1549POPC   C1A22311  18.065  36.062   8.676
 1549POPC   D2A22312  18.227  36.262   8.281
 1549POPC   C3A22313  18.205  35.978   7.960
 1549POPC   C4A22314  17.896  35.704   7.904
 1549POPC   C1B22315  18.413  36.421   8.776
 1549POPC   C2B22316  18.662  36.490   8.408
 1549POPC   C3B22317  18.516  36.652   8.029
 1549POPC   C4B22318  18.374  36.391   7.731
 1550POPC   NC322319  20.075   1.599   9.516
 1550POPC   PO422320  19.507   1.214   9.511
 1550POPC   GL122321  19.657   1.353   9.148
 1550POPC   GL222322  19.885   1.072   9.105
 1550POPC   C1A22323  19.583   1.483   8.728
 1550POPC   D2A22324  19.906   1.570   8.413
 1550POPC   C3A22325  19.852   1.334   8.069
 1550POPC   C4A22326  19.512   1.328   7.818
 1550POPC   C1B22327  19.930   1.105   8.652
 1550POPC   C2B22328  19.932   0.839   8.264
 1550POPC   C3B22329  19.916   0.895   7.821
 1550POPC   C4B22330  20.242   1.211   7.639
 1551POPC   NC322331  25.051  40.156   9.415
 1551POPC   PO422332  25.563  39.824   9.288
 1551POPC   GL122333  25.320  40.043   9.012
 1551POPC   GL222334  25.063  39.799   9.026
 1551POPC   C1A22335  25.029  40.269   8.726
 1551POPC   D2A22336  25.105  40.205   8.267
 1551POPC   C3A22337  25.020  40.388   7.853
 1551POPC   C4A22338  25.072  40.072   7.489
 1551POPC   C1B22339  25.192  39.801   8.589
 1551POPC   C2B22340  24.985  39.683   8.201
 1551POPC   C3B22341  25.006  39.630   7.748
 1551POPC   C4B22342  24.933  39.521   7.298
 1552POPC   NC322343  35.590  15.482   9.384
 1552POPC   PO422344  35.056  15.839   9.671
 1552POPC   GL122345  35.248  15.869   9.241
 1552POPC   GL222346  35.560  15.917   9.066
 1552POPC   C1A22347  35.164  15.770   8.787
 1552POPC   D2A22348  35.324  15.972   8.437
 1552POPC   C3A22349  35.190  15.868   8.036
 1552POPC   C4A22350  35.372  15.816   7.639
 1552POPC   C1B22351  35.629  16.248   8.771
 1552POPC   C2B22352  35.597  16.407   8.355
 1552POPC   C3B22353  35.605  16.158   7.968
 1552POPC   C4B22354  35.857  16.051   7.588
 1553POPC   NC322355   0.104   2.173   9.395
 1553POPC   PO422356   0.605   1.838   9.636
 1553POPC   GL122357   0.520   1.961   9.189
 1553POPC   GL222358   0.671   1.663   9.126
 1553POPC   C1A22359   0.328   2.047   8.748
 1553POPC   D2A22360   0.241   2.295   8.363
 1553POPC   C3A22361   0.443   2.203   7.965
 1553POPC   C4A22362   0.172   1.928   7.802
 1553POPC   C1B22363   0.799   1.850   8.715
 1553POPC   C2B22364   0.611   1.879   8.315
 1553POPC   C3B22365   0.648   1.759   7.834
 1553POPC   C4B22366   0.642   1.959   7.427
 1554POPC   NC322367   0.378   6.243   9.594
 1554POPC   PO422368   0.319   5.573   9.556
 1554POPC   GL122369   0.396   5.796   9.177
 1554POPC   GL222370   0.322   6.133   9.110
 1554POPC   C1A22371   0.475   5.632   8.772
 1554POPC   D2A22372   0.547   5.399   8.421
 1554POPC   C3A22373   0.329   5.555   8.077
 1554POPC   C4A22374   0.477   5.643   7.675
 1554POPC   C1B22375   0.507   6.138   8.724
 1554POPC   C2B22376   0.360   6.190   8.328
 1554POPC   C3B22377   0.536   6.065   7.978
 1554POPC   C4B22378   0.336   6.147   7.644
 1555POPC   NC322379  11.554  40.526   9.553
 1555POPC   PO422380  11.068  40.885   9.679
 1555POPC   GL122381  11.263  40.876   9.256
 1555POPC   GL222382  11.007  41.037   9.058
 1555POPC   C1A22383  11.416  40.811   8.813
 1555POPC   D2A22384  11.449  41.027   8.411
 1555POPC   C3A22385  11.388  40.859   8.004
 1555POPC   C4A22386  11.158  41.081   7.670
 1555POPC   C1B22387  10.905  41.219   8.661
 1555POPC   C2B22388  10.973  41.153   8.213
 1555POPC   C3B22389  10.878  40.773   8.015
 1555POPC   C4B22390  10.934  40.619   7.626
 1556POPC   NC322391  27.194  29.188   9.405
 1556POPC   PO422392  26.594  29.385   9.590
 1556POPC   GL122393  26.581  29.122   9.157
 1556POPC   GL222394  26.880  29.037   9.042
 1556POPC   C1A22395  26.606  28.878   8.670
 1556POPC   D2A22396  26.797  28.889   8.232
 1556POPC   C3A22397  26.590  29.132   7.901
 1556POPC   C4A22398  26.523  29.191   7.450
 1556POPC   C1B22399  27.095  29.063   8.647
 1556POPC   C2B22400  27.267  29.199   8.259
 1556POPC   C3B22401  27.100  29.180   7.836
 1556POPC   C4B22402  26.851  29.504   7.638
 1557POPC   NC322403  21.533  31.040   9.399
 1557POPC   PO422404  21.419  31.706   9.485
 1557POPC   GL122405  21.491  31.509   9.138
 1557POPC   GL222406  21.197  31.409   9.064
 1557POPC   C1A22407  21.670  31.404   8.754
 1557POPC   D2A22408  21.676  31.580   8.367
 1557POPC   C3A22409  21.524  31.378   7.979
 1557POPC   C4A22410  21.566  31.389   7.550
 1557POPC   C1B22411  21.200  31.203   8.721
 1557POPC   C2B22412  21.188  31.404   8.360
 1557POPC   C3B22413  21.041  31.547   7.977
 1557POPC   C4B22414  21.043  31.251   7.620
 1558POPC   NC322415  40.383  12.706   9.575
 1558POPC   PO422416  40.940  13.068   9.490
 1558POPC   GL122417  40.881  12.926   9.117
 1558POPC   GL222418  40.811  12.551   9.182
 1558POPC   C1A22419  40.913  13.118   8.706
 1558POPC   D2A22420  40.650  13.133   8.362
 1558POPC   C3A22421  40.684  13.103   7.922
 1558POPC   C4A22422  41.027  13.192   7.690
 1558POPC   C1B22423  40.725  12.650   8.726
 1558POPC   C2B22424  40.667  12.620   8.289
 1558POPC   C3B22425  40.682  12.597   7.862
 1558POPC   C4B22426  40.375  12.829   7.588
 1559POPC   NC322427  39.726  12.215   9.367
 1559POPC   PO422428  40.487  12.254   9.490
 1559POPC   GL122429  40.197  12.053   9.198
 1559POPC   GL222430  40.072  12.373   9.059
 1559POPC   C1A22431  40.020  11.920   8.777
 1559POPC   D2A22432  39.742  11.977   8.401
 1559POPC   C3A22433  39.980  12.065   8.044
 1559POPC   C4A22434  39.923  11.862   7.680
 1559POPC   C1B22435  39.799  12.371   8.703
 1559POPC   C2B22436  39.842  12.515   8.349
 1559POPC   C3B22437  39.700  12.483   7.987
 1559POPC   C4B22438  39.571  12.243   7.680
 1560POPC   NC322439  14.699  22.446   9.604
 1560POPC   PO422440  15.241  22.776   9.894
 1560POPC   GL122441  15.442  22.761   9.426
 1560POPC   GL222442  15.143  22.896   9.281
 1560POPC   C1A22443  15.431  22.684   8.892
 1560POPC   D2A22444  15.309  22.820   8.434
 1560POPC   C3A22445  15.428  22.801   7.966
 1560POPC   C4A22446  15.502  23.191   7.698
 1560POPC   C1B22447  15.048  23.028   8.847
 1560POPC   C2B22448  14.849  23.034   8.432
 1560POPC   C3B22449  15.019  23.120   8.014
 1560POPC   C4B22450  15.017  23.059   7.573
 1561POPC   NC322451  19.440   3.389   9.443
 1561POPC   PO422452  18.884   3.768   9.539
 1561POPC   GL122453  19.148   3.770   9.214
 1561POPC   GL222454  19.040   3.435   9.107
 1561POPC   C1A22455  19.169   3.918   8.797
 1561POPC   D2A22456  18.995   3.838   8.370
 1561POPC   C3A22457  19.249   3.701   8.064
 1561POPC   C4A22458  19.166   3.363   7.801
 1561POPC   C1B22459  18.805   3.374   8.731
 1561POPC   C2B22460  18.896   3.304   8.283
 1561POPC   C3B22461  18.808   3.047   7.920
 1561POPC   C4B22462  18.865   3.052   7.484
 1562POPC   NC322463  29.650   1.294   9.635
 1562POPC   PO422464  30.317   1.301   9.600
 1562POPC   GL122465  30.050   1.143   9.257
 1562POPC   GL222466  29.830   0.838   9.361
 1562POPC   C1A22467  30.109   1.245   8.788
 1562POPC   D2A22468  30.152   1.119   8.348
 1562POPC   C3A22469  30.014   1.396   8.018
 1562POPC   C4A22470  29.658   1.633   7.831
 1562POPC   C1B22471  29.789   0.868   8.920
 1562POPC   C2B22472  29.781   0.789   8.481
 1562POPC   C3B22473  29.713   0.973   8.097
 1562POPC   C4B22474  29.651   1.130   7.723
 1563POPC   NC322475  21.577  37.287   9.372
 1563POPC   PO422476  21.137  36.750   9.471
 1563POPC   GL122477  21.203  36.816   9.079
 1563POPC   GL222478  21.148  37.140   9.109
 1563POPC   C1A22479  20.989  36.920   8.679
 1563POPC   D2A22480  21.069  37.187   8.312
 1563POPC   C3A22481  21.311  37.004   8.019
 1563POPC   C4A22482  21.356  36.929   7.580
 1563POPC   C1B22483  21.463  37.098   8.755
 1563POPC   C2B22484  21.556  37.314   8.396
 1563POPC   C3B22485  21.713  37.308   7.983
 1563POPC   C4B22486  22.011  37.142   7.742
 1564POPC   NC322487  11.966  35.761   9.512
 1564POPC   PO422488  12.412  36.006   9.107
 1564POPC   GL122489  11.963  36.086   9.072
 1564POPC   GL222490  11.977  36.411   9.045
 1564POPC   C1A22491  11.896  36.133   8.627
 1564POPC   D2A22492  12.268  35.956   8.415
 1564POPC   C3A22493  12.241  35.793   7.978
 1564POPC   C4A22494  11.961  35.956   7.641
 1564POPC   C1B22495  12.228  36.520   8.674
 1564POPC   C2B22496  12.188  36.430   8.269
 1564POPC   C3B22497  12.275  36.296   7.880
 1564POPC   C4B22498  12.010  36.464   7.552
 1565POPC   NC322499   1.262  34.474   9.598
 1565POPC   PO422500   0.717  34.788   9.567
 1565POPC   GL122501   1.032  34.704   9.203
 1565POPC   GL222502   1.439  34.744   9.210
 1565POPC   C1A22503   1.175  34.799   8.768
 1565POPC   D2A22504   0.989  34.842   8.343
 1565POPC   C3A22505   1.244  34.820   7.973
 1565POPC   C4A22506   1.341  34.454   7.633
 1565POPC   C1B22507   1.605  34.533   8.821
 1565POPC   C2B22508   1.488  34.616   8.384
 1565POPC   C3B22509   1.696  34.585   7.980
 1565POPC   C4B22510   1.642  34.877   7.650
 1566POPC   NC322511  11.565  32.087   9.461
 1566POPC   PO422512  10.870  32.096   9.297
 1566POPC   GL122513  11.181  32.103   9.074
 1566POPC   GL222514  11.299  32.397   9.153
 1566POPC   C1A22515  11.197  32.103   8.650
 1566POPC   D2A22516  11.354  32.236   8.286
 1566POPC   C3A22517  11.334  32.020   7.947
 1566POPC   C4A22518  10.957  31.893   7.853
 1566POPC   C1B22519  11.015  32.550   8.839
 1566POPC   C2B22520  11.053  32.610   8.465
 1566POPC   C3B22521  11.341  32.733   8.192
 1566POPC   C4B22522  11.190  32.500   7.823
 1567POPC   NC322523  26.467  34.734   9.362
 1567POPC   PO422524  27.071  34.903   9.626
 1567POPC   GL122525  26.963  34.614   9.268
 1567POPC   GL222526  27.138  34.746   9.042
 1567POPC   C1A22527  26.758  34.498   8.811
 1567POPC   D2A22528  26.611  34.681   8.375
 1567POPC   C3A22529  26.749  34.461   7.979
 1567POPC   C4A22530  26.539  34.072   7.801
 1567POPC   C1B22531  26.958  34.946   8.672
 1567POPC   C2B22532  26.967  35.065   8.246
 1567POPC   C3B22533  26.799  34.962   7.847
 1567POPC   C4B22534  27.132  34.841   7.529
 1568POPC   NC322535  38.992  31.047   9.480
 1568POPC   PO422536  39.497  30.700   9.255
 1568POPC   GL122537  39.167  30.840   9.044
 1568POPC   GL222538  38.951  30.584   9.193
 1568POPC   C1A22539  39.243  30.834   8.631
 1568POPC   D2A22540  39.379  30.554   8.349
 1568POPC   C3A22541  39.236  30.747   8.008
 1568POPC   C4A22542  39.392  30.586   7.670
 1568POPC   C1B22543  38.903  30.482   8.742
 1568POPC   C2B22544  38.823  30.709   8.347
 1568POPC   C3B22545  38.763  30.606   7.894
 1568POPC   C4B22546  38.932  30.468   7.477
 1569POPC   NC322547   5.744  32.217   9.652
 1569POPC   PO422548   5.692  32.865   9.380
 1569POPC   GL122549   5.716  32.442   9.177
 1569POPC   GL222550   6.028  32.213   9.217
 1569POPC   C1A22551   5.753  32.290   8.751
 1569POPC   D2A22552   5.951  32.423   8.366
 1569POPC   C3A22553   5.687  32.441   8.007
 1569POPC   C4A22554   5.518  32.425   7.592
 1569POPC   C1B22555   6.185  31.994   8.827
 1569POPC   C2B22556   6.030  31.894   8.390
 1569POPC   C3B22557   6.093  32.101   7.970
 1569POPC   C4B22558   6.045  32.466   7.645
 1570POPC   NC322559  39.704   0.197   9.455
 1570POPC   PO422560  39.157   0.688   9.515
 1570POPC   GL122561  39.041   0.487   9.141
 1570POPC   GL222562  39.362   0.358   9.075
 1570POPC   C1A22563  38.819   0.495   8.735
 1570POPC   D2A22564  38.579   0.651   8.374
 1570POPC   C3A22565  38.791   0.656   7.960
 1570POPC   C4A22566  39.207   0.814   7.860
 1570POPC   C1B22567  39.266   0.294   8.629
 1570POPC   C2B22568  39.156   0.450   8.237
 1570POPC   C3B22569  39.293   0.325   7.816
 1570POPC   C4B22570  39.660   0.086   7.701
 1571POPC   NC322571  29.643  33.415   9.700
 1571POPC   PO422572  30.072  33.925   9.621
 1571POPC   GL122573  29.807  33.829   9.281
 1571POPC   GL222574  29.804  33.498   9.176
 1571POPC   C1A22575  29.802  33.879   8.830
 1571POPC   D2A22576  30.075  33.706   8.514
 1571POPC   C3A22577  29.969  33.751   8.077
 1571POPC   C4A22578  30.230  33.716   7.704
 1571POPC   C1B22579  29.655  33.406   8.728
 1571POPC   C2B22580  29.798  33.306   8.368
 1571POPC   C3B22581  29.620  33.294   8.033
 1571POPC   C4B22582  29.751  33.480   7.718
 1572POPC   NC322583  15.528  16.241   9.469
 1572POPC   PO422584  14.966  16.025   9.636
 1572POPC   GL122585  15.155  15.941   9.213
 1572POPC   GL222586  15.184  16.270   9.104
 1572POPC   C1A22587  15.058  15.678   8.826
 1572POPC   D2A22588  15.203  15.703   8.395
 1572POPC   C3A22589  14.987  15.592   8.020
 1572POPC   C4A22590  15.095  15.805   7.659
 1572POPC   C1B22591  15.303  16.123   8.725
 1572POPC   C2B22592  15.358  16.207   8.321
 1572POPC   C3B22593  15.408  16.177   7.917
 1572POPC   C4B22594  15.147  16.320   7.633
 1573POPC   NC322595  33.956  30.933   9.671
 1573POPC   PO422596  33.508  30.587   9.457
 1573POPC   GL122597  33.692  30.917   9.174
 1573POPC   GL222598  34.037  31.086   9.185
 1573POPC   C1A22599  33.723  30.716   8.750
 1573POPC   D2A22600  33.639  30.496   8.331
 1573POPC   C3A22601  33.801  30.755   7.953
 1573POPC   C4A22602  33.824  30.601   7.502
 1573POPC   C1B22603  33.897  31.202   8.779
 1573POPC   C2B22604  34.111  31.254   8.388
 1573POPC   C3B22605  34.232  31.101   7.984
 1573POPC   C4B22606  34.117  30.989   7.587
 1574POPC   NC322607   1.730  19.618   9.950
 1574POPC   PO422608   2.071  19.994   9.489
 1574POPC   GL122609   1.958  19.902   9.109
 1574POPC   GL222610   1.739  19.634   9.187
 1574POPC   C1A22611   2.162  19.878   8.711
 1574POPC   D2A22612   2.384  19.963   8.330
 1574POPC   C3A22613   2.183  19.778   7.967
 1574POPC   C4A22614   1.990  19.709   7.550
 1574POPC   C1B22615   1.609  19.754   8.764
 1574POPC   C2B22616   1.797  19.770   8.338
 1574POPC   C3B22617   1.708  19.980   7.926
 1574POPC   C4B22618   1.599  20.019   7.489
 1575POPC   NC322619   7.215  34.354   9.456
 1575POPC   PO422620   7.716  34.837   9.514
 1575POPC   GL122621   7.500  34.659   9.168
 1575POPC   GL222622   7.113  34.773   9.160
 1575POPC   C1A22623   7.442  34.797   8.760
 1575POPC   D2A22624   7.189  34.819   8.417
 1575POPC   C3A22625   7.400  34.630   8.087
 1575POPC   C4A22626   7.367  34.794   7.719
 1575POPC   C1B22627   7.055  34.451   8.845
 1575POPC   C2B22628   7.300  34.331   8.517
 1575POPC   C3B22629   7.185  34.172   8.144
 1575POPC   C4B22630   7.080  34.367   7.771
 1576POPC   NC322631  12.525  44.868   9.406
 1576POPC   PO422632  12.974  44.405   9.671
 1576POPC   GL122633  12.972  44.503   9.238
 1576POPC   GL222634  12.734  44.264   9.124
 1576POPC   C1A22635  13.080  44.633   8.818
 1576POPC   D2A22636  12.860  44.915   8.523
 1576POPC   C3A22637  13.027  44.863   8.114
 1576POPC   C4A22638  12.902  44.897   7.694
 1576POPC   C1B22639  12.612  44.443   8.696
 1576POPC   C2B22640  12.705  44.500   8.271
 1576POPC   C3B22641  12.891  44.409   7.888
 1576POPC   C4B22642  12.779  44.130   7.604
 1577POPC   NC322643  21.553  14.581  10.053
 1577POPC   PO422644  21.193  14.262   9.571
 1577POPC   GL122645  21.321  14.419   9.209
 1577POPC   GL222646  21.665  14.385   9.282
 1577POPC   C1A22647  21.166  14.421   8.801
 1577POPC   D2A22648  21.408  14.341   8.428
 1577POPC   C3A22649  21.207  14.419   8.048
 1577POPC   C4A22650  21.049  14.302   7.652
 1577POPC   C1B22651  21.735  14.280   8.863
 1577POPC   C2B22652  21.812  14.032   8.486
 1577POPC   C3B22653  21.696  14.117   8.059
 1577POPC   C4B22654  21.541  14.247   7.677
 1578POPC   NC322655   4.492  31.589   9.668
 1578POPC   PO422656   3.978  31.130   9.672
 1578POPC   GL122657   4.116  31.099   9.230
 1578POPC   GL222658   4.324  31.443   9.216
 1578POPC   C1A22659   4.196  31.230   8.787
 1578POPC   D2A22660   4.551  31.237   8.506
 1578POPC   C3A22661   4.471  31.029   8.134
 1578POPC   C4A22662   4.243  31.096   7.789
 1578POPC   C1B22663   4.478  31.649   8.836
 1578POPC   C2B22664   4.296  31.704   8.398
 1578POPC   C3B22665   4.435  31.592   7.956
 1578POPC   C4B22666   4.323  31.678   7.479
 1579POPC   NC322667  33.436  42.202   9.554
 1579POPC   PO422668  34.033  42.509   9.502
 1579POPC   GL122669  33.887  42.261   9.178
 1579POPC   GL222670  33.614  42.401   9.139
 1579POPC   C1A22671  33.906  41.962   8.840
 1579POPC   D2A22672  33.789  42.020   8.406
 1579POPC   C3A22673  33.981  42.312   8.137
 1579POPC   C4A22674  33.855  42.427   7.710
 1579POPC   C1B22675  33.473  42.241   8.763
 1579POPC   C2B22676  33.287  42.162   8.389
 1579POPC   C3B22677  33.481  42.235   8.028
 1579POPC   C4B22678  33.401  42.128   7.624
 1580POPC   NC322679  12.664  39.526   9.400
 1580POPC   PO422680  13.061  39.033   9.573
 1580POPC   GL122681  12.908  39.128   9.213
 1580POPC   GL222682  13.048  39.419   9.094
 1580POPC   C1A22683  12.793  38.935   8.877
 1580POPC   D2A22684  12.918  38.920   8.467
 1580POPC   C3A22685  12.700  39.097   8.140
 1580POPC   C4A22686  12.679  39.484   7.905
 1580POPC   C1B22687  12.856  39.408   8.704
 1580POPC   C2B22688  12.978  39.481   8.319
 1580POPC   C3B22689  13.207  39.573   7.996
 1580POPC   C4B22690  13.077  39.573   7.573
 1581POPC   NC322691   7.965   2.564   9.470
 1581POPC   PO422692   8.354   3.033   9.539
 1581POPC   GL122693   8.352   2.803   9.175
 1581POPC   GL222694   8.038   2.939   9.126
 1581POPC   C1A22695   8.198   2.549   8.822
 1581POPC   D2A22696   8.022   2.575   8.436
 1581POPC   C3A22697   8.304   2.631   8.096
 1581POPC   C4A22698   8.111   2.674   7.720
 1581POPC   C1B22699   7.817   2.920   8.740
 1581POPC   C2B22700   7.658   3.124   8.370
 1581POPC   C3B22701   7.834   3.190   7.945
 1581POPC   C4B22702   8.001   3.105   7.498
 1582POPC   NC322703  41.947  41.501   9.538
 1582POPC   PO422704  41.292  41.314   9.486
 1582POPC   GL122705  41.376  41.540   9.076
 1582POPC   GL222706  41.707  41.669   9.116
 1582POPC   C1A22707  41.432  41.669   8.633
 1582POPC   D2A22708  41.254  41.428   8.251
 1582POPC   C3A22709  41.475  41.352   7.855
 1582POPC   C4A22710  41.327  41.162   7.486
 1582POPC   C1B22711  41.748  41.305   8.813
 1582POPC   C2B22712  41.753  41.307   8.359
 1582POPC   C3B22713  41.927  41.518   8.009
 1582POPC   C4B22714  41.733  41.770   7.682
 1583POPC   NC322715  36.842  32.037   9.637
 1583POPC   PO422716  36.562  32.712   9.523
 1583POPC   GL122717  36.715  32.404   9.249
 1583POPC   GL222718  37.035  32.429   9.111
 1583POPC   C1A22719  36.659  32.325   8.795
 1583POPC   D2A22720  36.709  32.581   8.414
 1583POPC   C3A22721  36.570  32.322   8.056
 1583POPC   C4A22722  36.684  31.941   7.875
 1583POPC   C1B22723  37.153  32.313   8.663
 1583POPC   C2B22724  37.036  32.214   8.209
 1583POPC   C3B22725  37.065  32.246   7.731
 1583POPC   C4B22726  37.268  32.349   7.304
 1584POPC   NC322727  42.480   5.099   9.523
 1584POPC   PO422728  41.919   5.471   9.457
 1584POPC   GL122729  42.175   5.280   9.101
 1584POPC   GL222730  42.268   4.915   9.101
 1584POPC   C1A22731  42.248   5.215   8.670
 1584POPC   D2A22732  42.079   5.394   8.314
 1584POPC   C3A22733  42.274   5.153   7.995
 1584POPC   C4A22734  42.091   4.940   7.669
 1584POPC   C1B22735  42.392   4.651   8.796
 1584POPC   C2B22736  42.407   4.760   8.402
 1584POPC   C3B22737  42.438   4.628   7.999
 1584POPC   C4B22738  42.626   4.881   7.691
 1585POPC   NC322739  31.352  36.056   9.570
 1585POPC   PO422740  31.960  35.984   9.487
 1585POPC   GL122741  31.626  35.967   9.144
 1585POPC   GL222742  31.310  35.794   9.114
 1585POPC   C1A22743  31.455  36.175   8.792
 1585POPC   D2A22744  31.332  36.080   8.357
 1585POPC   C3A22745  31.501  36.262   7.969
 1585POPC   C4A22746  31.404  36.120   7.524
 1585POPC   C1B22747  31.367  35.659   8.698
 1585POPC   C2B22748  31.131  35.621   8.331
 1585POPC   C3B22749  31.254  35.736   7.906
 1585POPC   C4B22750  31.167  35.652   7.470
 1586POPC   NC322751   2.208  19.508   9.332
 1586POPC   PO422752   1.707  19.067   9.581
 1586POPC   GL122753   1.828  19.099   9.127
 1586POPC   GL222754   1.597  19.245   8.891
 1586POPC   C1A22755   1.986  18.873   8.723
 1586POPC   D2A22756   1.808  19.026   8.341
 1586POPC   C3A22757   2.013  18.935   7.941
 1586POPC   C4A22758   2.379  18.907   7.689
 1586POPC   C1B22759   2.003  19.389   8.706
 1586POPC   C2B22760   2.155  19.389   8.289
 1586POPC   C3B22761   1.830  19.408   7.955
 1586POPC   C4B22762   1.507  19.517   7.677
 1587POPC   NC322763  31.295  27.212   9.414
 1587POPC   PO422764  31.709  26.701   9.566
 1587POPC   GL122765  31.650  26.895   9.128
 1587POPC   GL222766  31.318  26.992   8.967
 1587POPC   C1A22767  31.663  26.784   8.666
 1587POPC   D2A22768  31.267  26.771   8.422
 1587POPC   C3A22769  31.272  26.604   8.010
 1587POPC   C4A22770  31.595  26.811   7.811
 1587POPC   C1B22771  31.537  27.263   8.692
 1587POPC   C2B22772  31.613  27.148   8.253
 1587POPC   C3B22773  31.532  27.349   7.857
 1587POPC   C4B22774  31.386  27.228   7.455
 1588POPC   NC322775  15.252   6.376   9.509
 1588POPC   PO422776  15.008   7.012   9.713
 1588POPC   GL122777  14.944   6.855   9.194
 1588POPC   GL222778  15.053   6.513   9.063
 1588POPC   C1A22779  15.065   6.948   8.775
 1588POPC   D2A22780  15.100   6.706   8.429
 1588POPC   C3A22781  15.148   6.979   8.082
 1588POPC   C4A22782  15.220   6.809   7.693
 1588POPC   C1B22783  15.411   6.440   8.742
 1588POPC   C2B22784  15.365   6.262   8.296
 1588POPC   C3B22785  15.214   6.326   7.851
 1588POPC   C4B22786  15.530   6.446   7.510
 1589POPC   NC322787  27.877   9.573   9.837
 1589POPC   PO422788  28.084  10.086   9.391
 1589POPC   GL122789  28.449   9.854   9.248
 1589POPC   GL222790  28.754   9.981   9.254
 1589POPC   C1A22791  28.455   9.721   8.838
 1589POPC   D2A22792  28.151   9.704   8.493
 1589POPC   C3A22793  28.274   9.447   8.126
 1589POPC   C4A22794  28.233   9.572   7.696
 1589POPC   C1B22795  28.836  10.060   8.829
 1589POPC   C2B22796  28.532  10.136   8.477
 1589POPC   C3B22797  28.382   9.966   8.095
 1589POPC   C4B22798  28.502  10.022   7.689
 1590POPC   NC322799  16.069  11.214   9.389
 1590POPC   PO422800  15.450  11.286   9.626
 1590POPC   GL122801  15.495  11.513   9.188
 1590POPC   GL222802  15.855  11.606   9.144
 1590POPC   C1A22803  15.659  11.481   8.710
 1590POPC   D2A22804  15.976  11.233   8.424
 1590POPC   C3A22805  15.838  11.170   7.980
 1590POPC   C4A22806  15.567  11.125   7.614
 1590POPC   C1B22807  16.148  11.608   8.785
 1590POPC   C2B22808  16.095  11.727   8.359
 1590POPC   C3B22809  16.213  11.520   8.046
 1590POPC   C4B22810  16.298  11.328   7.708
 1591POPC   NC322811  36.778  41.286   9.487
 1591POPC   PO422812  36.736  40.723   9.649
 1591POPC   GL122813  36.673  40.855   9.219
 1591POPC   GL222814  36.987  40.679   9.150
 1591POPC   C1A22815  36.784  40.949   8.750
 1591POPC   D2A22816  36.931  41.126   8.304
 1591POPC   C3A22817  36.748  40.984   7.928
 1591POPC   C4A22818  36.986  40.964   7.540
 1591POPC   C1B22819  37.167  40.614   8.761
 1591POPC   C2B22820  36.970  40.620   8.359
 1591POPC   C3B22821  37.151  40.639   7.943
 1591POPC   C4B22822  37.201  40.485   7.501
 1592POPC   NC322823   8.589  40.615   9.624
 1592POPC   PO422824   9.252  40.792   9.713
 1592POPC   GL122825   9.227  40.858   9.261
 1592POPC   GL222826   8.924  41.030   9.138
 1592POPC   C1A22827   9.288  40.836   8.805
 1592POPC   D2A22828   9.115  40.881   8.383
 1592POPC   C3A22829   9.054  40.533   8.119
 1592POPC   C4A22830   9.178  40.684   7.720
 1592POPC   C1B22831   8.833  41.174   8.697
 1592POPC   C2B22832   8.769  41.238   8.229
 1592POPC   C3B22833   8.771  40.904   7.893
 1592POPC   C4B22834   8.766  40.846   7.415
 1593POPC   NC322835  34.660  39.753   9.665
 1593POPC   PO422836  35.368  39.890   9.534
 1593POPC   GL122837  35.238  40.087   9.133
 1593POPC   GL222838  35.022  40.375   9.120
 1593POPC   C1A22839  35.522  40.199   8.781
 1593POPC   D2A22840  35.450  39.929   8.414
 1593POPC   C3A22841  35.669  39.938   8.027
 1593POPC   C4A22842  35.541  39.731   7.647
 1593POPC   C1B22843  35.011  40.237   8.689
 1593POPC   C2B22844  34.875  40.079   8.292
 1593POPC   C3B22845  35.164  40.040   7.992
 1593POPC   C4B22846  35.162  40.061   7.568
 1594POPC   NC322847  27.863  44.468   9.490
 1594POPC   PO422848  27.248  44.798   9.626
 1594POPC   GL122849  27.209  44.542   9.207
 1594POPC   GL222850  27.458  44.263   9.179
 1594POPC   C1A22851  27.349  44.502   8.737
 1594POPC   D2A22852  27.573  44.665   8.329
 1594POPC   C3A22853  27.512  44.512   7.874
 1594POPC   C4A22854  27.296  44.538   7.402
 1594POPC   C1B22855  27.802  44.283   8.814
 1594POPC   C2B22856  27.771  44.174   8.377
 1594POPC   C3B22857  27.925  44.208   7.964
 1594POPC   C4B22858  28.146  44.559   7.744
 1595POPC   NC322859  25.075  37.378   9.358
 1595POPC   PO422860  25.411  36.695   9.430
 1595POPC   GL122861  25.328  36.962   9.129
 1595POPC   GL222862  24.983  36.941   9.124
 1595POPC   C1A22863  25.287  36.814   8.709
 1595POPC   D2A22864  25.129  36.894   8.334
 1595POPC   C3A22865  25.334  37.150   8.106
 1595POPC   C4A22866  25.302  37.002   7.735
 1595POPC   C1B22867  24.803  36.976   8.735
 1595POPC   C2B22868  24.760  37.230   8.365
 1595POPC   C3B22869  24.859  37.127   7.928
 1595POPC   C4B22870  24.935  37.263   7.465
 1596POPC   NC322871  39.656  15.008   9.434
 1596POPC   PO422872  39.003  14.945   9.432
 1596POPC   GL122873  39.181  15.262   9.142
 1596POPC   GL222874  38.953  15.564   9.084
 1596POPC   C1A22875  39.468  15.240   8.748
 1596POPC   D2A22876  39.576  14.982   8.359
 1596POPC   C3A22877  39.535  15.122   7.933
 1596POPC   C4A22878  39.404  14.991   7.534
 1596POPC   C1B22879  38.971  15.346   8.669
 1596POPC   C2B22880  39.151  15.304   8.243
 1596POPC   C3B22881  39.065  15.364   7.765
 1596POPC   C4B22882  38.820  15.593   7.408
 1597POPC   NC322883   8.473  43.784   9.451
 1597POPC   PO422884   7.937  44.160   9.445
 1597POPC   GL122885   8.149  43.981   9.105
 1597POPC   GL222886   7.878  43.758   9.102
 1597POPC   C1A22887   8.381  43.963   8.707
 1597POPC   D2A22888   8.188  43.961   8.303
 1597POPC   C3A22889   8.378  43.742   7.977
 1597POPC   C4A22890   8.489  43.886   7.583
 1597POPC   C1B22891   7.816  43.891   8.677
 1597POPC   C2B22892   7.693  43.784   8.241
 1597POPC   C3B22893   7.863  43.826   7.806
 1597POPC   C4B22894   7.772  43.622   7.363
 1598POPC   NC322895  24.103  28.706   9.381
 1598POPC   PO422896  24.408  29.022   9.913
 1598POPC   GL122897  24.404  29.106   9.382
 1598POPC   GL222898  24.566  28.831   9.163
 1598POPC   C1A22899  24.305  29.157   8.876
 1598POPC   D2A22900  24.512  29.175   8.445
 1598POPC   C3A22901  24.403  29.095   8.017
 1598POPC   C4A22902  24.103  29.333   7.818
 1598POPC   C1B22903  24.731  28.803   8.718
 1598POPC   C2B22904  24.648  28.698   8.256
 1598POPC   C3B22905  24.918  28.725   7.877
 1598POPC   C4B22906  24.974  29.074   7.602
 1599POPC   NC322907  21.085  30.199   9.096
 1599POPC   PO422908  21.408  29.644   9.219
 1599POPC   GL122909  21.324  29.801   8.895
 1599POPC   GL222910  20.984  29.648   8.888
 1599POPC   C1A22911  21.451  29.972   8.533
 1599POPC   D2A22912  21.203  29.671   8.377
 1599POPC   C3A22913  21.327  29.562   8.002
 1599POPC   C4A22914  21.618  29.793   7.831
 1599POPC   C1B22915  20.768  29.899   8.610
 1599POPC   C2B22916  20.884  30.272   8.458
 1599POPC   C3B22917  21.178  30.237   8.177
 1599POPC   C4B22918  21.179  30.059   7.783
 1600POPC   NC322919   6.742  37.518   9.485
 1600POPC   PO422920   6.327  38.047   9.624
 1600POPC   GL122921   6.580  37.903   9.210
 1600POPC   GL222922   6.499  37.604   9.016
 1600POPC   C1A22923   6.888  37.885   8.844
 1600POPC   D2A22924   7.053  37.773   8.425
 1600POPC   C3A22925   6.766  37.886   8.126
 1600POPC   C4A22926   6.831  37.960   7.735
 1600POPC   C1B22927   6.559  37.651   8.560
 1600POPC   C2B22928   6.324  37.635   8.207
 1600POPC   C3B22929   6.373  37.667   7.813
 1600POPC   C4B22930   6.607  37.515   7.537
 1601POPC   NC322931  24.873   6.771   9.593
 1601POPC   PO422932  25.477   6.572   9.688
 1601POPC   GL122933  25.342   6.723   9.277
 1601POPC   GL222934  25.026   6.876   9.137
 1601POPC   C1A22935  25.343   6.546   8.858
 1601POPC   D2A22936  25.514   6.416   8.464
 1601POPC   C3A22937  25.501   6.715   8.145
 1601POPC   C4A22938  25.382   6.597   7.744
 1601POPC   C1B22939  25.139   6.991   8.732
 1601POPC   C2B22940  25.024   6.757   8.366
 1601POPC   C3B22941  25.017   6.916   7.963
 1601POPC   C4B22942  25.014   6.966   7.543
 1602POPC   NC322943  16.969  41.800   9.465
 1602POPC   PO422944  16.412  41.420   9.377
 1602POPC   GL122945  16.523  41.560   9.011
 1602POPC   GL222946  16.811  41.791   8.992
 1602POPC   C1A22947  16.710  41.416   8.656
 1602POPC   D2A22948  16.824  41.682   8.347
 1602POPC   C3A22949  16.642  41.535   8.007
 1602POPC   C4A22950  16.877  41.435   7.656
 1602POPC   C1B22951  16.536  41.940   8.672
 1602POPC   C2B22952  16.404  42.021   8.240
 1602POPC   C3B22953  16.700  42.028   7.899
 1602POPC   C4B22954  16.723  41.858   7.465
 1603POPC   NC322955  22.050   2.557   9.385
 1603POPC   PO422956  22.554   3.020   9.427
 1603POPC   GL122957  22.301   2.884   9.101
 1603POPC   GL222958  22.000   2.994   9.095
 1603POPC   C1A22959  22.212   2.662   8.718
 1603POPC   D2A22960  22.367   2.809   8.312
 1603POPC   C3A22961  22.284   2.628   7.939
 1603POPC   C4A22962  22.442   2.702   7.535
 1603POPC   C1B22963  21.762   2.954   8.778
 1603POPC   C2B22964  21.848   2.889   8.403
 1603POPC   C3B22965  21.972   3.056   8.055
 1603POPC   C4B22966  22.034   2.989   7.665
 1604POPC   NC322967  20.852   5.344   9.933
 1604POPC   PO422968  20.459   4.989   9.553
 1604POPC   GL122969  20.560   4.947   9.129
 1604POPC   GL222970  20.872   4.972   9.168
 1604POPC   C1A22971  20.520   5.235   8.739
 1604POPC   D2A22972  20.601   4.934   8.395
 1604POPC   C3A22973  20.680   5.082   7.978
 1604POPC   C4A22974  20.359   5.334   7.764
 1604POPC   C1B22975  20.976   5.051   8.748
 1604POPC   C2B22976  21.031   5.239   8.343
 1604POPC   C3B22977  21.197   5.196   7.928
 1604POPC   C4B22978  21.210   4.825   7.672
 1605POPC   NC322979  41.053  13.520   9.560
 1605POPC   PO422980  41.678  13.722   9.657
 1605POPC   GL122981  41.473  13.628   9.266
 1605POPC   GL222982  41.393  13.251   9.247
 1605POPC   C1A22983  41.582  13.576   8.848
 1605POPC   D2A22984  41.895  13.707   8.582
 1605POPC   C3A22985  41.801  13.811   8.147
 1605POPC   C4A22986  41.625  13.718   7.745
 1605POPC   C1B22987  41.410  13.109   8.817
 1605POPC   C2B22988  41.532  13.063   8.385
 1605POPC   C3B22989  41.457  13.245   7.959
 1605POPC   C4B22990  41.453  13.311   7.481
 1606POPC   NC322991   5.909  23.599   9.396
 1606POPC   PO422992   5.520  24.113   9.485
 1606POPC   GL122993   5.683  23.940   9.111
 1606POPC   GL222994   5.982  24.072   9.125
 1606POPC   C1A22995   5.822  23.603   8.773
 1606POPC   D2A22996   6.111  23.462   8.461
 1606POPC   C3A22997   5.839  23.389   8.127
 1606POPC   C4A22998   5.720  23.642   7.767
 1606POPC   C1B22999   5.861  24.098   8.678
 1606POPC   C2B23000   5.822  23.880   8.274
 1606POPC   C3B23001   6.164  23.763   7.992
 1606POPC   C4B23002   6.155  23.809   7.537
 1607POPC   NC323003  28.894   0.920   9.301
 1607POPC   PO423004  29.410   0.892   9.713
 1607POPC   GL123005  29.374   1.101   9.258
 1607POPC   GL223006  29.103   1.348   9.150
 1607POPC   C1A23007  29.347   1.066   8.800
 1607POPC   D2A23008  29.562   1.291   8.457
 1607POPC   C3A23009  29.307   1.390   8.066
 1607POPC   C4A23010  29.258   1.387   7.582
 1607POPC   C1B23011  29.164   1.539   8.747
 1607POPC   C2B23012  29.007   1.294   8.457
 1607POPC   C3B23013  28.797   1.302   8.105
 1607POPC   C4B23014  28.873   1.593   7.796
 1608POPC   NC323015  24.621  13.261   9.500
 1608POPC   PO423016  24.074  13.641   9.345
 1608POPC   GL123017  24.422  13.541   9.118
 1608POPC   GL223018  24.578  13.839   9.198
 1608POPC   C1A23019  24.527  13.585   8.711
 1608POPC   D2A23020  24.335  13.695   8.362
 1608POPC   C3A23021  24.448  13.479   7.982
 1608POPC   C4A23022  24.364  13.546   7.582
 1608POPC   C1B23023  24.890  13.898   8.885
 1608POPC   C2B23024  24.774  13.965   8.465
 1608POPC   C3B23025  24.607  13.955   8.035
 1608POPC   C4B23026  24.733  13.887   7.642
 1609POPC   NC323027  39.354  21.046   9.461
 1609POPC   PO423028  39.596  21.634   9.541
 1609POPC   GL123029  39.269  21.527   9.234
 1609POPC   GL223030  39.047  21.819   9.134
 1609POPC   C1A23031  39.134  21.261   8.851
 1609POPC   D2A23032  38.828  21.177   8.472
 1609POPC   C3A23033  38.946  21.403   8.080
 1609POPC   C4A23034  39.097  21.245   7.672
 1609POPC   C1B23035  39.391  21.793   8.822
 1609POPC   C2B23036  39.431  21.929   8.399
 1609POPC   C3B23037  39.595  21.854   7.985
 1609POPC   C4B23038  39.372  21.689   7.628
 1610POPC   NC323039   1.739  44.072   9.446
 1610POPC   PO423040   2.212  43.451   9.408
 1610POPC   GL123041   1.960  43.735   9.119
 1610POPC   GL223042   1.808  43.469   8.999
 1610POPC   C1A23043   2.057  44.090   8.793
 1610POPC   D2A23044   2.407  44.153   8.486
 1610POPC   C3A23045   2.281  44.042   8.062
 1610POPC   C4A23046   2.092  44.265   7.720
 1610POPC   C1B23047   1.983  43.623   8.605
 1610POPC   C2B23048   1.812  43.919   8.296
 1610POPC   C3B23049   1.808  43.880   7.854
 1610POPC   C4B23050   2.214  43.776   7.609
 1611POPC   NC323051   0.366  37.953   9.352
 1611POPC   PO423052   0.304  38.665   9.480
 1611POPC   GL123053   0.481  38.409   9.184
 1611POPC   GL223054   0.795  38.543   9.123
 1611POPC   C1A23055   0.567  38.231   8.776
 1611POPC   D2A23056   0.694  38.455   8.413
 1611POPC   C3A23057   0.428  38.440   8.052
 1611POPC   C4A23058   0.361  38.101   7.803
 1611POPC   C1B23059   0.558  38.794   8.843
 1611POPC   C2B23060   0.469  38.900   8.429
 1611POPC   C3B23061   0.737  38.850   8.083
 1611POPC   C4B23062   0.619  38.766   7.687
 1612POPC   NC323063  25.024   8.463   9.582
 1612POPC   PO423064  25.485   7.989   9.509
 1612POPC   GL123065  25.247   8.111   9.162
 1612POPC   GL223066  25.350   8.437   9.185
 1612POPC   C1A23067  25.187   8.254   8.730
 1612POPC   D2A23068  25.231   8.082   8.337
 1612POPC   C3A23069  25.008   8.344   8.045
 1612POPC   C4A23070  25.062   8.136   7.641
 1612POPC   C1B23071  25.653   8.408   8.853
 1612POPC   C2B23072  25.547   8.505   8.436
 1612POPC   C3B23073  25.540   8.393   8.015
 1612POPC   C4B23074  25.315   8.551   7.707
 1613POPC   NC323075  10.277  11.438   9.560
 1613POPC   PO423076  10.858  11.159   9.742
 1613POPC   GL123077  10.739  11.349   9.321
 1613POPC   GL223078  10.527  11.084   9.280
 1613POPC   C1A23079  10.486  11.468   8.895
 1613POPC   D2A23080  10.499  11.386   8.411
 1613POPC   C3A23081  10.369  11.537   7.961
 1613POPC   C4A23082  10.191  11.327   7.615
 1613POPC   C1B23083  10.797  11.060   8.899
 1613POPC   C2B23084  10.697  10.922   8.479
 1613POPC   C3B23085  10.534  10.975   8.046
 1613POPC   C4B23086  10.920  10.881   7.788
 1614POPC   NC323087   7.824  11.156   9.510
 1614POPC   PO423088   7.130  11.309   9.558
 1614POPC   GL123089   7.335  11.310   9.184
 1614POPC   GL223090   7.669  11.421   9.094
 1614POPC   C1A23091   7.401  11.101   8.804
 1614POPC   D2A23092   7.489  11.215   8.384
 1614POPC   C3A23093   7.139  11.241   8.063
 1614POPC   C4A23094   7.165  11.202   7.614
 1614POPC   C1B23095   7.849  11.547   8.697
 1614POPC   C2B23096   7.744  11.648   8.261
 1614POPC   C3B23097   7.601  11.404   7.893
 1614POPC   C4B23098   7.594  11.431   7.438
 1615POPC   NC323099  17.407   0.088   9.601
 1615POPC   PO423100  17.768  44.434   9.524
 1615POPC   GL123101  17.597  44.575   9.164
 1615POPC   GL223102  17.435  44.252   9.081
 1615POPC   C1A23103  17.778  44.575   8.769
 1615POPC   D2A23104  17.886  44.348   8.398
 1615POPC   C3A23105  17.669  44.515   8.062
 1615POPC   C4A23106  17.735  44.689   7.652
 1615POPC   C1B23107  17.288  44.411   8.659
 1615POPC   C2B23108  17.143  44.691   8.311
 1615POPC   C3B23109  17.220  44.664   7.866
 1615POPC   C4B23110  17.310  44.220   7.794
 1616POPC   NC323111   5.140  42.216   9.444
 1616POPC   PO423112   4.963  42.796   9.594
 1616POPC   GL123113   4.851  42.562   9.140
 1616POPC   GL223114   5.010  42.210   8.979
 1616POPC   C1A23115   5.084  42.602   8.707
 1616POPC   D2A23116   5.300  42.254   8.493
 1616POPC   C3A23117   5.371  42.470   8.129
 1616POPC   C4A23118   5.048  42.574   7.783
 1616POPC   C1B23119   4.713  42.252   8.691
 1616POPC   C2B23120   4.786  42.163   8.286
 1616POPC   C3B23121   5.056  42.090   7.973
 1616POPC   C4B23122   4.980  42.008   7.547
 1617POPC   NC323123  29.556  11.854   9.397
 1617POPC   PO423124  29.006  12.110   9.687
 1617POPC   GL123125  29.074  11.980   9.246
 1617POPC   GL223126  28.994  12.251   9.061
 1617POPC   C1A23127  29.195  11.852   8.797
 1617POPC   D2A23128  28.970  11.910   8.399
 1617POPC   C3A23129  29.167  11.870   8.008
 1617POPC   C4A23130  29.161  12.060   7.640
 1617POPC   C1B23131  29.184  12.366   8.682
 1617POPC   C2B23132  29.428  12.182   8.360
 1617POPC   C3B23133  29.437  12.352   7.946
 1617POPC   C4B23134  29.524  12.419   7.498
 1618POPC   NC323135  18.211   7.039   9.315
 1618POPC   PO423136  18.522   6.433   9.422
 1618POPC   GL123137  18.586   6.469   9.022
 1618POPC   GL223138  18.705   6.826   9.050
 1618POPC   C1A23139  18.240   6.328   8.733
 1618POPC   D2A23140  18.005   6.582   8.435
 1618POPC   C3A23141  18.078   6.497   8.002
 1618POPC   C4A23142  17.980   6.459   7.556
 1618POPC   C1B23143  18.471   6.785   8.633
 1618POPC   C2B23144  18.531   6.683   8.160
 1618POPC   C3B23145  18.469   6.718   7.700
 1618POPC   C4B23146  18.632   6.841   7.249
 1619POPC   NC323147   4.627  23.142   9.439
 1619POPC   PO423148   4.182  22.749   9.704
 1619POPC   GL123149   4.350  22.777   9.225
 1619POPC   GL223150   4.586  22.513   9.086
 1619POPC   C1A23151   4.389  23.050   8.844
 1619POPC   D2A23152   4.592  22.969   8.472
 1619POPC   C3A23153   4.375  22.998   8.093
 1619POPC   C4A23154   4.407  22.884   7.685
 1619POPC   C1B23155   4.290  22.572   8.738
 1619POPC   C2B23156   4.001  22.667   8.410
 1619POPC   C3B23157   4.002  22.638   7.975
 1619POPC   C4B23158   4.022  22.597   7.526
 1620POPC   NC323159  13.888  10.462   9.551
 1620POPC   PO423160  13.730  11.080   9.565
 1620POPC   GL123161  13.593  10.768   9.208
 1620POPC   GL223162  13.645  10.377   9.106
 1620POPC   C1A23163  13.448  10.741   8.789
 1620POPC   D2A23164  13.685  10.689   8.409
 1620POPC   C3A23165  13.542  10.802   7.997
 1620POPC   C4A23166  13.308  10.466   7.831
 1620POPC   C1B23167  13.960  10.550   8.841
 1620POPC   C2B23168  14.146  10.413   8.468
 1620POPC   C3B23169  13.967  10.431   8.074
 1620POPC   C4B23170  13.793  10.417   7.645
 1621POPC   NC323171  18.795  11.421   9.424
 1621POPC   PO423172  18.160  11.304   9.590
 1621POPC   GL123173  18.315  11.264   9.203
 1621POPC   GL223174  18.354  11.579   9.150
 1621POPC   C1A23175  18.165  11.175   8.784
 1621POPC   D2A23176  18.318  11.092   8.357
 1621POPC   C3A23177  18.027  11.143   8.057
 1621POPC   C4A23178  18.106  11.231   7.623
 1621POPC   C1B23179  18.505  11.543   8.743
 1621POPC   C2B23180  18.669  11.459   8.351
 1621POPC   C3B23181  18.467  11.414   7.954
 1621POPC   C4B23182  18.481  11.587   7.536
 1622POPC   NC323183  39.699  27.000   9.467
 1622POPC   PO423184  40.112  26.654   9.748
 1622POPC   GL123185  40.013  26.700   9.223
 1622POPC   GL223186  39.781  26.551   9.015
 1622POPC   C1A23187  40.092  26.910   8.809
 1622POPC   D2A23188  39.880  26.989   8.425
 1622POPC   C3A23189  40.112  26.870   8.075
 1622POPC   C4A23190  40.114  27.019   7.667
 1622POPC   C1B23191  39.542  26.847   8.798
 1622POPC   C2B23192  39.464  26.661   8.447
 1622POPC   C3B23193  39.709  26.532   8.130
 1622POPC   C4B23194  39.655  26.819   7.847
 1623POPC   NC323195  21.964  34.754   9.568
 1623POPC   PO423196  22.436  34.298   9.350
 1623POPC   GL123197  22.222  34.595   9.128
 1623POPC   GL223198  21.901  34.507   9.093
 1623POPC   C1A23199  22.379  34.682   8.716
 1623POPC   D2A23200  22.480  34.506   8.321
 1623POPC   C3A23201  22.412  34.787   7.996
 1623POPC   C4A23202  22.243  34.852   7.605
 1623POPC   C1B23203  21.899  34.831   8.773
 1623POPC   C2B23204  22.080  34.978   8.369
 1623POPC   C3B23205  21.873  34.903   7.965
 1623POPC   C4B23206  21.884  34.495   7.738
 1624POPC   NC323207   9.799   1.616   9.550
 1624POPC   PO423208   9.938   2.274   9.682
 1624POPC   GL123209   9.750   2.047   9.271
 1624POPC   GL223210   9.571   1.704   9.116
 1624POPC   C1A23211   9.616   2.135   8.859
 1624POPC   D2A23212   9.444   1.908   8.508
 1624POPC   C3A23213   9.564   2.127   8.131
 1624POPC   C4A23214   9.432   2.048   7.732
 1624POPC   C1B23215   9.910   1.610   8.775
 1624POPC   C2B23216  10.071   1.675   8.305
 1624POPC   C3B23217   9.932   1.829   7.853
 1624POPC   C4B23218  10.095   1.682   7.425
 1625POPC   NC323219  34.616  10.850   9.369
 1625POPC   PO423220  34.333  10.270   9.560
 1625POPC   GL123221  34.540  10.357   9.171
 1625POPC   GL223222  34.898  10.450   9.158
 1625POPC   C1A23223  34.545  10.535   8.751
 1625POPC   D2A23224  34.634  10.789   8.396
 1625POPC   C3A23225  34.533  10.638   8.005
 1625POPC   C4A23226  34.502  10.455   7.621
 1625POPC   C1B23227  35.059  10.503   8.725
 1625POPC   C2B23228  34.976  10.395   8.287
 1625POPC   C3B23229  34.860  10.216   7.888
 1625POPC   C4B23230  34.994  10.490   7.528
 1626POPC   NC323231  40.600   9.021   9.691
 1626POPC   PO423232  39.960   9.258   9.700
 1626POPC   GL123233  40.148   8.967   9.366
 1626POPC   GL223234  40.136   9.276   9.213
 1626POPC   C1A23235  40.230   8.906   8.875
 1626POPC   D2A23236  39.964   9.034   8.497
 1626POPC   C3A23237  40.017   8.841   8.090
 1626POPC   C4A23238  40.044   8.624   7.694
 1626POPC   C1B23239  40.092   9.430   8.824
 1626POPC   C2B23240  40.256   9.431   8.397
 1626POPC   C3B23241  40.153   9.366   7.978
 1626POPC   C4B23242  39.863   9.162   7.692
 1627POPC   NC323243   1.506   8.605   9.392
 1627POPC   PO423244   1.054   8.985   9.670
 1627POPC   GL123245   1.077   8.819   9.226
 1627POPC   GL223246   1.382   9.003   9.096
 1627POPC   C1A23247   1.069   8.783   8.751
 1627POPC   D2A23248   1.360   8.718   8.399
 1627POPC   C3A23249   1.320   8.822   8.009
 1627POPC   C4A23250   0.919   8.895   7.868
 1627POPC   C1B23251   1.298   9.240   8.726
 1627POPC   C2B23252   1.101   9.186   8.321
 1627POPC   C3B23253   1.230   9.310   7.913
 1627POPC   C4B23254   1.504   9.475   7.573
 1628POPC   NC323255  18.794  42.499   9.514
 1628POPC   PO423256  19.443  42.373   9.316
 1628POPC   GL123257  19.086  42.227   9.094
 1628POPC   GL223258  18.869  42.515   9.025
 1628POPC   C1A23259  19.154  42.307   8.652
 1628POPC   D2A23260  19.378  42.101   8.329
 1628POPC   C3A23261  19.271  42.261   7.961
 1628POPC   C4A23262  18.859  42.216   7.800
 1628POPC   C1B23263  18.702  42.596   8.650
 1628POPC   C2B23264  18.876  42.506   8.255
 1628POPC   C3B23265  18.977  42.699   7.909
 1628POPC   C4B23266  18.763  42.619   7.514
 1629POPC   NC323267  37.449  38.619   9.579
 1629POPC   PO423268  37.958  38.144   9.368
 1629POPC   GL123269  37.560  38.299   9.166
 1629POPC   GL223270  37.447  38.669   9.090
 1629POPC   C1A23271  37.575  38.363   8.714
 1629POPC   D2A23272  37.651  38.616   8.349
 1629POPC   C3A23273  37.680  38.394   7.979
 1629POPC   C4A23274  37.789  38.284   7.566
 1629POPC   C1B23275  37.290  39.004   8.827
 1629POPC   C2B23276  37.348  39.042   8.394
 1629POPC   C3B23277  37.267  38.752   8.051
 1629POPC   C4B23278  37.346  38.625   7.635
 1630POPC   NC323279  38.141  14.212   9.578
 1630POPC   PO423280  38.817  13.990   9.461
 1630POPC   GL123281  38.539  14.246   9.145
 1630POPC   GL223282  38.196  14.465   9.142
 1630POPC   C1A23283  38.535  14.184   8.696
 1630POPC   D2A23284  38.504  14.469   8.347
 1630POPC   C3A23285  38.782  14.489   8.013
 1630POPC   C4A23286  38.760  14.139   7.801
 1630POPC   C1B23287  38.078  14.387   8.707
 1630POPC   C2B23288  38.135  14.023   8.407
 1630POPC   C3B23289  38.322  13.997   8.039
 1630POPC   C4B23290  38.300  14.417   7.876
 1631POPC   NC323291  32.025  32.710   9.414
 1631POPC   PO423292  32.319  33.249   9.565
 1631POPC   GL123293  32.333  33.105   9.149
 1631POPC   GL223294  32.497  33.391   9.040
 1631POPC   C1A23295  32.277  32.807   8.793
 1631POPC   D2A23296  32.070  32.595   8.423
 1631POPC   C3A23297  32.250  32.689   7.998
 1631POPC   C4A23298  32.365  32.683   7.552
 1631POPC   C1B23299  32.227  33.309   8.667
 1631POPC   C2B23300  32.066  33.330   8.267
 1631POPC   C3B23301  32.091  33.166   7.873
 1631POPC   C4B23302  32.350  33.487   7.761
 1632POPC   NC323303  11.939  37.267   9.482
 1632POPC   PO423304  12.466  37.662   9.546
 1632POPC   GL123305  12.208  37.588   9.194
 1632POPC   GL223306  12.396  37.300   9.134
 1632POPC   C1A23307  11.967  37.475   8.817
 1632POPC   D2A23308  11.733  37.317   8.456
 1632POPC   C3A23309  11.918  37.448   8.077
 1632POPC   C4A23310  12.008  37.787   7.836
 1632POPC   C1B23311  12.490  37.499   8.760
 1632POPC   C2B23312  12.348  37.404   8.381
 1632POPC   C3B23313  12.486  37.266   8.016
 1632POPC   C4B23314  12.379  37.503   7.678
 1633POPC   NC323315  15.001  42.607   9.491
 1633POPC   PO423316  15.395  42.134   9.537
 1633POPC   GL123317  15.091  42.190   9.155
 1633POPC   GL223318  15.007  42.505   9.012
 1633POPC   C1A23319  15.168  42.170   8.689
 1633POPC   D2A23320  14.996  42.434   8.367
 1633POPC   C3A23321  14.994  42.202   7.970
 1633POPC   C4A23322  15.077  41.957   7.604
 1633POPC   C1B23323  15.346  42.726   8.785
 1633POPC   C2B23324  15.268  42.897   8.377
 1633POPC   C3B23325  15.331  42.635   8.014
 1633POPC   C4B23326  15.564  42.714   7.654
 1634POPC   NC323327  39.711  10.439   9.405
 1634POPC   PO423328  40.350  10.174   9.610
 1634POPC   GL123329  40.202  10.308   9.172
 1634POPC   GL223330  40.091  10.654   9.139
 1634POPC   C1A23331  40.097  10.339   8.707
 1634POPC   D2A23332  40.150  10.568   8.301
 1634POPC   C3A23333  40.062  10.311   7.935
 1634POPC   C4A23334  40.045  10.300   7.470
 1634POPC   C1B23335  39.757  10.720   8.787
 1634POPC   C2B23336  39.798  10.948   8.383
 1634POPC   C3B23337  39.743  10.753   7.955
 1634POPC   C4B23338  39.743  10.836   7.501
 1635POPC   NC323339  11.052  27.381   9.545
 1635POPC   PO423340  10.358  27.513   9.492
 1635POPC   GL123341  10.472  27.615   9.085
 1635POPC   GL223342  10.809  27.639   9.129
 1635POPC   C1A23343  10.530  27.725   8.665
 1635POPC   D2A23344  10.792  27.777   8.315
 1635POPC   C3A23345  10.563  27.868   7.921
 1635POPC   C4A23346  10.392  27.610   7.591
 1635POPC   C1B23347  10.912  27.362   8.782
 1635POPC   C2B23348  11.070  27.339   8.360
 1635POPC   C3B23349  10.884  27.407   7.959
 1635POPC   C4B23350  10.903  27.639   7.612
 1636POPC   NC323351  34.264  42.058   9.479
 1636POPC   PO423352  34.808  42.518   9.482
 1636POPC   GL123353  34.673  42.276   9.168
 1636POPC   GL223354  34.381  42.448   9.128
 1636POPC   C1A23355  34.654  42.307   8.722
 1636POPC   D2A23356  34.800  42.041   8.412
 1636POPC   C3A23357  34.694  42.189   8.007
 1636POPC   C4A23358  34.847  42.560   7.784
 1636POPC   C1B23359  34.135  42.423   8.752
 1636POPC   C2B23360  34.060  42.736   8.463
 1636POPC   C3B23361  34.084  42.811   8.036
 1636POPC   C4B23362  34.339  42.522   7.815
 1637POPC   NC323363  16.507  40.274   9.514
 1637POPC   PO423364  17.048  39.892   9.565
 1637POPC   GL123365  17.007  39.993   9.171
 1637POPC   GL223366  16.690  39.941   9.157
 1637POPC   C1A23367  17.040  40.203   8.781
 1637POPC   D2A23368  17.228  40.054   8.409
 1637POPC   C3A23369  16.974  40.137   8.100
 1637POPC   C4A23370  16.895  40.031   7.711
 1637POPC   C1B23371  16.551  40.084   8.786
 1637POPC   C2B23372  16.525  40.223   8.389
 1637POPC   C3B23373  16.490  39.944   8.067
 1637POPC   C4B23374  16.401  40.111   7.719
 1638POPC   NC323375  17.190  27.623   9.765
 1638POPC   PO423376  16.623  27.209   9.824
 1638POPC   GL123377  16.759  27.307   9.341
 1638POPC   GL223378  16.490  27.261   9.098
 1638POPC   C1A23379  16.850  27.583   8.915
 1638POPC   D2A23380  17.033  27.571   8.495
 1638POPC   C3A23381  16.927  27.655   8.048
 1638POPC   C4A23382  16.659  27.668   7.698
 1638POPC   C1B23383  16.610  27.229   8.674
 1638POPC   C2B23384  16.549  27.451   8.324
 1638POPC   C3B23385  16.564  27.232   7.961
 1638POPC   C4B23386  16.708  27.202   7.524
 1639POPC   NC323387   4.050  32.394   9.273
 1639POPC   PO423388   4.348  32.034   9.699
 1639POPC   GL123389   4.375  31.993   9.219
 1639POPC   GL223390   4.585  32.275   9.179
 1639POPC   C1A23391   4.326  32.122   8.727
 1639POPC   D2A23392   4.106  32.204   8.309
 1639POPC   C3A23393   4.189  32.048   7.882
 1639POPC   C4A23394   4.035  32.104   7.448
 1639POPC   C1B23395   4.659  32.508   8.833
 1639POPC   C2B23396   4.396  32.603   8.483
 1639POPC   C3B23397   4.423  32.531   8.049
 1639POPC   C4B23398   4.262  32.510   7.643
 1640POPC   NC323399  18.380   1.594   9.436
 1640POPC   PO423400  18.266   0.958   9.539
 1640POPC   GL123401  18.023   1.052   9.150
 1640POPC   GL223402  17.998   1.448   9.090
 1640POPC   C1A23403  17.981   0.902   8.705
 1640POPC   D2A23404  18.009   0.868   8.242
 1640POPC   C3A23405  18.289   1.053   7.942
 1640POPC   C4A23406  18.350   1.370   7.683
 1640POPC   C1B23407  18.308   1.299   8.797
 1640POPC   C2B23408  18.306   1.336   8.370
 1640POPC   C3B23409  18.631   1.403   8.101
 1640POPC   C4B23410  18.792   1.604   7.708
 1641POPC   NC323411  42.679  28.477   9.468
 1641POPC   PO423412  43.222  28.051   9.404
 1641POPC   GL123413  43.101  28.414   9.175
 1641POPC   GL223414  43.334  28.684   9.251
 1641POPC   C1A23415  42.994  28.458   8.752
 1641POPC   D2A23416  43.105  28.233   8.424
 1641POPC   C3A23417  43.041  28.405   8.058
 1641POPC   C4A23418  42.978  28.188   7.708
 1641POPC   C1B23419  43.497  28.477   8.846
 1641POPC   C2B23420  43.462  28.591   8.402
 1641POPC   C3B23421  43.539  28.554   7.996
 1641POPC   C4B23422  43.462  28.286   7.690
 1642POPC   NC323423   7.873  12.319   9.516
 1642POPC   PO423424   7.805  11.651   9.526
 1642POPC   GL123425   7.753  11.941   9.165
 1642POPC   GL223426   7.443  11.957   9.003
 1642POPC   C1A23427   7.775  12.323   8.844
 1642POPC   D2A23428   7.890  12.414   8.408
 1642POPC   C3A23429   7.581  12.347   8.098
 1642POPC   C4A23430   7.514  12.165   7.712
 1642POPC   C1B23431   7.318  11.621   8.771
 1642POPC   C2B23432   7.182  11.634   8.388
 1642POPC   C3B23433   7.316  11.827   8.037
 1642POPC   C4B23434   7.243  11.727   7.629
 1643POPC   NC323435  30.427  16.963   9.311
 1643POPC   PO423436  30.705  16.364   9.475
 1643POPC   GL123437  30.740  16.585   9.130
 1643POPC   GL223438  30.392  16.539   9.033
 1643POPC   C1A23439  30.870  16.589   8.718
 1643POPC   D2A23440  30.735  16.486   8.290
 1643POPC   C3A23441  30.574  16.808   8.011
 1643POPC   C4A23442  30.778  16.992   7.635
 1643POPC   C1B23443  30.364  16.701   8.619
 1643POPC   C2B23444  30.221  16.469   8.274
 1643POPC   C3B23445  30.354  16.351   7.880
 1643POPC   C4B23446  30.303  16.665   7.558
 1644POPC   NC323447  40.478  44.120   9.496
 1644POPC   PO423448  40.996  43.722   9.577
 1644POPC   GL123449  40.834  43.874   9.181
 1644POPC   GL223450  40.501  43.729   9.109
 1644POPC   C1A23451  40.916  43.714   8.769
 1644POPC   D2A23452  41.083  43.591   8.386
 1644POPC   C3A23453  40.839  43.857   8.071
 1644POPC   C4A23454  41.015  44.229   7.874
 1644POPC   C1B23455  40.437  43.910   8.683
 1644POPC   C2B23456  40.242  43.876   8.286
 1644POPC   C3B23457  40.334  43.597   7.961
 1644POPC   C4B23458  40.633  43.638   7.643
 1645POPC   NC323459  25.834   1.022   9.480
 1645POPC   PO423460  25.779   1.731   9.247
 1645POPC   GL123461  25.857   1.310   9.029
 1645POPC   GL223462  25.740   0.926   8.995
 1645POPC   C1A23463  25.872   1.282   8.563
 1645POPC   D2A23464  26.213   1.473   8.308
 1645POPC   C3A23465  26.132   1.612   7.908
 1645POPC   C4A23466  25.754   1.503   7.715
 1645POPC   C1B23467  26.132   0.921   8.800
 1645POPC   C2B23468  26.244   0.950   8.361
 1645POPC   C3B23469  26.027   1.099   7.973
 1645POPC   C4B23470  25.579   1.042   7.819
 1646POPC   NC323471   7.556  14.623   9.640
 1646POPC   PO423472   7.174  14.160   9.466
 1646POPC   GL123473   7.399  14.437   9.178
 1646POPC   GL223474   7.591  14.779   9.154
 1646POPC   C1A23475   7.529  14.381   8.761
 1646POPC   D2A23476   7.414  14.149   8.419
 1646POPC   C3A23477   7.541  14.310   8.047
 1646POPC   C4A23478   7.599  14.101   7.680
 1646POPC   C1B23479   7.220  14.777   8.852
 1646POPC   C2B23480   7.131  14.588   8.457
 1646POPC   C3B23481   7.168  14.706   8.062
 1646POPC   C4B23482   7.465  14.832   7.778
 1647POPC   NC323483  31.918  15.838   9.725
 1647POPC   PO423484  32.393  16.352   9.544
 1647POPC   GL123485  32.252  16.143   9.201
 1647POPC   GL223486  32.362  15.797   9.169
 1647POPC   C1A23487  32.088  16.085   8.802
 1647POPC   D2A23488  32.284  16.139   8.417
 1647POPC   C3A23489  32.055  16.108   8.069
 1647POPC   C4A23490  31.885  16.370   7.784
 1647POPC   C1B23491  32.512  15.785   8.727
 1647POPC   C2B23492  32.470  15.671   8.254
 1647POPC   C3B23493  32.389  15.829   7.807
 1647POPC   C4B23494  32.497  15.821   7.360
 1648POPC   NC323495  40.964  24.964   9.507
 1648POPC   PO423496  40.305  25.086   9.458
 1648POPC   GL123497  40.654  25.160   9.145
 1648POPC   GL223498  40.938  25.416   8.994
 1648POPC   C1A23499  40.581  25.173   8.735
 1648POPC   D2A23500  40.366  25.165   8.395
 1648POPC   C3A23501  40.619  25.310   8.061
 1648POPC   C4A23502  40.950  25.171   7.804
 1648POPC   C1B23503  41.095  25.058   8.797
 1648POPC   C2B23504  40.936  25.035   8.390
 1648POPC   C3B23505  41.165  25.356   8.232
 1648POPC   C4B23506  41.210  25.608   7.889
 1649POPC   NC323507  36.813  39.495   9.339
 1649POPC   PO423508  37.098  38.906   9.461
 1649POPC   GL123509  36.804  38.963   9.104
 1649POPC   GL223510  36.713  39.267   8.917
 1649POPC   C1A23511  36.587  38.827   8.735
 1649POPC   D2A23512  36.871  38.840   8.381
 1649POPC   C3A23513  36.924  39.158   8.094
 1649POPC   C4A23514  37.160  39.135   7.719
 1649POPC   C1B23515  36.991  39.357   8.594
 1649POPC   C2B23516  37.272  39.571   8.333
 1649POPC   C3B23517  37.211  39.609   7.933
 1649POPC   C4B23518  36.818  39.498   7.727
 1650POPC   NC323519  20.738  28.149   9.477
 1650POPC   PO423520  20.475  27.556   9.656
 1650POPC   GL123521  20.427  27.351   9.263
 1650POPC   GL223522  20.390  27.679   9.123
 1650POPC   C1A23523  20.382  27.253   8.810
 1650POPC   D2A23524  20.424  27.515   8.433
 1650POPC   C3A23525  20.393  27.302   8.030
 1650POPC   C4A23526  20.333  27.565   7.629
 1650POPC   C1B23527  20.723  27.705   8.819
 1650POPC   C2B23528  20.786  27.931   8.441
 1650POPC   C3B23529  20.632  27.769   8.021
 1650POPC   C4B23530  20.812  27.389   7.765
 1651POPC   NC323531  22.514  35.187   9.664
 1651POPC   PO423532  21.870  35.215   9.639
 1651POPC   GL123533  22.033  35.105   9.219
 1651POPC   GL223534  21.687  35.007   9.185
 1651POPC   C1A23535  22.181  35.233   8.814
 1651POPC   D2A23536  22.237  35.545   8.497
 1651POPC   C3A23537  22.194  35.420   8.076
 1651POPC   C4A23538  22.417  35.532   7.697
 1651POPC   C1B23539  21.678  35.335   8.827
 1651POPC   C2B23540  21.760  35.376   8.382
 1651POPC   C3B23541  21.688  35.400   7.942
 1651POPC   C4B23542  21.974  35.288   7.620
 1652POPC   NC323543  29.167   8.596   9.356
 1652POPC   PO423544  28.683   9.031   9.362
 1652POPC   GL123545  29.069   9.047   9.061
 1652POPC   GL223546  29.392   9.191   9.212
 1652POPC   C1A23547  29.134   8.796   8.652
 1652POPC   D2A23548  28.858   8.612   8.293
 1652POPC   C3A23549  28.871   8.841   7.898
 1652POPC   C4A23550  28.755   8.875   7.484
 1652POPC   C1B23551  29.520   9.258   8.783
 1652POPC   C2B23552  29.264   9.237   8.417
 1652POPC   C3B23553  29.126   9.272   8.000
 1652POPC   C4B23554  29.368   8.992   7.772
 1653POPC   NC323555  32.740  10.793   9.503
 1653POPC   PO423556  33.351  10.459   9.529
 1653POPC   GL123557  33.129  10.574   9.184
 1653POPC   GL223558  32.824  10.377   9.148
 1653POPC   C1A23559  33.166  10.410   8.757
 1653POPC   D2A23560  32.972  10.247   8.386
 1653POPC   C3A23561  33.247  10.403   8.106
 1653POPC   C4A23562  33.488  10.367   7.782
 1653POPC   C1B23563  32.668  10.475   8.735
 1653POPC   C2B23564  32.745  10.692   8.335
 1653POPC   C3B23565  32.806  10.560   7.904
 1653POPC   C4B23566  32.791  10.519   7.424
 1654POPC   NC323567  37.276  14.061   9.802
 1654POPC   PO423568  36.817  13.596   9.531
 1654POPC   GL123569  37.017  13.616   9.161
 1654POPC   GL223570  37.264  13.345   9.154
 1654POPC   C1A23571  36.900  13.768   8.731
 1654POPC   D2A23572  36.617  13.834   8.368
 1654POPC   C3A23573  36.811  13.569   8.085
 1654POPC   C4A23574  37.155  13.510   7.827
 1654POPC   C1B23575  36.902  13.245   8.861
 1654POPC   C2B23576  36.662  13.320   8.517
 1654POPC   C3B23577  36.540  13.126   8.132
 1654POPC   C4B23578  36.746  13.179   7.758
 1655POPC   NC323579  13.404  44.341   9.482
 1655POPC   PO423580  13.676  43.745   9.404
 1655POPC   GL123581  13.723  44.102   9.129
 1655POPC   GL223582  14.083  44.127   9.092
 1655POPC   C1A23583  13.573  44.125   8.700
 1655POPC   D2A23584  13.639  43.775   8.383
 1655POPC   C3A23585  13.434  43.780   7.973
 1655POPC   C4A23586  13.302  44.111   7.676
 1655POPC   C1B23587  14.007  43.853   8.753
 1655POPC   C2B23588  14.094  43.996   8.327
 1655POPC   C3B23589  13.924  43.977   7.906
 1655POPC   C4B23590  13.824  43.593   7.707
 1656POPC   NC323591  32.476  40.994   9.579
 1656POPC   PO423592  31.848  40.731   9.667
 1656POPC   GL123593  32.185  40.668   9.304
 1656POPC   GL223594  32.207  40.997   9.142
 1656POPC   C1A23595  32.353  40.587   8.841
 1656POPC   D2A23596  32.346  40.353   8.411
 1656POPC   C3A23597  32.227  40.624   8.037
 1656POPC   C4A23598  32.466  40.883   7.761
 1656POPC   C1B23599  31.980  41.103   8.750
 1656POPC   C2B23600  31.923  40.921   8.333
 1656POPC   C3B23601  32.033  41.108   7.928
 1656POPC   C4B23602  32.046  40.897   7.493
 1657POPC   NC323603  20.997  42.932   9.512
 1657POPC   PO423604  21.629  43.115   9.650
 1657POPC   GL123605  21.439  43.114   9.256
 1657POPC   GL223606  21.682  43.397   9.188
 1657POPC   C1A23607  21.244  42.961   8.869
 1657POPC   D2A23608  21.398  43.063   8.466
 1657POPC   C3A23609  21.239  43.204   8.076
 1657POPC   C4A23610  21.108  42.933   7.742
 1657POPC   C1B23611  21.447  43.445   8.839
 1657POPC   C2B23612  21.651  43.504   8.451
 1657POPC   C3B23613  21.610  43.604   8.047
 1657POPC   C4B23614  21.871  43.563   7.728
 1658POPC   NC323615  44.810  21.137   9.637
 1658POPC   PO423616  44.386  21.723   9.650
 1658POPC   GL123617  44.720  21.545   9.325
 1658POPC   GL223618  44.638  21.224   9.167
 1658POPC   C1A23619  44.991  21.522   8.933
 1658POPC   D2A23620   0.087  21.486   8.502
 1658POPC   C3A23621  44.721  21.357   8.277
 1658POPC   C4A23622  44.483  21.418   7.903
 1658POPC   C1B23623  44.759  21.067   8.753
 1658POPC   C2B23624  44.646  20.862   8.372
 1658POPC   C3B23625  44.744  20.924   7.937
 1658POPC   C4B23626  44.775  21.136   7.544
 1659POPC   NC323627  26.022  25.619   9.744
 1659POPC   PO423628  26.093  26.231   9.464
 1659POPC   GL123629  25.894  26.154   9.133
 1659POPC   GL223630  26.010  25.831   9.131
 1659POPC   C1A23631  26.083  26.180   8.743
 1659POPC   D2A23632  26.298  26.093   8.384
 1659POPC   C3A23633  26.072  26.148   8.006
 1659POPC   C4A23634  26.098  25.942   7.635
 1659POPC   C1B23635  25.867  25.701   8.729
 1659POPC   C2B23636  25.820  25.861   8.339
 1659POPC   C3B23637  25.758  25.696   7.909
 1659POPC   C4B23638  25.758  25.535   7.440
 1660POPC   NC323639  20.332  26.244   9.536
 1660POPC   PO423640  20.841  25.776   9.630
 1660POPC   GL123641  20.619  25.802   9.257
 1660POPC   GL223642  20.767  26.114   9.121
 1660POPC   C1A23643  20.525  25.735   8.819
 1660POPC   D2A23644  20.649  25.983   8.481
 1660POPC   C3A23645  20.650  25.774   8.115
 1660POPC   C4A23646  20.619  25.950   7.756
 1660POPC   C1B23647  20.764  26.399   8.736
 1660POPC   C2B23648  20.589  26.481   8.316
 1660POPC   C3B23649  20.729  26.438   7.876
 1660POPC   C4B23650  21.017  26.511   7.508
 1661POPC   NC323651  13.134  44.817   9.854
 1661POPC   PO423652  13.699  44.689   9.571
 1661POPC   GL123653  13.624  44.616   9.124
 1661POPC   GL223654  13.955  44.609   9.061
 1661POPC   C1A23655  13.600  44.687   8.680
 1661POPC   D2A23656  13.711   0.016   8.396
 1661POPC   C3A23657  13.652  44.921   7.978
 1661POPC   C4A23658  13.347  44.650   7.765
 1661POPC   C1B23659  14.032  44.394   8.652
 1661POPC   C2B23660  13.768  44.384   8.265
 1661POPC   C3B23661  13.833  44.474   7.822
 1661POPC   C4B23662  14.034  44.395   7.449
 1662POPC   NC323663  38.702   0.939   9.515
 1662POPC   PO423664  38.311   1.533   9.634
 1662POPC   GL123665  38.435   1.465   9.187
 1662POPC   GL223666  38.469   1.081   9.099
 1662POPC   C1A23667  38.316   1.394   8.753
 1662POPC   D2A23668  38.445   1.213   8.367
 1662POPC   C3A23669  38.277   1.412   8.009
 1662POPC   C4A23670  38.601   1.448   7.813
 1662POPC   C1B23671  38.273   0.849   8.754
 1662POPC   C2B23672  38.075   0.869   8.341
 1662POPC   C3B23673  38.319   0.886   7.982
 1662POPC   C4B23674  38.153   1.046   7.640
 1663POPC   NC323675  39.157  18.866   9.571
 1663POPC   PO423676  39.188  19.474   9.739
 1663POPC   GL123677  39.208  19.364   9.282
 1663POPC   GL223678  39.353  19.072   9.159
 1663POPC   C1A23679  38.990  19.360   8.864
 1663POPC   D2A23680  39.103  19.343   8.423
 1663POPC   C3A23681  38.868  19.032   8.171
 1663POPC   C4A23682  38.982  18.828   7.761
 1663POPC   C1B23683  39.316  18.949   8.753
 1663POPC   C2B23684  39.262  18.728   8.388
 1663POPC   C3B23685  39.364  19.000   8.068
 1663POPC   C4B23686  39.471  19.011   7.683
 1664POPC   NC323687   4.806  34.229   9.761
 1664POPC   PO423688   5.176  34.721   9.864
 1664POPC   GL123689   4.937  34.674   9.406
 1664POPC   GL223690   4.814  34.346   9.238
 1664POPC   C1A23691   4.946  34.787   8.931
 1664POPC   D2A23692   5.187  34.833   8.513
 1664POPC   C3A23693   5.087  34.718   8.097
 1664POPC   C4A23694   5.110  34.533   7.681
 1664POPC   C1B23695   5.078  34.307   8.850
 1664POPC   C2B23696   4.895  34.407   8.457
 1664POPC   C3B23697   4.874  34.259   8.048
 1664POPC   C4B23698   4.714  34.263   7.602
 1665POPC   NC323699  16.565  18.674   9.890
 1665POPC   PO423700  16.993  18.973   9.499
 1665POPC   GL123701  16.637  18.984   9.208
 1665POPC   GL223702  16.590  19.346   9.087
 1665POPC   C1A23703  16.781  18.842   8.798
 1665POPC   D2A23704  17.023  19.098   8.490
 1665POPC   C3A23705  16.876  19.200   8.084
 1665POPC   C4A23706  16.760  19.043   7.695
 1665POPC   C1B23707  16.561  19.287   8.688
 1665POPC   C2B23708  16.372  19.403   8.355
 1665POPC   C3B23709  16.375  19.235   7.986
 1665POPC   C4B23710  16.472  19.456   7.627
 1666POPC   NC323711  37.581  34.630   9.467
 1666POPC   PO423712  38.125  34.467   9.770
 1666POPC   GL123713  38.006  34.415   9.194
 1666POPC   GL223714  37.747  34.717   9.017
 1666POPC   C1A23715  38.131  34.586   8.763
 1666POPC   D2A23716  37.862  34.806   8.512
 1666POPC   C3A23717  37.753  34.621   8.149
 1666POPC   C4A23718  37.986  34.598   7.777
 1666POPC   C1B23719  37.658  34.393   8.749
 1666POPC   C2B23720  37.514  34.170   8.441
 1666POPC   C3B23721  37.288  34.309   8.104
 1666POPC   C4B23722  37.479  34.469   7.745
 1667POPC   NC323723  42.801   3.776   9.320
 1667POPC   PO423724  43.386   3.471   9.422
 1667POPC   GL123725  43.252   3.653   9.080
 1667POPC   GL223726  42.974   3.392   9.032
 1667POPC   C1A23727  43.281   3.935   8.738
 1667POPC   D2A23728  42.998   3.984   8.384
 1667POPC   C3A23729  43.035   3.665   8.029
 1667POPC   C4A23730  42.919   3.522   7.579
 1667POPC   C1B23731  43.093   3.481   8.602
 1667POPC   C2B23732  43.397   3.298   8.321
 1667POPC   C3B23733  43.236   3.172   7.934
 1667POPC   C4B23734  43.235   3.115   7.520
 1668POPC   NC323735  27.022  12.715   9.431
 1668POPC   PO423736  26.544  13.187   9.457
 1668POPC   GL123737  26.786  13.076   9.112
 1668POPC   GL223738  26.649  12.755   9.074
 1668POPC   C1A23739  26.812  13.053   8.655
 1668POPC   D2A23740  27.025  13.332   8.341
 1668POPC   C3A23741  27.121  13.219   7.892
 1668POPC   C4A23742  26.856  13.275   7.492
 1668POPC   C1B23743  26.676  12.495   8.716
 1668POPC   C2B23744  26.628  12.679   8.318
 1668POPC   C3B23745  26.658  12.947   8.004
 1668POPC   C4B23746  26.892  12.793   7.698
 1669POPC   NC323747  34.541  12.497   9.523
 1669POPC   PO423748  34.349  11.858   9.582
 1669POPC   GL123749  34.532  12.035   9.234
 1669POPC   GL223750  34.484  11.708   9.095
 1669POPC   C1A23751  34.674  12.314   8.905
 1669POPC   D2A23752  34.598  12.469   8.497
 1669POPC   C3A23753  34.675  12.290   8.097
 1669POPC   C4A23754  34.339  12.217   7.826
 1669POPC   C1B23755  34.423  11.884   8.734
 1669POPC   C2B23756  34.610  11.848   8.377
 1669POPC   C3B23757  34.837  11.618   8.123
 1669POPC   C4B23758  34.774  11.877   7.786
 1670POPC   NC323759  42.557  41.988   9.298
 1670POPC   PO423760  42.872  41.606   9.732
 1670POPC   GL123761  42.568  41.481   9.251
 1670POPC   GL223762  42.239  41.624   9.154
 1670POPC   C1A23763  42.531  41.667   8.738
 1670POPC   D2A23764  42.330  41.734   8.339
 1670POPC   C3A23765  42.584  41.855   7.974
 1670POPC   C4A23766  42.633  41.637   7.597
 1670POPC   C1B23767  42.248  41.279   8.875
 1670POPC   C2B23768  42.256  41.208   8.426
 1670POPC   C3B23769  42.403  41.348   7.992
 1670POPC   C4B23770  42.179  41.421   7.571
 1671POPC   NC323771   9.716  22.636   9.514
 1671POPC   PO423772  10.019  23.176   9.391
 1671POPC   GL123773   9.694  22.966   9.101
 1671POPC   GL223774   9.565  22.629   9.044
 1671POPC   C1A23775   9.798  22.879   8.664
 1671POPC   D2A23776  10.013  22.741   8.279
 1671POPC   C3A23777   9.760  22.848   7.945
 1671POPC   C4A23778   9.823  22.964   7.538
 1671POPC   C1B23779   9.285  22.685   8.771
 1671POPC   C2B23780   9.142  22.663   8.399
 1671POPC   C3B23781   9.317  22.587   7.985
 1671POPC   C4B23782   9.326  22.904   7.675
 1672POPC   NC323783  27.125   4.435   9.409
 1672POPC   PO423784  27.741   4.534   9.673
 1672POPC   GL123785  27.899   4.649   9.232
 1672POPC   GL223786  27.640   4.401   9.166
 1672POPC   C1A23787  27.792   4.615   8.750
 1672POPC   D2A23788  27.629   4.420   8.377
 1672POPC   C3A23789  27.748   4.475   7.970
 1672POPC   C4A23790  27.589   4.173   7.735
 1672POPC   C1B23791  27.383   4.252   8.813
 1672POPC   C2B23792  27.064   4.133   8.501
 1672POPC   C3B23793  27.105   3.877   8.107
 1672POPC   C4B23794  27.266   3.764   7.690
 1673POPC   NC323795  12.528   6.127   9.524
 1673POPC   PO423796  13.004   5.569   9.528
 1673POPC   GL123797  12.846   5.871   9.216
 1673POPC   GL223798  12.487   5.898   9.063
 1673POPC   C1A23799  12.968   6.107   8.895
 1673POPC   D2A23800  12.963   6.087   8.456
 1673POPC   C3A23801  12.677   5.840   8.214
 1673POPC   C4A23802  12.817   6.002   7.865
 1673POPC   C1B23803  12.731   5.694   8.734
 1673POPC   C2B23804  13.032   5.549   8.446
 1673POPC   C3B23805  13.132   5.452   8.024
 1673POPC   C4B23806  12.840   5.531   7.696
 1674POPC   NC323807  39.364  22.763   9.520
 1674POPC   PO423808  38.817  23.168   9.626
 1674POPC   GL123809  38.963  22.960   9.247
 1674POPC   GL223810  39.267  23.119   9.121
 1674POPC   C1A23811  38.889  23.003   8.794
 1674POPC   D2A23812  38.834  23.204   8.382
 1674POPC   C3A23813  39.092  23.119   8.039
 1674POPC   C4A23814  39.171  22.986   7.626
 1674POPC   C1B23815  39.583  23.111   8.794
 1674POPC   C2B23816  39.596  22.968   8.368
 1674POPC   C3B23817  39.502  22.794   7.964
 1674POPC   C4B23818  39.709  22.920   7.576
 1675POPC   NC323819  16.041   3.504   9.508
 1675POPC   PO423820  15.442   3.679   9.332
 1675POPC   GL123821  15.792   3.463   9.078
 1675POPC   GL223822  16.079   3.721   9.040
 1675POPC   C1A23823  16.058   3.344   8.710
 1675POPC   D2A23824  16.195   3.503   8.307
 1675POPC   C3A23825  16.052   3.342   7.921
 1675POPC   C4A23826  16.076   3.121   7.524
 1675POPC   C1B23827  15.766   3.786   8.691
 1675POPC   C2B23828  15.648   3.591   8.285
 1675POPC   C3B23829  15.711   3.735   7.869
 1675POPC   C4B23830  15.985   3.635   7.499
 1676POPC   NC323831  44.760  42.094   9.584
 1676POPC   PO423832  44.242  42.498   9.614
 1676POPC   GL123833  44.621  42.588   9.278
 1676POPC   GL223834  44.915  42.361   9.204
 1676POPC   C1A23835  44.824  42.732   8.880
 1676POPC   D2A23836  44.939  42.854   8.458
 1676POPC   C3A23837  44.747  42.650   8.117
 1676POPC   C4A23838  44.536  42.344   7.854
 1676POPC   C1B23839  44.817  42.112   8.882
 1676POPC   C2B23840  44.881  42.323   8.507
 1676POPC   C3B23841   0.011  42.196   8.109
 1676POPC   C4B23842  44.955  41.999   7.734
 1677POPC   NC323843  16.801  17.063   9.897
 1677POPC   PO423844  16.369  17.379   9.370
 1677POPC   GL123845  16.739  17.507   9.068
 1677POPC   GL223846  16.911  17.167   8.930
 1677POPC   C1A23847  16.830  17.597   8.631
 1677POPC   D2A23848  16.945  17.941   8.342
 1677POPC   C3A23849  16.816  17.812   7.930
 1677POPC   C4A23850  17.034  17.637   7.577
 1677POPC   C1B23851  16.480  17.166   8.780
 1677POPC   C2B23852  16.348  17.272   8.416
 1677POPC   C3B23853  16.524  17.131   8.047
 1677POPC   C4B23854  16.613  17.379   7.714
 1678POPC   NC323855  17.137   3.803   9.406
 1678POPC   PO423856  16.477   3.658   9.514
 1678POPC   GL123857  16.584   3.656   9.105
 1678POPC   GL223858  16.855   3.480   9.070
 1678POPC   C1A23859  16.553   3.498   8.670
 1678POPC   D2A23860  16.701   3.637   8.256
 1678POPC   C3A23861  16.560   3.446   7.860
 1678POPC   C4A23862  16.477   3.573   7.397
 1678POPC   C1B23863  16.965   3.792   8.750
 1678POPC   C2B23864  17.193   3.727   8.369
 1678POPC   C3B23865  17.112   3.492   7.972
 1678POPC   C4B23866  16.929   3.705   7.616
 1679POPC   NC323867   2.668   7.114   9.594
 1679POPC   PO423868   2.510   7.726   9.387
 1679POPC   GL123869   2.724   7.492   9.112
 1679POPC   GL223870   3.045   7.375   9.273
 1679POPC   C1A23871   2.536   7.452   8.699
 1679POPC   D2A23872   2.532   7.594   8.275
 1679POPC   C3A23873   2.473   7.292   7.990
 1679POPC   C4A23874   2.621   7.327   7.577
 1679POPC   C1B23875   3.146   7.420   8.827
 1679POPC   C2B23876   2.980   7.333   8.405
 1679POPC   C3B23877   3.002   7.333   7.956
 1679POPC   C4B23878   3.027   7.014   7.646
 1680POPC   NC323879  14.815   5.775   9.479
 1680POPC   PO423880  15.448   5.959   9.590
 1680POPC   GL123881  15.229   5.959   9.175
 1680POPC   GL223882  15.103   5.610   9.084
 1680POPC   C1A23883  15.242   5.950   8.711
 1680POPC   D2A23884  15.019   5.851   8.321
 1680POPC   C3A23885  15.199   5.814   7.908
 1680POPC   C4A23886  15.368   5.942   7.518
 1680POPC   C1B23887  14.763   5.719   8.768
 1680POPC   C2B23888  14.538   5.673   8.357
 1680POPC   C3B23889  14.726   5.633   7.926
 1680POPC   C4B23890  14.934   5.596   7.485
 1681POPC   NC323891   8.524  12.708   9.308
 1681POPC   PO423892   8.375  12.174   9.710
 1681POPC   GL123893   8.264  12.080   9.275
 1681POPC   GL223894   8.552  11.904   9.233
 1681POPC   C1A23895   8.132  11.971   8.839
 1681POPC   D2A23896   8.220  11.813   8.423
 1681POPC   C3A23897   8.050  12.026   8.051
 1681POPC   C4A23898   7.878  11.804   7.708
 1681POPC   C1B23899   8.622  12.081   8.829
 1681POPC   C2B23900   8.730  11.831   8.458
 1681POPC   C3B23901   8.595  11.904   8.047
 1681POPC   C4B23902   8.397  11.906   7.637
 1682POPC   NC323903   7.647   6.044   9.648
 1682POPC   PO423904   7.060   5.704   9.551
 1682POPC   GL123905   7.173   5.969   9.201
 1682POPC   GL223906   7.548   5.926   9.145
 1682POPC   C1A23907   7.250   6.110   8.770
 1682POPC   D2A23908   7.654   5.965   8.589
 1682POPC   C3A23909   7.703   5.866   8.176
 1682POPC   C4A23910   7.384   5.898   7.865
 1682POPC   C1B23911   7.580   5.543   8.860
 1682POPC   C2B23912   7.770   5.371   8.492
 1682POPC   C3B23913   7.765   5.356   8.063
 1682POPC   C4B23914   7.764   5.613   7.712
 1683POPC   NC323915   7.245  15.688   9.585
 1683POPC   PO423916   7.381  15.045   9.539
 1683POPC   GL123917   7.397  15.319   9.210
 1683POPC   GL223918   7.719  15.416   9.101
 1683POPC   C1A23919   7.201  15.284   8.815
 1683POPC   D2A23920   7.313  15.081   8.412
 1683POPC   C3A23921   7.280  15.308   8.020
 1683POPC   C4A23922   7.227  15.266   7.572
 1683POPC   C1B23923   7.697  15.176   8.784
 1683POPC   C2B23924   7.775  15.309   8.410
 1683POPC   C3B23925   7.790  15.135   8.040
 1683POPC   C4B23926   7.699  15.290   7.680
 1684POPC   NC323927  25.188  27.363   9.583
 1684POPC   PO423928  25.333  28.034   9.592
 1684POPC   GL123929  25.140  27.725   9.224
 1684POPC   GL223930  25.389  27.437   9.130
 1684POPC   C1A23931  24.965  27.511   8.828
 1684POPC   D2A23932  25.116  27.466   8.392
 1684POPC   C3A23933  24.882  27.602   7.996
 1684POPC   C4A23934  24.668  27.684   7.593
 1684POPC   C1B23935  25.490  27.579   8.727
 1684POPC   C2B23936  25.611  27.602   8.309
 1684POPC   C3B23937  25.411  27.588   7.913
 1684POPC   C4B23938  25.163  27.614   7.566
 1685POPC   NC323939  19.210  32.575   9.411
 1685POPC   PO423940  18.548  32.724   9.554
 1685POPC   GL123941  18.754  32.472   9.170
 1685POPC   GL223942  19.034  32.224   9.108
 1685POPC   C1A23943  18.952  32.496   8.711
 1685POPC   D2A23944  18.815  32.295   8.361
 1685POPC   C3A23945  18.962  32.344   7.991
 1685POPC   C4A23946  18.764  32.278   7.635
 1685POPC   C1B23947  19.166  31.988   8.714
 1685POPC   C2B23948  19.150  31.931   8.252
 1685POPC   C3B23949  19.180  31.939   7.776
 1685POPC   C4B23950  19.409  31.862   7.372
 1686POPC   NC323951  41.451  42.522   9.458
 1686POPC   PO423952  42.007  42.011   9.438
 1686POPC   GL123953  41.757  42.226   9.155
 1686POPC   GL223954  41.421  42.099   9.121
 1686POPC   C1A23955  41.702  42.268   8.724
 1686POPC   D2A23956  41.406  42.145   8.408
 1686POPC   C3A23957  41.588  42.196   7.981
 1686POPC   C4A23958  41.876  42.330   7.656
 1686POPC   C1B23959  41.246  42.460   8.852
 1686POPC   C2B23960  41.365  42.645   8.457
 1686POPC   C3B23961  41.205  42.517   8.091
 1686POPC   C4B23962  41.202  42.485   7.687
 1687POPC   NC323963  40.154  36.593   9.452
 1687POPC   PO423964  39.795  37.168   9.634
 1687POPC   GL123965  39.914  36.996   9.215
 1687POPC   GL223966  39.691  36.705   9.176
 1687POPC   C1A23967  40.158  37.006   8.806
 1687POPC   D2A23968  39.980  36.979   8.387
 1687POPC   C3A23969  40.151  37.179   8.000
 1687POPC   C4A23970  40.016  37.122   7.584
 1687POPC   C1B23971  39.838  36.611   8.741
 1687POPC   C2B23972  39.989  36.458   8.322
 1687POPC   C3B23973  40.042  36.646   7.888
 1687POPC   C4B23974  39.764  36.692   7.503
 1688POPC   NC323975  19.203  39.543   9.775
 1688POPC   PO423976  19.272  38.914   9.479
 1688POPC   GL123977  19.107  39.006   9.073
 1688POPC   GL223978  18.811  39.121   8.959
 1688POPC   C1A23979  19.139  38.986   8.595
 1688POPC   D2A23980  19.499  38.986   8.313
 1688POPC   C3A23981  19.434  39.025   7.855
 1688POPC   C4A23982  19.030  39.113   7.700
 1688POPC   C1B23983  19.004  39.481   8.720
 1688POPC   C2B23984  19.138  39.737   8.432
 1688POPC   C3B23985  19.218  39.494   8.087
 1688POPC   C4B23986  19.073  39.621   7.724
 1689POPC   NC323987   5.004  40.637   9.586
 1689POPC   PO423988   4.729  41.167   9.230
 1689POPC   GL123989   4.998  40.778   9.053
 1689POPC   GL223990   5.333  40.587   8.978
 1689POPC   C1A23991   4.941  40.547   8.660
 1689POPC   D2A23992   4.933  40.865   8.350
 1689POPC   C3A23993   5.058  40.810   7.943
 1689POPC   C4A23994   4.786  40.684   7.575
 1689POPC   C1B23995   5.381  40.859   8.652
 1689POPC   C2B23996   5.368  40.580   8.352
 1689POPC   C3B23997   5.419  40.406   7.979
 1689POPC   C4B23998   5.328  40.576   7.595
 1690POPC   NC323999  35.637  38.579   9.823
 1690POPC   PO424000  36.207  38.456   9.518
 1690POPC   GL124001  36.170  38.312   9.151
 1690POPC   GL224002  35.829  38.253   9.113
 1690POPC   C1A24003  36.248  38.407   8.746
 1690POPC   D2A24004  36.197  38.154   8.365
 1690POPC   C3A24005  36.015  38.335   7.984
 1690POPC   C4A24006  36.121  38.655   7.664
 1690POPC   C1B24007  35.783  38.572   8.769
 1690POPC   C2B24008  36.003  38.668   8.370
 1690POPC   C3B24009  35.779  38.790   7.992
 1690POPC   C4B24010  35.688  38.913   7.524
 1691POPC   NC324011  17.889  10.997   9.385
 1691POPC   PO424012  17.175  11.142   9.542
 1691POPC   GL124013  17.486  11.281   9.210
 1691POPC   GL224014  17.827  11.492   9.233
 1691POPC   C1A24015  17.630  11.183   8.774
 1691POPC   D2A24016  17.608  11.371   8.354
 1691POPC   C3A24017  17.522  11.083   8.005
 1691POPC   C4A24018  17.375  11.075   7.589
 1691POPC   C1B24019  17.899  11.638   8.805
 1691POPC   C2B24020  18.097  11.559   8.389
 1691POPC   C3B24021  17.935  11.636   7.961
 1691POPC   C4B24022  17.659  11.479   7.637
 1692POPC   NC324023  35.951  18.018   9.484
 1692POPC   PO424024  36.180  18.702   9.431
 1692POPC   GL124025  36.052  18.444   9.125
 1692POPC   GL224026  36.240  18.170   9.137
 1692POPC   C1A24027  36.020  18.205   8.710
 1692POPC   D2A24028  35.830  18.097   8.367
 1692POPC   C3A24029  35.993  18.232   7.976
 1692POPC   C4A24030  36.329  18.388   7.735
 1692POPC   C1B24031  36.498  17.942   8.847
 1692POPC   C2B24032  36.351  17.843   8.436
 1692POPC   C3B24033  36.445  17.974   8.043
 1692POPC   C4B24034  36.726  18.068   7.726
 1693POPC   NC324035   2.309  20.893   9.579
 1693POPC   PO424036   2.148  21.621   9.661
 1693POPC   GL124037   2.011  21.710   9.231
 1693POPC   GL224038   1.958  21.355   9.140
 1693POPC   C1A24039   1.991  21.753   8.777
 1693POPC   D2A24040   2.216  21.656   8.394
 1693POPC   C3A24041   1.964  21.537   8.027
 1693POPC   C4A24042   2.270  21.455   7.723
 1693POPC   C1B24043   1.864  21.122   8.808
 1693POPC   C2B24044   2.064  21.158   8.408
 1693POPC   C3B24045   2.173  21.052   8.041
 1693POPC   C4B24046   1.926  21.095   7.690
 1694POPC   NC324047  32.619   3.149   9.197
 1694POPC   PO424048  32.139   3.487   9.588
 1694POPC   GL124049  32.177   3.447   9.167
 1694POPC   GL224050  32.470   3.592   8.998
 1694POPC   C1A24051  32.142   3.261   8.771
 1694POPC   D2A24052  32.329   3.223   8.384
 1694POPC   C3A24053  32.210   3.577   8.129
 1694POPC   C4A24054  32.036   3.592   7.715
 1694POPC   C1B24055  32.181   3.788   8.742
 1694POPC   C2B24056  32.433   3.979   8.453
 1694POPC   C3B24057  32.667   3.805   8.132
 1694POPC   C4B24058  32.456   3.861   7.727
 1695POPC   NC324059  28.671  43.122   9.555
 1695POPC   PO424060  27.949  43.025   9.440
 1695POPC   GL124061  28.280  43.257   9.204
 1695POPC   GL224062  28.603  43.073   9.071
 1695POPC   C1A24063  28.324  43.359   8.760
 1695POPC   D2A24064  28.663  43.207   8.467
 1695POPC   C3A24065  28.515  43.030   8.085
 1695POPC   C4A24066  28.135  43.195   7.966
 1695POPC   C1B24067  28.791  43.476   8.940
 1695POPC   C2B24068  28.941  43.646   8.564
 1695POPC   C3B24069  28.697  43.637   8.187
 1695POPC   C4B24070  28.748  43.399   7.794
 1696POPC   NC324071  17.921  23.662   9.445
 1696POPC   PO424072  18.448  24.143   9.462
 1696POPC   GL124073  18.139  24.032   9.133
 1696POPC   GL224074  18.106  23.652   8.978
 1696POPC   C1A24075  18.270  24.029   8.703
 1696POPC   D2A24076  18.170  23.703   8.431
 1696POPC   C3A24077  18.215  23.873   8.041
 1696POPC   C4A24078  18.162  23.604   7.758
 1696POPC   C1B24079  18.394  23.357   8.757
 1696POPC   C2B24080  18.533  23.194   8.400
 1696POPC   C3B24081  18.393  23.272   8.050
 1696POPC   C4B24082  18.554  23.288   7.689
 1697POPC   NC324083   5.624  34.038   9.574
 1697POPC   PO424084   6.076  33.635   9.511
 1697POPC   GL124085   5.919  33.927   9.164
 1697POPC   GL224086   5.594  34.188   9.112
 1697POPC   C1A24087   5.820  33.624   8.835
 1697POPC   D2A24088   5.981  33.350   8.499
 1697POPC   C3A24089   6.083  33.623   8.153
 1697POPC   C4A24090   6.119  33.558   7.714
 1697POPC   C1B24091   5.744  34.121   8.724
 1697POPC   C2B24092   5.660  33.863   8.403
 1697POPC   C3B24093   5.723  34.015   8.045
 1697POPC   C4B24094   5.815  33.975   7.664
 1698POPC   NC324095  23.007   3.034   9.397
 1698POPC   PO424096  22.534   2.447   9.396
 1698POPC   GL124097  22.769   2.714   9.077
 1698POPC   GL224098  23.128   2.709   9.013
 1698POPC   C1A24099  22.732   2.816   8.674
 1698POPC   D2A24100  22.838   2.442   8.458
 1698POPC   C3A24101  23.081   2.488   8.127
 1698POPC   C4A24102  22.787   2.737   7.917
 1698POPC   C1B24103  23.211   3.048   8.748
 1698POPC   C2B24104  23.123   2.958   8.324
 1698POPC   C3B24105  23.239   2.958   7.895
 1698POPC   C4B24106  23.388   2.958   7.435
 1699POPC   NC324107  39.705  15.863   9.404
 1699POPC   PO424108  40.264  16.312   9.493
 1699POPC   GL124109  40.160  16.051   9.166
 1699POPC   GL224110  40.209  15.695   9.176
 1699POPC   C1A24111  39.969  15.951   8.794
 1699POPC   D2A24112  40.065  15.858   8.420
 1699POPC   C3A24113  39.836  15.963   8.118
 1699POPC   C4A24114  40.061  16.081   7.765
 1699POPC   C1B24115  40.387  15.615   8.776
 1699POPC   C2B24116  40.346  15.458   8.351
 1699POPC   C3B24117  40.315  15.670   7.957
 1699POPC   C4B24118  40.204  15.668   7.506
 1700POPC   NC324119   0.716   8.672   9.602
 1700POPC   PO424120   0.775   9.214   9.212
 1700POPC   GL124121   0.442   8.925   9.059
 1700POPC   GL224122   0.130   9.144   8.967
 1700POPC   C1A24123   0.548   8.755   8.681
 1700POPC   D2A24124   0.624   8.970   8.319
 1700POPC   C3A24125   0.478   8.703   8.027
 1700POPC   C4A24126   0.503   8.748   7.582
 1700POPC   C1B24127   0.358   9.404   8.663
 1700POPC   C2B24128   0.328   9.408   8.200
 1700POPC   C3B24129   0.481   9.213   7.819
 1700POPC   C4B24130   0.302   9.151   7.366
 1701POPC   NC324131  13.159  19.556   9.567
 1701POPC   PO424132  13.184  20.230   9.427
 1701POPC   GL124133  12.998  19.910   9.208
 1701POPC   GL224134  12.663  20.048   9.162
 1701POPC   C1A24135  12.907  19.745   8.814
 1701POPC   D2A24136  12.758  19.893   8.431
 1701POPC   C3A24137  12.966  19.773   8.065
 1701POPC   C4A24138  13.031  20.006   7.713
 1701POPC   C1B24139  12.511  20.241   8.764
 1701POPC   C2B24140  12.323  20.135   8.354
 1701POPC   C3B24141  12.526  20.061   7.946
 1701POPC   C4B24142  12.271  20.168   7.579
 1702POPC   NC324143  30.105  34.377   9.542
 1702POPC   PO424144  29.526  34.744   9.444
 1702POPC   GL124145  29.860  34.614   9.143
 1702POPC   GL224146  29.833  34.304   9.116
 1702POPC   C1A24147  29.794  34.629   8.688
 1702POPC   D2A24148  29.840  34.871   8.327
 1702POPC   C3A24149  29.677  34.683   7.977
 1702POPC   C4A24150  29.881  34.725   7.579
 1702POPC   C1B24151  30.151  34.261   8.796
 1702POPC   C2B24152  30.020  34.202   8.354
 1702POPC   C3B24153  30.214  34.184   7.928
 1702POPC   C4B24154  30.014  34.136   7.510
 1703POPC   NC324155  41.170  41.771   9.465
 1703POPC   PO424156  40.649  41.332   9.597
 1703POPC   GL124157  40.814  41.504   9.217
 1703POPC   GL224158  40.737  41.881   9.212
 1703POPC   C1A24159  40.700  41.577   8.791
 1703POPC   D2A24160  40.601  41.413   8.405
 1703POPC   C3A24161  40.736  41.641   8.042
 1703POPC   C4A24162  41.005  41.487   7.755
 1703POPC   C1B24163  41.019  41.976   8.846
 1703POPC   C2B24164  40.988  41.831   8.428
 1703POPC   C3B24165  41.191  41.887   8.015
 1703POPC   C4B24166  40.994  41.984   7.626
 1704POPC   NC324167  17.822  29.641   9.604
 1704POPC   PO424168  17.227  29.853   9.468
 1704POPC   GL124169  17.477  30.141   9.206
 1704POPC   GL224170  17.717  29.914   9.193
 1704POPC   C1A24171  17.661  30.196   8.765
 1704POPC   D2A24172  17.479  30.171   8.356
 1704POPC   C3A24173  17.745  30.273   7.990
 1704POPC   C4A24174  17.753  30.127   7.565
 1704POPC   C1B24175  17.727  29.694   8.823
 1704POPC   C2B24176  17.853  29.819   8.404
 1704POPC   C3B24177  17.592  29.776   8.052
 1704POPC   C4B24178  17.494  29.497   7.771
 1705POPC   NC324179  21.743  20.238   9.346
 1705POPC   PO424180  21.437  19.718   9.578
 1705POPC   GL124181  21.424  19.642   9.114
 1705POPC   GL224182  21.312  19.972   9.103
 1705POPC   C1A24183  21.308  19.718   8.663
 1705POPC   D2A24184  21.131  20.095   8.412
 1705POPC   C3A24185  21.316  20.118   7.997
 1705POPC   C4A24186  21.506  19.768   7.818
 1705POPC   C1B24187  21.550  20.150   8.737
 1705POPC   C2B24188  21.661  19.940   8.352
 1705POPC   C3B24189  21.851  20.109   8.028
 1705POPC   C4B24190  21.905  20.054   7.663
 1706POPC   NC324191  36.247  35.575   9.484
 1706POPC   PO424192  35.937  35.034   9.684
 1706POPC   GL124193  36.005  35.176   9.260
 1706POPC   GL224194  36.373  35.146   9.168
 1706POPC   C1A24195  36.002  35.368   8.844
 1706POPC   D2A24196  36.127  35.198   8.435
 1706POPC   C3A24197  35.883  35.316   8.076
 1706POPC   C4A24198  36.001  35.527   7.694
 1706POPC   C1B24199  36.627  35.136   8.763
 1706POPC   C2B24200  36.638  35.104   8.290
 1706POPC   C3B24201  36.379  35.250   7.928
 1706POPC   C4B24202  36.462  35.434   7.490
 1707POPC   NC324203  29.679   0.318   9.421
 1707POPC   PO424204  30.330   0.660   9.417
 1707POPC   GL124205  30.173   0.513   9.064
 1707POPC   GL224206  29.852   0.369   8.951
 1707POPC   C1A24207  30.229   0.718   8.707
 1707POPC   D2A24208  30.291   0.571   8.323
 1707POPC   C3A24209  30.155   0.763   7.955
 1707POPC   C4A24210  29.744   0.637   7.704
 1707POPC   C1B24211  29.891   0.039   8.645
 1707POPC   C2B24212  29.891  44.950   8.208
 1707POPC   C3B24213  30.012   0.231   7.873
 1707POPC   C4B24214  29.857   0.225   7.420
 1708POPC   NC324215   9.006  11.889   9.456
 1708POPC   PO424216   8.948  12.576   9.505
 1708POPC   GL124217   9.019  12.312   9.133
 1708POPC   GL224218   9.316  12.506   9.089
 1708POPC   C1A24219   9.095  11.935   8.819
 1708POPC   D2A24220   9.291  11.900   8.425
 1708POPC   C3A24221   9.123  11.959   8.006
 1708POPC   C4A24222   8.903  11.758   7.666
 1708POPC   C1B24223   9.245  12.417   8.658
 1708POPC   C2B24224   8.904  12.298   8.403
 1708POPC   C3B24225   8.832  12.410   7.973
 1708POPC   C4B24226   9.171  12.542   7.680
 1709POPC   NC324227  35.187  39.397   9.464
 1709POPC   PO424228  34.610  39.229   9.752
 1709POPC   GL124229  34.821  38.991   9.323
 1709POPC   GL224230  35.127  38.964   9.204
 1709POPC   C1A24231  34.931  39.060   8.777
 1709POPC   D2A24232  35.198  39.334   8.449
 1709POPC   C3A24233  35.148  39.535   7.998
 1709POPC   C4A24234  35.038  39.552   7.553
 1709POPC   C1B24235  35.488  39.060   8.886
 1709POPC   C2B24236  35.589  38.986   8.452
 1709POPC   C3B24237  35.544  39.223   8.062
 1709POPC   C4B24238  35.274  39.106   7.736
 1710POPC   NC324239  36.526  21.186   9.533
 1710POPC   PO424240  37.213  21.485   9.479
 1710POPC   GL124241  36.986  21.454   9.125
 1710POPC   GL224242  36.904  21.149   9.160
 1710POPC   C1A24243  37.055  21.630   8.726
 1710POPC   D2A24244  36.869  21.513   8.366
 1710POPC   C3A24245  36.922  21.359   7.981
 1710POPC   C4A24246  36.976  21.559   7.596
 1710POPC   C1B24247  36.878  21.109   8.708
 1710POPC   C2B24248  36.569  21.025   8.406
 1710POPC   C3B24249  36.479  21.100   7.968
 1710POPC   C4B24250  36.712  21.134   7.552
 1711POPC   NC324251   8.017   6.687   9.693
 1711POPC   PO424252   8.644   6.432   9.464
 1711POPC   GL124253   8.397   6.432   9.124
 1711POPC   GL224254   8.190   6.709   9.216
 1711POPC   C1A24255   8.199   6.572   8.731
 1711POPC   D2A24256   7.990   6.450   8.350
 1711POPC   C3A24257   8.141   6.603   7.962
 1711POPC   C4A24258   8.251   6.442   7.599
 1711POPC   C1B24259   7.883   6.908   8.938
 1711POPC   C2B24260   7.843   6.921   8.495
 1711POPC   C3B24261   7.986   7.043   8.102
 1711POPC   C4B24262   7.977   7.033   7.726
 1712POPC   NC324263  44.991  38.288   9.519
 1712POPC   PO424264  44.329  38.443   9.476
 1712POPC   GL124265  44.590  38.529   9.111
 1712POPC   GL224266  44.972  38.511   9.069
 1712POPC   C1A24267  44.612  38.563   8.662
 1712POPC   D2A24268  44.460  38.801   8.308
 1712POPC   C3A24269  44.602  38.634   7.899
 1712POPC   C4A24270  44.646  38.436   7.467
 1712POPC   C1B24271   0.152  38.530   8.657
 1712POPC   C2B24272  44.958  38.514   8.254
 1712POPC   C3B24273  44.881  38.214   7.904
 1712POPC   C4B24274  44.968  38.022   7.490
 1713POPC   NC324275  41.805  17.122   9.738
 1713POPC   PO424276  41.426  17.689   9.506
 1713POPC   GL124277  41.518  17.655   9.024
 1713POPC   GL224278  41.818  17.433   8.941
 1713POPC   C1A24279  41.554  17.827   8.632
 1713POPC   D2A24280  41.637  17.710   8.227
 1713POPC   C3A24281  41.289  17.548   7.999
 1713POPC   C4A24282  41.395  17.621   7.585
 1713POPC   C1B24283  42.126  17.352   8.597
 1713POPC   C2B24284  42.049  17.376   8.147
 1713POPC   C3B24285  41.700  17.245   7.849
 1713POPC   C4B24286  41.704  17.268   7.391
 1714POPC   NC324287  41.278  44.784   9.376
 1714POPC   PO424288  40.641  44.567   9.534
 1714POPC   GL124289  40.783  44.392   9.176
 1714POPC   GL224290  40.869  44.687   9.056
 1714POPC   C1A24291  40.844  44.225   8.773
 1714POPC   D2A24292  40.672  44.263   8.346
 1714POPC   C3A24293  40.798  44.633   8.084
 1714POPC   C4A24294  40.784  44.622   7.629
 1714POPC   C1B24295  40.940  44.726   8.631
 1714POPC   C2B24296  41.228  44.808   8.313
 1714POPC   C3B24297  41.073   0.116   8.035
 1714POPC   C4B24298  40.937   0.093   7.620
 1715POPC   NC324299   3.783  20.198   9.353
 1715POPC   PO424300   3.625  19.574   9.481
 1715POPC   GL124301   3.595  19.783   9.096
 1715POPC   GL224302   3.765  19.534   8.965
 1715POPC   C1A24303   3.435  20.025   8.743
 1715POPC   D2A24304   3.601  20.055   8.339
 1715POPC   C3A24305   3.398  19.844   8.023
 1715POPC   C4A24306   3.548  19.973   7.662
 1715POPC   C1B24307   3.700  19.610   8.556
 1715POPC   C2B24308   3.824  19.619   8.153
 1715POPC   C3B24309   3.645  19.452   7.788
 1715POPC   C4B24310   3.682  19.570   7.345
 1716POPC   NC324311  16.542  25.230   9.550
 1716POPC   PO424312  16.933  24.682   9.533
 1716POPC   GL124313  16.860  24.947   9.207
 1716POPC   GL224314  16.532  24.881   9.170
 1716POPC   C1A24315  16.800  25.190   8.831
 1716POPC   D2A24316  16.855  25.112   8.405
 1716POPC   C3A24317  16.854  25.411   8.062
 1716POPC   C4A24318  16.850  25.053   7.873
 1716POPC   C1B24319  16.295  25.114   8.872
 1716POPC   C2B24320  16.379  25.303   8.516
 1716POPC   C3B24321  16.388  25.216   8.104
 1716POPC   C4B24322  16.435  25.280   7.670
 1717POPC   NC324323  36.830  27.793   9.630
 1717POPC   PO424324  36.977  27.106   9.519
 1717POPC   GL124325  36.903  27.448   9.212
 1717POPC   GL224326  37.099  27.778   9.196
 1717POPC   C1A24327  36.773  27.452   8.783
 1717POPC   D2A24328  36.750  27.184   8.426
 1717POPC   C3A24329  36.754  27.402   8.023
 1717POPC   C4A24330  36.734  27.806   7.760
 1717POPC   C1B24331  37.267  27.640   8.822
 1717POPC   C2B24332  37.166  27.511   8.421
 1717POPC   C3B24333  37.155  27.700   8.040
 1717POPC   C4B24334  37.210  27.661   7.597
 1718POPC   NC324335  38.547  22.806   9.745
 1718POPC   PO424336  38.069  22.581   9.322
 1718POPC   GL124337  38.429  22.794   9.097
 1718POPC   GL224338  38.497  23.125   9.103
 1718POPC   C1A24339  38.394  22.931   8.648
 1718POPC   D2A24340  38.130  22.617   8.395
 1718POPC   C3A24341  38.174  22.789   7.982
 1718POPC   C4A24342  38.625  22.944   7.813
 1718POPC   C1B24343  38.306  23.437   8.855
 1718POPC   C2B24344  38.428  23.514   8.451
 1718POPC   C3B24345  38.385  23.233   8.158
 1718POPC   C4B24346  38.215  23.263   7.784
 1719POPC   NC324347  26.657  26.692   9.457
 1719POPC   PO424348  27.072  27.221   9.385
 1719POPC   GL124349  26.973  26.872   9.099
 1719POPC   GL224350  27.235  26.604   9.095
 1719POPC   C1A24351  26.660  26.969   8.780
 1719POPC   D2A24352  26.693  27.155   8.359
 1719POPC   C3A24353  26.979  26.932   8.042
 1719POPC   C4A24354  26.622  26.796   7.801
 1719POPC   C1B24355  27.062  26.452   8.722
 1719POPC   C2B24356  27.303  26.258   8.402
 1719POPC   C3B24357  27.291  26.336   7.994
 1719POPC   C4B24358  26.973  26.429   7.770
 1720POPC   NC324359  26.646  10.514   9.468
 1720POPC   PO424360  26.913  10.998   9.912
 1720POPC   GL124361  26.833  10.948   9.370
 1720POPC   GL224362  26.504  10.874   9.151
 1720POPC   C1A24363  26.981  10.859   8.940
 1720POPC   D2A24364  27.029  10.500   8.660
 1720POPC   C3A24365  27.054  10.518   8.205
 1720POPC   C4A24366  26.961  10.802   7.867
 1720POPC   C1B24367  26.543  10.658   8.766
 1720POPC   C2B24368  26.597  10.405   8.395
 1720POPC   C3B24369  26.595  10.485   7.960
 1720POPC   C4B24370  26.643  10.424   7.497
 1721POPC   NC324371  29.781   8.179   9.391
 1721POPC   PO424372  29.108   8.138   9.467
 1721POPC   GL124373  29.335   8.027   9.139
 1721POPC   GL224374  29.466   7.727   8.939
 1721POPC   C1A24375  29.068   8.041   8.786
 1721POPC   D2A24376  28.832   8.118   8.447
 1721POPC   C3A24377  29.004   8.117   8.070
 1721POPC   C4A24378  28.819   8.352   7.765
 1721POPC   C1B24379  29.568   8.151   8.726
 1721POPC   C2B24380  29.323   8.363   8.397
 1721POPC   C3B24381  29.281   8.510   7.948
 1721POPC   C4B24382  29.290   8.281   7.549
 1722POPC   NC324383  38.371   3.966   9.494
 1722POPC   PO424384  38.529   3.300   9.716
 1722POPC   GL124385  38.372   3.325   9.260
 1722POPC   GL224386  38.017   3.383   9.162
 1722POPC   C1A24387  38.315   3.242   8.774
 1722POPC   D2A24388  38.579   3.440   8.503
 1722POPC   C3A24389  38.471   3.803   8.234
 1722POPC   C4A24390  38.443   3.621   7.864
 1722POPC   C1B24391  38.027   3.661   8.760
 1722POPC   C2B24392  38.091   3.490   8.348
 1722POPC   C3B24393  38.009   3.391   7.938
 1722POPC   C4B24394  38.063   3.618   7.511
 1723POPC   NC324395  44.076  20.547   9.684
 1723POPC   PO424396  43.567  20.476   9.480
 1723POPC   GL124397  43.927  20.526   9.163
 1723POPC   GL224398  44.231  20.312   9.170
 1723POPC   C1A24399  43.917  20.622   8.696
 1723POPC   D2A24400  43.808  20.498   8.253
 1723POPC   C3A24401  43.890  20.756   7.892
 1723POPC   C4A24402  43.970  20.681   7.462
 1723POPC   C1B24403  44.091  20.137   8.748
 1723POPC   C2B24404  44.024  20.037   8.273
 1723POPC   C3B24405  44.020  20.228   7.840
 1723POPC   C4B24406  43.864  20.188   7.402
 1724POPC   NC324407  42.780  37.400   9.358
 1724POPC   PO424408  43.383  37.751   9.603
 1724POPC   GL124409  43.230  37.681   9.197
 1724POPC   GL224410  43.401  37.362   9.125
 1724POPC   C1A24411  43.101  37.960   8.834
 1724POPC   D2A24412  43.167  38.056   8.416
 1724POPC   C3A24413  43.321  37.674   8.290
 1724POPC   C4A24414  43.266  37.552   7.894
 1724POPC   C1B24415  43.123  37.453   8.747
 1724POPC   C2B24416  42.885  37.341   8.384
 1724POPC   C3B24417  42.995  37.151   7.989
 1724POPC   C4B24418  43.256  37.148   7.573
 1725POPC   NC324419  38.486  42.716   9.653
 1725POPC   PO424420  38.866  43.285   9.695
 1725POPC   GL124421  38.553  43.170   9.347
 1725POPC   GL224422  38.645  42.860   9.176
 1725POPC   C1A24423  38.471  43.283   8.904
 1725POPC   D2A24424  38.436  43.131   8.469
 1725POPC   C3A24425  38.292  43.232   8.059
 1725POPC   C4A24426  38.536  43.502   7.790
 1725POPC   C1B24427  38.825  42.924   8.730
 1725POPC   C2B24428  38.747  42.797   8.259
 1725POPC   C3B24429  38.670  42.969   7.817
 1725POPC   C4B24430  38.715  42.842   7.363
 1726POPC   NC324431   1.597  20.211   9.412
 1726POPC   PO424432   1.809  20.959   9.476
 1726POPC   GL124433   2.100  20.760   9.136
 1726POPC   GL224434   2.192  20.413   9.217
 1726POPC   C1A24435   2.170  20.738   8.686
 1726POPC   D2A24436   1.772  20.742   8.422
 1726POPC   C3A24437   1.820  20.679   7.970
 1726POPC   C4A24438   2.217  20.668   7.681
 1726POPC   C1B24439   1.914  20.336   8.847
 1726POPC   C2B24440   1.945  20.256   8.412
 1726POPC   C3B24441   2.117  20.279   8.016
 1726POPC   C4B24442   2.146  20.168   7.599
 1727POPC   NC324443   0.025  28.841   9.502
 1727POPC   PO424444   0.570  29.193   9.611
 1727POPC   GL124445   0.396  29.292   9.217
 1727POPC   GL224446   0.165  29.106   9.099
 1727POPC   C1A24447   0.551  29.255   8.793
 1727POPC   D2A24448   0.384  29.052   8.437
 1727POPC   C3A24449   0.654  29.213   8.129
 1727POPC   C4A24450   0.685  29.359   7.729
 1727POPC   C1B24451   0.299  28.724   8.883
 1727POPC   C2B24452   0.214  28.571   8.492
 1727POPC   C3B24453   0.123  28.717   8.098
 1727POPC   C4B24454   0.332  28.984   7.801
 1728POPC   NC324455  17.957   4.082   9.555
 1728POPC   PO424456  18.529   4.455   9.466
 1728POPC   GL124457  18.284   4.187   9.154
 1728POPC   GL224458  18.132   4.452   8.926
 1728POPC   C1A24459  18.174   3.970   8.745
 1728POPC   D2A24460  18.399   4.180   8.399
 1728POPC   C3A24461  18.455   4.054   7.955
 1728POPC   C4A24462  18.498   4.171   7.513
 1728POPC   C1B24463  17.860   4.323   8.556
 1728POPC   C2B24464  17.958   4.154   8.131
 1728POPC   C3B24465  18.124   4.455   7.843
 1728POPC   C4B24466  17.868   4.756   7.632
 1729POPC   NC324467   4.059   3.147   9.533
 1729POPC   PO424468   4.624   2.759   9.499
 1729POPC   GL124469   4.509   2.794   9.078
 1729POPC   GL224470   4.177   2.869   9.092
 1729POPC   C1A24471   4.441   2.842   8.630
 1729POPC   D2A24472   4.667   2.793   8.261
 1729POPC   C3A24473   4.572   3.051   7.911
 1729POPC   C4A24474   4.429   2.871   7.480
 1729POPC   C1B24475   4.086   3.169   8.765
 1729POPC   C2B24476   3.915   3.097   8.358
 1729POPC   C3B24477   4.024   2.944   7.948
 1729POPC   C4B24478   4.164   3.271   7.712
 1730POPC   NC324479  17.232  28.867   9.584
 1730POPC   PO424480  17.879  29.180   9.581
 1730POPC   GL124481  17.623  29.272   9.246
 1730POPC   GL224482  17.562  28.931   9.216
 1730POPC   C1A24483  17.488  29.237   8.816
 1730POPC   D2A24484  17.499  29.438   8.439
 1730POPC   C3A24485  17.363  29.167   8.174
 1730POPC   C4A24486  17.293  28.975   7.773
 1730POPC   C1B24487  17.738  28.791   8.848
 1730POPC   C2B24488  17.754  28.944   8.467
 1730POPC   C3B24489  17.667  28.787   8.089
 1730POPC   C4B24490  17.812  28.882   7.725
 1731POPC   NC324491  23.678  19.443   9.413
 1731POPC   PO424492  23.872  20.125   9.543
 1731POPC   GL124493  23.804  19.886   9.164
 1731POPC   GL224494  23.478  19.754   9.030
 1731POPC   C1A24495  23.893  19.650   8.785
 1731POPC   D2A24496  24.097  19.759   8.420
 1731POPC   C3A24497  23.830  19.838   8.079
 1731POPC   C4A24498  23.556  20.124   7.901
 1731POPC   C1B24499  23.511  20.019   8.702
 1731POPC   C2B24500  23.420  19.857   8.365
 1731POPC   C3B24501  23.130  19.852   8.057
 1731POPC   C4B24502  23.405  19.645   7.815
 1732POPC   NC324503  19.402  19.040   9.512
 1732POPC   PO424504  18.728  19.282   9.435
 1732POPC   GL124505  19.025  19.152   9.153
 1732POPC   GL224506  19.059  18.803   9.197
 1732POPC   C1A24507  18.954  19.097   8.741
 1732POPC   D2A24508  19.091  19.318   8.413
 1732POPC   C3A24509  18.992  19.190   8.015
 1732POPC   C4A24510  19.108  19.128   7.562
 1732POPC   C1B24511  19.320  18.735   8.820
 1732POPC   C2B24512  19.253  18.838   8.386
 1732POPC   C3B24513  19.213  18.745   7.953
 1732POPC   C4B24514  18.842  18.713   7.724
 1733POPC   NC324515  30.906  12.896   9.489
 1733POPC   PO424516  30.366  13.006   9.213
 1733POPC   GL124517  30.671  12.763   9.057
 1733POPC   GL224518  30.475  12.472   9.146
 1733POPC   C1A24519  30.921  12.852   8.708
 1733POPC   D2A24520  30.926  12.743   8.282
 1733POPC   C3A24521  30.769  12.915   7.888
 1733POPC   C4A24522  30.834  12.874   7.434
 1733POPC   C1B24523  30.341  12.575   8.716
 1733POPC   C2B24524  30.442  12.868   8.374
 1733POPC   C3B24525  30.295  12.748   7.968
 1733POPC   C4B24526  30.491  12.522   7.636
 1734POPC   NC324527  42.955  26.920   9.731
 1734POPC   PO424528  43.405  26.621   9.296
 1734POPC   GL124529  43.093  26.832   9.094
 1734POPC   GL224530  42.763  26.819   9.255
 1734POPC   C1A24531  43.169  27.053   8.720
 1734POPC   D2A24532  43.094  27.195   8.315
 1734POPC   C3A24533  43.235  26.882   8.040
 1734POPC   C4A24534  43.180  26.739   7.634
 1734POPC   C1B24535  42.655  27.042   8.875
 1734POPC   C2B24536  42.584  27.108   8.441
 1734POPC   C3B24537  42.688  26.971   8.015
 1734POPC   C4B24538  42.820  27.079   7.599
 1735POPC   NC324539  28.778  44.737   9.890
 1735POPC   PO424540  28.230  44.935   9.492
 1735POPC   GL124541  28.337  44.648   9.160
 1735POPC   GL224542  28.657  44.422   9.226
 1735POPC   C1A24543  28.142  44.675   8.723
 1735POPC   D2A24544  28.101  44.587   8.278
 1735POPC   C3A24545  27.992  44.952   8.037
 1735POPC   C4A24546  28.334   0.110   7.805
 1735POPC   C1B24547  28.559  44.409   8.775
 1735POPC   C2B24548  28.616  44.648   8.409
 1735POPC   C3B24549  28.597  44.677   7.978
 1735POPC   C4B24550  28.640  44.396   7.631
 1736POPC   NC324551  34.725  35.125   9.450
 1736POPC   PO424552  34.713  34.385   9.449
 1736POPC   GL124553  34.478  34.508   9.076
 1736POPC   GL224554  34.476  34.866   9.077
 1736POPC   C1A24555  34.373  34.391   8.661
 1736POPC   D2A24556  34.693  34.622   8.490
 1736POPC   C3A24557  34.647  34.698   8.083
 1736POPC   C4A24558  34.386  34.664   7.752
 1736POPC   C1B24559  34.858  34.986   8.821
 1736POPC   C2B24560  35.102  35.169   8.484
 1736POPC   C3B24561  35.062  35.138   8.048
 1736POPC   C4B24562  34.740  35.095   7.783
 1737POPC   NC324563  37.218  15.625   9.597
 1737POPC   PO424564  36.913  16.212   9.625
 1737POPC   GL124565  36.919  15.919   9.288
 1737POPC   GL224566  37.215  16.052   9.171
 1737POPC   C1A24567  37.023  15.620   8.930
 1737POPC   D2A24568  36.904  15.674   8.492
 1737POPC   C3A24569  37.087  15.633   8.077
 1737POPC   C4A24570  37.060  15.941   7.757
 1737POPC   C1B24571  36.988  16.113   8.789
 1737POPC   C2B24572  36.740  16.216   8.449
 1737POPC   C3B24573  36.897  16.375   8.093
 1737POPC   C4B24574  37.284  16.398   7.896
 1738POPC   NC324575  29.319  33.367   9.256
 1738POPC   PO424576  29.803  32.932   9.544
 1738POPC   GL124577  30.017  33.014   9.188
 1738POPC   GL224578  29.671  33.016   9.049
 1738POPC   C1A24579  30.139  33.230   8.793
 1738POPC   D2A24580  30.338  33.269   8.379
 1738POPC   C3A24581  30.154  33.271   7.975
 1738POPC   C4A24582  30.140  33.238   7.528
 1738POPC   C1B24583  29.890  32.755   8.780
 1738POPC   C2B24584  30.022  32.865   8.438
 1738POPC   C3B24585  29.874  32.843   8.060
 1738POPC   C4B24586  29.735  32.963   7.672
 1739POPC   NC324587   6.469  43.409   9.467
 1739POPC   PO424588   6.920  42.962   9.437
 1739POPC   GL124589   6.684  43.128   9.094
 1739POPC   GL224590   6.318  43.020   9.047
 1739POPC   C1A24591   6.753  43.187   8.668
 1739POPC   D2A24592   6.539  43.041   8.309
 1739POPC   C3A24593   6.577  43.299   7.951
 1739POPC   C4A24594   6.880  43.433   7.648
 1739POPC   C1B24595   6.443  42.699   8.703
 1739POPC   C2B24596   6.341  42.566   8.261
 1739POPC   C3B24597   6.358  42.813   7.876
 1739POPC   C4B24598   6.301  42.699   7.421
 1740POPC   NC324599  31.639  34.677   9.603
 1740POPC   PO424600  31.904  34.151   9.445
 1740POPC   GL124601  31.575  34.404   9.168
 1740POPC   GL224602  31.545  34.799   9.121
 1740POPC   C1A24603  31.345  34.463   8.771
 1740POPC   D2A24604  31.482  34.441   8.339
 1740POPC   C3A24605  31.191  34.395   7.983
 1740POPC   C4A24606  31.210  34.419   7.525
 1740POPC   C1B24607  31.802  34.770   8.751
 1740POPC   C2B24608  31.789  34.886   8.311
 1740POPC   C3B24609  31.534  34.771   7.937
 1740POPC   C4B24610  31.687  34.657   7.519
 1741POPC   NC324611   0.490  22.456   9.419
 1741POPC   PO424612   0.368  23.150   9.385
 1741POPC   GL124613   0.532  22.867   9.096
 1741POPC   GL224614   0.301  22.586   8.990
 1741POPC   C1A24615   0.437  22.936   8.657
 1741POPC   D2A24616   0.268  23.122   8.298
 1741POPC   C3A24617   0.579  23.002   8.001
 1741POPC   C4A24618   0.624  23.185   7.639
 1741POPC   C1B24619   0.293  22.414   8.629
 1741POPC   C2B24620   0.347  22.616   8.247
 1741POPC   C3B24621   0.134  22.795   7.889
 1741POPC   C4B24622   0.158  22.917   7.465
 1742POPC   NC324623   2.582   4.012   9.544
 1742POPC   PO424624   2.754   4.638   9.637
 1742POPC   GL124625   2.733   4.414   9.222
 1742POPC   GL224626   2.390   4.531   9.100
 1742POPC   C1A24627   2.862   4.218   8.811
 1742POPC   D2A24628   2.634   4.196   8.441
 1742POPC   C3A24629   2.747   4.243   8.036
 1742POPC   C4A24630   2.890   4.284   7.640
 1742POPC   C1B24631   2.348   4.140   8.894
 1742POPC   C2B24632   2.256   3.885   8.541
 1742POPC   C3B24633   2.290   4.007   8.089
 1742POPC   C4B24634   2.502   3.949   7.648
 1743POPC   NC324635  27.079   1.932   9.463
 1743POPC   PO424636  26.408   2.243   9.548
 1743POPC   GL124637  26.666   2.076   9.193
 1743POPC   GL224638  26.644   1.722   9.182
 1743POPC   C1A24639  26.954   1.956   8.825
 1743POPC   D2A24640  26.945   1.823   8.410
 1743POPC   C3A24641  27.131   1.936   8.025
 1743POPC   C4A24642  26.863   2.102   7.708
 1743POPC   C1B24643  26.567   1.587   8.747
 1743POPC   C2B24644  26.705   1.388   8.361
 1743POPC   C3B24645  26.694   1.643   7.980
 1743POPC   C4B24646  26.847   1.611   7.556
 1744POPC   NC324647  23.771  16.673   9.640
 1744POPC   PO424648  23.304  16.281   9.423
 1744POPC   GL124649  23.436  16.668   9.191
 1744POPC   GL224650  23.774  16.860   9.163
 1744POPC   C1A24651  23.498  16.669   8.751
 1744POPC   D2A24652  23.552  16.874   8.351
 1744POPC   C3A24653  23.324  16.820   7.967
 1744POPC   C4A24654  23.396  16.639   7.545
 1744POPC   C1B24655  23.826  17.069   8.764
 1744POPC   C2B24656  24.020  17.042   8.344
 1744POPC   C3B24657  23.844  16.977   7.932
 1744POPC   C4B24658  23.922  17.095   7.507
 1745POPC   NC324659   4.755  21.608   9.531
 1745POPC   PO424660   5.341  21.272   9.810
 1745POPC   GL124661   5.143  21.295   9.366
 1745POPC   GL224662   5.128  21.583   9.140
 1745POPC   C1A24663   5.257  21.153   8.905
 1745POPC   D2A24664   5.346  20.999   8.461
 1745POPC   C3A24665   5.079  21.191   8.144
 1745POPC   C4A24666   4.991  21.199   7.707
 1745POPC   C1B24667   4.891  21.485   8.740
 1745POPC   C2B24668   4.815  21.658   8.309
 1745POPC   C3B24669   4.895  21.679   7.845
 1745POPC   C4B24670   4.786  21.556   7.395
 1746POPC   NC324671   5.854  13.760   9.513
 1746POPC   PO424672   6.170  13.185   9.382
 1746POPC   GL124673   5.881  13.465   9.105
 1746POPC   GL224674   5.982  13.855   9.047
 1746POPC   C1A24675   5.671  13.605   8.725
 1746POPC   D2A24676   5.728  13.805   8.315
 1746POPC   C3A24677   5.625  13.574   7.976
 1746POPC   C4A24678   5.702  13.198   7.771
 1746POPC   C1B24679   6.076  13.944   8.638
 1746POPC   C2B24680   6.256  13.819   8.214
 1746POPC   C3B24681   6.091  13.711   7.782
 1746POPC   C4B24682   6.003  13.983   7.424
 1747POPC   NC324683  23.482  15.673   9.875
 1747POPC   PO424684  23.802  16.217   9.741
 1747POPC   GL124685  23.912  15.982   9.322
 1747POPC   GL224686  23.698  16.198   9.139
 1747POPC   C1A24687  23.849  15.809   8.847
 1747POPC   D2A24688  23.902  16.028   8.421
 1747POPC   C3A24689  23.805  15.915   7.966
 1747POPC   C4A24690  23.745  15.678   7.513
 1747POPC   C1B24691  23.492  16.166   8.749
 1747POPC   C2B24692  23.480  16.343   8.349
 1747POPC   C3B24693  23.541  16.356   7.936
 1747POPC   C4B24694  23.483  16.107   7.583
 1748POPC   NC324695  12.922   0.787   9.737
 1748POPC   PO424696  12.556   0.296   9.578
 1748POPC   GL124697  12.707   0.281   9.156
 1748POPC   GL224698  12.953   0.024   9.118
 1748POPC   C1A24699  12.545   0.267   8.742
 1748POPC   D2A24700  12.462   0.452   8.335
 1748POPC   C3A24701  12.726   0.267   8.015
 1748POPC   C4A24702  12.865   0.420   7.596
 1748POPC   C1B24703  13.228   0.180   8.752
 1748POPC   C2B24704  13.263   0.280   8.291
 1748POPC   C3B24705  13.270   0.222   7.822
 1748POPC   C4B24706  13.334   0.412   7.409
 1749POPC   NC324707  14.737  43.854   9.796
 1749POPC   PO424708  15.401  43.740   9.590
 1749POPC   GL124709  15.306  43.799   9.100
 1749POPC   GL224710  15.100  44.119   8.996
 1749POPC   C1A24711  15.375  43.879   8.636
 1749POPC   D2A24712  15.425  43.847   8.166
 1749POPC   C3A24713  15.061  43.799   7.907
 1749POPC   C4A24714  14.828  43.911   7.507
 1749POPC   C1B24715  14.936  44.210   8.641
 1749POPC   C2B24716  15.016  44.152   8.264
 1749POPC   C3B24717  14.895  44.275   7.894
 1749POPC   C4B24718  15.057  44.490   7.579
 1750POPC   NC324719   5.446  34.656   9.496
 1750POPC   PO424720   6.022  34.346   9.484
 1750POPC   GL124721   6.001  34.500   9.095
 1750POPC   GL224722   5.834  34.818   9.089
 1750POPC   C1A24723   6.039  34.535   8.679
 1750POPC   D2A24724   5.814  34.641   8.331
 1750POPC   C3A24725   6.000  34.538   7.940
 1750POPC   C4A24726   6.335  34.742   7.748
 1750POPC   C1B24727   5.532  34.587   8.801
 1750POPC   C2B24728   5.398  34.339   8.414
 1750POPC   C3B24729   5.493  34.449   7.991
 1750POPC   C4B24730   5.617  34.411   7.565
 1751POPC   NC324731  15.768  28.239   9.446
 1751POPC   PO424732  16.300  28.621   9.549
 1751POPC   GL124733  16.011  28.688   9.220
 1751POPC   GL224734  15.636  28.695   9.286
 1751POPC   C1A24735  16.060  28.420   8.874
 1751POPC   D2A24736  15.890  28.327   8.512
 1751POPC   C3A24737  16.221  28.410   8.214
 1751POPC   C4A24738  16.136  28.518   7.801
 1751POPC   C1B24739  15.603  28.662   8.832
 1751POPC   C2B24740  15.693  28.773   8.390
 1751POPC   C3B24741  15.697  28.467   8.067
 1751POPC   C4B24742  15.624  28.450   7.676
 1752POPC   NC324743  23.765  21.286   9.717
 1752POPC   PO424744  23.190  21.502   9.478
 1752POPC   GL124745  23.567  21.420   9.228
 1752POPC   GL224746  23.743  21.077   9.213
 1752POPC   C1A24747  23.782  21.511   8.856
 1752POPC   D2A24748  23.845  21.346   8.435
 1752POPC   C3A24749  23.914  21.647   8.119
 1752POPC   C4A24750  23.884  21.910   7.791
 1752POPC   C1B24751  23.571  21.051   8.783
 1752POPC   C2B24752  23.427  21.035   8.347
 1752POPC   C3B24753  23.700  21.125   7.980
 1752POPC   C4B24754  23.727  21.117   7.543
 1753POPC   NC324755  25.830  14.942   9.513
 1753POPC   PO424756  26.327  15.378   9.541
 1753POPC   GL124757  26.055  15.350   9.169
 1753POPC   GL224758  25.899  15.051   9.035
 1753POPC   C1A24759  26.129  15.333   8.716
 1753POPC   D2A24760  25.886  15.080   8.439
 1753POPC   C3A24761  25.944  15.294   8.078
 1753POPC   C4A24762  26.314  15.321   7.873
 1753POPC   C1B24763  26.126  14.742   8.781
 1753POPC   C2B24764  26.295  14.623   8.386
 1753POPC   C3B24765  26.147  14.811   7.996
 1753POPC   C4B24766  26.291  14.884   7.570
 1754POPC   NC324767  28.509  14.392   9.521
 1754POPC   PO424768  27.863  14.206   9.566
 1754POPC   GL124769  28.138  14.157   9.192
 1754POPC   GL224770  28.298  14.496   9.076
 1754POPC   C1A24771  28.305  14.094   8.759
 1754POPC   D2A24772  28.379  14.442   8.474
 1754POPC   C3A24773  28.403  14.351   8.039
 1754POPC   C4A24774  28.296  14.184   7.610
 1754POPC   C1B24775  28.537  14.808   8.844
 1754POPC   C2B24776  28.705  14.851   8.457
 1754POPC   C3B24777  28.489  14.872   8.066
 1754POPC   C4B24778  28.426  14.694   7.661
 1755POPC   NC324779  35.445  36.831   9.403
 1755POPC   PO424780  35.690  37.487   9.461
 1755POPC   GL124781  35.596  37.230   9.090
 1755POPC   GL224782  35.243  37.248   9.084
 1755POPC   C1A24783  35.454  36.900   8.746
 1755POPC   D2A24784  35.338  36.556   8.438
 1755POPC   C3A24785  35.216  36.703   8.008
 1755POPC   C4A24786  35.091  36.678   7.583
 1755POPC   C1B24787  35.279  37.390   8.706
 1755POPC   C2B24788  35.549  37.307   8.391
 1755POPC   C3B24789  35.412  37.188   7.966
 1755POPC   C4B24790  35.212  37.156   7.571
 1756POPC   NC324791  12.907  13.299   9.523
 1756POPC   PO424792  12.844  13.918   9.601
 1756POPC   GL124793  12.724  13.681   9.203
 1756POPC   GL224794  12.986  13.432   9.059
 1756POPC   C1A24795  12.601  13.598   8.767
 1756POPC   D2A24796  12.377  13.745   8.416
 1756POPC   C3A24797  12.609  13.682   8.080
 1756POPC   C4A24798  12.919  13.596   7.812
 1756POPC   C1B24799  13.157  13.251   8.715
 1756POPC   C2B24800  13.018  13.350   8.310
 1756POPC   C3B24801  13.329  13.333   7.995
 1756POPC   C4B24802  13.283  13.323   7.554
 1757POPC   NC324803  39.305   9.621   9.524
 1757POPC   PO424804  39.040  10.125   9.265
 1757POPC   GL124805  39.319   9.881   9.060
 1757POPC   GL224806  39.292   9.512   9.027
 1757POPC   C1A24807  39.328   9.838   8.625
 1757POPC   D2A24808  39.490   9.997   8.276
 1757POPC   C3A24809  39.249   9.773   7.998
 1757POPC   C4A24810  39.346   9.812   7.563
 1757POPC   C1B24811  39.047   9.392   8.662
 1757POPC   C2B24812  38.922   9.220   8.243
 1757POPC   C3B24813  38.936   9.386   7.836
 1757POPC   C4B24814  39.377   9.350   7.761
 1758POPC   NC324815  11.427  35.459   9.707
 1758POPC   PO424816  11.130  35.174   9.175
 1758POPC   GL124817  11.312  35.533   8.986
 1758POPC   GL224818  11.589  35.576   9.205
 1758POPC   C1A24819  11.262  35.520   8.561
 1758POPC   D2A24820  11.294  35.704   8.173
 1758POPC   C3A24821  11.169  35.454   7.827
 1758POPC   C4A24822  11.158  35.359   7.372
 1758POPC   C1B24823  11.687  35.199   8.916
 1758POPC   C2B24824  11.672  35.212   8.457
 1758POPC   C3B24825  11.512  35.102   8.036
 1758POPC   C4B24826  11.577  35.107   7.591
 1759POPC   NC324827  35.549   1.786   9.496
 1759POPC   PO424828  34.938   2.104   9.525
 1759POPC   GL124829  35.236   2.024   9.159
 1759POPC   GL224830  35.608   2.016   9.064
 1759POPC   C1A24831  35.257   1.865   8.718
 1759POPC   D2A24832  35.094   1.982   8.314
 1759POPC   C3A24833  35.343   1.951   7.965
 1759POPC   C4A24834  35.224   2.079   7.583
 1759POPC   C1B24835  35.753   1.715   8.733
 1759POPC   C2B24836  35.662   1.472   8.317
 1759POPC   C3B24837  35.580   1.497   7.837
 1759POPC   C4B24838  35.480   1.663   7.383
 1760POPC   NC324839  40.271  13.364   9.813
 1760POPC   PO424840  39.754  13.642   9.426
 1760POPC   GL124841  40.040  13.564   9.116
 1760POPC   GL224842  40.272  13.349   9.296
 1760POPC   C1A24843  39.917  13.724   8.712
 1760POPC   D2A24844  39.768  13.919   8.320
 1760POPC   C3A24845  39.970  13.714   7.973
 1760POPC   C4A24846  40.038  13.797   7.550
 1760POPC   C1B24847  40.412  13.244   8.870
 1760POPC   C2B24848  40.273  13.430   8.500
 1760POPC   C3B24849  40.243  13.301   8.081
 1760POPC   C4B24850  40.194  13.308   7.662
 1761POPC   NC324851  10.909  13.137   9.301
 1761POPC   PO424852  10.355  13.502   9.489
 1761POPC   GL124853  10.434  13.849   9.151
 1761POPC   GL224854  10.777  13.918   9.060
 1761POPC   C1A24855  10.309  13.974   8.730
 1761POPC   D2A24856  10.436  13.809   8.327
 1761POPC   C3A24857  10.376  13.361   8.207
 1761POPC   C4A24858  10.444  13.288   7.743
 1761POPC   C1B24859  10.669  13.588   8.779
 1761POPC   C2B24860  10.852  13.461   8.402
 1761POPC   C3B24861  10.780  13.604   7.986
 1761POPC   C4B24862  10.906  13.449   7.607
 1762POPC   NC324863  28.220   8.881   9.504
 1762POPC   PO424864  28.334   9.549   9.655
 1762POPC   GL124865  28.361   9.333   9.160
 1762POPC   GL224866  28.057   9.145   9.064
 1762POPC   C1A24867  28.439   9.199   8.701
 1762POPC   D2A24868  28.663   9.129   8.285
 1762POPC   C3A24869  28.362   8.969   7.949
 1762POPC   C4A24870  28.278   9.073   7.504
 1762POPC   C1B24871  28.124   8.766   8.835
 1762POPC   C2B24872  28.276   8.688   8.410
 1762POPC   C3B24873  27.998   8.583   8.073
 1762POPC   C4B24874  27.927   8.744   7.682
 1763POPC   NC324875   2.748  26.449   9.694
 1763POPC   PO424876   2.777  25.822   9.524
 1763POPC   GL124877   2.738  26.102   9.167
 1763POPC   GL224878   3.014  26.334   9.182
 1763POPC   C1A24879   2.579  26.003   8.735
 1763POPC   D2A24880   2.842  25.801   8.431
 1763POPC   C3A24881   2.918  25.895   8.015
 1763POPC   C4A24882   2.977  25.731   7.631
 1763POPC   C1B24883   3.004  26.264   8.728
 1763POPC   C2B24884   2.803  26.295   8.306
 1763POPC   C3B24885   2.926  26.380   7.855
 1763POPC   C4B24886   2.654  26.529   7.532
 1764POPC   NC324887   5.211  35.143   9.720
 1764POPC   PO424888   4.867  35.718   9.652
 1764POPC   GL124889   4.838  35.452   9.259
 1764POPC   GL224890   5.198  35.320   9.240
 1764POPC   C1A24891   4.934  35.297   8.821
 1764POPC   D2A24892   5.193  35.340   8.485
 1764POPC   C3A24893   4.943  35.406   8.166
 1764POPC   C4A24894   5.060  35.152   7.857
 1764POPC   C1B24895   5.400  35.081   8.906
 1764POPC   C2B24896   5.670  35.084   8.558
 1764POPC   C3B24897   5.513  35.043   8.125
 1764POPC   C4B24898   5.460  34.876   7.695
 1765POPC   NC324899   4.433  30.134   9.400
 1765POPC   PO424900   4.013  29.593   9.488
 1765POPC   GL124901   4.196  29.752   9.103
 1765POPC   GL224902   4.134  30.062   8.998
 1765POPC   C1A24903   4.465  29.755   8.734
 1765POPC   D2A24904   4.544  30.043   8.422
 1765POPC   C3A24905   4.316  29.873   8.078
 1765POPC   C4A24906   4.486  29.902   7.705
 1765POPC   C1B24907   4.184  30.311   8.698
 1765POPC   C2B24908   4.012  30.208   8.306
 1765POPC   C3B24909   4.073  30.270   7.843
 1765POPC   C4B24910   3.909  30.247   7.397
 1766POPC   NC324911  40.304  30.670   9.373
 1766POPC   PO424912  40.890  30.488   9.483
 1766POPC   GL124913  40.766  30.870   9.225
 1766POPC   GL224914  40.487  30.962   9.001
 1766POPC   C1A24915  40.953  31.039   8.852
 1766POPC   D2A24916  41.075  30.896   8.450
 1766POPC   C3A24917  40.920  30.925   8.040
 1766POPC   C4A24918  41.019  30.646   7.739
 1766POPC   C1B24919  40.702  30.603   8.782
 1766POPC   C2B24920  40.615  30.633   8.352
 1766POPC   C3B24921  40.422  30.910   8.047
 1766POPC   C4B24922  40.464  30.784   7.638
 1767POPC   NC324923  30.387  26.149   9.801
 1767POPC   PO424924  31.010  26.088   9.544
 1767POPC   GL124925  30.868  25.986   9.094
 1767POPC   GL224926  30.524  25.928   9.088
 1767POPC   C1A24927  30.783  25.887   8.647
 1767POPC   D2A24928  30.848  25.863   8.208
 1767POPC   C3A24929  30.577  25.888   7.866
 1767POPC   C4A24930  30.903  25.657   7.688
 1767POPC   C1B24931  30.581  26.327   8.826
 1767POPC   C2B24932  30.425  26.638   8.547
 1767POPC   C3B24933  30.348  26.542   8.110
 1767POPC   C4B24934  30.492  26.367   7.720
 1768POPC   NC324935  28.325  19.931   9.880
 1768POPC   PO424936  28.827  20.099   9.570
 1768POPC   GL124937  28.479  20.073   9.243
 1768POPC   GL224938  28.138  19.965   9.327
 1768POPC   C1A24939  28.519  19.960   8.771
 1768POPC   D2A24940  28.609  19.766   8.333
 1768POPC   C3A24941  28.594  20.000   7.918
 1768POPC   C4A24942  28.695  20.351   7.598
 1768POPC   C1B24943  28.009  19.786   8.952
 1768POPC   C2B24944  28.096  19.740   8.535
 1768POPC   C3B24945  27.888  19.823   8.169
 1768POPC   C4B24946  28.055  19.739   7.812
 1769POPC   NC324947   6.348  29.694   9.548
 1769POPC   PO424948   5.746  30.152   9.479
 1769POPC   GL124949   5.834  29.892   9.157
 1769POPC   GL224950   5.576  29.632   9.113
 1769POPC   C1A24951   6.183  29.805   8.882
 1769POPC   D2A24952   6.345  29.976   8.506
 1769POPC   C3A24953   6.146  29.852   8.119
 1769POPC   C4A24954   6.239  29.894   7.681
 1769POPC   C1B24955   5.566  29.798   8.734
 1769POPC   C2B24956   5.645  29.944   8.363
 1769POPC   C3B24957   5.433  29.855   8.009
 1769POPC   C4B24958   5.778  29.706   7.762
 1770POPC   NC324959  24.059   6.370   9.682
 1770POPC   PO424960  24.703   6.329   9.564
 1770POPC   GL124961  24.563   6.602   9.223
 1770POPC   GL224962  24.276   6.432   9.202
 1770POPC   C1A24963  24.631   6.815   8.823
 1770POPC   D2A24964  24.412   6.998   8.500
 1770POPC   C3A24965  24.517   6.928   8.086
 1770POPC   C4A24966  24.598   6.704   7.711
 1770POPC   C1B24967  24.423   6.333   8.785
 1770POPC   C2B24968  24.562   6.501   8.397
 1770POPC   C3B24969  24.448   6.325   8.020
 1770POPC   C4B24970  24.220   6.361   7.635
 1771POPC   NC324971   7.727   0.240   9.598
 1771POPC   PO424972   8.231   0.618   9.427
 1771POPC   GL124973   8.328   0.438   9.066
 1771POPC   GL224974   8.112   0.192   9.160
 1771POPC   C1A24975   8.232   0.505   8.669
 1771POPC   D2A24976   8.195   0.767   8.328
 1771POPC   C3A24977   8.222   0.567   7.949
 1771POPC   C4A24978   8.464   0.415   7.638
 1771POPC   C1B24979   7.912   0.088   8.752
 1771POPC   C2B24980   8.053   0.138   8.351
 1771POPC   C3B24981   7.854   0.207   7.979
 1771POPC   C4B24982   8.036   0.172   7.591
 1772POPC   NC324983  42.000   1.662   9.745
 1772POPC   PO424984  41.598   1.203   9.479
 1772POPC   GL124985  41.838   0.946   9.186
 1772POPC   GL224986  41.513   1.017   9.017
 1772POPC   C1A24987  41.903   0.876   8.743
 1772POPC   D2A24988  41.599   1.099   8.432
 1772POPC   C3A24989  41.712   1.138   8.004
 1772POPC   C4A24990  41.629   1.492   7.730
 1772POPC   C1B24991  41.235   1.230   8.744
 1772POPC   C2B24992  41.034   1.263   8.376
 1772POPC   C3B24993  41.223   1.371   8.016
 1772POPC   C4B24994  41.320   1.090   7.704
 1773POPC   NC324995  20.912  21.556   9.611
 1773POPC   PO424996  20.442  20.944   9.470
 1773POPC   GL124997  20.731  21.205   9.253
 1773POPC   GL224998  20.622  21.564   9.180
 1773POPC   C1A24999  20.855  21.264   8.843
 1773POPC   D2A25000  20.974  21.334   8.434
 1773POPC   C3A25001  20.694  21.248   8.102
 1773POPC   C4A25002  20.665  21.192   7.663
 1773POPC   C1B25003  20.392  21.539   8.773
 1773POPC   C2B25004  20.221  21.364   8.396
 1773POPC   C3B25005  20.301  21.603   8.072
 1773POPC   C4B25006  20.607  21.689   7.767
 1774POPC   NC325007   5.630  26.881   9.498
 1774POPC   PO425008   5.045  26.881   9.718
 1774POPC   GL125009   5.062  26.876   9.274
 1774POPC   GL225010   5.281  27.132   9.175
 1774POPC   C1A25011   5.064  26.732   8.839
 1774POPC   D2A25012   5.075  26.856   8.390
 1774POPC   C3A25013   4.827  26.797   8.019
 1774POPC   C4A25014   4.919  26.878   7.617
 1774POPC   C1B25015   5.169  27.238   8.731
 1774POPC   C2B25016   5.392  27.248   8.309
 1774POPC   C3B25017   5.393  26.973   7.928
 1774POPC   C4B25018   5.323  27.142   7.512
 1775POPC   NC325019  13.148   7.731   9.454
 1775POPC   PO425020  12.706   7.207   9.414
 1775POPC   GL125021  12.975   7.339   9.116
 1775POPC   GL225022  12.865   7.676   9.047
 1775POPC   C1A25023  13.084   7.344   8.685
 1775POPC   D2A25024  13.098   7.127   8.307
 1775POPC   C3A25025  13.176   7.338   7.911
 1775POPC   C4A25026  12.921   7.339   7.534
 1775POPC   C1B25027  12.929   7.832   8.650
 1775POPC   C2B25028  13.091   7.678   8.271
 1775POPC   C3B25029  12.798   7.684   7.934
 1775POPC   C4B25030  12.727   7.796   7.531
 1776POPC   NC325031   0.874  25.280   9.515
 1776POPC   PO425032   1.450  25.032   9.482
 1776POPC   GL125033   1.238  25.295   9.137
 1776POPC   GL225034   0.929  25.511   9.068
 1776POPC   C1A25035   1.285  25.176   8.710
 1776POPC   D2A25036   1.302  25.367   8.286
 1776POPC   C3A25037   1.312  25.137   7.884
 1776POPC   C4A25038   1.386  25.213   7.444
 1776POPC   C1B25039   1.051  25.633   8.675
 1776POPC   C2B25040   0.798  25.541   8.285
 1776POPC   C3B25041   0.791  25.292   7.930
 1776POPC   C4B25042   0.908  25.323   7.518
 1777POPC   NC325043   8.478  28.707   9.394
 1777POPC   PO425044   8.085  28.305   9.783
 1777POPC   GL125045   8.089  28.330   9.309
 1777POPC   GL225046   7.886  28.617   9.226
 1777POPC   C1A25047   8.236  28.154   8.911
 1777POPC   D2A25048   8.233  28.260   8.482
 1777POPC   C3A25049   8.527  28.254   8.174
 1777POPC   C4A25050   8.606  28.451   7.808
 1777POPC   C1B25051   8.110  28.682   8.819
 1777POPC   C2B25052   7.948  28.676   8.411
 1777POPC   C3B25053   8.169  28.589   8.035
 1777POPC   C4B25054   8.010  28.597   7.611
 1778POPC   NC325055  17.270  25.985   9.431
 1778POPC   PO425056  16.742  25.594   9.385
 1778POPC   GL125057  16.735  25.961   9.080
 1778POPC   GL225058  17.074  26.065   8.980
 1778POPC   C1A25059  16.668  26.228   8.714
 1778POPC   D2A25060  16.502  26.220   8.296
 1778POPC   C3A25061  16.734  26.300   7.912
 1778POPC   C4A25062  17.018  26.412   7.522
 1778POPC   C1B25063  17.057  25.646   8.846
 1778POPC   C2B25064  16.805  25.627   8.519
 1778POPC   C3B25065  16.879  25.898   8.182
 1778POPC   C4B25066  16.947  25.853   7.746
 1779POPC   NC325067  10.755  39.488   9.363
 1779POPC   PO425068  11.388  39.193   9.557
 1779POPC   GL125069  11.436  39.293   9.128
 1779POPC   GL225070  11.093  39.309   9.057
 1779POPC   C1A25071  11.380  39.181   8.674
 1779POPC   D2A25072  11.633  39.013   8.344
 1779POPC   C3A25073  11.399  39.052   7.974
 1779POPC   C4A25074  11.545  39.442   7.734
 1779POPC   C1B25075  10.988  39.641   8.753
 1779POPC   C2B25076  11.148  39.541   8.356
 1779POPC   C3B25077  11.092  39.455   7.938
 1779POPC   C4B25078  11.093  39.502   7.477
 1780POPC   NC325079  43.397  38.907   9.525
 1780POPC   PO425080  42.872  39.342   9.482
 1780POPC   GL125081  43.145  39.281   9.107
 1780POPC   GL225082  43.419  39.017   9.038
 1780POPC   C1A25083  42.952  39.352   8.699
 1780POPC   D2A25084  42.817  39.236   8.275
 1780POPC   C3A25085  43.090  39.393   7.921
 1780POPC   C4A25086  43.567  39.337   7.912
 1780POPC   C1B25087  43.261  38.960   8.675
 1780POPC   C2B25088  43.298  39.052   8.268
 1780POPC   C3B25089  43.082  38.890   7.920
 1780POPC   C4B25090  43.266  39.020   7.577
 1781POPC   NC325091  43.591  29.687   9.546
 1781POPC   PO425092  44.111  30.104   9.595
 1781POPC   GL125093  43.970  29.851   9.246
 1781POPC   GL225094  43.623  30.041   9.190
 1781POPC   C1A25095  44.178  29.759   8.854
 1781POPC   D2A25096  44.083  29.830   8.413
 1781POPC   C3A25097  43.982  29.613   8.005
 1781POPC   C4A25098  44.291  29.867   7.852
 1781POPC   C1B25099  43.632  29.704   8.873
 1781POPC   C2B25100  43.568  29.752   8.439
 1781POPC   C3B25101  43.687  30.029   8.103
 1781POPC   C4B25102  43.554  29.937   7.695
 1782POPC   NC325103  13.395  17.234   9.670
 1782POPC   PO425104  12.765  17.185   9.544
 1782POPC   GL125105  12.926  17.386   9.174
 1782POPC   GL225106  13.229  17.194   9.163
 1782POPC   C1A25107  12.783  17.542   8.751
 1782POPC   D2A25108  12.779  17.285   8.333
 1782POPC   C3A25109  12.781  17.587   7.998
 1782POPC   C4A25110  12.612  17.807   7.618
 1782POPC   C1B25111  13.084  17.145   8.726
 1782POPC   C2B25112  13.239  17.053   8.311
 1782POPC   C3B25113  13.081  17.159   7.917
 1782POPC   C4B25114  12.676  17.209   7.701
 1783POPC   NC325115   5.757  19.114   9.523
 1783POPC   PO425116   6.083  18.643   9.741
 1783POPC   GL125117   6.122  18.902   9.258
 1783POPC   GL225118   6.201  19.248   9.301
 1783POPC   C1A25119   5.819  18.925   8.877
 1783POPC   D2A25120   5.817  18.763   8.458
 1783POPC   C3A25121   5.886  18.956   8.075
 1783POPC   C4A25122   5.672  19.199   7.742
 1783POPC   C1B25123   6.172  19.280   8.854
 1783POPC   C2B25124   5.904  19.298   8.480
 1783POPC   C3B25125   5.949  19.461   8.067
 1783POPC   C4B25126   6.160  19.306   7.690
 1784POPC   NC325127  38.648  10.088   9.471
 1784POPC   PO425128  38.122   9.849   9.555
 1784POPC   GL125129  38.383   9.754   9.167
 1784POPC   GL225130  38.784   9.676   9.179
 1784POPC   C1A25131  38.320   9.915   8.733
 1784POPC   D2A25132  38.491  10.138   8.346
 1784POPC   C3A25133  38.266  10.096   7.952
 1784POPC   C4A25134  38.187   9.645   7.884
 1784POPC   C1B25135  38.826   9.870   8.734
 1784POPC   C2B25136  38.834   9.728   8.321
 1784POPC   C3B25137  38.721   9.866   7.932
 1784POPC   C4B25138  38.852   9.843   7.534
 1785POPC   NC325139  27.945  43.566   9.523
 1785POPC   PO425140  27.350  43.159   9.566
 1785POPC   GL125141  27.534  43.198   9.181
 1785POPC   GL225142  27.222  43.264   9.070
 1785POPC   C1A25143  27.764  43.010   8.820
 1785POPC   D2A25144  28.018  43.058   8.456
 1785POPC   C3A25145  27.877  42.763   8.163
 1785POPC   C4A25146  27.665  43.027   7.896
 1785POPC   C1B25147  27.249  42.974   8.756
 1785POPC   C2B25148  27.473  43.071   8.397
 1785POPC   C3B25149  27.293  43.345   8.133
 1785POPC   C4B25150  27.176  43.111   7.809
 1786POPC   NC325151  23.017   2.481   9.454
 1786POPC   PO425152  22.947   1.844   9.687
 1786POPC   GL125153  22.882   1.998   9.270
 1786POPC   GL225154  23.199   1.968   9.197
 1786POPC   C1A25155  22.844   2.044   8.794
 1786POPC   D2A25156  22.826   1.941   8.315
 1786POPC   C3A25157  22.678   2.221   7.973
 1786POPC   C4A25158  22.792   2.275   7.529
 1786POPC   C1B25159  23.385   1.978   8.810
 1786POPC   C2B25160  23.344   2.279   8.540
 1786POPC   C3B25161  23.355   2.060   8.188
 1786POPC   C4B25162  23.130   2.003   7.844
 1787POPC   NC325163   7.834  40.364   9.583
 1787POPC   PO425164   7.828  39.671   9.601
 1787POPC   GL125165   7.977  39.690   9.186
 1787POPC   GL225166   8.235  39.914   9.122
 1787POPC   C1A25167   7.907  39.573   8.790
 1787POPC   D2A25168   8.086  39.860   8.524
 1787POPC   C3A25169   8.017  39.786   8.114
 1787POPC   C4A25170   8.216  40.070   7.814
 1787POPC   C1B25171   8.301  40.250   8.807
 1787POPC   C2B25172   8.236  40.341   8.358
 1787POPC   C3B25173   8.527  40.431   8.031
 1787POPC   C4B25174   8.760  40.395   7.659
 1788POPC   NC325175   3.421  24.892   9.295
 1788POPC   PO425176   3.842  25.249   9.573
 1788POPC   GL125177   3.633  25.444   9.232
 1788POPC   GL225178   3.331  25.369   9.082
 1788POPC   C1A25179   3.699  25.282   8.773
 1788POPC   D2A25180   3.441  25.110   8.454
 1788POPC   C3A25181   3.658  24.938   8.106
 1788POPC   C4A25182   3.643  25.102   7.683
 1788POPC   C1B25183   3.234  25.574   8.691
 1788POPC   C2B25184   3.245  25.546   8.236
 1788POPC   C3B25185   3.221  25.184   7.988
 1788POPC   C4B25186   3.036  24.854   7.778
 1789POPC   NC325187   1.269   6.076   9.815
 1789POPC   PO425188   1.600   6.589   9.451
 1789POPC   GL125189   1.433   6.734   9.088
 1789POPC   GL225190   1.061   6.690   9.134
 1789POPC   C1A25191   1.327   6.659   8.675
 1789POPC   D2A25192   1.088   6.824   8.352
 1789POPC   C3A25193   1.373   6.826   8.038
 1789POPC   C4A25194   1.198   6.690   7.686
 1789POPC   C1B25195   0.812   6.606   8.760
 1789POPC   C2B25196   0.818   6.395   8.355
 1789POPC   C3B25197   0.994   6.304   7.961
 1789POPC   C4B25198   0.780   6.397   7.564
 1790POPC   NC325199  37.263  10.485   9.877
 1790POPC   PO425200  36.753  10.405   9.452
 1790POPC   GL125201  36.807  10.651   9.070
 1790POPC   GL225202  36.493  10.769   8.938
 1790POPC   C1A25203  36.863  10.733   8.591
 1790POPC   D2A25204  36.750  10.840   8.153
 1790POPC   C3A25205  36.851  10.525   7.826
 1790POPC   C4A25206  36.591  10.309   7.503
 1790POPC   C1B25207  36.550  10.351   8.720
 1790POPC   C2B25208  36.686  10.273   8.265
 1790POPC   C3B25209  36.836  10.014   7.857
 1790POPC   C4B25210  36.712   9.822   7.408
 1791POPC   NC325211  24.820  41.488   9.536
 1791POPC   PO425212  24.583  42.150   9.666
 1791POPC   GL125213  24.676  41.891   9.244
 1791POPC   GL225214  24.500  41.574   9.154
 1791POPC   C1A25215  24.678  41.810   8.763
 1791POPC   D2A25216  24.409  41.531   8.452
 1791POPC   C3A25217  24.501  41.704   8.065
 1791POPC   C4A25218  24.871  41.955   8.043
 1791POPC   C1B25219  24.684  41.310   8.840
 1791POPC   C2B25220  24.897  41.366   8.423
 1791POPC   C3B25221  24.694  41.249   8.054
 1791POPC   C4B25222  24.581  41.382   7.655
 1792POPC   NC325223   3.550   8.478   9.434
 1792POPC   PO425224   3.641   9.050   9.603
 1792POPC   GL125225   3.462   8.982   9.215
 1792POPC   GL225226   3.143   9.190   9.192
 1792POPC   C1A25227   3.494   8.722   8.859
 1792POPC   D2A25228   3.430   8.522   8.525
 1792POPC   C3A25229   3.551   8.784   8.217
 1792POPC   C4A25230   3.577   8.686   7.808
 1792POPC   C1B25231   3.364   9.248   8.779
 1792POPC   C2B25232   3.358   9.356   8.335
 1792POPC   C3B25233   3.374   9.179   7.906
 1792POPC   C4B25234   3.175   9.389   7.566
 1793POPC   NC325235  19.420   8.277   9.535
 1793POPC   PO425236  18.799   8.497   9.438
 1793POPC   GL125237  19.079   8.397   9.123
 1793POPC   GL225238  19.230   8.062   9.077
 1793POPC   C1A25239  19.100   8.416   8.689
 1793POPC   D2A25240  19.234   8.040   8.466
 1793POPC   C3A25241  19.290   8.059   8.018
 1793POPC   C4A25242  19.364   7.737   7.712
 1793POPC   C1B25243  18.826   8.002   8.857
 1793POPC   C2B25244  18.736   8.125   8.442
 1793POPC   C3B25245  18.940   8.410   8.186
 1793POPC   C4B25246  19.009   8.485   7.779
 1794POPC   NC325247  41.221  24.012   9.337
 1794POPC   PO425248  40.802  24.478   9.610
 1794POPC   GL125249  40.792  24.592   9.186
 1794POPC   GL225250  40.554  24.333   9.092
 1794POPC   C1A25251  40.768  24.686   8.767
 1794POPC   D2A25252  40.951  24.513   8.404
 1794POPC   C3A25253  40.886  24.701   8.005
 1794POPC   C4A25254  41.184  24.733   7.645
 1794POPC   C1B25255  40.639  24.198   8.675
 1794POPC   C2B25256  40.406  24.154   8.294
 1794POPC   C3B25257  40.495  24.203   7.871
 1794POPC   C4B25258  40.879  24.332   7.663
 1795POPC   NC325259   8.307  39.658   9.560
 1795POPC   PO425260   8.067  38.956   9.673
 1795POPC   GL125261   8.277  38.950   9.259
 1795POPC   GL225262   8.324  39.296   9.204
 1795POPC   C1A25263   8.144  39.021   8.812
 1795POPC   D2A25264   7.946  39.182   8.438
 1795POPC   C3A25265   8.129  39.185   8.028
 1795POPC   C4A25266   8.146  39.475   7.707
 1795POPC   C1B25267   8.398  39.489   8.825
 1795POPC   C2B25268   8.386  39.464   8.398
 1795POPC   C3B25269   8.494  39.657   8.012
 1795POPC   C4B25270   8.598  39.776   7.595
 1796POPC   NC325271  22.641  27.643   9.611
 1796POPC   PO425272  23.052  27.067   9.609
 1796POPC   GL125273  22.972  27.355   9.283
 1796POPC   GL225274  23.097  27.709   9.262
 1796POPC   C1A25275  22.982  27.395   8.860
 1796POPC   D2A25276  22.901  27.579   8.525
 1796POPC   C3A25277  22.901  27.398   8.168
 1796POPC   C4A25278  22.809  27.496   7.771
 1796POPC   C1B25279  22.920  27.936   8.901
 1796POPC   C2B25280  22.962  28.069   8.477
 1796POPC   C3B25281  22.823  27.900   8.104
 1796POPC   C4B25282  22.839  28.017   7.704
 1797POPC   NC325283  28.716  13.522   9.486
 1797POPC   PO425284  28.089  13.354   9.466
 1797POPC   GL125285  28.337  13.404   9.094
 1797POPC   GL225286  28.624  13.180   9.075
 1797POPC   C1A25287  28.213  13.574   8.690
 1797POPC   D2A25288  28.102  13.831   8.315
 1797POPC   C3A25289  28.365  13.801   7.935
 1797POPC   C4A25290  28.535  13.737   7.477
 1797POPC   C1B25291  28.704  13.376   8.689
 1797POPC   C2B25292  28.840  13.379   8.235
 1797POPC   C3B25293  28.556  13.338   7.835
 1797POPC   C4B25294  28.667  13.242   7.391
 1798POPC   NC325295  26.626  22.739   9.870
 1798POPC   PO425296  26.822  22.173   9.589
 1798POPC   GL125297  26.578  22.121   9.167
 1798POPC   GL225298  26.648  22.385   8.895
 1798POPC   C1A25299  26.631  21.905   8.751
 1798POPC   D2A25300  26.947  21.933   8.431
 1798POPC   C3A25301  26.783  22.134   8.103
 1798POPC   C4A25302  26.722  22.030   7.690
 1798POPC   C1B25303  26.894  22.641   8.618
 1798POPC   C2B25304  27.196  22.447   8.330
 1798POPC   C3B25305  27.194  22.445   7.914
 1798POPC   C4B25306  26.811  22.528   7.794
 1799POPC   NC325307  43.687  35.537   9.547
 1799POPC   PO425308  43.104  35.147   9.567
 1799POPC   GL125309  42.964  35.558   9.376
 1799POPC   GL225310  43.295  35.677   9.233
 1799POPC   C1A25311  42.808  35.628   8.961
 1799POPC   D2A25312  42.926  35.354   8.623
 1799POPC   C3A25313  42.996  35.525   8.220
 1799POPC   C4A25314  42.962  35.451   7.808
 1799POPC   C1B25315  43.395  35.499   8.828
 1799POPC   C2B25316  43.410  35.252   8.445
 1799POPC   C3B25317  43.310  35.138   8.033
 1799POPC   C4B25318  43.401  35.224   7.613
 1800POPC   NC325319  42.563  38.971   9.491
 1800POPC   PO425320  42.075  39.480   9.459
 1800POPC   GL125321  42.369  39.347   9.103
 1800POPC   GL225322  42.399  38.997   9.027
 1800POPC   C1A25323  42.436  39.348   8.639
 1800POPC   D2A25324  42.157  39.445   8.274
 1800POPC   C3A25325  42.120  39.216   7.841
 1800POPC   C4A25326  42.015  39.131   7.366
 1800POPC   C1B25327  42.259  38.847   8.669
 1800POPC   C2B25328  42.375  38.979   8.269
 1800POPC   C3B25329  42.578  38.956   7.892
 1800POPC   C4B25330  42.353  38.819   7.569
 1801POPC   NC325331   2.613   1.406   9.416
 1801POPC   PO425332   2.868   0.704   9.537
 1801POPC   GL125333   2.739   0.938   9.199
 1801POPC   GL225334   3.012   1.145   9.183
 1801POPC   C1A25335   2.671   1.132   8.790
 1801POPC   D2A25336   2.858   1.162   8.408
 1801POPC   C3A25337   2.564   1.161   8.093
 1801POPC   C4A25338   2.586   0.971   7.706
 1801POPC   C1B25339   3.128   1.406   8.825
 1801POPC   C2B25340   3.054   1.638   8.458
 1801POPC   C3B25341   3.123   1.588   8.015
 1801POPC   C4B25342   2.807   1.435   7.740
 1802POPC   NC325343  19.305   9.797   9.467
 1802POPC   PO425344  18.695   9.987   9.180
 1802POPC   GL125345  18.938   9.676   9.037
 1802POPC   GL225346  19.212   9.813   8.981
 1802POPC   C1A25347  18.879   9.372   8.708
 1802POPC   D2A25348  19.088   9.372   8.315
 1802POPC   C3A25349  18.991   9.756   8.090
 1802POPC   C4A25350  18.769   9.615   7.773
 1802POPC   C1B25351  19.150   9.809   8.580
 1802POPC   C2B25352  19.466   9.740   8.311
 1802POPC   C3B25353  19.482   9.882   7.946
 1802POPC   C4B25354  19.215   9.778   7.590
 1803POPC   NC325355  14.213  21.061   9.562
 1803POPC   PO425356  14.868  21.305   9.521
 1803POPC   GL125357  14.621  21.298   9.123
 1803POPC   GL225358  14.329  21.049   9.078
 1803POPC   C1A25359  14.661  21.503   8.716
 1803POPC   D2A25360  14.829  21.705   8.324
 1803POPC   C3A25361  14.662  21.525   7.955
 1803POPC   C4A25362  14.299  21.223   7.869
 1803POPC   C1B25363  14.198  21.267   8.755
 1803POPC   C2B25364  14.172  21.114   8.363
 1803POPC   C3B25365  13.924  20.920   8.071
 1803POPC   C4B25366  13.809  21.138   7.696
 1804POPC   NC325367  38.282  39.169   9.639
 1804POPC   PO425368  38.919  39.105   9.362
 1804POPC   GL125369  38.504  39.213   9.171
 1804POPC   GL225370  38.417  39.547   9.021
 1804POPC   C1A25371  38.249  39.115   8.804
 1804POPC   D2A25372  38.380  39.070   8.381
 1804POPC   C3A25373  38.309  39.388   8.088
 1804POPC   C4A25374  38.068  39.249   7.747
 1804POPC   C1B25375  38.722  39.338   8.723
 1804POPC   C2B25376  38.972  39.518   8.403
 1804POPC   C3B25377  38.785  39.763   8.106
 1804POPC   C4B25378  38.611  39.719   7.743
 1805POPC   NC325379  10.634  16.639   9.493
 1805POPC   PO425380  10.499  17.295   9.589
 1805POPC   GL125381  10.401  17.018   9.204
 1805POPC   GL225382  10.385  16.630   9.058
 1805POPC   C1A25383  10.462  17.032   8.776
 1805POPC   D2A25384  10.547  16.763   8.451
 1805POPC   C3A25385  10.463  16.925   8.054
 1805POPC   C4A25386  10.782  16.811   7.743
 1805POPC   C1B25387  10.097  16.683   8.717
 1805POPC   C2B25388  10.125  16.464   8.365
 1805POPC   C3B25389  10.361  16.435   8.050
 1805POPC   C4B25390  10.316  16.606   7.677
 1806POPC   NC325391  32.421  28.388   9.464
 1806POPC   PO425392  31.781  28.516   9.307
 1806POPC   GL125393  32.127  28.459   9.021
 1806POPC   GL225394  32.259  28.117   9.060
 1806POPC   C1A25395  32.192  28.592   8.585
 1806POPC   D2A25396  31.983  28.392   8.242
 1806POPC   C3A25397  32.192  28.444   7.890
 1806POPC   C4A25398  32.456  28.796   7.855
 1806POPC   C1B25399  32.208  28.075   8.634
 1806POPC   C2B25400  32.453  28.195   8.271
 1806POPC   C3B25401  32.478  28.009   7.850
 1806POPC   C4B25402  32.130  27.972   7.550
 1807POPC   NC325403  41.014  11.138   9.346
 1807POPC   PO425404  40.536  11.439   9.694
 1807POPC   GL125405  40.630  11.516   9.201
 1807POPC   GL225406  40.980  11.572   9.095
 1807POPC   C1A25407  40.580  11.371   8.738
 1807POPC   D2A25408  40.818  11.227   8.348
 1807POPC   C3A25409  40.639  11.243   7.904
 1807POPC   C4A25410  40.520  11.100   7.436
 1807POPC   C1B25411  40.941  11.741   8.690
 1807POPC   C2B25412  40.745  11.730   8.283
 1807POPC   C3B25413  40.939  11.679   7.883
 1807POPC   C4B25414  40.851  11.521   7.481
 1808POPC   NC325415  25.099  15.617   9.410
 1808POPC   PO425416  25.311  16.242   9.527
 1808POPC   GL125417  25.329  16.078   9.135
 1808POPC   GL225418  25.020  15.934   8.979
 1808POPC   C1A25419  25.467  15.998   8.726
 1808POPC   D2A25420  25.139  16.026   8.439
 1808POPC   C3A25421  25.282  16.013   8.051
 1808POPC   C4A25422  25.469  15.884   7.689
 1808POPC   C1B25423  25.084  15.563   8.682
 1808POPC   C2B25424  25.049  15.550   8.215
 1808POPC   C3B25425  24.991  15.683   7.803
 1808POPC   C4B25426  24.965  16.106   7.636
 1809POPC   NC325427  43.318  16.903   9.626
 1809POPC   PO425428  42.824  16.592   9.531
 1809POPC   GL125429  43.087  16.657   9.245
 1809POPC   GL225430  42.946  16.967   9.186
 1809POPC   C1A25431  43.272  16.674   8.863
 1809POPC   D2A25432  43.281  16.879   8.492
 1809POPC   C3A25433  43.240  16.615   8.178
 1809POPC   C4A25434  43.241  16.746   7.753
 1809POPC   C1B25435  42.741  16.723   8.870
 1809POPC   C2B25436  42.721  16.681   8.428
 1809POPC   C3B25437  42.882  16.944   8.105
 1809POPC   C4B25438  42.789  16.928   7.705
 1810POPC   NC325439  33.062  35.830   9.538
 1810POPC   PO425440  33.440  36.476   9.547
 1810POPC   GL125441  33.191  36.219   9.202
 1810POPC   GL225442  32.898  36.014   9.109
 1810POPC   C1A25443  33.226  36.066   8.733
 1810POPC   D2A25444  33.354  35.863   8.350
 1810POPC   C3A25445  33.220  36.132   8.046
 1810POPC   C4A25446  32.819  36.285   7.921
 1810POPC   C1B25447  32.785  35.782   8.746
 1810POPC   C2B25448  32.809  35.929   8.322
 1810POPC   C3B25449  32.865  35.773   7.907
 1810POPC   C4B25450  32.621  35.909   7.549
 1811POPC   NC325451  27.784  10.443   9.353
 1811POPC   PO425452  27.107  10.471   9.480
 1811POPC   GL125453  27.365  10.511   9.048
 1811POPC   GL225454  27.695  10.684   8.934
 1811POPC   C1A25455  27.515  10.341   8.615
 1811POPC   D2A25456  27.536  10.404   8.167
 1811POPC   C3A25457  27.657  10.144   7.836
 1811POPC   C4A25458  28.004  10.021   7.526
 1811POPC   C1B25459  27.937  11.044   8.840
 1811POPC   C2B25460  27.884  11.136   8.432
 1811POPC   C3B25461  27.874  10.785   8.198
 1811POPC   C4B25462  27.746  10.661   7.782
 1812POPC   NC325463  23.332  18.516   9.557
 1812POPC   PO425464  23.995  18.342   9.442
 1812POPC   GL125465  23.802  18.182   9.107
 1812POPC   GL225466  23.508  18.276   9.151
 1812POPC   C1A25467  23.747  18.021   8.744
 1812POPC   D2A25468  24.088  17.958   8.508
 1812POPC   C3A25469  23.943  18.044   8.113
 1812POPC   C4A25470  23.801  17.982   7.707
 1812POPC   C1B25471  23.332  18.320   8.751
 1812POPC   C2B25472  23.561  18.430   8.367
 1812POPC   C3B25473  23.571  18.367   7.912
 1812POPC   C4B25474  23.467  18.319   7.439
 1813POPC   NC325475  17.795  37.204   9.449
 1813POPC   PO425476  17.237  36.716   9.513
 1813POPC   GL125477  17.492  36.792   9.162
 1813POPC   GL225478  17.441  37.135   9.093
 1813POPC   C1A25479  17.479  36.776   8.720
 1813POPC   D2A25480  17.685  36.905   8.363
 1813POPC   C3A25481  17.505  36.687   8.059
 1813POPC   C4A25482  17.612  36.829   7.749
 1813POPC   C1B25483  17.754  37.235   8.759
 1813POPC   C2B25484  17.700  37.415   8.340
 1813POPC   C3B25485  17.635  37.295   7.925
 1813POPC   C4B25486  17.867  37.227   7.545
 1814POPC   NC325487  19.935   4.124   9.564
 1814POPC   PO425488  19.967   4.799   9.363
 1814POPC   GL125489  19.853   4.412   9.139
 1814POPC   GL225490  19.591   4.101   9.188
 1814POPC   C1A25491  20.077   4.307   8.781
 1814POPC   D2A25492  19.942   4.180   8.385
 1814POPC   C3A25493  19.975   4.446   8.048
 1814POPC   C4A25494  19.697   4.495   7.760
 1814POPC   C1B25495  19.691   3.954   8.774
 1814POPC   C2B25496  19.677   3.730   8.370
 1814POPC   C3B25497  19.692   3.965   7.980
 1814POPC   C4B25498  19.909   4.039   7.621
 1815POPC   NC325499  15.285  38.007   9.491
 1815POPC   PO425500  14.862  37.506   9.618
 1815POPC   GL125501  15.113  37.574   9.221
 1815POPC   GL225502  15.348  37.317   9.079
 1815POPC   C1A25503  15.135  37.652   8.756
 1815POPC   D2A25504  15.310  37.690   8.326
 1815POPC   C3A25505  15.027  37.819   7.960
 1815POPC   C4A25506  15.123  37.783   7.518
 1815POPC   C1B25507  15.514  37.112   8.699
 1815POPC   C2B25508  15.503  37.168   8.248
 1815POPC   C3B25509  15.378  37.431   7.882
 1815POPC   C4B25510  15.507  37.475   7.437
 1816POPC   NC325511  33.860  40.520   9.545
 1816POPC   PO425512  33.566  41.137   9.616
 1816POPC   GL125513  33.579  40.882   9.242
 1816POPC   GL225514  33.498  40.525   9.195
 1816POPC   C1A25515  33.804  40.817   8.855
 1816POPC   D2A25516  33.897  41.079   8.513
 1816POPC   C3A25517  34.134  40.975   8.177
 1816POPC   C4A25518  33.843  41.019   7.803
 1816POPC   C1B25519  33.541  40.306   8.830
 1816POPC   C2B25520  33.661  40.509   8.475
 1816POPC   C3B25521  33.835  40.584   8.100
 1816POPC   C4B25522  33.659  40.476   7.764
 1817POPC   NC325523  33.270  41.504   9.602
 1817POPC   PO425524  33.814  41.874   9.507
 1817POPC   GL125525  33.586  41.647   9.209
 1817POPC   GL225526  33.399  41.922   9.134
 1817POPC   C1A25527  33.750  41.456   8.831
 1817POPC   D2A25528  34.048  41.582   8.492
 1817POPC   C3A25529  33.973  41.439   8.095
 1817POPC   C4A25530  34.066  41.490   7.665
 1817POPC   C1B25531  33.338  41.746   8.710
 1817POPC   C2B25532  33.454  41.676   8.254
 1817POPC   C3B25533  33.715  41.816   7.887
 1817POPC   C4B25534  33.664  41.725   7.432
 1818POPC   NC325535  30.720  25.725   9.496
 1818POPC   PO425536  30.430  25.011   9.526
 1818POPC   GL125537  30.508  25.299   9.206
 1818POPC   GL225538  30.823  25.372   9.175
 1818POPC   C1A25539  30.475  25.501   8.790
 1818POPC   D2A25540  30.756  25.423   8.408
 1818POPC   C3A25541  30.580  25.393   7.995
 1818POPC   C4A25542  30.517  25.153   7.609
 1818POPC   C1B25543  30.830  25.142   8.814
 1818POPC   C2B25544  31.131  25.089   8.463
 1818POPC   C3B25545  30.909  25.005   8.068
 1818POPC   C4B25546  31.001  25.131   7.663
 1819POPC   NC325547   8.030  20.964   9.590
 1819POPC   PO425548   8.547  20.504   9.456
 1819POPC   GL125549   8.314  20.425   9.108
 1819POPC   GL225550   8.056  20.668   9.154
 1819POPC   C1A25551   8.146  20.267   8.738
 1819POPC   D2A25552   7.887  20.202   8.390
 1819POPC   C3A25553   8.085  20.430   8.067
 1819POPC   C4A25554   8.261  20.200   7.720
 1819POPC   C1B25555   8.112  20.799   8.724
 1819POPC   C2B25556   8.348  20.910   8.349
 1819POPC   C3B25557   8.205  20.942   7.964
 1819POPC   C4B25558   8.112  20.685   7.610
 1820POPC   NC325559  18.029  18.301   9.447
 1820POPC   PO425560  17.574  17.864   9.534
 1820POPC   GL125561  17.545  18.146   9.191
 1820POPC   GL225562  17.212  18.062   9.111
 1820POPC   C1A25563  17.539  18.376   8.770
 1820POPC   D2A25564  17.398  18.253   8.343
 1820POPC   C3A25565  17.627  18.427   7.987
 1820POPC   C4A25566  17.693  18.785   7.673
 1820POPC   C1B25567  17.316  17.923   8.725
 1820POPC   C2B25568  17.428  17.703   8.356
 1820POPC   C3B25569  17.421  17.877   7.935
 1820POPC   C4B25570  17.133  18.222   7.904
 1821POPC   NC325571   2.392   0.631   9.478
 1821POPC   PO425572   1.811   0.666   9.739
 1821POPC   GL125573   1.942   0.434   9.312
 1821POPC   GL225574   1.973   0.707   9.131
 1821POPC   C1A25575   2.169   0.309   8.852
 1821POPC   D2A25576   2.343   0.396   8.384
 1821POPC   C3A25577   2.170   0.209   7.940
 1821POPC   C4A25578   2.096   0.491   7.547
 1821POPC   C1B25579   1.816   0.891   8.773
 1821POPC   C2B25580   1.918   0.791   8.353
 1821POPC   C3B25581   2.185   0.758   8.000
 1821POPC   C4B25582   2.089   0.983   7.623
 1822POPC   NC325583   6.428   2.676   9.359
 1822POPC   PO425584   6.960   3.012   9.356
 1822POPC   GL125585   6.800   2.783   9.013
 1822POPC   GL225586   6.822   2.415   8.984
 1822POPC   C1A25587   6.915   2.703   8.569
 1822POPC   D2A25588   6.636   2.537   8.249
 1822POPC   C3A25589   6.718   2.670   7.929
 1822POPC   C4A25590   6.691   3.049   7.831
 1822POPC   C1B25591   6.461   2.472   8.710
 1822POPC   C2B25592   6.176   2.359   8.360
 1822POPC   C3B25593   6.111   2.693   8.011
 1822POPC   C4B25594   6.334   2.734   7.594
 1823POPC   NC325595  10.411  42.036   9.619
 1823POPC   PO425596  10.592  41.368   9.576
 1823POPC   GL125597  10.394  41.385   9.174
 1823POPC   GL225598  10.390  41.738   9.187
 1823POPC   C1A25599  10.325  41.366   8.712
 1823POPC   D2A25600  10.591  41.493   8.372
 1823POPC   C3A25601  10.488  41.613   7.963
 1823POPC   C4A25602  10.391  41.702   7.507
 1823POPC   C1B25603  10.488  41.837   8.759
 1823POPC   C2B25604  10.257  41.970   8.369
 1823POPC   C3B25605  10.375  42.115   7.933
 1823POPC   C4B25606  10.764  41.998   7.749
 1824POPC   NC325607  25.341  44.340   9.466
 1824POPC   PO425608  24.869  44.796   9.617
 1824POPC   GL125609  24.957  44.934   9.122
 1824POPC   GL225610  25.252  44.697   9.056
 1824POPC   C1A25611  25.048  44.900   8.639
 1824POPC   D2A25612  25.423  44.804   8.365
 1824POPC   C3A25613  25.265  44.725   7.971
 1824POPC   C4A25614  24.840  44.640   7.862
 1824POPC   C1B25615  25.083  44.386   8.748
 1824POPC   C2B25616  25.110  44.368   8.290
 1824POPC   C3B25617  25.170  44.252   7.829
 1824POPC   C4B25618  24.857  44.174   7.477
 1825POPC   NC325619  26.643  35.026   9.815
 1825POPC   PO425620  26.810  35.581   9.509
 1825POPC   GL125621  26.691  35.467   9.111
 1825POPC   GL225622  26.808  35.122   9.188
 1825POPC   C1A25623  26.695  35.705   8.695
 1825POPC   D2A25624  26.694  35.483   8.295
 1825POPC   C3A25625  26.776  35.549   7.860
 1825POPC   C4A25626  26.803  35.711   7.443
 1825POPC   C1B25627  27.171  35.313   8.925
 1825POPC   C2B25628  27.154  35.518   8.547
 1825POPC   C3B25629  27.283  35.515   8.141
 1825POPC   C4B25630  27.200  35.267   7.784
 1826POPC   NC325631   4.509   4.156   9.514
 1826POPC   PO425632   3.869   4.014   9.648
 1826POPC   GL125633   4.159   3.990   9.173
 1826POPC   GL225634   4.532   4.201   9.028
 1826POPC   C1A25635   4.298   3.923   8.709
 1826POPC   D2A25636   4.099   3.957   8.341
 1826POPC   C3A25637   4.428   3.975   8.073
 1826POPC   C4A25638   4.453   4.112   7.702
 1826POPC   C1B25639   4.324   4.441   8.695
 1826POPC   C2B25640   4.397   4.429   8.306
 1826POPC   C3B25641   4.499   4.676   8.012
 1826POPC   C4B25642   4.357   4.632   7.612
 1827POPC   NC325643  18.185  27.509   9.482
 1827POPC   PO425644  18.837  27.715   9.362
 1827POPC   GL125645  18.574  27.519   9.112
 1827POPC   GL225646  18.309  27.772   9.052
 1827POPC   C1A25647  18.617  27.592   8.686
 1827POPC   D2A25648  18.354  27.664   8.369
 1827POPC   C3A25649  18.570  27.720   8.001
 1827POPC   C4A25650  18.422  27.756   7.612
 1827POPC   C1B25651  18.117  27.441   8.793
 1827POPC   C2B25652  17.959  27.350   8.356
 1827POPC   C3B25653  18.056  27.515   7.914
 1827POPC   C4B25654  17.943  27.360   7.476
 1828POPC   NC325655  37.060  42.119   9.553
 1828POPC   PO425656  36.411  42.334   9.602
 1828POPC   GL125657  36.679  42.344   9.256
 1828POPC   GL225658  36.812  42.029   9.135
 1828POPC   C1A25659  36.653  42.383   8.804
 1828POPC   D2A25660  36.965  42.373   8.486
 1828POPC   C3A25661  36.832  42.515   8.068
 1828POPC   C4A25662  36.465  42.424   7.860
 1828POPC   C1B25663  37.106  41.913   8.800
 1828POPC   C2B25664  37.277  41.995   8.402
 1828POPC   C3B25665  37.050  42.053   8.031
 1828POPC   C4B25666  37.163  41.929   7.637
 1829POPC   NC325667  34.073  11.409   9.597
 1829POPC   PO425668  33.461  11.418   9.443
 1829POPC   GL125669  33.667  11.173   9.127
 1829POPC   GL225670  34.014  11.131   9.153
 1829POPC   C1A25671  33.765  11.092   8.703
 1829POPC   D2A25672  33.528  11.237   8.368
 1829POPC   C3A25673  33.698  11.239   7.969
 1829POPC   C4A25674  33.488  11.297   7.559
 1829POPC   C1B25675  34.126  11.451   8.829
 1829POPC   C2B25676  34.044  11.561   8.429
 1829POPC   C3B25677  34.242  11.628   8.034
 1829POPC   C4B25678  34.117  11.383   7.698
 1830POPC   NC325679  26.743   7.193   9.532
 1830POPC   PO425680  27.220   7.818   9.466
 1830POPC   GL125681  26.935   7.544   9.167
 1830POPC   GL225682  26.652   7.281   9.046
 1830POPC   C1A25683  26.952   7.539   8.708
 1830POPC   D2A25684  27.048   7.289   8.332
 1830POPC   C3A25685  26.989   7.517   7.915
 1830POPC   C4A25686  27.119   7.679   7.484
 1830POPC   C1B25687  26.588   7.199   8.603
 1830POPC   C2B25688  26.533   7.380   8.175
 1830POPC   C3B25689  26.379   7.202   7.793
 1830POPC   C4B25690  26.312   7.125   7.299
 1831POPC   NC325691  34.386  42.818   9.509
 1831POPC   PO425692  34.845  43.240   9.483
 1831POPC   GL125693  34.707  42.971   9.148
 1831POPC   GL225694  34.405  43.127   9.118
 1831POPC   C1A25695  34.510  42.809   8.739
 1831POPC   D2A25696  34.537  42.644   8.297
 1831POPC   C3A25697  34.572  42.971   7.973
 1831POPC   C4A25698  34.290  43.152   7.682
 1831POPC   C1B25699  34.296  43.299   8.763
 1831POPC   C2B25700  34.293  43.192   8.351
 1831POPC   C3B25701  34.335  43.502   8.054
 1831POPC   C4B25702  34.139  43.639   7.702
 1832POPC   NC325703  33.353  37.788   9.330
 1832POPC   PO425704  34.039  37.665   9.451
 1832POPC   GL125705  33.819  37.678   9.088
 1832POPC   GL225706  33.867  38.019   9.033
 1832POPC   C1A25707  33.971  37.611   8.672
 1832POPC   D2A25708  33.986  37.372   8.297
 1832POPC   C3A25709  34.027  37.615   7.923
 1832POPC   C4A25710  34.117  37.529   7.477
 1832POPC   C1B25711  33.602  37.961   8.660
 1832POPC   C2B25712  33.694  37.816   8.264
 1832POPC   C3B25713  33.528  37.832   7.870
 1832POPC   C4B25714  33.220  38.127   7.750
 1833POPC   NC325715   2.585  21.649   9.825
 1833POPC   PO425716   2.902  21.086   9.675
 1833POPC   GL125717   2.800  21.180   9.212
 1833POPC   GL225718   2.438  21.158   9.160
 1833POPC   C1A25719   2.868  21.487   8.841
 1833POPC   D2A25720   2.741  21.728   8.461
 1833POPC   C3A25721   2.937  21.642   8.083
 1833POPC   C4A25722   2.785  21.343   7.741
 1833POPC   C1B25723   2.416  21.276   8.737
 1833POPC   C2B25724   2.648  21.223   8.341
 1833POPC   C3B25725   3.042  21.155   8.138
 1833POPC   C4B25726   3.218  21.039   7.753
 1834POPC   NC325727   7.627  29.229   9.446
 1834POPC   PO425728   7.026  29.448   9.604
 1834POPC   GL125729   7.247  29.266   9.108
 1834POPC   GL225730   7.591  29.306   8.952
 1834POPC   C1A25731   7.324  28.935   8.746
 1834POPC   D2A25732   7.583  29.035   8.368
 1834POPC   C3A25733   7.424  28.912   7.942
 1834POPC   C4A25734   7.156  28.907   7.538
 1834POPC   C1B25735   7.675  29.527   8.593
 1834POPC   C2B25736   7.894  29.504   8.235
 1834POPC   C3B25737   7.676  29.596   7.912
 1834POPC   C4B25738   7.411  29.330   7.651
 1835POPC   NC325739  33.701  25.159   9.471
 1835POPC   PO425740  34.056  25.703   9.230
 1835POPC   GL125741  33.957  25.358   9.038
 1835POPC   GL225742  33.997  25.001   9.062
 1835POPC   C1A25743  33.642  25.305   8.756
 1835POPC   D2A25744  33.402  25.024   8.543
 1835POPC   C3A25745  33.545  25.127   8.155
 1835POPC   C4A25746  33.747  25.372   7.840
 1835POPC   C1B25747  34.124  25.083   8.632
 1835POPC   C2B25748  34.076  25.132   8.183
 1835POPC   C3B25749  33.894  24.896   7.847
 1835POPC   C4B25750  34.063  24.738   7.441
 1836POPC   NC325751  35.936  39.955   9.473
 1836POPC   PO425752  36.494  39.816   9.304
 1836POPC   GL125753  36.455  39.992   8.936
 1836POPC   GL225754  36.197  40.181   9.102
 1836POPC   C1A25755  36.398  39.950   8.493
 1836POPC   D2A25756  36.066  39.689   8.289
 1836POPC   C3A25757  36.095  39.708   7.854
 1836POPC   C4A25758  36.453  39.941   7.666
 1836POPC   C1B25759  36.096  40.325   8.742
 1836POPC   C2B25760  35.920  40.205   8.402
 1836POPC   C3B25761  36.166  40.158   8.075
 1836POPC   C4B25762  35.988  40.197   7.700
 1837POPC   NC325763  16.723  38.849   9.406
 1837POPC   PO425764  17.056  38.311   9.318
 1837POPC   GL125765  16.610  38.314   9.097
 1837POPC   GL225766  16.394  38.643   9.075
 1837POPC   C1A25767  16.379  38.335   8.670
 1837POPC   D2A25768  16.389  38.619   8.302
 1837POPC   C3A25769  16.637  38.392   8.050
 1837POPC   C4A25770  16.774  38.318   7.665
 1837POPC   C1B25771  16.755  38.686   8.755
 1837POPC   C2B25772  16.916  38.739   8.332
 1837POPC   C3B25773  17.041  38.703   7.889
 1837POPC   C4B25774  16.917  38.799   7.425
 1838POPC   NC325775  32.759  16.088   9.390
 1838POPC   PO425776  33.355  16.179   9.754
 1838POPC   GL125777  33.413  16.021   9.259
 1838POPC   GL225778  33.172  15.797   9.219
 1838POPC   C1A25779  33.307  16.134   8.762
 1838POPC   D2A25780  33.344  16.241   8.311
 1838POPC   C3A25781  33.136  16.362   7.924
 1838POPC   C4A25782  33.249  16.226   7.465
 1838POPC   C1B25783  33.146  15.632   8.809
 1838POPC   C2B25784  32.942  15.863   8.466
 1838POPC   C3B25785  32.863  15.940   8.033
 1838POPC   C4B25786  33.220  15.854   7.805
 1839POPC   NC325787  24.235  19.793   9.536
 1839POPC   PO425788  24.862  19.584   9.603
 1839POPC   GL125789  24.650  19.617   9.183
 1839POPC   GL225790  24.308  19.655   9.061
 1839POPC   C1A25791  24.820  19.606   8.773
 1839POPC   D2A25792  24.654  19.691   8.376
 1839POPC   C3A25793  24.922  19.709   8.075
 1839POPC   C4A25794  24.727  19.739   7.723
 1839POPC   C1B25795  24.346  19.405   8.705
 1839POPC   C2B25796  24.325  19.294   8.294
 1839POPC   C3B25797  24.264  19.575   7.981
 1839POPC   C4B25798  24.269  19.936   7.851
 1840POPC   NC325799  17.711  30.911   9.833
 1840POPC   PO425800  18.382  30.807   9.611
 1840POPC   GL125801  18.122  30.815   9.183
 1840POPC   GL225802  17.972  30.458   9.065
 1840POPC   C1A25803  18.071  30.907   8.744
 1840POPC   D2A25804  17.911  31.112   8.386
 1840POPC   C3A25805  18.054  31.002   7.969
 1840POPC   C4A25806  18.117  31.180   7.558
 1840POPC   C1B25807  18.285  30.441   8.776
 1840POPC   C2B25808  18.327  30.592   8.364
 1840POPC   C3B25809  18.493  30.491   7.968
 1840POPC   C4B25810  18.492  30.864   7.729
 1841POPC   NC325811   6.780  30.578   9.725
 1841POPC   PO425812   6.284  30.946   9.472
 1841POPC   GL125813   6.460  30.583   9.250
 1841POPC   GL225814   6.227  30.271   9.171
 1841POPC   C1A25815   6.831  30.586   8.976
 1841POPC   D2A25816   7.077  30.487   8.586
 1841POPC   C3A25817   6.883  30.671   8.209
 1841POPC   C4A25818   6.806  30.655   7.771
 1841POPC   C1B25819   6.367  30.430   8.765
 1841POPC   C2B25820   6.412  30.639   8.391
 1841POPC   C3B25821   6.329  30.701   7.961
 1841POPC   C4B25822   6.425  30.927   7.570
 1842POPC   NC325823   5.288  17.160   9.496
 1842POPC   PO425824   4.627  17.366   9.736
 1842POPC   GL125825   4.888  17.402   9.305
 1842POPC   GL225826   5.037  17.706   9.197
 1842POPC   C1A25827   5.068  17.299   8.862
 1842POPC   D2A25828   5.409  17.317   8.498
 1842POPC   C3A25829   5.257  17.304   8.033
 1842POPC   C4A25830   4.907  17.515   7.855
 1842POPC   C1B25831   5.224  17.782   8.793
 1842POPC   C2B25832   5.088  17.712   8.361
 1842POPC   C3B25833   5.302  17.818   7.983
 1842POPC   C4B25834   5.095  17.917   7.621
 1843POPC   NC325835  19.779  44.177   9.566
 1843POPC   PO425836  20.223  43.723   9.649
 1843POPC   GL125837  19.854  43.728   9.308
 1843POPC   GL225838  19.883  44.017   9.095
 1843POPC   C1A25839  19.770  43.626   8.823
 1843POPC   D2A25840  19.982  43.803   8.422
 1843POPC   C3A25841  19.743  43.706   8.018
 1843POPC   C4A25842  19.664  43.643   7.564
 1843POPC   C1B25843  20.069  44.228   8.756
 1843POPC   C2B25844  19.940  44.360   8.368
 1843POPC   C3B25845  20.075  44.135   8.032
 1843POPC   C4B25846  19.926  44.052   7.671
 1844POPC   NC325847  43.843  18.914   9.746
 1844POPC   PO425848  44.288  19.219   9.491
 1844POPC   GL125849  44.031  18.890   9.239
 1844POPC   GL225850  44.257  18.696   9.020
 1844POPC   C1A25851  43.819  18.926   8.801
 1844POPC   D2A25852  43.906  19.007   8.345
 1844POPC   C3A25853  43.657  19.262   8.013
 1844POPC   C4A25854  43.526  19.097   7.600
 1844POPC   C1B25855  44.175  18.584   8.594
 1844POPC   C2B25856  44.008  18.533   8.161
 1844POPC   C3B25857  43.936  18.867   7.855
 1844POPC   C4B25858  44.197  19.241   7.925
 1845POPC   NC325859   3.538  36.223   9.650
 1845POPC   PO425860   3.286  35.699   9.430
 1845POPC   GL125861   3.402  36.084   9.130
 1845POPC   GL225862   3.633  36.413   9.179
 1845POPC   C1A25863   3.383  36.083   8.650
 1845POPC   D2A25864   3.477  35.856   8.234
 1845POPC   C3A25865   3.473  36.162   7.888
 1845POPC   C4A25866   3.152  36.442   7.726
 1845POPC   C1B25867   3.829  36.306   8.779
 1845POPC   C2B25868   3.737  36.291   8.331
 1845POPC   C3B25869   3.957  36.444   7.956
 1845POPC   C4B25870   3.814  36.325   7.533
 1846POPC   NC325871  17.950  41.979   9.380
 1846POPC   PO425872  18.406  42.468   9.276
 1846POPC   GL125873  18.074  42.339   9.054
 1846POPC   GL225874  17.956  42.640   9.062
 1846POPC   C1A25875  18.117  42.183   8.653
 1846POPC   D2A25876  18.378  42.387   8.336
 1846POPC   C3A25877  18.368  42.242   7.950
 1846POPC   C4A25878  18.028  41.950   7.899
 1846POPC   C1B25879  18.030  42.684   8.666
 1846POPC   C2B25880  17.893  42.553   8.283
 1846POPC   C3B25881  17.985  42.545   7.877
 1846POPC   C4B25882  18.257  42.699   7.522
 1847POPC   NC325883   4.395  35.721   9.740
 1847POPC   PO425884   4.034  35.191   9.485
 1847POPC   GL125885   4.239  35.322   9.113
 1847POPC   GL225886   4.347  35.672   9.194
 1847POPC   C1A25887   4.066  35.326   8.681
 1847POPC   D2A25888   3.993  35.083   8.296
 1847POPC   C3A25889   4.281  35.124   7.935
 1847POPC   C4A25890   4.264  35.058   7.479
 1847POPC   C1B25891   4.521  35.598   8.778
 1847POPC   C2B25892   4.455  35.467   8.354
 1847POPC   C3B25893   4.513  35.581   7.935
 1847POPC   C4B25894   4.243  35.573   7.610
 1848POPC   NC325895  13.682  16.447   9.815
 1848POPC   PO425896  13.718  15.895   9.483
 1848POPC   GL125897  13.558  15.895   9.110
 1848POPC   GL225898  13.382  15.622   9.134
 1848POPC   C1A25899  13.701  16.045   8.718
 1848POPC   D2A25900  13.570  16.223   8.339
 1848POPC   C3A25901  13.735  15.982   8.016
 1848POPC   C4A25902  13.630  15.679   7.738
 1848POPC   C1B25903  13.268  15.634   8.743
 1848POPC   C2B25904  13.470  15.714   8.368
 1848POPC   C3B25905  13.233  15.528   8.073
 1848POPC   C4B25906  13.015  15.651   7.731
 1849POPC   NC325907  37.925  36.564   9.430
 1849POPC   PO425908  37.583  37.087   9.335
 1849POPC   GL125909  37.750  36.849   9.069
 1849POPC   GL225910  37.516  36.558   9.058
 1849POPC   C1A25911  37.935  36.968   8.753
 1849POPC   D2A25912  37.973  37.157   8.423
 1849POPC   C3A25913  37.995  36.870   8.128
 1849POPC   C4A25914  37.716  37.006   7.827
 1849POPC   C1B25915  37.399  36.873   8.729
 1849POPC   C2B25916  37.476  37.034   8.336
 1849POPC   C3B25917  37.243  36.954   7.985
 1849POPC   C4B25918  37.355  36.701   7.658
 1850POPC   NC325919  25.209  42.126   9.448
 1850POPC   PO425920  25.295  41.478   9.473
 1850POPC   GL125921  25.122  41.602   9.104
 1850POPC   GL225922  25.408  41.850   9.076
 1850POPC   C1A25923  25.327  41.436   8.737
 1850POPC   D2A25924  25.677  41.443   8.433
 1850POPC   C3A25925  25.491  41.301   8.035
 1850POPC   C4A25926  25.093  41.476   7.837
 1850POPC   C1B25927  25.195  41.942   8.698
 1850POPC   C2B25928  25.261  41.716   8.304
 1850POPC   C3B25929  25.492  41.801   7.944
 1850POPC   C4B25930  25.214  41.944   7.659
 1851POPC   NC325931   3.039   0.250   9.491
 1851POPC   PO425932   2.379   0.080   9.428
 1851POPC   GL125933   2.662   0.363   9.156
 1851POPC   GL225934   3.024   0.536   9.074
 1851POPC   C1A25935   2.581   0.617   8.817
 1851POPC   D2A25936   2.851   0.632   8.507
 1851POPC   C3A25937   2.762   0.688   8.100
 1851POPC   C4A25938   2.568   0.464   7.773
 1851POPC   C1B25939   3.223   0.330   8.742
 1851POPC   C2B25940   3.271   0.445   8.314
 1851POPC   C3B25941   3.058   0.331   7.897
 1851POPC   C4B25942   3.002   0.644   7.550
 1852POPC   NC325943   5.334  31.552   9.317
 1852POPC   PO425944   5.872  31.769   9.672
 1852POPC   GL125945   5.872  31.701   9.228
 1852POPC   GL225946   5.875  31.333   9.134
 1852POPC   C1A25947   5.737  31.722   8.792
 1852POPC   D2A25948   5.684  31.377   8.476
 1852POPC   C3A25949   5.664  31.476   8.026
 1852POPC   C4A25950   5.892  31.686   7.714
 1852POPC   C1B25951   6.154  31.409   8.743
 1852POPC   C2B25952   6.283  31.451   8.284
 1852POPC   C3B25953   6.134  31.216   7.914
 1852POPC   C4B25954   6.070  31.290   7.447
 1853POPC   NC325955  36.928  21.898   9.384
 1853POPC   PO425956  36.467  22.400   9.629
 1853POPC   GL125957  36.684  22.346   9.204
 1853POPC   GL225958  37.039  22.406   9.096
 1853POPC   C1A25959  36.666  22.346   8.761
 1853POPC   D2A25960  36.603  21.988   8.514
 1853POPC   C3A25961  36.641  22.158   8.122
 1853POPC   C4A25962  36.821  22.011   7.761
 1853POPC   C1B25963  37.157  22.144   8.737
 1853POPC   C2B25964  37.150  22.196   8.279
 1853POPC   C3B25965  37.399  22.159   7.884
 1853POPC   C4B25966  37.202  22.204   7.499
 1854POPC   NC325967  39.821   5.736   9.466
 1854POPC   PO425968  40.028   6.342   9.610
 1854POPC   GL125969  39.841   6.187   9.224
 1854POPC   GL225970  40.126   5.972   9.113
 1854POPC   C1A25971  39.915   6.253   8.777
 1854POPC   D2A25972  39.803   5.933   8.459
 1854POPC   C3A25973  39.903   5.975   8.062
 1854POPC   C4A25974  40.089   5.894   7.676
 1854POPC   C1B25975  40.288   5.716   8.759
 1854POPC   C2B25976  40.199   5.631   8.334
 1854POPC   C3B25977  40.330   5.517   7.921
 1854POPC   C4B25978  40.384   5.542   7.437
 1855POPC   NC325979  10.678  14.815   9.533
 1855POPC   PO425980  10.253  15.332   9.630
 1855POPC   GL125981  10.427  15.196   9.252
 1855POPC   GL225982  10.786  15.280   9.255
 1855POPC   C1A25983  10.291  14.911   8.937
 1855POPC   D2A25984  10.375  15.101   8.561
 1855POPC   C3A25985  10.505  15.001   8.151
 1855POPC   C4A25986  10.431  14.874   7.739
 1855POPC   C1B25987  10.795  15.010   8.879
 1855POPC   C2B25988  10.918  15.062   8.444
 1855POPC   C3B25989  10.995  15.262   8.063
 1855POPC   C4B25990  10.842  15.191   7.669
 1856POPC   NC325991  43.120  22.608   9.730
 1856POPC   PO425992  43.121  23.247   9.609
 1856POPC   GL125993  43.293  23.098   9.184
 1856POPC   GL225994  43.449  22.748   9.169
 1856POPC   C1A25995  43.146  23.189   8.751
 1856POPC   D2A25996  42.991  23.165   8.298
 1856POPC   C3A25997  43.103  22.968   7.862
 1856POPC   C4A25998  42.863  22.944   7.448
 1856POPC   C1B25999  43.414  22.736   8.730
 1856POPC   C2B26000  43.304  22.653   8.272
 1856POPC   C3B26001  43.283  22.489   7.820
 1856POPC   C4B26002  43.317  22.714   7.417
 1857POPC   NC326003  43.305  34.504   9.662
 1857POPC   PO426004  42.839  34.009   9.612
 1857POPC   GL126005  42.914  34.394   9.321
 1857POPC   GL226006  42.745  34.696   9.274
 1857POPC   C1A26007  43.078  34.549   8.877
 1857POPC   D2A26008  43.141  34.438   8.416
 1857POPC   C3A26009  43.220  34.613   8.005
 1857POPC   C4A26010  43.045  34.300   7.716
 1857POPC   C1B26011  42.685  34.944   8.863
 1857POPC   C2B26012  42.544  35.063   8.410
 1857POPC   C3B26013  42.635  35.018   7.955
 1857POPC   C4B26014  42.960  34.951   7.670
 1858POPC   NC326015  10.990   9.289   9.412
 1858POPC   PO426016  11.572   8.979   9.474
 1858POPC   GL126017  11.379   9.101   9.137
 1858POPC   GL226018  11.107   8.859   9.181
 1858POPC   C1A26019  11.460   9.036   8.740
 1858POPC   D2A26020  11.244   8.944   8.382
 1858POPC   C3A26021  11.127   9.233   8.111
 1858POPC   C4A26022  11.444   9.227   7.834
 1858POPC   C1B26023  10.944   9.045   8.802
 1858POPC   C2B26024  10.758   8.817   8.477
 1858POPC   C3B26025  10.854   8.742   8.047
 1858POPC   C4B26026  11.043   8.929   7.675
 1859POPC   NC326027  19.570  23.752   9.499
 1859POPC   PO426028  19.873  23.138   9.614
 1859POPC   GL126029  19.903  23.447   9.234
 1859POPC   GL226030  20.016  23.801   9.221
 1859POPC   C1A26031  19.697  23.670   8.856
 1859POPC   D2A26032  19.679  23.830   8.442
 1859POPC   C3A26033  19.920  23.547   8.215
 1859POPC   C4A26034  19.978  23.533   7.802
 1859POPC   C1B26035  20.221  23.808   8.827
 1859POPC   C2B26036  20.288  23.884   8.390
 1859POPC   C3B26037  20.019  24.031   8.064
 1859POPC   C4B26038  19.926  24.096   7.650
 1860POPC   NC326039  34.232  17.166   9.595
 1860POPC   PO426040  33.843  17.729   9.477
 1860POPC   GL126041  33.712  17.526   9.137
 1860POPC   GL226042  33.791  17.187   9.289
 1860POPC   C1A26043  33.855  17.513   8.754
 1860POPC   D2A26044  33.940  17.586   8.359
 1860POPC   C3A26045  33.685  17.741   8.053
 1860POPC   C4A26046  33.939  17.510   7.807
 1860POPC   C1B26047  33.676  17.049   8.884
 1860POPC   C2B26048  33.832  17.069   8.484
 1860POPC   C3B26049  33.733  17.158   8.104
 1860POPC   C4B26050  33.654  17.102   7.711
 1861POPC   NC326051   8.703  32.328   9.457
 1861POPC   PO426052   9.371  32.191   9.652
 1861POPC   GL126053   9.173  32.237   9.219
 1861POPC   GL226054   9.103  31.971   9.084
 1861POPC   C1A26055   9.040  32.400   8.766
 1861POPC   D2A26056   9.172  32.319   8.312
 1861POPC   C3A26057   8.938  32.441   7.922
 1861POPC   C4A26058   9.167  32.567   7.542
 1861POPC   C1B26059   8.938  31.902   8.678
 1861POPC   C2B26060   8.959  31.845   8.242
 1861POPC   C3B26061   9.079  31.949   7.822
 1861POPC   C4B26062   8.852  32.148   7.469
 1862POPC   NC326063  28.736  29.708   9.574
 1862POPC   PO426064  28.114  29.844   9.711
 1862POPC   GL126065  28.340  29.864   9.269
 1862POPC   GL226066  28.636  30.086   9.235
 1862POPC   C1A26067  28.248  29.936   8.819
 1862POPC   D2A26068  28.049  29.878   8.384
 1862POPC   C3A26069  28.205  29.728   7.981
 1862POPC   C4A26070  28.575  29.847   7.740
 1862POPC   C1B26071  28.773  30.034   8.794
 1862POPC   C2B26072  28.569  29.976   8.400
 1862POPC   C3B26073  28.433  30.188   8.062
 1862POPC   C4B26074  28.693  30.337   7.723
 1863POPC   NC326075  20.539  34.995   9.850
 1863POPC   PO426076  20.720  34.363   9.705
 1863POPC   GL126077  20.700  34.387   9.208
 1863POPC   GL226078  20.812  34.697   9.035
 1863POPC   C1A26079  20.564  34.303   8.783
 1863POPC   D2A26080  20.648  34.212   8.344
 1863POPC   C3A26081  20.443  34.382   7.975
 1863POPC   C4A26082  20.575  34.512   7.549
 1863POPC   C1B26083  20.475  34.818   8.749
 1863POPC   C2B26084  20.422  34.768   8.309
 1863POPC   C3B26085  20.587  34.912   7.905
 1863POPC   C4B26086  20.486  34.991   7.416
 1864POPC   NC326087  27.172   3.674   9.501
 1864POPC   PO426088  26.799   3.122   9.546
 1864POPC   GL126089  26.973   3.309   9.201
 1864POPC   GL226090  26.738   3.608   9.219
 1864POPC   C1A26091  26.942   3.488   8.772
 1864POPC   D2A26092  26.742   3.701   8.426
 1864POPC   C3A26093  26.750   3.429   8.065
 1864POPC   C4A26094  26.965   3.287   7.738
 1864POPC   C1B26095  26.419   3.623   8.857
 1864POPC   C2B26096  26.230   3.750   8.439
 1864POPC   C3B26097  26.421   3.804   8.014
 1864POPC   C4B26098  26.768   3.825   7.723
 1865POPC   NC326099  12.620  15.193   9.542
 1865POPC   PO426100  13.354  15.342   9.562
 1865POPC   GL126101  13.078  15.214   9.244
 1865POPC   GL226102  12.904  15.491   9.250
 1865POPC   C1A26103  13.045  15.155   8.791
 1865POPC   D2A26104  12.721  15.026   8.500
 1865POPC   C3A26105  12.855  15.169   8.085
 1865POPC   C4A26106  12.777  15.012   7.703
 1865POPC   C1B26107  12.746  15.555   8.878
 1865POPC   C2B26108  12.825  15.535   8.465
 1865POPC   C3B26109  12.461  15.448   8.222
 1865POPC   C4B26110  12.493  15.445   7.770
 1866POPC   NC326111   8.595   8.630   9.520
 1866POPC   PO426112   8.245   8.100   9.427
 1866POPC   GL126113   8.295   8.133   9.027
 1866POPC   GL226114   8.241   7.799   8.978
 1866POPC   C1A26115   8.058   8.300   8.686
 1866POPC   D2A26116   8.178   8.263   8.267
 1866POPC   C3A26117   7.922   8.124   7.931
 1866POPC   C4A26118   7.691   8.356   7.599
 1866POPC   C1B26119   8.170   7.820   8.555
 1866POPC   C2B26120   8.412   7.781   8.184
 1866POPC   C3B26121   8.450   8.081   7.867
 1866POPC   C4B26122   8.399   8.549   7.902
 1867POPC   NC326123  33.872  36.286   9.527
 1867POPC   PO426124  34.119  35.734   9.787
 1867POPC   GL126125  33.973  35.842   9.269
 1867POPC   GL226126  33.678  36.099   9.129
 1867POPC   C1A26127  34.015  36.061   8.799
 1867POPC   D2A26128  33.857  35.871   8.450
 1867POPC   C3A26129  33.771  36.080   8.078
 1867POPC   C4A26130  33.997  36.136   7.709
 1867POPC   C1B26131  33.562  36.425   8.878
 1867POPC   C2B26132  33.635  36.413   8.448
 1867POPC   C3B26133  33.560  36.560   8.031
 1867POPC   C4B26134  33.528  36.314   7.690
 1868POPC   NC326135  32.947  40.113   9.585
 1868POPC   PO426136  33.223  39.456   9.577
 1868POPC   GL126137  33.049  39.724   9.273
 1868POPC   GL226138  33.274  40.012   9.198
 1868POPC   C1A26139  32.959  39.829   8.861
 1868POPC   D2A26140  33.195  40.044   8.533
 1868POPC   C3A26141  33.067  39.868   8.144
 1868POPC   C4A26142  32.955  40.002   7.797
 1868POPC   C1B26143  33.038  40.334   8.975
 1868POPC   C2B26144  32.810  40.371   8.625
 1868POPC   C3B26145  32.871  40.338   8.203
 1868POPC   C4B26146  32.666  40.426   7.839
 1869POPC   NC326147   8.166  31.413   9.436
 1869POPC   PO426148   8.813  31.556   9.298
 1869POPC   GL126149   8.466  31.603   9.054
 1869POPC   GL226150   8.467  31.243   9.079
 1869POPC   C1A26151   8.062  31.779   8.845
 1869POPC   D2A26152   7.878  31.918   8.439
 1869POPC   C3A26153   8.108  31.771   8.098
 1869POPC   C4A26154   8.248  31.738   7.680
 1869POPC   C1B26155   8.203  31.290   8.760
 1869POPC   C2B26156   8.226  31.294   8.361
 1869POPC   C3B26157   8.162  31.258   7.955
 1869POPC   C4B26158   8.358  31.249   7.598
 1870POPC   NC326159  36.911  19.986   9.806
 1870POPC   PO426160  36.876  19.420   9.418
 1870POPC   GL126161  36.911  19.752   9.113
 1870POPC   GL226162  36.713  20.082   9.073
 1870POPC   C1A26163  37.010  19.707   8.683
 1870POPC   D2A26164  37.263  19.602   8.317
 1870POPC   C3A26165  37.065  19.707   7.927
 1870POPC   C4A26166  36.859  19.452   7.579
 1870POPC   C1B26167  36.697  20.127   8.628
 1870POPC   C2B26168  36.582  19.909   8.237
 1870POPC   C3B26169  36.649  19.933   7.763
 1870POPC   C4B26170  36.743  20.257   7.443
 1871POPC   NC326171   2.673   6.448   9.540
 1871POPC   PO426172   3.209   6.118   9.352
 1871POPC   GL126173   3.012   6.487   9.137
 1871POPC   GL226174   2.878   6.816   9.232
 1871POPC   C1A26175   2.630   6.537   8.856
 1871POPC   D2A26176   2.616   6.431   8.416
 1871POPC   C3A26177   3.011   6.453   8.164
 1871POPC   C4A26178   2.907   6.495   7.730
 1871POPC   C1B26179   2.778   7.036   8.869
 1871POPC   C2B26180   2.591   6.984   8.463
 1871POPC   C3B26181   2.759   6.882   8.088
 1871POPC   C4B26182   2.560   6.854   7.723
 1872POPC   NC326183   3.238  16.698   9.670
 1872POPC   PO426184   2.596  16.403   9.666
 1872POPC   GL126185   2.816  16.542   9.283
 1872POPC   GL226186   2.724  16.828   9.080
 1872POPC   C1A26187   2.987  16.473   8.836
 1872POPC   D2A26188   3.035  16.614   8.395
 1872POPC   C3A26189   2.825  16.378   8.049
 1872POPC   C4A26190   2.676  16.538   7.616
 1872POPC   C1B26191   2.519  16.971   8.712
 1872POPC   C2B26192   2.305  17.156   8.347
 1872POPC   C3B26193   2.314  17.096   7.928
 1872POPC   C4B26194   2.587  17.112   7.618
 1873POPC   NC326195  31.077  34.179   9.422
 1873POPC   PO426196  31.381  33.590   9.511
 1873POPC   GL126197  31.292  33.809   9.154
 1873POPC   GL226198  30.922  33.720   9.151
 1873POPC   C1A26199  31.486  33.891   8.759
 1873POPC   D2A26200  31.578  33.673   8.352
 1873POPC   C3A26201  31.503  33.993   8.053
 1873POPC   C4A26202  31.743  34.216   7.754
 1873POPC   C1B26203  31.162  33.454   8.826
 1873POPC   C2B26204  31.233  33.251   8.428
 1873POPC   C3B26205  31.170  33.524   8.073
 1873POPC   C4B26206  31.435  33.603   7.748
 1874POPC   NC326207  11.809  10.378   9.427
 1874POPC   PO426208  12.414  10.775   9.358
 1874POPC   GL126209  12.259  10.402   9.127
 1874POPC   GL226210  11.926  10.458   8.958
 1874POPC   C1A26211  12.325  10.277   8.699
 1874POPC   D2A26212  12.131  10.385   8.321
 1874POPC   C3A26213  12.233  10.759   8.099
 1874POPC   C4A26214  12.283  10.617   7.691
 1874POPC   C1B26215  11.788  10.174   8.671
 1874POPC   C2B26216  11.621  10.285   8.246
 1874POPC   C3B26217  11.817  10.458   7.875
 1874POPC   C4B26218  11.777  10.440   7.420
 1875POPC   NC326219   0.347   9.259   9.423
 1875POPC   PO426220   0.615   9.872   9.527
 1875POPC   GL126221   0.598   9.710   9.134
 1875POPC   GL226222   0.256   9.650   9.116
 1875POPC   C1A26223   0.555   9.913   8.734
 1875POPC   D2A26224   0.648  10.072   8.315
 1875POPC   C3A26225   0.501   9.810   7.961
 1875POPC   C4A26226   0.282   9.984   7.622
 1875POPC   C1B26227   0.048   9.862   8.810
 1875POPC   C2B26228   0.173   9.888   8.386
 1875POPC   C3B26229  44.979   9.803   8.002
 1875POPC   C4B26230   0.086   9.504   7.692
 1876POPC   NC326231   9.660  19.249   9.512
 1876POPC   PO426232  10.061  18.777   9.487
 1876POPC   GL126233   9.801  18.961   9.105
 1876POPC   GL226234   9.561  19.211   9.036
 1876POPC   C1A26235   9.520  18.801   8.755
 1876POPC   D2A26236   9.404  18.983   8.367
 1876POPC   C3A26237   9.620  18.797   8.057
 1876POPC   C4A26238   9.813  18.875   7.726
 1876POPC   C1B26239   9.617  19.339   8.677
 1876POPC   C2B26240   9.422  19.596   8.432
 1876POPC   C3B26241   9.451  19.636   8.029
 1876POPC   C4B26242   9.688  19.335   7.877
 1877POPC   NC326243  18.985   6.418   9.438
 1877POPC   PO426244  19.304   7.049   9.517
 1877POPC   GL126245  19.339   6.736   9.167
 1877POPC   GL226246  19.484   6.412   9.251
 1877POPC   C1A26247  19.071   6.566   8.815
 1877POPC   D2A26248  18.947   6.778   8.447
 1877POPC   C3A26249  19.165   6.861   8.097
 1877POPC   C4A26250  18.938   6.892   7.731
 1877POPC   C1B26251  19.545   6.400   8.780
 1877POPC   C2B26252  19.269   6.361   8.388
 1877POPC   C3B26253  18.989   6.382   8.042
 1877POPC   C4B26254  19.282   6.525   7.735
 1878POPC   NC326255  33.826  10.308   9.654
 1878POPC   PO426256  33.883  10.978   9.667
 1878POPC   GL126257  33.785  10.685   9.294
 1878POPC   GL226258  33.992  10.415   9.175
 1878POPC   C1A26259  33.555  10.684   8.908
 1878POPC   D2A26260  33.611  10.476   8.498
 1878POPC   C3A26261  33.715  10.697   8.126
 1878POPC   C4A26262  33.681  10.815   7.656
 1878POPC   C1B26263  34.036  10.605   8.764
 1878POPC   C2B26264  34.181  10.492   8.354
 1878POPC   C3B26265  34.264  10.211   8.012
 1878POPC   C4B26266  34.020  10.453   7.764
 1879POPC   NC326267  14.457  19.480   9.345
 1879POPC   PO426268  14.151  19.998   9.324
 1879POPC   GL126269  14.265  20.069   8.973
 1879POPC   GL226270  14.568  19.839   8.985
 1879POPC   C1A26271  14.236  19.841   8.601
 1879POPC   D2A26272  14.607  19.640   8.483
 1879POPC   C3A26273  14.584  19.710   8.081
 1879POPC   C4A26274  14.238  19.775   7.767
 1879POPC   C1B26275  14.658  20.173   8.672
 1879POPC   C2B26276  14.483  20.195   8.238
 1879POPC   C3B26277  14.689  20.127   7.811
 1879POPC   C4B26278  14.660  20.096   7.304
 1880POPC   NC326279  40.589  38.171   9.475
 1880POPC   PO426280  40.663  37.606   9.638
 1880POPC   GL126281  40.810  37.624   9.222
 1880POPC   GL226282  40.925  37.966   9.136
 1880POPC   C1A26283  40.687  37.376   8.853
 1880POPC   D2A26284  40.913  37.298   8.440
 1880POPC   C3A26285  40.664  37.352   8.054
 1880POPC   C4A26286  40.904  37.396   7.725
 1880POPC   C1B26287  40.601  37.904   8.846
 1880POPC   C2B26288  40.568  37.693   8.467
 1880POPC   C3B26289  40.838  37.816   8.167
 1880POPC   C4B26290  40.757  37.887   7.766
 1881POPC   NC326291  44.343  42.940   9.518
 1881POPC   PO426292  44.952  43.197   9.671
 1881POPC   GL126293  44.772  43.143   9.247
 1881POPC   GL226294  44.431  43.291   9.163
 1881POPC   C1A26295  44.840  43.253   8.820
 1881POPC   D2A26296  44.890  43.371   8.400
 1881POPC   C3A26297  44.583  43.273   8.105
 1881POPC   C4A26298  44.688  43.212   7.704
 1881POPC   C1B26299  44.378  42.984   8.835
 1881POPC   C2B26300  44.395  42.881   8.409
 1881POPC   C3B26301  44.275  42.845   7.960
 1881POPC   C4B26302  44.332  42.937   7.516
 1882POPC   NC326303  38.750  18.070   9.694
 1882POPC   PO426304  38.167  18.335   9.461
 1882POPC   GL126305  38.517  18.318   9.216
 1882POPC   GL226306  38.274  18.405   8.971
 1882POPC   C1A26307  38.733  18.372   8.787
 1882POPC   D2A26308  38.574  18.314   8.378
 1882POPC   C3A26309  38.652  18.544   8.051
 1882POPC   C4A26310  38.477  18.482   7.662
 1882POPC   C1B26311  38.318  18.052   8.711
 1882POPC   C2B26312  38.254  17.882   8.319
 1882POPC   C3B26313  38.455  18.034   7.960
 1882POPC   C4B26314  38.653  17.937   7.626
 1883POPC   NC326315   7.478  31.070   9.489
 1883POPC   PO426316   7.208  30.432   9.615
 1883POPC   GL126317   7.305  30.640   9.202
 1883POPC   GL226318   7.176  30.980   9.083
 1883POPC   C1A26319   7.581  30.524   8.851
 1883POPC   D2A26320   7.688  30.470   8.405
 1883POPC   C3A26321   7.369  30.537   8.110
 1883POPC   C4A26322   7.229  30.908   7.893
 1883POPC   C1B26323   7.430  30.980   8.700
 1883POPC   C2B26324   7.556  30.978   8.278
 1883POPC   C3B26325   7.729  30.998   7.828
 1883POPC   C4B26326   7.712  30.999   7.347
 1884POPC   NC326327  27.574  28.613   9.503
 1884POPC   PO426328  27.864  28.009   9.523
 1884POPC   GL126329  27.617  28.219   9.172
 1884POPC   GL226330  27.266  28.197   9.121
 1884POPC   C1A26331  27.715  28.480   8.840
 1884POPC   D2A26332  27.990  28.334   8.532
 1884POPC   C3A26333  27.850  28.509   8.175
 1884POPC   C4A26334  27.860  28.547   7.757
 1884POPC   C1B26335  27.254  28.350   8.715
 1884POPC   C2B26336  27.518  28.187   8.458
 1884POPC   C3B26337  27.544  28.102   8.088
 1884POPC   C4B26338  27.410  28.354   7.817
 1885POPC   NC326339  44.926   3.006   9.692
 1885POPC   PO426340  44.693   2.399   9.460
 1885POPC   GL126341  44.894   2.640   9.142
 1885POPC   GL226342   0.071   2.952   9.200
 1885POPC   C1A26343  44.625   2.793   8.801
 1885POPC   D2A26344  44.287   2.760   8.490
 1885POPC   C3A26345  44.472   2.805   8.102
 1885POPC   C4A26346  44.569   2.769   7.681
 1885POPC   C1B26347   0.091   3.056   8.767
 1885POPC   C2B26348  44.889   2.986   8.388
 1885POPC   C3B26349  44.919   3.007   7.968
 1885POPC   C4B26350   0.059   2.923   7.558
 1886POPC   NC326351  32.070  10.101   9.406
 1886POPC   PO426352  32.048   9.404   9.439
 1886POPC   GL126353  32.354   9.682   9.236
 1886POPC   GL226354  32.498   9.436   9.045
 1886POPC   C1A26355  32.459  10.022   8.898
 1886POPC   D2A26356  32.227  10.107   8.510
 1886POPC   C3A26357  32.511  10.172   8.164
 1886POPC   C4A26358  32.513   9.899   7.803
 1886POPC   C1B26359  32.254   9.599   8.713
 1886POPC   C2B26360  32.385   9.676   8.294
 1886POPC   C3B26361  32.238   9.498   7.946
 1886POPC   C4B26362  32.206   9.575   7.479
 1887POPC   NC326363   3.271   2.797   9.461
 1887POPC   PO426364   3.737   3.060   9.849
 1887POPC   GL126365   3.700   2.933   9.277
 1887POPC   GL226366   3.625   2.558   9.181
 1887POPC   C1A26367   3.714   2.847   8.799
 1887POPC   D2A26368   3.798   2.602   8.446
 1887POPC   C3A26369   3.553   2.774   8.108
 1887POPC   C4A26370   3.502   2.860   7.653
 1887POPC   C1B26371   3.384   2.423   8.754
 1887POPC   C2B26372   3.159   2.409   8.334
 1887POPC   C3B26373   3.184   2.506   7.887
 1887POPC   C4B26374   3.287   2.427   7.434
 1888POPC   NC326375  12.339  32.267   9.731
 1888POPC   PO426376  12.135  32.449   9.045
 1888POPC   GL126377  12.028  32.074   8.832
 1888POPC   GL226378  11.681  32.080   8.959
 1888POPC   C1A26379  12.370  31.928   8.535
 1888POPC   D2A26380  12.549  32.283   8.284
 1888POPC   C3A26381  12.186  32.494   8.028
 1888POPC   C4A26382  12.057  32.252   7.635
 1888POPC   C1B26383  11.554  32.474   8.723
 1888POPC   C2B26384  11.779  32.503   8.345
 1888POPC   C3B26385  11.673  32.419   7.917
 1888POPC   C4B26386  11.566  32.215   7.506
 1889POPC   NC326387  36.446  11.648   9.409
 1889POPC   PO426388  36.058  11.124   9.432
 1889POPC   GL126389  36.068  11.436   9.120
 1889POPC   GL226390  36.386  11.270   9.052
 1889POPC   C1A26391  36.194  11.547   8.676
 1889POPC   D2A26392  36.168  11.760   8.292
 1889POPC   C3A26393  36.072  11.497   7.922
 1889POPC   C4A26394  35.685  11.249   7.749
 1889POPC   C1B26395  36.063  11.056   8.790
 1889POPC   C2B26396  35.897  10.943   8.406
 1889POPC   C3B26397  36.052  11.012   8.023
 1889POPC   C4B26398  36.204  11.087   7.627
 1890POPC   NC326399   6.131   9.678   9.508
 1890POPC   PO426400   5.423   9.839   9.461
 1890POPC   GL126401   5.690   9.594   9.225
 1890POPC   GL226402   5.654   9.886   8.988
 1890POPC   C1A26403   5.825   9.458   8.810
 1890POPC   D2A26404   5.806   9.764   8.448
 1890POPC   C3A26405   5.794   9.596   8.019
 1890POPC   C4A26406   6.127   9.391   7.796
 1890POPC   C1B26407   5.666  10.219   8.663
 1890POPC   C2B26408   5.757  10.256   8.194
 1890POPC   C3B26409   5.881  10.055   7.789
 1890POPC   C4B26410   5.755  10.168   7.374
 1891POPC   NC326411  30.758  31.878   9.497
 1891POPC   PO426412  30.796  32.583   9.597
 1891POPC   GL126413  30.707  32.375   9.167
 1891POPC   GL226414  30.916  32.100   9.082
 1891POPC   C1A26415  30.826  32.414   8.705
 1891POPC   D2A26416  30.680  32.323   8.271
 1891POPC   C3A26417  30.796  32.619   7.894
 1891POPC   C4A26418  30.809  32.669   7.418
 1891POPC   C1B26419  31.138  31.959   8.692
 1891POPC   C2B26420  31.179  32.202   8.338
 1891POPC   C3B26421  31.038  32.167   7.913
 1891POPC   C4B26422  31.048  32.068   7.439
 1892POPC   NC326423  42.927   7.612   9.430
 1892POPC   PO426424  43.492   7.668   9.807
 1892POPC   GL126425  43.425   7.527   9.314
 1892POPC   GL226426  43.239   7.264   9.116
 1892POPC   C1A26427  43.375   7.662   8.855
 1892POPC   D2A26428  43.225   7.732   8.444
 1892POPC   C3A26429  43.320   7.516   8.042
 1892POPC   C4A26430  43.027   7.671   7.708
 1892POPC   C1B26431  42.925   7.390   8.762
 1892POPC   C2B26432  42.877   7.386   8.287
 1892POPC   C3B26433  42.889   7.205   7.865
 1892POPC   C4B26434  42.915   7.264   7.400
 1893POPC   NC326435   9.593  29.503   9.396
 1893POPC   PO426436   9.707  28.828   9.466
 1893POPC   GL126437   9.874  29.108   9.151
 1893POPC   GL226438  10.061  29.455   9.206
 1893POPC   C1A26439   9.675  29.177   8.748
 1893POPC   D2A26440   9.555  28.918   8.406
 1893POPC   C3A26441   9.722  29.014   8.019
 1893POPC   C4A26442   9.513  29.348   7.826
 1893POPC   C1B26443  10.162  29.342   8.783
 1893POPC   C2B26444  10.021  29.292   8.364
 1893POPC   C3B26445   9.975  29.496   7.984
 1893POPC   C4B26446  10.181  29.213   7.805
 1894POPC   NC326447  24.986  35.106   9.550
 1894POPC   PO426448  24.321  35.385   9.576
 1894POPC   GL126449  24.291  35.555   9.184
 1894POPC   GL226450  24.524  35.321   9.105
 1894POPC   C1A26451  24.095  35.358   8.813
 1894POPC   D2A26452  24.286  35.425   8.431
 1894POPC   C3A26453  24.193  35.496   8.052
 1894POPC   C4A26454  24.127  35.464   7.663
 1894POPC   C1B26455  24.556  35.141   8.717
 1894POPC   C2B26456  24.640  35.129   8.242
 1894POPC   C3B26457  24.418  35.059   7.834
 1894POPC   C4B26458  24.616  34.890   7.437
 1895POPC   NC326459   7.801  27.567   9.575
 1895POPC   PO426460   8.441  27.485   9.405
 1895POPC   GL126461   8.117  27.506   9.135
 1895POPC   GL226462   7.945  27.830   9.180
 1895POPC   C1A26463   8.270  27.472   8.724
 1895POPC   D2A26464   8.165  27.288   8.360
 1895POPC   C3A26465   8.276  27.486   8.026
 1895POPC   C4A26466   8.202  27.321   7.663
 1895POPC   C1B26467   7.843  27.807   8.761
 1895POPC   C2B26468   8.046  27.794   8.379
 1895POPC   C3B26469   8.034  27.995   7.987
 1895POPC   C4B26470   7.611  27.971   7.790
 1896POPC   NC326471  29.444  10.149   9.542
 1896POPC   PO426472  30.065   9.823   9.471
 1896POPC   GL126473  30.007   9.864   9.090
 1896POPC   GL226474  29.697   9.680   9.045
 1896POPC   C1A26475  30.279   9.960   8.729
 1896POPC   D2A26476  30.397   9.733   8.365
 1896POPC   C3A26477  30.105   9.525   8.110
 1896POPC   C4A26478  29.862   9.769   7.812
 1896POPC   C1B26479  29.754   9.988   8.689
 1896POPC   C2B26480  29.563  10.098   8.311
 1896POPC   C3B26481  29.542  10.227   7.897
 1896POPC   C4B26482  29.332  10.045   7.547
 1897POPC   NC326483   5.027  13.198   9.491
 1897POPC   PO426484   5.395  12.676   9.485
 1897POPC   GL126485   5.259  12.897   9.138
 1897POPC   GL226486   4.901  12.808   9.168
 1897POPC   C1A26487   5.143  13.046   8.736
 1897POPC   D2A26488   5.123  13.281   8.368
 1897POPC   C3A26489   4.996  12.997   8.056
 1897POPC   C4A26490   5.261  12.939   7.638
 1897POPC   C1B26491   4.842  12.616   8.780
 1897POPC   C2B26492   4.605  12.663   8.402
 1897POPC   C3B26493   4.657  12.612   7.982
 1897POPC   C4B26494   4.752  12.866   7.648
 1898POPC   NC326495  16.333  15.648   9.477
 1898POPC   PO426496  15.603  15.728   9.514
 1898POPC   GL126497  15.886  15.740   9.181
 1898POPC   GL226498  15.666  16.003   9.052
 1898POPC   C1A26499  16.100  15.921   8.822
 1898POPC   D2A26500  15.824  16.141   8.538
 1898POPC   C3A26501  15.910  16.031   8.121
 1898POPC   C4A26502  16.094  16.262   7.793
 1898POPC   C1B26503  15.603  15.704   8.752
 1898POPC   C2B26504  15.691  15.628   8.361
 1898POPC   C3B26505  15.518  15.685   7.964
 1898POPC   C4B26506  15.748  15.902   7.657
 1899POPC   NC326507  42.700  10.680   9.558
 1899POPC   PO426508  42.039  10.564   9.518
 1899POPC   GL126509  42.349  10.467   9.224
 1899POPC   GL226510  42.491  10.797   9.127
 1899POPC   C1A26511  42.442  10.259   8.838
 1899POPC   D2A26512  42.291  10.068   8.465
 1899POPC   C3A26513  42.392  10.208   8.027
 1899POPC   C4A26514  42.627  10.164   7.634
 1899POPC   C1B26515  42.289  10.735   8.760
 1899POPC   C2B26516  42.459  10.561   8.411
 1899POPC   C3B26517  42.460  10.729   8.030
 1899POPC   C4B26518  42.391  10.620   7.611
 1900POPC   NC326519  23.783  17.898   9.522
 1900POPC   PO426520  23.731  17.165   9.612
 1900POPC   GL126521  23.763  17.411   9.219
 1900POPC   GL226522  23.436  17.265   9.162
 1900POPC   C1A26523  23.948  17.554   8.802
 1900POPC   D2A26524  23.700  17.632   8.388
 1900POPC   C3A26525  23.793  17.512   7.968
 1900POPC   C4A26526  23.584  17.554   7.578
 1900POPC   C1B26527  23.293  17.128   8.777
 1900POPC   C2B26528  23.233  17.279   8.365
 1900POPC   C3B26529  23.277  17.353   7.939
 1900POPC   C4B26530  23.349  17.127   7.539
 1901POPC   NC326531  31.943   5.595   9.552
 1901POPC   PO426532  32.439   5.983   9.394
 1901POPC   GL126533  32.269   6.127   9.075
 1901POPC   GL226534  31.934   6.040   9.182
 1901POPC   C1A26535  32.363   5.910   8.717
 1901POPC   D2A26536  32.239   5.915   8.339
 1901POPC   C3A26537  32.525   5.855   8.043
 1901POPC   C4A26538  32.375   5.720   7.660
 1901POPC   C1B26539  31.826   6.239   8.790
 1901POPC   C2B26540  31.910   6.343   8.349
 1901POPC   C3B26541  31.953   6.063   7.959
 1901POPC   C4B26542  31.996   6.090   7.459
 1902POPC   NC326543   9.459   3.929   9.205
 1902POPC   PO426544  10.047   4.246   9.263
 1902POPC   GL126545   9.716   4.386   9.042
 1902POPC   GL226546   9.716   4.761   9.100
 1902POPC   C1A26547   9.760   4.186   8.636
 1902POPC   D2A26548   9.905   4.292   8.231
 1902POPC   C3A26549   9.761   4.079   7.889
 1902POPC   C4A26550   9.737   4.241   7.472
 1902POPC   C1B26551   9.641   4.722   8.659
 1902POPC   C2B26552   9.727   4.774   8.229
 1902POPC   C3B26553   9.580   4.559   7.854
 1902POPC   C4B26554   9.581   4.735   7.418
 1903POPC   NC326555   6.046  35.639   9.482
 1903POPC   PO426556   5.616  35.105   9.509
 1903POPC   GL126557   5.760  35.334   9.176
 1903POPC   GL226558   5.602  35.638   9.261
 1903POPC   C1A26559   6.004  35.457   8.818
 1903POPC   D2A26560   6.123  35.462   8.394
 1903POPC   C3A26561   6.034  35.093   8.171
 1903POPC   C4A26562   5.913  35.049   7.765
 1903POPC   C1B26563   5.458  35.593   8.846
 1903POPC   C2B26564   5.642  35.591   8.445
 1903POPC   C3B26565   5.758  35.507   8.029
 1903POPC   C4B26566   5.486  35.376   7.713
 1904POPC   NC326567  31.907  44.718   9.430
 1904POPC   PO426568  32.580  44.524   9.537
 1904POPC   GL126569  32.297  44.493   9.187
 1904POPC   GL226570  32.351  44.834   9.111
 1904POPC   C1A26571  32.059  44.603   8.790
 1904POPC   D2A26572  32.148  44.883   8.483
 1904POPC   C3A26573  32.226  44.610   8.165
 1904POPC   C4A26574  32.199  44.493   7.763
 1904POPC   C1B26575  32.499   0.122   8.813
 1904POPC   C2B26576  32.472   0.324   8.428
 1904POPC   C3B26577  32.347   0.119   8.062
 1904POPC   C4B26578  31.981  44.941   7.885
 1905POPC   NC326579  38.539  26.300   9.491
 1905POPC   PO426580  38.708  25.550   9.398
 1905POPC   GL126581  38.433  25.894   9.162
 1905POPC   GL226582  38.216  26.216   9.130
 1905POPC   C1A26583  38.489  26.018   8.719
 1905POPC   D2A26584  38.777  25.950   8.376
 1905POPC   C3A26585  38.726  26.196   8.027
 1905POPC   C4A26586  38.563  26.125   7.667
 1905POPC   C1B26587  38.001  25.994   8.795
 1905POPC   C2B26588  38.114  25.873   8.406
 1905POPC   C3B26589  38.212  26.060   8.045
 1905POPC   C4B26590  38.147  25.839   7.705
 1906POPC   NC326591  32.812  35.050   9.444
 1906POPC   PO426592  33.280  35.362   9.708
 1906POPC   GL126593  33.184  35.298   9.219
 1906POPC   GL226594  32.883  35.492   9.156
 1906POPC   C1A26595  33.221  35.397   8.761
 1906POPC   D2A26596  33.013  35.470   8.398
 1906POPC   C3A26597  33.227  35.436   8.053
 1906POPC   C4A26598  33.194  35.210   7.699
 1906POPC   C1B26599  32.717  35.252   8.792
 1906POPC   C2B26600  32.713  35.046   8.400
 1906POPC   C3B26601  32.735  35.239   7.998
 1906POPC   C4B26602  32.698  35.399   7.595
 1907POPC   NC326603  40.238  34.514   9.739
 1907POPC   PO426604  39.717  34.819   9.453
 1907POPC   GL126605  39.996  34.537   9.198
 1907POPC   GL226606  40.371  34.584   9.151
 1907POPC   C1A26607  40.044  34.563   8.747
 1907POPC   D2A26608  40.045  34.860   8.428
 1907POPC   C3A26609  39.859  34.725   8.043
 1907POPC   C4A26610  39.876  34.737   7.620
 1907POPC   C1B26611  40.492  34.795   8.731
 1907POPC   C2B26612  40.534  34.897   8.275
 1907POPC   C3B26613  40.343  34.667   7.927
 1907POPC   C4B26614  40.264  34.401   7.560
 1908POPC   NC326615  28.522  32.885   9.588
 1908POPC   PO426616  27.987  32.470   9.476
 1908POPC   GL126617  28.255  32.748   9.161
 1908POPC   GL226618  28.509  33.083   9.139
 1908POPC   C1A26619  28.242  32.938   8.742
 1908POPC   D2A26620  28.244  33.170   8.372
 1908POPC   C3A26621  28.493  32.851   8.129
 1908POPC   C4A26622  28.546  32.786   7.661
 1908POPC   C1B26623  28.644  33.267   8.750
 1908POPC   C2B26624  28.718  33.315   8.305
 1908POPC   C3B26625  28.585  33.272   7.860
 1908POPC   C4B26626  28.830  33.156   7.455
 1909POPC   NC326627  41.660  18.100   9.587
 1909POPC   PO426628  41.255  18.675   9.520
 1909POPC   GL126629  41.275  18.460   9.105
 1909POPC   GL226630  41.404  18.128   9.145
 1909POPC   C1A26631  41.172  18.237   8.698
 1909POPC   D2A26632  41.261  18.156   8.265
 1909POPC   C3A26633  41.272  18.558   7.969
 1909POPC   C4A26634  41.573  18.742   7.635
 1909POPC   C1B26635  41.702  18.272   8.818
 1909POPC   C2B26636  41.783  18.208   8.367
 1909POPC   C3B26637  41.749  18.377   7.938
 1909POPC   C4B26638  41.641  18.242   7.512
 1910POPC   NC326639  32.521   8.241   9.483
 1910POPC   PO426640  31.887   7.884   9.466
 1910POPC   GL126641  32.098   7.972   9.053
 1910POPC   GL226642  32.365   8.244   9.001
 1910POPC   C1A26643  32.123   8.067   8.624
 1910POPC   D2A26644  32.204   8.293   8.292
 1910POPC   C3A26645  32.271   7.960   8.026
 1910POPC   C4A26646  32.566   7.874   7.724
 1910POPC   C1B26647  32.678   8.098   8.639
 1910POPC   C2B26648  33.027   8.004   8.314
 1910POPC   C3B26649  32.871   8.206   7.936
 1910POPC   C4B26650  32.419   8.413   7.853
 1911POPC   NC326651  13.099  18.727   9.494
 1911POPC   PO426652  12.721  19.338   9.519
 1911POPC   GL126653  12.968  19.135   9.177
 1911POPC   GL226654  12.740  18.843   9.170
 1911POPC   C1A26655  13.013  19.250   8.725
 1911POPC   D2A26656  12.672  19.400   8.431
 1911POPC   C3A26657  12.742  19.317   7.975
 1911POPC   C4A26658  13.087  19.168   7.754
 1911POPC   C1B26659  12.661  18.740   8.771
 1911POPC   C2B26660  12.774  18.907   8.377
 1911POPC   C3B26661  12.809  18.785   7.967
 1911POPC   C4B26662  12.734  18.382   7.793
 1912POPC   NC326663  39.797  25.245   9.568
 1912POPC   PO426664  39.731  25.831   9.799
 1912POPC   GL126665  40.078  25.593   9.340
 1912POPC   GL226666  39.933  25.231   9.109
 1912POPC   C1A26667  40.194  25.519   8.839
 1912POPC   D2A26668  39.949  25.468   8.427
 1912POPC   C3A26669  40.090  25.276   7.991
 1912POPC   C4A26670  39.970  25.150   7.545
 1912POPC   C1B26671  39.940  25.008   8.700
 1912POPC   C2B26672  39.658  25.037   8.345
 1912POPC   C3B26673  39.663  24.979   7.913
 1912POPC   C4B26674  39.511  24.871   7.502
 1913POPC   NC326675  14.525  27.546   9.423
 1913POPC   PO426676  13.888  27.245   9.421
 1913POPC   GL126677  14.190  27.447   9.071
 1913POPC   GL226678  14.168  27.834   9.109
 1913POPC   C1A26679  14.601  27.457   8.767
 1913POPC   D2A26680  14.773  27.273   8.366
 1913POPC   C3A26681  14.636  27.410   7.949
 1913POPC   C4A26682  14.218  27.462   7.840
 1913POPC   C1B26683  14.218  27.753   8.665
 1913POPC   C2B26684  14.375  27.725   8.259
 1913POPC   C3B26685  14.283  27.976   7.865
 1913POPC   C4B26686  14.061  27.968   7.429
 1914POPC   NC326687  33.334   3.363   9.595
 1914POPC   PO426688  32.687   3.542   9.446
 1914POPC   GL126689  33.022   3.467   9.197
 1914POPC   GL226690  33.162   3.775   9.147
 1914POPC   C1A26691  33.135   3.330   8.793
 1914POPC   D2A26692  33.086   3.548   8.414
 1914POPC   C3A26693  33.154   3.357   8.044
 1914POPC   C4A26694  32.854   3.525   7.753
 1914POPC   C1B26695  33.414   3.778   8.773
 1914POPC   C2B26696  33.367   3.959   8.355
 1914POPC   C3B26697  33.203   3.862   7.942
 1914POPC   C4B26698  33.239   3.693   7.492
 1915POPC   NC326699  41.091  16.624   9.519
 1915POPC   PO426700  40.634  17.102   9.670
 1915POPC   GL126701  40.644  16.996   9.191
 1915POPC   GL226702  40.491  16.645   9.100
 1915POPC   C1A26703  40.733  16.940   8.739
 1915POPC   D2A26704  40.559  16.582   8.490
 1915POPC   C3A26705  40.727  16.622   8.085
 1915POPC   C4A26706  40.993  16.803   7.773
 1915POPC   C1B26707  40.878  16.474   8.893
 1915POPC   C2B26708  40.968  16.211   8.531
 1915POPC   C3B26709  41.131  16.219   8.099
 1915POPC   C4B26710  41.247  16.366   7.676
 1916POPC   NC326711  27.418  42.740   9.375
 1916POPC   PO426712  27.732  42.198   9.632
 1916POPC   GL126713  27.715  42.180   9.175
 1916POPC   GL226714  27.711  42.508   9.029
 1916POPC   C1A26715  27.718  42.105   8.709
 1916POPC   D2A26716  27.520  42.213   8.277
 1916POPC   C3A26717  27.747  42.303   7.867
 1916POPC   C4A26718  27.472  42.264   7.504
 1916POPC   C1B26719  27.364  42.476   8.702
 1916POPC   C2B26720  27.195  42.619   8.307
 1916POPC   C3B26721  27.317  42.607   7.889
 1916POPC   C4B26722  27.522  42.745   7.513
 1917POPC   NC326723  31.101  30.595   9.786
 1917POPC   PO426724  30.502  30.485   9.525
 1917POPC   GL126725  30.690  30.587   9.137
 1917POPC   GL226726  31.015  30.467   9.093
 1917POPC   C1A26727  30.699  30.772   8.715
 1917POPC   D2A26728  30.412  30.760   8.361
 1917POPC   C3A26729  30.546  30.919   7.948
 1917POPC   C4A26730  30.626  31.027   7.491
 1917POPC   C1B26731  31.169  30.542   8.676
 1917POPC   C2B26732  31.280  30.402   8.279
 1917POPC   C3B26733  31.105  30.290   7.902
 1917POPC   C4B26734  30.878  30.614   7.693
 1918POPC   NC326735  13.670  34.139   9.497
 1918POPC   PO426736  13.120  34.452   9.472
 1918POPC   GL126737  13.227  34.608   9.105
 1918POPC   GL226738  13.499  34.826   9.028
 1918POPC   C1A26739  13.260  34.437   8.741
 1918POPC   D2A26740  13.546  34.489   8.426
 1918POPC   C3A26741  13.392  34.510   8.045
 1918POPC   C4A26742  13.498  34.316   7.675
 1918POPC   C1B26743  13.881  34.715   8.774
 1918POPC   C2B26744  14.031  34.626   8.372
 1918POPC   C3B26745  13.898  34.509   7.960
 1918POPC   C4B26746  14.192  34.610   7.675
 1919POPC   NC326747  34.854   2.460   9.816
 1919POPC   PO426748  34.713   2.913   9.351
 1919POPC   GL126749  34.547   2.870   9.011
 1919POPC   GL226750  34.452   2.522   8.961
 1919POPC   C1A26751  34.566   3.100   8.689
 1919POPC   D2A26752  34.423   2.994   8.328
 1919POPC   C3A26753  34.628   3.122   7.987
 1919POPC   C4A26754  34.650   3.036   7.553
 1919POPC   C1B26755  34.787   2.638   8.628
 1919POPC   C2B26756  34.788   2.672   8.173
 1919POPC   C3B26757  34.559   2.612   7.807
 1919POPC   C4B26758  34.960   2.614   7.589
 1920POPC   NC326759  15.746  26.543   9.408
 1920POPC   PO426760  16.271  26.953   9.435
 1920POPC   GL126761  16.208  26.615   9.134
 1920POPC   GL226762  15.893  26.786   9.003
 1920POPC   C1A26763  16.172  26.462   8.697
 1920POPC   D2A26764  15.890  26.662   8.445
 1920POPC   C3A26765  15.807  26.501   8.080
 1920POPC   C4A26766  15.775  26.662   7.705
 1920POPC   C1B26767  16.170  26.983   8.768
 1920POPC   C2B26768  16.243  27.038   8.358
 1920POPC   C3B26769  16.037  27.074   7.975
 1920POPC   C4B26770  16.268  26.958   7.639
 1921POPC   NC326771  14.910  41.926   9.557
 1921POPC   PO426772  14.544  42.505   9.506
 1921POPC   GL126773  14.549  42.264   9.155
 1921POPC   GL226774  14.295  42.521   9.067
 1921POPC   C1A26775  14.319  42.074   8.789
 1921POPC   D2A26776  14.279  42.275   8.383
 1921POPC   C3A26777  14.350  42.137   8.004
 1921POPC   C4A26778  14.202  42.040   7.634
 1921POPC   C1B26779  14.561  42.529   8.730
 1921POPC   C2B26780  14.550  42.712   8.354
 1921POPC   C3B26781  14.653  42.563   7.946
 1921POPC   C4B26782  14.652  42.257   7.588
 1922POPC   NC326783  41.661   0.060   9.785
 1922POPC   PO426784  41.532  44.458   9.591
 1922POPC   GL126785  41.680  44.566   9.171
 1922POPC   GL226786  41.792  44.907   9.281
 1922POPC   C1A26787  41.520  44.501   8.728
 1922POPC   D2A26788  41.680  44.208   8.395
 1922POPC   C3A26789  41.519  44.399   8.025
 1922POPC   C4A26790  41.255  44.695   7.788
 1922POPC   C1B26791  41.854  44.906   8.822
 1922POPC   C2B26792  41.691   0.035   8.418
 1922POPC   C3B26793  41.650  44.911   8.005
 1922POPC   C4B26794  41.813  44.930   7.577
 1923POPC   NC326795   6.065  33.146   9.471
 1923POPC   PO426796   6.086  32.527   9.681
 1923POPC   GL126797   6.154  32.709   9.213
 1923POPC   GL226798   6.039  33.004   8.992
 1923POPC   C1A26799   6.203  32.573   8.791
 1923POPC   D2A26800   6.210  32.879   8.438
 1923POPC   C3A26801   6.123  32.779   8.017
 1923POPC   C4A26802   6.095  32.997   7.575
 1923POPC   C1B26803   5.730  32.842   8.700
 1923POPC   C2B26804   5.680  32.894   8.264
 1923POPC   C3B26805   5.829  33.196   7.967
 1923POPC   C4B26806   5.629  33.563   7.848
 1924POPC   NC326807   2.748  30.193   9.379
 1924POPC   PO426808   3.208  29.609   9.561
 1924POPC   GL126809   3.041  29.766   9.123
 1924POPC   GL226810   2.694  29.762   9.079
 1924POPC   C1A26811   3.006  30.107   8.751
 1924POPC   D2A26812   3.024  30.444   8.404
 1924POPC   C3A26813   3.112  30.226   8.010
 1924POPC   C4A26814   2.984  29.945   7.692
 1924POPC   C1B26815   2.531  29.897   8.678
 1924POPC   C2B26816   2.563  30.226   8.400
 1924POPC   C3B26817   2.601  30.164   7.976
 1924POPC   C4B26818   2.484  29.806   7.734
 1925POPC   NC326819  31.880  37.908   9.462
 1925POPC   PO426820  32.268  37.365   9.445
 1925POPC   GL126821  32.179  37.665   9.116
 1925POPC   GL226822  32.359  37.998   9.182
 1925POPC   C1A26823  31.950  37.669   8.732
 1925POPC   D2A26824  32.125  37.532   8.356
 1925POPC   C3A26825  32.043  37.663   7.939
 1925POPC   C4A26826  32.419  37.717   7.679
 1925POPC   C1B26827  32.107  38.162   8.823
 1925POPC   C2B26828  32.034  38.041   8.388
 1925POPC   C3B26829  32.352  38.038   8.089
 1925POPC   C4B26830  32.275  38.238   7.717
 1926POPC   NC326831  34.490  35.790   9.519
 1926POPC   PO426832  34.236  35.175   9.452
 1926POPC   GL126833  34.255  35.386   9.104
 1926POPC   GL226834  34.582  35.449   9.099
 1926POPC   C1A26835  34.364  35.183   8.704
 1926POPC   D2A26836  34.594  35.126   8.346
 1926POPC   C3A26837  34.302  35.146   7.996
 1926POPC   C4A26838  34.412  35.502   7.716
 1926POPC   C1B26839  34.797  35.498   8.737
 1926POPC   C2B26840  34.704  35.625   8.339
 1926POPC   C3B26841  34.833  35.727   7.968
 1926POPC   C4B26842  34.999  35.529   7.668
 1927POPC   NC326843  11.407  18.788   9.438
 1927POPC   PO426844  11.006  19.302   9.346
 1927POPC   GL126845  11.272  19.148   9.087
 1927POPC   GL226846  11.497  19.443   9.013
 1927POPC   C1A26847  11.172  18.828   8.762
 1927POPC   D2A26848  10.976  18.963   8.374
 1927POPC   C3A26849  11.160  18.939   7.970
 1927POPC   C4A26850  11.269  18.747   7.591
 1927POPC   C1B26851  11.605  19.086   8.721
 1927POPC   C2B26852  11.575  18.937   8.284
 1927POPC   C3B26853  11.664  19.024   7.815
 1927POPC   C4B26854  11.683  18.964   7.346
 1928POPC   NC326855   5.947   4.700   9.747
 1928POPC   PO426856   5.574   4.163   9.477
 1928POPC   GL126857   5.696   4.080   9.076
 1928POPC   GL226858   6.046   4.042   9.056
 1928POPC   C1A26859   5.651   4.282   8.686
 1928POPC   D2A26860   5.772   4.213   8.274
 1928POPC   C3A26861   5.483   4.435   8.025
 1928POPC   C4A26862   5.555   4.697   7.686
 1928POPC   C1B26863   6.139   4.372   8.728
 1928POPC   C2B26864   6.227   4.479   8.302
 1928POPC   C3B26865   6.101   4.541   7.859
 1928POPC   C4B26866   6.097   4.395   7.389
 1929POPC   NC326867  34.242  38.133   9.383
 1929POPC   PO426868  34.803  37.807   9.493
 1929POPC   GL126869  34.606  37.680   9.094
 1929POPC   GL226870  34.299  37.450   9.046
 1929POPC   C1A26871  34.415  37.861   8.740
 1929POPC   D2A26872  34.632  38.123   8.456
 1929POPC   C3A26873  34.816  37.950   8.097
 1929POPC   C4A26874  34.567  37.684   7.835
 1929POPC   C1B26875  34.550  37.353   8.687
 1929POPC   C2B26876  34.483  37.162   8.288
 1929POPC   C3B26877  34.346  37.215   7.858
 1929POPC   C4B26878  34.598  37.320   7.491
 1930POPC   NC326879   5.945  30.605   9.460
 1930POPC   PO426880   5.447  31.103   9.401
 1930POPC   GL126881   5.670  30.826   9.104
 1930POPC   GL226882   5.669  30.435   9.056
 1930POPC   C1A26883   5.985  30.779   8.788
 1930POPC   D2A26884   6.048  30.995   8.401
 1930POPC   C3A26885   5.835  30.798   8.055
 1930POPC   C4A26886   5.918  30.848   7.632
 1930POPC   C1B26887   5.887  30.230   8.734
 1930POPC   C2B26888   6.020  30.331   8.313
 1930POPC   C3B26889   6.016  30.302   7.877
 1930POPC   C4B26890   6.208  30.462   7.516
 1931POPC   NC326891  38.170  11.795   9.291
 1931POPC   PO426892  38.210  12.254   9.798
 1931POPC   GL126893  37.981  12.267   9.336
 1931POPC   GL226894  37.696  12.094   9.251
 1931POPC   C1A26895  37.964  12.273   8.838
 1931POPC   D2A26896  37.707  12.259   8.427
 1931POPC   C3A26897  37.877  12.290   8.033
 1931POPC   C4A26898  37.750  12.255   7.657
 1931POPC   C1B26899  37.543  11.989   8.838
 1931POPC   C2B26900  37.409  11.820   8.434
 1931POPC   C3B26901  37.445  11.958   8.027
 1931POPC   C4B26902  37.786  11.790   7.853
 1932POPC   NC326903  18.050  24.333   9.581
 1932POPC   PO426904  18.556  24.801   9.551
 1932POPC   GL126905  18.405  24.610   9.197
 1932POPC   GL226906  18.046  24.601   9.161
 1932POPC   C1A26907  18.472  24.532   8.758
 1932POPC   D2A26908  18.239  24.636   8.379
 1932POPC   C3A26909  18.381  24.659   7.934
 1932POPC   C4A26910  18.515  24.339   7.701
 1932POPC   C1B26911  17.925  24.394   8.774
 1932POPC   C2B26912  17.933  24.219   8.332
 1932POPC   C3B26913  17.976  24.321   7.872
 1932POPC   C4B26914  17.791  24.250   7.417
 1933POPC   NC326915  33.488  27.761   9.484
 1933POPC   PO426916  34.136  27.476   9.579
 1933POPC   GL126917  33.913  27.652   9.223
 1933POPC   GL226918  33.635  27.476   9.069
 1933POPC   C1A26919  34.014  27.779   8.821
 1933POPC   D2A26920  33.855  27.574   8.462
 1933POPC   C3A26921  34.131  27.460   8.099
 1933POPC   C4A26922  34.097  27.649   7.709
 1933POPC   C1B26923  33.488  27.808   8.787
 1933POPC   C2B26924  33.389  27.867   8.351
 1933POPC   C3B26925  33.674  27.732   8.014
 1933POPC   C4B26926  33.650  27.359   7.763
 1934POPC   NC326927  32.771   7.022   9.513
 1934POPC   PO426928  32.625   6.385   9.761
 1934POPC   GL126929  32.736   6.408   9.309
 1934POPC   GL226930  33.040   6.605   9.267
 1934POPC   C1A26931  32.731   6.305   8.856
 1934POPC   D2A26932  32.597   6.280   8.391
 1934POPC   C3A26933  32.848   6.270   8.012
 1934POPC   C4A26934  33.206   6.211   7.723
 1934POPC   C1B26935  33.153   6.603   8.819
 1934POPC   C2B26936  33.051   6.575   8.382
 1934POPC   C3B26937  33.170   6.683   7.944
 1934POPC   C4B26938  33.266   7.056   7.706
 1935POPC   NC326939   9.049   1.506   9.485
 1935POPC   PO426940   8.847   0.845   9.471
 1935POPC   GL126941   9.027   1.110   9.112
 1935POPC   GL226942   8.803   1.388   9.064
 1935POPC   C1A26943   9.063   1.322   8.664
 1935POPC   D2A26944   9.186   1.500   8.255
 1935POPC   C3A26945   9.016   1.201   7.952
 1935POPC   C4A26946   8.925   1.231   7.497
 1935POPC   C1B26947   8.619   1.598   8.684
 1935POPC   C2B26948   8.683   1.555   8.204
 1935POPC   C3B26949   8.865   1.657   7.791
 1935POPC   C4B26950   9.099   1.813   7.398
 1936POPC   NC326951  31.951  42.808   9.409
 1936POPC   PO426952  32.336  42.171   9.498
 1936POPC   GL126953  32.364  42.193   9.110
 1936POPC   GL226954  32.312  42.531   9.125
 1936POPC   C1A26955  32.213  42.246   8.710
 1936POPC   D2A26956  32.221  42.034   8.337
 1936POPC   C3A26957  32.130  42.159   7.934
 1936POPC   C4A26958  32.152  42.558   7.760
 1936POPC   C1B26959  32.615  42.547   8.783
 1936POPC   C2B26960  32.454  42.494   8.338
 1936POPC   C3B26961  32.605  42.391   7.938
 1936POPC   C4B26962  32.651  42.777   7.746
 1937POPC   NC326963  27.817  25.339   9.855
 1937POPC   PO426964  27.249  25.465   9.500
 1937POPC   GL126965  27.641  25.269   9.258
 1937POPC   GL226966  27.783  24.929   9.151
 1937POPC   C1A26967  27.554  25.197   8.804
 1937POPC   D2A26968  27.452  25.433   8.455
 1937POPC   C3A26969  27.537  25.344   8.028
 1937POPC   C4A26970  27.450  25.379   7.568
 1937POPC   C1B26971  27.967  24.880   8.738
 1937POPC   C2B26972  27.709  24.952   8.368
 1937POPC   C3B26973  27.461  24.857   7.999
 1937POPC   C4B26974  27.769  25.005   7.705
 1938POPC   NC326975  24.618   5.654   9.568
 1938POPC   PO426976  23.954   5.910   9.595
 1938POPC   GL126977  24.127   5.941   9.166
 1938POPC   GL226978  24.535   5.987   9.145
 1938POPC   C1A26979  24.198   5.849   8.720
 1938POPC   D2A26980  24.514   5.972   8.401
 1938POPC   C3A26981  24.476   5.801   7.969
 1938POPC   C4A26982  24.441   5.667   7.521
 1938POPC   C1B26983  24.901   6.234   8.905
 1938POPC   C2B26984  25.021   6.241   8.437
 1938POPC   C3B26985  24.950   6.370   7.969
 1938POPC   C4B26986  24.689   6.133   7.618
 1939POPC   NC326987  26.234  25.050   9.291
 1939POPC   PO426988  25.707  25.348   9.538
 1939POPC   GL126989  25.849  25.337   9.097
 1939POPC   GL226990  26.215  25.416   8.949
 1939POPC   C1A26991  25.915  25.134   8.682
 1939POPC   D2A26992  25.932  25.339   8.275
 1939POPC   C3A26993  25.839  25.096   7.898
 1939POPC   C4A26994  25.977  25.066   7.437
 1939POPC   C1B26995  26.485  25.675   8.693
 1939POPC   C2B26996  26.493  25.605   8.259
 1939POPC   C3B26997  26.380  25.259   8.010
 1939POPC   C4B26998  26.159  25.440   7.730
 1940POPC   NC326999   7.627  23.975   9.450
 1940POPC   PO427000   7.153  23.575   9.302
 1940POPC   GL127001   7.339  23.541   8.917
 1940POPC   GL227002   7.652  23.675   9.004
 1940POPC   C1A27003   7.625  23.396   8.577
 1940POPC   D2A27004   7.989  23.551   8.338
 1940POPC   C3A27005   7.818  23.553   7.948
 1940POPC   C4A27006   7.408  23.418   7.984
 1940POPC   C1B27007   7.548  24.022   8.746
 1940POPC   C2B27008   7.477  24.208   8.363
 1940POPC   C3B27009   7.442  23.959   8.006
 1940POPC   C4B27010   7.450  24.164   7.643
 1941POPC   NC327011  31.652  13.097   9.527
 1941POPC   PO427012  31.262  12.565   9.465
 1941POPC   GL127013  31.629  12.629   9.158
 1941POPC   GL227014  31.793  12.965   9.074
 1941POPC   C1A27015  31.719  12.602   8.739
 1941POPC   D2A27016  31.407  12.708   8.436
 1941POPC   C3A27017  31.440  12.600   8.027
 1941POPC   C4A27018  31.721  12.844   7.784
 1941POPC   C1B27019  31.396  13.009   8.879
 1941POPC   C2B27020  31.335  13.196   8.477
 1941POPC   C3B27021  31.232  13.081   8.067
 1941POPC   C4B27022  31.222  13.194   7.654
 1942POPC   NC327023  42.108  25.969   9.523
 1942POPC   PO427024  42.537  26.357   9.469
 1942POPC   GL127025  42.414  26.069   9.111
 1942POPC   GL227026  42.127  25.801   9.061
 1942POPC   C1A27027  42.327  26.101   8.679
 1942POPC   D2A27028  42.626  26.243   8.364
 1942POPC   C3A27029  42.534  26.023   8.033
 1942POPC   C4A27030  42.142  26.214   7.847
 1942POPC   C1B27031  42.030  25.601   8.699
 1942POPC   C2B27032  41.994  25.784   8.321
 1942POPC   C3B27033  42.148  25.698   7.943
 1942POPC   C4B27034  42.023  25.796   7.553
 1943POPC   NC327035  44.825   3.914   9.422
 1943POPC   PO427036  44.556   3.304   9.687
 1943POPC   GL127037  44.637   3.410   9.264
 1943POPC   GL227038  44.384   3.648   9.265
 1943POPC   C1A27039  44.594   3.331   8.812
 1943POPC   D2A27040  44.452   3.237   8.386
 1943POPC   C3A27041  44.607   3.414   8.022
 1943POPC   C4A27042  44.650   3.252   7.620
 1943POPC   C1B27043  44.228   3.697   8.852
 1943POPC   C2B27044  44.343   3.730   8.414
 1943POPC   C3B27045  44.135   3.652   8.039
 1943POPC   C4B27046  44.257   3.570   7.635
 1944POPC   NC327047   1.010  14.127   9.503
 1944POPC   PO427048   1.362  14.726   9.403
 1944POPC   GL127049   1.080  14.494   9.125
 1944POPC   GL227050   1.380  14.269   9.106
 1944POPC   C1A27051   1.089  14.297   8.679
 1944POPC   D2A27052   1.459  14.277   8.367
 1944POPC   C3A27053   1.364  14.424   7.918
 1944POPC   C4A27054   0.933  14.423   7.813
 1944POPC   C1B27055   1.436  13.951   8.787
 1944POPC   C2B27056   1.186  13.831   8.473
 1944POPC   C3B27057   1.136  14.007   8.098
 1944POPC   C4B27058   1.177  13.990   7.646
 1945POPC   NC327059  43.116  11.347   9.461
 1945POPC   PO427060  43.153  10.720   9.498
 1945POPC   GL127061  42.980  10.977   9.115
 1945POPC   GL227062  42.812  11.356   9.053
 1945POPC   C1A27063  43.221  11.234   8.791
 1945POPC   D2A27064  43.311  11.520   8.466
 1945POPC   C3A27065  43.226  11.341   8.080
 1945POPC   C4A27066  43.298  11.478   7.697
 1945POPC   C1B27067  42.667  11.535   8.652
 1945POPC   C2B27068  42.835  11.638   8.260
 1945POPC   C3B27069  42.842  11.659   7.829
 1945POPC   C4B27070  42.871  11.412   7.456
 1946POPC   NC327071  25.321   2.185   9.219
 1946POPC   PO427072  25.307   2.830   9.424
 1946POPC   GL127073  24.978   2.808   9.115
 1946POPC   GL227074  24.747   2.492   9.144
 1946POPC   C1A27075  25.191   2.852   8.727
 1946POPC   D2A27076  25.487   2.759   8.409
 1946POPC   C3A27077  25.266   2.865   8.040
 1946POPC   C4A27078  25.467   3.037   7.730
 1946POPC   C1B27079  24.934   2.394   8.760
 1946POPC   C2B27080  25.025   2.515   8.368
 1946POPC   C3B27081  25.223   2.344   8.054
 1946POPC   C4B27082  25.043   2.514   7.708
 1947POPC   NC327083   4.694  36.018   9.347
 1947POPC   PO427084   4.022  36.149   9.583
 1947POPC   GL127085   4.230  36.210   9.191
 1947POPC   GL227086   4.495  36.468   9.151
 1947POPC   C1A27087   4.283  36.061   8.794
 1947POPC   D2A27088   4.225  36.255   8.414
 1947POPC   C3A27089   4.267  36.001   8.087
 1947POPC   C4A27090   4.214  36.090   7.682
 1947POPC   C1B27091   4.743  36.287   8.777
 1947POPC   C2B27092   4.674  35.988   8.449
 1947POPC   C3B27093   4.820  35.962   8.068
 1947POPC   C4B27094   4.691  36.008   7.660
 1948POPC   NC327095  14.802  39.476   9.384
 1948POPC   PO427096  15.488  39.212   9.549
 1948POPC   GL127097  15.229  39.231   9.189
 1948POPC   GL227098  14.971  38.998   9.172
 1948POPC   C1A27099  15.320  39.236   8.757
 1948POPC   D2A27100  15.203  39.346   8.359
 1948POPC   C3A27101  15.326  39.068   8.033
 1948POPC   C4A27102  15.331  39.226   7.637
 1948POPC   C1B27103  14.825  39.056   8.774
 1948POPC   C2B27104  14.856  38.975   8.340
 1948POPC   C3B27105  14.846  39.151   7.925
 1948POPC   C4B27106  14.516  39.201   7.669
 1949POPC   NC327107   8.167   1.066   9.479
 1949POPC   PO427108   8.537   1.596   9.442
 1949POPC   GL127109   8.311   1.316   9.081
 1949POPC   GL227110   8.492   0.952   9.100
 1949POPC   C1A27111   8.052   1.032   8.768
 1949POPC   D2A27112   7.838   1.125   8.339
 1949POPC   C3A27113   7.977   1.026   7.926
 1949POPC   C4A27114   8.038   1.331   7.650
 1949POPC   C1B27115   8.560   1.090   8.693
 1949POPC   C2B27116   8.634   1.047   8.274
 1949POPC   C3B27117   8.488   1.184   7.870
 1949POPC   C4B27118   8.337   0.916   7.521
 1950POPC   NC327119  36.872   3.816   9.555
 1950POPC   PO427120  37.212   3.311   9.743
 1950POPC   GL127121  37.039   3.464   9.241
 1950POPC   GL227122  36.929   3.156   9.015
 1950POPC   C1A27123  36.875   3.610   8.821
 1950POPC   D2A27124  36.785   3.776   8.424
 1950POPC   C3A27125  36.710   3.564   8.025
 1950POPC   C4A27126  36.899   3.705   7.643
 1950POPC   C1B27127  37.204   3.186   8.667
 1950POPC   C2B27128  37.116   3.398   8.315
 1950POPC   C3B27129  37.173   3.377   7.894
 1950POPC   C4B27130  36.833   3.146   7.693
 1951POPC   NC327131  23.234  40.660   9.462
 1951POPC   PO427132  22.839  40.158   9.659
 1951POPC   GL127133  22.792  40.482   9.216
 1951POPC   GL227134  23.077  40.712   9.005
 1951POPC   C1A27135  22.847  40.377   8.733
 1951POPC   D2A27136  23.200  40.491   8.493
 1951POPC   C3A27137  23.156  40.741   8.098
 1951POPC   C4A27138  22.852  40.902   7.777
 1951POPC   C1B27139  22.797  40.887   8.695
 1951POPC   C2B27140  22.816  41.071   8.280
 1951POPC   C3B27141  23.091  41.288   7.970
 1951POPC   C4B27142  22.783  41.442   7.700
 1952POPC   NC327143  10.995  35.556   9.380
 1952POPC   PO427144  11.564  35.991   9.553
 1952POPC   GL127145  11.437  36.075   9.125
 1952POPC   GL227146  11.102  35.987   9.139
 1952POPC   C1A27147  11.359  36.007   8.676
 1952POPC   D2A27148  11.503  36.276   8.339
 1952POPC   C3A27149  11.547  36.110   7.928
 1952POPC   C4A27150  11.526  36.289   7.516
 1952POPC   C1B27151  10.848  35.789   8.811
 1952POPC   C2B27152  10.868  35.871   8.416
 1952POPC   C3B27153  11.042  36.137   8.152
 1952POPC   C4B27154  11.058  36.140   7.729
 1953POPC   NC327155  37.512  42.864   9.484
 1953POPC   PO427156  38.116  43.112   9.580
 1953POPC   GL127157  37.908  43.028   9.201
 1953POPC   GL227158  37.965  43.316   9.078
 1953POPC   C1A27159  37.695  42.863   8.819
 1953POPC   D2A27160  37.542  43.025   8.429
 1953POPC   C3A27161  37.595  42.808   8.045
 1953POPC   C4A27162  37.409  42.965   7.695
 1953POPC   C1B27163  37.992  43.295   8.663
 1953POPC   C2B27164  37.821  43.435   8.314
 1953POPC   C3B27165  37.773  43.307   7.922
 1953POPC   C4B27166  37.969  42.979   7.743
 1954POPC   NC327167  11.767  11.928   9.487
 1954POPC   PO427168  11.138  11.699   9.275
 1954POPC   GL127169  11.436  11.963   9.093
 1954POPC   GL227170  11.676  11.723   9.036
 1954POPC   C1A27171  11.387  12.115   8.690
 1954POPC   D2A27172  10.991  12.054   8.476
 1954POPC   C3A27173  11.102  12.115   8.044
 1954POPC   C4A27174  11.570  12.199   7.957
 1954POPC   C1B27175  11.495  11.617   8.654
 1954POPC   C2B27176  11.515  11.793   8.265
 1954POPC   C3B27177  11.359  11.723   7.870
 1954POPC   C4B27178  10.943  11.738   7.721
 1955POPC   NC327179   3.234  42.823   9.336
 1955POPC   PO427180   3.665  42.348   9.595
 1955POPC   GL127181   3.759  42.394   9.156
 1955POPC   GL227182   3.721  42.765   9.157
 1955POPC   C1A27183   3.581  42.178   8.760
 1955POPC   D2A27184   3.200  42.170   8.458
 1955POPC   C3A27185   3.253  42.263   8.016
 1955POPC   C4A27186   3.468  42.062   7.623
 1955POPC   C1B27187   3.759  42.672   8.722
 1955POPC   C2B27188   3.612  42.498   8.345
 1955POPC   C3B27189   3.770  42.372   7.957
 1955POPC   C4B27190   3.903  42.612   7.615
 1956POPC   NC327191  43.003  38.081   9.461
 1956POPC   PO427192  43.604  38.228   9.288
 1956POPC   GL127193  43.227  38.504   9.181
 1956POPC   GL227194  42.962  38.799   9.097
 1956POPC   C1A27195  43.163  38.473   8.737
 1956POPC   D2A27196  43.447  38.578   8.380
 1956POPC   C3A27197  43.230  38.432   8.049
 1956POPC   C4A27198  43.176  38.063   7.870
 1956POPC   C1B27199  42.762  38.824   8.681
 1956POPC   C2B27200  42.578  38.522   8.375
 1956POPC   C3B27201  42.730  38.283   8.052
 1956POPC   C4B27202  42.850  38.459   7.667
 1957POPC   NC327203  33.144  26.995   9.618
 1957POPC   PO427204  33.396  26.440   9.377
 1957POPC   GL127205  33.211  26.687   9.111
 1957POPC   GL227206  32.884  26.850   9.163
 1957POPC   C1A27207  33.091  26.718   8.696
 1957POPC   D2A27208  33.163  27.008   8.390
 1957POPC   C3A27209  33.130  26.805   8.052
 1957POPC   C4A27210  33.146  26.486   7.813
 1957POPC   C1B27211  32.793  27.129   8.745
 1957POPC   C2B27212  32.630  27.049   8.303
 1957POPC   C3B27213  32.821  27.164   7.894
 1957POPC   C4B27214  33.128  27.210   7.601
 1958POPC   NC327215  35.600  14.823  10.013
 1958POPC   PO427216  35.171  14.322   9.634
 1958POPC   GL127217  35.110  14.185   9.209
 1958POPC   GL227218  35.415  14.357   9.158
 1958POPC   C1A27219  35.212  14.099   8.752
 1958POPC   D2A27220  35.400  14.237   8.367
 1958POPC   C3A27221  35.184  14.186   7.994
 1958POPC   C4A27222  35.367  14.363   7.686
 1958POPC   C1B27223  35.445  14.536   8.773
 1958POPC   C2B27224  35.459  14.844   8.480
 1958POPC   C3B27225  35.413  14.732   8.075
 1958POPC   C4B27226  35.245  14.872   7.698
 1959POPC   NC327227  32.114   3.953   9.509
 1959POPC   PO427228  32.620   4.374   9.687
 1959POPC   GL127229  32.398   4.428   9.282
 1959POPC   GL227230  32.553   4.657   9.073
 1959POPC   C1A27231  32.257   4.304   8.847
 1959POPC   D2A27232  32.006   4.340   8.442
 1959POPC   C3A27233  32.117   4.084   8.062
 1959POPC   C4A27234  32.018   4.106   7.637
 1959POPC   C1B27235  32.746   4.500   8.724
 1959POPC   C2B27236  32.502   4.481   8.414
 1959POPC   C3B27237  32.370   4.525   8.067
 1959POPC   C4B27238  32.439   4.399   7.670
 1960POPC   NC327239  28.183   0.415   9.459
 1960POPC   PO427240  28.689   0.209   9.827
 1960POPC   GL127241  28.643   0.394   9.302
 1960POPC   GL227242  28.531   0.635   9.093
 1960POPC   C1A27243  28.444   0.153   8.887
 1960POPC   D2A27244  28.335   0.101   8.432
 1960POPC   C3A27245  28.509   0.423   8.164
 1960POPC   C4A27246  28.708   0.476   7.723
 1960POPC   C1B27247  28.383   0.626   8.691
 1960POPC   C2B27248  27.982   0.535   8.539
 1960POPC   C3B27249  27.893   0.576   8.122
 1960POPC   C4B27250  28.185   0.601   7.790
 1961POPC   NC327251  21.164  24.649   9.585
 1961POPC   PO427252  21.213  24.118   9.216
 1961POPC   GL127253  21.449  24.511   9.162
 1961POPC   GL227254  21.224  24.827   9.120
 1961POPC   C1A27255  21.670  24.503   8.780
 1961POPC   D2A27256  21.453  24.282   8.487
 1961POPC   C3A27257  21.533  24.403   8.103
 1961POPC   C4A27258  21.359  24.258   7.758
 1961POPC   C1B27259  21.285  24.854   8.716
 1961POPC   C2B27260  21.160  24.728   8.319
 1961POPC   C3B27261  21.336  24.849   7.957
 1961POPC   C4B27262  21.336  24.723   7.536
 1962POPC   NC327263   5.820  39.026   9.527
 1962POPC   PO427264   5.990  39.739   9.503
 1962POPC   GL127265   6.108  39.487   9.180
 1962POPC   GL227266   5.827  39.303   9.101
 1962POPC   C1A27267   6.167  39.472   8.746
 1962POPC   D2A27268   5.972  39.217   8.442
 1962POPC   C3A27269   6.243  39.087   8.115
 1962POPC   C4A27270   6.377  39.409   7.841
 1962POPC   C1B27271   5.691  38.971   8.824
 1962POPC   C2B27272   5.556  38.881   8.405
 1962POPC   C3B27273   5.665  39.137   8.031
 1962POPC   C4B27274   5.974  39.133   7.693
 1963POPC   NC327275   5.003  10.919   9.638
 1963POPC   PO427276   4.971  10.274   9.727
 1963POPC   GL127277   4.961  10.557   9.270
 1963POPC   GL227278   5.085  10.866   9.103
 1963POPC   C1A27279   4.937  10.497   8.786
 1963POPC   D2A27280   5.155  10.621   8.386
 1963POPC   C3A27281   5.112  10.385   8.012
 1963POPC   C4A27282   4.777  10.358   7.728
 1963POPC   C1B27283   4.903  11.010   8.712
 1963POPC   C2B27284   4.675  10.829   8.376
 1963POPC   C3B27285   4.856  10.815   7.965
 1963POPC   C4B27286   5.051  10.726   7.540
 1964POPC   NC327287  32.109  35.421   9.728
 1964POPC   PO427288  31.507  35.452   9.436
 1964POPC   GL127289  31.516  35.308   9.041
 1964POPC   GL227290  31.193  35.183   8.967
 1964POPC   C1A27291  31.753  35.306   8.651
 1964POPC   D2A27292  31.973  35.454   8.305
 1964POPC   C3A27293  31.701  35.394   7.969
 1964POPC   C4A27294  31.446  35.208   7.668
 1964POPC   C1B27295  31.348  34.982   8.644
 1964POPC   C2B27296  31.352  35.163   8.259
 1964POPC   C3B27297  31.045  35.237   7.964
 1964POPC   C4B27298  31.050  34.861   7.753
 1965POPC   NC327299  14.829  25.099   9.586
 1965POPC   PO427300  15.378  25.490   9.672
 1965POPC   GL127301  15.206  25.363   9.292
 1965POPC   GL227302  15.356  25.073   9.211
 1965POPC   C1A27303  15.312  25.470   8.857
 1965POPC   D2A27304  15.089  25.333   8.478
 1965POPC   C3A27305  15.046  25.510   8.079
 1965POPC   C4A27306  15.028  25.333   7.628
 1965POPC   C1B27307  15.134  24.988   8.873
 1965POPC   C2B27308  15.045  24.821   8.471
 1965POPC   C3B27309  14.991  24.991   8.077
 1965POPC   C4B27310  15.184  24.875   7.715
 1966POPC   NC327311  33.521  29.406   9.404
 1966POPC   PO427312  34.147  29.194   9.486
 1966POPC   GL127313  33.915  29.120   9.095
 1966POPC   GL227314  33.620  28.999   9.111
 1966POPC   C1A27315  33.784  29.258   8.687
 1966POPC   D2A27316  33.997  29.130   8.301
 1966POPC   C3A27317  33.921  29.273   7.913
 1966POPC   C4A27318  34.224  29.319   7.625
 1966POPC   C1B27319  33.558  28.788   8.804
 1966POPC   C2B27320  33.563  28.867   8.424
 1966POPC   C3B27321  33.651  28.820   8.036
 1966POPC   C4B27322  33.596  28.951   7.684
 1967POPC   NC327323  15.063  36.345   9.561
 1967POPC   PO427324  15.515  35.768   9.410
 1967POPC   GL127325  15.220  35.977   9.104
 1967POPC   GL227326  15.037  36.296   9.065
 1967POPC   C1A27327  15.027  35.856   8.748
 1967POPC   D2A27328  15.027  36.085   8.402
 1967POPC   C3A27329  14.980  35.894   8.005
 1967POPC   C4A27330  15.149  36.098   7.649
 1967POPC   C1B27331  14.758  36.444   8.756
 1967POPC   C2B27332  14.581  36.318   8.380
 1967POPC   C3B27333  14.831  36.380   8.023
 1967POPC   C4B27334  14.928  36.645   7.684
 1968POPC   NC327335  33.386  20.899   9.443
 1968POPC   PO427336  32.849  20.424   9.569
 1968POPC   GL127337  33.025  20.493   9.199
 1968POPC   GL227338  32.811  20.774   9.117
 1968POPC   C1A27339  33.228  20.498   8.819
 1968POPC   D2A27340  33.069  20.590   8.424
 1968POPC   C3A27341  33.305  20.646   8.074
 1968POPC   C4A27342  33.034  20.368   7.859
 1968POPC   C1B27343  32.990  20.962   8.755
 1968POPC   C2B27344  33.158  21.087   8.342
 1968POPC   C3B27345  33.012  21.090   7.937
 1968POPC   C4B27346  32.730  20.756   7.803
 1969POPC   NC327347  13.069  40.361   9.476
 1969POPC   PO427348  12.739  39.895   9.166
 1969POPC   GL127349  12.988  40.205   9.008
 1969POPC   GL227350  12.787  40.471   9.043
 1969POPC   C1A27351  13.008  40.238   8.619
 1969POPC   D2A27352  12.804  39.922   8.432
 1969POPC   C3A27353  12.882  39.969   7.992
 1969POPC   C4A27354  13.010  40.380   7.779
 1969POPC   C1B27355  12.515  40.308   8.703
 1969POPC   C2B27356  12.606  40.354   8.263
 1969POPC   C3B27357  12.520  40.295   7.850
 1969POPC   C4B27358  12.608  40.463   7.448
 1970POPC   NC327359  24.110  26.365   9.568
 1970POPC   PO427360  23.460  26.156   9.547
 1970POPC   GL127361  23.700  26.293   9.194
 1970POPC   GL227362  23.996  26.106   9.151
 1970POPC   C1A27363  23.696  26.142   8.763
 1970POPC   D2A27364  23.511  26.112   8.400
 1970POPC   C3A27365  23.692  26.294   8.050
 1970POPC   C4A27366  23.655  26.187   7.625
 1970POPC   C1B27367  24.052  25.768   8.876
 1970POPC   C2B27368  23.797  25.686   8.522
 1970POPC   C3B27369  23.814  25.802   8.104
 1970POPC   C4B27370  24.103  26.023   7.838
 1971POPC   NC327371  19.242  14.716   9.396
 1971POPC   PO427372  18.809  15.211   9.353
 1971POPC   GL127373  18.989  15.307   9.031
 1971POPC   GL227374  19.228  15.589   9.124
 1971POPC   C1A27375  19.216  15.003   8.785
 1971POPC   D2A27376  19.212  14.676   8.480
 1971POPC   C3A27377  19.149  14.863   8.088
 1971POPC   C4A27378  19.018  14.988   7.678
 1971POPC   C1B27379  19.234  15.542   8.679
 1971POPC   C2B27380  19.217  15.284   8.358
 1971POPC   C3B27381  19.130  15.403   7.980
 1971POPC   C4B27382  19.292  15.410   7.601
 1972POPC   NC327383  23.984  10.386   9.629
 1972POPC   PO427384  23.499  10.777   9.697
 1972POPC   GL127385  23.653  10.647   9.273
 1972POPC   GL227386  23.347  10.622   9.094
 1972POPC   C1A27387  23.813  10.551   8.811
 1972POPC   D2A27388  23.904  10.728   8.363
 1972POPC   C3A27389  24.029  10.492   7.967
 1972POPC   C4A27390  24.126  10.505   7.504
 1972POPC   C1B27391  23.458  10.932   8.783
 1972POPC   C2B27392  23.383  10.935   8.341
 1972POPC   C3B27393  23.532  10.645   8.011
 1972POPC   C4B27394  23.734  10.777   7.628
 1973POPC   NC327395  20.622  18.573   9.442
 1973POPC   PO427396  20.805  19.242   9.514
 1973POPC   GL127397  20.725  19.003   9.144
 1973POPC   GL227398  20.480  19.227   9.090
 1973POPC   C1A27399  20.583  18.986   8.683
 1973POPC   D2A27400  20.784  18.918   8.315
 1973POPC   C3A27401  20.620  19.062   7.943
 1973POPC   C4A27402  20.746  18.803   7.613
 1973POPC   C1B27403  20.429  19.483   8.747
 1973POPC   C2B27404  20.535  19.395   8.344
 1973POPC   C3B27405  20.361  19.523   7.988
 1973POPC   C4B27406  20.402  19.357   7.574
 1974POPC   NC327407  33.317  18.462   9.451
 1974POPC   PO427408  32.942  17.883   9.457
 1974POPC   GL127409  33.197  18.024   9.139
 1974POPC   GL227410  33.562  18.047   9.161
 1974POPC   C1A27411  33.142  18.247   8.782
 1974POPC   D2A27412  33.332  18.345   8.386
 1974POPC   C3A27413  33.013  18.519   8.132
 1974POPC   C4A27414  32.919  18.421   7.707
 1974POPC   C1B27415  33.498  17.898   8.716
 1974POPC   C2B27416  33.243  17.823   8.331
 1974POPC   C3B27417  33.233  18.027   7.903
 1974POPC   C4B27418  33.183  17.991   7.422
 1975POPC   NC327419   9.709  25.561   9.452
 1975POPC   PO427420   9.945  24.913   9.586
 1975POPC   GL127421   9.675  25.100   9.193
 1975POPC   GL227422   9.937  25.282   9.048
 1975POPC   C1A27423   9.565  25.245   8.685
 1975POPC   D2A27424   9.998  25.244   8.417
 1975POPC   C3A27425  10.006  25.410   8.000
 1975POPC   C4A27426   9.747  25.453   7.645
 1975POPC   C1B27427   9.888  24.900   8.778
 1975POPC   C2B27428   9.663  24.846   8.374
 1975POPC   C3B27429   9.471  25.033   8.032
 1975POPC   C4B27430   9.591  24.968   7.625
 1976POPC   NC327431  30.084  12.327   9.455
 1976POPC   PO427432  29.454  12.298   9.269
 1976POPC   GL127433  29.822  12.118   9.048
 1976POPC   GL227434  30.200  12.041   9.045
 1976POPC   C1A27435  29.711  11.874   8.704
 1976POPC   D2A27436  29.484  11.670   8.354
 1976POPC   C3A27437  29.699  11.909   7.986
 1976POPC   C4A27438  29.899  11.884   7.544
 1976POPC   C1B27439  30.170  12.083   8.603
 1976POPC   C2B27440  30.003  12.294   8.245
 1976POPC   C3B27441  30.068  12.286   7.799
 1976POPC   C4B27442  30.118  12.291   7.314
 1977POPC   NC327443   8.929  28.311  10.167
 1977POPC   PO427444   9.033  28.469   9.512
 1977POPC   GL127445   9.030  28.197   9.204
 1977POPC   GL227446   8.687  28.272   9.125
 1977POPC   C1A27447   9.136  28.293   8.821
 1977POPC   D2A27448   8.894  28.364   8.489
 1977POPC   C3A27449   9.040  28.550   8.115
 1977POPC   C4A27450   9.135  28.410   7.710
 1977POPC   C1B27451   8.699  27.965   8.776
 1977POPC   C2B27452   8.569  27.775   8.374
 1977POPC   C3B27453   8.572  27.851   7.895
 1977POPC   C4B27454   8.788  28.051   7.573
 1978POPC   NC327455  41.626  16.254   9.563
 1978POPC   PO427456  41.769  15.492   9.580
 1978POPC   GL127457  41.515  15.757   9.255
 1978POPC   GL227458  41.638  16.085   9.097
 1978POPC   C1A27459  41.396  15.756   8.803
 1978POPC   D2A27460  41.600  15.871   8.421
 1978POPC   C3A27461  41.442  15.784   8.018
 1978POPC   C4A27462  41.737  15.853   7.687
 1978POPC   C1B27463  41.873  16.183   8.738
 1978POPC   C2B27464  41.726  16.416   8.403
 1978POPC   C3B27465  41.658  16.244   8.036
 1978POPC   C4B27466  41.761  16.373   7.678
 1979POPC   NC327467  35.447  30.382   9.393
 1979POPC   PO427468  35.256  29.846   9.666
 1979POPC   GL127469  35.215  29.835   9.209
 1979POPC   GL227470  35.505  29.972   9.125
 1979POPC   C1A27471  35.351  29.669   8.765
 1979POPC   D2A27472  35.486  29.705   8.347
 1979POPC   C3A27473  35.328  29.855   7.952
 1979POPC   C4A27474  35.462  29.783   7.512
 1979POPC   C1B27475  35.662  30.092   8.742
 1979POPC   C2B27476  35.840  30.065   8.342
 1979POPC   C3B27477  35.678  30.216   7.987
 1979POPC   C4B27478  35.458  30.299   7.600
 1980POPC   NC327479  33.375   9.436   9.846
 1980POPC   PO427480  33.774   8.896   9.690
 1980POPC   GL127481  33.736   8.918   9.214
 1980POPC   GL227482  34.072   9.065   9.060
 1980POPC   C1A27483  33.639   9.124   8.803
 1980POPC   D2A27484  33.510   9.247   8.398
 1980POPC   C3A27485  33.784   9.259   8.089
 1980POPC   C4A27486  33.837   9.092   7.735
 1980POPC   C1B27487  33.979   8.715   8.796
 1980POPC   C2B27488  34.156   8.587   8.416
 1980POPC   C3B27489  34.090   8.741   8.029
 1980POPC   C4B27490  34.219   8.681   7.588
 1981POPC   NC327491   0.219   4.366   9.629
 1981POPC   PO427492   0.736   4.144   9.447
 1981POPC   GL127493   0.565   4.322   9.119
 1981POPC   GL227494   0.708   4.080   8.906
 1981POPC   C1A27495   0.423   4.544   8.742
 1981POPC   D2A27496   0.284   4.382   8.320
 1981POPC   C3A27497   0.463   4.616   7.973
 1981POPC   C4A27498   0.686   4.506   7.579
 1981POPC   C1B27499   0.282   4.041   8.754
 1981POPC   C2B27500   0.272   3.850   8.354
 1981POPC   C3B27501   0.122   3.904   7.946
 1981POPC   C4B27502   0.285   4.223   7.700
 1982POPC   NC327503   7.244   3.381   9.430
 1982POPC   PO427504   7.823   3.798   9.469
 1982POPC   GL127505   7.655   3.487   9.175
 1982POPC   GL227506   7.805   3.359   8.962
 1982POPC   C1A27507   7.368   3.539   8.798
 1982POPC   D2A27508   7.517   3.624   8.402
 1982POPC   C3A27509   7.339   3.408   8.068
 1982POPC   C4A27510   7.168   3.593   7.739
 1982POPC   C1B27511   7.788   3.833   8.831
 1982POPC   C2B27512   7.785   4.068   8.467
 1982POPC   C3B27513   7.838   4.025   8.036
 1982POPC   C4B27514   7.686   3.681   7.828
 1983POPC   NC327515  39.268   7.192   9.553
 1983POPC   PO427516  38.917   7.766   9.525
 1983POPC   GL127517  39.009   7.472   9.179
 1983POPC   GL227518  39.341   7.504   9.152
 1983POPC   C1A27519  39.060   7.295   8.740
 1983POPC   D2A27520  39.339   7.207   8.380
 1983POPC   C3A27521  39.103   7.076   8.008
 1983POPC   C4A27522  38.828   7.258   7.691
 1983POPC   C1B27523  39.516   7.536   8.747
 1983POPC   C2B27524  39.466   7.754   8.359
 1983POPC   C3B27525  39.316   7.566   7.998
 1983POPC   C4B27526  39.581   7.242   7.914
 1984POPC   NC327527  13.510  21.220   9.411
 1984POPC   PO427528  14.030  21.603   9.599
 1984POPC   GL127529  13.874  21.505   9.094
 1984POPC   GL227530  13.641  21.249   8.918
 1984POPC   C1A27531  13.828  21.566   8.573
 1984POPC   D2A27532  13.835  21.446   8.115
 1984POPC   C3A27533  13.727  21.649   7.686
 1984POPC   C4A27534  13.403  21.771   7.339
 1984POPC   C1B27535  13.625  21.116   8.461
 1984POPC   C2B27536  13.447  21.130   8.039
 1984POPC   C3B27537  13.339  21.325   7.628
 1984POPC   C4B27538  13.115  21.292   7.238
 1985POPC   NC327539  30.126  19.603   9.385
 1985POPC   PO427540  29.738  20.101   9.503
 1985POPC   GL127541  29.922  20.002   9.125
 1985POPC   GL227542  29.696  19.706   9.052
 1985POPC   C1A27543  29.913  20.020   8.697
 1985POPC   D2A27544  29.602  19.829   8.476
 1985POPC   C3A27545  29.645  19.814   8.025
 1985POPC   C4A27546  30.043  19.946   7.856
 1985POPC   C1B27547  30.010  19.541   8.726
 1985POPC   C2B27548  30.224  19.577   8.329
 1985POPC   C3B27549  30.166  19.435   7.930
 1985POPC   C4B27550  29.882  19.522   7.616
 1986POPC   NC327551  10.967   4.472   9.497
 1986POPC   PO427552  10.349   4.358   9.722
 1986POPC   GL127553  10.555   4.181   9.331
 1986POPC   GL227554  10.516   4.518   9.250
 1986POPC   C1A27555  10.538   4.210   8.857
 1986POPC   D2A27556  10.643   4.468   8.499
 1986POPC   C3A27557  10.657   4.183   8.156
 1986POPC   C4A27558  10.810   4.215   7.752
 1986POPC   C1B27559  10.421   4.736   8.883
 1986POPC   C2B27560  10.143   4.618   8.558
 1986POPC   C3B27561  10.272   4.634   8.121
 1986POPC   C4B27562  10.166   4.359   7.783
 1987POPC   NC327563  28.011   9.612   9.336
 1987POPC   PO427564  27.413   9.532   9.690
 1987POPC   GL127565  27.524   9.732   9.245
 1987POPC   GL227566  27.662   9.473   9.023
 1987POPC   C1A27567  27.741   9.930   8.819
 1987POPC   D2A27568  27.601   9.890   8.369
 1987POPC   C3A27569  27.887   9.761   8.038
 1987POPC   C4A27570  27.670   9.659   7.641
 1987POPC   C1B27571  27.371   9.588   8.756
 1987POPC   C2B27572  27.496   9.337   8.447
 1987POPC   C3B27573  27.470   9.473   8.081
 1987POPC   C4B27574  27.236   9.826   7.926
 1988POPC   NC327575   5.414  19.685   9.576
 1988POPC   PO427576   4.816  19.993   9.627
 1988POPC   GL127577   4.866  19.785   9.215
 1988POPC   GL227578   5.172  19.667   9.140
 1988POPC   C1A27579   4.900  19.914   8.776
 1988POPC   D2A27580   4.700  19.884   8.384
 1988POPC   C3A27581   4.919  19.806   8.006
 1988POPC   C4A27582   4.836  20.037   7.638
 1988POPC   C1B27583   5.392  19.773   8.791
 1988POPC   C2B27584   5.337  19.578   8.434
 1988POPC   C3B27585   5.438  19.556   8.036
 1988POPC   C4B27586   5.342  19.789   7.682
 1989POPC   NC327587   7.552  13.895   9.422
 1989POPC   PO427588   7.153  13.365   9.390
 1989POPC   GL127589   7.342  13.539   9.084
 1989POPC   GL227590   7.676  13.416   9.184
 1989POPC   C1A27591   7.220  13.746   8.704
 1989POPC   D2A27592   7.250  13.670   8.269
 1989POPC   C3A27593   7.263  13.768   7.859
 1989POPC   C4A27594   7.409  13.682   7.439
 1989POPC   C1B27595   7.739  13.722   8.835
 1989POPC   C2B27596   7.799  13.813   8.441
 1989POPC   C3B27597   7.731  13.750   8.063
 1989POPC   C4B27598   7.861  13.663   7.687
 1990POPC   NC327599  29.875  20.562   9.519
 1990POPC   PO427600  29.414  21.004   9.349
 1990POPC   GL127601  29.683  20.652   9.072
 1990POPC   GL227602  30.015  20.827   9.083
 1990POPC   C1A27603  30.023  20.501   8.697
 1990POPC   D2A27604  29.980  20.275   8.251
 1990POPC   C3A27605  30.003  20.459   7.821
 1990POPC   C4A27606  29.950  20.408   7.345
 1990POPC   C1B27607  29.747  20.935   8.687
 1990POPC   C2B27608  29.830  20.767   8.309
 1990POPC   C3B27609  29.669  20.797   7.956
 1990POPC   C4B27610  29.830  20.882   7.546
 1991POPC   NC327611  43.517  36.488   9.805
 1991POPC   PO427612  43.869  35.985   9.473
 1991POPC   GL127613  43.881  36.175   9.097
 1991POPC   GL227614  43.958  36.518   9.056
 1991POPC   C1A27615  43.681  36.069   8.723
 1991POPC   D2A27616  43.854  36.120   8.314
 1991POPC   C3A27617  44.168  35.886   8.129
 1991POPC   C4A27618  44.209  36.096   7.734
 1991POPC   C1B27619  43.749  36.562   8.651
 1991POPC   C2B27620  43.772  36.729   8.263
 1991POPC   C3B27621  43.946  36.499   7.932
 1991POPC   C4B27622  43.839  36.406   7.527
 1992POPC   NC327623  27.988  29.518   9.410
 1992POPC   PO427624  27.526  29.035   9.694
 1992POPC   GL127625  27.719  29.085   9.257
 1992POPC   GL227626  28.088  29.106   9.133
 1992POPC   C1A27627  27.601  29.071   8.792
 1992POPC   D2A27628  27.486  28.747   8.456
 1992POPC   C3A27629  27.505  28.847   7.992
 1992POPC   C4A27630  27.602  29.273   7.842
 1992POPC   C1B27631  28.050  28.852   8.763
 1992POPC   C2B27632  27.945  28.980   8.362
 1992POPC   C3B27633  28.085  29.204   8.005
 1992POPC   C4B27634  28.152  28.928   7.697
 1993POPC   NC327635  24.165  17.245   9.496
 1993POPC   PO427636  24.565  16.827   9.526
 1993POPC   GL127637  24.274  16.754   9.228
 1993POPC   GL227638  24.119  16.452   9.296
 1993POPC   C1A27639  24.248  16.792   8.799
 1993POPC   D2A27640  24.429  16.703   8.423
 1993POPC   C3A27641  24.366  16.838   8.018
 1993POPC   C4A27642  24.675  17.033   7.773
 1993POPC   C1B27643  24.066  16.314   8.848
 1993POPC   C2B27644  23.932  16.537   8.493
 1993POPC   C3B27645  24.017  16.454   8.093
 1993POPC   C4B27646  24.370  16.344   7.839
 1994POPC   NC327647  42.039  33.227   9.541
 1994POPC   PO427648  41.339  33.464   9.510
 1994POPC   GL127649  41.514  33.158   9.143
 1994POPC   GL227650  41.669  32.812   9.168
 1994POPC   C1A27651  41.536  33.020   8.684
 1994POPC   D2A27652  41.301  33.181   8.329
 1994POPC   C3A27653  41.211  32.996   7.942
 1994POPC   C4A27654  41.371  33.256   7.618
 1994POPC   C1B27655  41.451  32.538   8.819
 1994POPC   C2B27656  41.286  32.648   8.385
 1994POPC   C3B27657  41.550  32.639   8.008
 1994POPC   C4B27658  41.585  32.800   7.578
 1995POPC   NC327659   4.037  36.613   9.464
 1995POPC   PO427660   3.350  36.656   9.559
 1995POPC   GL127661   3.434  36.920   9.216
 1995POPC   GL227662   3.774  37.036   9.252
 1995POPC   C1A27663   3.358  37.041   8.803
 1995POPC   D2A27664   3.418  36.674   8.523
 1995POPC   C3A27665   3.497  36.663   8.064
 1995POPC   C4A27666   3.360  36.908   7.707
 1995POPC   C1B27667   3.820  36.820   8.842
 1995POPC   C2B27668   3.949  36.760   8.407
 1995POPC   C3B27669   3.880  36.975   8.003
 1995POPC   C4B27670   3.824  36.828   7.574
 1996POPC   NC327671  20.442  42.175   9.772
 1996POPC   PO427672  20.266  42.785   9.628
 1996POPC   GL127673  20.444  42.570   9.259
 1996POPC   GL227674  20.597  42.241   9.284
 1996POPC   C1A27675  20.716  42.619   8.877
 1996POPC   D2A27676  20.531  42.539   8.464
 1996POPC   C3A27677  20.815  42.509   8.089
 1996POPC   C4A27678  20.732  42.288   7.678
 1996POPC   C1B27679  20.518  42.142   8.841
 1996POPC   C2B27680  20.702  42.061   8.410
 1996POPC   C3B27681  20.410  42.187   8.077
 1996POPC   C4B27682  20.226  42.414   7.740
 1997POPC   NC327683  23.255   4.640   9.374
 1997POPC   PO427684  22.710   4.375   9.606
 1997POPC   GL127685  22.895   4.167   9.200
 1997POPC   GL227686  23.243   4.016   9.103
 1997POPC   C1A27687  22.725   4.084   8.771
 1997POPC   D2A27688  22.924   4.107   8.347
 1997POPC   C3A27689  22.792   4.100   7.911
 1997POPC   C4A27690  22.728   4.453   7.693
 1997POPC   C1B27691  23.152   4.364   8.765
 1997POPC   C2B27692  23.026   4.599   8.375
 1997POPC   C3B27693  23.181   4.437   7.987
 1997POPC   C4B27694  23.205   4.329   7.549
 1998POPC   NC327695   6.086   8.168   9.772
 1998POPC   PO427696   5.440   8.035   9.645
 1998POPC   GL127697   5.790   8.090   9.325
 1998POPC   GL227698   6.170   8.020   9.257
 1998POPC   C1A27699   5.809   7.955   8.907
 1998POPC   D2A27700   5.768   7.890   8.511
 1998POPC   C3A27701   5.879   8.033   8.150
 1998POPC   C4A27702   5.630   8.159   7.838
 1998POPC   C1B27703   6.106   8.357   8.946
 1998POPC   C2B27704   5.821   8.422   8.589
 1998POPC   C3B27705   5.864   8.535   8.150
 1998POPC   C4B27706   6.104   8.371   7.825
 1999POPC   NC327707  26.392   3.379   9.530
 1999POPC   PO427708  25.760   3.700   9.474
 1999POPC   GL127709  25.936   3.549   9.108
 1999POPC   GL227710  26.060   3.231   9.166
 1999POPC   C1A27711  25.935   3.392   8.691
 1999POPC   D2A27712  25.742   3.367   8.281
 1999POPC   C3A27713  25.911   3.713   8.045
 1999POPC   C4A27714  26.095   3.788   7.632
 1999POPC   C1B27715  26.362   3.107   8.864
 1999POPC   C2B27716  26.440   3.255   8.442
 1999POPC   C3B27717  26.218   3.319   8.044
 1999POPC   C4B27718  26.023   3.244   7.617
 2000POPC   NC327719  24.568   0.011   9.896
 2000POPC   PO427720  24.836   0.461   9.523
 2000POPC   GL127721  24.635   0.407   9.156
 2000POPC   GL227722  24.387   0.675   9.177
 2000POPC   C1A27723  24.426   0.365   8.763
 2000POPC   D2A27724  24.288   0.538   8.414
 2000POPC   C3A27725  24.309   0.219   8.159
 2000POPC   C4A27726  24.490   0.292   7.774
 2000POPC   C1B27727  24.555   0.857   8.768
 2000POPC   C2B27728  24.496   1.011   8.335
 2000POPC   C3B27729  24.526   0.787   7.947
 2000POPC   C4B27730  24.611   0.765   7.478
 2001POPC   NC327731  19.865   2.411   9.263
 2001POPC   PO427732  19.642   2.989   9.506
 2001POPC   GL127733  19.736   3.079   9.113
 2001POPC   GL227734  19.564   2.777   9.041
 2001POPC   C1A27735  19.665   3.106   8.672
 2001POPC   D2A27736  19.683   2.835   8.319
 2001POPC   C3A27737  20.082   2.828   8.140
 2001POPC   C4A27738  20.154   3.100   7.826
 2001POPC   C1B27739  19.417   2.570   8.681
 2001POPC   C2B27740  19.455   2.357   8.302
 2001POPC   C3B27741  19.801   2.396   8.084
 2001POPC   C4B27742  19.734   2.702   7.791
 2002POPC   NC327743  19.516  26.091   9.574
 2002POPC   PO427744  20.100  25.767   9.468
 2002POPC   GL127745  19.816  25.941   9.194
 2002POPC   GL227746  19.991  26.220   9.164
 2002POPC   C1A27747  19.687  26.089   8.792
 2002POPC   D2A27748  19.692  25.861   8.453
 2002POPC   C3A27749  19.776  26.039   8.100
 2002POPC   C4A27750  19.768  26.236   7.736
 2002POPC   C1B27751  20.220  26.166   8.799
 2002POPC   C2B27752  20.099  26.312   8.411
 2002POPC   C3B27753  20.247  26.226   7.993
 2002POPC   C4B27754  20.192  26.065   7.554
 2003POPC   NC327755   5.704  43.607   9.481
 2003POPC   PO427756   6.031  44.196   9.529
 2003POPC   GL127757   5.821  44.077   9.154
 2003POPC   GL227758   5.730  43.771   9.006
 2003POPC   C1A27759   6.096  44.056   8.788
 2003POPC   D2A27760   5.872  44.039   8.416
 2003POPC   C3A27761   6.095  44.172   8.073
 2003POPC   C4A27762   5.985  43.943   7.714
 2003POPC   C1B27763   5.391  43.599   8.754
 2003POPC   C2B27764   5.386  43.572   8.312
 2003POPC   C3B27765   5.669  43.688   7.996
 2003POPC   C4B27766   5.658  43.567   7.528
 2004POPC   NC327767  34.088   1.880   9.538
 2004POPC   PO427768  33.545   2.262   9.386
 2004POPC   GL127769  33.709   2.084   9.038
 2004POPC   GL227770  34.033   1.947   9.035
 2004POPC   C1A27771  33.660   1.857   8.682
 2004POPC   D2A27772  33.630   1.606   8.309
 2004POPC   C3A27773  33.475   1.884   8.016
 2004POPC   C4A27774  33.661   2.154   7.778
 2004POPC   C1B27775  34.196   2.130   8.687
 2004POPC   C2B27776  34.063   1.908   8.336
 2004POPC   C3B27777  34.002   1.809   7.937
 2004POPC   C4B27778  34.258   2.108   7.697
 2005POPC   NC327779  26.816  22.566   9.334
 2005POPC   PO427780  26.793  23.143   9.691
 2005POPC   GL127781  26.894  23.076   9.193
 2005POPC   GL227782  26.592  22.904   9.006
 2005POPC   C1A27783  26.806  23.263   8.743
 2005POPC   D2A27784  26.622  23.044   8.387
 2005POPC   C3A27785  26.924  22.931   8.088
 2005POPC   C4A27786  26.989  23.244   7.781
 2005POPC   C1B27787  26.353  22.740   8.683
 2005POPC   C2B27788  26.511  22.549   8.288
 2005POPC   C3B27789  26.424  22.809   7.944
 2005POPC   C4B27790  26.614  22.911   7.537
 2006POPC   NC327791   9.215  10.314   9.796
 2006POPC   PO427792   8.724  10.485   9.441
 2006POPC   GL127793   9.008  10.636   9.184
 2006POPC   GL227794   9.269  10.421   9.240
 2006POPC   C1A27795   8.909  10.652   8.772
 2006POPC   D2A27796   8.801  10.454   8.410
 2006POPC   C3A27797   8.881  10.744   8.128
 2006POPC   C4A27798   8.865  10.728   7.717
 2006POPC   C1B27799   9.406  10.552   8.802
 2006POPC   C2B27800   9.334  10.476   8.357
 2006POPC   C3B27801   9.274  10.438   7.903
 2006POPC   C4B27802   9.457  10.191   7.553
 2007POPC   NC327803   8.790  33.274   9.462
 2007POPC   PO427804   9.032  32.676   9.396
 2007POPC   GL127805   8.796  32.896   9.117
 2007POPC   GL227806   8.939  33.214   8.984
 2007POPC   C1A27807   8.684  32.789   8.736
 2007POPC   D2A27808   8.870  32.751   8.330
 2007POPC   C3A27809   8.886  33.071   8.009
 2007POPC   C4A27810   8.863  33.386   7.661
 2007POPC   C1B27811   9.195  32.905   8.780
 2007POPC   C2B27812   9.387  32.792   8.403
 2007POPC   C3B27813   9.312  32.795   7.993
 2007POPC   C4B27814   9.234  33.057   7.611
 2008POPC   NC327815  23.569   7.916   9.388
 2008POPC   PO427816  24.120   8.243   9.518
 2008POPC   GL127817  23.950   8.216   9.112
 2008POPC   GL227818  23.594   8.343   9.118
 2008POPC   C1A27819  23.852   7.959   8.750
 2008POPC   D2A27820  23.615   8.019   8.363
 2008POPC   C3A27821  23.859   7.981   8.003
 2008POPC   C4A27822  24.050   8.241   7.743
 2008POPC   C1B27823  23.359   8.252   8.753
 2008POPC   C2B27824  23.366   8.507   8.377
 2008POPC   C3B27825  23.563   8.425   8.012
 2008POPC   C4B27826  23.384   8.028   7.843
 2009POPC   NC327827  24.957  26.805   9.554
 2009POPC   PO427828  25.570  27.081   9.531
 2009POPC   GL127829  25.408  26.889   9.153
 2009POPC   GL227830  25.048  26.751   9.079
 2009POPC   C1A27831  25.272  27.076   8.763
 2009POPC   D2A27832  25.039  26.953   8.431
 2009POPC   C3A27833  25.147  27.126   8.023
 2009POPC   C4A27834  24.895  27.186   7.667
 2009POPC   C1B27835  25.252  26.540   8.795
 2009POPC   C2B27836  25.398  26.574   8.440
 2009POPC   C3B27837  25.267  26.632   8.054
 2009POPC   C4B27838  25.455  26.642   7.651
 2010POPC   NC327839  43.870  40.319   9.392
 2010POPC   PO427840  43.735  39.703   9.756
 2010POPC   GL127841  43.866  39.805   9.302
 2010POPC   GL227842  43.720  39.992   9.022
 2010POPC   C1A27843  44.176  39.828   8.916
 2010POPC   D2A27844  44.012  39.922   8.483
 2010POPC   C3A27845  43.780  39.805   8.102
 2010POPC   C4A27846  43.847  39.991   7.692
 2010POPC   C1B27847  43.524  40.061   8.650
 2010POPC   C2B27848  43.646  40.275   8.310
 2010POPC   C3B27849  43.460  40.185   7.954
 2010POPC   C4B27850  43.371  40.206   7.559
 2011POPC   NC327851  30.932  21.108   9.566
 2011POPC   PO427852  30.343  20.688   9.538
 2011POPC   GL127853  30.669  20.740   9.179
 2011POPC   GL227854  30.786  20.406   9.077
 2011POPC   C1A27855  30.970  20.819   8.821
 2011POPC   D2A27856  31.061  20.717   8.377
 2011POPC   C3A27857  30.804  20.761   7.990
 2011POPC   C4A27858  30.438  20.720   7.708
 2011POPC   C1B27859  30.436  20.142   8.899
 2011POPC   C2B27860  30.386  20.048   8.447
 2011POPC   C3B27861  30.454  20.230   8.005
 2011POPC   C4B27862  30.377  20.246   7.557
 2012POPC   NC327863  37.809  43.446   9.572
 2012POPC   PO427864  37.660  44.003   9.580
 2012POPC   GL127865  37.826  43.876   9.192
 2012POPC   GL227866  37.578  43.638   9.169
 2012POPC   C1A27867  37.773  43.791   8.734
 2012POPC   D2A27868  37.863  43.957   8.370
 2012POPC   C3A27869  37.619  43.818   8.053
 2012POPC   C4A27870  37.715  43.916   7.689
 2012POPC   C1B27871  37.511  43.371   8.843
 2012POPC   C2B27872  37.336  43.510   8.466
 2012POPC   C3B27873  37.286  43.399   8.056
 2012POPC   C4B27874  37.393  43.517   7.644
 2013POPC   NC327875   7.261  27.200   9.502
 2013POPC   PO427876   7.418  27.866   9.557
 2013POPC   GL127877   7.441  27.656   9.165
 2013POPC   GL227878   7.601  27.378   9.142
 2013POPC   C1A27879   7.362  27.618   8.726
 2013POPC   D2A27880   7.489  27.793   8.350
 2013POPC   C3A27881   7.273  27.628   7.998
 2013POPC   C4A27882   7.258  27.664   7.566
 2013POPC   C1B27883   7.783  27.303   8.798
 2013POPC   C2B27884   7.673  27.330   8.409
 2013POPC   C3B27885   7.777  27.517   8.034
 2013POPC   C4B27886   7.663  27.399   7.676
 2014POPC   NC327887  19.574   7.644   9.418
 2014POPC   PO427888  20.038   7.230   9.795
 2014POPC   GL127889  19.971   7.325   9.293
 2014POPC   GL227890  19.643   7.195   9.161
 2014POPC   C1A27891  20.054   7.600   8.875
 2014POPC   D2A27892  20.186   7.687   8.406
 2014POPC   C3A27893  19.912   7.662   8.013
 2014POPC   C4A27894  19.847   7.723   7.553
 2014POPC   C1B27895  19.614   7.391   8.758
 2014POPC   C2B27896  19.736   7.278   8.346
 2014POPC   C3B27897  19.567   7.298   7.935
 2014POPC   C4B27898  19.909   7.222   7.713
 2015POPC   NC327899  42.609  11.676   9.534
 2015POPC   PO427900  42.020  11.999   9.572
 2015POPC   GL127901  42.112  12.126   9.167
 2015POPC   GL227902  42.476  12.117   9.257
 2015POPC   C1A27903  42.005  12.217   8.730
 2015POPC   D2A27904  42.249  12.372   8.390
 2015POPC   C3A27905  42.119  12.341   8.000
 2015POPC   C4A27906  42.013  11.938   7.834
 2015POPC   C1B27907  42.505  11.963   8.853
 2015POPC   C2B27908  42.617  12.053   8.440
 2015POPC   C3B27909  42.513  12.010   8.012
 2015POPC   C4B27910  42.568  12.011   7.574
 2016POPC   NC327911   3.180  20.785   9.895
 2016POPC   PO427912   2.609  20.538   9.672
 2016POPC   GL127913   2.647  20.682   9.263
 2016POPC   GL227914   2.704  20.388   9.150
 2016POPC   C1A27915   2.681  20.810   8.833
 2016POPC   D2A27916   3.022  20.872   8.558
 2016POPC   C3A27917   2.933  20.678   8.166
 2016POPC   C4A27918   2.634  20.872   7.910
 2016POPC   C1B27919   2.460  20.310   8.772
 2016POPC   C2B27920   2.469  20.484   8.337
 2016POPC   C3B27921   2.611  20.334   7.921
 2016POPC   C4B27922   2.623  20.331   7.484
 2017POPC   NC327923   2.089  26.442   9.467
 2017POPC   PO427924   1.792  25.936   9.396
 2017POPC   GL127925   1.845  26.060   8.995
 2017POPC   GL227926   1.855  26.407   9.035
 2017POPC   C1A27927   2.096  25.840   8.687
 2017POPC   D2A27928   2.333  25.638   8.345
 2017POPC   C3A27929   2.064  25.764   8.021
 2017POPC   C4A27930   1.902  26.155   7.881
 2017POPC   C1B27931   2.182  26.380   8.713
 2017POPC   C2B27932   2.280  26.168   8.304
 2017POPC   C3B27933   2.426  26.181   7.866
 2017POPC   C4B27934   2.204  26.311   7.471
 2018POPC   NC327935  36.117  34.619   9.745
 2018POPC   PO427936  36.398  34.107   9.876
 2018POPC   GL127937  36.296  34.304   9.365
 2018POPC   GL227938  36.116  34.652   9.247
 2018POPC   C1A27939  36.315  34.406   8.860
 2018POPC   D2A27940  36.447  34.574   8.424
 2018POPC   C3A27941  36.335  34.412   7.976
 2018POPC   C4A27942  36.362  34.426   7.491
 2018POPC   C1B27943  35.958  34.830   8.870
 2018POPC   C2B27944  35.943  34.716   8.443
 2018POPC   C3B27945  36.040  34.830   8.028
 2018POPC   C4B27946  35.913  34.579   7.696
 2019POPC   NC327947  17.121  17.894   9.588
 2019POPC   PO427948  16.570  18.261   9.670
 2019POPC   GL127949  16.738  18.135   9.293
 2019POPC   GL227950  16.882  18.469   9.182
 2019POPC   C1A27951  16.679  18.027   8.869
 2019POPC   D2A27952  16.434  18.315   8.616
 2019POPC   C3A27953  16.556  18.288   8.198
 2019POPC   C4A27954  16.626  18.251   7.761
 2019POPC   C1B27955  17.022  18.378   8.752
 2019POPC   C2B27956  16.989  18.583   8.385
 2019POPC   C3B27957  16.852  18.658   8.010
 2019POPC   C4B27958  16.971  18.589   7.602
 2020POPC   NC327959   7.995  35.172   9.649
 2020POPC   PO427960   8.194  35.647   9.175
 2020POPC   GL127961   8.280  35.252   9.074
 2020POPC   GL227962   7.987  35.107   9.119
 2020POPC   C1A27963   8.256  35.234   8.662
 2020POPC   D2A27964   8.028  35.318   8.326
 2020POPC   C3A27965   8.257  35.184   8.022
 2020POPC   C4A27966   8.197  35.409   7.672
 2020POPC   C1B27967   7.954  34.838   8.720
 2020POPC   C2B27968   7.745  34.894   8.341
 2020POPC   C3B27969   7.793  35.004   7.908
 2020POPC   C4B27970   8.052  34.955   7.541
 2021POPC   NC327971  38.070  40.924   9.557
 2021POPC   PO427972  37.400  40.749   9.442
 2021POPC   GL127973  37.743  40.795   9.178
 2021POPC   GL227974  37.929  40.494   9.267
 2021POPC   C1A27975  37.716  41.006   8.785
 2021POPC   D2A27976  37.417  40.980   8.453
 2021POPC   C3A27977  37.636  40.941   8.077
 2021POPC   C4A27978  37.521  40.856   7.662
 2021POPC   C1B27979  37.912  40.460   8.832
 2021POPC   C2B27980  37.902  40.632   8.440
 2021POPC   C3B27981  38.134  40.592   8.097
 2021POPC   C4B27982  38.030  40.799   7.749
 2022POPC   NC327983  29.372  28.600   9.437
 2022POPC   PO427984  28.722  28.456   9.335
 2022POPC   GL127985  29.077  28.418   9.027
 2022POPC   GL227986  29.386  28.202   9.102
 2022POPC   C1A27987  29.000  28.554   8.586
 2022POPC   D2A27988  29.001  28.688   8.156
 2022POPC   C3A27989  29.002  28.311   7.966
 2022POPC   C4A27990  28.800  28.296   7.611
 2022POPC   C1B27991  29.517  28.437   8.736
 2022POPC   C2B27992  29.421  28.220   8.371
 2022POPC   C3B27993  29.490  28.063   7.971
 2022POPC   C4B27994  29.436  28.399   7.712
 2023POPC   NC327995  23.199  37.065   9.503
 2023POPC   PO427996  22.739  36.517   9.469
 2023POPC   GL127997  22.819  36.851   9.180
 2023POPC   GL227998  23.130  36.726   9.105
 2023POPC   C1A27999  22.900  37.101   8.812
 2023POPC   D2A28000  23.031  36.936   8.402
 2023POPC   C3A28001  22.843  37.025   8.035
 2023POPC   C4A28002  23.103  36.970   7.705
 2023POPC   C1B28003  22.837  36.590   8.736
 2023POPC   C2B28004  22.707  36.513   8.278
 2023POPC   C3B28005  22.831  36.547   7.843
 2023POPC   C4B28006  22.810  36.653   7.373
 2024POPC   NC328007  37.233   1.993   9.621
 2024POPC   PO428008  36.689   1.774   9.500
 2024POPC   GL128009  36.924   1.951   9.216
 2024POPC   GL228010  37.136   1.673   9.220
 2024POPC   C1A28011  36.980   2.182   8.834
 2024POPC   D2A28012  37.196   2.139   8.441
 2024POPC   C3A28013  36.919   2.210   8.115
 2024POPC   C4A28014  37.050   2.102   7.717
 2024POPC   C1B28015  36.845   1.643   8.851
 2024POPC   C2B28016  36.751   1.789   8.460
 2024POPC   C3B28017  36.926   1.717   8.067
 2024POPC   C4B28018  36.692   1.722   7.717
 2025POPC   NC328019  20.338  23.112   9.532
 2025POPC   PO428020  20.970  22.797   9.643
 2025POPC   GL128021  20.885  23.059   9.230
 2025POPC   GL228022  20.567  22.934   9.125
 2025POPC   C1A28023  20.860  23.010   8.727
 2025POPC   D2A28024  20.805  23.167   8.323
 2025POPC   C3A28025  20.671  22.913   7.944
 2025POPC   C4A28026  20.894  22.648   7.657
 2025POPC   C1B28027  20.366  22.747   8.786
 2025POPC   C2B28028  20.386  22.853   8.379
 2025POPC   C3B28029  20.169  22.732   8.039
 2025POPC   C4B28030  20.212  22.939   7.646
 2026POPC   NC328031  22.137   3.080   9.588
 2026POPC   PO428032  22.096   3.766   9.674
 2026POPC   GL128033  22.026   3.467   9.296
 2026POPC   GL228034  22.327   3.400   9.130
 2026POPC   C1A28035  21.875   3.444   8.877
 2026POPC   D2A28036  22.037   3.676   8.519
 2026POPC   C3A28037  21.934   3.560   8.088
 2026POPC   C4A28038  22.107   3.490   7.699
 2026POPC   C1B28039  22.261   3.179   8.687
 2026POPC   C2B28040  22.370   3.324   8.261
 2026POPC   C3B28041  22.486   3.157   7.858
 2026POPC   C4B28042  22.431   3.199   7.415
 2027POPC   NC328043  12.528  12.199   9.204
 2027POPC   PO428044  11.958  12.446   9.412
 2027POPC   GL128045  12.025  12.117   9.056
 2027POPC   GL228046  12.255  12.271   8.790
 2027POPC   C1A28047  11.889  11.959   8.622
 2027POPC   D2A28048  12.026  11.693   8.261
 2027POPC   C3A28049  12.022  11.901   7.877
 2027POPC   C4A28050  11.741  11.849   7.535
 2027POPC   C1B28051  11.853  12.475   8.728
 2027POPC   C2B28052  11.675  12.569   8.322
 2027POPC   C3B28053  11.984  12.500   8.005
 2027POPC   C4B28054  12.355  12.348   7.807
 2028POPC   NC328055  10.862   6.148   9.491
 2028POPC   PO428056  10.192   6.021   9.420
 2028POPC   GL128057  10.512   6.001   9.104
 2028POPC   GL228058  10.609   5.669   9.211
 2028POPC   C1A28059  10.455   6.008   8.642
 2028POPC   D2A28060  10.591   6.184   8.257
 2028POPC   C3A28061  10.343   6.084   7.901
 2028POPC   C4A28062  10.533   5.933   7.542
 2028POPC   C1B28063  10.293   5.567   8.861
 2028POPC   C2B28064  10.359   5.561   8.390
 2028POPC   C3B28065  10.651   5.684   8.054
 2028POPC   C4B28066  10.734   5.494   7.666
 2029POPC   NC328067  12.018  27.121   9.554
 2029POPC   PO428068  11.821  26.483   9.469
 2029POPC   GL128069  11.912  26.782   9.143
 2029POPC   GL228070  12.219  26.946   9.102
 2029POPC   C1A28071  11.891  26.908   8.707
 2029POPC   D2A28072  12.036  26.726   8.329
 2029POPC   C3A28073  11.802  26.682   7.971
 2029POPC   C4A28074  11.833  27.042   7.724
 2029POPC   C1B28075  12.421  26.845   8.727
 2029POPC   C2B28076  12.553  26.936   8.322
 2029POPC   C3B28077  12.336  26.951   7.929
 2029POPC   C4B28078  12.410  26.721   7.553
 2030POPC   NC328079  43.705  11.890   9.795
 2030POPC   PO428080  43.047  11.803   9.546
 2030POPC   GL128081  42.941  11.867   9.134
 2030POPC   GL228082  42.995  12.244   9.068
 2030POPC   C1A28083  43.027  11.913   8.698
 2030POPC   D2A28084  43.072  12.283   8.458
 2030POPC   C3A28085  43.047  12.075   8.118
 2030POPC   C4A28086  43.026  12.194   7.760
 2030POPC   C1B28087  43.411  12.356   8.818
 2030POPC   C2B28088  43.620  12.507   8.445
 2030POPC   C3B28089  43.412  12.440   8.029
 2030POPC   C4B28090  43.519  12.308   7.584
 2031POPC   NC328091  22.542  26.942   9.627
 2031POPC   PO428092  22.804  26.331   9.590
 2031POPC   GL128093  22.867  26.511   9.174
 2031POPC   GL228094  22.860  26.841   9.215
 2031POPC   C1A28095  22.793  26.703   8.745
 2031POPC   D2A28096  22.919  26.915   8.380
 2031POPC   C3A28097  22.793  26.588   8.131
 2031POPC   C4A28098  22.755  26.450   7.750
 2031POPC   C1B28099  22.584  27.120   8.991
 2031POPC   C2B28100  22.536  27.217   8.564
 2031POPC   C3B28101  22.489  27.115   8.141
 2031POPC   C4B28102  22.761  27.000   7.832
 2032POPC   NC328103   8.666  21.691   9.557
 2032POPC   PO428104   9.185  21.271   9.390
 2032POPC   GL128105   8.872  21.380   9.137
 2032POPC   GL228106   8.930  21.743   9.137
 2032POPC   C1A28107   9.006  21.271   8.723
 2032POPC   D2A28108   9.116  21.152   8.309
 2032POPC   C3A28109   8.838  21.019   8.022
 2032POPC   C4A28110   8.948  21.243   7.674
 2032POPC   C1B28111   8.776  21.706   8.735
 2032POPC   C2B28112   9.047  21.670   8.387
 2032POPC   C3B28113   8.959  21.652   7.966
 2032POPC   C4B28114   8.633  21.846   7.702
 2033POPC   NC328115   4.252  20.551   9.756
 2033POPC   PO428116   3.573  20.744   9.619
 2033POPC   GL128117   3.517  20.636   9.207
 2033POPC   GL228118   3.241  20.398   9.286
 2033POPC   C1A28119   3.568  20.798   8.787
 2033POPC   D2A28120   3.493  21.009   8.385
 2033POPC   C3A28121   3.754  20.892   8.063
 2033POPC   C4A28122   3.690  20.766   7.640
 2033POPC   C1B28123   3.164  20.489   8.862
 2033POPC   C2B28124   3.357  20.490   8.436
 2033POPC   C3B28125   3.523  20.434   8.007
 2033POPC   C4B28126   3.212  20.534   7.714
 2034POPC   NC328127  30.901  38.655   9.442
 2034POPC   PO428128  30.684  38.014   9.588
 2034POPC   GL128129  30.651  38.252   9.200
 2034POPC   GL228130  30.473  38.570   9.165
 2034POPC   C1A28131  30.836  38.400   8.822
 2034POPC   D2A28132  30.777  38.307   8.396
 2034POPC   C3A28133  31.046  38.442   8.072
 2034POPC   C4A28134  30.882  38.430   7.649
 2034POPC   C1B28135  30.336  38.478   8.738
 2034POPC   C2B28136  30.325  38.516   8.297
 2034POPC   C3B28137  30.440  38.497   7.890
 2034POPC   C4B28138  30.377  38.412   7.472
 2035POPC   NC328139  43.744  13.549   9.225
 2035POPC   PO428140  44.176  13.982   9.558
 2035POPC   GL128141  44.159  13.827   9.162
 2035POPC   GL228142  44.252  13.536   8.982
 2035POPC   C1A28143  43.946  13.966   8.755
 2035POPC   D2A28144  43.862  13.911   8.320
 2035POPC   C3A28145  44.094  13.661   8.013
 2035POPC   C4A28146  44.055  13.752   7.564
 2035POPC   C1B28147  44.029  13.455   8.585
 2035POPC   C2B28148  43.704  13.420   8.271
 2035POPC   C3B28149  43.768  13.239   7.857
 2035POPC   C4B28150  44.055  13.256   7.486
 2036POPC   NC328151   9.161   5.374   9.449
 2036POPC   PO428152   8.684   4.898   9.536
 2036POPC   GL128153   8.731   5.173   9.168
 2036POPC   GL228154   9.066   5.136   9.015
 2036POPC   C1A28155   8.714   5.302   8.702
 2036POPC   D2A28156   9.000   5.270   8.330
 2036POPC   C3A28157   8.928   5.393   7.897
 2036POPC   C4A28158   9.164   5.413   7.526
 2036POPC   C1B28159   9.091   4.859   8.642
 2036POPC   C2B28160   8.918   4.520   8.350
 2036POPC   C3B28161   9.084   4.526   7.942
 2036POPC   C4B28162   9.197   4.910   7.731
 2037POPC   NC328163  18.210  19.437   9.502
 2037POPC   PO428164  17.972  18.777   9.446
 2037POPC   GL128165  18.071  19.027   9.062
 2037POPC   GL228166  18.086  19.381   8.997
 2037POPC   C1A28167  18.431  18.971   8.766
 2037POPC   D2A28168  18.612  19.003   8.357
 2037POPC   C3A28169  18.282  18.930   8.048
 2037POPC   C4A28170  18.366  18.837   7.602
 2037POPC   C1B28171  18.536  19.469   8.835
 2037POPC   C2B28172  18.655  19.559   8.416
 2037POPC   C3B28173  18.417  19.412   8.080
 2037POPC   C4B28174  18.584  19.264   7.725
 2038POPC   NC328175  24.716  38.786   9.662
 2038POPC   PO428176  24.141  39.046   9.509
 2038POPC   GL128177  24.480  39.026   9.240
 2038POPC   GL228178  24.254  38.853   9.033
 2038POPC   C1A28179  24.699  38.995   8.836
 2038POPC   D2A28180  24.902  38.877   8.429
 2038POPC   C3A28181  24.815  39.190   8.085
 2038POPC   C4A28182  24.688  39.219   7.666
 2038POPC   C1B28183  24.253  39.276   8.837
 2038POPC   C2B28184  24.448  39.326   8.426
 2038POPC   C3B28185  24.274  39.225   8.015
 2038POPC   C4B28186  23.987  39.502   7.801
 2039POPC   NC328187  12.750  16.714   9.521
 2039POPC   PO428188  13.299  16.340   9.534
 2039POPC   GL128189  13.133  16.628   9.140
 2039POPC   GL228190  12.818  16.884   9.060
 2039POPC   C1A28191  13.101  16.628   8.666
 2039POPC   D2A28192  13.146  16.531   8.241
 2039POPC   C3A28193  12.815  16.742   8.017
 2039POPC   C4A28194  12.932  16.788   7.576
 2039POPC   C1B28195  12.620  16.553   8.829
 2039POPC   C2B28196  12.697  16.366   8.414
 2039POPC   C3B28197  12.499  16.327   8.016
 2039POPC   C4B28198  12.499  16.552   7.629
 2040POPC   NC328199  10.073  41.107   9.471
 2040POPC   PO428200   9.637  41.569   9.745
 2040POPC   GL128201   9.879  41.630   9.321
 2040POPC   GL228202   9.574  41.600   9.099
 2040POPC   C1A28203   9.983  41.752   8.855
 2040POPC   D2A28204   9.909  41.560   8.427
 2040POPC   C3A28205   9.976  41.723   7.990
 2040POPC   C4A28206   9.862  41.717   7.545
 2040POPC   C1B28207   9.337  41.358   8.785
 2040POPC   C2B28208   9.568  41.138   8.464
 2040POPC   C3B28209   9.600  41.280   8.044
 2040POPC   C4B28210   9.245  41.176   7.767
 2041POPC   NC328211  17.412  12.481   9.551
 2041POPC   PO428212  17.372  13.198   9.709
 2041POPC   GL128213  17.186  12.997   9.288
 2041POPC   GL228214  17.341  12.703   9.122
 2041POPC   C1A28215  17.115  12.981   8.794
 2041POPC   D2A28216  17.489  12.913   8.479
 2041POPC   C3A28217  17.346  12.973   8.071
 2041POPC   C4A28218  17.391  13.188   7.700
 2041POPC   C1B28219  17.513  12.504   8.787
 2041POPC   C2B28220  17.558  12.395   8.367
 2041POPC   C3B28221  17.742  12.669   8.083
 2041POPC   C4B28222  17.573  12.702   7.689
 2042POPC   NC328223  30.508  34.790   9.604
 2042POPC   PO428224  31.191  34.630   9.473
 2042POPC   GL128225  30.816  34.693   9.184
 2042POPC   GL228226  30.412  34.613   9.156
 2042POPC   C1A28227  30.815  34.597   8.743
 2042POPC   D2A28228  31.021  34.716   8.358
 2042POPC   C3A28229  30.723  34.647   8.060
 2042POPC   C4A28230  30.729  34.353   7.748
 2042POPC   C1B28231  30.271  34.776   8.800
 2042POPC   C2B28232  30.311  34.627   8.385
 2042POPC   C3B28233  30.223  34.693   7.943
 2042POPC   C4B28234  30.336  34.516   7.495
 2043POPC   NC328235  10.629   9.777   9.671
 2043POPC   PO428236  10.153   9.372   9.377
 2043POPC   GL128237  10.567   9.544   9.195
 2043POPC   GL228238  10.675   9.910   9.181
 2043POPC   C1A28239  10.681   9.571   8.763
 2043POPC   D2A28240  10.723   9.337   8.411
 2043POPC   C3A28241  10.501   9.592   8.173
 2043POPC   C4A28242  10.481   9.628   7.749
 2043POPC   C1B28243  10.708  10.078   8.767
 2043POPC   C2B28244  10.681  10.040   8.323
 2043POPC   C3B28245  10.480  10.103   7.963
 2043POPC   C4B28246  10.609  10.094   7.556
 2044POPC   NC328247  33.704  15.899   9.655
 2044POPC   PO428248  34.381  15.825   9.510
 2044POPC   GL128249  33.990  15.873   9.226
 2044POPC   GL228250  33.879  16.212   9.287
 2044POPC   C1A28251  33.654  15.790   8.878
 2044POPC   D2A28252  33.460  15.743   8.422
 2044POPC   C3A28253  33.664  15.931   8.060
 2044POPC   C4A28254  33.845  15.958   7.672
 2044POPC   C1B28255  33.915  16.218   8.832
 2044POPC   C2B28256  33.909  16.269   8.380
 2044POPC   C3B28257  34.163  16.238   8.012
 2044POPC   C4B28258  34.144  16.366   7.589
 2045POPC   NC328259  40.125   7.682   9.387
 2045POPC   PO428260  40.431   7.184   9.614
 2045POPC   GL128261  40.121   7.146   9.241
 2045POPC   GL228262  39.830   7.364   9.132
 2045POPC   C1A28263  40.118   7.118   8.782
 2045POPC   D2A28264  40.383   7.304   8.451
 2045POPC   C3A28265  40.340   7.108   8.047
 2045POPC   C4A28266  40.341   7.308   7.586
 2045POPC   C1B28267  40.008   7.605   8.741
 2045POPC   C2B28268  39.877   7.433   8.348
 2045POPC   C3B28269  40.023   7.497   7.952
 2045POPC   C4B28270  40.061   7.736   7.624
 2046POPC   NC328271  22.406   7.011   9.825
 2046POPC   PO428272  21.859   7.032   9.386
 2046POPC   GL128273  21.934   6.680   9.151
 2046POPC   GL228274  22.193   6.463   9.190
 2046POPC   C1A28275  21.817   6.652   8.752
 2046POPC   D2A28276  21.796   6.904   8.406
 2046POPC   C3A28277  21.734   6.658   8.038
 2046POPC   C4A28278  22.008   6.482   7.732
 2046POPC   C1B28279  22.324   6.612   8.746
 2046POPC   C2B28280  22.211   6.600   8.282
 2046POPC   C3B28281  22.482   6.605   7.887
 2046POPC   C4B28282  22.435   6.344   7.485
 2047POPC   NC328283  28.438  19.512   9.380
 2047POPC   PO428284  28.320  18.858   9.588
 2047POPC   GL128285  28.289  19.041   9.188
 2047POPC   GL228286  28.003  19.271   9.225
 2047POPC   C1A28287  28.543  19.107   8.804
 2047POPC   D2A28288  28.649  18.820   8.440
 2047POPC   C3A28289  28.534  18.988   8.046
 2047POPC   C4A28290  28.545  18.913   7.606
 2047POPC   C1B28291  28.025  19.284   8.804
 2047POPC   C2B28292  28.164  19.102   8.458
 2047POPC   C3B28293  28.250  19.394   8.160
 2047POPC   C4B28294  28.170  19.241   7.770
 2048POPC   NC328295  42.119  27.932   9.875
 2048POPC   PO428296  42.194  28.573   9.564
 2048POPC   GL128297  42.335  28.389   9.117
 2048POPC   GL228298  42.623  28.183   9.056
 2048POPC   C1A28299  42.340  28.425   8.703
 2048POPC   D2A28300  42.171  28.744   8.482
 2048POPC   C3A28301  42.075  28.529   8.116
 2048POPC   C4A28302  42.225  28.613   7.703
 2048POPC   C1B28303  42.759  27.994   8.705
 2048POPC   C2B28304  42.616  28.149   8.336
 2048POPC   C3B28305  42.518  28.268   7.952
 2048POPC   C4B28306  42.525  28.018   7.607
 2049POPC   NC328307   7.797  42.521   9.446
 2049POPC   PO428308   7.227  42.129   9.493
 2049POPC   GL128309   7.489  42.227   9.177
 2049POPC   GL228310   7.795  42.054   9.269
 2049POPC   C1A28311   7.394  42.467   8.798
 2049POPC   D2A28312   7.437  42.716   8.429
 2049POPC   C3A28313   7.331  42.508   8.073
 2049POPC   C4A28314   7.109  42.419   7.733
 2049POPC   C1B28315   7.836  42.031   8.816
 2049POPC   C2B28316   7.662  42.143   8.416
 2049POPC   C3B28317   7.797  42.294   8.014
 2049POPC   C4B28318   7.569  42.170   7.680
 2050POPC   NC328319  23.929  43.221   9.505
 2050POPC   PO428320  23.232  43.085   9.465
 2050POPC   GL128321  23.582  43.092   9.138
 2050POPC   GL228322  23.726  43.431   9.078
 2050POPC   C1A28323  23.880  42.999   8.779
 2050POPC   D2A28324  23.857  42.780   8.369
 2050POPC   C3A28325  24.068  42.862   7.959
 2050POPC   C4A28326  23.822  43.095   7.688
 2050POPC   C1B28327  23.569  43.395   8.661
 2050POPC   C2B28328  23.477  43.477   8.209
 2050POPC   C3B28329  23.562  43.506   7.762
 2050POPC   C4B28330  23.337  43.508   7.356
 2051POPC   NC328331  21.337  32.149   9.614
 2051POPC   PO428332  21.054  32.744   9.441
 2051POPC   GL128333  21.230  32.384   9.132
 2051POPC   GL228334  21.163  31.987   9.131
 2051POPC   C1A28335  21.390  32.294   8.690
 2051POPC   D2A28336  21.363  32.502   8.273
 2051POPC   C3A28337  21.644  32.390   7.977
 2051POPC   C4A28338  21.659  32.245   7.546
 2051POPC   C1B28339  21.288  31.787   8.707
 2051POPC   C2B28340  21.341  31.949   8.261
 2051POPC   C3B28341  21.404  31.875   7.807
 2051POPC   C4B28342  21.126  31.721   7.485
 2052POPC   NC328343  29.663  16.407   9.326
 2052POPC   PO428344  29.959  16.989   9.304
 2052POPC   GL128345  29.695  16.811   9.018
 2052POPC   GL228346  29.499  17.088   8.932
 2052POPC   C1A28347  29.852  16.588   8.655
 2052POPC   D2A28348  29.728  16.361   8.288
 2052POPC   C3A28349  29.861  16.530   7.888
 2052POPC   C4A28350  29.796  16.794   7.501
 2052POPC   C1B28351  29.910  17.129   8.687
 2052POPC   C2B28352  29.995  16.946   8.303
 2052POPC   C3B28353  30.088  16.978   7.908
 2052POPC   C4B28354  30.343  17.206   7.677
 2053POPC   NC328355  18.875  25.803   9.489
 2053POPC   PO428356  19.178  26.411   9.590
 2053POPC   GL128357  19.043  26.189   9.182
 2053POPC   GL228358  19.299  25.956   9.130
 2053POPC   C1A28359  19.022  26.002   8.712
 2053POPC   D2A28360  18.749  25.973   8.318
 2053POPC   C3A28361  18.924  26.121   7.914
 2053POPC   C4A28362  18.991  26.060   7.442
 2053POPC   C1B28363  19.487  25.623   8.874
 2053POPC   C2B28364  19.314  25.548   8.484
 2053POPC   C3B28365  19.206  25.774   8.168
 2053POPC   C4B28366  19.368  25.915   7.796
 2054POPC   NC328367  11.466  14.502   9.507
 2054POPC   PO428368  11.197  13.870   9.428
 2054POPC   GL128369  11.396  14.097   9.108
 2054POPC   GL228370  11.490  14.476   9.011
 2054POPC   C1A28371  11.549  14.072   8.712
 2054POPC   D2A28372  11.482  14.406   8.435
 2054POPC   C3A28373  11.326  14.332   8.030
 2054POPC   C4A28374  11.412  14.540   7.684
 2054POPC   C1B28375  11.228  14.749   8.731
 2054POPC   C2B28376  11.010  14.576   8.345
 2054POPC   C3B28377  10.916  14.760   7.952
 2054POPC   C4B28378  10.974  14.720   7.513
 2055POPC   NC328379  23.998  37.417   9.364
 2055POPC   PO428380  23.827  37.875   9.802
 2055POPC   GL128381  23.532  37.718   9.414
 2055POPC   GL228382  23.500  37.381   9.240
 2055POPC   C1A28383  23.455  37.753   8.921
 2055POPC   D2A28384  23.755  37.808   8.562
 2055POPC   C3A28385  23.583  37.800   8.133
 2055POPC   C4A28386  23.814  37.832   7.749
 2055POPC   C1B28387  23.731  37.345   8.806
 2055POPC   C2B28388  23.647  37.332   8.389
 2055POPC   C3B28389  23.870  37.384   8.019
 2055POPC   C4B28390  23.584  37.347   7.717
 2056POPC   NC328391  19.656   5.920   9.514
 2056POPC   PO428392  20.262   5.611   9.524
 2056POPC   GL128393  19.991   5.753   9.168
 2056POPC   GL228394  19.776   6.028   9.041
 2056POPC   C1A28395  20.070   5.776   8.722
 2056POPC   D2A28396  19.813   5.964   8.396
 2056POPC   C3A28397  20.002   5.961   7.952
 2056POPC   C4A28398  19.713   5.991   7.583
 2056POPC   C1B28399  19.562   5.675   8.853
 2056POPC   C2B28400  19.418   5.597   8.441
 2056POPC   C3B28401  19.640   5.618   8.046
 2056POPC   C4B28402  19.434   5.597   7.685
 2057POPC   NC328403  24.703  43.644   9.794
 2057POPC   PO428404  24.378  43.088   9.571
 2057POPC   GL128405  24.266  43.122   9.133
 2057POPC   GL228406  24.622  42.987   9.122
 2057POPC   C1A28407  24.336  43.297   8.733
 2057POPC   D2A28408  24.239  43.121   8.360
 2057POPC   C3A28409  24.134  43.374   7.994
 2057POPC   C4A28410  24.294  43.248   7.571
 2057POPC   C1B28411  24.828  43.051   8.752
 2057POPC   C2B28412  24.742  43.235   8.365
 2057POPC   C3B28413  24.597  43.085   7.959
 2057POPC   C4B28414  24.791  43.173   7.547
 2058POPC   NC328415  35.646  25.165   9.330
 2058POPC   PO428416  34.998  25.434   9.426
 2058POPC   GL128417  35.064  25.226   9.034
 2058POPC   GL228418  35.359  25.003   8.936
 2058POPC   C1A28419  35.040  25.184   8.582
 2058POPC   D2A28420  35.082  24.897   8.252
 2058POPC   C3A28421  35.307  25.131   7.959
 2058POPC   C4A28422  35.676  25.442   7.883
 2058POPC   C1B28423  35.516  24.931   8.528
 2058POPC   C2B28424  35.604  24.756   8.126
 2058POPC   C3B28425  35.633  24.810   7.664
 2058POPC   C4B28426  35.367  24.852   7.255
 2059POPC   NC328427  43.700   7.258   9.665
 2059POPC   PO428428  43.669   6.555   9.561
 2059POPC   GL128429  43.873   6.656   9.187
 2059POPC   GL228430  43.986   6.348   9.116
 2059POPC   C1A28431  43.774   6.685   8.745
 2059POPC   D2A28432  43.711   7.001   8.420
 2059POPC   C3A28433  43.777   6.863   7.997
 2059POPC   C4A28434  43.840   6.491   7.817
 2059POPC   C1B28435  44.267   6.428   8.799
 2059POPC   C2B28436  44.177   6.184   8.454
 2059POPC   C3B28437  43.930   6.126   8.134
 2059POPC   C4B28438  44.042   6.016   7.721
 2060POPC   NC328439  33.684  24.056   9.552
 2060POPC   PO428440  33.567  24.707   9.538
 2060POPC   GL128441  33.777  24.568   9.170
 2060POPC   GL228442  33.746  24.263   9.105
 2060POPC   C1A28443  33.895  24.624   8.715
 2060POPC   D2A28444  34.151  24.637   8.325
 2060POPC   C3A28445  33.932  24.405   7.980
 2060POPC   C4A28446  33.655  24.486   7.646
 2060POPC   C1B28447  33.661  24.096   8.719
 2060POPC   C2B28448  33.396  24.129   8.344
 2060POPC   C3B28449  33.523  24.077   7.919
 2060POPC   C4B28450  33.562  23.964   7.448
 2061POPC   NC328451   8.002   9.518   9.389
 2061POPC   PO428452   8.476  10.010   9.606
 2061POPC   GL128453   8.418   9.771   9.203
 2061POPC   GL228454   8.193   9.839   8.880
 2061POPC   C1A28455   8.662   9.672   8.833
 2061POPC   D2A28456   8.596   9.989   8.506
 2061POPC   C3A28457   8.252   9.939   8.199
 2061POPC   C4A28458   8.290   9.751   7.810
 2061POPC   C1B28459   7.827   9.609   8.686
 2061POPC   C2B28460   7.809   9.238   8.400
 2061POPC   C3B28461   7.696   9.232   7.976
 2061POPC   C4B28462   7.833   9.554   7.751
 2062POPC   NC328463  10.033  32.057   9.667
 2062POPC   PO428464   9.958  32.601   9.278
 2062POPC   GL128465   9.662  32.293   9.113
 2062POPC   GL228466   9.638  31.955   9.290
 2062POPC   C1A28467   9.551  32.387   8.692
 2062POPC   D2A28468   9.859  32.628   8.422
 2062POPC   C3A28469   9.829  32.474   8.006
 2062POPC   C4A28470   9.457  32.296   7.859
 2062POPC   C1B28471   9.561  31.827   8.874
 2062POPC   C2B28472   9.450  31.898   8.456
 2062POPC   C3B28473   9.773  31.977   8.154
 2062POPC   C4B28474   9.862  32.005   7.729
 2063POPC   NC328475  21.411   6.943   9.535
 2063POPC   PO428476  21.596   6.326   9.738
 2063POPC   GL128477  21.496   6.485   9.324
 2063POPC   GL228478  21.645   6.228   9.176
 2063POPC   C1A28479  21.316   6.571   8.919
 2063POPC   D2A28480  21.398   6.553   8.476
 2063POPC   C3A28481  21.198   6.691   8.100
 2063POPC   C4A28482  21.343   6.616   7.686
 2063POPC   C1B28483  21.861   6.152   8.813
 2063POPC   C2B28484  21.810   6.248   8.379
 2063POPC   C3B28485  21.453   6.225   8.075
 2063POPC   C4B28486  21.611   6.188   7.711
 2064POPC   NC328487  15.344  20.836   9.477
 2064POPC   PO428488  15.069  20.326   9.477
 2064POPC   GL128489  15.190  20.486   9.108
 2064POPC   GL228490  15.507  20.326   9.134
 2064POPC   C1A28491  15.104  20.660   8.686
 2064POPC   D2A28492  14.830  20.571   8.347
 2064POPC   C3A28493  15.033  20.669   7.964
 2064POPC   C4A28494  14.977  20.480   7.548
 2064POPC   C1B28495  15.375  20.235   8.714
 2064POPC   C2B28496  15.337  20.390   8.311
 2064POPC   C3B28497  15.294  20.235   7.921
 2064POPC   C4B28498  15.489  20.379   7.591
 2065POPC   NC328499  42.603   4.186   9.661
 2065POPC   PO428500  42.109   4.631   9.499
 2065POPC   GL128501  42.358   4.369   9.227
 2065POPC   GL228502  42.703   4.523   9.220
 2065POPC   C1A28503  42.203   4.178   8.832
 2065POPC   D2A28504  42.067   4.370   8.435
 2065POPC   C3A28505  42.154   4.095   8.100
 2065POPC   C4A28506  42.264   4.220   7.696
 2065POPC   C1B28507  42.723   4.249   8.834
 2065POPC   C2B28508  42.557   4.253   8.417
 2065POPC   C3B28509  42.670   4.137   7.997
 2065POPC   C4B28510  42.734   4.391   7.631
 2066POPC   NC328511  19.803  31.275   9.422
 2066POPC   PO428512  19.679  31.911   9.620
 2066POPC   GL128513  19.804  31.751   9.211
 2066POPC   GL228514  20.160  31.737   9.057
 2066POPC   C1A28515  19.760  31.945   8.824
 2066POPC   D2A28516  20.031  31.977   8.471
 2066POPC   C3A28517  19.847  31.881   8.109
 2066POPC   C4A28518  19.834  31.632   7.750
 2066POPC   C1B28519  19.940  31.449   8.799
 2066POPC   C2B28520  19.787  31.115   8.564
 2066POPC   C3B28521  19.736  31.150   8.133
 2066POPC   C4B28522  19.698  31.131   7.712
 2067POPC   NC328523   9.300   0.756   9.444
 2067POPC   PO428524   9.926   0.371   9.508
 2067POPC   GL128525   9.962   0.468   9.127
 2067POPC   GL228526   9.621   0.360   9.085
 2067POPC   C1A28527   9.882   0.619   8.734
 2067POPC   D2A28528   9.701   0.689   8.365
 2067POPC   C3A28529   9.942   0.805   8.022
 2067POPC   C4A28530   9.948   0.481   7.829
 2067POPC   C1B28531   9.384   0.584   8.795
 2067POPC   C2B28532   9.271   0.364   8.440
 2067POPC   C3B28533   9.437   0.380   8.027
 2067POPC   C4B28534   9.224   0.583   7.706
 2068POPC   NC328535  30.562   1.055   9.300
 2068POPC   PO428536  30.900   0.462   9.492
 2068POPC   GL128537  30.750   0.560   9.113
 2068POPC   GL228538  31.109   0.516   8.996
 2068POPC   C1A28539  30.719   0.581   8.672
 2068POPC   D2A28540  30.803   0.445   8.277
 2068POPC   C3A28541  30.524   0.383   7.912
 2068POPC   C4A28542  30.709   0.388   7.521
 2068POPC   C1B28543  31.119   0.171   8.693
 2068POPC   C2B28544  30.845  44.961   8.418
 2068POPC   C3B28545  30.887   0.030   7.991
 2068POPC   C4B28546  30.830  44.864   7.604
 2069POPC   NC328547  36.495  26.982   9.561
 2069POPC   PO428548  35.935  26.768   9.801
 2069POPC   GL128549  36.002  26.863   9.296
 2069POPC   GL228550  36.299  26.903   9.111
 2069POPC   C1A28551  35.885  26.883   8.820
 2069POPC   D2A28552  35.878  26.629   8.411
 2069POPC   C3A28553  35.900  26.852   8.016
 2069POPC   C4A28554  35.929  27.238   7.763
 2069POPC   C1B28555  36.345  27.125   8.773
 2069POPC   C2B28556  36.280  26.958   8.401
 2069POPC   C3B28557  36.345  27.098   8.026
 2069POPC   C4B28558  36.588  27.051   7.677
 2070POPC   NC328559   1.708  35.610   9.618
 2070POPC   PO428560   2.079  35.253   9.218
 2070POPC   GL128561   1.867  35.572   9.072
 2070POPC   GL228562   1.503  35.598   9.129
 2070POPC   C1A28563   1.980  35.559   8.648
 2070POPC   D2A28564   1.810  35.493   8.312
 2070POPC   C3A28565   2.129  35.408   8.084
 2070POPC   C4A28566   2.249  35.647   7.774
 2070POPC   C1B28567   1.509  35.179   8.945
 2070POPC   C2B28568   1.766  34.997   8.607
 2070POPC   C3B28569   1.715  35.044   8.147
 2070POPC   C4B28570   1.734  35.365   7.795
 2071POPC   NC328571   3.350  10.947   9.258
 2071POPC   PO428572   3.599  11.435   9.670
 2071POPC   GL128573   3.681  11.478   9.230
 2071POPC   GL228574   3.705  11.174   9.003
 2071POPC   C1A28575   3.605  11.631   8.826
 2071POPC   D2A28576   3.615  11.742   8.427
 2071POPC   C3A28577   3.548  11.430   8.123
 2071POPC   C4A28578   3.688  11.439   7.701
 2071POPC   C1B28579   3.685  10.838   8.711
 2071POPC   C2B28580   3.606  10.900   8.297
 2071POPC   C3B28581   3.743  10.936   7.921
 2071POPC   C4B28582   3.639  10.954   7.542
 2072POPC   NC328583  41.115  29.089   9.450
 2072POPC   PO428584  40.463  29.069   9.436
 2072POPC   GL128585  40.644  28.863   9.132
 2072POPC   GL228586  40.852  29.125   9.022
 2072POPC   C1A28587  40.482  28.801   8.738
 2072POPC   D2A28588  40.639  28.803   8.351
 2072POPC   C3A28589  40.923  28.902   8.059
 2072POPC   C4A28590  40.761  28.782   7.697
 2072POPC   C1B28591  40.865  29.171   8.607
 2072POPC   C2B28592  40.598  29.329   8.304
 2072POPC   C3B28593  40.756  29.385   7.915
 2072POPC   C4B28594  41.017  29.230   7.651
 2073POPC   NC328595  34.115  43.666   9.514
 2073POPC   PO428596  33.734  44.160   9.541
 2073POPC   GL128597  33.888  44.019   9.161
 2073POPC   GL228598  33.955  44.301   8.951
 2073POPC   C1A28599  33.912  43.688   8.851
 2073POPC   D2A28600  33.971  43.608   8.399
 2073POPC   C3A28601  34.117  43.971   8.120
 2073POPC   C4A28602  33.951  44.245   7.778
 2073POPC   C1B28603  33.578  44.121   8.727
 2073POPC   C2B28604  33.467  44.002   8.285
 2073POPC   C3B28605  33.445  44.203   7.849
 2073POPC   C4B28606  33.580  44.280   7.393
 2074POPC   NC328607   3.260  13.540   9.501
 2074POPC   PO428608   3.889  13.705   9.496
 2074POPC   GL128609   3.732  13.837   9.131
 2074POPC   GL228610   3.410  13.867   9.124
 2074POPC   C1A28611   3.851  13.682   8.732
 2074POPC   D2A28612   3.903  13.825   8.319
 2074POPC   C3A28613   3.704  13.547   8.068
 2074POPC   C4A28614   3.500  13.534   7.688
 2074POPC   C1B28615   3.202  13.930   8.770
 2074POPC   C2B28616   3.384  13.772   8.421
 2074POPC   C3B28617   3.330  13.912   8.027
 2074POPC   C4B28618   3.101  13.906   7.681
 2075POPC   NC328619  23.858  36.427   9.385
 2075POPC   PO428620  23.468  35.905   9.544
 2075POPC   GL128621  23.782  35.971   9.143
 2075POPC   GL228622  24.092  36.215   8.999
 2075POPC   C1A28623  23.682  36.078   8.714
 2075POPC   D2A28624  23.695  36.260   8.326
 2075POPC   C3A28625  23.510  36.051   7.995
 2075POPC   C4A28626  23.679  36.268   7.657
 2075POPC   C1B28627  24.141  35.853   8.766
 2075POPC   C2B28628  23.954  35.803   8.369
 2075POPC   C3B28629  24.019  35.988   7.966
 2075POPC   C4B28630  24.162  36.067   7.524
 2076POPC   NC328631   2.182   3.807   9.955
 2076POPC   PO428632   1.811   3.298   9.626
 2076POPC   GL128633   1.912   3.397   9.229
 2076POPC   GL228634   1.824   3.039   9.163
 2076POPC   C1A28635   1.851   3.647   8.861
 2076POPC   D2A28636   1.780   3.695   8.420
 2076POPC   C3A28637   2.154   3.507   8.221
 2076POPC   C4A28638   2.273   3.541   7.824
 2076POPC   C1B28639   2.026   3.148   8.794
 2076POPC   C2B28640   1.827   3.162   8.413
 2076POPC   C3B28641   1.824   3.181   7.980
 2076POPC   C4B28642   1.569   3.440   7.700
 2077POPC   NC328643   2.526  20.097   9.580
 2077POPC   PO428644   2.830  19.522   9.550
 2077POPC   GL128645   2.685  19.541   9.111
 2077POPC   GL228646   2.509  19.885   9.115
 2077POPC   C1A28647   2.682  19.715   8.671
 2077POPC   D2A28648   3.009  19.768   8.374
 2077POPC   C3A28649   2.763  19.825   8.017
 2077POPC   C4A28650   2.561  19.868   7.662
 2077POPC   C1B28651   2.947  20.023   8.935
 2077POPC   C2B28652   2.904  20.241   8.510
 2077POPC   C3B28653   3.075  20.209   8.099
 2077POPC   C4B28654   3.046  20.053   7.666
 2078POPC   NC328655  18.647   3.359   9.516
 2078POPC   PO428656  18.007   3.603   9.490
 2078POPC   GL128657  18.273   3.489   9.156
 2078POPC   GL228658  18.568   3.709   9.136
 2078POPC   C1A28659  18.288   3.459   8.717
 2078POPC   D2A28660  18.026   3.422   8.371
 2078POPC   C3A28661  18.113   3.648   7.992
 2078POPC   C4A28662  18.187   3.782   7.564
 2078POPC   C1B28663  18.654   3.856   8.737
 2078POPC   C2B28664  18.512   3.663   8.323
 2078POPC   C3B28665  18.619   3.544   7.904
 2078POPC   C4B28666  18.880   3.808   7.704
 2079POPC   NC328667  32.612  25.578   9.507
 2079POPC   PO428668  33.213  25.245   9.513
 2079POPC   GL128669  32.867  25.140   9.239
 2079POPC   GL228670  32.904  25.455   9.096
 2079POPC   C1A28671  32.910  25.025   8.802
 2079POPC   D2A28672  33.021  25.357   8.517
 2079POPC   C3A28673  33.034  25.128   8.122
 2079POPC   C4A28674  33.255  25.213   7.748
 2079POPC   C1B28675  32.700  25.748   8.863
 2079POPC   C2B28676  32.558  25.647   8.478
 2079POPC   C3B28677  32.784  25.564   8.119
 2079POPC   C4B28678  32.858  25.602   7.705
 2080POPC   NC328679  36.551   5.312   9.846
 2080POPC   PO428680  37.097   5.310   9.618
 2080POPC   GL128681  36.911   5.271   9.209
 2080POPC   GL228682  36.691   4.970   9.171
 2080POPC   C1A28683  37.023   5.256   8.783
 2080POPC   D2A28684  37.070   5.088   8.385
 2080POPC   C3A28685  37.201   5.269   7.991
 2080POPC   C4A28686  37.086   5.113   7.597
 2080POPC   C1B28687  36.470   4.841   8.773
 2080POPC   C2B28688  36.627   4.830   8.367
 2080POPC   C3B28689  36.706   5.090   8.001
 2080POPC   C4B28690  36.500   5.228   7.637
 2081POPC   NC328691  40.538   2.980   9.572
 2081POPC   PO428692  40.995   2.569   9.488
 2081POPC   GL128693  40.906   2.833   9.179
 2081POPC   GL228694  40.593   2.787   9.115
 2081POPC   C1A28695  40.992   2.631   8.766
 2081POPC   D2A28696  40.810   2.599   8.363
 2081POPC   C3A28697  40.953   2.739   7.965
 2081POPC   C4A28698  40.731   3.067   7.775
 2081POPC   C1B28699  40.478   2.552   8.788
 2081POPC   C2B28700  40.291   2.634   8.405
 2081POPC   C3B28701  40.428   2.730   8.019
 2081POPC   C4B28702  40.560   2.576   7.626
 2082POPC   NC328703   6.011   1.971   9.291
 2082POPC   PO428704   5.555   2.428   9.483
 2082POPC   GL128705   5.615   2.206   9.084
 2082POPC   GL228706   5.613   1.824   9.025
 2082POPC   C1A28707   5.775   2.142   8.647
 2082POPC   D2A28708   5.755   1.933   8.241
 2082POPC   C3A28709   5.899   2.214   7.948
 2082POPC   C4A28710   6.350   2.276   7.860
 2082POPC   C1B28711   5.911   1.656   8.672
 2082POPC   C2B28712   5.946   1.418   8.319
 2082POPC   C3B28713   5.712   1.460   7.976
 2082POPC   C4B28714   5.660   1.808   7.728
 2083POPC   NC328715   0.748  26.916   9.523
 2083POPC   PO428716   0.037  26.843   9.506
 2083POPC   GL128717   0.343  26.757   9.232
 2083POPC   GL228718   0.459  27.053   9.133
 2083POPC   C1A28719   0.407  26.677   8.809
 2083POPC   D2A28720   0.673  26.472   8.575
 2083POPC   C3A28721   0.627  26.464   8.131
 2083POPC   C4A28722   0.922  26.491   7.774
 2083POPC   C1B28723   0.527  27.181   8.688
 2083POPC   C2B28724   0.809  27.122   8.299
 2083POPC   C3B28725   0.734  26.952   7.865
 2083POPC   C4B28726   0.314  26.737   7.790
 2084POPC   NC328727  19.286  17.174   9.565
 2084POPC   PO428728  18.913  17.698   9.647
 2084POPC   GL128729  18.985  17.746   9.229
 2084POPC   GL228730  19.262  17.500   9.152
 2084POPC   C1A28731  18.801  17.733   8.834
 2084POPC   D2A28732  18.957  17.514   8.471
 2084POPC   C3A28733  18.842  17.628   8.091
 2084POPC   C4A28734  19.049  17.804   7.779
 2084POPC   C1B28735  19.033  17.209   8.882
 2084POPC   C2B28736  19.034  17.012   8.471
 2084POPC   C3B28737  19.054  17.126   8.036
 2084POPC   C4B28738  19.130  16.890   7.689
 2085POPC   NC328739  23.071  23.280   9.472
 2085POPC   PO428740  23.066  23.989   9.535
 2085POPC   GL128741  22.870  23.782   9.237
 2085POPC   GL228742  23.164  23.666   9.104
 2085POPC   C1A28743  22.793  23.842   8.801
 2085POPC   D2A28744  22.949  24.019   8.431
 2085POPC   C3A28745  22.728  23.872   8.078
 2085POPC   C4A28746  22.687  23.800   7.644
 2085POPC   C1B28747  23.063  23.333   8.802
 2085POPC   C2B28748  23.016  23.277   8.362
 2085POPC   C3B28749  23.167  23.548   8.026
 2085POPC   C4B28750  23.084  23.508   7.604
 2086POPC   NC328751   4.143   0.765   9.517
 2086POPC   PO428752   4.496   0.208   9.485
 2086POPC   GL128753   4.401   0.305   9.106
 2086POPC   GL228754   4.494   0.629   9.145
 2086POPC   C1A28755   4.155   0.156   8.739
 2086POPC   D2A28756   3.992  44.865   8.449
 2086POPC   C3A28757   4.164   0.087   8.135
 2086POPC   C4A28758   4.395   0.306   7.888
 2086POPC   C1B28759   4.177   0.670   8.821
 2086POPC   C2B28760   4.229   0.590   8.379
 2086POPC   C3B28761   4.180   0.746   7.980
 2086POPC   C4B28762   3.886   0.896   7.706
 2087POPC   NC328763  26.567   8.691   9.533
 2087POPC   PO428764  26.831   9.318   9.683
 2087POPC   GL128765  26.736   9.134   9.292
 2087POPC   GL228766  26.941   8.867   9.213
 2087POPC   C1A28767  26.541   9.010   8.891
 2087POPC   D2A28768  26.726   9.063   8.483
 2087POPC   C3A28769  26.507   9.109   8.095
 2087POPC   C4A28770  26.694   8.953   7.716
 2087POPC   C1B28771  26.950   8.680   8.817
 2087POPC   C2B28772  26.872   8.546   8.397
 2087POPC   C3B28773  27.061   8.530   8.010
 2087POPC   C4B28774  27.186   8.754   7.669
 2088POPC   NC328775  25.143  19.298   9.842
 2088POPC   PO428776  25.386  18.740   9.499
 2088POPC   GL128777  25.326  19.084   9.236
 2088POPC   GL228778  25.091  18.846   9.074
 2088POPC   C1A28779  25.257  19.301   8.832
 2088POPC   D2A28780  25.463  19.314   8.408
 2088POPC   C3A28781  25.236  19.291   7.995
 2088POPC   C4A28782  25.413  19.226   7.553
 2088POPC   C1B28783  25.042  18.604   8.707
 2088POPC   C2B28784  25.112  18.736   8.285
 2088POPC   C3B28785  25.249  18.824   7.863
 2088POPC   C4B28786  24.948  19.017   7.577
 2089POPC   NC328787  36.496  28.553   9.409
 2089POPC   PO428788  37.180  28.149   9.540
 2089POPC   GL128789  36.907  28.285   9.270
 2089POPC   GL228790  36.988  28.657   9.372
 2089POPC   C1A28791  36.718  28.131   8.883
 2089POPC   D2A28792  36.765  28.348   8.503
 2089POPC   C3A28793  36.737  28.178   8.114
 2089POPC   C4A28794  36.705  28.442   7.757
 2089POPC   C1B28795  36.996  28.667   8.904
 2089POPC   C2B28796  37.214  28.582   8.518
 2089POPC   C3B28797  37.060  28.606   8.117
 2089POPC   C4B28798  37.256  28.609   7.737
 2090POPC   NC328799  10.774  31.819   9.650
 2090POPC   PO428800  10.890  31.187   9.714
 2090POPC   GL128801  10.538  31.323   9.366
 2090POPC   GL228802  10.464  31.689   9.262
 2090POPC   C1A28803  10.471  31.310   8.877
 2090POPC   D2A28804  10.664  31.559   8.488
 2090POPC   C3A28805  10.720  31.470   8.036
 2090POPC   C4A28806  10.429  31.290   7.751
 2090POPC   C1B28807  10.376  31.820   8.822
 2090POPC   C2B28808  10.238  31.847   8.378
 2090POPC   C3B28809  10.285  31.764   7.945
 2090POPC   C4B28810  10.560  31.771   7.584
 2091POPC   NC328811  17.823  41.630   9.955
 2091POPC   PO428812  17.324  41.491   9.561
 2091POPC   GL128813  17.374  41.485   9.143
 2091POPC   GL228814  17.748  41.502   9.144
 2091POPC   C1A28815  17.210  41.627   8.733
 2091POPC   D2A28816  17.309  41.863   8.354
 2091POPC   C3A28817  17.560  41.699   7.988
 2091POPC   C4A28818  17.177  41.845   7.777
 2091POPC   C1B28819  17.649  41.340   8.740
 2091POPC   C2B28820  17.456  41.361   8.376
 2091POPC   C3B28821  17.163  41.414   8.082
 2091POPC   C4B28822  17.256  41.147   7.799
 2092POPC   NC328823  33.979   7.569   9.396
 2092POPC   PO428824  33.748   7.036   9.641
 2092POPC   GL128825  33.658   7.253   9.194
 2092POPC   GL228826  33.483   7.554   9.147
 2092POPC   C1A28827  33.465   7.214   8.771
 2092POPC   D2A28828  33.653   7.289   8.373
 2092POPC   C3A28829  33.441   7.403   8.020
 2092POPC   C4A28830  33.585   7.433   7.596
 2092POPC   C1B28831  33.406   7.732   8.714
 2092POPC   C2B28832  33.547   7.845   8.279
 2092POPC   C3B28833  33.856   7.711   7.940
 2092POPC   C4B28834  33.967   7.825   7.486
 2093POPC   NC328835  12.247  31.324   9.410
 2093POPC   PO428836  12.017  31.978   9.521
 2093POPC   GL128837  11.965  31.686   9.162
 2093POPC   GL228838  11.810  31.342   9.149
 2093POPC   C1A28839  12.159  31.510   8.781
 2093POPC   D2A28840  12.296  31.319   8.405
 2093POPC   C3A28841  12.237  31.546   8.064
 2093POPC   C4A28842  12.257  31.353   7.687
 2093POPC   C1B28843  11.738  31.216   8.739
 2093POPC   C2B28844  11.769  31.383   8.326
 2093POPC   C3B28845  11.780  31.360   7.879
 2093POPC   C4B28846  11.849  31.396   7.412
 2094POPC   NC328847  15.898  16.863   9.516
 2094POPC   PO428848  16.006  16.159   9.466
 2094POPC   GL128849  15.893  16.455   9.164
 2094POPC   GL228850  16.214  16.584   9.211
 2094POPC   C1A28851  15.599  16.535   8.816
 2094POPC   D2A28852  15.472  16.701   8.437
 2094POPC   C3A28853  15.738  16.521   8.128
 2094POPC   C4A28854  15.858  16.758   7.801
 2094POPC   C1B28855  16.092  16.791   8.815
 2094POPC   C2B28856  15.980  16.905   8.381
 2094POPC   C3B28857  16.003  17.199   8.031
 2094POPC   C4B28858  16.188  17.106   7.645
 2095POPC   NC328859  43.606  43.610   9.427
 2095POPC   PO428860  44.128  44.029   9.508
 2095POPC   GL128861  43.891  43.971   9.120
 2095POPC   GL228862  43.625  44.201   9.071
 2095POPC   C1A28863  43.728  43.907   8.670
 2095POPC   D2A28864  43.568  43.724   8.280
 2095POPC   C3A28865  43.900  43.682   7.949
 2095POPC   C4A28866  44.178  43.380   7.749
 2095POPC   C1B28867  43.950  44.362   8.759
 2095POPC   C2B28868  44.008  44.241   8.319
 2095POPC   C3B28869  43.711  44.161   7.984
 2095POPC   C4B28870  43.745  44.122   7.530
 2096POPC   NC328871   1.411  42.693   9.714
 2096POPC   PO428872   0.946  43.113   9.729
 2096POPC   GL128873   1.042  43.121   9.253
 2096POPC   GL228874   1.304  43.329   9.162
 2096POPC   C1A28875   1.185  42.968   8.834
 2096POPC   D2A28876   1.213  43.085   8.397
 2096POPC   C3A28877   1.252  42.815   8.053
 2096POPC   C4A28878   1.043  43.052   7.699
 2096POPC   C1B28879   1.402  43.440   8.727
 2096POPC   C2B28880   1.604  43.433   8.318
 2096POPC   C3B28881   1.425  43.291   7.951
 2096POPC   C4B28882   1.403  43.354   7.505
 2097POPC   NC328883  36.091  25.201   9.679
 2097POPC   PO428884  36.664  25.290   9.483
 2097POPC   GL128885  36.329  25.366   9.226
 2097POPC   GL228886  36.157  25.061   9.180
 2097POPC   C1A28887  36.275  25.490   8.814
 2097POPC   D2A28888  36.302  25.658   8.409
 2097POPC   C3A28889  36.397  25.369   8.087
 2097POPC   C4A28890  36.192  25.501   7.759
 2097POPC   C1B28891  35.965  25.070   8.772
 2097POPC   C2B28892  35.921  25.206   8.336
 2097POPC   C3B28893  36.007  25.033   7.944
 2097POPC   C4B28894  35.918  25.172   7.508
 2098POPC   NC328895  11.280   2.510   9.475
 2098POPC   PO428896  11.345   3.138   9.309
 2098POPC   GL128897  11.011   2.924   9.048
 2098POPC   GL228898  10.993   2.563   9.032
 2098POPC   C1A28899  10.908   2.841   8.589
 2098POPC   D2A28900  11.235   2.939   8.267
 2098POPC   C3A28901  11.225   2.909   7.810
 2098POPC   C4A28902  11.204   3.019   7.366
 2098POPC   C1B28903  11.370   2.674   8.748
 2098POPC   C2B28904  11.472   2.492   8.338
 2098POPC   C3B28905  11.135   2.446   8.038
 2098POPC   C4B28906  11.139   2.451   7.594
 2099POPC   NC328907  31.475  26.225   9.539
 2099POPC   PO428908  31.230  25.555   9.473
 2099POPC   GL128909  31.374  25.849   9.175
 2099POPC   GL228910  31.321  26.201   9.068
 2099POPC   C1A28911  31.620  25.834   8.819
 2099POPC   D2A28912  31.700  25.931   8.406
 2099POPC   C3A28913  31.323  26.092   8.217
 2099POPC   C4A28914  31.282  25.923   7.875
 2099POPC   C1B28915  31.442  26.316   8.661
 2099POPC   C2B28916  31.656  26.457   8.288
 2099POPC   C3B28917  31.675  26.282   7.884
 2099POPC   C4B28918  31.507  26.329   7.473
 2100POPC   NC328919  17.316  40.293   9.475
 2100POPC   PO428920  17.868  39.908   9.581
 2100POPC   GL128921  17.746  40.123   9.205
 2100POPC   GL228922  17.834  39.843   9.026
 2100POPC   C1A28923  17.549  40.181   8.781
 2100POPC   D2A28924  17.615  40.373   8.347
 2100POPC   C3A28925  17.772  40.208   7.928
 2100POPC   C4A28926  17.373  40.158   7.785
 2100POPC   C1B28927  17.698  39.714   8.594
 2100POPC   C2B28928  17.585  39.798   8.149
 2100POPC   C3B28929  17.813  39.668   7.784
 2100POPC   C4B28930  17.852  39.516   7.366
 2101POPC   NC328931   9.593  30.340   9.406
 2101POPC   PO428932  10.085  30.716   9.683
 2101POPC   GL128933   9.880  30.749   9.263
 2101POPC   GL228934   9.536  30.835   9.224
 2101POPC   C1A28935   9.969  30.840   8.837
 2101POPC   D2A28936   9.896  30.632   8.476
 2101POPC   C3A28937   9.952  30.878   8.138
 2101POPC   C4A28938   9.823  30.745   7.767
 2101POPC   C1B28939   9.471  30.680   8.812
 2101POPC   C2B28940   9.384  30.457   8.452
 2101POPC   C3B28941   9.468  30.606   8.103
 2101POPC   C4B28942   9.325  30.612   7.700
 2102POPC   NC328943  22.573  29.349   9.443
 2102POPC   PO428944  22.018  28.894   9.475
 2102POPC   GL128945  22.081  29.137   9.153
 2102POPC   GL228946  22.405  29.002   9.114
 2102POPC   C1A28947  22.149  29.209   8.724
 2102POPC   D2A28948  22.284  29.387   8.353
 2102POPC   C3A28949  22.081  29.180   8.043
 2102POPC   C4A28950  22.151  29.105   7.636
 2102POPC   C1B28951  22.427  28.762   8.747
 2102POPC   C2B28952  22.404  28.816   8.300
 2102POPC   C3B28953  22.569  29.009   7.935
 2102POPC   C4B28954  22.597  28.971   7.467
 2103POPC   NC328955  11.521   7.534   9.487
 2103POPC   PO428956  10.922   7.227   9.708
 2103POPC   GL128957  10.993   7.236   9.262
 2103POPC   GL228958  11.327   7.124   9.243
 2103POPC   C1A28959  11.183   7.451   8.873
 2103POPC   D2A28960  11.279   7.733   8.509
 2103POPC   C3A28961  11.163   7.599   8.107
 2103POPC   C4A28962  11.459   7.645   7.796
 2103POPC   C1B28963  11.499   7.026   8.815
 2103POPC   C2B28964  11.446   7.232   8.398
 2103POPC   C3B28965  11.410   7.122   7.941
 2103POPC   C4B28966  11.729   6.941   7.688
 2104POPC   NC328967  12.834  34.096   9.458
 2104POPC   PO428968  12.793  33.468   9.484
 2104POPC   GL128969  12.736  33.699   9.106
 2104POPC   GL228970  12.548  34.016   9.042
 2104POPC   C1A28971  12.662  33.546   8.701
 2104POPC   D2A28972  12.938  33.621   8.347
 2104POPC   C3A28973  12.713  33.900   8.130
 2104POPC   C4A28974  12.651  34.011   7.710
 2104POPC   C1B28975  12.914  34.019   8.731
 2104POPC   C2B28976  13.024  34.256   8.340
 2104POPC   C3B28977  13.135  34.086   7.931
 2104POPC   C4B28978  13.090  34.104   7.457
 2105POPC   NC328979  38.516  33.376   9.896
 2105POPC   PO428980  38.285  32.764   9.576
 2105POPC   GL128981  38.455  32.943   9.202
 2105POPC   GL228982  38.501  33.341   9.165
 2105POPC   C1A28983  38.214  32.814   8.865
 2105POPC   D2A28984  38.182  32.853   8.441
 2105POPC   C3A28985  38.538  32.885   8.173
 2105POPC   C4A28986  38.504  32.682   7.756
 2105POPC   C1B28987  38.541  33.185   8.739
 2105POPC   C2B28988  38.742  33.322   8.371
 2105POPC   C3B28989  38.631  33.347   7.944
 2105POPC   C4B28990  38.676  33.124   7.564
 2106POPC   NC328991  30.910  29.172   9.720
 2106POPC   PO428992  31.589  29.165   9.641
 2106POPC   GL128993  31.651  29.164   9.165
 2106POPC   GL228994  31.597  29.466   9.004
 2106POPC   C1A28995  31.532  29.055   8.726
 2106POPC   D2A28996  31.419  29.118   8.308
 2106POPC   C3A28997  31.438  28.974   7.870
 2106POPC   C4A28998  31.470  29.154   7.474
 2106POPC   C1B28999  31.233  29.513   8.746
 2106POPC   C2B29000  31.058  29.448   8.362
 2106POPC   C3B29001  31.016  29.253   8.000
 2106POPC   C4B29002  30.709  29.296   7.723
 2107POPC   NC329003  19.603  30.344   9.467
 2107POPC   PO429004  20.019  29.872   9.573
 2107POPC   GL129005  20.084  29.883   9.153
 2107POPC   GL229006  20.009  30.223   9.079
 2107POPC   C1A29007  19.907  29.721   8.762
 2107POPC   D2A29008  19.796  29.909   8.374
 2107POPC   C3A29009  20.025  29.875   8.002
 2107POPC   C4A29010  20.383  29.721   7.861
 2107POPC   C1B29011  19.651  30.218   8.787
 2107POPC   C2B29012  19.442  30.276   8.378
 2107POPC   C3B29013  19.621  30.188   7.959
 2107POPC   C4B29014  19.564  30.162   7.521
 2108POPC   NC329015   6.244  22.656   9.386
 2108POPC   PO429016   5.825  23.162   9.520
 2108POPC   GL129017   5.921  22.979   9.157
 2108POPC   GL229018   5.634  22.780   9.174
 2108POPC   C1A29019   5.952  23.030   8.711
 2108POPC   D2A29020   5.623  22.980   8.403
 2108POPC   C3A29021   5.722  22.911   8.010
 2108POPC   C4A29022   5.999  23.156   7.714
 2108POPC   C1B29023   5.710  22.582   8.795
 2108POPC   C2B29024   5.940  22.569   8.412
 2108POPC   C3B29025   6.028  22.505   7.998
 2108POPC   C4B29026   5.769  22.587   7.637
 2109POPC   NC329027  38.797  17.151   9.520
 2109POPC   PO429028  39.040  17.813   9.457
 2109POPC   GL129029  39.282  17.624   9.146
 2109POPC   GL229030  39.145  17.297   9.183
 2109POPC   C1A29031  39.493  17.562   8.748
 2109POPC   D2A29032  39.507  17.646   8.311
 2109POPC   C3A29033  39.123  17.628   8.085
 2109POPC   C4A29034  39.109  17.759   7.698
 2109POPC   C1B29035  39.232  17.103   8.783
 2109POPC   C2B29036  39.215  17.235   8.392
 2109POPC   C3B29037  39.386  17.182   7.984
 2109POPC   C4B29038  39.316  17.299   7.555
 2110POPC   NC329039  18.052  30.482   9.551
 2110POPC   PO429040  18.283  29.781   9.558
 2110POPC   GL129041  18.220  29.993   9.188
 2110POPC   GL229042  18.444  30.280   9.258
 2110POPC   C1A29043  18.238  29.752   8.786
 2110POPC   D2A29044  18.562  29.597   8.484
 2110POPC   C3A29045  18.360  29.579   8.071
 2110POPC   C4A29046  18.039  29.784   7.835
 2110POPC   C1B29047  18.624  30.070   8.885
 2110POPC   C2B29048  18.567  30.122   8.458
 2110POPC   C3B29049  18.718  30.007   8.073
 2110POPC   C4B29050  18.495  30.001   7.738
 2111POPC   NC329051  21.491  40.681   9.655
 2111POPC   PO429052  21.923  41.135   9.430
 2111POPC   GL129053  21.658  40.817   9.158
 2111POPC   GL229054  21.319  40.623   9.170
 2111POPC   C1A29055  21.637  40.681   8.711
 2111POPC   D2A29056  21.438  40.854   8.296
 2111POPC   C3A29057  21.541  40.636   7.878
 2111POPC   C4A29058  21.660  40.581   7.424
 2111POPC   C1B29059  21.183  40.888   8.819
 2111POPC   C2B29060  20.955  41.002   8.462
 2111POPC   C3B29061  20.948  40.765   8.108
 2111POPC   C4B29062  21.155  40.951   7.774
 2112POPC   NC329063  17.157  15.565   9.526
 2112POPC   PO429064  17.507  15.083   9.636
 2112POPC   GL129065  17.611  15.088   9.210
 2112POPC   GL229066  17.267  15.210   9.173
 2112POPC   C1A29067  17.842  15.009   8.804
 2112POPC   D2A29068  17.701  14.815   8.409
 2112POPC   C3A29069  17.738  15.023   8.017
 2112POPC   C4A29070  17.564  14.887   7.642
 2112POPC   C1B29071  17.312  15.063   8.764
 2112POPC   C2B29072  17.409  15.252   8.370
 2112POPC   C3B29073  17.220  15.191   7.977
 2112POPC   C4B29074  17.086  14.873   7.756
 2113POPC   NC329075   8.703  33.931   9.618
 2113POPC   PO429076   9.178  33.533   9.457
 2113POPC   GL129077   8.891  33.698   9.195
 2113POPC   GL229078   8.896  34.047   9.160
 2113POPC   C1A29079   8.764  33.690   8.805
 2113POPC   D2A29080   9.030  33.736   8.480
 2113POPC   C3A29081   8.836  33.576   8.135
 2113POPC   C4A29082   8.682  33.829   7.808
 2113POPC   C1B29083   9.180  34.105   8.832
 2113POPC   C2B29084   9.128  34.241   8.412
 2113POPC   C3B29085   9.104  34.020   8.045
 2113POPC   C4B29086   9.125  34.093   7.613
 2114POPC   NC329087  11.166  37.174   9.530
 2114POPC   PO429088  11.662  37.669   9.459
 2114POPC   GL129089  11.451  37.390   9.126
 2114POPC   GL229090  11.053  37.355   9.071
 2114POPC   C1A29091  11.349  37.552   8.698
 2114POPC   D2A29092  11.190  37.829   8.344
 2114POPC   C3A29093  11.529  37.928   8.043
 2114POPC   C4A29094  11.549  37.755   7.627
 2114POPC   C1B29095  10.875  37.363   8.641
 2114POPC   C2B29096  11.143  37.304   8.280
 2114POPC   C3B29097  11.141  37.532   7.872
 2114POPC   C4B29098  10.945  37.312   7.500
 2115POPC   NC329099   4.108  25.629   9.497
 2115POPC   PO429100   4.698  26.070   9.424
 2115POPC   GL129101   4.416  26.160   9.103
 2115POPC   GL229102   4.081  26.329   9.226
 2115POPC   C1A29103   4.454  25.937   8.694
 2115POPC   D2A29104   4.250  25.790   8.340
 2115POPC   C3A29105   4.408  25.956   7.976
 2115POPC   C4A29106   4.421  25.700   7.615
 2115POPC   C1B29107   4.013  26.198   8.786
 2115POPC   C2B29108   4.163  26.297   8.377
 2115POPC   C3B29109   3.944  26.218   8.001
 2115POPC   C4B29110   3.838  26.458   7.650
 2116POPC   NC329111  11.232  25.396   9.569
 2116POPC   PO429112  11.641  25.000   9.419
 2116POPC   GL129113  11.298  25.207   9.088
 2116POPC   GL229114  10.936  25.367   9.075
 2116POPC   C1A29115  11.219  25.424   8.656
 2116POPC   D2A29116  11.102  25.374   8.197
 2116POPC   C3A29117  11.430  25.205   7.866
 2116POPC   C4A29118  11.713  25.384   7.517
 2116POPC   C1B29119  10.884  25.033   8.787
 2116POPC   C2B29120  11.062  24.846   8.428
 2116POPC   C3B29121  11.003  24.918   7.997
 2116POPC   C4B29122  10.815  25.194   7.689
 2117POPC   NC329123   2.888  23.701   9.421
 2117POPC   PO429124   2.427  23.347   9.124
 2117POPC   GL129125   2.592  23.792   8.977
 2117POPC   GL229126   2.924  23.989   8.973
 2117POPC   C1A29127   2.668  23.888   8.543
 2117POPC   D2A29128   2.793  23.534   8.278
 2117POPC   C3A29129   2.731  23.583   7.845
 2117POPC   C4A29130   2.412  23.875   7.647
 2117POPC   C1B29131   3.053  23.633   8.787
 2117POPC   C2B29132   3.266  23.642   8.462
 2117POPC   C3B29133   3.298  23.524   8.094
 2117POPC   C4B29134   3.229  23.674   7.700
 2118POPC   NC329135  26.934  20.857  10.046
 2118POPC   PO429136  26.521  20.656   9.477
 2118POPC   GL129137  26.508  20.616   9.031
 2118POPC   GL229138  26.901  20.675   9.082
 2118POPC   C1A29139  26.495  20.431   8.625
 2118POPC   D2A29140  26.791  20.389   8.280
 2118POPC   C3A29141  26.698  20.322   7.869
 2118POPC   C4A29142  26.574  20.712   7.707
 2118POPC   C1B29143  27.048  20.520   8.705
 2118POPC   C2B29144  27.268  20.563   8.332
 2118POPC   C3B29145  27.112  20.641   7.914
 2118POPC   C4B29146  26.992  20.488   7.465
 2119POPC   NC329147  13.177  42.626   9.536
 2119POPC   PO429148  12.669  42.148   9.571
 2119POPC   GL129149  12.789  42.405   9.249
 2119POPC   GL229150  12.510  42.471   9.016
 2119POPC   C1A29151  12.964  42.342   8.844
 2119POPC   D2A29152  12.741  42.345   8.459
 2119POPC   C3A29153  12.942  42.046   8.188
 2119POPC   C4A29154  12.898  41.952   7.764
 2119POPC   C1B29155  12.597  42.801   8.686
 2119POPC   C2B29156  12.598  42.799   8.227
 2119POPC   C3B29157  12.726  42.455   7.948
 2119POPC   C4B29158  12.764  42.438   7.524
 2120POPC   NC329159  42.026   3.209   9.346
 2120POPC   PO429160  42.323   2.627   9.390
 2120POPC   GL129161  42.227   2.817   9.051
 2120POPC   GL229162  42.485   3.106   9.129
 2120POPC   C1A29163  42.043   2.483   8.799
 2120POPC   D2A29164  41.811   2.495   8.447
 2120POPC   C3A29165  41.931   2.828   8.174
 2120POPC   C4A29166  41.939   2.698   7.736
 2120POPC   C1B29167  42.604   2.971   8.745
 2120POPC   C2B29168  42.349   2.743   8.466
 2120POPC   C3B29169  42.418   2.744   8.022
 2120POPC   C4B29170  42.825   2.693   7.834
 2121POPC   NC329171   2.558  44.645   9.450
 2121POPC   PO429172   3.244  44.806   9.477
 2121POPC   GL129173   2.939  44.741   9.101
 2121POPC   GL229174   2.555  44.866   9.002
 2121POPC   C1A29175   2.752  44.471   8.764
 2121POPC   D2A29176   2.578  44.665   8.416
 2121POPC   C3A29177   2.815  44.608   8.061
 2121POPC   C4A29178   2.620  44.415   7.736
 2121POPC   C1B29179   2.766   0.110   8.734
 2121POPC   C2B29180   2.951   0.053   8.370
 2121POPC   C3B29181   2.656   0.096   8.111
 2121POPC   C4B29182   2.585  44.953   7.747
 2122POPC   NC329183  43.303  41.410   9.660
 2122POPC   PO429184  42.957  41.783   9.224
 2122POPC   GL129185  43.240  41.461   9.146
 2122POPC   GL229186  43.028  41.207   9.249
 2122POPC   C1A29187  43.317  41.345   8.725
 2122POPC   D2A29188  43.090  41.643   8.458
 2122POPC   C3A29189  43.270  41.796   8.090
 2122POPC   C4A29190  43.081  41.850   7.728
 2122POPC   C1B29191  42.810  41.264   8.851
 2122POPC   C2B29192  42.760  41.248   8.395
 2122POPC   C3B29193  42.921  41.414   7.987
 2122POPC   C4B29194  43.043  41.363   7.554
 2123POPC   NC329195  14.403  37.628   9.660
 2123POPC   PO429196  14.047  37.390   9.168
 2123POPC   GL129197  14.221  37.801   9.115
 2123POPC   GL229198  14.604  37.806   9.195
 2123POPC   C1A29199  14.129  37.863   8.672
 2123POPC   D2A29200  14.018  37.515   8.388
 2123POPC   C3A29201  14.259  37.571   7.994
 2123POPC   C4A29202  14.327  37.938   7.730
 2123POPC   C1B29203  14.662  37.439   8.886
 2123POPC   C2B29204  14.531  37.330   8.434
 2123POPC   C3B29205  14.726  37.354   8.014
 2123POPC   C4B29206  14.660  37.572   7.618
 2124POPC   NC329207  26.898  38.250   9.545
 2124POPC   PO429208  26.427  38.639   9.701
 2124POPC   GL129209  26.604  38.634   9.288
 2124POPC   GL229210  26.475  38.323   9.173
 2124POPC   C1A29211  26.661  38.737   8.841
 2124POPC   D2A29212  26.362  38.592   8.525
 2124POPC   C3A29213  26.445  38.641   8.103
 2124POPC   C4A29214  26.696  38.495   7.754
 2124POPC   C1B29215  26.789  38.252   8.901
 2124POPC   C2B29216  26.787  38.326   8.499
 2124POPC   C3B29217  26.815  38.180   8.133
 2124POPC   C4B29218  26.962  38.082   7.762
 2125POPC   NC329219   2.322  42.390   9.603
 2125POPC   PO429220   1.724  42.579   9.398
 2125POPC   GL129221   1.956  42.238   9.210
 2125POPC   GL229222   2.185  41.942   9.297
 2125POPC   C1A29223   1.878  42.153   8.802
 2125POPC   D2A29224   1.818  42.349   8.411
 2125POPC   C3A29225   1.804  41.975   8.188
 2125POPC   C4A29226   1.792  42.103   7.793
 2125POPC   C1B29227   2.379  41.965   8.865
 2125POPC   C2B29228   2.266  42.104   8.449
 2125POPC   C3B29229   2.227  42.233   8.027
 2125POPC   C4B29230   2.492  41.983   7.794
 2126POPC   NC329231  43.688  44.363   9.542
 2126POPC   PO429232  44.227  44.704   9.308
 2126POPC   GL129233  43.809  44.696   9.139
 2126POPC   GL229234  43.502  44.898   9.136
 2126POPC   C1A29235  43.830  44.882   8.728
 2126POPC   D2A29236  44.136  44.752   8.449
 2126POPC   C3A29237  44.023  44.809   8.053
 2126POPC   C4A29238  44.015  44.534   7.734
 2126POPC   C1B29239  43.456  44.567   8.777
 2126POPC   C2B29240  43.620  44.553   8.344
 2126POPC   C3B29241  43.543  44.641   7.894
 2126POPC   C4B29242  43.623  44.608   7.429
 2127POPC   NC329243  10.642  19.409   9.609
 2127POPC   PO429244  11.036  18.811   9.702
 2127POPC   GL129245  10.873  18.831   9.222
 2127POPC   GL229246  10.558  18.997   9.279
 2127POPC   C1A29247  10.751  19.103   8.803
 2127POPC   D2A29248  10.527  19.197   8.386
 2127POPC   C3A29249  10.730  19.214   7.975
 2127POPC   C4A29250  10.817  19.008   7.572
 2127POPC   C1B29251  10.253  19.110   8.936
 2127POPC   C2B29252  10.049  19.100   8.549
 2127POPC   C3B29253  10.109  19.092   8.095
 2127POPC   C4B29254  10.321  18.944   7.718
 2128POPC   NC329255  28.955  15.272   9.538
 2128POPC   PO429256  29.592  15.074   9.561
 2128POPC   GL129257  29.339  15.153   9.200
 2128POPC   GL229258  29.141  15.460   9.103
 2128POPC   C1A29259  29.377  15.101   8.771
 2128POPC   D2A29260  29.246  14.843   8.446
 2128POPC   C3A29261  29.394  15.039   8.088
 2128POPC   C4A29262  29.325  14.859   7.704
 2128POPC   C1B29263  28.878  15.286   8.759
 2128POPC   C2B29264  28.969  15.257   8.309
 2128POPC   C3B29265  28.903  15.123   7.880
 2128POPC   C4B29266  28.829  15.442   7.545
 2129POPC   NC329267  26.898  25.056   9.521
 2129POPC   PO429268  26.330  25.499   9.422
 2129POPC   GL129269  26.689  25.391   9.157
 2129POPC   GL229270  26.679  25.051   9.064
 2129POPC   C1A29271  26.951  25.394   8.763
 2129POPC   D2A29272  26.990  25.600   8.357
 2129POPC   C3A29273  26.888  25.428   7.957
 2129POPC   C4A29274  27.079  25.113   7.761
 2129POPC   C1B29275  26.516  25.134   8.667
 2129POPC   C2B29276  26.753  25.070   8.309
 2129POPC   C3B29277  26.688  24.838   7.927
 2129POPC   C4B29278  26.392  24.833   7.625
 2130POPC   NC329279  31.394   6.884   9.622
 2130POPC   PO429280  31.656   6.215   9.585
 2130POPC   GL129281  31.481   6.514   9.265
 2130POPC   GL229282  31.583   6.873   9.153
 2130POPC   C1A29283  31.340   6.520   8.854
 2130POPC   D2A29284  31.389   6.281   8.525
 2130POPC   C3A29285  31.446   6.392   8.117
 2130POPC   C4A29286  31.669   6.382   7.705
 2130POPC   C1B29287  31.405   7.014   8.756
 2130POPC   C2B29288  31.553   6.935   8.298
 2130POPC   C3B29289  31.536   6.829   7.867
 2130POPC   C4B29290  31.844   6.838   7.572
 2131POPC   NC329291  18.750  23.786   9.364
 2131POPC   PO429292  19.265  23.333   9.517
 2131POPC   GL129293  19.092  23.472   9.147
 2131POPC   GL229294  18.777  23.279   9.146
 2131POPC   C1A29295  19.154  23.678   8.725
 2131POPC   D2A29296  18.867  23.862   8.398
 2131POPC   C3A29297  19.118  23.943   8.037
 2131POPC   C4A29298  19.546  23.884   7.914
 2131POPC   C1B29299  18.932  23.213   8.715
 2131POPC   C2B29300  19.017  23.345   8.293
 2131POPC   C3B29301  18.987  23.443   7.849
 2131POPC   C4B29302  18.891  23.424   7.341
 2132POPC   NC329303  24.210  33.248   9.671
 2132POPC   PO429304  24.850  33.054   9.583
 2132POPC   GL129305  24.441  33.137   9.228
 2132POPC   GL229306  24.111  32.935   9.221
 2132POPC   C1A29307  24.116  33.252   8.833
 2132POPC   D2A29308  24.266  33.247   8.371
 2132POPC   C3A29309  24.704  33.265   8.250
 2132POPC   C4A29310  24.723  33.188   7.820
 2132POPC   C1B29311  24.366  32.810   8.817
 2132POPC   C2B29312  24.466  32.785   8.350
 2132POPC   C3B29313  24.297  32.826   7.921
 2132POPC   C4B29314  24.243  32.543   7.549
 2133POPC   NC329315   5.385  42.984   9.588
 2133POPC   PO429316   6.034  43.197   9.475
 2133POPC   GL129317   5.774  42.968   9.234
 2133POPC   GL229318   5.566  43.247   9.152
 2133POPC   C1A29319   5.812  42.798   8.844
 2133POPC   D2A29320   6.047  42.934   8.498
 2133POPC   C3A29321   5.892  42.799   8.093
 2133POPC   C4A29322   5.946  42.961   7.670
 2133POPC   C1B29323   5.827  43.307   8.818
 2133POPC   C2B29324   5.916  43.500   8.447
 2133POPC   C3B29325   6.073  43.267   8.114
 2133POPC   C4B29326   6.073  43.426   7.751
 2134POPC   NC329327   6.824  16.552   9.414
 2134POPC   PO429328   6.499  17.141   9.442
 2134POPC   GL129329   6.769  16.969   9.102
 2134POPC   GL229330   6.507  16.740   9.035
 2134POPC   C1A29331   6.832  16.827   8.643
 2134POPC   D2A29332   6.981  16.492   8.373
 2134POPC   C3A29333   6.871  16.643   7.963
 2134POPC   C4A29334   6.710  16.994   7.689
 2134POPC   C1B29335   6.563  16.395   8.734
 2134POPC   C2B29336   6.307  16.204   8.449
 2134POPC   C3B29337   6.189  16.310   8.040
 2134POPC   C4B29338   6.380  16.557   7.765
 2135POPC   NC329339  11.811  43.109   9.585
 2135POPC   PO429340  12.329  42.767   9.380
 2135POPC   GL129341  12.010  42.883   9.120
 2135POPC   GL229342  11.975  43.235   9.136
 2135POPC   C1A29343  12.113  43.007   8.699
 2135POPC   D2A29344  12.195  43.163   8.292
 2135POPC   C3A29345  12.102  42.904   7.956
 2135POPC   C4A29346  12.455  42.822   7.710
 2135POPC   C1B29347  11.853  43.440   8.803
 2135POPC   C2B29348  11.966  43.587   8.486
 2135POPC   C3B29349  11.913  43.553   8.110
 2135POPC   C4B29350  12.144  43.386   7.763
 2136POPC   NC329351  24.180  22.265   9.529
 2136POPC   PO429352  24.771  21.895   9.470
 2136POPC   GL129353  24.455  21.984   9.161
 2136POPC   GL229354  24.127  21.809   9.229
 2136POPC   C1A29355  24.503  22.118   8.736
 2136POPC   D2A29356  24.659  21.988   8.329
 2136POPC   C3A29357  24.818  22.267   8.025
 2136POPC   C4A29358  24.662  22.345   7.642
 2136POPC   C1B29359  24.021  21.950   8.798
 2136POPC   C2B29360  24.112  22.134   8.384
 2136POPC   C3B29361  24.305  22.161   7.990
 2136POPC   C4B29362  24.338  21.956   7.587
 2137POPC   NC329363  25.363  36.939   9.814
 2137POPC   PO429364  26.041  37.086   9.610
 2137POPC   GL129365  25.832  37.091   9.240
 2137POPC   GL229366  26.003  37.351   9.068
 2137POPC   C1A29367  25.763  36.890   8.845
 2137POPC   D2A29368  25.703  37.085   8.440
 2137POPC   C3A29369  25.726  36.836   8.056
 2137POPC   C4A29370  26.013  36.870   7.732
 2137POPC   C1B29371  26.157  37.139   8.683
 2137POPC   C2B29372  26.205  36.947   8.281
 2137POPC   C3B29373  26.471  36.862   7.920
 2137POPC   C4B29374  26.403  37.128   7.554
 2138POPC   NC329375  17.431   4.738   9.451
 2138POPC   PO429376  17.107   5.309   9.484
 2138POPC   GL129377  17.237   5.381   9.065
 2138POPC   GL229378  17.300   5.043   9.070
 2138POPC   C1A29379  17.533   5.304   8.708
 2138POPC   D2A29380  17.394   5.287   8.313
 2138POPC   C3A29381  17.625   5.180   7.965
 2138POPC   C4A29382  17.245   5.269   7.764
 2138POPC   C1B29383  17.095   5.008   8.727
 2138POPC   C2B29384  17.047   4.730   8.450
 2138POPC   C3B29385  17.216   4.868   8.096
 2138POPC   C4B29386  17.380   4.773   7.740
 2139POPC   NC329387  41.945  28.216   9.372
 2139POPC   PO429388  41.378  28.666   9.434
 2139POPC   GL129389  41.514  28.383   9.123
 2139POPC   GL229390  41.848  28.503   8.958
 2139POPC   C1A29391  41.392  28.417   8.715
 2139POPC   D2A29392  41.670  28.597   8.472
 2139POPC   C3A29393  41.529  28.624   8.084
 2139POPC   C4A29394  41.725  28.449   7.737
 2139POPC   C1B29395  41.790  28.118   8.675
 2139POPC   C2B29396  41.579  28.121   8.257
 2139POPC   C3B29397  41.538  27.983   7.825
 2139POPC   C4B29398  41.742  28.052   7.406
 2140POPC   NC329399  39.248  34.801   9.474
 2140POPC   PO429400  38.854  34.291   9.372
 2140POPC   GL129401  39.130  34.443   9.076
 2140POPC   GL229402  39.481  34.390   9.234
 2140POPC   C1A29403  39.078  34.625   8.643
 2140POPC   D2A29404  38.878  34.781   8.246
 2140POPC   C3A29405  38.985  34.554   7.890
 2140POPC   C4A29406  39.091  34.795   7.575
 2140POPC   C1B29407  39.560  34.585   8.853
 2140POPC   C2B29408  39.568  34.596   8.434
 2140POPC   C3B29409  39.448  34.404   8.056
 2140POPC   C4B29410  39.456  34.465   7.638
 2141POPC   NC329411  18.851  30.742   9.640
 2141POPC   PO429412  19.432  31.163   9.717
 2141POPC   GL129413  19.382  30.844   9.351
 2141POPC   GL229414  19.489  31.049   9.053
 2141POPC   C1A29415  19.068  30.666   9.003
 2141POPC   D2A29416  18.797  30.573   8.605
 2141POPC   C3A29417  18.778  30.845   8.202
 2141POPC   C4A29418  18.965  30.700   7.807
 2141POPC   C1B29419  19.478  30.720   8.714
 2141POPC   C2B29420  19.264  30.763   8.321
 2141POPC   C3B29421  19.257  31.065   7.986
 2141POPC   C4B29422  19.253  31.012   7.513
 2142POPC   NC329423  33.868  28.802   9.512
 2142POPC   PO429424  33.805  28.095   9.475
 2142POPC   GL129425  34.038  28.222   9.117
 2142POPC   GL229426  33.916  28.549   9.085
 2142POPC   C1A29427  34.048  28.277   8.685
 2142POPC   D2A29428  33.864  28.072   8.387
 2142POPC   C3A29429  34.014  28.137   7.991
 2142POPC   C4A29430  34.092  28.400   7.653
 2142POPC   C1B29431  33.578  28.299   8.903
 2142POPC   C2B29432  33.451  28.358   8.514
 2142POPC   C3B29433  33.527  28.321   8.102
 2142POPC   C4B29434  33.584  28.438   7.704
 2143POPC   NC329435   9.384  21.698   9.409
 2143POPC   PO429436   9.946  21.334   9.514
 2143POPC   GL129437   9.717  21.347   9.129
 2143POPC   GL229438   9.766  21.696   9.062
 2143POPC   C1A29439   9.683  21.124   8.723
 2143POPC   D2A29440   9.948  21.188   8.341
 2143POPC   C3A29441   9.729  21.063   7.953
 2143POPC   C4A29442   9.760  21.155   7.499
 2143POPC   C1B29443   9.425  21.585   8.757
 2143POPC   C2B29444   9.519  21.456   8.350
 2143POPC   C3B29445   9.770  21.561   8.011
 2143POPC   C4B29446   9.404  21.425   7.783
 2144POPC   NC329447  33.623   8.471   9.638
 2144POPC   PO429448  33.637   7.834   9.524
 2144POPC   GL129449  33.612   8.058   9.085
 2144POPC   GL229450  33.695   8.396   9.138
 2144POPC   C1A29451  33.713   8.247   8.625
 2144POPC   D2A29452  33.989   8.116   8.255
 2144POPC   C3A29453  34.154   8.235   7.849
 2144POPC   C4A29454  34.420   8.080   7.513
 2144POPC   C1B29455  33.450   8.640   8.881
 2144POPC   C2B29456  33.573   8.739   8.465
 2144POPC   C3B29457  33.553   8.793   8.053
 2144POPC   C4B29458  33.725   8.613   7.719
 2145POPC   NC329459  36.758  16.654   9.603
 2145POPC   PO429460  37.418  16.941   9.420
 2145POPC   GL129461  37.040  16.764   9.160
 2145POPC   GL229462  36.855  16.440   9.148
 2145POPC   C1A29463  36.836  16.781   8.744
 2145POPC   D2A29464  36.754  17.072   8.405
 2145POPC   C3A29465  36.701  16.837   8.048
 2145POPC   C4A29466  36.911  16.713   7.669
 2145POPC   C1B29467  36.481  16.423   8.831
 2145POPC   C2B29468  36.211  16.273   8.504
 2145POPC   C3B29469  36.340  16.336   8.066
 2145POPC   C4B29470  36.370  16.619   7.706
 2146POPC   NC329471   6.377  14.279   9.735
 2146POPC   PO429472   5.837  14.581   9.705
 2146POPC   GL129473   6.031  14.408   9.346
 2146POPC   GL229474   5.708  14.268   9.237
 2146POPC   C1A29475   6.085  14.389   8.898
 2146POPC   D2A29476   5.888  14.487   8.483
 2146POPC   C3A29477   6.034  14.413   8.052
 2146POPC   C4A29478   6.249  14.448   7.661
 2146POPC   C1B29479   5.622  14.158   8.803
 2146POPC   C2B29480   5.460  14.236   8.405
 2146POPC   C3B29481   5.588  14.165   7.968
 2146POPC   C4B29482   5.720  14.366   7.595
 2147POPC   NC329483  17.019   1.008   9.536
 2147POPC   PO429484  17.635   1.275   9.409
 2147POPC   GL129485  17.374   1.010   9.149
 2147POPC   GL229486  17.128   1.248   9.026
 2147POPC   C1A29487  17.401   0.994   8.691
 2147POPC   D2A29488  17.654   1.176   8.390
 2147POPC   C3A29489  17.594   1.063   7.950
 2147POPC   C4A29490  17.868   1.122   7.595
 2147POPC   C1B29491  17.343   1.496   8.665
 2147POPC   C2B29492  17.300   1.468   8.196
 2147POPC   C3B29493  17.196   1.421   7.765
 2147POPC   C4B29494  17.000   1.651   7.402
 2148POPC   NC329495   2.909  19.088   9.382
 2148POPC   PO429496   2.324  19.075   9.221
 2148POPC   GL129497   2.614  18.823   9.037
 2148POPC   GL229498   2.907  19.021   8.891
 2148POPC   C1A29499   2.561  18.742   8.620
 2148POPC   D2A29500   2.442  18.928   8.229
 2148POPC   C3A29501   2.814  18.950   7.965
 2148POPC   C4A29502   2.862  18.759   7.536
 2148POPC   C1B29503   2.572  19.236   8.656
 2148POPC   C2B29504   2.659  19.397   8.270
 2148POPC   C3B29505   2.512  19.376   7.879
 2148POPC   C4B29506   2.807  19.269   7.570
 2149POPC   NC329507  10.233  30.243   9.918
 2149POPC   PO429508   9.793  29.917   9.459
 2149POPC   GL129509   9.391  29.924   9.187
 2149POPC   GL229510   9.241  30.189   8.979
 2149POPC   C1A29511   9.399  29.725   8.788
 2149POPC   D2A29512   9.705  29.657   8.501
 2149POPC   C3A29513   9.551  29.777   8.124
 2149POPC   C4A29514   9.652  29.842   7.712
 2149POPC   C1B29515   9.661  30.184   8.781
 2149POPC   C2B29516   9.824  30.150   8.374
 2149POPC   C3B29517   9.804  30.265   7.954
 2149POPC   C4B29518   9.689  30.309   7.522
 2150POPC   NC329519  35.945  31.685  10.006
 2150POPC   PO429520  36.075  31.213   9.541
 2150POPC   GL129521  35.847  31.486   9.255
 2150POPC   GL229522  35.755  31.202   9.081
 2150POPC   C1A29523  35.948  31.595   8.800
 2150POPC   D2A29524  36.287  31.562   8.459
 2150POPC   C3A29525  36.226  31.770   8.064
 2150POPC   C4A29526  35.921  31.586   7.827
 2150POPC   C1B29527  36.080  30.983   8.868
 2150POPC   C2B29528  36.216  30.985   8.442
 2150POPC   C3B29529  35.986  31.201   8.152
 2150POPC   C4B29530  35.937  31.071   7.747
 2151POPC   NC329531   2.630  23.152   9.488
 2151POPC   PO429532   3.283  23.472   9.496
 2151POPC   GL129533   3.011  23.253   9.136
 2151POPC   GL229534   2.834  22.902   9.108
 2151POPC   C1A29535   2.898  23.148   8.672
 2151POPC   D2A29536   2.682  23.031   8.292
 2151POPC   C3A29537   2.985  23.127   7.957
 2151POPC   C4A29538   3.134  22.835   7.631
 2151POPC   C1B29539   2.484  22.815   8.773
 2151POPC   C2B29540   2.252  22.641   8.435
 2151POPC   C3B29541   2.360  22.647   8.013
 2151POPC   C4B29542   2.511  23.024   7.796
 2152POPC   NC329543   3.827   9.439   9.455
 2152POPC   PO429544   3.324   9.836   9.581
 2152POPC   GL129545   3.325   9.707   9.159
 2152POPC   GL229546   3.579   9.976   9.133
 2152POPC   C1A29547   3.324   9.810   8.702
 2152POPC   D2A29548   3.245  10.059   8.294
 2152POPC   C3A29549   3.307   9.735   7.960
 2152POPC   C4A29550   3.730   9.538   8.015
 2152POPC   C1B29551   3.843   9.827   8.805
 2152POPC   C2B29552   3.738   9.907   8.397
 2152POPC   C3B29553   3.685  10.064   8.022
 2152POPC   C4B29554   3.751   9.911   7.657
 2153POPC   NC329555   1.069  13.308   9.413
 2153POPC   PO429556   1.459  13.863   9.429
 2153POPC   GL129557   1.420  13.529   9.078
 2153POPC   GL229558   1.099  13.606   8.989
 2153POPC   C1A29559   1.354  13.358   8.628
 2153POPC   D2A29560   1.002  13.393   8.284
 2153POPC   C3A29561   1.206  13.536   7.899
 2153POPC   C4A29562   1.662  13.455   7.825
 2153POPC   C1B29563   0.800  13.854   8.782
 2153POPC   C2B29564   0.690  13.875   8.332
 2153POPC   C3B29565   0.710  13.936   7.862
 2153POPC   C4B29566   0.777  13.668   7.515
 2154POPC   NC329567  12.378  25.989   9.882
 2154POPC   PO429568  12.978  25.955   9.663
 2154POPC   GL129569  12.823  26.202   9.289
 2154POPC   GL229570  13.106  26.363   9.171
 2154POPC   C1A29571  12.614  26.210   8.835
 2154POPC   D2A29572  12.468  25.942   8.448
 2154POPC   C3A29573  12.630  26.062   8.038
 2154POPC   C4A29574  12.834  25.824   7.731
 2154POPC   C1B29575  13.135  26.170   8.768
 2154POPC   C2B29576  12.996  26.292   8.341
 2154POPC   C3B29577  13.153  26.362   7.919
 2154POPC   C4B29578  13.162  26.187   7.498
 2155POPC   NC329579  31.755  41.213   9.638
 2155POPC   PO429580  31.438  41.830   9.586
 2155POPC   GL129581  31.576  41.811   9.128
 2155POPC   GL229582  31.928  41.839   9.046
 2155POPC   C1A29583  31.610  41.535   8.736
 2155POPC   D2A29584  31.694  41.374   8.291
 2155POPC   C3A29585  31.403  41.404   7.952
 2155POPC   C4A29586  31.246  41.503   7.519
 2155POPC   C1B29587  31.770  42.021   8.647
 2155POPC   C2B29588  31.688  41.952   8.204
 2155POPC   C3B29589  31.357  41.906   7.874
 2155POPC   C4B29590  31.452  41.965   7.433
 2156POPC   NC329591  28.847   6.257   9.536
 2156POPC   PO429592  28.936   5.571   9.294
 2156POPC   GL129593  29.038   5.972   9.142
 2156POPC   GL229594  29.389   6.047   9.169
 2156POPC   C1A29595  28.985   5.986   8.717
 2156POPC   D2A29596  28.891   5.634   8.457
 2156POPC   C3A29597  28.926   5.902   8.134
 2156POPC   C4A29598  28.743   5.875   7.754
 2156POPC   C1B29599  29.436   5.746   8.820
 2156POPC   C2B29600  29.385   5.716   8.397
 2156POPC   C3B29601  29.433   5.667   7.976
 2156POPC   C4B29602  29.685   5.565   7.595
 2157POPC   NC329603   2.202  22.137   9.538
 2157POPC   PO429604   1.571  21.931   9.452
 2157POPC   GL129605   1.629  22.043   9.061
 2157POPC   GL229606   1.883  22.278   9.100
 2157POPC   C1A29607   1.642  22.157   8.630
 2157POPC   D2A29608   1.804  21.945   8.298
 2157POPC   C3A29609   1.872  22.039   7.856
 2157POPC   C4A29610   1.846  21.716   7.514
 2157POPC   C1B29611   2.291  22.339   8.892
 2157POPC   C2B29612   2.445  22.148   8.530
 2157POPC   C3B29613   2.265  22.150   8.146
 2157POPC   C4B29614   2.322  22.245   7.717
 2158POPC   NC329615  35.189  34.339   9.413
 2158POPC   PO429616  35.183  35.008   9.413
 2158POPC   GL129617  35.325  34.752   9.066
 2158POPC   GL229618  35.610  34.535   9.163
 2158POPC   C1A29619  35.218  34.606   8.646
 2158POPC   D2A29620  35.092  34.446   8.221
 2158POPC   C3A29621  35.080  34.662   7.821
 2158POPC   C4A29622  35.108  34.445   7.437
 2158POPC   C1B29623  35.734  34.350   8.765
 2158POPC   C2B29624  35.578  34.354   8.340
 2158POPC   C3B29625  35.487  34.350   7.862
 2158POPC   C4B29626  35.550  34.232   7.389
 2159POPC   NC329627  14.574  35.385   9.726
 2159POPC   PO429628  14.117  35.709   9.444
 2159POPC   GL129629  14.301  35.508   9.113
 2159POPC   GL229630  14.452  35.177   9.246
 2159POPC   C1A29631  14.244  35.521   8.670
 2159POPC   D2A29632  14.084  35.645   8.279
 2159POPC   C3A29633  14.288  35.428   8.003
 2159POPC   C4A29634  14.689  35.488   7.841
 2159POPC   C1B29635  14.297  35.051   8.819
 2159POPC   C2B29636  14.491  35.163   8.403
 2159POPC   C3B29637  14.365  34.914   8.065
 2159POPC   C4B29638  14.445  35.057   7.666
 2160POPC   NC329639  43.097  14.895   9.524
 2160POPC   PO429640  43.548  15.434   9.481
 2160POPC   GL129641  43.362  15.153   9.168
 2160POPC   GL229642  42.968  15.170   9.121
 2160POPC   C1A29643  43.311  15.111   8.751
 2160POPC   D2A29644  43.158  14.866   8.444
 2160POPC   C3A29645  43.324  15.081   8.102
 2160POPC   C4A29646  43.385  15.073   7.700
 2160POPC   C1B29647  42.772  15.091   8.714
 2160POPC   C2B29648  42.696  15.008   8.261
 2160POPC   C3B29649  42.906  14.922   7.837
 2160POPC   C4B29650  42.747  14.822   7.416
 2161POPC   NC329651   9.308  27.038   9.526
 2161POPC   PO429652   9.361  26.357   9.424
 2161POPC   GL129653   9.063  26.699   9.219
 2161POPC   GL229654   8.702  26.692   9.180
 2161POPC   C1A29655   9.059  26.975   8.848
 2161POPC   D2A29656   9.133  26.863   8.420
 2161POPC   C3A29657   9.006  26.970   8.008
 2161POPC   C4A29658   8.814  26.675   7.730
 2161POPC   C1B29659   8.545  26.952   8.834
 2161POPC   C2B29660   8.632  27.137   8.445
 2161POPC   C3B29661   8.500  27.042   8.031
 2161POPC   C4B29662   8.674  27.159   7.649
 2162POPC   NC329663   3.762  32.254   9.821
 2162POPC   PO429664   3.247  32.420   9.378
 2162POPC   GL129665   3.558  32.236   9.211
 2162POPC   GL229666   3.649  32.502   9.018
 2162POPC   C1A29667   3.565  32.045   8.811
 2162POPC   D2A29668   3.348  31.990   8.435
 2162POPC   C3A29669   3.617  32.105   8.153
 2162POPC   C4A29670   3.702  31.928   7.789
 2162POPC   C1B29671   3.764  32.477   8.583
 2162POPC   C2B29672   3.740  32.616   8.166
 2162POPC   C3B29673   3.759  32.431   7.763
 2162POPC   C4B29674   3.322  32.366   7.816
 2163POPC   NC329675  33.264  13.520   9.618
 2163POPC   PO429676  32.628  13.634   9.433
 2163POPC   GL129677  32.967  13.714   9.171
 2163POPC   GL229678  33.181  13.427   9.141
 2163POPC   C1A29679  33.046  13.776   8.730
 2163POPC   D2A29680  33.350  13.863   8.404
 2163POPC   C3A29681  33.346  13.676   7.989
 2163POPC   C4A29682  33.346  13.735   7.515
 2163POPC   C1B29683  33.078  13.252   8.777
 2163POPC   C2B29684  33.273  13.317   8.404
 2163POPC   C3B29685  33.075  13.251   8.048
 2163POPC   C4B29686  32.938  13.502   7.709
 2164POPC   NC329687   2.566  14.947   9.742
 2164POPC   PO429688   2.892  15.489   9.723
 2164POPC   GL129689   2.760  15.233   9.350
 2164POPC   GL229690   2.877  14.950   9.304
 2164POPC   C1A29691   2.597  15.196   8.896
 2164POPC   D2A29692   2.665  15.030   8.478
 2164POPC   C3A29693   2.472  15.208   8.111
 2164POPC   C4A29694   2.717  15.437   7.819
 2164POPC   C1B29695   2.949  14.814   8.892
 2164POPC   C2B29696   3.155  14.860   8.502
 2164POPC   C3B29697   3.143  14.922   8.078
 2164POPC   C4B29698   2.812  14.922   7.808
 2165POPC   NC329699  14.820  31.206   9.560
 2165POPC   PO429700  14.341  31.614   9.668
 2165POPC   GL129701  14.439  31.468   9.246
 2165POPC   GL229702  14.374  31.804   9.144
 2165POPC   C1A29703  14.485  31.446   8.773
 2165POPC   D2A29704  14.467  31.175   8.379
 2165POPC   C3A29705  14.440  31.381   7.974
 2165POPC   C4A29706  14.630  31.770   7.837
 2165POPC   C1B29707  14.106  31.792   8.789
 2165POPC   C2B29708  14.211  31.644   8.375
 2165POPC   C3B29709  14.083  31.752   7.959
 2165POPC   C4B29710  14.206  31.678   7.514
 2166POPC   NC329711  40.769  34.236   9.334
 2166POPC   PO429712  40.536  34.842   9.582
 2166POPC   GL129713  40.906  34.839   9.234
 2166POPC   GL229714  40.870  34.597   9.010
 2166POPC   C1A29715  41.211  34.906   8.841
 2166POPC   D2A29716  40.963  34.710   8.500
 2166POPC   C3A29717  40.831  34.514   8.103
 2166POPC   C4A29718  41.084  34.538   7.681
 2166POPC   C1B29719  40.722  34.311   8.707
 2166POPC   C2B29720  40.748  33.956   8.474
 2166POPC   C3B29721  40.900  33.992   8.058
 2166POPC   C4B29722  40.716  34.196   7.713
 2167POPC   NC329723   2.112  27.201   9.523
 2167POPC   PO429724   1.673  26.673   9.437
 2167POPC   GL129725   1.823  26.921   9.162
 2167POPC   GL229726   2.147  26.852   9.130
 2167POPC   C1A29727   1.781  26.996   8.731
 2167POPC   D2A29728   1.985  27.110   8.326
 2167POPC   C3A29729   1.721  27.007   7.990
 2167POPC   C4A29730   1.753  26.892   7.569
 2167POPC   C1B29731   2.294  26.975   8.716
 2167POPC   C2B29732   2.313  26.710   8.322
 2167POPC   C3B29733   2.139  26.644   7.880
 2167POPC   C4B29734   2.227  26.819   7.432
 2168POPC   NC329735  34.162  22.938   9.452
 2168POPC   PO429736  33.492  22.973   9.591
 2168POPC   GL129737  33.729  22.918   9.203
 2168POPC   GL229738  33.868  23.244   9.123
 2168POPC   C1A29739  33.804  22.737   8.779
 2168POPC   D2A29740  33.905  22.893   8.352
 2168POPC   C3A29741  33.862  22.640   8.034
 2168POPC   C4A29742  33.668  22.653   7.660
 2168POPC   C1B29743  34.002  23.237   8.698
 2168POPC   C2B29744  34.202  23.345   8.283
 2168POPC   C3B29745  34.153  23.360   7.789
 2168POPC   C4B29746  33.991  23.017   7.493
 2169POPC   NC329747  33.971  41.361   9.476
 2169POPC   PO429748  34.597  41.685   9.503
 2169POPC   GL129749  34.442  41.415   9.207
 2169POPC   GL229750  34.763  41.483   9.016
 2169POPC   C1A29751  34.364  41.312   8.777
 2169POPC   D2A29752  34.633  41.551   8.489
 2169POPC   C3A29753  34.579  41.462   8.083
 2169POPC   C4A29754  34.837  41.376   7.732
 2169POPC   C1B29755  34.462  41.845   8.866
 2169POPC   C2B29756  34.298  42.025   8.469
 2169POPC   C3B29757  34.261  41.872   8.052
 2169POPC   C4B29758  34.558  41.801   7.692
 2170POPC   NC329759  29.220  10.913   9.433
 2170POPC   PO429760  28.958  10.306   9.576
 2170POPC   GL129761  28.921  10.517   9.184
 2170POPC   GL229762  29.274  10.443   9.153
 2170POPC   C1A29763  29.092  10.740   8.777
 2170POPC   D2A29764  29.345  10.617   8.388
 2170POPC   C3A29765  29.148  10.559   8.017
 2170POPC   C4A29766  28.978  10.845   7.736
 2170POPC   C1B29767  29.316  10.268   8.756
 2170POPC   C2B29768  29.053  10.191   8.382
 2170POPC   C3B29769  28.978  10.078   7.948
 2170POPC   C4B29770  28.910  10.301   7.566
 2171POPC   NC329771  32.990  28.699   9.586
 2171POPC   PO429772  32.809  28.124   9.565
 2171POPC   GL129773  32.843  28.410   9.182
 2171POPC   GL229774  33.184  28.590   9.114
 2171POPC   C1A29775  32.633  28.405   8.767
 2171POPC   D2A29776  32.667  28.642   8.349
 2171POPC   C3A29777  32.774  28.427   7.958
 2171POPC   C4A29778  32.916  28.218   7.611
 2171POPC   C1B29779  33.076  28.675   8.669
 2171POPC   C2B29780  33.156  28.671   8.198
 2171POPC   C3B29781  33.151  28.698   7.735
 2171POPC   C4B29782  33.364  28.722   7.308
 2172POPC   NC329783  37.228  43.863   9.468
 2172POPC   PO429784  36.582  43.714   9.430
 2172POPC   GL129785  36.814  43.841   9.082
 2172POPC   GL229786  37.076  43.598   9.055
 2172POPC   C1A29787  36.806  44.136   8.734
 2172POPC   D2A29788  36.853  44.221   8.309
 2172POPC   C3A29789  36.622  43.958   8.047
 2172POPC   C4A29790  36.769  43.851   7.628
 2172POPC   C1B29791  37.276  43.904   8.810
 2172POPC   C2B29792  37.314  44.027   8.397
 2172POPC   C3B29793  37.123  43.881   7.995
 2172POPC   C4B29794  37.240  44.012   7.569
 2173POPC   NC329795  16.552   6.242   9.413
 2173POPC   PO429796  16.397   5.654   9.504
 2173POPC   GL129797  16.726   5.531   9.205
 2173POPC   GL229798  16.918   5.849   9.113
 2173POPC   C1A29799  16.844   5.468   8.763
 2173POPC   D2A29800  16.801   5.737   8.411
 2173POPC   C3A29801  16.990   5.661   8.022
 2173POPC   C4A29802  16.656   5.769   7.752
 2173POPC   C1B29803  16.951   6.129   8.713
 2173POPC   C2B29804  17.176   6.071   8.296
 2173POPC   C3B29805  16.966   6.156   7.914
 2173POPC   C4B29806  16.515   6.246   7.853
 2174POPC   NC329807  34.110  44.427   9.416
 2174POPC   PO429808  34.034  44.991   9.892
 2174POPC   GL129809  33.889  44.884   9.401
 2174POPC   GL229810  34.157  44.828   9.112
 2174POPC   C1A29811  33.686  44.811   8.953
 2174POPC   D2A29812  33.550  44.863   8.502
 2174POPC   C3A29813  33.661  44.587   8.160
 2174POPC   C4A29814  33.584  44.686   7.736
 2174POPC   C1B29815  34.105  44.709   8.674
 2174POPC   C2B29816  34.132  44.865   8.255
 2174POPC   C3B29817  34.080  44.740   7.846
 2174POPC   C4B29818  33.965  44.655   7.409
 2175POPC   NC329819  44.227  37.010   9.495
 2175POPC   PO429820  44.689  36.554   9.538
 2175POPC   GL129821  44.658  36.807   9.207
 2175POPC   GL229822  44.968  37.004   9.200
 2175POPC   C1A29823  44.544  36.688   8.801
 2175POPC   D2A29824  44.738  36.621   8.416
 2175POPC   C3A29825  44.748  36.860   8.081
 2175POPC   C4A29826  44.773  36.759   7.638
 2175POPC   C1B29827   0.057  36.848   8.775
 2175POPC   C2B29828   0.211  36.867   8.331
 2175POPC   C3B29829   0.219  36.864   7.865
 2175POPC   C4B29830   0.111  37.135   7.530
 2176POPC   NC329831   0.332  19.586   9.437
 2176POPC   PO429832   0.512  20.298   9.525
 2176POPC   GL129833   0.433  20.052   9.174
 2176POPC   GL229834   0.132  20.145   9.023
 2176POPC   C1A29835   0.594  19.787   8.851
 2176POPC   D2A29836   0.392  19.694   8.496
 2176POPC   C3A29837   0.537  19.987   8.197
 2176POPC   C4A29838   0.663  19.945   7.770
 2176POPC   C1B29839   0.105  20.092   8.610
 2176POPC   C2B29840   0.028  19.923   8.217
 2176POPC   C3B29841   0.151  19.962   7.807
 2176POPC   C4B29842   0.279  20.266   7.505
 2177POPC   NC329843   3.802  24.843   9.795
 2177POPC   PO429844   4.435  25.128   9.634
 2177POPC   GL129845   4.398  25.140   9.186
 2177POPC   GL229846   4.079  25.211   9.128
 2177POPC   C1A29847   4.603  25.163   8.791
 2177POPC   D2A29848   4.685  25.476   8.476
 2177POPC   C3A29849   4.527  25.440   8.062
 2177POPC   C4A29850   4.386  25.136   7.767
 2177POPC   C1B29851   4.178  25.477   8.779
 2177POPC   C2B29852   4.126  25.289   8.381
 2177POPC   C3B29853   3.968  25.380   7.984
 2177POPC   C4B29854   3.986  25.458   7.546
 2178POPC   NC329855  43.419  27.106   9.419
 2178POPC   PO429856  43.943  27.551   9.465
 2178POPC   GL129857  43.856  27.358   9.117
 2178POPC   GL229858  44.154  27.209   9.021
 2178POPC   C1A29859  43.623  27.465   8.744
 2178POPC   D2A29860  43.770  27.650   8.377
 2178POPC   C3A29861  43.705  27.539   7.982
 2178POPC   C4A29862  43.458  27.263   7.786
 2178POPC   C1B29863  44.142  27.590   8.722
 2178POPC   C2B29864  44.266  27.665   8.273
 2178POPC   C3B29865  44.220  27.631   7.814
 2178POPC   C4B29866  44.141  27.658   7.346
 2179POPC   NC329867  35.323  32.948   9.546
 2179POPC   PO429868  35.342  33.617   9.327
 2179POPC   GL129869  35.444  33.216   9.125
 2179POPC   GL229870  35.604  32.879   9.149
 2179POPC   C1A29871  35.448  33.109   8.694
 2179POPC   D2A29872  35.374  33.474   8.425
 2179POPC   C3A29873  35.237  33.439   8.004
 2179POPC   C4A29874  34.855  33.202   7.912
 2179POPC   C1B29875  35.769  32.569   8.941
 2179POPC   C2B29876  35.766  32.571   8.502
 2179POPC   C3B29877  35.789  32.816   8.129
 2179POPC   C4B29878  35.596  33.059   7.816
 2180POPC   NC329879   8.601  36.989   9.392
 2180POPC   PO429880   9.186  36.908   9.576
 2180POPC   GL129881   9.170  36.826   9.157
 2180POPC   GL229882   8.852  36.659   9.064
 2180POPC   C1A29883   9.239  36.713   8.744
 2180POPC   D2A29884   9.030  36.534   8.420
 2180POPC   C3A29885   9.251  36.716   8.086
 2180POPC   C4A29886   9.200  36.800   7.636
 2180POPC   C1B29887   8.743  36.950   8.751
 2180POPC   C2B29888   8.890  37.021   8.352
 2180POPC   C3B29889   8.818  36.966   7.916
 2180POPC   C4B29890   8.823  37.098   7.457
 2181POPC   NC329891  28.185  11.279   9.488
 2181POPC   PO429892  28.875  11.206   9.526
 2181POPC   GL129893  28.740  11.035   9.148
 2181POPC   GL229894  28.487  11.307   9.088
 2181POPC   C1A29895  28.690  11.047   8.707
 2181POPC   D2A29896  28.361  10.965   8.422
 2181POPC   C3A29897  28.329  11.282   8.105
 2181POPC   C4A29898  28.593  11.187   7.731
 2181POPC   C1B29899  28.264  11.422   8.691
 2181POPC   C2B29900  28.023  11.631   8.367
 2181POPC   C3B29901  27.974  11.728   7.950
 2181POPC   C4B29902  28.243  11.562   7.657
 2182POPC   NC329903   1.730  38.688   9.592
 2182POPC   PO429904   2.296  38.301   9.524
 2182POPC   GL129905   2.153  38.538   9.174
 2182POPC   GL229906   1.828  38.488   9.153
 2182POPC   C1A29907   2.097  38.412   8.746
 2182POPC   D2A29908   2.033  38.647   8.422
 2182POPC   C3A29909   2.129  38.457   8.067
 2182POPC   C4A29910   2.226  38.739   7.771
 2182POPC   C1B29911   1.564  38.453   8.808
 2182POPC   C2B29912   1.602  38.386   8.381
 2182POPC   C3B29913   1.569  38.229   7.979
 2182POPC   C4B29914   1.800  38.437   7.672
 2183POPC   NC329915  31.785  10.614   9.487
 2183POPC   PO429916  32.467  10.340   9.509
 2183POPC   GL129917  32.247  10.541   9.198
 2183POPC   GL229918  32.433  10.805   9.107
 2183POPC   C1A29919  32.176  10.532   8.765
 2183POPC   D2A29920  32.242  10.589   8.368
 2183POPC   C3A29921  32.048  10.361   8.032
 2183POPC   C4A29922  32.362  10.390   7.717
 2183POPC   C1B29923  32.494  10.950   8.714
 2183POPC   C2B29924  32.379  11.077   8.335
 2183POPC   C3B29925  32.370  10.841   7.956
 2183POPC   C4B29926  32.566  10.928   7.605
 2184POPC   NC329927  39.489  19.805   9.667
 2184POPC   PO429928  38.874  20.104   9.490
 2184POPC   GL129929  39.083  19.853   9.134
 2184POPC   GL229930  39.453  19.780   9.143
 2184POPC   C1A29931  39.232  19.881   8.685
 2184POPC   D2A29932  39.304  20.191   8.347
 2184POPC   C3A29933  39.391  19.965   7.970
 2184POPC   C4A29934  39.243  19.596   7.728
 2184POPC   C1B29935  39.477  19.455   8.788
 2184POPC   C2B29936  39.622  19.262   8.401
 2184POPC   C3B29937  39.659  19.436   7.965
 2184POPC   C4B29938  39.686  19.441   7.508
 2185POPC   NC329939  16.690  26.770   9.646
 2185POPC   PO429940  16.732  26.084   9.615
 2185POPC   GL129941  16.814  26.443   9.245
 2185POPC   GL229942  16.703  26.796   9.148
 2185POPC   C1A29943  17.068  26.547   8.841
 2185POPC   D2A29944  17.070  26.377   8.403
 2185POPC   C3A29945  17.067  26.663   8.047
 2185POPC   C4A29946  16.727  26.784   7.802
 2185POPC   C1B29947  16.612  26.734   8.740
 2185POPC   C2B29948  16.630  26.711   8.317
 2185POPC   C3B29949  16.302  26.623   8.042
 2185POPC   C4B29950  16.215  26.404   7.677
 2186POPC   NC329951  26.136  38.300   9.580
 2186POPC   PO429952  25.871  38.875   9.357
 2186POPC   GL129953  25.992  38.518   9.152
 2186POPC   GL229954  26.179  38.706   8.982
 2186POPC   C1A29955  26.121  38.228   8.805
 2186POPC   D2A29956  26.361  37.999   8.498
 2186POPC   C3A29957  26.295  38.151   8.092
 2186POPC   C4A29958  26.002  38.121   7.761
 2186POPC   C1B29959  25.861  38.655   8.665
 2186POPC   C2B29960  25.938  38.489   8.262
 2186POPC   C3B29961  25.869  38.647   7.870
 2186POPC   C4B29962  26.220  38.620   7.644
 2187POPC   NC329963  44.294  14.557   9.602
 2187POPC   PO429964  43.572  14.735   9.469
 2187POPC   GL129965  43.723  14.599   9.115
 2187POPC   GL229966  44.062  14.594   9.091
 2187POPC   C1A29967  43.616  14.396   8.752
 2187POPC   D2A29968  43.507  14.288   8.349
 2187POPC   C3A29969  43.829  14.366   8.081
 2187POPC   C4A29970  43.956  14.238   7.680
 2187POPC   C1B29971  44.099  14.512   8.636
 2187POPC   C2B29972  44.301  14.658   8.261
 2187POPC   C3B29973  44.213  14.648   7.824
 2187POPC   C4B29974  44.202  14.583   7.359
 2188POPC   NC329975  34.869  17.148   9.531
 2188POPC   PO429976  34.377  17.611   9.694
 2188POPC   GL129977  34.494  17.472   9.278
 2188POPC   GL229978  34.205  17.492   9.161
 2188POPC   C1A29979  34.600  17.499   8.816
 2188POPC   D2A29980  34.455  17.606   8.392
 2188POPC   C3A29981  34.580  17.561   7.950
 2188POPC   C4A29982  34.396  17.591   7.516
 2188POPC   C1B29983  34.187  17.139   8.909
 2188POPC   C2B29984  34.388  17.092   8.534
 2188POPC   C3B29985  34.242  17.204   8.140
 2188POPC   C4B29986  34.274  17.156   7.717
 2189POPC   NC329987  12.240  42.309   9.464
 2189POPC   PO429988  11.602  42.628   9.548
 2189POPC   GL129989  11.812  42.405   9.198
 2189POPC   GL229990  11.870  42.039   9.231
 2189POPC   C1A29991  12.049  42.438   8.809
 2189POPC   D2A29992  12.001  42.626   8.389
 2189POPC   C3A29993  12.228  42.410   8.089
 2189POPC   C4A29994  12.274  42.344   7.662
 2189POPC   C1B29995  11.624  42.054   8.857
 2189POPC   C2B29996  11.813  42.119   8.460
 2189POPC   C3B29997  11.877  42.026   8.044
 2189POPC   C4B29998  11.853  42.054   7.609
 2190POPC   NC329999   2.967  41.921   9.387
 2190POPC   PO430000   2.722  42.593   9.467
 2190POPC   GL130001   2.890  42.548   9.068
 2190POPC   GL230002   3.224  42.358   9.110
 2190POPC   C1A30003   2.793  42.455   8.626
 2190POPC   D2A30004   2.690  42.316   8.225
 2190POPC   C3A30005   2.782  42.422   7.836
 2190POPC   C4A30006   2.706  42.687   7.530
 2190POPC   C1B30007   3.265  42.612   8.724
 2190POPC   C2B30008   3.128  42.732   8.308
 2190POPC   C3B30009   3.136  42.786   7.873
 2190POPC   C4B30010   3.416  42.573   7.644
 2191POPC   NC330011   1.702   4.431   9.711
 2191POPC   PO430012   2.119   3.877   9.502
 2191POPC   GL130013   1.866   4.112   9.196
 2191POPC   GL230014   1.844   4.488   9.202
 2191POPC   C1A30015   1.844   4.149   8.743
 2191POPC   D2A30016   1.987   4.334   8.381
 2191POPC   C3A30017   1.843   4.357   7.969
 2191POPC   C4A30018   1.980   4.042   7.694
 2191POPC   C1B30019   1.984   4.663   8.799
 2191POPC   C2B30020   2.352   4.616   8.580
 2191POPC   C3B30021   2.384   4.568   8.153
 2191POPC   C4B30022   2.338   4.423   7.754
 2192POPC   NC330023  14.887   0.316   9.542
 2192POPC   PO430024  15.595   0.584   9.501
 2192POPC   GL130025  15.315   0.421   9.220
 2192POPC   GL230026  15.534   0.236   9.010
 2192POPC   C1A30027  15.032   0.401   8.859
 2192POPC   D2A30028  14.827   0.426   8.438
 2192POPC   C3A30029  15.102   0.324   8.114
 2192POPC   C4A30030  15.036   0.438   7.700
 2192POPC   C1B30031  15.484   0.632   8.772
 2192POPC   C2B30032  15.514   0.685   8.320
 2192POPC   C3B30033  15.457   0.647   7.874
 2192POPC   C4B30034  15.371   0.716   7.398
 2193POPC   NC330035  11.869  28.704   9.398
 2193POPC   PO430036  12.015  28.039   9.389
 2193POPC   GL130037  12.004  28.275   9.093
 2193POPC   GL230038  11.679  28.175   9.032
 2193POPC   C1A30039  12.114  28.160   8.683
 2193POPC   D2A30040  12.415  28.047   8.364
 2193POPC   C3A30041  12.154  28.165   8.017
 2193POPC   C4A30042  12.166  28.607   7.964
 2193POPC   C1B30043  11.744  28.550   8.749
 2193POPC   C2B30044  11.712  28.624   8.303
 2193POPC   C3B30045  11.721  28.816   7.909
 2193POPC   C4B30046  11.796  28.540   7.597
 2194POPC   NC330047  12.270   7.076   9.308
 2194POPC   PO430048  11.927   7.513   9.735
 2194POPC   GL130049  12.000   7.516   9.289
 2194POPC   GL230050  12.307   7.645   9.171
 2194POPC   C1A30051  11.889   7.381   8.861
 2194POPC   D2A30052  12.085   7.431   8.476
 2194POPC   C3A30053  11.829   7.413   8.096
 2194POPC   C4A30054  11.917   7.421   7.680
 2194POPC   C1B30055  12.492   7.461   8.800
 2194POPC   C2B30056  12.633   7.432   8.386
 2194POPC   C3B30057  12.347   7.494   8.055
 2194POPC   C4B30058  12.433   7.361   7.674
 2195POPC   NC330059  27.467  15.480   9.483
 2195POPC   PO430060  27.834  14.966   9.569
 2195POPC   GL130061  27.577  15.032   9.200
 2195POPC   GL230062  27.318  14.774   9.167
 2195POPC   C1A30063  27.593  15.259   8.791
 2195POPC   D2A30064  27.821  15.304   8.391
 2195POPC   C3A30065  27.605  15.304   7.972
 2195POPC   C4A30066  27.494  15.364   7.520
 2195POPC   C1B30067  27.515  14.739   8.788
 2195POPC   C2B30068  27.541  14.869   8.419
 2195POPC   C3B30069  27.590  14.666   8.070
 2195POPC   C4B30070  27.501  14.868   7.700
 2196POPC   NC330071   3.690  44.964   9.460
 2196POPC   PO430072   3.679   0.639   9.516
 2196POPC   GL130073   3.549   0.427   9.175
 2196POPC   GL230074   3.890   0.299   9.136
 2196POPC   C1A30075   3.669   0.554   8.761
 2196POPC   D2A30076   3.789   0.353   8.413
 2196POPC   C3A30077   3.708   0.673   8.156
 2196POPC   C4A30078   3.445   0.653   7.821
 2196POPC   C1B30079   3.654   0.027   8.821
 2196POPC   C2B30080   3.461  44.955   8.419
 2196POPC   C3B30081   3.530   0.169   8.001
 2196POPC   C4B30082   3.877   0.356   7.804
 2197POPC   NC330083  10.515  10.863   9.800
 2197POPC   PO430084  10.604  10.229   9.626
 2197POPC   GL130085  10.570  10.554   9.338
 2197POPC   GL230086  10.244  10.660   9.238
 2197POPC   C1A30087  10.627  10.572   8.894
 2197POPC   D2A30088  10.462  10.458   8.503
 2197POPC   C3A30089  10.738  10.518   8.146
 2197POPC   C4A30090  10.540  10.557   7.736
 2197POPC   C1B30091  10.271  10.942   8.870
 2197POPC   C2B30092  10.181  10.902   8.453
 2197POPC   C3B30093  10.171  10.611   8.113
 2197POPC   C4B30094  10.114  10.843   7.750
 2198POPC   NC330095  32.321  11.528   9.508
 2198POPC   PO430096  31.825  11.102   9.592
 2198POPC   GL130097  32.027  11.108   9.209
 2198POPC   GL230098  31.852  10.845   9.035
 2198POPC   C1A30099  32.237  11.352   8.872
 2198POPC   D2A30100  32.255  11.552   8.462
 2198POPC   C3A30101  32.470  11.503   8.056
 2198POPC   C4A30102  32.689  11.772   7.767
 2198POPC   C1B30103  31.934  10.934   8.603
 2198POPC   C2B30104  31.913  10.939   8.165
 2198POPC   C3B30105  32.023  11.182   7.832
 2198POPC   C4B30106  32.137  11.101   7.402
 2199POPC   NC330107  19.308  13.976   9.431
 2199POPC   PO430108  18.815  14.512   9.453
 2199POPC   GL130109  19.023  14.299   9.159
 2199POPC   GL230110  18.762  14.120   8.996
 2199POPC   C1A30111  19.238  14.205   8.774
 2199POPC   D2A30112  19.118  13.992   8.401
 2199POPC   C3A30113  19.089  14.280   8.048
 2199POPC   C4A30114  19.264  14.538   7.723
 2199POPC   C1B30115  18.808  14.525   8.769
 2199POPC   C2B30116  18.718  14.548   8.340
 2199POPC   C3B30117  18.721  14.628   7.931
 2199POPC   C4B30118  18.796  14.550   7.525
 2200POPC   NC330119  26.578  14.280   9.477
 2200POPC   PO430120  27.034  14.740   9.585
 2200POPC   GL130121  26.796  14.629   9.200
 2200POPC   GL230122  27.019  14.341   9.133
 2200POPC   C1A30123  26.564  14.415   8.820
 2200POPC   D2A30124  26.770  14.340   8.397
 2200POPC   C3A30125  26.587  14.251   8.003
 2200POPC   C4A30126  26.643  14.544   7.685
 2200POPC   C1B30127  27.030  14.608   8.764
 2200POPC   C2B30128  27.028  14.808   8.358
 2200POPC   C3B30129  27.084  14.593   7.949
 2200POPC   C4B30130  27.116  14.594   7.479
 2201POPC   NC330131   6.358  27.239   9.222
 2201POPC   PO430132   6.065  26.737   9.621
 2201POPC   GL130133   5.908  26.736   9.141
 2201POPC   GL230134   6.070  26.951   8.920
 2201POPC   C1A30135   5.579  26.924   8.810
 2201POPC   D2A30136   5.857  27.080   8.463
 2201POPC   C3A30137   5.892  26.991   8.040
 2201POPC   C4A30138   5.851  26.852   7.605
 2201POPC   C1B30139   5.900  26.582   8.670
 2201POPC   C2B30140   5.633  26.615   8.311
 2201POPC   C3B30141   5.848  26.468   7.968
 2201POPC   C4B30142   6.272  26.217   7.968
 2202POPC   NC330143  17.852  21.678   9.519
 2202POPC   PO430144  17.310  21.252   9.545
 2202POPC   GL130145  17.404  21.557   9.230
 2202POPC   GL230146  17.716  21.587   9.038
 2202POPC   C1A30147  17.202  21.713   8.860
 2202POPC   D2A30148  17.020  21.651   8.452
 2202POPC   C3A30149  17.245  21.514   8.080
 2202POPC   C4A30150  17.060  21.487   7.689
 2202POPC   C1B30151  17.511  21.294   8.774
 2202POPC   C2B30152  17.625  21.269   8.373
 2202POPC   C3B30153  17.609  21.134   7.978
 2202POPC   C4B30154  17.552  21.380   7.634
 2203POPC   NC330155  18.863  38.674   9.510
 2203POPC   PO430156  19.035  37.943   9.504
 2203POPC   GL130157  18.970  38.157   9.136
 2203POPC   GL230158  19.145  38.446   9.183
 2203POPC   C1A30159  18.902  38.159   8.684
 2203POPC   D2A30160  18.875  37.976   8.273
 2203POPC   C3A30161  18.923  38.290   7.988
 2203POPC   C4A30162  19.243  38.543   7.828
 2203POPC   C1B30163  18.857  38.619   8.862
 2203POPC   C2B30164  18.706  38.667   8.459
 2203POPC   C3B30165  18.827  38.827   8.081
 2203POPC   C4B30166  18.766  38.673   7.680
 2204POPC   NC330167  23.371  42.622   9.437
 2204POPC   PO430168  23.983  42.451   9.570
 2204POPC   GL130169  23.848  42.278   9.199
 2204POPC   GL230170  23.750  42.587   9.072
 2204POPC   C1A30171  23.753  42.126   8.799
 2204POPC   D2A30172  23.872  42.268   8.428
 2204POPC   C3A30173  23.679  42.035   8.090
 2204POPC   C4A30174  23.835  42.055   7.686
 2204POPC   C1B30175  23.505  42.593   8.712
 2204POPC   C2B30176  23.450  42.480   8.273
 2204POPC   C3B30177  23.708  42.510   7.936
 2204POPC   C4B30178  23.683  42.621   7.544
 2205POPC   NC330179  20.915  20.776   9.503
 2205POPC   PO430180  20.565  20.203   9.650
 2205POPC   GL130181  20.669  20.283   9.157
 2205POPC   GL230182  20.659  20.644   9.091
 2205POPC   C1A30183  20.661  20.396   8.646
 2205POPC   D2A30184  20.748  20.756   8.304
 2205POPC   C3A30185  20.688  20.699   7.855
 2205POPC   C4A30186  20.498  20.343   7.650
 2205POPC   C1B30187  20.489  20.897   8.760
 2205POPC   C2B30188  20.258  20.858   8.376
 2205POPC   C3B30189  20.283  20.995   7.945
 2205POPC   C4B30190  20.300  20.849   7.492
 2206POPC   NC330191  29.395   5.560   9.420
 2206POPC   PO430192  29.078   5.005   9.634
 2206POPC   GL130193  29.168   5.096   9.162
 2206POPC   GL230194  29.519   5.192   9.081
 2206POPC   C1A30195  29.185   5.291   8.713
 2206POPC   D2A30196  29.110   5.199   8.265
 2206POPC   C3A30197  28.953   5.439   7.950
 2206POPC   C4A30198  29.246   5.278   7.701
 2206POPC   C1B30199  29.538   4.895   8.760
 2206POPC   C2B30200  29.555   4.676   8.389
 2206POPC   C3B30201  29.484   4.898   8.028
 2206POPC   C4B30202  29.619   4.919   7.628
 2207POPC   NC330203  15.113  15.594   9.578
 2207POPC   PO430204  15.467  14.960   9.491
 2207POPC   GL130205  15.206  15.192   9.240
 2207POPC   GL230206  15.393  15.468   9.138
 2207POPC   C1A30207  15.081  15.116   8.828
 2207POPC   D2A30208  14.948  15.261   8.424
 2207POPC   C3A30209  15.092  15.081   8.030
 2207POPC   C4A30210  15.043  15.252   7.591
 2207POPC   C1B30211  15.586  15.185   8.831
 2207POPC   C2B30212  15.476  15.023   8.454
 2207POPC   C3B30213  15.585  15.195   8.091
 2207POPC   C4B30214  15.513  15.079   7.702
 2208POPC   NC330215  18.870  39.468   9.327
 2208POPC   PO430216  19.248  39.949   9.555
 2208POPC   GL130217  19.127  39.987   9.151
 2208POPC   GL230218  18.803  40.125   9.153
 2208POPC   C1A30219  19.166  40.267   8.796
 2208POPC   D2A30220  18.946  40.374   8.435
 2208POPC   C3A30221  19.116  40.135   8.090
 2208POPC   C4A30222  19.103  40.143   7.647
 2208POPC   C1B30223  18.742  39.923   8.760
 2208POPC   C2B30224  18.621  39.738   8.363
 2208POPC   C3B30225  18.689  39.880   7.933
 2208POPC   C4B30226  18.684  39.918   7.463
 2209POPC   NC330227  29.219  12.709   9.366
 2209POPC   PO430228  29.524  13.291   9.494
 2209POPC   GL130229  29.458  13.073   9.091
 2209POPC   GL230230  29.119  12.985   8.950
 2209POPC   C1A30231  29.510  12.884   8.686
 2209POPC   D2A30232  29.412  12.683   8.344
 2209POPC   C3A30233  29.097  12.816   8.105
 2209POPC   C4A30234  29.018  13.125   7.811
 2209POPC   C1B30235  28.933  12.926   8.567
 2209POPC   C2B30236  28.779  12.524   8.415
 2209POPC   C3B30237  28.905  12.320   8.059
 2209POPC   C4B30238  29.030  12.543   7.696
 2210POPC   NC330239  19.052   1.020   9.627
 2210POPC   PO430240  18.884   1.641   9.522
 2210POPC   GL130241  19.124   1.380   9.171
 2210POPC   GL230242  19.216   0.998   9.155
 2210POPC   C1A30243  19.032   1.216   8.735
 2210POPC   D2A30244  18.972   1.004   8.335
 2210POPC   C3A30245  19.043   1.203   7.928
 2210POPC   C4A30246  18.795   1.036   7.608
 2210POPC   C1B30247  19.466   0.977   8.807
 2210POPC   C2B30248  19.483   1.090   8.374
 2210POPC   C3B30249  19.391   0.854   8.007
 2210POPC   C4B30250  19.414   0.879   7.571
 2211POPC   NC330251  33.403  16.610   9.549
 2211POPC   PO430252  34.052  16.751   9.473
 2211POPC   GL130253  33.937  16.676   9.077
 2211POPC   GL230254  33.574  16.567   9.071
 2211POPC   C1A30255  34.086  16.675   8.664
 2211POPC   D2A30256  34.233  16.691   8.247
 2211POPC   C3A30257  34.014  16.766   7.883
 2211POPC   C4A30258  33.977  16.836   7.425
 2211POPC   C1B30259  33.577  16.593   8.635
 2211POPC   C2B30260  33.632  16.657   8.200
 2211POPC   C3B30261  33.666  16.399   7.820
 2211POPC   C4B30262  33.711  16.396   7.323
 2212POPC   NC330263  26.740   7.979   9.464
 2212POPC   PO430264  27.093   8.589   9.600
 2212POPC   GL130265  27.041   8.344   9.214
 2212POPC   GL230266  26.682   8.388   9.140
 2212POPC   C1A30267  26.987   8.167   8.763
 2212POPC   D2A30268  27.187   8.100   8.324
 2212POPC   C3A30269  26.910   8.038   7.952
 2212POPC   C4A30270  26.495   7.947   7.771
 2212POPC   C1B30271  26.478   8.464   8.741
 2212POPC   C2B30272  26.459   8.243   8.321
 2212POPC   C3B30273  26.546   8.458   7.932
 2212POPC   C4B30274  26.785   8.406   7.592
 2213POPC   NC330275  17.123  26.100   9.914
 2213POPC   PO430276  17.675  26.213   9.482
 2213POPC   GL130277  17.684  25.966   9.109
 2213POPC   GL230278  17.556  26.224   8.963
 2213POPC   C1A30279  17.555  25.731   8.773
 2213POPC   D2A30280  17.295  25.914   8.480
 2213POPC   C3A30281  17.388  25.755   8.078
 2213POPC   C4A30282  17.470  25.891   7.617
 2213POPC   C1B30283  17.594  26.363   8.574
 2213POPC   C2B30284  17.584  26.222   8.200
 2213POPC   C3B30285  17.264  26.218   7.945
 2213POPC   C4B30286  17.474  26.488   7.712
 2214POPC   NC330287  34.910  26.523   9.609
 2214POPC   PO430288  34.281  26.824   9.533
 2214POPC   GL130289  34.520  26.578   9.237
 2214POPC   GL230290  34.751  26.802   9.145
 2214POPC   C1A30291  34.581  26.485   8.776
 2214POPC   D2A30292  34.398  26.572   8.335
 2214POPC   C3A30293  34.606  26.468   7.909
 2214POPC   C4A30294  34.927  26.677   7.647
 2214POPC   C1B30295  34.479  26.978   8.815
 2214POPC   C2B30296  34.415  27.110   8.390
 2214POPC   C3B30297  34.476  26.968   7.978
 2214POPC   C4B30298  34.380  27.231   7.665
 2215POPC   NC330299  12.976  30.596   9.587
 2215POPC   PO430300  12.498  30.939   9.354
 2215POPC   GL130301  12.767  30.752   9.103
 2215POPC   GL230302  13.121  30.866   9.171
 2215POPC   C1A30303  12.629  30.632   8.687
 2215POPC   D2A30304  12.655  30.934   8.366
 2215POPC   C3A30305  12.765  30.775   8.007
 2215POPC   C4A30306  12.541  30.921   7.682
 2215POPC   C1B30307  13.049  30.912   8.721
 2215POPC   C2B30308  13.104  30.607   8.377
 2215POPC   C3B30309  13.277  30.626   7.947
 2215POPC   C4B30310  13.000  30.615   7.590
 2216POPC   NC330311  41.009  43.274   9.451
 2216POPC   PO430312  40.394  42.927   9.512
 2216POPC   GL130313  40.587  42.913   9.118
 2216POPC   GL230314  40.957  42.863   9.147
 2216POPC   C1A30315  40.660  43.280   8.844
 2216POPC   D2A30316  40.575  43.477   8.419
 2216POPC   C3A30317  40.816  43.358   8.031
 2216POPC   C4A30318  40.729  43.110   7.710
 2216POPC   C1B30319  41.048  42.956   8.721
 2216POPC   C2B30320  41.008  42.960   8.267
 2216POPC   C3B30321  41.211  42.990   7.854
 2216POPC   C4B30322  41.088  42.898   7.410
 2217POPC   NC330323   9.335  18.412   9.399
 2217POPC   PO430324   8.719  18.164   9.595
 2217POPC   GL130325   8.847  18.384   9.232
 2217POPC   GL230326   9.025  18.103   9.124
 2217POPC   C1A30327   9.035  18.543   8.837
 2217POPC   D2A30328   9.089  18.307   8.487
 2217POPC   C3A30329   9.116  18.586   8.135
 2217POPC   C4A30330   9.117  18.375   7.748
 2217POPC   C1B30331   8.750  17.922   8.824
 2217POPC   C2B30332   8.641  18.025   8.382
 2217POPC   C3B30333   8.845  17.975   7.976
 2217POPC   C4B30334   8.812  18.011   7.528
 2218POPC   NC330335  34.888  41.277   9.484
 2218POPC   PO430336  35.340  41.701   9.595
 2218POPC   GL130337  35.249  41.570   9.189
 2218POPC   GL230338  35.251  41.237   9.148
 2218POPC   C1A30339  35.150  41.752   8.786
 2218POPC   D2A30340  35.289  41.895   8.393
 2218POPC   C3A30341  35.036  41.743   8.073
 2218POPC   C4A30342  35.093  41.870   7.689
 2218POPC   C1B30343  35.133  41.201   8.734
 2218POPC   C2B30344  35.389  41.356   8.384
 2218POPC   C3B30345  35.293  41.306   7.953
 2218POPC   C4B30346  35.287  41.430   7.516
 2219POPC   NC330347  23.352  20.177   9.293
 2219POPC   PO430348  23.587  20.761   9.630
 2219POPC   GL130349  23.722  20.539   9.242
 2219POPC   GL230350  24.037  20.371   9.127
 2219POPC   C1A30351  23.688  20.548   8.778
 2219POPC   D2A30352  23.858  20.764   8.401
 2219POPC   C3A30353  23.611  20.637   8.053
 2219POPC   C4A30354  23.614  20.536   7.618
 2219POPC   C1B30355  24.007  20.154   8.758
 2219POPC   C2B30356  23.826  20.247   8.364
 2219POPC   C3B30357  24.009  20.339   7.976
 2219POPC   C4B30358  24.062  20.266   7.525
 2220POPC   NC330359  40.090  33.446   9.434
 2220POPC   PO430360  39.731  32.923   9.679
 2220POPC   GL130361  39.843  32.937   9.202
 2220POPC   GL230362  40.146  33.094   9.090
 2220POPC   C1A30363  39.991  32.720   8.759
 2220POPC   D2A30364  39.917  32.544   8.306
 2220POPC   C3A30365  40.002  32.836   7.943
 2220POPC   C4A30366  39.794  33.221   7.750
 2220POPC   C1B30367  39.993  33.233   8.695
 2220POPC   C2B30368  40.139  33.251   8.260
 2220POPC   C3B30369  40.292  33.291   7.836
 2220POPC   C4B30370  40.255  33.500   7.444
 2221POPC   NC330371  37.846   9.610   9.828
 2221POPC   PO430372  37.480  10.116   9.705
 2221POPC   GL130373  37.674  10.065   9.254
 2221POPC   GL230374  37.812   9.714   9.172
 2221POPC   C1A30375  37.785  10.047   8.781
 2221POPC   D2A30376  37.980   9.993   8.354
 2221POPC   C3A30377  37.748   9.919   7.956
 2221POPC   C4A30378  37.341   9.722   7.823
 2221POPC   C1B30379  37.888   9.551   8.735
 2221POPC   C2B30380  37.731   9.540   8.304
 2221POPC   C3B30381  37.735   9.379   7.895
 2221POPC   C4B30382  37.567   9.137   7.564
 2222POPC   NC330383  34.033   5.645   9.781
 2222POPC   PO430384  33.749   5.171   9.504
 2222POPC   GL130385  33.823   5.265   9.125
 2222POPC   GL230386  34.141   5.272   8.983
 2222POPC   C1A30387  33.682   5.077   8.756
 2222POPC   D2A30388  33.487   5.083   8.363
 2222POPC   C3A30389  33.566   4.845   7.993
 2222POPC   C4A30390  33.805   4.960   7.614
 2222POPC   C1B30391  34.151   4.868   8.792
 2222POPC   C2B30392  33.990   4.764   8.414
 2222POPC   C3B30393  34.058   4.932   8.051
 2222POPC   C4B30394  34.345   5.027   7.773
 2223POPC   NC330395   1.253  19.278   9.516
 2223POPC   PO430396   0.820  18.781   9.632
 2223POPC   GL130397   1.024  18.956   9.210
 2223POPC   GL230398   1.370  18.864   9.209
 2223POPC   C1A30399   1.012  18.939   8.750
 2223POPC   D2A30400   1.044  19.149   8.350
 2223POPC   C3A30401   0.920  18.920   7.990
 2223POPC   C4A30402   1.099  19.079   7.616
 2223POPC   C1B30403   1.492  18.774   8.779
 2223POPC   C2B30404   1.364  18.768   8.356
 2223POPC   C3B30405   1.434  19.033   7.992
 2223POPC   C4B30406   1.604  18.987   7.583
 2224POPC   NC330407   4.750  20.425   9.463
 2224POPC   PO430408   4.389  20.982   9.723
 2224POPC   GL130409   4.380  20.744   9.302
 2224POPC   GL230410   4.039  20.656   9.273
 2224POPC   C1A30411   4.505  20.544   8.870
 2224POPC   D2A30412   4.535  20.615   8.410
 2224POPC   C3A30413   4.664  20.321   8.084
 2224POPC   C4A30414   4.524  20.469   7.703
 2224POPC   C1B30415   3.998  20.531   8.837
 2224POPC   C2B30416   3.866  20.494   8.425
 2224POPC   C3B30417   4.100  20.498   8.060
 2224POPC   C4B30418   3.951  20.300   7.704
 2225POPC   NC330419  26.625  28.300   9.468
 2225POPC   PO430420  27.204  28.710   9.253
 2225POPC   GL130421  26.849  28.467   9.019
 2225POPC   GL230422  26.542  28.617   9.088
 2225POPC   C1A30423  26.835  28.091   8.702
 2225POPC   D2A30424  27.036  28.080   8.309
 2225POPC   C3A30425  27.128  28.472   8.225
 2225POPC   C4A30426  26.926  28.454   7.895
 2225POPC   C1B30427  26.399  28.367   8.754
 2225POPC   C2B30428  26.577  28.390   8.349
 2225POPC   C3B30429  26.459  28.570   7.964
 2225POPC   C4B30430  26.659  28.717   7.572
 2226POPC   NC330431   1.234  24.587   9.589
 2226POPC   PO430432   1.666  24.116   9.260
 2226POPC   GL130433   1.349  24.342   9.094
 2226POPC   GL230434   1.235  24.712   9.106
 2226POPC   C1A30435   1.120  24.199   8.724
 2226POPC   D2A30436   0.973  24.291   8.302
 2226POPC   C3A30437   1.207  24.452   7.951
 2226POPC   C4A30438   1.646  24.572   7.933
 2226POPC   C1B30439   1.531  24.708   8.767
 2226POPC   C2B30440   1.407  24.823   8.344
 2226POPC   C3B30441   0.988  24.881   8.199
 2226POPC   C4B30442   0.911  24.836   7.754
 2227POPC   NC330443  35.539   4.123   9.515
 2227POPC   PO430444  34.934   4.446   9.624
 2227POPC   GL130445  35.124   4.256   9.189
 2227POPC   GL230446  35.520   4.218   9.030
 2227POPC   C1A30447  35.080   4.206   8.726
 2227POPC   D2A30448  35.387   4.313   8.382
 2227POPC   C3A30449  35.307   4.566   8.002
 2227POPC   C4A30450  35.414   4.480   7.586
 2227POPC   C1B30451  35.433   3.831   8.782
 2227POPC   C2B30452  35.246   3.819   8.360
 2227POPC   C3B30453  35.263   3.987   7.934
 2227POPC   C4B30454  35.509   3.806   7.609
 2228POPC   NC330455  29.611  35.218   9.498
 2228POPC   PO430456  30.057  34.834   9.557
 2228POPC   GL130457  30.178  35.104   9.200
 2228POPC   GL230458  29.851  35.098   9.021
 2228POPC   C1A30459  30.125  35.507   8.900
 2228POPC   D2A30460  29.850  35.662   8.523
 2228POPC   C3A30461  29.998  35.655   8.082
 2228POPC   C4A30462  30.128  35.508   7.679
 2228POPC   C1B30463  29.598  35.210   8.647
 2228POPC   C2B30464  29.570  35.323   8.218
 2228POPC   C3B30465  29.788  35.165   7.861
 2228POPC   C4B30466  29.828  35.190   7.405
 2229POPC   NC330467  31.930   4.805   9.632
 2229POPC   PO430468  31.303   4.741   9.504
 2229POPC   GL130469  31.465   4.988   9.182
 2229POPC   GL230470  31.724   5.188   9.316
 2229POPC   C1A30471  31.321   5.039   8.758
 2229POPC   D2A30472  31.161   5.209   8.367
 2229POPC   C3A30473  31.263   4.989   7.971
 2229POPC   C4A30474  31.320   4.860   7.520
 2229POPC   C1B30475  31.811   5.167   8.859
 2229POPC   C2B30476  31.766   5.020   8.423
 2229POPC   C3B30477  31.814   5.064   7.976
 2229POPC   C4B30478  31.566   5.269   7.657
 2230POPC   NC330479  19.346   2.645   9.542
 2230POPC   PO430480  18.712   2.886   9.485
 2230POPC   GL130481  19.070   2.902   9.188
 2230POPC   GL230482  19.121   2.523   9.096
 2230POPC   C1A30483  19.156   2.997   8.756
 2230POPC   D2A30484  19.036   2.769   8.378
 2230POPC   C3A30485  19.268   2.823   8.009
 2230POPC   C4A30486  19.222   2.678   7.616
 2230POPC   C1B30487  18.772   2.641   8.831
 2230POPC   C2B30488  18.564   2.482   8.466
 2230POPC   C3B30489  18.627   2.620   8.095
 2230POPC   C4B30490  18.711   2.595   7.672
 2231POPC   NC330491  21.620   1.773   9.597
 2231POPC   PO430492  21.005   2.238   9.678
 2231POPC   GL130493  21.160   2.347   9.237
 2231POPC   GL230494  21.492   2.148   9.212
 2231POPC   C1A30495  21.249   2.245   8.777
 2231POPC   D2A30496  21.359   1.994   8.404
 2231POPC   C3A30497  21.165   2.123   7.999
 2231POPC   C4A30498  21.072   2.167   7.544
 2231POPC   C1B30499  21.729   1.952   8.846
 2231POPC   C2B30500  21.855   2.103   8.421
 2231POPC   C3B30501  21.688   2.022   7.995
 2231POPC   C4B30502  21.948   1.657   7.876
 2232POPC   NC330503  10.268  42.677   9.443
 2232POPC   PO430504  10.778  42.343   9.698
 2232POPC   GL130505  10.734  42.176   9.226
 2232POPC   GL230506  10.398  42.261   9.129
 2232POPC   C1A30507  10.690  42.286   8.742
 2232POPC   D2A30508  10.625  42.329   8.342
 2232POPC   C3A30509  10.941  42.412   8.091
 2232POPC   C4A30510  10.743  42.495   7.721
 2232POPC   C1B30511  10.243  42.555   8.814
 2232POPC   C2B30512  10.169  42.552   8.417
 2232POPC   C3B30513  10.354  42.632   8.037
 2232POPC   C4B30514  10.220  42.569   7.629
 2233POPC   NC330515  25.174  20.101   9.521
 2233POPC   PO430516  25.540  19.471   9.676
 2233POPC   GL130517  25.500  19.610   9.247
 2233POPC   GL230518  25.157  19.709   9.169
 2233POPC   C1A30519  25.535  19.743   8.808
 2233POPC   D2A30520  25.246  19.776   8.480
 2233POPC   C3A30521  25.449  19.732   8.078
 2233POPC   C4A30522  25.251  19.682   7.663
 2233POPC   C1B30523  24.965  20.071   8.914
 2233POPC   C2B30524  24.915  20.178   8.480
 2233POPC   C3B30525  25.195  20.167   8.118
 2233POPC   C4B30526  25.094  20.148   7.681
 2234POPC   NC330527   8.317  23.876   9.618
 2234POPC   PO430528   7.849  23.506   9.451
 2234POPC   GL130529   8.132  23.742   9.158
 2234POPC   GL230530   8.357  24.057   9.150
 2234POPC   C1A30531   8.244  23.788   8.717
 2234POPC   D2A30532   8.444  23.868   8.345
 2234POPC   C3A30533   8.248  23.875   8.002
 2234POPC   C4A30534   8.277  23.599   7.692
 2234POPC   C1B30535   8.004  24.178   8.875
 2234POPC   C2B30536   7.956  24.095   8.410
 2234POPC   C3B30537   7.866  24.235   7.986
 2234POPC   C4B30538   7.895  23.939   7.621
 2235POPC   NC330539  12.830  20.500   9.550
 2235POPC   PO430540  13.079  21.123   9.553
 2235POPC   GL130541  12.868  20.873   9.167
 2235POPC   GL230542  12.915  20.490   9.069
 2235POPC   C1A30543  12.797  20.797   8.706
 2235POPC   D2A30544  12.930  20.915   8.312
 2235POPC   C3A30545  12.712  20.887   7.911
 2235POPC   C4A30546  13.097  20.877   7.754
 2235POPC   C1B30547  13.023  20.272   8.717
 2235POPC   C2B30548  12.815  20.396   8.356
 2235POPC   C3B30549  12.949  20.433   7.981
 2235POPC   C4B30550  12.730  20.419   7.632
 2236POPC   NC330551   9.629  24.571   9.574
 2236POPC   PO430552   9.706  24.009   9.231
 2236POPC   GL130553   9.639  24.413   9.087
 2236POPC   GL230554   9.940  24.603   9.175
 2236POPC   C1A30555   9.643  24.454   8.677
 2236POPC   D2A30556   9.821  24.311   8.300
 2236POPC   C3A30557   9.661  24.552   7.946
 2236POPC   C4A30558   9.554  24.456   7.529
 2236POPC   C1B30559  10.174  24.503   8.804
 2236POPC   C2B30560  10.164  24.688   8.378
 2236POPC   C3B30561  10.012  24.895   7.995
 2236POPC   C4B30562  10.008  24.703   7.552
 2237POPC   NC330563  34.099  44.363   9.944
 2237POPC   PO430564  34.494  44.698   9.461
 2237POPC   GL130565  34.540  44.438   9.130
 2237POPC   GL230566  34.845  44.498   8.971
 2237POPC   C1A30567  34.430  44.314   8.761
 2237POPC   D2A30568  34.498  44.527   8.390
 2237POPC   C3A30569  34.462  44.424   7.978
 2237POPC   C4A30570  34.473  44.537   7.513
 2237POPC   C1B30571  34.960  44.376   8.587
 2237POPC   C2B30572  34.952  44.375   8.153
 2237POPC   C3B30573  34.942  44.595   7.784
 2237POPC   C4B30574  34.964  44.545   7.344
 2238POPC   NC330575  28.586  16.109   9.515
 2238POPC   PO430576  27.981  15.763   9.555
 2238POPC   GL130577  28.185  15.907   9.217
 2238POPC   GL230578  28.431  15.656   9.265
 2238POPC   C1A30579  28.148  15.919   8.766
 2238POPC   D2A30580  28.446  16.165   8.531
 2238POPC   C3A30581  28.493  16.065   8.098
 2238POPC   C4A30582  28.152  16.136   7.822
 2238POPC   C1B30583  28.622  15.781   8.892
 2238POPC   C2B30584  28.676  15.674   8.457
 2238POPC   C3B30585  28.651  15.546   8.032
 2238POPC   C4B30586  28.431  15.720   7.694
 2239POPC   NC330587  26.834  19.457   9.473
 2239POPC   PO430588  26.979  18.807   9.296
 2239POPC   GL130589  26.686  18.951   9.027
 2239POPC   GL230590  26.895  19.234   8.995
 2239POPC   C1A30591  26.690  18.990   8.575
 2239POPC   D2A30592  26.994  19.217   8.327
 2239POPC   C3A30593  26.948  19.056   7.931
 2239POPC   C4A30594  26.608  18.978   7.646
 2239POPC   C1B30595  26.533  19.408   8.823
 2239POPC   C2B30596  26.392  19.443   8.412
 2239POPC   C3B30597  26.599  19.426   8.027
 2239POPC   C4B30598  26.600  19.492   7.603
 2240POPC   NC330599  32.640  44.983   9.502
 2240POPC   PO430600  33.248  44.686   9.396
 2240POPC   GL130601  32.977  44.614   9.084
 2240POPC   GL230602  32.787  44.335   9.118
 2240POPC   C1A30603  33.108  44.495   8.679
 2240POPC   D2A30604  33.066  44.319   8.289
 2240POPC   C3A30605  33.139  44.598   7.985
 2240POPC   C4A30606  33.141  44.513   7.557
 2240POPC   C1B30607  32.585  44.577   8.755
 2240POPC   C2B30608  32.665  44.769   8.367
 2240POPC   C3B30609  32.659  44.740   7.936
 2240POPC   C4B30610  32.893  44.961   7.657
 2241POPC   NC330611  11.608   5.133   9.498
 2241POPC   PO430612  11.092   5.593   9.501
 2241POPC   GL130613  11.026   5.387   9.106
 2241POPC   GL230614  11.260   5.171   9.117
 2241POPC   C1A30615  11.133   5.340   8.654
 2241POPC   D2A30616  11.416   5.252   8.303
 2241POPC   C3A30617  11.281   4.911   8.056
 2241POPC   C4A30618  11.009   5.121   7.821
 2241POPC   C1B30619  11.500   4.999   8.781
 2241POPC   C2B30620  11.675   4.818   8.392
 2241POPC   C3B30621  11.751   4.760   7.943
 2241POPC   C4B30622  11.526   4.803   7.557
 2242POPC   NC330623  31.118  25.114   9.553
 2242POPC   PO430624  31.732  25.061   9.350
 2242POPC   GL130625  31.563  25.307   9.014
 2242POPC   GL230626  31.271  25.181   9.058
 2242POPC   C1A30627  31.630  25.350   8.587
 2242POPC   D2A30628  31.723  25.060   8.264
 2242POPC   C3A30629  31.406  24.964   7.926
 2242POPC   C4A30630  31.418  24.974   7.417
 2242POPC   C1B30631  31.148  25.549   8.822
 2242POPC   C2B30632  31.239  25.646   8.441
 2242POPC   C3B30633  31.183  25.445   8.065
 2242POPC   C4B30634  31.388  25.450   7.670
 2243POPC   NC330635  26.506   0.283   9.446
 2243POPC   PO430636  27.038   0.619   9.612
 2243POPC   GL130637  26.978   0.482   9.198
 2243POPC   GL230638  26.678   0.564   9.051
 2243POPC   C1A30639  27.123   0.548   8.762
 2243POPC   D2A30640  26.970   0.387   8.378
 2243POPC   C3A30641  26.892   0.564   8.007
 2243POPC   C4A30642  26.810   0.719   7.615
 2243POPC   C1B30643  26.741   0.181   8.804
 2243POPC   C2B30644  26.682  44.963   8.412
 2243POPC   C3B30645  26.689   0.089   7.994
 2243POPC   C4B30646  26.736   0.201   7.581
 2244POPC   NC330647   2.544  13.535   9.522
 2244POPC   PO430648   3.070  13.966   9.473
 2244POPC   GL130649   2.839  13.783   9.157
 2244POPC   GL230650   2.898  13.426   9.143
 2244POPC   C1A30651   2.729  13.683   8.733
 2244POPC   D2A30652   2.871  13.812   8.330
 2244POPC   C3A30653   2.659  13.593   7.998
 2244POPC   C4A30654   2.577  13.874   7.710
 2244POPC   C1B30655   3.178  13.414   8.829
 2244POPC   C2B30656   3.048  13.350   8.455
 2244POPC   C3B30657   3.152  13.443   8.062
 2244POPC   C4B30658   3.028  13.346   7.665
 2245POPC   NC330659  12.769  10.606   9.591
 2245POPC   PO430660  13.398  10.423   9.543
 2245POPC   GL130661  13.116  10.425   9.211
 2245POPC   GL230662  12.977  10.767   9.123
 2245POPC   C1A30663  13.093  10.285   8.786
 2245POPC   D2A30664  12.952  10.237   8.358
 2245POPC   C3A30665  12.663  10.513   8.219
 2245POPC   C4A30666  12.802  10.544   7.805
 2245POPC   C1B30667  12.651  10.839   8.763
 2245POPC   C2B30668  12.687  11.011   8.340
 2245POPC   C3B30669  13.031  10.894   8.088
 2245POPC   C4B30670  13.141  10.940   7.653
 2246POPC   NC330671  24.060  38.231   9.577
 2246POPC   PO430672  24.733  38.297   9.806
 2246POPC   GL130673  24.805  38.349   9.346
 2246POPC   GL230674  24.480  38.489   9.309
 2246POPC   C1A30675  24.859  38.474   8.875
 2246POPC   D2A30676  24.687  38.272   8.471
 2246POPC   C3A30677  24.621  38.429   8.028
 2246POPC   C4A30678  24.394  38.777   7.796
 2246POPC   C1B30679  24.356  38.329   8.904
 2246POPC   C2B30680  24.167  38.180   8.516
 2246POPC   C3B30681  24.122  38.410   8.114
 2246POPC   C4B30682  24.156  38.262   7.683
 2247POPC   NC330683   2.200  27.913   9.481
 2247POPC   PO430684   1.688  27.439   9.508
 2247POPC   GL130685   1.853  27.420   9.111
 2247POPC   GL230686   1.873  27.749   9.096
 2247POPC   C1A30687   1.932  27.487   8.677
 2247POPC   D2A30688   1.872  27.760   8.325
 2247POPC   C3A30689   1.901  27.518   7.998
 2247POPC   C4A30690   2.054  27.695   7.679
 2247POPC   C1B30691   1.592  27.875   8.730
 2247POPC   C2B30692   1.497  28.107   8.337
 2247POPC   C3B30693   1.455  27.975   7.947
 2247POPC   C4B30694   1.611  27.900   7.536
 2248POPC   NC330695  20.446  33.604   9.540
 2248POPC   PO430696  20.921  33.926   9.243
 2248POPC   GL130697  20.542  33.864   9.101
 2248POPC   GL230698  20.260  34.018   9.219
 2248POPC   C1A30699  20.546  33.651   8.750
 2248POPC   D2A30700  20.813  33.722   8.395
 2248POPC   C3A30701  20.610  33.816   8.009
 2248POPC   C4A30702  20.767  33.711   7.649
 2248POPC   C1B30703  20.150  33.972   8.796
 2248POPC   C2B30704  20.253  33.823   8.377
 2248POPC   C3B30705  20.086  33.926   7.969
 2248POPC   C4B30706  20.300  34.070   7.598
 2249POPC   NC330707   9.899  27.521   9.577
 2249POPC   PO430708   9.320  27.908   9.525
 2249POPC   GL130709   9.653  27.784   9.200
 2249POPC   GL230710  10.049  27.861   9.260
 2249POPC   C1A30711   9.642  27.541   8.786
 2249POPC   D2A30712   9.487  27.609   8.350
 2249POPC   C3A30713   9.546  27.484   7.919
 2249POPC   C4A30714   9.909  27.246   7.910
 2249POPC   C1B30715  10.060  27.825   8.818
 2249POPC   C2B30716  10.082  27.610   8.398
 2249POPC   C3B30717  10.033  27.740   7.956
 2249POPC   C4B30718   9.899  27.598   7.512
 2250POPC   NC330719   2.738   2.286   9.488
 2250POPC   PO430720   3.062   1.623   9.440
 2250POPC   GL130721   2.943   1.918   9.171
 2250POPC   GL230722   2.603   1.884   9.181
 2250POPC   C1A30723   3.001   2.070   8.762
 2250POPC   D2A30724   2.743   2.035   8.411
 2250POPC   C3A30725   2.915   2.082   7.991
 2250POPC   C4A30726   2.808   2.325   7.596
 2250POPC   C1B30727   2.654   1.666   8.811
 2250POPC   C2B30728   2.525   1.547   8.440
 2250POPC   C3B30729   2.531   1.718   8.061
 2250POPC   C4B30730   2.574   1.889   7.658
 2251POPC   NC330731  30.288  10.246   9.320
 2251POPC   PO430732  29.688  10.624   9.493
 2251POPC   GL130733  29.896  10.543   9.122
 2251POPC   GL230734  30.147  10.739   9.266
 2251POPC   C1A30735  29.855  10.503   8.665
 2251POPC   D2A30736  29.833  10.547   8.214
 2251POPC   C3A30737  30.077  10.209   7.990
 2251POPC   C4A30738  30.190  10.094   7.545
 2251POPC   C1B30739  30.071  10.969   8.872
 2251POPC   C2B30740  30.029  11.024   8.422
 2251POPC   C3B30741  30.037  10.941   7.965
 2251POPC   C4B30742  30.259  10.607   7.723
 2252POPC   NC330743   5.115  44.215   9.723
 2252POPC   PO430744   5.300  44.876   9.554
 2252POPC   GL130745   5.097  44.785   9.174
 2252POPC   GL230746   4.758  44.747   9.254
 2252POPC   C1A30747   5.241  44.689   8.764
 2252POPC   D2A30748   5.205  44.920   8.362
 2252POPC   C3A30749   5.105  44.697   7.992
 2252POPC   C4A30750   5.353  44.533   7.663
 2252POPC   C1B30751   4.791  44.427   8.899
 2252POPC   C2B30752   4.916  44.439   8.454
 2252POPC   C3B30753   4.717  44.363   8.058
 2252POPC   C4B30754   4.842  44.371   7.649
 2253POPC   NC330755  22.274   4.485   9.493
 2253POPC   PO430756  22.205   3.917   9.156
 2253POPC   GL130757  22.023   4.276   9.103
 2253POPC   GL230758  21.696   4.147   9.112
 2253POPC   C1A30759  22.214   4.530   8.788
 2253POPC   D2A30760  22.409   4.328   8.435
 2253POPC   C3A30761  22.470   4.593   8.107
 2253POPC   C4A30762  22.204   4.483   7.787
 2253POPC   C1B30763  21.811   4.183   8.632
 2253POPC   C2B30764  21.822   4.035   8.201
 2253POPC   C3B30765  21.928   3.993   7.777
 2253POPC   C4B30766  21.878   4.148   7.345
 2254POPC   NC330767  32.479  19.002   9.526
 2254POPC   PO430768  31.844  19.094   9.454
 2254POPC   GL130769  32.075  18.897   9.122
 2254POPC   GL230770  32.395  19.094   9.050
 2254POPC   C1A30771  32.157  18.888   8.660
 2254POPC   D2A30772  32.359  19.087   8.298
 2254POPC   C3A30773  32.118  19.303   7.984
 2254POPC   C4A30774  31.906  19.087   7.642
 2254POPC   C1B30775  32.658  18.981   8.707
 2254POPC   C2B30776  32.626  18.637   8.434
 2254POPC   C3B30777  32.488  18.661   8.002
 2254POPC   C4B30778  32.509  19.045   7.768
 2255POPC   NC330779  44.476  12.297   9.608
 2255POPC   PO430780  44.991  11.926   9.529
 2255POPC   GL130781  44.777  12.136   9.207
 2255POPC   GL230782  44.499  11.913   9.231
 2255POPC   C1A30783  44.539  12.251   8.825
 2255POPC   D2A30784  44.733  12.195   8.454
 2255POPC   C3A30785  44.637  12.265   8.075
 2255POPC   C4A30786  44.769  12.157   7.678
 2255POPC   C1B30787  44.311  11.790   8.836
 2255POPC   C2B30788  44.417  11.769   8.407
 2255POPC   C3B30789  44.289  11.902   8.000
 2255POPC   C4B30790  44.419  11.721   7.617
 2256POPC   NC330791  15.506  18.465   9.452
 2256POPC   PO430792  14.863  18.217   9.335
 2256POPC   GL130793  15.164  18.241   9.083
 2256POPC   GL230794  15.107  18.589   9.089
 2256POPC   C1A30795  15.049  18.248   8.669
 2256POPC   D2A30796  14.970  18.618   8.430
 2256POPC   C3A30797  14.997  18.453   8.046
 2256POPC   C4A30798  14.951  18.031   7.912
 2256POPC   C1B30799  15.418  18.588   8.765
 2256POPC   C2B30800  15.561  18.257   8.485
 2256POPC   C3B30801  15.479  18.169   8.049
 2256POPC   C4B30802  15.427  18.557   7.835
 2257POPC   NC330803  16.639  39.555   9.475
 2257POPC   PO430804  17.121  39.121   9.444
 2257POPC   GL130805  17.070  39.164   9.081
 2257POPC   GL230806  16.955  39.469   9.103
 2257POPC   C1A30807  16.988  39.155   8.669
 2257POPC   D2A30808  16.594  39.141   8.503
 2257POPC   C3A30809  16.628  39.125   8.080
 2257POPC   C4A30810  16.547  38.829   7.787
 2257POPC   C1B30811  16.747  39.611   8.766
 2257POPC   C2B30812  16.818  39.765   8.420
 2257POPC   C3B30813  16.938  39.622   8.028
 2257POPC   C4B30814  16.631  39.591   7.715
 2258POPC   NC330815   0.264  14.395  10.114
 2258POPC   PO430816   0.735  14.471   9.674
 2258POPC   GL130817   0.603  14.297   9.238
 2258POPC   GL230818   0.249  14.321   9.171
 2258POPC   C1A30819   0.591  14.334   8.779
 2258POPC   D2A30820   0.722  14.398   8.333
 2258POPC   C3A30821   0.394  14.506   8.075
 2258POPC   C4A30822   0.455  14.367   7.698
 2258POPC   C1B30823   0.138  14.595   8.827
 2258POPC   C2B30824   0.234  14.876   8.486
 2258POPC   C3B30825   0.103  14.923   8.030
 2258POPC   C4B30826   0.164  14.769   7.612
 2259POPC   NC330827  28.337   7.116   9.565
 2259POPC   PO430828  28.114   7.690   9.298
 2259POPC   GL130829  28.284   7.361   9.084
 2259POPC   GL230830  28.053   7.080   9.134
 2259POPC   C1A30831  28.490   7.212   8.692
 2259POPC   D2A30832  28.787   7.139   8.321
 2259POPC   C3A30833  28.569   7.320   8.005
 2259POPC   C4A30834  28.289   7.242   7.726
 2259POPC   C1B30835  27.943   7.230   8.729
 2259POPC   C2B30836  28.087   7.273   8.303
 2259POPC   C3B30837  27.862   7.096   7.941
 2259POPC   C4B30838  27.886   7.199   7.452
 2260POPC   NC330839  36.750  34.137   9.562
 2260POPC   PO430840  36.509  34.776   9.542
 2260POPC   GL130841  36.730  34.572   9.242
 2260POPC   GL230842  37.075  34.620   9.316
 2260POPC   C1A30843  36.788  34.628   8.824
 2260POPC   D2A30844  36.967  34.406   8.499
 2260POPC   C3A30845  36.853  34.605   8.126
 2260POPC   C4A30846  36.944  34.467   7.718
 2260POPC   C1B30847  37.265  34.784   8.901
 2260POPC   C2B30848  37.350  34.755   8.453
 2260POPC   C3B30849  37.284  34.831   8.012
 2260POPC   C4B30850  37.238  34.860   7.508
 2261POPC   NC330851   4.753   3.257   9.401
 2261POPC   PO430852   4.955   3.892   9.553
 2261POPC   GL130853   4.778   3.746   9.170
 2261POPC   GL230854   5.063   3.540   9.073
 2261POPC   C1A30855   4.787   3.748   8.704
 2261POPC   D2A30856   5.112   3.639   8.391
 2261POPC   C3A30857   5.104   3.540   7.944
 2261POPC   C4A30858   5.345   3.564   7.547
 2261POPC   C1B30859   5.114   3.231   8.737
 2261POPC   C2B30860   5.015   3.156   8.312
 2261POPC   C3B30861   5.171   3.024   7.931
 2261POPC   C4B30862   4.970   3.197   7.581
 2262POPC   NC330863  21.411  22.443   9.450
 2262POPC   PO430864  21.352  21.748   9.593
 2262POPC   GL130865  21.540  21.997   9.195
 2262POPC   GL230866  21.641  22.394   9.008
 2262POPC   C1A30867  21.441  22.025   8.762
 2262POPC   D2A30868  21.717  22.247   8.500
 2262POPC   C3A30869  21.487  22.270   8.182
 2262POPC   C4A30870  21.535  22.168   7.830
 2262POPC   C1B30871  21.317  22.531   8.598
 2262POPC   C2B30872  21.157  22.709   8.200
 2262POPC   C3B30873  21.382  22.645   7.817
 2262POPC   C4B30874  21.330  22.813   7.431
 2263POPC   NC330875   2.489  28.620   9.502
 2263POPC   PO430876   3.059  28.311   9.508
 2263POPC   GL130877   2.849  28.394   9.161
 2263POPC   GL230878   3.016  28.734   9.150
 2263POPC   C1A30879   2.729  28.154   8.769
 2263POPC   D2A30880   2.956  28.193   8.355
 2263POPC   C3A30881   2.769  28.262   7.935
 2263POPC   C4A30882   2.464  28.391   7.567
 2263POPC   C1B30883   3.031  28.566   8.726
 2263POPC   C2B30884   2.765  28.650   8.367
 2263POPC   C3B30885   3.077  28.667   8.079
 2263POPC   C4B30886   3.164  28.491   7.698
 2264POPC   NC330887  38.192  18.864   9.454
 2264POPC   PO430888  38.788  19.119   9.421
 2264POPC   GL130889  38.529  19.126   9.099
 2264POPC   GL230890  38.607  18.794   9.064
 2264POPC   C1A30891  38.433  19.295   8.690
 2264POPC   D2A30892  38.078  19.333   8.395
 2264POPC   C3A30893  38.232  19.299   7.964
 2264POPC   C4A30894  38.505  18.983   7.820
 2264POPC   C1B30895  38.437  18.779   8.656
 2264POPC   C2B30896  38.284  18.862   8.253
 2264POPC   C3B30897  38.048  18.793   7.850
 2264POPC   C4B30898  38.078  18.640   7.385
 2265POPC   NC330899   9.039  38.982   9.469
 2265POPC   PO430900   8.735  39.549   9.414
 2265POPC   GL130901   8.828  39.288   9.101
 2265POPC   GL230902   9.161  39.302   9.025
 2265POPC   C1A30903   8.665  39.026   8.788
 2265POPC   D2A30904   8.453  38.923   8.405
 2265POPC   C3A30905   8.636  39.153   8.077
 2265POPC   C4A30906   8.611  39.257   7.640
 2265POPC   C1B30907   9.161  39.157   8.600
 2265POPC   C2B30908   9.332  39.310   8.219
 2265POPC   C3B30909   9.384  39.268   7.776
 2265POPC   C4B30910   9.106  39.232   7.409
 2266POPC   NC330911   9.579  40.508   9.531
 2266POPC   PO430912   9.655  41.154   9.303
 2266POPC   GL130913   9.738  40.779   9.142
 2266POPC   GL230914  10.092  40.695   9.120
 2266POPC   C1A30915   9.715  40.525   8.793
 2266POPC   D2A30916   9.862  40.612   8.400
 2266POPC   C3A30917   9.560  40.724   8.104
 2266POPC   C4A30918   9.649  40.510   7.739
 2266POPC   C1B30919  10.018  40.960   8.764
 2266POPC   C2B30920  10.063  41.068   8.361
 2266POPC   C3B30921   9.997  40.958   7.954
 2266POPC   C4B30922  10.168  41.291   7.747
 2267POPC   NC330923   2.881  24.734   9.609
 2267POPC   PO430924   2.965  24.147   9.441
 2267POPC   GL130925   2.825  24.482   9.162
 2267POPC   GL230926   2.518  24.321   9.005
 2267POPC   C1A30927   2.606  24.804   8.876
 2267POPC   D2A30928   2.431  24.649   8.474
 2267POPC   C3A30929   2.675  24.385   8.175
 2267POPC   C4A30930   2.659  24.515   7.751
 2267POPC   C1B30931   2.813  24.380   8.667
 2267POPC   C2B30932   3.103  24.157   8.464
 2267POPC   C3B30933   3.045  23.967   8.108
 2267POPC   C4B30934   2.875  24.065   7.744
 2268POPC   NC330935  38.514  28.127   9.459
 2268POPC   PO430936  38.331  28.726   9.730
 2268POPC   GL130937  38.459  28.626   9.271
 2268POPC   GL230938  38.171  28.660   9.062
 2268POPC   C1A30939  38.569  28.504   8.788
 2268POPC   D2A30940  38.418  28.367   8.327
 2268POPC   C3A30941  38.701  28.319   7.942
 2268POPC   C4A30942  38.787  28.541   7.530
 2268POPC   C1B30943  38.106  28.276   8.758
 2268POPC   C2B30944  38.172  27.928   8.456
 2268POPC   C3B30945  38.006  28.098   8.100
 2268POPC   C4B30946  38.193  28.359   7.782
 2269POPC   NC330947  29.238  19.791   9.490
 2269POPC   PO430948  28.813  19.267   9.403
 2269POPC   GL130949  28.973  19.542   9.111
 2269POPC   GL230950  28.937  19.903   9.089
 2269POPC   C1A30951  29.074  19.577   8.693
 2269POPC   D2A30952  29.254  19.515   8.298
 2269POPC   C3A30953  28.983  19.624   7.972
 2269POPC   C4A30954  28.617  19.464   7.796
 2269POPC   C1B30955  29.190  20.062   8.732
 2269POPC   C2B30956  29.182  20.037   8.262
 2269POPC   C3B30957  29.106  20.081   7.812
 2269POPC   C4B30958  29.157  20.181   7.398
 2270POPC   NC330959  11.192  20.921   9.648
 2270POPC   PO430960  11.375  20.267   9.483
 2270POPC   GL130961  11.244  20.331   9.085
 2270POPC   GL230962  11.613  20.252   9.015
 2270POPC   C1A30963  11.038  20.679   8.827
 2270POPC   D2A30964  11.151  20.878   8.427
 2270POPC   C3A30965  11.056  20.679   8.024
 2270POPC   C4A30966  10.993  20.215   7.886
 2270POPC   C1B30967  11.495  20.452   8.637
 2270POPC   C2B30968  11.475  20.440   8.203
 2270POPC   C3B30969  11.443  20.444   7.771
 2270POPC   C4B30970  11.418  20.761   7.434
 2271POPC   NC330971   8.143  34.217   9.389
 2271POPC   PO430972   8.425  33.556   9.523
 2271POPC   GL130973   8.406  33.845   9.153
 2271POPC   GL230974   8.427  34.205   8.989
 2271POPC   C1A30975   8.243  33.773   8.751
 2271POPC   D2A30976   8.095  33.927   8.375
 2271POPC   C3A30977   8.299  33.642   8.082
 2271POPC   C4A30978   8.196  33.622   7.647
 2271POPC   C1B30979   8.692  34.186   8.678
 2271POPC   C2B30980   8.606  34.045   8.276
 2271POPC   C3B30981   8.278  34.142   7.950
 2271POPC   C4B30982   8.363  34.092   7.529
 2272POPC   NC330983  29.922   7.302   9.849
 2272POPC   PO430984  29.788   7.713   9.334
 2272POPC   GL130985  29.802   7.345   9.110
 2272POPC   GL230986  30.129   7.177   9.074
 2272POPC   C1A30987  29.830   7.277   8.663
 2272POPC   D2A30988  29.935   7.407   8.279
 2272POPC   C3A30989  29.561   7.489   8.037
 2272POPC   C4A30990  29.422   7.895   7.886
 2272POPC   C1B30991  30.167   6.895   8.736
 2272POPC   C2B30992  30.146   6.841   8.312
 2272POPC   C3B30993  30.239   7.128   8.014
 2272POPC   C4B30994  29.949   7.359   7.742
 2273POPC   NC330995   5.586  21.619   9.637
 2273POPC   PO430996   6.144  21.568   9.362
 2273POPC   GL130997   5.915  21.188   9.192
 2273POPC   GL230998   5.620  21.343   9.215
 2273POPC   C1A30999   5.767  21.178   8.743
 2273POPC   D2A31000   5.907  21.558   8.483
 2273POPC   C3A31001   6.074  21.430   8.090
 2273POPC   C4A31002   5.870  21.376   7.708
 2273POPC   C1B31003   5.559  21.641   8.887
 2273POPC   C2B31004   5.381  21.532   8.508
 2273POPC   C3B31005   5.571  21.339   8.157
 2273POPC   C4B31006   5.388  21.489   7.808
 2274POPC   NC331007  40.461   1.236   9.273
 2274POPC   PO431008  39.869   1.278   9.601
 2274POPC   GL131009  39.768   1.190   9.156
 2274POPC   GL231010  39.814   0.825   9.164
 2274POPC   C1A31011  39.724   1.412   8.751
 2274POPC   D2A31012  39.867   1.593   8.352
 2274POPC   C3A31013  40.063   1.296   8.113
 2274POPC   C4A31014  40.051   1.209   7.687
 2274POPC   C1B31015  40.035   0.982   8.776
 2274POPC   C2B31016  40.030   0.827   8.355
 2274POPC   C3B31017  40.262   0.831   7.992
 2274POPC   C4B31018  40.506   0.954   7.656
 2275POPC   NC331019  17.562  14.638   9.535
 2275POPC   PO431020  17.292  14.046   9.780
 2275POPC   GL131021  17.508  14.224   9.283
 2275POPC   GL231022  17.810  14.245   9.194
 2275POPC   C1A31023  17.402  14.246   8.800
 2275POPC   D2A31024  17.559  14.303   8.361
 2275POPC   C3A31025  17.485  14.081   7.962
 2275POPC   C4A31026  17.344  14.458   7.807
 2275POPC   C1B31027  17.885  14.483   8.784
 2275POPC   C2B31028  18.049  14.450   8.341
 2275POPC   C3B31029  17.834  14.510   7.941
 2275POPC   C4B31030  17.737  14.404   7.501
 2276POPC   NC331031  31.194  44.585   9.457
 2276POPC   PO431032  31.779  44.240   9.335
 2276POPC   GL131033  31.581  44.559   9.078
 2276POPC   GL231034  31.284  44.783   8.994
 2276POPC   C1A31035  31.580  44.482   8.700
 2276POPC   D2A31036  31.520  44.304   8.397
 2276POPC   C3A31037  31.706  44.556   8.119
 2276POPC   C4A31038  31.672  44.476   7.709
 2276POPC   C1B31039  31.090  44.587   8.653
 2276POPC   C2B31040  31.205  44.657   8.248
 2276POPC   C3B31041  31.270  44.746   7.836
 2276POPC   C4B31042  31.332  44.805   7.410
 2277POPC   NC331043  31.535  18.709   9.379
 2277POPC   PO431044  31.108  19.190   9.654
 2277POPC   GL131045  31.421  19.269   9.237
 2277POPC   GL231046  31.174  19.369   8.982
 2277POPC   C1A31047  31.647  19.115   8.823
 2277POPC   D2A31048  31.863  19.225   8.421
 2277POPC   C3A31049  31.613  19.215   8.053
 2277POPC   C4A31050  31.460  18.850   7.815
 2277POPC   C1B31051  31.275  19.425   8.562
 2277POPC   C2B31052  31.129  19.223   8.192
 2277POPC   C3B31053  31.139  19.243   7.746
 2277POPC   C4B31054  30.896  19.338   7.374
 2278POPC   NC331055  33.754  23.475   9.576
 2278POPC   PO431056  34.134  24.065   9.587
 2278POPC   GL131057  34.018  23.830   9.203
 2278POPC   GL231058  33.690  23.747   9.149
 2278POPC   C1A31059  34.030  23.732   8.744
 2278POPC   D2A31060  33.755  23.744   8.360
 2278POPC   C3A31061  33.985  23.827   8.003
 2278POPC   C4A31062  34.048  23.827   7.574
 2278POPC   C1B31063  33.566  23.536   8.822
 2278POPC   C2B31064  33.546  23.296   8.439
 2278POPC   C3B31065  33.729  23.316   8.057
 2278POPC   C4B31066  33.580  23.582   7.778
 2279POPC   NC331067  17.750   0.861   9.577
 2279POPC   PO431068  17.873   0.201   9.528
 2279POPC   GL131069  17.568   0.363   9.214
 2279POPC   GL231070  17.376   0.060   9.101
 2279POPC   C1A31071  17.404   0.528   8.852
 2279POPC   D2A31072  17.618   0.604   8.446
 2279POPC   C3A31073  17.458   0.561   8.043
 2279POPC   C4A31074  17.295   0.636   7.663
 2279POPC   C1B31075  17.526   0.041   8.709
 2279POPC   C2B31076  17.384   0.139   8.328
 2279POPC   C3B31077  17.578   0.039   7.982
 2279POPC   C4B31078  17.694   0.287   7.663
 2280POPC   NC331079   4.747   7.441   9.355
 2280POPC   PO431080   5.321   7.049   9.529
 2280POPC   GL131081   5.140   7.153   9.170
 2280POPC   GL231082   5.190   7.476   9.103
 2280POPC   C1A31083   4.942   7.123   8.786
 2280POPC   D2A31084   4.844   7.427   8.471
 2280POPC   C3A31085   4.799   7.257   8.069
 2280POPC   C4A31086   5.040   7.141   7.709
 2280POPC   C1B31087   5.443   7.599   8.802
 2280POPC   C2B31088   5.296   7.722   8.430
 2280POPC   C3B31089   5.482   7.724   8.073
 2280POPC   C4B31090   5.234   7.635   7.710
 2281POPC   NC331091  35.250  22.490   9.543
 2281POPC   PO431092  35.068  23.134   9.395
 2281POPC   GL131093  35.357  22.891   9.162
 2281POPC   GL231094  35.699  22.753   9.272
 2281POPC   C1A31095  35.269  22.974   8.740
 2281POPC   D2A31096  35.049  22.793   8.434
 2281POPC   C3A31097  35.192  23.015   8.137
 2281POPC   C4A31098  35.251  22.990   7.741
 2281POPC   C1B31099  35.750  22.825   8.821
 2281POPC   C2B31100  35.574  22.692   8.421
 2281POPC   C3B31101  35.654  22.794   7.992
 2281POPC   C4B31102  35.777  23.039   7.628
 2282POPC   NC331103  41.644   7.534   9.556
 2282POPC   PO431104  41.357   6.831   9.522
 2282POPC   GL131105  41.390   7.214   9.190
 2282POPC   GL231106  41.499   7.608   9.104
 2282POPC   C1A31107  41.553   7.275   8.760
 2282POPC   D2A31108  41.426   7.278   8.373
 2282POPC   C3A31109  41.601   7.011   8.094
 2282POPC   C4A31110  41.466   7.152   7.719
 2282POPC   C1B31111  41.789   7.826   8.797
 2282POPC   C2B31112  41.698   7.720   8.380
 2282POPC   C3B31113  41.497   7.641   7.973
 2282POPC   C4B31114  41.679   7.750   7.554
 2283POPC   NC331115  30.452   6.552   9.566
 2283POPC   PO431116  31.120   6.493   9.670
 2283POPC   GL131117  30.886   6.632   9.266
 2283POPC   GL231118  30.579   6.905   9.210
 2283POPC   C1A31119  30.909   6.806   8.835
 2283POPC   D2A31120  31.110   6.757   8.437
 2283POPC   C3A31121  31.049   6.718   8.032
 2283POPC   C4A31122  30.975   6.889   7.646
 2283POPC   C1B31123  30.475   6.537   8.922
 2283POPC   C2B31124  30.378   6.437   8.518
 2283POPC   C3B31125  30.573   6.597   8.169
 2283POPC   C4B31126  30.673   6.430   7.794
 2284POPC   NC331127   9.551  15.388   9.600
 2284POPC   PO431128   9.609  14.744   9.381
 2284POPC   GL131129   9.821  15.091   9.142
 2284POPC   GL231130   9.630  15.431   9.091
 2284POPC   C1A31131   9.865  15.143   8.678
 2284POPC   D2A31132   9.606  15.088   8.297
 2284POPC   C3A31133   9.761  14.908   7.908
 2284POPC   C4A31134   9.666  15.087   7.478
 2284POPC   C1B31135  10.075  15.525   8.975
 2284POPC   C2B31136  10.168  15.545   8.555
 2284POPC   C3B31137  10.077  15.320   8.197
 2284POPC   C4B31138  10.037  15.303   7.773
 2285POPC   NC331139   2.279  41.391   9.603
 2285POPC   PO431140   1.713  41.579   9.406
 2285POPC   GL131141   1.845  41.627   9.028
 2285POPC   GL231142   1.966  41.285   8.983
 2285POPC   C1A31143   1.993  41.688   8.630
 2285POPC   D2A31144   2.344  41.592   8.432
 2285POPC   C3A31145   2.251  41.607   8.032
 2285POPC   C4A31146   2.078  41.718   7.634
 2285POPC   C1B31147   1.687  41.275   8.628
 2285POPC   C2B31148   1.771  41.442   8.209
 2285POPC   C3B31149   1.622  41.632   7.825
 2285POPC   C4B31150   1.725  41.432   7.416
 2286POPC   NC331151  22.606  17.286   9.303
 2286POPC   PO431152  22.029  17.275   9.622
 2286POPC   GL131153  22.130  17.344   9.176
 2286POPC   GL231154  21.819  17.390   9.140
 2286POPC   C1A31155  22.327  17.416   8.731
 2286POPC   D2A31156  22.280  17.645   8.345
 2286POPC   C3A31157  22.300  17.360   7.996
 2286POPC   C4A31158  22.421  17.440   7.541
 2286POPC   C1B31159  21.913  17.701   8.844
 2286POPC   C2B31160  21.751  17.598   8.491
 2286POPC   C3B31161  21.849  17.646   8.066
 2286POPC   C4B31162  21.924  17.508   7.672
 2287POPC   NC331163  40.118   8.402   9.427
 2287POPC   PO431164  39.689   7.820   9.406
 2287POPC   GL131165  39.931   8.008   9.039
 2287POPC   GL231166  40.097   8.333   8.942
 2287POPC   C1A31167  39.778   8.143   8.624
 2287POPC   D2A31168  40.041   8.290   8.296
 2287POPC   C3A31169  39.868   8.012   8.004
 2287POPC   C4A31170  39.786   8.166   7.601
 2287POPC   C1B31171  40.304   8.027   8.665
 2287POPC   C2B31172  40.260   7.805   8.311
 2287POPC   C3B31173  40.378   8.006   7.950
 2287POPC   C4B31174  40.282   8.190   7.553
 2288POPC   NC331175  10.413  29.631   9.953
 2288POPC   PO431176  10.783  29.774   9.444
 2288POPC   GL131177  10.554  29.841   9.107
 2288POPC   GL231178  10.251  29.985   9.213
 2288POPC   C1A31179  10.519  29.693   8.707
 2288POPC   D2A31180  10.683  29.758   8.339
 2288POPC   C3A31181  10.538  29.572   8.008
 2288POPC   C4A31182  10.796  29.707   7.681
 2288POPC   C1B31183  10.064  29.867   8.795
 2288POPC   C2B31184  10.178  29.798   8.329
 2288POPC   C3B31185  10.206  29.964   7.873
 2288POPC   C4B31186  10.098  30.035   7.399
 2289POPC   NC331187   0.059   0.090   9.512
 2289POPC   PO431188  44.450   0.505   9.540
 2289POPC   GL131189  44.663   0.585   9.115
 2289POPC   GL231190  44.775   0.248   8.999
 2289POPC   C1A31191  44.530   0.543   8.676
 2289POPC   D2A31192  44.700   0.167   8.464
 2289POPC   C3A31193  44.663   0.302   8.067
 2289POPC   C4A31194  44.502   0.739   7.967
 2289POPC   C1B31195   0.019   0.527   8.682
 2289POPC   C2B31196  44.876   0.702   8.331
 2289POPC   C3B31197   0.000   0.651   7.932
 2289POPC   C4B31198   0.056   0.238   7.739
 2290POPC   NC331199   8.382   7.656   9.442
 2290POPC   PO431200   7.957   7.152   9.563
 2290POPC   GL131201   8.226   7.236   9.188
 2290POPC   GL231202   8.567   7.370   9.038
 2290POPC   C1A31203   8.059   7.369   8.802
 2290POPC   D2A31204   8.193   7.349   8.413
 2290POPC   C3A31205   7.959   7.550   8.073
 2290POPC   C4A31206   8.268   7.453   7.807
 2290POPC   C1B31207   8.437   7.017   8.777
 2290POPC   C2B31208   8.368   6.864   8.374
 2290POPC   C3B31209   8.488   7.048   8.023
 2290POPC   C4B31210   8.461   6.898   7.639
 2291POPC   NC331211  35.592  12.163   9.485
 2291POPC   PO431212  35.000  12.609   9.470
 2291POPC   GL131213  35.107  12.240   9.213
 2291POPC   GL231214  35.402  12.493   9.157
 2291POPC   C1A31215  35.004  11.937   8.826
 2291POPC   D2A31216  35.216  11.739   8.473
 2291POPC   C3A31217  35.216  11.965   8.036
 2291POPC   C4A31218  35.110  12.205   7.620
 2291POPC   C1B31219  35.440  12.208   8.826
 2291POPC   C2B31220  35.296  12.277   8.444
 2291POPC   C3B31221  35.391  12.461   8.072
 2291POPC   C4B31222  35.665  12.259   7.835
 2292POPC   NC331223  29.751  26.028   9.506
 2292POPC   PO431224  30.304  26.326   9.393
 2292POPC   GL131225  30.051  26.094   9.068
 2292POPC   GL231226  29.697  25.970   9.006
 2292POPC   C1A31227  30.222  25.966   8.683
 2292POPC   D2A31228  30.355  25.726   8.343
 2292POPC   C3A31229  30.071  25.803   8.041
 2292POPC   C4A31230  30.031  26.229   7.824
 2292POPC   C1B31231  29.491  26.037   8.592
 2292POPC   C2B31232  29.421  26.349   8.252
 2292POPC   C3B31233  29.537  26.309   7.836
 2292POPC   C4B31234  29.656  25.895   7.753
 2293POPC   NC331235  19.241  28.852   9.492
 2293POPC   PO431236  18.856  29.363   9.469
 2293POPC   GL131237  18.975  29.078   9.112
 2293POPC   GL231238  19.359  29.163   9.091
 2293POPC   C1A31239  18.752  29.044   8.695
 2293POPC   D2A31240  18.582  29.127   8.278
 2293POPC   C3A31241  18.769  28.997   7.892
 2293POPC   C4A31242  18.917  29.213   7.531
 2293POPC   C1B31243  19.245  28.975   8.675
 2293POPC   C2B31244  19.099  28.864   8.259
 2293POPC   C3B31245  19.233  28.860   7.796
 2293POPC   C4B31246  19.295  28.944   7.325
 2294POPC   NC331247   5.363  29.859   9.498
 2294POPC   PO431248   4.740  29.795   9.324
 2294POPC   GL131249   4.913  30.005   8.995
 2294POPC   GL231250   5.270  30.076   9.048
 2294POPC   C1A31251   5.008  29.794   8.627
 2294POPC   D2A31252   4.819  29.460   8.409
 2294POPC   C3A31253   4.808  29.749   8.083
 2294POPC   C4A31254   4.991  29.810   7.693
 2294POPC   C1B31255   5.293  30.216   8.625
 2294POPC   C2B31256   5.040  30.225   8.249
 2294POPC   C3B31257   5.108  30.285   7.809
 2294POPC   C4B31258   5.399  30.039   7.538
 2295POPC   NC331259  37.914  41.911   9.578
 2295POPC   PO431260  37.406  42.410   9.526
 2295POPC   GL131261  37.670  42.433   9.172
 2295POPC   GL231262  37.897  42.150   9.112
 2295POPC   C1A31263  37.470  42.294   8.800
 2295POPC   D2A31264  37.487  42.487   8.418
 2295POPC   C3A31265  37.506  42.266   8.016
 2295POPC   C4A31266  37.253  42.476   7.741
 2295POPC   C1B31267  37.956  42.398   8.699
 2295POPC   C2B31268  37.960  42.368   8.223
 2295POPC   C3B31269  37.949  42.325   7.752
 2295POPC   C4B31270  38.099  42.189   7.323
 2296POPC   NC331271  26.290  39.043   9.510
 2296POPC   PO431272  25.776  39.397   9.735
 2296POPC   GL131273  25.888  39.342   9.225
 2296POPC   GL231274  25.952  39.592   9.039
 2296POPC   C1A31275  25.994  39.194   8.755
 2296POPC   D2A31276  26.070  39.455   8.362
 2296POPC   C3A31277  26.192  39.179   8.010
 2296POPC   C4A31278  26.120  39.098   7.561
 2296POPC   C1B31279  25.678  39.612   8.683
 2296POPC   C2B31280  25.606  39.827   8.305
 2296POPC   C3B31281  25.565  39.665   7.903
 2296POPC   C4B31282  25.934  39.563   7.654
 2297POPC   NC331283  18.101  40.303   9.549
 2297POPC   PO431284  18.585  39.796   9.487
 2297POPC   GL131285  18.345  39.811   9.131
 2297POPC   GL231286  18.288  40.137   9.128
 2297POPC   C1A31287  18.212  39.898   8.703
 2297POPC   D2A31288  18.004  40.034   8.359
 2297POPC   C3A31289  18.203  39.807   8.059
 2297POPC   C4A31290  18.340  39.574   7.682
 2297POPC   C1B31291  18.505  40.380   8.810
 2297POPC   C2B31292  18.467  40.226   8.403
 2297POPC   C3B31293  18.304  40.320   8.024
 2297POPC   C4B31294  18.615  40.348   7.752
 2298POPC   NC331295  29.877  13.135   9.753
 2298POPC   PO431296  29.759  13.705   9.316
 2298POPC   GL131297  29.571  13.560   9.019
 2298POPC   GL231298  29.608  13.819   8.809
 2298POPC   C1A31299  29.711  13.349   8.671
 2298POPC   D2A31300  29.793  13.530   8.285
 2298POPC   C3A31301  29.816  13.211   7.984
 2298POPC   C4A31302  29.860  13.218   7.529
 2298POPC   C1B31303  30.060  13.746   8.730
 2298POPC   C2B31304  30.349  13.951   8.449
 2298POPC   C3B31305  30.188  14.020   8.035
 2298POPC   C4B31306  29.982  13.657   7.792
 2299POPC   NC331307  12.651  38.820   9.561
 2299POPC   PO431308  12.494  38.224   9.415
 2299POPC   GL131309  12.726  38.467   9.096
 2299POPC   GL231310  13.058  38.620   9.198
 2299POPC   C1A31311  12.580  38.547   8.646
 2299POPC   D2A31312  12.494  38.603   8.194
 2299POPC   C3A31313  12.765  38.311   7.972
 2299POPC   C4A31314  13.192  38.308   7.766
 2299POPC   C1B31315  13.144  38.536   8.724
 2299POPC   C2B31316  13.213  38.578   8.239
 2299POPC   C3B31317  12.988  38.755   7.900
 2299POPC   C4B31318  12.608  38.705   7.687
 2300POPC   NC331319   8.919  19.315   9.504
 2300POPC   PO431320   9.417  18.861   9.434
 2300POPC   GL131321   9.119  18.988   9.104
 2300POPC   GL231322   8.825  18.888   9.228
 2300POPC   C1A31323   9.078  19.329   8.762
 2300POPC   D2A31324   8.951  19.483   8.311
 2300POPC   C3A31325   9.141  19.233   7.982
 2300POPC   C4A31326   9.254  18.887   7.719
 2300POPC   C1B31327   8.676  18.927   8.801
 2300POPC   C2B31328   8.898  18.982   8.425
 2300POPC   C3B31329   8.707  18.965   8.042
 2300POPC   C4B31330   8.742  18.799   7.650
 2301POPC   NC331331  43.204   6.472   9.516
 2301POPC   PO431332  42.864   7.130   9.432
 2301POPC   GL131333  43.022   6.793   9.179
 2301POPC   GL231334  42.783   6.507   9.127
 2301POPC   C1A31335  43.227   6.541   8.834
 2301POPC   D2A31336  43.112   6.343   8.432
 2301POPC   C3A31337  43.392   6.448   8.069
 2301POPC   C4A31338  43.366   6.495   7.582
 2301POPC   C1B31339  42.802   6.812   8.741
 2301POPC   C2B31340  43.189   7.005   8.556
 2301POPC   C3B31341  43.274   6.974   8.130
 2301POPC   C4B31342  42.991   6.704   7.885
 2302POPC   NC331343  23.888   2.560   9.408
 2302POPC   PO431344  23.328   2.796   9.626
 2302POPC   GL131345  23.560   2.938   9.179
 2302POPC   GL231346  23.689   2.662   8.944
 2302POPC   C1A31347  23.727   3.094   8.714
 2302POPC   D2A31348  23.634   3.116   8.251
 2302POPC   C3A31349  23.721   2.796   7.924
 2302POPC   C4A31350  23.614   2.359   7.869
 2302POPC   C1B31351  24.042   2.632   8.727
 2302POPC   C2B31352  24.037   2.764   8.356
 2302POPC   C3B31353  24.143   2.507   8.010
 2302POPC   C4B31354  24.029   2.507   7.592
 2303POPC   NC331355  24.562  43.464   9.326
 2303POPC   PO431356  24.366  43.967   9.767
 2303POPC   GL131357  24.360  44.080   9.312
 2303POPC   GL231358  24.645  43.977   9.220
 2303POPC   C1A31359  24.245  43.985   8.858
 2303POPC   D2A31360  24.068  44.211   8.520
 2303POPC   C3A31361  24.261  44.007   8.189
 2303POPC   C4A31362  24.433  43.767   7.877
 2303POPC   C1B31363  24.773  43.929   8.777
 2303POPC   C2B31364  24.747  43.748   8.345
 2303POPC   C3B31365  24.874  43.542   7.932
 2303POPC   C4B31366  24.737  43.669   7.486
 2304POPC   NC331367  19.586   0.733   9.419
 2304POPC   PO431368  20.068   0.368   9.431
 2304POPC   GL131369  19.932   0.534   9.100
 2304POPC   GL231370  19.698   0.241   9.044
 2304POPC   C1A31371  19.805   0.615   8.712
 2304POPC   D2A31372  19.456   0.558   8.471
 2304POPC   C3A31373  19.639   0.447   8.126
 2304POPC   C4A31374  19.661   0.437   7.732
 2304POPC   C1B31375  20.084   0.184   8.778
 2304POPC   C2B31376  20.087   0.343   8.372
 2304POPC   C3B31377  20.132   0.420   7.954
 2304POPC   C4B31378  20.248   0.105   7.727
 2305POPC   NC331379  28.143  15.321   9.573
 2305POPC   PO431380  28.756  14.841   9.503
 2305POPC   GL131381  28.511  15.138   9.242
 2305POPC   GL231382  28.165  14.987   9.176
 2305POPC   C1A31383  28.354  15.342   8.850
 2305POPC   D2A31384  28.351  15.231   8.416
 2305POPC   C3A31385  28.170  15.424   8.038
 2305POPC   C4A31386  28.392  15.207   7.679
 2305POPC   C1B31387  28.015  14.941   8.752
 2305POPC   C2B31388  28.039  14.792   8.325
 2305POPC   C3B31389  27.991  14.974   7.919
 2305POPC   C4B31390  27.955  14.979   7.459
 2306POPC   NC331391  26.945  13.515   9.434
 2306POPC   PO431392  26.293  13.906   9.472
 2306POPC   GL131393  26.504  13.646   9.193
 2306POPC   GL231394  26.753  13.898   9.163
 2306POPC   C1A31395  26.633  13.506   8.778
 2306POPC   D2A31396  26.483  13.294   8.371
 2306POPC   C3A31397  26.678  13.453   7.997
 2306POPC   C4A31398  26.661  13.721   7.692
 2306POPC   C1B31399  26.870  13.983   8.763
 2306POPC   C2B31400  26.736  13.817   8.372
 2306POPC   C3B31401  26.978  13.898   8.031
 2306POPC   C4B31402  26.983  14.136   7.651
 2307POPC   NC331403  20.688  44.412   9.505
 2307POPC   PO431404  20.273  44.894   9.707
 2307POPC   GL131405  20.425  44.912   9.268
 2307POPC   GL231406  20.474  44.596   9.103
 2307POPC   C1A31407  20.690  44.990   8.878
 2307POPC   D2A31408  20.684  44.769   8.478
 2307POPC   C3A31409  20.567   0.037   8.137
 2307POPC   C4A31410  20.675  44.866   7.730
 2307POPC   C1B31411  20.263  44.710   8.770
 2307POPC   C2B31412  20.162  44.823   8.382
 2307POPC   C3B31413  20.374  44.560   8.108
 2307POPC   C4B31414  20.329  44.482   7.718
 2308POPC   NC331415   0.178  40.668   9.565
 2308POPC   PO431416   0.771  40.572   9.406
 2308POPC   GL131417   0.443  40.649   9.097
 2308POPC   GL231418   0.232  40.998   9.170
 2308POPC   C1A31419   0.654  40.706   8.693
 2308POPC   D2A31420   0.606  40.888   8.307
 2308POPC   C3A31421   0.677  40.716   7.930
 2308POPC   C4A31422   0.589  41.105   7.686
 2308POPC   C1B31423   0.289  41.069   8.761
 2308POPC   C2B31424   0.078  40.966   8.397
 2308POPC   C3B31425   0.192  40.926   7.959
 2308POPC   C4B31426   0.127  41.008   7.500
 2309POPC   NC331427   3.913  15.968   9.564
 2309POPC   PO431428   4.569  15.870   9.542
 2309POPC   GL131429   4.423  16.106   9.165
 2309POPC   GL231430   4.043  16.096   9.083
 2309POPC   C1A31431   4.486  15.964   8.733
 2309POPC   D2A31432   4.445  16.139   8.313
 2309POPC   C3A31433   4.320  15.831   7.990
 2309POPC   C4A31434   4.595  15.751   7.655
 2309POPC   C1B31435   3.839  16.323   8.737
 2309POPC   C2B31436   3.873  16.182   8.323
 2309POPC   C3B31437   4.069  16.289   7.957
 2309POPC   C4B31438   4.002  16.031   7.588
 2310POPC   NC331439  18.404   4.946   9.542
 2310POPC   PO431440  17.748   5.075   9.304
 2310POPC   GL131441  18.104   4.929   9.126
 2310POPC   GL231442  18.282   5.236   9.136
 2310POPC   C1A31443  18.211   4.948   8.700
 2310POPC   D2A31444  17.972   5.169   8.385
 2310POPC   C3A31445  18.110   4.973   8.028
 2310POPC   C4A31446  18.374   4.935   7.677
 2310POPC   C1B31447  18.502   5.377   8.789
 2310POPC   C2B31448  18.442   5.547   8.380
 2310POPC   C3B31449  18.486   5.339   7.970
 2310POPC   C4B31450  18.518   5.406   7.507
 2311POPC   NC331451  33.353  22.593   9.328
 2311POPC   PO431452  32.991  22.071   9.579
 2311POPC   GL131453  32.962  21.877   9.174
 2311POPC   GL231454  32.961  22.212   9.016
 2311POPC   C1A31455  33.117  21.830   8.739
 2311POPC   D2A31456  33.095  22.097   8.335
 2311POPC   C3A31457  32.923  22.019   7.883
 2311POPC   C4A31458  32.628  22.026   7.490
 2311POPC   C1B31459  33.368  22.275   8.756
 2311POPC   C2B31460  33.600  22.358   8.405
 2311POPC   C3B31461  33.386  22.453   8.073
 2311POPC   C4B31462  33.300  22.308   7.713
 2312POPC   NC331463   7.225  30.103   9.293
 2312POPC   PO431464   6.712  30.107   9.734
 2312POPC   GL131465   6.698  29.990   9.273
 2312POPC   GL231466   6.828  29.648   9.142
 2312POPC   C1A31467   6.752  30.094   8.827
 2312POPC   D2A31468   6.855  30.025   8.379
 2312POPC   C3A31469   6.550  30.215   8.081
 2312POPC   C4A31470   6.627  30.195   7.652
 2312POPC   C1B31471   6.681  29.614   8.686
 2312POPC   C2B31472   6.774  29.510   8.257
 2312POPC   C3B31473   6.686  29.691   7.827
 2312POPC   C4B31474   6.616  29.711   7.356
 2313POPC   NC331475  36.905   0.602   9.405
 2313POPC   PO431476  37.347   0.171   9.353
 2313POPC   GL131477  37.104   0.091   9.029
 2313POPC   GL231478  37.028   0.383   8.966
 2313POPC   C1A31479  37.267   0.057   8.627
 2313POPC   D2A31480  37.161   0.427   8.414
 2313POPC   C3A31481  36.796   0.431   8.174
 2313POPC   C4A31482  36.763   0.186   7.771
 2313POPC   C1B31483  36.840   0.677   8.733
 2313POPC   C2B31484  37.046   0.932   8.458
 2313POPC   C3B31485  37.109   0.850   8.076
 2313POPC   C4B31486  36.823   0.722   7.764
 2314POPC   NC331487  42.632  35.138   9.500
 2314POPC   PO431488  42.307  35.750   9.588
 2314POPC   GL131489  42.259  35.456   9.209
 2314POPC   GL231490  42.126  35.103   9.114
 2314POPC   C1A31491  42.369  35.397   8.772
 2314POPC   D2A31492  42.550  35.658   8.457
 2314POPC   C3A31493  42.484  35.498   8.042
 2314POPC   C4A31494  42.516  35.357   7.575
 2314POPC   C1B31495  41.903  35.147   8.713
 2314POPC   C2B31496  42.074  35.252   8.311
 2314POPC   C3B31497  42.129  35.164   7.874
 2314POPC   C4B31498  42.008  35.347   7.443
 2315POPC   NC331499  37.042  18.300   9.557
 2315POPC   PO431500  36.374  18.045   9.693
 2315POPC   GL131501  36.685  18.070   9.311
 2315POPC   GL231502  36.640  18.451   9.270
 2315POPC   C1A31503  36.930  18.260   8.907
 2315POPC   D2A31504  36.875  18.552   8.536
 2315POPC   C3A31505  36.840  18.331   8.156
 2315POPC   C4A31506  37.146  18.309   7.829
 2315POPC   C1B31507  36.465  18.460   8.817
 2315POPC   C2B31508  36.364  18.404   8.383
 2315POPC   C3B31509  36.458  18.722   8.085
 2315POPC   C4B31510  36.820  18.712   7.781
 2316POPC   NC331511  21.575  36.557   9.577
 2316POPC   PO431512  21.197  35.947   9.655
 2316POPC   GL131513  21.206  36.000   9.199
 2316POPC   GL231514  21.368  36.335   9.173
 2316POPC   C1A31515  21.514  35.970   8.864
 2316POPC   D2A31516  21.575  35.853   8.458
 2316POPC   C3A31517  21.350  36.061   8.143
 2316POPC   C4A31518  21.513  35.936   7.766
 2316POPC   C1B31519  21.499  36.521   8.777
 2316POPC   C2B31520  21.274  36.614   8.393
 2316POPC   C3B31521  21.119  36.521   8.004
 2316POPC   C4B31522  21.451  36.430   7.722
 2317POPC   NC331523  28.418   7.951   9.512
 2317POPC   PO431524  27.939   8.509   9.594
 2317POPC   GL131525  28.288   8.431   9.224
 2317POPC   GL231526  28.327   8.076   9.037
 2317POPC   C1A31527  28.542   8.454   8.808
 2317POPC   D2A31528  28.344   8.181   8.506
 2317POPC   C3A31529  28.411   8.281   8.080
 2317POPC   C4A31530  28.096   8.166   7.770
 2317POPC   C1B31531  28.583   7.784   8.807
 2317POPC   C2B31532  28.670   7.638   8.405
 2317POPC   C3B31533  28.615   7.824   8.019
 2317POPC   C4B31534  28.379   7.738   7.727
 2318POPC   NC331535  10.034  18.313   9.522
 2318POPC   PO431536   9.463  17.980   9.373
 2318POPC   GL131537   9.657  18.146   9.047
 2318POPC   GL231538   9.764  18.461   9.131
 2318POPC   C1A31539   9.605  18.291   8.661
 2318POPC   D2A31540   9.553  18.330   8.246
 2318POPC   C3A31541   9.652  18.014   7.993
 2318POPC   C4A31542   9.320  17.869   7.759
 2318POPC   C1B31543  10.006  18.614   8.820
 2318POPC   C2B31544   9.934  18.633   8.422
 2318POPC   C3B31545  10.150  18.580   8.066
 2318POPC   C4B31546  10.093  18.471   7.689
 2319POPC   NC331547  18.353  20.419   9.625
 2319POPC   PO431548  18.473  19.712   9.748
 2319POPC   GL131549  18.411  19.864   9.317
 2319POPC   GL231550  18.644  20.050   9.182
 2319POPC   C1A31551  18.207  19.859   8.900
 2319POPC   D2A31552  18.158  19.625   8.481
 2319POPC   C3A31553  18.075  19.795   8.038
 2319POPC   C4A31554  18.244  19.648   7.625
 2319POPC   C1B31555  18.666  19.972   8.749
 2319POPC   C2B31556  18.443  20.029   8.346
 2319POPC   C3B31557  18.601  19.854   7.945
 2319POPC   C4B31558  18.648  19.969   7.496
 2320POPC   NC331559  15.983  44.159   9.483
 2320POPC   PO431560  16.188  43.453   9.612
 2320POPC   GL131561  15.999  43.552   9.203
 2320POPC   GL231562  16.143  43.866   9.102
 2320POPC   C1A31563  15.809  43.631   8.793
 2320POPC   D2A31564  16.012  43.741   8.422
 2320POPC   C3A31565  15.857  43.541   8.068
 2320POPC   C4A31566  15.661  43.724   7.731
 2320POPC   C1B31567  16.401  43.984   8.728
 2320POPC   C2B31568  16.435  44.068   8.306
 2320POPC   C3B31569  16.367  44.147   7.892
 2320POPC   C4B31570  16.106  43.949   7.625
 2321POPC   NC331571   5.843  26.337   9.541
 2321POPC   PO431572   6.365  26.031   9.491
 2321POPC   GL131573   5.985  25.948   9.190
 2321POPC   GL231574   5.788  26.246   9.048
 2321POPC   C1A31575   5.878  25.894   8.723
 2321POPC   D2A31576   5.912  26.150   8.368
 2321POPC   C3A31577   5.764  25.954   7.994
 2321POPC   C4A31578   6.011  25.895   7.632
 2321POPC   C1B31579   5.497  26.282   8.689
 2321POPC   C2B31580   5.386  26.006   8.369
 2321POPC   C3B31581   5.290  26.113   7.954
 2321POPC   C4B31582   5.581  26.224   7.600
 2322POPC   NC331583  14.274   4.715   9.588
 2322POPC   PO431584  14.607   5.352   9.515
 2322POPC   GL131585  14.498   5.470   9.133
 2322POPC   GL231586  14.136   5.391   9.151
 2322POPC   C1A31587  14.488   5.276   8.725
 2322POPC   D2A31588  14.227   5.254   8.361
 2322POPC   C3A31589  14.374   5.134   7.955
 2322POPC   C4A31590  14.499   5.331   7.588
 2322POPC   C1B31591  13.905   5.210   8.775
 2322POPC   C2B31592  13.691   5.293   8.376
 2322POPC   C3B31593  13.870   5.304   7.961
 2322POPC   C4B31594  13.825   4.979   7.612
 2323POPC   NC331595  41.472  32.407   9.468
 2323POPC   PO431596  42.051  32.705   9.582
 2323POPC   GL131597  41.932  32.367   9.178
 2323POPC   GL231598  41.616  32.095   9.126
 2323POPC   C1A31599  41.838  32.192   8.716
 2323POPC   D2A31600  41.645  32.302   8.382
 2323POPC   C3A31601  41.757  32.132   7.998
 2323POPC   C4A31602  41.672  32.292   7.616
 2323POPC   C1B31603  41.324  32.003   8.790
 2323POPC   C2B31604  41.149  32.106   8.383
 2323POPC   C3B31605  41.259  32.222   8.017
 2323POPC   C4B31606  41.333  31.958   7.730
 2324POPC   NC331607  40.905  14.136   9.772
 2324POPC   PO431608  40.667  13.576   9.829
 2324POPC   GL131609  40.608  13.721   9.376
 2324POPC   GL231610  40.759  13.441   9.167
 2324POPC   C1A31611  40.490  13.777   8.907
 2324POPC   D2A31612  40.764  13.754   8.525
 2324POPC   C3A31613  40.542  13.702   8.152
 2324POPC   C4A31614  40.613  13.592   7.731
 2324POPC   C1B31615  41.079  13.575   8.900
 2324POPC   C2B31616  41.221  13.478   8.485
 2324POPC   C3B31617  41.006  13.477   8.113
 2324POPC   C4B31618  41.122  13.708   7.747
 2325POPC   NC331619  36.040  26.342   9.660
 2325POPC   PO431620  35.972  25.637   9.532
 2325POPC   GL131621  36.198  26.008   9.263
 2325POPC   GL231622  36.024  26.354   9.127
 2325POPC   C1A31623  36.285  26.025   8.809
 2325POPC   D2A31624  36.061  26.133   8.427
 2325POPC   C3A31625  36.237  26.030   8.018
 2325POPC   C4A31626  35.920  25.924   7.712
 2325POPC   C1B31627  36.261  26.544   8.757
 2325POPC   C2B31628  36.437  26.466   8.353
 2325POPC   C3B31629  36.324  26.567   7.942
 2325POPC   C4B31630  36.179  26.342   7.594
 2326POPC   NC331631  12.864  29.868   9.523
 2326POPC   PO431632  12.567  30.404   9.714
 2326POPC   GL131633  12.752  30.258   9.220
 2326POPC   GL231634  12.664  29.951   9.044
 2326POPC   C1A31635  12.975  30.254   8.784
 2326POPC   D2A31636  13.032  30.006   8.376
 2326POPC   C3A31637  12.962  30.235   7.978
 2326POPC   C4A31638  12.610  30.340   7.673
 2326POPC   C1B31639  12.855  29.684   8.756
 2326POPC   C2B31640  12.742  29.452   8.389
 2326POPC   C3B31641  12.858  29.662   8.005
 2326POPC   C4B31642  12.810  29.883   7.638
 2327POPC   NC331643   0.287  24.884   9.466
 2327POPC   PO431644   0.488  25.533   9.446
 2327POPC   GL131645   0.504  25.199   9.128
 2327POPC   GL231646   0.812  25.009   9.086
 2327POPC   C1A31647   0.243  25.168   8.753
 2327POPC   D2A31648   0.250  25.520   8.440
 2327POPC   C3A31649   0.316  25.459   7.989
 2327POPC   C4A31650   0.188  25.678   7.611
 2327POPC   C1B31651   0.771  25.164   8.662
 2327POPC   C2B31652   0.504  25.089   8.307
 2327POPC   C3B31653   0.401  24.908   7.906
 2327POPC   C4B31654   0.500  24.992   7.471
 2328POPC   NC331655  44.854   8.392   9.499
 2328POPC   PO431656  44.238   8.113   9.445
 2328POPC   GL131657  44.492   8.058   9.081
 2328POPC   GL231658  44.825   8.180   9.056
 2328POPC   C1A31659  44.647   7.866   8.695
 2328POPC   D2A31660  44.931   7.743   8.389
 2328POPC   C3A31661  44.731   7.903   8.035
 2328POPC   C4A31662  44.375   8.053   7.779
 2328POPC   C1B31663  44.621   8.432   8.754
 2328POPC   C2B31664  44.859   8.297   8.411
 2328POPC   C3B31665  44.796   8.414   8.017
 2328POPC   C4B31666  44.795   8.587   7.655
 2329POPC   NC331667  21.685  24.004   9.313
 2329POPC   PO431668  21.323  23.541   9.594
 2329POPC   GL131669  21.341  23.416   9.138
 2329POPC   GL231670  21.441  23.732   8.973
 2329POPC   C1A31671  21.124  23.455   8.722
 2329POPC   D2A31672  21.380  23.752   8.474
 2329POPC   C3A31673  21.353  23.867   8.090
 2329POPC   C4A31674  21.222  23.654   7.754
 2329POPC   C1B31675  21.786  23.939   8.700
 2329POPC   C2B31676  21.853  24.020   8.275
 2329POPC   C3B31677  21.790  24.015   7.845
 2329POPC   C4B31678  21.779  23.696   7.608
 2330POPC   NC331679   6.487  12.358   9.551
 2330POPC   PO431680   6.870  12.891   9.595
 2330POPC   GL131681   6.564  12.834   9.252
 2330POPC   GL231682   6.565  12.516   9.065
 2330POPC   C1A31683   6.534  13.053   8.850
 2330POPC   D2A31684   6.660  13.034   8.425
 2330POPC   C3A31685   6.456  13.132   8.041
 2330POPC   C4A31686   6.660  13.038   7.662
 2330POPC   C1B31687   6.924  12.674   8.787
 2330POPC   C2B31688   7.016  12.682   8.330
 2330POPC   C3B31689   6.698  12.652   8.002
 2330POPC   C4B31690   6.751  12.550   7.562
 2331POPC   NC331691   9.999  37.956   9.424
 2331POPC   PO431692   9.718  37.350   9.520
 2331POPC   GL131693   9.633  37.550   9.123
 2331POPC   GL231694   9.974  37.669   8.984
 2331POPC   C1A31695   9.577  37.535   8.669
 2331POPC   D2A31696   9.847  37.715   8.386
 2331POPC   C3A31697   9.699  37.479   8.075
 2331POPC   C4A31698   9.992  37.307   7.795
 2331POPC   C1B31699   9.676  38.001   8.817
 2331POPC   C2B31700   9.420  37.994   8.419
 2331POPC   C3B31701   9.615  38.045   8.021
 2331POPC   C4B31702   9.901  37.821   7.788
 2332POPC   NC331703   9.311  22.338   9.866
 2332POPC   PO431704   9.911  22.208   9.619
 2332POPC   GL131705   9.831  22.204   9.205
 2332POPC   GL231706   9.481  22.187   9.281
 2332POPC   C1A31707   9.909  22.377   8.765
 2332POPC   D2A31708   9.609  22.465   8.425
 2332POPC   C3A31709   9.756  22.328   8.028
 2332POPC   C4A31710   9.936  22.089   7.691
 2332POPC   C1B31711   9.505  22.090   8.832
 2332POPC   C2B31712   9.633  21.948   8.395
 2332POPC   C3B31713   9.422  21.931   7.969
 2332POPC   C4B31714   9.430  22.051   7.504
 2333POPC   NC331715  30.489  33.725   9.591
 2333POPC   PO431716  30.634  34.336   9.538
 2333POPC   GL131717  30.431  34.094   9.237
 2333POPC   GL231718  30.695  34.199   9.040
 2333POPC   C1A31719  30.439  33.807   8.871
 2333POPC   D2A31720  30.514  33.992   8.458
 2333POPC   C3A31721  30.473  33.699   8.127
 2333POPC   C4A31722  30.733  33.565   7.765
 2333POPC   C1B31723  30.995  34.063   8.773
 2333POPC   C2B31724  31.114  33.929   8.406
 2333POPC   C3B31725  30.896  33.972   8.071
 2333POPC   C4B31726  31.059  33.966   7.703
 2334POPC   NC331727  28.595  31.209   9.870
 2334POPC   PO431728  28.092  30.732   9.594
 2334POPC   GL131729  28.441  30.604   9.304
 2334POPC   GL231730  28.667  30.861   9.107
 2334POPC   C1A31731  28.429  30.415   8.909
 2334POPC   D2A31732  28.252  30.380   8.507
 2334POPC   C3A31733  28.388  30.665   8.173
 2334POPC   C4A31734  28.227  30.553   7.733
 2334POPC   C1B31735  28.430  30.898   8.697
 2334POPC   C2B31736  28.281  31.145   8.322
 2334POPC   C3B31737  28.234  31.049   7.878
 2334POPC   C4B31738  28.115  30.978   7.434
 2335POPC   NC331739   5.761  38.159   9.764
 2335POPC   PO431740   6.086  37.685   9.311
 2335POPC   GL131741   5.815  37.747   8.990
 2335POPC   GL231742   6.097  37.900   8.821
 2335POPC   C1A31743   5.692  37.725   8.548
 2335POPC   D2A31744   5.902  37.955   8.245
 2335POPC   C3A31745   5.857  37.713   7.908
 2335POPC   C4A31746   5.465  37.432   7.825
 2335POPC   C1B31747   6.109  37.461   8.665
 2335POPC   C2B31748   5.921  37.349   8.274
 2335POPC   C3B31749   6.044  37.254   7.854
 2335POPC   C4B31750   6.108  37.402   7.422
 2336POPC   NC331751  27.522  14.538   9.582
 2336POPC   PO431752  27.249  13.894   9.410
 2336POPC   GL131753  27.534  14.209   9.171
 2336POPC   GL231754  27.786  14.535   9.161
 2336POPC   C1A31755  27.450  14.221   8.761
 2336POPC   D2A31756  27.294  14.372   8.404
 2336POPC   C3A31757  27.399  14.170   8.076
 2336POPC   C4A31758  27.468  14.325   7.699
 2336POPC   C1B31759  27.922  14.438   8.748
 2336POPC   C2B31760  27.818  14.266   8.376
 2336POPC   C3B31761  27.915  14.191   7.968
 2336POPC   C4B31762  27.935  14.529   7.713
 2337POPC   NC331763  28.850  11.670   9.588
 2337POPC   PO431764  29.431  11.332   9.457
 2337POPC   GL131765  29.215  11.295   9.088
 2337POPC   GL231766  28.968  11.506   9.119
 2337POPC   C1A31767  29.162  11.283   8.660
 2337POPC   D2A31768  29.044  11.072   8.286
 2337POPC   C3A31769  29.261  11.337   7.991
 2337POPC   C4A31770  29.089  11.321   7.612
 2337POPC   C1B31771  28.742  11.617   8.785
 2337POPC   C2B31772  28.703  11.452   8.415
 2337POPC   C3B31773  28.797  11.521   8.049
 2337POPC   C4B31774  28.755  11.688   7.674
 2338POPC   NC331775   9.400   9.027   9.295
 2338POPC   PO431776   8.928   8.852   9.743
 2338POPC   GL131777   8.859   8.989   9.245
 2338POPC   GL231778   9.060   9.205   8.976
 2338POPC   C1A31779   8.690   8.978   8.772
 2338POPC   D2A31780   8.951   8.991   8.384
 2338POPC   C3A31781   8.713   9.170   8.048
 2338POPC   C4A31782   8.640   8.968   7.688
 2338POPC   C1B31783   9.396   9.185   8.654
 2338POPC   C2B31784   9.396   9.406   8.274
 2338POPC   C3B31785   9.159   9.382   7.906
 2338POPC   C4B31786   9.145   8.959   7.794
 2339POPC   NC331787  39.442  26.063   9.517
 2339POPC   PO431788  38.925  26.454   9.701
 2339POPC   GL131789  39.004  26.349   9.246
 2339POPC   GL231790  39.350  26.290   9.080
 2339POPC   C1A31791  38.939  26.211   8.809
 2339POPC   D2A31792  39.059  26.373   8.413
 2339POPC   C3A31793  39.228  26.136   8.101
 2339POPC   C4A31794  39.034  25.787   7.893
 2339POPC   C1B31795  39.480  26.177   8.663
 2339POPC   C2B31796  39.715  26.053   8.300
 2339POPC   C3B31797  39.661  26.060   7.849
 2339POPC   C4B31798  39.512  25.885   7.436
 2340POPC   NC331799  14.611  20.158   9.412
 2340POPC   PO431800  14.132  20.612   9.679
 2340POPC   GL131801  14.325  20.572   9.293
 2340POPC   GL231802  14.625  20.715   9.419
 2340POPC   C1A31803  14.339  20.561   8.835
 2340POPC   D2A31804  14.175  20.600   8.414
 2340POPC   C3A31805  14.373  20.644   8.007
 2340POPC   C4A31806  14.459  20.490   7.564
 2340POPC   C1B31807  14.755  20.790   9.019
 2340POPC   C2B31808  14.623  20.975   8.621
 2340POPC   C3B31809  14.686  21.044   8.164
 2340POPC   C4B31810  14.674  20.919   7.716
 2341POPC   NC331811  28.925  35.707   9.868
 2341POPC   PO431812  29.173  36.243   9.528
 2341POPC   GL131813  29.401  36.046   9.204
 2341POPC   GL231814  29.122  36.127   9.001
 2341POPC   C1A31815  29.468  35.828   8.820
 2341POPC   D2A31816  29.166  35.956   8.498
 2341POPC   C3A31817  29.268  35.753   8.118
 2341POPC   C4A31818  29.334  36.036   7.782
 2341POPC   C1B31819  29.038  36.475   8.829
 2341POPC   C2B31820  29.161  36.504   8.440
 2341POPC   C3B31821  29.053  36.371   8.058
 2341POPC   C4B31822  29.247  36.568   7.713
 2342POPC   NC331823  15.854  36.538   9.570
 2342POPC   PO431824  15.663  37.266   9.471
 2342POPC   GL131825  15.879  37.197   9.092
 2342POPC   GL231826  16.056  36.861   9.133
 2342POPC   C1A31827  16.047  37.161   8.699
 2342POPC   D2A31828  16.147  36.940   8.343
 2342POPC   C3A31829  15.931  37.060   7.962
 2342POPC   C4A31830  15.920  37.222   7.531
 2342POPC   C1B31831  15.862  36.685   8.750
 2342POPC   C2B31832  15.697  36.681   8.314
 2342POPC   C3B31833  15.858  36.547   7.899
 2342POPC   C4B31834  15.868  36.724   7.498
 2343POPC   NC331835  13.902   7.282   9.381
 2343POPC   PO431836  14.284   7.441   9.956
 2343POPC   GL131837  14.395   7.494   9.459
 2343POPC   GL231838  14.536   7.172   9.306
 2343POPC   C1A31839  14.321   7.504   8.949
 2343POPC   D2A31840  14.422   7.394   8.498
 2343POPC   C3A31841  14.222   7.479   8.103
 2343POPC   C4A31842  14.224   7.568   7.663
 2343POPC   C1B31843  14.568   7.027   8.847
 2343POPC   C2B31844  14.674   6.969   8.401
 2343POPC   C3B31845  14.459   7.023   8.025
 2343POPC   C4B31846  14.267   7.053   7.653
 2344POPC   NC331847  34.057  17.963   9.827
 2344POPC   PO431848  34.638  18.306   9.520
 2344POPC   GL131849  34.686  18.223   9.122
 2344POPC   GL231850  34.756  18.557   9.064
 2344POPC   C1A31851  34.457  18.288   8.747
 2344POPC   D2A31852  34.675  18.439   8.394
 2344POPC   C3A31853  34.500  18.313   8.019
 2344POPC   C4A31854  34.662  18.013   7.702
 2344POPC   C1B31855  35.048  18.577   8.738
 2344POPC   C2B31856  35.101  18.727   8.304
 2344POPC   C3B31857  35.042  18.710   7.879
 2344POPC   C4B31858  34.768  18.514   7.635
 2345POPC   NC331859  41.654  11.760   9.795
 2345POPC   PO431860  41.483  12.299   9.405
 2345POPC   GL131861  41.542  12.228   8.976
 2345POPC   GL231862  41.371  11.902   8.901
 2345POPC   C1A31863  41.479  12.232   8.558
 2345POPC   D2A31864  41.691  12.073   8.246
 2345POPC   C3A31865  41.505  12.343   7.955
 2345POPC   C4A31866  41.744  12.462   7.688
 2345POPC   C1B31867  41.583  11.686   8.595
 2345POPC   C2B31868  41.400  11.620   8.204
 2345POPC   C3B31869  41.484  11.864   7.837
 2345POPC   C4B31870  41.264  11.851   7.490
 2346POPC   NC331871  42.084   3.246   9.919
 2346POPC   PO431872  42.379   3.782   9.517
 2346POPC   GL131873  42.332   3.595   9.111
 2346POPC   GL231874  41.977   3.573   8.989
 2346POPC   C1A31875  42.575   3.521   8.734
 2346POPC   D2A31876  42.554   3.745   8.340
 2346POPC   C3A31877  42.513   3.655   7.917
 2346POPC   C4A31878  42.116   3.692   7.759
 2346POPC   C1B31879  42.152   3.226   8.714
 2346POPC   C2B31880  42.408   3.233   8.352
 2346POPC   C3B31881  42.199   3.268   8.041
 2346POPC   C4B31882  42.088   3.180   7.685
 2347POPC   NC331883  15.330  25.960   9.501
 2347POPC   PO431884  15.319  26.688   9.513
 2347POPC   GL131885  15.236  26.423   9.176
 2347POPC   GL231886  15.385  26.135   9.033
 2347POPC   C1A31887  14.996  26.385   8.798
 2347POPC   D2A31888  14.768  26.223   8.451
 2347POPC   C3A31889  15.046  26.073   8.116
 2347POPC   C4A31890  15.000  26.210   7.688
 2347POPC   C1B31891  15.213  25.935   8.662
 2347POPC   C2B31892  15.454  25.680   8.395
 2347POPC   C3B31893  15.536  25.698   7.994
 2347POPC   C4B31894  15.240  25.779   7.714
 2348POPC   NC331895  30.443   9.592   9.614
 2348POPC   PO431896  30.561  10.185   9.703
 2348POPC   GL131897  30.675   9.914   9.285
 2348POPC   GL231898  30.478   9.664   9.121
 2348POPC   C1A31899  30.800   9.882   8.804
 2348POPC   D2A31900  30.885   9.648   8.417
 2348POPC   C3A31901  30.904   9.821   7.985
 2348POPC   C4A31902  30.452   9.793   7.852
 2348POPC   C1B31903  30.517   9.397   8.754
 2348POPC   C2B31904  30.482   9.219   8.341
 2348POPC   C3B31905  30.746   9.353   8.007
 2348POPC   C4B31906  30.734   9.483   7.583
 2349POPC   NC331907  37.330  24.310   9.591
 2349POPC   PO431908  36.784  24.680   9.594
 2349POPC   GL131909  36.991  24.529   9.239
 2349POPC   GL231910  37.079  24.815   8.998
 2349POPC   C1A31911  37.155  24.308   8.897
 2349POPC   D2A31912  37.120  24.552   8.513
 2349POPC   C3A31913  36.999  24.453   8.083
 2349POPC   C4A31914  37.119  24.658   7.661
 2349POPC   C1B31915  36.699  24.574   8.816
 2349POPC   C2B31916  36.472  24.433   8.435
 2349POPC   C3B31917  36.514  24.245   8.024
 2349POPC   C4B31918  36.638  24.524   7.719
 2350POPC   NC331919  10.684  41.030   9.876
 2350POPC   PO431920  10.234  40.634   9.603
 2350POPC   GL131921  10.552  40.861   9.357
 2350POPC   GL231922  10.774  40.591   9.210
 2350POPC   C1A31923  10.524  40.942   8.914
 2350POPC   D2A31924  10.548  40.824   8.473
 2350POPC   C3A31925  10.483  41.081   8.098
 2350POPC   C4A31926  10.667  41.179   7.709
 2350POPC   C1B31927  10.458  40.400   8.902
 2350POPC   C2B31928  10.301  40.321   8.474
 2350POPC   C3B31929  10.301  40.562   8.108
 2350POPC   C4B31930  10.432  40.708   7.744
 2351POPC   NC331931  20.754   1.977   9.405
 2351POPC   PO431932  20.447   2.584   9.309
 2351POPC   GL131933  20.381   2.246   9.099
 2351POPC   GL231934  20.313   1.924   9.165
 2351POPC   C1A31935  20.548   2.061   8.749
 2351POPC   D2A31936  20.855   2.046   8.490
 2351POPC   C3A31937  20.677   2.203   8.168
 2351POPC   C4A31938  20.669   1.960   7.821
 2351POPC   C1B31939  20.244   1.643   8.813
 2351POPC   C2B31940  20.399   1.721   8.376
 2351POPC   C3B31941  20.252   1.632   7.969
 2351POPC   C4B31942  20.299   1.736   7.541
 2352POPC   NC331943   3.537  11.889   9.534
 2352POPC   PO431944   3.089  12.424   9.530
 2352POPC   GL131945   3.149  12.226   9.104
 2352POPC   GL231946   3.310  11.927   9.080
 2352POPC   C1A31947   3.413  12.198   8.677
 2352POPC   D2A31948   3.278  12.087   8.246
 2352POPC   C3A31949   3.588  11.954   7.953
 2352POPC   C4A31950   3.938  12.228   7.833
 2352POPC   C1B31951   3.133  11.768   8.693
 2352POPC   C2B31952   3.085  11.599   8.298
 2352POPC   C3B31953   3.110  11.681   7.871
 2352POPC   C4B31954   3.326  11.790   7.501
 2353POPC   NC331955  12.782  41.707   9.548
 2353POPC   PO431956  13.303  41.226   9.541
 2353POPC   GL131957  13.057  41.394   9.222
 2353POPC   GL231958  12.692  41.368   9.123
 2353POPC   C1A31959  13.073  41.611   8.847
 2353POPC   D2A31960  13.255  41.558   8.438
 2353POPC   C3A31961  12.901  41.524   8.169
 2353POPC   C4A31962  12.959  41.390   7.790
 2353POPC   C1B31963  12.385  41.283   8.753
 2353POPC   C2B31964  12.290  41.230   8.294
 2353POPC   C3B31965  12.453  41.344   7.891
 2353POPC   C4B31966  12.577  41.352   7.464
 2354POPC   NC331967   4.587  16.939   9.491
 2354POPC   PO431968   5.172  16.660   9.430
 2354POPC   GL131969   4.959  16.809   9.102
 2354POPC   GL231970   4.679  16.614   9.101
 2354POPC   C1A31971   4.982  16.829   8.658
 2354POPC   D2A31972   5.203  16.884   8.306
 2354POPC   C3A31973   5.067  16.682   7.951
 2354POPC   C4A31974   5.054  16.585   7.555
 2354POPC   C1B31975   4.489  16.891   8.791
 2354POPC   C2B31976   4.475  17.067   8.406
 2354POPC   C3B31977   4.777  17.073   8.080
 2354POPC   C4B31978   4.956  17.072   7.638
 2355POPC   NC331979  11.243  11.194   9.473
 2355POPC   PO431980  11.857  11.459   9.535
 2355POPC   GL131981  11.659  11.227   9.149
 2355POPC   GL231982  11.286  11.308   8.988
 2355POPC   C1A31983  11.638  11.083   8.712
 2355POPC   D2A31984  11.687  11.288   8.312
 2355POPC   C3A31985  11.324  11.196   8.063
 2355POPC   C4A31986  11.213  11.288   7.647
 2355POPC   C1B31987  10.981  11.524   8.681
 2355POPC   C2B31988  11.026  11.600   8.262
 2355POPC   C3B31989  10.847  11.352   8.015
 2355POPC   C4B31990  10.701  11.302   7.611
 2356POPC   NC331991  21.225  30.374   9.582
 2356POPC   PO431992  21.041  31.055   9.403
 2356POPC   GL131993  21.184  30.793   9.022
 2356POPC   GL231994  21.437  30.562   9.041
 2356POPC   C1A31995  21.312  30.567   8.574
 2356POPC   D2A31996  21.655  30.422   8.296
 2356POPC   C3A31997  21.514  30.455   7.861
 2356POPC   C4A31998  21.316  30.831   7.670
 2356POPC   C1B31999  21.658  30.880   8.791
 2356POPC   C2B32000  21.542  31.027   8.406
 2356POPC   C3B32001  21.689  30.896   8.088
 2356POPC   C4B32002  21.774  30.939   7.726
 2357POPC   NC332003   7.652   4.290   9.518
 2357POPC   PO432004   7.141   4.388   9.901
 2357POPC   GL132005   7.209   4.141   9.369
 2357POPC   GL232006   7.334   3.861   9.217
 2357POPC   C1A32007   7.424   4.209   8.886
 2357POPC   D2A32008   7.275   4.272   8.475
 2357POPC   C3A32009   7.543   4.423   8.132
 2357POPC   C4A32010   7.441   4.622   7.758
 2357POPC   C1B32011   7.023   3.898   8.841
 2357POPC   C2B32012   7.012   3.823   8.400
 2357POPC   C3B32013   7.303   3.950   8.081
 2357POPC   C4B32014   7.413   4.113   7.709
 2358POPC   NC332015   5.061  28.756   9.683
 2358POPC   PO432016   5.340  29.378   9.487
 2358POPC   GL132017   4.956  29.204   9.239
 2358POPC   GL232018   4.821  29.451   8.979
 2358POPC   C1A32019   4.887  28.989   8.832
 2358POPC   D2A32020   5.115  28.994   8.428
 2358POPC   C3A32021   4.836  29.014   8.070
 2358POPC   C4A32022   4.966  28.966   7.636
 2358POPC   C1B32023   5.248  29.372   8.794
 2358POPC   C2B32024   5.388  29.449   8.361
 2358POPC   C3B32025   5.154  29.401   7.961
 2358POPC   C4B32026   5.131  29.393   7.436
 2359POPC   NC332027  29.808  11.085   9.574
 2359POPC   PO432028  29.999  11.729   9.398
 2359POPC   GL132029  29.820  11.373   9.132
 2359POPC   GL232030  29.643  11.008   9.122
 2359POPC   C1A32031  29.752  11.372   8.719
 2359POPC   D2A32032  29.975  11.547   8.381
 2359POPC   C3A32033  29.804  11.409   8.007
 2359POPC   C4A32034  30.073  11.359   7.670
 2359POPC   C1B32035  29.564  10.912   8.737
 2359POPC   C2B32036  29.547  11.082   8.333
 2359POPC   C3B32037  29.520  10.904   7.931
 2359POPC   C4B32038  29.592  11.178   7.600
 2360POPC   NC332039   0.436  24.119   9.415
 2360POPC   PO432040   0.772  24.755   9.543
 2360POPC   GL132041   0.635  24.542   9.166
 2360POPC   GL232042   0.851  24.318   9.137
 2360POPC   C1A32043   0.494  24.277   8.761
 2360POPC   D2A32044   0.239  24.153   8.378
 2360POPC   C3A32045   0.092  24.497   8.148
 2360POPC   C4A32046   0.167  24.473   7.737
 2360POPC   C1B32047   0.857  24.635   8.725
 2360POPC   C2B32048   0.573  24.589   8.337
 2360POPC   C3B32049   0.651  24.415   7.907
 2360POPC   C4B32050   0.680  24.513   7.442
 2361POPC   NC332051  38.879  42.071   9.352
 2361POPC   PO432052  38.315  42.136   9.664
 2361POPC   GL132053  38.440  42.351   9.280
 2361POPC   GL232054  38.188  42.590   9.204
 2361POPC   C1A32055  38.596  42.464   8.866
 2361POPC   D2A32056  38.410  42.474   8.469
 2361POPC   C3A32057  38.490  42.151   8.165
 2361POPC   C4A32058  38.466  42.220   7.736
 2361POPC   C1B32059  38.211  42.835   8.820
 2361POPC   C2B32060  38.039  42.846   8.369
 2361POPC   C3B32061  38.291  42.675   7.989
 2361POPC   C4B32062  38.280  42.643   7.508
 2362POPC   NC332063  13.018  27.105   9.547
 2362POPC   PO432064  12.406  26.833   9.552
 2362POPC   GL132065  12.704  26.712   9.158
 2362POPC   GL232066  13.060  26.863   9.111
 2362POPC   C1A32067  12.884  26.637   8.703
 2362POPC   D2A32068  13.145  26.878   8.394
 2362POPC   C3A32069  12.982  26.868   7.993
 2362POPC   C4A32070  12.697  26.568   7.949
 2362POPC   C1B32071  12.832  27.133   8.822
 2362POPC   C2B32072  12.881  27.311   8.431
 2362POPC   C3B32073  12.718  27.317   7.999
 2362POPC   C4B32074  12.694  27.135   7.583
 2363POPC   NC332075  32.569  18.224   9.512
 2363POPC   PO432076  31.947  18.389   9.425
 2363POPC   GL132077  32.180  18.146   9.161
 2363POPC   GL232078  32.362  18.462   9.055
 2363POPC   C1A32079  32.096  18.131   8.734
 2363POPC   D2A32080  32.155  18.434   8.435
 2363POPC   C3A32081  32.082  18.277   8.081
 2363POPC   C4A32082  32.182  18.110   7.715
 2363POPC   C1B32083  32.625  18.168   8.827
 2363POPC   C2B32084  32.801  18.110   8.408
 2363POPC   C3B32085  32.607  18.159   8.009
 2363POPC   C4B32086  32.664  18.006   7.572
 2364POPC   NC332087  32.483  23.066   9.451
 2364POPC   PO432088  32.142  22.599   9.597
 2364POPC   GL132089  32.092  22.857   9.203
 2364POPC   GL232090  32.133  23.248   9.133
 2364POPC   C1A32091  32.301  22.843   8.805
 2364POPC   D2A32092  32.214  22.590   8.444
 2364POPC   C3A32093  32.361  22.710   8.054
 2364POPC   C4A32094  32.130  22.888   7.716
 2364POPC   C1B32095  32.420  23.353   8.776
 2364POPC   C2B32096  32.381  23.132   8.364
 2364POPC   C3B32097  32.376  23.277   7.927
 2364POPC   C4B32098  32.345  23.276   7.446
 2365POPC   NC332099  28.914  27.287   9.406
 2365POPC   PO432100  29.583  27.343   9.615
 2365POPC   GL132101  29.326  27.538   9.255
 2365POPC   GL232102  29.281  27.245   9.019
 2365POPC   C1A32103  29.361  27.677   8.783
 2365POPC   D2A32104  29.379  27.507   8.340
 2365POPC   C3A32105  29.109  27.664   8.001
 2365POPC   C4A32106  29.109  27.910   7.640
 2365POPC   C1B32107  29.087  27.156   8.621
 2365POPC   C2B32108  29.021  27.180   8.164
 2365POPC   C3B32109  29.095  27.202   7.724
 2365POPC   C4B32110  29.097  27.273   7.278
 2366POPC   NC332111  15.255  24.196   9.643
 2366POPC   PO432112  15.295  24.818   9.631
 2366POPC   GL132113  15.062  24.655   9.313
 2366POPC   GL232114  15.343  24.537   9.177
 2366POPC   C1A32115  14.934  24.520   8.883
 2366POPC   D2A32116  15.058  24.312   8.488
 2366POPC   C3A32117  15.095  24.461   8.014
 2366POPC   C4A32118  15.094  24.429   7.513
 2366POPC   C1B32119  15.461  24.609   8.755
 2366POPC   C2B32120  15.515  24.501   8.331
 2366POPC   C3B32121  15.578  24.669   7.949
 2366POPC   C4B32122  15.662  24.786   7.537
 2367POPC   NC332123  39.735  31.064   9.419
 2367POPC   PO432124  39.923  30.462   9.530
 2367POPC   GL132125  39.939  30.649   9.052
 2367POPC   GL232126  39.975  30.999   8.986
 2367POPC   C1A32127  40.195  30.662   8.689
 2367POPC   D2A32128  40.030  30.739   8.326
 2367POPC   C3A32129  40.132  30.497   7.971
 2367POPC   C4A32130  39.991  30.606   7.599
 2367POPC   C1B32131  39.733  31.108   8.681
 2367POPC   C2B32132  39.606  31.029   8.295
 2367POPC   C3B32133  39.731  30.864   7.932
 2367POPC   C4B32134  39.628  31.015   7.524
 2368POPC   NC332135  33.167  30.264   9.387
 2368POPC   PO432136  32.740  29.777   9.541
 2368POPC   GL132137  32.811  29.947   9.132
 2368POPC   GL232138  33.144  29.966   8.952
 2368POPC   C1A32139  32.740  30.240   8.798
 2368POPC   D2A32140  32.549  30.230   8.411
 2368POPC   C3A32141  32.547  29.981   8.055
 2368POPC   C4A32142  32.681  30.086   7.663
 2368POPC   C1B32143  33.389  29.753   8.620
 2368POPC   C2B32144  33.491  29.986   8.230
 2368POPC   C3B32145  33.164  30.062   7.909
 2368POPC   C4B32146  33.141  30.082   7.460
 2369POPC   NC332147  40.092  42.696   9.259
 2369POPC   PO432148  40.098  42.166   9.578
 2369POPC   GL132149  39.922  42.229   9.121
 2369POPC   GL232150  39.745  42.514   8.947
 2369POPC   C1A32151  40.020  42.053   8.741
 2369POPC   D2A32152  39.925  41.897   8.373
 2369POPC   C3A32153  39.853  42.144   8.068
 2369POPC   C4A32154  39.888  42.064   7.632
 2369POPC   C1B32155  40.188  42.522   8.679
 2369POPC   C2B32156  40.440  42.441   8.339
 2369POPC   C3B32157  40.292  42.347   7.943
 2369POPC   C4B32158  39.870  42.561   7.761
 2370POPC   NC332159  30.480  36.406   9.445
 2370POPC   PO432160  30.731  37.014   9.566
 2370POPC   GL132161  30.541  37.031   9.188
 2370POPC   GL232162  30.612  36.722   9.081
 2370POPC   C1A32163  30.432  37.092   8.775
 2370POPC   D2A32164  30.622  37.092   8.390
 2370POPC   C3A32165  30.418  37.093   8.020
 2370POPC   C4A32166  30.762  36.944   7.779
 2370POPC   C1B32167  30.970  36.477   8.955
 2370POPC   C2B32168  31.101  36.492   8.554
 2370POPC   C3B32169  31.015  36.727   8.218
 2370POPC   C4B32170  31.175  36.631   7.830
 2371POPC   NC332171  42.007  36.765   9.389
 2371POPC   PO432172  41.415  36.999   9.581
 2371POPC   GL132173  41.541  36.910   9.184
 2371POPC   GL232174  41.583  37.240   9.055
 2371POPC   C1A32175  41.664  36.722   8.799
 2371POPC   D2A32176  41.600  36.935   8.431
 2371POPC   C3A32177  41.593  36.683   8.094
 2371POPC   C4A32178  41.479  36.791   7.698
 2371POPC   C1B32179  41.943  37.186   8.774
 2371POPC   C2B32180  42.076  37.062   8.320
 2371POPC   C3B32181  41.839  37.094   7.893
 2371POPC   C4B32182  41.805  37.122   7.394
 2372POPC   NC332183  37.098  37.166   9.418
 2372POPC   PO432184  36.772  36.591   9.644
 2372POPC   GL132185  36.944  36.621   9.243
 2372POPC   GL232186  36.693  36.860   9.090
 2372POPC   C1A32187  36.995  36.562   8.809
 2372POPC   D2A32188  37.004  36.802   8.419
 2372POPC   C3A32189  36.762  36.739   8.094
 2372POPC   C4A32190  36.855  36.585   7.707
 2372POPC   C1B32191  36.960  37.136   8.788
 2372POPC   C2B32192  37.057  37.347   8.417
 2372POPC   C3B32193  36.829  37.249   8.092
 2372POPC   C4B32194  36.857  37.079   7.688
 2373POPC   NC332195  10.308  27.049   9.537
 2373POPC   PO432196  10.930  26.918   9.597
 2373POPC   GL132197  10.681  26.776   9.266
 2373POPC   GL232198  10.623  27.117   9.147
 2373POPC   C1A32199  10.475  26.646   8.877
 2373POPC   D2A32200  10.568  26.812   8.473
 2373POPC   C3A32201  10.462  26.667   8.042
 2373POPC   C4A32202  10.266  26.373   7.723
 2373POPC   C1B32203  10.396  27.196   8.781
 2373POPC   C2B32204  10.553  27.309   8.387
 2373POPC   C3B32205  10.388  27.368   8.036
 2373POPC   C4B32206  10.344  27.070   7.739
 2374POPC   NC332207   8.713  24.270   9.648
 2374POPC   PO432208   8.045  24.258   9.536
 2374POPC   GL132209   8.048  24.559   9.215
 2374POPC   GL232210   7.728  24.696   9.138
 2374POPC   C1A32211   8.204  24.636   8.821
 2374POPC   D2A32212   8.373  24.338   8.528
 2374POPC   C3A32213   8.333  24.433   8.090
 2374POPC   C4A32214   8.284  24.271   7.673
 2374POPC   C1B32215   7.709  24.555   8.689
 2374POPC   C2B32216   7.971  24.670   8.356
 2374POPC   C3B32217   7.994  24.839   7.946
 2374POPC   C4B32218   7.866  24.585   7.592
 2375POPC   NC332219  32.033  16.609   9.378
 2375POPC   PO432220  32.323  17.167   9.647
 2375POPC   GL132221  32.354  16.998   9.230
 2375POPC   GL232222  32.487  16.633   9.144
 2375POPC   C1A32223  32.170  16.949   8.829
 2375POPC   D2A32224  31.894  16.683   8.596
 2375POPC   C3A32225  32.046  16.646   8.187
 2375POPC   C4A32226  31.899  16.915   7.834
 2375POPC   C1B32227  32.595  16.339   8.797
 2375POPC   C2B32228  32.763  16.335   8.365
 2375POPC   C3B32229  32.512  16.319   7.991
 2375POPC   C4B32230  32.326  16.632   7.762
 2376POPC   NC332231  20.510  17.034   9.407
 2376POPC   PO432232  20.930  16.384   9.401
 2376POPC   GL132233  20.759  16.652   9.115
 2376POPC   GL232234  20.434  16.768   9.015
 2376POPC   C1A32235  20.779  16.585   8.686
 2376POPC   D2A32236  20.801  16.685   8.288
 2376POPC   C3A32237  20.796  16.450   7.921
 2376POPC   C4A32238  20.813  16.865   7.762
 2376POPC   C1B32239  20.263  16.544   8.787
 2376POPC   C2B32240  20.288  16.644   8.423
 2376POPC   C3B32241  20.368  16.716   8.025
 2376POPC   C4B32242  20.322  16.879   7.678
 2377POPC   NC332243   0.860  44.534   9.565
 2377POPC   PO432244   1.503  44.599   9.438
 2377POPC   GL132245   1.289  44.341   9.093
 2377POPC   GL232246   0.929  44.301   9.125
 2377POPC   C1A32247   1.180  44.306   8.645
 2377POPC   D2A32248   1.457  44.314   8.269
 2377POPC   C3A32249   1.280  44.627   7.979
 2377POPC   C4A32250   1.343  44.763   7.546
 2377POPC   C1B32251   0.923  44.699   8.858
 2377POPC   C2B32252   1.094  44.849   8.446
 2377POPC   C3B32253   0.893   0.034   8.068
 2377POPC   C4B32254   0.817  44.766   7.722
 2378POPC   NC332255  29.670  29.933   9.299
 2378POPC   PO432256  29.091  30.006   9.572
 2378POPC   GL132257  29.187  30.080   9.149
 2378POPC   GL232258  29.422  30.375   9.200
 2378POPC   C1A32259  29.275  29.811   8.779
 2378POPC   D2A32260  29.497  29.544   8.461
 2378POPC   C3A32261  29.374  29.737   8.057
 2378POPC   C4A32262  29.021  29.644   7.791
 2378POPC   C1B32263  29.443  30.365   8.745
 2378POPC   C2B32264  29.146  30.193   8.451
 2378POPC   C3B32265  28.959  30.057   8.085
 2378POPC   C4B32266  29.168  30.126   7.712
 2379POPC   NC332267  15.354  27.954   9.753
 2379POPC   PO432268  15.047  27.382   9.928
 2379POPC   GL132269  15.064  27.550   9.437
 2379POPC   GL232270  15.299  27.822   9.270
 2379POPC   C1A32271  15.097  27.482   8.948
 2379POPC   D2A32272  15.013  27.708   8.536
 2379POPC   C3A32273  15.109  27.592   8.090
 2379POPC   C4A32274  15.382  27.348   7.815
 2379POPC   C1B32275  15.334  28.018   8.841
 2379POPC   C2B32276  15.514  27.903   8.411
 2379POPC   C3B32277  15.467  27.973   7.956
 2379POPC   C4B32278  15.463  27.987   7.478
 2380POPC   NC332279  38.638  16.196   9.509
 2380POPC   PO432280  39.323  16.114   9.482
 2380POPC   GL132281  39.277  16.264   9.093
 2380POPC   GL232282  38.938  16.140   9.096
 2380POPC   C1A32283  39.483  16.129   8.699
 2380POPC   D2A32284  39.425  15.710   8.487
 2380POPC   C3A32285  39.374  15.710   8.018
 2380POPC   C4A32286  39.571  15.947   7.687
 2380POPC   C1B32287  38.977  16.043   8.668
 2380POPC   C2B32288  38.934  15.766   8.329
 2380POPC   C3B32289  38.815  15.774   7.924
 2380POPC   C4B32290  39.072  15.994   7.666
 2381POPC   NC332291   0.971  31.171   9.730
 2381POPC   PO432292   1.505  31.413   9.408
 2381POPC   GL132293   1.147  31.420   9.117
 2381POPC   GL232294   0.921  31.130   9.197
 2381POPC   C1A32295   1.268  31.382   8.661
 2381POPC   D2A32296   1.293  31.587   8.256
 2381POPC   C3A32297   1.353  31.268   7.958
 2381POPC   C4A32298   1.365  30.986   7.606
 2381POPC   C1B32299   0.795  31.250   8.764
 2381POPC   C2B32300   0.905  31.261   8.305
 2381POPC   C3B32301   0.899  31.502   7.914
 2381POPC   C4B32302   1.208  31.535   7.543
 2382POPC   NC332303  24.835   4.742   9.612
 2382POPC   PO432304  25.501   4.940   9.391
 2382POPC   GL132305  25.086   5.010   9.195
 2382POPC   GL232306  24.849   4.707   9.111
 2382POPC   C1A32307  25.006   5.245   8.809
 2382POPC   D2A32308  25.319   5.365   8.505
 2382POPC   C3A32309  25.155   5.366   8.100
 2382POPC   C4A32310  25.134   5.236   7.719
 2382POPC   C1B32311  25.080   4.759   8.734
 2382POPC   C2B32312  25.062   4.901   8.326
 2382POPC   C3B32313  25.296   4.838   7.971
 2382POPC   C4B32314  25.457   4.898   7.578
 2383POPC   NC332315  24.504  40.565   9.495
 2383POPC   PO432316  24.364  41.300   9.552
 2383POPC   GL132317  24.401  41.012   9.211
 2383POPC   GL232318  24.092  40.831   9.276
 2383POPC   C1A32319  24.588  40.767   8.854
 2383POPC   D2A32320  24.601  40.949   8.456
 2383POPC   C3A32321  24.644  40.750   8.065
 2383POPC   C4A32322  24.460  40.866   7.707
 2383POPC   C1B32323  24.067  40.640   8.857
 2383POPC   C2B32324  24.171  40.666   8.418
 2383POPC   C3B32325  24.069  40.632   7.986
 2383POPC   C4B32326  24.185  40.448   7.611
 2384POPC   NC332327   7.575  10.238   9.389
 2384POPC   PO432328   7.525   9.572   9.489
 2384POPC   GL132329   7.464   9.762   9.076
 2384POPC   GL232330   7.235  10.049   9.051
 2384POPC   C1A32331   7.299   9.763   8.651
 2384POPC   D2A32332   7.505   9.777   8.289
 2384POPC   C3A32333   7.271   9.889   7.942
 2384POPC   C4A32334   7.328   9.602   7.699
 2384POPC   C1B32335   7.561  10.176   8.747
 2384POPC   C2B32336   7.689  10.260   8.326
 2384POPC   C3B32337   7.752  10.058   7.942
 2384POPC   C4B32338   7.669   9.968   7.510
 2385POPC   NC332339  15.581  13.453   9.373
 2385POPC   PO432340  14.877  13.558   9.468
 2385POPC   GL132341  14.965  13.780   9.123
 2385POPC   GL232342  15.306  13.732   9.041
 2385POPC   C1A32343  14.867  13.613   8.748
 2385POPC   D2A32344  15.081  13.715   8.427
 2385POPC   C3A32345  15.011  13.633   8.003
 2385POPC   C4A32346  15.017  13.943   7.655
 2385POPC   C1B32347  15.557  13.768   8.639
 2385POPC   C2B32348  15.498  13.570   8.213
 2385POPC   C3B32349  15.476  13.749   7.818
 2385POPC   C4B32350  15.400  13.880   7.353
 2386POPC   NC332351   1.067   1.809   9.589
 2386POPC   PO432352   1.309   2.500   9.536
 2386POPC   GL132353   1.318   2.173   9.233
 2386POPC   GL232354   1.031   2.039   9.141
 2386POPC   C1A32355   1.329   2.274   8.776
 2386POPC   D2A32356   1.261   2.361   8.333
 2386POPC   C3A32357   1.028   2.061   8.100
 2386POPC   C4A32358   1.072   1.999   7.677
 2386POPC   C1B32359   1.321   1.785   8.892
 2386POPC   C2B32360   1.252   1.698   8.465
 2386POPC   C3B32361   0.979   1.539   8.145
 2386POPC   C4B32362   1.096   1.508   7.713
 2387POPC   NC332363  27.321  25.949   9.470
 2387POPC   PO432364  27.933  25.764   9.711
 2387POPC   GL132365  27.774  25.768   9.293
 2387POPC   GL232366  27.765  26.133   9.224
 2387POPC   C1A32367  27.581  25.729   8.875
 2387POPC   D2A32368  27.693  25.888   8.461
 2387POPC   C3A32369  27.417  25.840   8.116
 2387POPC   C4A32370  27.706  25.756   7.806
 2387POPC   C1B32371  27.625  26.274   8.812
 2387POPC   C2B32372  27.819  26.378   8.387
 2387POPC   C3B32373  27.785  26.208   8.018
 2387POPC   C4B32374  27.628  26.221   7.627
 2388POPC   NC332375  10.962  28.371   9.654
 2388POPC   PO432376  11.576  28.437   9.636
 2388POPC   GL132377  11.262  28.401   9.243
 2388POPC   GL232378  10.907  28.256   9.175
 2388POPC   C1A32379  11.273  28.327   8.786
 2388POPC   D2A32380  11.597  28.108   8.528
 2388POPC   C3A32381  11.577  28.151   8.096
 2388POPC   C4A32382  11.359  28.466   7.867
 2388POPC   C1B32383  10.815  28.107   8.802
 2388POPC   C2B32384  10.917  28.271   8.413
 2388POPC   C3B32385  10.999  28.138   8.019
 2388POPC   C4B32386  11.119  28.096   7.626
 2389POPC   NC332387  17.616   9.290   9.492
 2389POPC   PO432388  17.816   8.661   9.351
 2389POPC   GL132389  17.466   8.882   9.179
 2389POPC   GL232390  17.395   9.230   9.028
 2389POPC   C1A32391  17.315   8.779   8.770
 2389POPC   D2A32392  17.224   8.997   8.431
 2389POPC   C3A32393  17.382   8.789   8.077
 2389POPC   C4A32394  17.601   8.936   7.734
 2389POPC   C1B32395  17.720   9.092   8.768
 2389POPC   C2B32396  17.785   8.913   8.369
 2389POPC   C3B32397  18.041   9.022   8.014
 2389POPC   C4B32398  18.054   9.023   7.559
 2390POPC   NC332399  18.886  19.808   9.579
 2390POPC   PO432400  19.439  20.259   9.395
 2390POPC   GL132401  19.164  19.994   9.187
 2390POPC   GL232402  19.262  19.613   9.277
 2390POPC   C1A32403  19.159  20.097   8.751
 2390POPC   D2A32404  18.976  19.973   8.345
 2390POPC   C3A32405  19.120  20.010   7.945
 2390POPC   C4A32406  19.000  19.618   7.726
 2390POPC   C1B32407  19.121  19.600   8.850
 2390POPC   C2B32408  19.407  19.724   8.502
 2390POPC   C3B32409  19.362  19.584   8.083
 2390POPC   C4B32410  19.502  19.450   7.682
 2391POPC   NC332411   2.349  39.462   9.467
 2391POPC   PO432412   2.906  39.025   9.518
 2391POPC   GL132413   2.688  39.115   9.132
 2391POPC   GL232414   2.362  39.203   8.985
 2391POPC   C1A32415   2.833  39.137   8.708
 2391POPC   D2A32416   2.622  39.125   8.315
 2391POPC   C3A32417   2.876  39.158   7.947
 2391POPC   C4A32418   2.951  38.835   7.668
 2391POPC   C1B32419   2.579  39.584   8.820
 2391POPC   C2B32420   2.737  39.633   8.398
 2391POPC   C3B32421   2.558  39.568   7.979
 2391POPC   C4B32422   2.384  39.599   7.551
 2392POPC   NC332423  14.006  17.976   9.589
 2392POPC   PO432424  13.490  18.400   9.513
 2392POPC   GL132425  13.696  18.394   9.160
 2392POPC   GL232426  13.741  18.043   9.133
 2392POPC   C1A32427  13.632  18.564   8.753
 2392POPC   D2A32428  13.663  18.404   8.356
 2392POPC   C3A32429  13.727  18.554   7.961
 2392POPC   C4A32430  13.648  18.384   7.569
 2392POPC   C1B32431  13.422  18.096   8.778
 2392POPC   C2B32432  13.312  18.061   8.319
 2392POPC   C3B32433  13.556  18.036   7.932
 2392POPC   C4B32434  13.475  17.905   7.495
 2393POPC   NC332435  25.005  42.777   9.399
 2393POPC   PO432436  25.540  42.436   9.620
 2393POPC   GL132437  25.507  42.443   9.153
 2393POPC   GL232438  25.277  42.620   9.016
 2393POPC   C1A32439  25.587  42.455   8.666
 2393POPC   D2A32440  25.482  42.174   8.333
 2393POPC   C3A32441  25.335  42.335   7.973
 2393POPC   C4A32442  25.573  42.675   7.873
 2393POPC   C1B32443  25.053  42.518   8.624
 2393POPC   C2B32444  24.811  42.728   8.307
 2393POPC   C3B32445  24.921  42.658   7.887
 2393POPC   C4B32446  24.863  42.298   7.672
 2394POPC   NC332447  38.403  34.267   9.457
 2394POPC   PO432448  38.023  34.853   9.406
 2394POPC   GL132449  38.425  34.767   9.127
 2394POPC   GL232450  38.558  34.435   8.992
 2394POPC   C1A32451  38.578  34.821   8.665
 2394POPC   D2A32452  38.340  34.642   8.293
 2394POPC   C3A32453  38.488  34.650   7.872
 2394POPC   C4A32454  38.698  35.038   7.781
 2394POPC   C1B32455  38.391  34.179   8.651
 2394POPC   C2B32456  38.026  34.247   8.380
 2394POPC   C3B32457  37.880  34.146   7.985
 2394POPC   C4B32458  38.214  34.131   7.657
 2395POPC   NC332459  17.241   4.313   9.824
 2395POPC   PO432460  17.818   4.571   9.658
 2395POPC   GL132461  17.667   4.371   9.218
 2395POPC   GL232462  17.782   4.103   9.046
 2395POPC   C1A32463  17.456   4.556   8.818
 2395POPC   D2A32464  17.568   4.833   8.487
 2395POPC   C3A32465  17.706   4.635   8.120
 2395POPC   C4A32466  17.591   4.321   7.813
 2395POPC   C1B32467  17.426   4.050   8.761
 2395POPC   C2B32468  17.428   4.187   8.298
 2395POPC   C3B32469  17.249   3.974   7.914
 2395POPC   C4B32470  17.323   3.994   7.434
 2396POPC   NC332471  14.099  42.250   9.459
 2396POPC   PO432472  13.391  42.145   9.519
 2396POPC   GL132473  13.604  42.144   9.138
 2396POPC   GL232474  13.767  42.444   9.112
 2396POPC   C1A32475  13.466  42.302   8.722
 2396POPC   D2A32476  13.243  42.451   8.383
 2396POPC   C3A32477  13.382  42.269   8.002
 2396POPC   C4A32478  13.761  42.275   7.757
 2396POPC   C1B32479  13.949  42.449   8.721
 2396POPC   C2B32480  13.795  42.416   8.305
 2396POPC   C3B32481  14.049  42.602   8.033
 2396POPC   C4B32482  14.234  42.581   7.670
 2397POPC   NC332483   0.675  10.984   9.380
 2397POPC   PO432484   0.106  11.250   9.498
 2397POPC   GL132485   0.200  11.140   9.082
 2397POPC   GL232486   0.501  11.291   9.019
 2397POPC   C1A32487   0.190  11.349   8.641
 2397POPC   D2A32488   0.458  11.581   8.317
 2397POPC   C3A32489   0.477  11.360   7.913
 2397POPC   C4A32490   0.350  10.946   7.833
 2397POPC   C1B32491   0.763  11.291   8.658
 2397POPC   C2B32492   0.691  11.072   8.275
 2397POPC   C3B32493   0.870  11.047   7.873
 2397POPC   C4B32494   0.664  11.148   7.474
 2398POPC   NC332495  17.886   7.860   9.502
 2398POPC   PO432496  18.407   7.423   9.505
 2398POPC   GL132497  18.567   7.659   9.177
 2398POPC   GL232498  18.633   7.347   9.056
 2398POPC   C1A32499  18.421   7.693   8.744
 2398POPC   D2A32500  18.052   7.537   8.506
 2398POPC   C3A32501  18.087   7.587   8.077
 2398POPC   C4A32502  18.127   7.276   7.779
 2398POPC   C1B32503  18.787   7.207   8.699
 2398POPC   C2B32504  18.617   7.168   8.321
 2398POPC   C3B32505  18.572   7.381   7.988
 2398POPC   C4B32506  18.597   7.240   7.581
 2399POPC   NC332507  36.276  37.213   9.537
 2399POPC   PO432508  35.912  36.623   9.459
 2399POPC   GL132509  35.897  36.801   9.050
 2399POPC   GL232510  36.170  37.041   9.066
 2399POPC   C1A32511  35.936  36.937   8.598
 2399POPC   D2A32512  35.703  36.842   8.231
 2399POPC   C3A32513  36.003  36.761   7.959
 2399POPC   C4A32514  36.382  36.892   7.807
 2399POPC   C1B32515  36.412  37.153   8.693
 2399POPC   C2B32516  36.334  37.133   8.257
 2399POPC   C3B32517  36.374  37.400   7.893
 2399POPC   C4B32518  36.467  37.333   7.471
 2400POPC   NC332519  14.675  40.342   9.348
 2400POPC   PO432520  14.153  39.982   9.633
 2400POPC   GL132521  14.309  39.989   9.189
 2400POPC   GL232522  14.013  40.162   9.018
 2400POPC   C1A32523  14.669  39.893   8.851
 2400POPC   D2A32524  14.756  39.537   8.570
 2400POPC   C3A32525  14.717  39.632   8.124
 2400POPC   C4A32526  14.811  39.965   7.877
 2400POPC   C1B32527  14.368  40.318   8.769
 2400POPC   C2B32528  14.603  40.170   8.411
 2400POPC   C3B32529  14.370  40.091   8.056
 2400POPC   C4B32530  14.252  40.142   7.647
 2401POPC   NC332531  41.902   4.196   9.451
 2401POPC   PO432532  41.201   4.217   9.429
 2401POPC   GL132533  41.509   4.398   9.105
 2401POPC   GL232534  41.877   4.539   9.062
 2401POPC   C1A32535  41.635   4.315   8.680
 2401POPC   D2A32536  41.653   4.053   8.325
 2401POPC   C3A32537  41.501   4.218   7.951
 2401POPC   C4A32538  41.788   4.080   7.694
 2401POPC   C1B32539  41.908   4.813   8.701
 2401POPC   C2B32540  41.939   4.848   8.266
 2401POPC   C3B32541  41.924   4.535   7.941
 2401POPC   C4B32542  41.844   4.527   7.479
 2402POPC   NC332543  32.083   2.323   9.369
 2402POPC   PO432544  31.789   1.814   9.720
 2402POPC   GL132545  31.913   1.702   9.243
 2402POPC   GL232546  32.244   1.824   9.150
 2402POPC   C1A32547  31.912   1.819   8.765
 2402POPC   D2A32548  31.874   2.264   8.573
 2402POPC   C3A32549  31.937   2.243   8.132
 2402POPC   C4A32550  32.216   1.950   7.888
 2402POPC   C1B32551  32.445   1.868   8.759
 2402POPC   C2B32552  32.536   1.742   8.337
 2402POPC   C3B32553  32.600   1.609   7.928
 2402POPC   C4B32554  32.571   1.770   7.504
 2403POPC   NC332555  42.808   1.660   9.511
 2403POPC   PO432556  42.223   1.250   9.527
 2403POPC   GL132557  42.349   1.089   9.138
 2403POPC   GL232558  42.690   1.215   9.139
 2403POPC   C1A32559  42.340   1.214   8.705
 2403POPC   D2A32560  42.098   1.150   8.344
 2403POPC   C3A32561  42.211   1.092   7.912
 2403POPC   C4A32562  42.000   0.896   7.584
 2403POPC   C1B32563  42.656   1.604   8.872
 2403POPC   C2B32564  42.697   1.722   8.439
 2403POPC   C3B32565  42.510   1.456   8.141
 2403POPC   C4B32566  42.433   1.526   7.746
 2404POPC   NC332567   0.858  19.989   9.471
 2404POPC   PO432568   1.454  19.726   9.606
 2404POPC   GL132569   1.273  19.846   9.217
 2404POPC   GL232570   1.225  19.542   9.097
 2404POPC   C1A32571   1.116  19.997   8.814
 2404POPC   D2A32572   1.347  20.067   8.426
 2404POPC   C3A32573   1.320  19.722   8.136
 2404POPC   C4A32574   1.171  19.902   7.771
 2404POPC   C1B32575   1.060  19.490   8.730
 2404POPC   C2B32576   0.871  19.630   8.359
 2404POPC   C3B32577   0.898  19.467   7.932
 2404POPC   C4B32578   0.851  19.542   7.503
 2405POPC   NC332579  33.844   4.094   9.463
 2405POPC   PO432580  34.375   4.510   9.507
 2405POPC   GL132581  33.948   4.521   9.172
 2405POPC   GL232582  33.772   4.140   8.980
 2405POPC   C1A32583  33.692   4.572   8.771
 2405POPC   D2A32584  33.751   4.279   8.414
 2405POPC   C3A32585  34.020   4.375   8.073
 2405POPC   C4A32586  33.802   4.462   7.714
 2405POPC   C1B32587  33.916   3.839   8.657
 2405POPC   C2B32588  33.783   3.713   8.240
 2405POPC   C3B32589  33.697   4.000   7.916
 2405POPC   C4B32590  33.644   3.963   7.475
 2406POPC   NC332591  25.217   0.120   9.510
 2406POPC   PO432592  25.708   0.550   9.407
 2406POPC   GL132593  25.503   0.329   9.139
 2406POPC   GL232594  25.173   0.423   9.112
 2406POPC   C1A32595  25.481   0.110   8.796
 2406POPC   D2A32596  25.328   0.304   8.435
 2406POPC   C3A32597  25.544   0.244   8.068
 2406POPC   C4A32598  25.446   0.553   7.764
 2406POPC   C1B32599  24.941   0.419   8.759
 2406POPC   C2B32600  24.785   0.292   8.389
 2406POPC   C3B32601  24.986   0.158   8.039
 2406POPC   C4B32602  24.942   0.505   7.787
 2407POPC   NC332603  20.798  13.088   9.519
 2407POPC   PO432604  20.240  12.729   9.475
 2407POPC   GL132605  20.482  12.852   9.148
 2407POPC   GL232606  20.809  12.700   9.180
 2407POPC   C1A32607  20.376  13.018   8.737
 2407POPC   D2A32608  20.305  13.199   8.302
 2407POPC   C3A32609  20.479  12.958   7.946
 2407POPC   C4A32610  20.726  12.947   7.560
 2407POPC   C1B32611  20.895  13.001   8.812
 2407POPC   C2B32612  20.843  13.013   8.328
 2407POPC   C3B32613  20.885  12.658   7.965
 2407POPC   C4B32614  21.002  12.487   7.534
 2408POPC   NC332615  43.139   8.064   9.810
 2408POPC   PO432616  43.380   8.626   9.476
 2408POPC   GL132617  43.251   8.419   9.098
 2408POPC   GL232618  42.970   8.175   9.169
 2408POPC   C1A32619  43.323   8.192   8.733
 2408POPC   D2A32620  43.130   8.226   8.358
 2408POPC   C3A32621  43.278   8.036   8.001
 2408POPC   C4A32622  43.172   8.388   7.804
 2408POPC   C1B32623  42.910   7.899   8.837
 2408POPC   C2B32624  42.726   7.902   8.456
 2408POPC   C3B32625  42.755   7.996   8.048
 2408POPC   C4B32626  42.439   7.918   7.772
 2409POPC   NC332627  40.355  40.538   9.535
 2409POPC   PO432628  39.848  41.116   9.514
 2409POPC   GL132629  39.900  40.875   9.130
 2409POPC   GL232630  40.203  40.712   9.105
 2409POPC   C1A32631  39.963  40.861   8.686
 2409POPC   D2A32632  40.226  40.948   8.348
 2409POPC   C3A32633  40.080  40.810   7.969
 2409POPC   C4A32634  39.806  40.825   7.609
 2409POPC   C1B32635  40.245  40.440   8.780
 2409POPC   C2B32636  40.086  40.411   8.383
 2409POPC   C3B32637  40.257  40.292   8.018
 2409POPC   C4B32638  40.169  40.428   7.639
 2410POPC   NC332639  15.027  43.496   9.448
 2410POPC   PO432640  15.343  42.933   9.490
 2410POPC   GL132641  15.155  43.119   9.121
 2410POPC   GL232642  14.849  43.349   9.013
 2410POPC   C1A32643  15.289  43.349   8.766
 2410POPC   D2A32644  15.506  43.405   8.414
 2410POPC   C3A32645  15.262  43.339   8.050
 2410POPC   C4A32646  15.178  43.034   7.753
 2410POPC   C1B32647  14.898  43.702   8.765
 2410POPC   C2B32648  15.000  43.638   8.383
 2410POPC   C3B32649  14.682  43.513   8.083
 2410POPC   C4B32650  14.797  43.427   7.704
 2411POPC   NC332651  11.629  26.070   9.422
 2411POPC   PO432652  11.096  25.820   9.657
 2411POPC   GL132653  11.288  25.728   9.173
 2411POPC   GL232654  11.037  25.851   8.907
 2411POPC   C1A32655  11.509  25.901   8.749
 2411POPC   D2A32656  11.401  25.983   8.302
 2411POPC   C3A32657  11.660  26.118   7.944
 2411POPC   C4A32658  11.573  25.884   7.532
 2411POPC   C1B32659  11.121  26.270   8.638
 2411POPC   C2B32660  10.863  26.433   8.321
 2411POPC   C3B32661  10.906  26.426   7.912
 2411POPC   C4B32662  11.181  26.140   7.754
 2412POPC   NC332663  21.995  16.845   9.817
 2412POPC   PO432664  22.449  16.410   9.665
 2412POPC   GL132665  22.238  16.622   9.278
 2412POPC   GL232666  21.924  16.873   9.273
 2412POPC   C1A32667  22.359  16.670   8.829
 2412POPC   D2A32668  22.401  16.952   8.469
 2412POPC   C3A32669  22.338  16.796   8.074
 2412POPC   C4A32670  22.378  16.637   7.647
 2412POPC   C1B32671  22.012  17.025   8.819
 2412POPC   C2B32672  21.932  17.152   8.376
 2412POPC   C3B32673  21.741  17.136   7.973
 2412POPC   C4B32674  22.063  17.027   7.687
 2413POPC   NC332675   3.284  32.822   9.573
 2413POPC   PO432676   4.000  32.748   9.566
 2413POPC   GL132677   3.712  33.025   9.264
 2413POPC   GL232678   3.429  32.936   9.110
 2413POPC   C1A32679   3.645  33.257   8.821
 2413POPC   D2A32680   3.508  33.073   8.435
 2413POPC   C3A32681   3.609  33.156   8.052
 2413POPC   C4A32682   3.517  32.863   7.735
 2413POPC   C1B32683   3.310  32.680   8.718
 2413POPC   C2B32684   3.231  32.510   8.331
 2413POPC   C3B32685   3.123  32.800   8.024
 2413POPC   C4B32686   2.997  32.813   7.576
 2414POPC   NC332687   6.172  42.664   9.428
 2414POPC   PO432688   5.604  42.369   9.491
 2414POPC   GL132689   5.844  42.362   9.158
 2414POPC   GL232690   5.527  42.385   8.957
 2414POPC   C1A32691   6.072  42.337   8.784
 2414POPC   D2A32692   5.795  42.443   8.466
 2414POPC   C3A32693   5.869  42.297   8.084
 2414POPC   C4A32694   5.970  42.443   7.704
 2414POPC   C1B32695   5.690  41.977   8.806
 2414POPC   C2B32696   5.800  41.860   8.383
 2414POPC   C3B32697   5.533  41.917   8.023
 2414POPC   C4B32698   5.468  42.248   7.690
 2415POPC   NC332699  16.846  29.625   9.387
 2415POPC   PO432700  16.778  28.962   9.529
 2415POPC   GL132701  16.741  29.161   9.148
 2415POPC   GL232702  17.099  29.170   9.148
 2415POPC   C1A32703  16.521  29.303   8.770
 2415POPC   D2A32704  16.339  29.377   8.370
 2415POPC   C3A32705  16.543  29.258   7.984
 2415POPC   C4A32706  16.792  29.035   7.687
 2415POPC   C1B32707  17.022  29.422   8.776
 2415POPC   C2B32708  16.871  29.372   8.372
 2415POPC   C3B32709  17.017  29.425   7.940
 2415POPC   C4B32710  17.082  29.430   7.500
 2416POPC   NC332711  26.733  20.272   9.308
 2416POPC   PO432712  27.188  19.864   9.494
 2416POPC   GL132713  27.118  19.673   9.114
 2416POPC   GL232714  26.768  19.792   9.062
 2416POPC   C1A32715  27.051  19.609   8.661
 2416POPC   D2A32716  26.756  19.804   8.369
 2416POPC   C3A32717  26.916  19.851   7.978
 2416POPC   C4A32718  27.073  19.529   7.757
 2416POPC   C1B32719  26.426  19.905   8.750
 2416POPC   C2B32720  26.259  19.969   8.347
 2416POPC   C3B32721  26.399  19.902   7.929
 2416POPC   C4B32722  26.292  19.876   7.504
 2417POPC   NC332723  41.903   2.425   9.506
 2417POPC   PO432724  42.355   1.904   9.577
 2417POPC   GL132725  42.397   1.999   9.183
 2417POPC   GL232726  42.033   2.043   9.194
 2417POPC   C1A32727  42.514   2.117   8.758
 2417POPC   D2A32728  42.301   2.232   8.399
 2417POPC   C3A32729  42.366   1.951   8.079
 2417POPC   C4A32730  42.491   2.046   7.673
 2417POPC   C1B32731  42.059   1.924   8.788
 2417POPC   C2B32732  42.185   1.649   8.481
 2417POPC   C3B32733  42.013   1.571   8.062
 2417POPC   C4B32734  42.016   1.836   7.708
 2418POPC   NC332735  16.469  44.762   9.481
 2418POPC   PO432736  15.813  44.604   9.486
 2418POPC   GL132737  15.891  44.519   9.100
 2418POPC   GL232738  16.223  44.389   9.033
 2418POPC   C1A32739  15.966  44.689   8.705
 2418POPC   D2A32740  16.149  44.460   8.380
 2418POPC   C3A32741  16.294  44.641   8.013
 2418POPC   C4A32742  15.973  44.803   7.783
 2418POPC   C1B32743  15.934  44.152   8.758
 2418POPC   C2B32744  15.727  44.171   8.409
 2418POPC   C3B32745  15.863  44.106   8.037
 2418POPC   C4B32746  15.776  44.334   7.675
 2419POPC   NC332747  25.832  14.176   9.496
 2419POPC   PO432748  26.304  14.669   9.476
 2419POPC   GL132749  26.166  14.408   9.184
 2419POPC   GL232750  25.853  14.559   9.170
 2419POPC   C1A32751  26.076  14.203   8.816
 2419POPC   D2A32752  26.295  14.114   8.455
 2419POPC   C3A32753  26.076  14.256   8.079
 2419POPC   C4A32754  26.137  14.407   7.670
 2419POPC   C1B32755  25.649  14.472   8.848
 2419POPC   C2B32756  25.794  14.466   8.445
 2419POPC   C3B32757  25.573  14.392   8.050
 2419POPC   C4B32758  25.668  14.648   7.720
 2420POPC   NC332759   6.340  44.945   9.961
 2420POPC   PO432760   6.844  44.684   9.542
 2420POPC   GL132761   6.568  44.698   9.182
 2420POPC   GL232762   6.578  44.357   8.998
 2420POPC   C1A32763   6.404  44.767   8.773
 2420POPC   D2A32764   6.578  44.626   8.402
 2420POPC   C3A32765   6.467  44.862   8.067
 2420POPC   C4A32766   6.699  44.842   7.707
 2420POPC   C1B32767   6.912  44.318   8.698
 2420POPC   C2B32768   7.022  44.364   8.295
 2420POPC   C3B32769   6.766  44.383   7.944
 2420POPC   C4B32770   6.378  44.427   7.750
 2421POPC   NC332771  12.311  17.181   9.565
 2421POPC   PO432772  12.081  17.743   9.309
 2421POPC   GL132773  12.228  17.355   9.097
 2421POPC   GL232774  12.014  17.075   9.165
 2421POPC   C1A32775  12.378  17.240   8.705
 2421POPC   D2A32776  12.386  17.588   8.376
 2421POPC   C3A32777  12.265  17.509   7.949
 2421POPC   C4A32778  12.014  17.818   7.707
 2421POPC   C1B32779  11.846  17.167   8.775
 2421POPC   C2B32780  12.013  17.106   8.374
 2421POPC   C3B32781  11.828  17.082   8.014
 2421POPC   C4B32782  11.855  17.330   7.683
 2422POPC   NC332783  24.848  16.446   9.465
 2422POPC   PO432784  25.188  17.113   9.349
 2422POPC   GL132785  25.297  16.923   9.005
 2422POPC   GL232786  25.236  16.604   9.157
 2422POPC   C1A32787  25.138  16.956   8.597
 2422POPC   D2A32788  24.859  16.927   8.245
 2422POPC   C3A32789  25.124  16.684   7.972
 2422POPC   C4A32790  25.562  16.848   7.877
 2422POPC   C1B32791  25.180  16.443   8.768
 2422POPC   C2B32792  25.432  16.540   8.415
 2422POPC   C3B32793  25.639  16.377   8.068
 2422POPC   C4B32794  25.418  16.384   7.682
 2423POPC   NC332795   3.226  41.160   9.379
 2423POPC   PO432796   2.683  41.600   9.566
 2423POPC   GL132797   2.760  41.451   9.174
 2423POPC   GL232798   2.413  41.502   9.089
 2423POPC   C1A32799   2.835  41.576   8.754
 2423POPC   D2A32800   2.760  41.880   8.462
 2423POPC   C3A32801   2.784  41.674   8.081
 2423POPC   C4A32802   2.767  41.513   7.679
 2423POPC   C1B32803   2.479  41.217   8.746
 2423POPC   C2B32804   2.711  41.233   8.357
 2423POPC   C3B32805   2.602  41.111   7.942
 2423POPC   C4B32806   2.220  41.231   7.694
 2424POPC   NC332807  18.004  25.878   9.492
 2424POPC   PO432808  18.609  26.180   9.493
 2424POPC   GL132809  18.425  25.930   9.195
 2424POPC   GL232810  18.154  26.186   9.098
 2424POPC   C1A32811  18.525  25.995   8.799
 2424POPC   D2A32812  18.405  26.306   8.540
 2424POPC   C3A32813  18.242  26.119   8.198
 2424POPC   C4A32814  18.408  26.057   7.796
 2424POPC   C1B32815  17.995  26.022   8.698
 2424POPC   C2B32816  17.845  25.801   8.340
 2424POPC   C3B32817  17.884  25.885   7.913
 2424POPC   C4B32818  17.932  26.296   7.827
 2425POPC   NC332819  37.481  31.839   9.511
 2425POPC   PO432820  37.926  31.270   9.496
 2425POPC   GL132821  37.910  31.365   9.095
 2425POPC   GL232822  37.790  31.700   9.117
 2425POPC   C1A32823  37.680  31.395   8.728
 2425POPC   D2A32824  37.799  31.198   8.379
 2425POPC   C3A32825  37.526  31.275   8.098
 2425POPC   C4A32826  37.766  31.297   7.758
 2425POPC   C1B32827  38.016  31.845   8.775
 2425POPC   C2B32828  37.890  31.707   8.374
 2425POPC   C3B32829  37.692  31.735   7.982
 2425POPC   C4B32830  37.965  31.763   7.606
 2426POPC   NC332831  27.450  26.940   9.422
 2426POPC   PO432832  27.971  26.573   9.450
 2426POPC   GL132833  27.788  26.699   9.094
 2426POPC   GL232834  27.866  27.041   9.098
 2426POPC   C1A32835  27.676  26.778   8.672
 2426POPC   D2A32836  27.472  26.752   8.270
 2426POPC   C3A32837  27.686  26.683   7.886
 2426POPC   C4A32838  27.354  26.753   7.637
 2426POPC   C1B32839  27.716  27.289   8.743
 2426POPC   C2B32840  27.648  27.253   8.301
 2426POPC   C3B32841  27.542  27.172   7.870
 2426POPC   C4B32842  27.672  27.095   7.422
 2427POPC   NC332843   8.955  15.781   9.493
 2427POPC   PO432844   8.634  16.359   9.589
 2427POPC   GL132845   8.771  16.163   9.213
 2427POPC   GL232846   9.137  16.208   9.225
 2427POPC   C1A32847   8.861  16.058   8.791
 2427POPC   D2A32848   8.806  16.233   8.389
 2427POPC   C3A32849   8.734  15.921   8.101
 2427POPC   C4A32850   8.533  15.855   7.727
 2427POPC   C1B32851   9.369  16.077   8.858
 2427POPC   C2B32852   9.293  16.050   8.439
 2427POPC   C3B32853   9.285  15.993   7.993
 2427POPC   C4B32854   9.072  15.661   7.765
 2428POPC   NC332855  37.851  34.107   9.744
 2428POPC   PO432856  38.482  33.743   9.574
 2428POPC   GL132857  38.315  33.832   9.154
 2428POPC   GL232858  38.644  33.928   9.066
 2428POPC   C1A32859  38.393  33.672   8.712
 2428POPC   D2A32860  38.539  33.797   8.314
 2428POPC   C3A32861  38.298  33.728   7.946
 2428POPC   C4A32862  38.319  33.511   7.531
 2428POPC   C1B32863  38.902  34.108   8.733
 2428POPC   C2B32864  38.806  34.270   8.328
 2428POPC   C3B32865  38.658  34.138   7.936
 2428POPC   C4B32866  38.689  34.291   7.523
 2429POPC   NC332867  13.984  14.360   9.507
 2429POPC   PO432868  14.646  14.531   9.477
 2429POPC   GL132869  14.390  14.489   9.102
 2429POPC   GL232870  14.104  14.292   9.031
 2429POPC   C1A32871  14.341  14.609   8.689
 2429POPC   D2A32872  14.573  14.431   8.383
 2429POPC   C3A32873  14.479  14.498   7.959
 2429POPC   C4A32874  14.748  14.394   7.646
 2429POPC   C1B32875  14.177  14.110   8.640
 2429POPC   C2B32876  14.199  14.118   8.195
 2429POPC   C3B32877  13.968  14.396   7.971
 2429POPC   C4B32878  14.028  14.549   7.575
 2430POPC   NC332879  22.380  28.597   9.461
 2430POPC   PO432880  21.839  28.231   9.463
 2430POPC   GL132881  21.948  28.499   9.160
 2430POPC   GL232882  22.255  28.368   9.035
 2430POPC   C1A32883  21.911  28.691   8.789
 2430POPC   D2A32884  21.882  28.891   8.411
 2430POPC   C3A32885  21.952  28.676   8.041
 2430POPC   C4A32886  22.286  28.626   7.746
 2430POPC   C1B32887  22.468  28.140   8.732
 2430POPC   C2B32888  22.493  28.236   8.302
 2430POPC   C3B32889  22.365  28.133   7.881
 2430POPC   C4B32890  21.938  28.245   7.755
 2431POPC   NC332891  28.155  35.241   9.432
 2431POPC   PO432892  28.809  35.418   9.520
 2431POPC   GL132893  28.584  35.566   9.152
 2431POPC   GL232894  28.272  35.714   9.238
 2431POPC   C1A32895  28.442  35.437   8.732
 2431POPC   D2A32896  28.337  35.080   8.477
 2431POPC   C3A32897  28.388  35.127   8.043
 2431POPC   C4A32898  28.059  35.180   7.752
 2431POPC   C1B32899  28.088  35.806   8.825
 2431POPC   C2B32900  28.219  35.778   8.378
 2431POPC   C3B32901  28.374  35.646   7.951
 2431POPC   C4B32902  28.234  35.703   7.521
 2432POPC   NC332903   6.242   0.216   9.288
 2432POPC   PO432904   6.864   0.393   9.448
 2432POPC   GL132905   6.743   0.502   9.057
 2432POPC   GL232906   6.531   0.246   8.883
 2432POPC   C1A32907   6.848   0.549   8.643
 2432POPC   D2A32908   6.713   0.246   8.350
 2432POPC   C3A32909   6.828   0.309   7.931
 2432POPC   C4A32910   6.661   0.666   7.709
 2432POPC   C1B32911   6.367   0.671   8.750
 2432POPC   C2B32912   6.496   0.787   8.345
 2432POPC   C3B32913   6.359   0.506   8.068
 2432POPC   C4B32914   6.351   0.237   7.707
 2433POPC   NC332915  24.251   0.139   9.369
 2433POPC   PO432916  23.838   0.497   9.582
 2433POPC   GL132917  23.703   0.325   9.222
 2433POPC   GL232918  23.991   0.349   9.010
 2433POPC   C1A32919  23.574   0.550   8.851
 2433POPC   D2A32920  23.780   0.484   8.498
 2433POPC   C3A32921  23.682   0.668   8.134
 2433POPC   C4A32922  24.037   0.544   7.885
 2433POPC   C1B32923  23.746   0.053   8.794
 2433POPC   C2B32924  23.536   0.029   8.428
 2433POPC   C3B32925  23.770   0.134   8.100
 2433POPC   C4B32926  23.834  44.840   7.839
 2434POPC   NC332927  10.208   8.885   9.510
 2434POPC   PO432928  10.833   8.971   9.686
 2434POPC   GL132929  10.606   9.011   9.214
 2434POPC   GL232930  10.611   8.722   8.989
 2434POPC   C1A32931  10.427   9.129   8.762
 2434POPC   D2A32932  10.322   9.030   8.303
 2434POPC   C3A32933  10.589   9.154   7.937
 2434POPC   C4A32934  10.549   9.188   7.494
 2434POPC   C1B32935  10.286   8.619   8.636
 2434POPC   C2B32936  10.122   8.577   8.210
 2434POPC   C3B32937  10.384   8.680   7.851
 2434POPC   C4B32938  10.649   8.678   7.476
 2435POPC   NC332939  42.041  40.526   9.525
 2435POPC   PO432940  42.254  41.148   9.543
 2435POPC   GL132941  42.470  40.938   9.205
 2435POPC   GL232942  42.337  40.570   9.120
 2435POPC   C1A32943  42.527  40.858   8.770
 2435POPC   D2A32944  42.366  40.585   8.464
 2435POPC   C3A32945  42.418  40.833   8.100
 2435POPC   C4A32946  42.319  40.959   7.681
 2435POPC   C1B32947  42.033  40.329   8.864
 2435POPC   C2B32948  41.884  40.367   8.480
 2435POPC   C3B32949  42.109  40.350   8.087
 2435POPC   C4B32950  41.995  40.553   7.761
 2436POPC   NC332951  25.750  42.345  10.014
 2436POPC   PO432952  26.078  42.100   9.486
 2436POPC   GL132953  26.223  42.322   9.125
 2436POPC   GL232954  25.935  42.252   8.979
 2436POPC   C1A32955  26.334  42.474   8.729
 2436POPC   D2A32956  26.056  42.395   8.395
 2436POPC   C3A32957  26.275  42.437   8.003
 2436POPC   C4A32958  26.020  42.542   7.686
 2436POPC   C1B32959  25.759  41.928   8.711
 2436POPC   C2B32960  25.907  41.890   8.309
 2436POPC   C3B32961  25.871  42.136   7.960
 2436POPC   C4B32962  25.674  42.154   7.571
 2437POPC   NC332963   2.430  42.955   9.607
 2437POPC   PO432964   3.108  43.099   9.693
 2437POPC   GL132965   2.826  43.075   9.278
 2437POPC   GL232966   2.547  43.108   9.133
 2437POPC   C1A32967   2.904  42.997   8.792
 2437POPC   D2A32968   2.677  42.932   8.428
 2437POPC   C3A32969   2.756  43.103   8.046
 2437POPC   C4A32970   2.839  43.167   7.602
 2437POPC   C1B32971   2.449  42.750   8.853
 2437POPC   C2B32972   2.281  42.618   8.431
 2437POPC   C3B32973   2.366  42.739   8.008
 2437POPC   C4B32974   2.322  43.126   7.783
 2438POPC   NC332975  25.592  10.909   9.404
 2438POPC   PO432976  25.147  10.365   9.529
 2438POPC   GL132977  25.246  10.477   9.123
 2438POPC   GL232978  25.199  10.807   9.066
 2438POPC   C1A32979  25.203  10.361   8.683
 2438POPC   D2A32980  25.217  10.590   8.290
 2438POPC   C3A32981  24.913  10.431   7.966
 2438POPC   C4A32982  25.027  10.199   7.637
 2438POPC   C1B32983  25.570  10.729   8.746
 2438POPC   C2B32984  25.745  10.673   8.314
 2438POPC   C3B32985  25.644  10.863   7.965
 2438POPC   C4B32986  25.340  10.620   7.787
 2439POPC   NC332987  13.034  14.280   9.806
 2439POPC   PO432988  12.604  14.690   9.482
 2439POPC   GL132989  12.986  14.688   9.272
 2439POPC   GL232990  13.077  14.347   9.279
 2439POPC   C1A32991  12.986  14.643   8.840
 2439POPC   D2A32992  13.006  14.432   8.463
 2439POPC   C3A32993  12.797  14.644   8.114
 2439POPC   C4A32994  12.898  14.510   7.677
 2439POPC   C1B32995  12.863  14.129   8.906
 2439POPC   C2B32996  12.857  13.946   8.471
 2439POPC   C3B32997  12.846  14.139   8.068
 2439POPC   C4B32998  12.641  14.072   7.718
 2440POPC   NC332999   1.549  17.097   9.535
 2440POPC   PO433000   0.883  16.823   9.590
 2440POPC   GL133001   1.157  16.796   9.233
 2440POPC   GL233002   1.298  17.090   9.108
 2440POPC   C1A33003   1.375  16.616   8.869
 2440POPC   D2A33004   1.540  16.763   8.473
 2440POPC   C3A33005   1.415  16.640   8.049
 2440POPC   C4A33006   1.360  16.736   7.586
 2440POPC   C1B33007   1.069  17.102   8.758
 2440POPC   C2B33008   1.109  17.001   8.346
 2440POPC   C3B33009   1.334  17.132   8.002
 2440POPC   C4B33010   0.985  17.084   7.723
 2441POPC   NC333011  38.189  17.908   9.307
 2441POPC   PO433012  38.341  17.315   9.506
 2441POPC   GL133013  38.671  17.497   9.180
 2441POPC   GL233014  38.645  17.839   9.057
 2441POPC   C1A33015  38.919  17.519   8.765
 2441POPC   D2A33016  38.751  17.785   8.422
 2441POPC   C3A33017  38.578  17.555   8.057
 2441POPC   C4A33018  38.762  17.404   7.690
 2441POPC   C1B33019  38.406  17.551   8.754
 2441POPC   C2B33020  38.129  17.386   8.457
 2441POPC   C3B33021  38.050  17.410   8.017
 2441POPC   C4B33022  38.203  17.689   7.683
 2442POPC   NC333023  36.928  22.569   9.580
 2442POPC   PO433024  36.536  23.149   9.529
 2442POPC   GL133025  36.664  23.129   9.123
 2442POPC   GL233026  36.882  22.887   9.191
 2442POPC   C1A33027  36.682  22.872   8.723
 2442POPC   D2A33028  36.749  22.640   8.332
 2442POPC   C3A33029  36.627  22.869   7.966
 2442POPC   C4A33030  36.777  22.896   7.560
 2442POPC   C1B33031  37.171  22.960   8.864
 2442POPC   C2B33032  37.273  23.103   8.454
 2442POPC   C3B33033  37.148  22.921   8.044
 2442POPC   C4B33034  37.012  22.516   7.871
 2443POPC   NC333035  16.951  37.162   9.452
 2443POPC   PO433036  16.419  36.697   9.476
 2443POPC   GL133037  16.601  36.914   9.153
 2443POPC   GL233038  16.918  36.738   9.118
 2443POPC   C1A33039  16.535  37.015   8.717
 2443POPC   D2A33040  16.750  36.954   8.319
 2443POPC   C3A33041  16.481  36.798   7.994
 2443POPC   C4A33042  16.375  37.066   7.692
 2443POPC   C1B33043  17.037  37.033   8.812
 2443POPC   C2B33044  17.241  37.141   8.440
 2443POPC   C3B33045  17.188  37.091   8.027
 2443POPC   C4B33046  16.948  36.833   7.791
 2444POPC   NC333047  15.263  19.472   9.534
 2444POPC   PO433048  15.198  18.795   9.558
 2444POPC   GL133049  15.200  19.079   9.196
 2444POPC   GL233050  14.969  19.381   9.096
 2444POPC   C1A33051  15.057  18.975   8.787
 2444POPC   D2A33052  14.933  19.152   8.404
 2444POPC   C3A33053  15.155  18.985   8.070
 2444POPC   C4A33054  15.057  19.263   7.747
 2444POPC   C1B33055  15.325  19.389   8.806
 2444POPC   C2B33056  15.473  19.347   8.386
 2444POPC   C3B33057  15.522  19.380   7.945
 2444POPC   C4B33058  15.509  19.020   7.681
 2445POPC   NC333059  27.353   0.265   9.684
 2445POPC   PO433060  27.874   0.722   9.681
 2445POPC   GL133061  27.723   0.557   9.273
 2445POPC   GL233062  28.000   0.676   9.058
 2445POPC   C1A33063  27.647   0.297   8.868
 2445POPC   D2A33064  27.495   0.372   8.426
 2445POPC   C3A33065  27.536   0.236   7.985
 2445POPC   C4A33066  27.229   0.388   7.702
 2445POPC   C1B33067  27.609   0.811   8.842
 2445POPC   C2B33068  27.416   0.890   8.456
 2445POPC   C3B33069  27.372   0.743   8.057
 2445POPC   C4B33070  27.638   0.699   7.697
 2446POPC   NC333071   4.462  29.441   9.386
 2446POPC   PO433072   4.636  28.810   9.465
 2446POPC   GL133073   4.406  28.985   9.117
 2446POPC   GL233074   4.078  29.173   9.160
 2446POPC   C1A33075   4.416  29.224   8.739
 2446POPC   D2A33076   4.389  29.070   8.334
 2446POPC   C3A33077   4.426  29.356   8.015
 2446POPC   C4A33078   4.708  29.393   7.724
 2446POPC   C1B33079   3.971  28.955   8.760
 2446POPC   C2B33080   3.838  29.069   8.343
 2446POPC   C3B33081   4.025  28.973   7.953
 2446POPC   C4B33082   3.955  28.923   7.529
 2447POPC   NC333083  32.443  22.247   9.558
 2447POPC   PO433084  32.195  21.634   9.347
 2447POPC   GL133085  32.462  21.880   9.069
 2447POPC   GL233086  32.438  22.256   9.040
 2447POPC   C1A33087  32.630  21.928   8.646
 2447POPC   D2A33088  32.558  22.221   8.304
 2447POPC   C3A33089  32.399  22.049   7.938
 2447POPC   C4A33090  32.338  21.653   7.700
 2447POPC   C1B33091  32.162  22.119   8.689
 2447POPC   C2B33092  32.009  22.150   8.256
 2447POPC   C3B33093  31.962  22.396   7.879
 2447POPC   C4B33094  31.858  22.507   7.442
 2448POPC   NC333095  22.866   5.553   9.469
 2448POPC   PO433096  23.226   6.100   9.235
 2448POPC   GL133097  22.944   5.864   9.076
 2448POPC   GL233098  23.159   5.613   9.048
 2448POPC   C1A33099  22.717   5.818   8.703
 2448POPC   D2A33100  22.577   5.521   8.395
 2448POPC   C3A33101  22.709   5.687   7.981
 2448POPC   C4A33102  22.823   5.824   7.541
 2448POPC   C1B33103  23.235   5.905   8.630
 2448POPC   C2B33104  23.082   6.177   8.292
 2448POPC   C3B33105  23.083   6.109   7.858
 2448POPC   C4B33106  23.331   5.849   7.559
 2449POPC   NC333107   7.690  41.017   9.444
 2449POPC   PO433108   8.159  40.652   9.771
 2449POPC   GL133109   8.168  40.768   9.280
 2449POPC   GL233110   7.985  41.015   9.036
 2449POPC   C1A33111   8.467  40.855   8.898
 2449POPC   D2A33112   8.560  40.788   8.419
 2449POPC   C3A33113   8.296  40.906   8.020
 2449POPC   C4A33114   8.339  40.649   7.593
 2449POPC   C1B33115   8.024  40.733   8.702
 2449POPC   C2B33116   7.903  40.732   8.304
 2449POPC   C3B33117   7.970  40.536   7.915
 2449POPC   C4B33118   7.895  40.853   7.534
 2450POPC   NC333119  18.009  28.493   9.456
 2450POPC   PO433120  17.274  28.398   9.498
 2450POPC   GL133121  17.553  28.416   9.175
 2450POPC   GL233122  17.257  28.583   8.999
 2450POPC   C1A33123  17.612  28.316   8.756
 2450POPC   D2A33124  17.363  28.596   8.480
 2450POPC   C3A33125  17.274  28.389   8.115
 2450POPC   C4A33126  17.537  28.392   7.791
 2450POPC   C1B33127  17.111  28.229   8.733
 2450POPC   C2B33128  17.371  27.969   8.475
 2450POPC   C3B33129  17.400  27.838   8.084
 2450POPC   C4B33130  17.205  28.004   7.738
 2451POPC   NC333131  18.073  35.374   9.650
 2451POPC   PO433132  18.740  35.596   9.480
 2451POPC   GL133133  18.367  35.430   9.215
 2451POPC   GL233134  18.075  35.643   9.182
 2451POPC   C1A33135  18.123  35.373   8.773
 2451POPC   D2A33136  18.112  35.551   8.334
 2451POPC   C3A33137  18.145  35.247   7.940
 2451POPC   C4A33138  17.962  35.010   7.541
 2451POPC   C1B33139  18.441  35.770   8.838
 2451POPC   C2B33140  18.518  35.864   8.395
 2451POPC   C3B33141  18.546  35.606   8.001
 2451POPC   C4B33142  18.665  35.188   7.892
 2452POPC   NC333143  39.982  21.778   9.726
 2452POPC   PO433144  39.697  22.407   9.523
 2452POPC   GL133145  39.938  22.295   9.201
 2452POPC   GL233146  39.785  21.978   9.121
 2452POPC   C1A33147  40.136  22.261   8.789
 2452POPC   D2A33148  39.924  22.049   8.431
 2452POPC   C3A33149  40.117  21.988   8.026
 2452POPC   C4A33150  40.205  22.258   7.662
 2452POPC   C1B33151  39.629  22.283   8.788
 2452POPC   C2B33152  39.496  22.430   8.384
 2452POPC   C3B33153  39.726  22.341   8.022
 2452POPC   C4B33154  39.724  22.413   7.599
 2453POPC   NC333155  13.456  14.897   9.412
 2453POPC   PO433156  13.501  14.298   9.672
 2453POPC   GL133157  13.582  14.253   9.214
 2453POPC   GL233158  13.677  14.568   9.085
 2453POPC   C1A33159  13.362  14.271   8.827
 2453POPC   D2A33160  13.481  14.165   8.431
 2453POPC   C3A33161  13.424  14.367   8.014
 2453POPC   C4A33162  13.638  14.212   7.617
 2453POPC   C1B33163  13.829  14.511   8.650
 2453POPC   C2B33164  13.710  14.740   8.271
 2453POPC   C3B33165  13.707  14.828   7.839
 2453POPC   C4B33166  13.537  14.707   7.479
 2454POPC   NC333167  17.332  20.886   9.265
 2454POPC   PO433168  17.811  20.425   9.548
 2454POPC   GL133169  17.690  20.529   9.148
 2454POPC   GL233170  17.395  20.439   8.992
 2454POPC   C1A33171  17.705  20.759   8.743
 2454POPC   D2A33172  17.527  20.766   8.343
 2454POPC   C3A33173  17.740  20.644   7.935
 2454POPC   C4A33174  17.671  20.881   7.539
 2454POPC   C1B33175  17.430  20.307   8.600
 2454POPC   C2B33176  17.137  20.454   8.316
 2454POPC   C3B33177  17.225  20.630   7.966
 2454POPC   C4B33178  17.360  20.462   7.587
 2455POPC   NC333179   7.936  24.919   9.571
 2455POPC   PO433180   8.437  25.346   9.474
 2455POPC   GL133181   8.092  25.415   9.223
 2455POPC   GL233182   8.088  25.083   9.111
 2455POPC   C1A33183   8.085  25.476   8.780
 2455POPC   D2A33184   8.088  25.182   8.428
 2455POPC   C3A33185   8.198  25.381   8.044
 2455POPC   C4A33186   8.109  25.540   7.649
 2455POPC   C1B33187   8.442  25.079   8.826
 2455POPC   C2B33188   8.489  24.844   8.447
 2455POPC   C3B33189   8.492  24.929   8.053
 2455POPC   C4B33190   8.435  25.108   7.684
 2456POPC   NC333191  44.951  17.990   9.544
 2456POPC   PO433192  44.378  18.397   9.519
 2456POPC   GL133193  44.454  18.233   9.147
 2456POPC   GL233194  44.586  17.932   9.183
 2456POPC   C1A33195  44.550  18.195   8.722
 2456POPC   D2A33196  44.528  18.348   8.301
 2456POPC   C3A33197  44.830  18.437   7.987
 2456POPC   C4A33198  44.561  18.267   7.629
 2456POPC   C1B33199  44.914  17.845   8.833
 2456POPC   C2B33200  44.932  17.988   8.404
 2456POPC   C3B33201  44.735  17.918   7.984
 2456POPC   C4B33202  44.655  17.779   7.545
 2457POPC   NC333203  18.832  22.244   9.651
 2457POPC   PO433204  19.285  22.559   9.298
 2457POPC   GL133205  19.147  22.237   9.099
 2457POPC   GL233206  18.810  22.173   9.155
 2457POPC   C1A33207  19.040  22.368   8.693
 2457POPC   D2A33208  19.306  22.392   8.361
 2457POPC   C3A33209  19.112  22.432   7.995
 2457POPC   C4A33210  19.203  22.148   7.707
 2457POPC   C1B33211  18.875  21.913   8.806
 2457POPC   C2B33212  19.092  21.925   8.396
 2457POPC   C3B33213  18.873  21.915   8.023
 2457POPC   C4B33214  18.751  21.938   7.617
 2458POPC   NC333215  17.190  22.560   9.820
 2458POPC   PO433216  17.807  22.702   9.524
 2458POPC   GL133217  17.721  22.757   9.104
 2458POPC   GL233218  17.451  22.974   9.115
 2458POPC   C1A33219  17.697  22.767   8.676
 2458POPC   D2A33220  17.522  22.915   8.317
 2458POPC   C3A33221  17.542  22.700   7.931
 2458POPC   C4A33222  17.670  22.863   7.541
 2458POPC   C1B33223  17.187  22.958   8.752
 2458POPC   C2B33224  17.102  23.217   8.385
 2458POPC   C3B33225  17.293  23.224   7.979
 2458POPC   C4B33226  17.225  23.165   7.534
 2459POPC   NC333227  12.252  19.350   9.503
 2459POPC   PO433228  11.707  19.047   9.692
 2459POPC   GL133229  11.804  19.114   9.259
 2459POPC   GL233230  12.090  18.921   9.265
 2459POPC   C1A33231  12.044  19.294   8.878
 2459POPC   D2A33232  12.043  19.099   8.458
 2459POPC   C3A33233  12.334  19.080   8.156
 2459POPC   C4A33234  12.235  19.230   7.762
 2459POPC   C1B33235  12.030  18.768   8.847
 2459POPC   C2B33236  12.264  18.632   8.471
 2459POPC   C3B33237  12.326  18.577   8.037
 2459POPC   C4B33238  12.404  18.765   7.628
 2460POPC   NC333239  21.134  38.067   9.478
 2460POPC   PO433240  21.452  38.702   9.377
 2460POPC   GL133241  21.293  38.401   9.109
 2460POPC   GL233242  21.526  38.087   9.151
 2460POPC   C1A33243  21.287  38.622   8.723
 2460POPC   D2A33244  21.589  38.642   8.399
 2460POPC   C3A33245  21.384  38.796   8.042
 2460POPC   C4A33246  21.518  38.810   7.616
 2460POPC   C1B33247  21.547  38.183   8.722
 2460POPC   C2B33248  21.639  38.140   8.306
 2460POPC   C3B33249  21.587  38.325   7.917
 2460POPC   C4B33250  21.231  38.389   7.717
 2461POPC   NC333251   6.422  20.607   9.804
 2461POPC   PO433252   6.807  20.939   9.416
 2461POPC   GL133253   6.518  20.665   9.245
 2461POPC   GL233254   6.736  20.385   9.161
 2461POPC   C1A33255   6.421  20.727   8.805
 2461POPC   D2A33256   6.368  20.964   8.384
 2461POPC   C3A33257   6.391  20.728   7.975
 2461POPC   C4A33258   6.504  20.796   7.523
 2461POPC   C1B33259   6.830  20.465   8.696
 2461POPC   C2B33260   6.932  20.642   8.263
 2461POPC   C3B33261   6.827  20.498   7.821
 2461POPC   C4B33262   6.474  20.270   7.730
 2462POPC   NC333263  28.383  28.158   9.443
 2462POPC   PO433264  28.139  28.853   9.578
 2462POPC   GL133265  28.244  28.608   9.172
 2462POPC   GL233266  28.110  28.297   9.056
 2462POPC   C1A33267  28.461  28.543   8.759
 2462POPC   D2A33268  28.344  28.650   8.368
 2462POPC   C3A33269  28.477  28.412   8.021
 2462POPC   C4A33270  28.306  28.342   7.606
 2462POPC   C1B33271  28.300  28.002   8.772
 2462POPC   C2B33272  28.356  27.991   8.325
 2462POPC   C3B33273  28.071  28.096   7.992
 2462POPC   C4B33274  27.823  28.065   7.645
 2463POPC   NC333275   2.587  14.306   9.493
 2463POPC   PO433276   2.945  14.739   9.887
 2463POPC   GL133277   3.031  14.494   9.414
 2463POPC   GL233278   3.248  14.409   9.206
 2463POPC   C1A33279   2.853  14.299   8.924
 2463POPC   D2A33280   2.670  14.506   8.553
 2463POPC   C3A33281   2.698  14.461   8.094
 2463POPC   C4A33282   2.398  14.601   7.797
 2463POPC   C1B33283   3.308  14.459   8.766
 2463POPC   C2B33284   3.125  14.295   8.390
 2463POPC   C3B33285   3.175  14.394   7.951
 2463POPC   C4B33286   2.946  14.395   7.552
 2464POPC   NC333287  21.251  34.095   9.497
 2464POPC   PO433288  21.638  33.497   9.527
 2464POPC   GL133289  21.642  33.685   9.105
 2464POPC   GL233290  21.625  34.057   9.126
 2464POPC   C1A33291  21.624  33.544   8.673
 2464POPC   D2A33292  21.349  33.601   8.319
 2464POPC   C3A33293  21.625  33.454   7.986
 2464POPC   C4A33294  21.740  33.592   7.561
 2464POPC   C1B33295  21.371  33.977   8.739
 2464POPC   C2B33296  21.154  34.122   8.381
 2464POPC   C3B33297  21.129  33.959   7.969
 2464POPC   C4B33298  21.446  34.180   7.729
 2465POPC   NC333299  10.750  17.627   9.392
 2465POPC   PO433300  10.361  18.075   9.746
 2465POPC   GL133301  10.016  17.865   9.256
 2465POPC   GL233302  10.224  17.521   9.138
 2465POPC   C1A33303  10.150  17.807   8.730
 2465POPC   D2A33304  10.466  17.845   8.388
 2465POPC   C3A33305  10.493  17.636   8.011
 2465POPC   C4A33306  10.304  17.332   7.794
 2465POPC   C1B33307  10.578  17.519   8.773
 2465POPC   C2B33308  10.628  17.302   8.377
 2465POPC   C3B33309  10.838  17.265   7.995
 2465POPC   C4B33310  11.108  17.311   7.680
 2466POPC   NC333311   7.784  22.300   9.506
 2466POPC   PO433312   8.297  21.974   9.525
 2466POPC   GL133313   8.123  21.978   9.139
 2466POPC   GL233314   8.102  22.326   9.115
 2466POPC   C1A33315   7.969  22.031   8.698
 2466POPC   D2A33316   7.957  21.811   8.330
 2466POPC   C3A33317   8.109  21.917   7.954
 2466POPC   C4A33318   7.858  21.985   7.622
 2466POPC   C1B33319   8.168  22.503   8.740
 2466POPC   C2B33320   8.118  22.379   8.355
 2466POPC   C3B33321   7.972  22.612   8.036
 2466POPC   C4B33322   8.103  22.425   7.707
 2467POPC   NC333323  42.518  39.641   9.494
 2467POPC   PO433324  42.281  40.153   9.449
 2467POPC   GL133325  42.306  39.891   9.094
 2467POPC   GL233326  42.662  39.846   9.042
 2467POPC   C1A33327  42.161  39.806   8.680
 2467POPC   D2A33328  41.939  39.911   8.288
 2467POPC   C3A33329  42.200  39.829   7.942
 2467POPC   C4A33330  42.550  39.515   7.934
 2467POPC   C1B33331  42.554  40.185   8.754
 2467POPC   C2B33332  42.479  40.070   8.338
 2467POPC   C3B33333  42.603  40.138   7.927
 2467POPC   C4B33334  42.514  40.505   7.735
 2468POPC   NC333335  23.953  12.535   9.331
 2468POPC   PO433336  23.482  13.036   9.471
 2468POPC   GL133337  23.698  12.960   9.117
 2468POPC   GL233338  23.568  12.726   9.052
 2468POPC   C1A33339  23.891  13.036   8.707
 2468POPC   D2A33340  23.902  12.808   8.291
 2468POPC   C3A33341  23.927  12.984   7.912
 2468POPC   C4A33342  23.583  13.135   7.758
 2468POPC   C1B33343  23.626  12.618   8.674
 2468POPC   C2B33344  23.402  12.628   8.317
 2468POPC   C3B33345  23.515  12.605   7.877
 2468POPC   C4B33346  23.388  12.410   7.464
 2469POPC   NC333347  10.005  33.728   9.821
 2469POPC   PO433348  10.690  33.657   9.801
 2469POPC   GL133349  10.695  33.610   9.282
 2469POPC   GL233350  10.654  33.948   9.105
 2469POPC   C1A33351  10.469  33.566   8.823
 2469POPC   D2A33352  10.339  33.424   8.392
 2469POPC   C3A33353  10.457  33.650   8.009
 2469POPC   C4A33354  10.818  33.825   7.771
 2469POPC   C1B33355  10.290  34.039   8.823
 2469POPC   C2B33356  10.112  33.899   8.426
 2469POPC   C3B33357  10.048  34.066   8.015
 2469POPC   C4B33358  10.337  34.042   7.688
 2470POPC   NC333359  21.607  28.637   9.555
 2470POPC   PO433360  21.212  28.023   9.557
 2470POPC   GL133361  21.372  28.288   9.217
 2470POPC   GL233362  21.173  28.605   9.248
 2470POPC   C1A33363  21.629  28.226   8.828
 2470POPC   D2A33364  21.720  28.370   8.401
 2470POPC   C3A33365  21.534  28.094   8.091
 2470POPC   C4A33366  21.543  27.933   7.688
 2470POPC   C1B33367  21.374  28.678   8.838
 2470POPC   C2B33368  21.379  28.779   8.402
 2470POPC   C3B33369  21.416  28.591   7.974
 2470POPC   C4B33370  21.206  28.631   7.563
 2471POPC   NC333371  14.028   6.425   9.329
 2471POPC   PO433372  13.649   6.942   9.616
 2471POPC   GL133373  13.603   6.722   9.241
 2471POPC   GL233374  13.285   6.551   9.270
 2471POPC   C1A33375  13.670   6.722   8.791
 2471POPC   D2A33376  13.557   6.835   8.378
 2471POPC   C3A33377  13.812   6.632   8.068
 2471POPC   C4A33378  13.703   6.769   7.661
 2471POPC   C1B33379  13.437   6.295   8.952
 2471POPC   C2B33380  13.406   6.324   8.528
 2471POPC   C3B33381  13.346   6.427   8.109
 2471POPC   C4B33382  13.504   6.278   7.741
 2472POPC   NC333383  37.900  16.340   9.742
 2472POPC   PO433384  38.405  15.731   9.589
 2472POPC   GL133385  38.508  15.858   9.168
 2472POPC   GL233386  38.437  15.531   9.094
 2472POPC   C1A33387  38.497  16.184   8.813
 2472POPC   D2A33388  38.660  16.396   8.421
 2472POPC   C3A33389  38.667  16.254   7.993
 2472POPC   C4A33390  38.321  16.224   7.718
 2472POPC   C1B33391  38.589  15.695   8.706
 2472POPC   C2B33392  38.445  15.924   8.365
 2472POPC   C3B33393  38.295  15.786   8.013
 2472POPC   C4B33394  38.392  15.745   7.589
 2473POPC   NC333395  40.716   2.187   9.454
 2473POPC   PO433396  40.717   1.545   9.492
 2473POPC   GL133397  40.859   1.781   9.161
 2473POPC   GL233398  40.515   1.834   9.110
 2473POPC   C1A33399  40.867   2.099   8.808
 2473POPC   D2A33400  41.139   2.192   8.460
 2473POPC   C3A33401  40.930   2.182   8.067
 2473POPC   C4A33402  40.977   2.266   7.664
 2473POPC   C1B33403  40.354   2.052   8.786
 2473POPC   C2B33404  40.536   2.174   8.415
 2473POPC   C3B33405  40.403   2.227   8.017
 2473POPC   C4B33406  40.525   2.030   7.675
 2474POPC   NC333407  29.176   4.582   9.511
 2474POPC   PO433408  29.308   3.948   9.431
 2474POPC   GL133409  29.090   4.260   9.113
 2474POPC   GL233410  29.281   4.571   9.020
 2474POPC   C1A33411  28.822   4.556   8.849
 2474POPC   D2A33412  29.051   4.804   8.567
 2474POPC   C3A33413  29.035   4.672   8.134
 2474POPC   C4A33414  29.120   4.776   7.693
 2474POPC   C1B33415  29.228   4.318   8.623
 2474POPC   C2B33416  29.423   4.190   8.224
 2474POPC   C3B33417  29.471   4.425   7.866
 2474POPC   C4B33418  29.244   4.330   7.484
 2475POPC   NC333419  29.631  26.999   9.300
 2475POPC   PO433420  29.600  26.469   9.687
 2475POPC   GL133421  29.856  26.520   9.254
 2475POPC   GL233422  29.994  26.794   9.021
 2475POPC   C1A33423  29.830  26.427   8.747
 2475POPC   D2A33424  29.935  26.776   8.419
 2475POPC   C3A33425  29.867  26.708   7.963
 2475POPC   C4A33426  29.917  26.657   7.501
 2475POPC   C1B33427  30.194  27.098   8.748
 2475POPC   C2B33428  30.365  27.144   8.343
 2475POPC   C3B33429  30.321  27.016   7.927
 2475POPC   C4B33430  30.382  26.875   7.513
 2476POPC   NC333431  22.546  24.249   9.374
 2476POPC   PO433432  21.802  24.391   9.550
 2476POPC   GL133433  22.008  24.450   9.145
 2476POPC   GL233434  22.304  24.640   9.137
 2476POPC   C1A33435  22.178  24.284   8.729
 2476POPC   D2A33436  22.320  24.204   8.291
 2476POPC   C3A33437  22.011  24.451   7.953
 2476POPC   C4A33438  21.791  24.489   7.534
 2476POPC   C1B33439  22.309  24.792   8.759
 2476POPC   C2B33440  22.170  24.674   8.380
 2476POPC   C3B33441  22.396  24.772   7.994
 2476POPC   C4B33442  22.805  24.881   7.848
 2477POPC   NC333443  44.519  18.819   9.439
 2477POPC   PO433444   0.048  19.219   9.541
 2477POPC   GL133445  44.838  19.126   9.175
 2477POPC   GL233446  44.882  18.760   9.102
 2477POPC   C1A33447  44.807  19.175   8.746
 2477POPC   D2A33448   0.119  19.280   8.465
 2477POPC   C3A33449   0.036  19.170   8.053
 2477POPC   C4A33450  44.686  19.148   7.798
 2477POPC   C1B33451  44.670  18.693   8.698
 2477POPC   C2B33452  44.573  18.877   8.281
 2477POPC   C3B33453  44.423  18.726   7.887
 2477POPC   C4B33454  44.353  18.924   7.490
 2478POPC   NC333455  11.675  33.078   9.544
 2478POPC   PO433456  12.194  32.706   9.729
 2478POPC   GL133457  12.059  32.874   9.285
 2478POPC   GL233458  11.712  32.706   9.193
 2478POPC   C1A33459  12.258  33.072   8.879
 2478POPC   D2A33460  12.173  33.370   8.596
 2478POPC   C3A33461  12.399  33.273   8.249
 2478POPC   C4A33462  12.221  33.151   7.860
 2478POPC   C1B33463  11.761  33.003   8.855
 2478POPC   C2B33464  11.930  32.972   8.431
 2478POPC   C3B33465  11.791  32.927   8.023
 2478POPC   C4B33466  11.932  32.754   7.653
 2479POPC   NC333467   9.610  43.241  10.071
 2479POPC   PO433468  10.069  43.047   9.658
 2479POPC   GL133469   9.768  43.126   9.295
 2479POPC   GL233470   9.798  42.766   9.253
 2479POPC   C1A33471   9.640  43.291   8.845
 2479POPC   D2A33472   9.863  43.441   8.429
 2479POPC   C3A33473   9.793  43.253   7.994
 2479POPC   C4A33474   9.940  43.409   7.563
 2479POPC   C1B33475   9.749  42.723   8.835
 2479POPC   C2B33476   9.807  42.929   8.458
 2479POPC   C3B33477   9.852  42.753   8.083
 2479POPC   C4B33478   9.758  42.801   7.716
 2480POPC   NC333479   5.007  30.951   9.454
 2480POPC   PO433480   4.709  30.454   9.574
 2480POPC   GL133481   4.845  30.510   9.144
 2480POPC   GL233482   5.182  30.574   9.159
 2480POPC   C1A33483   4.832  30.430   8.696
 2480POPC   D2A33484   4.841  30.718   8.341
 2480POPC   C3A33485   5.184  30.732   8.092
 2480POPC   C4A33486   5.182  30.774   7.663
 2480POPC   C1B33487   5.327  30.698   8.766
 2480POPC   C2B33488   5.603  30.596   8.466
 2480POPC   C3B33489   5.542  30.363   8.097
 2480POPC   C4B33490   5.587  30.477   7.680
 2481POPC   NC333491  32.694  14.471   9.873
 2481POPC   PO433492  32.111  14.484   9.528
 2481POPC   GL133493  32.144  14.385   9.104
 2481POPC   GL233494  31.878  14.630   9.076
 2481POPC   C1A33495  32.470  14.326   8.776
 2481POPC   D2A33496  32.519  14.178   8.334
 2481POPC   C3A33497  32.380  14.554   8.093
 2481POPC   C4A33498  32.401  14.479   7.687
 2481POPC   C1B33499  31.743  14.460   8.726
 2481POPC   C2B33500  32.055  14.352   8.458
 2481POPC   C3B33501  31.970  14.285   8.048
 2481POPC   C4B33502  31.913  14.592   7.754
 2482POPC   NC333503   1.554   0.604  10.119
 2482POPC   PO433504   1.203   0.643   9.547
 2482POPC   GL133505   1.116   0.569   9.127
 2482POPC   GL233506   1.470   0.537   9.083
 2482POPC   C1A33507   1.069   0.306   8.749
 2482POPC   D2A33508   1.333   0.294   8.353
 2482POPC   C3A33509   1.365   0.131   7.924
 2482POPC   C4A33510   1.094   0.197   7.554
 2482POPC   C1B33511   1.683   0.393   8.722
 2482POPC   C2B33512   1.834   0.296   8.309
 2482POPC   C3B33513   1.733   0.471   7.911
 2482POPC   C4B33514   1.578   0.524   7.484
 2483POPC   NC333515   4.822  16.271   9.456
 2483POPC   PO433516   5.095  15.679   9.248
 2483POPC   GL133517   4.917  15.968   9.023
 2483POPC   GL233518   5.122  16.281   9.046
 2483POPC   C1A33519   5.008  15.903   8.575
 2483POPC   D2A33520   5.394  15.970   8.333
 2483POPC   C3A33521   5.437  15.778   7.928
 2483POPC   C4A33522   5.103  15.753   7.680
 2483POPC   C1B33523   4.829  16.355   8.715
 2483POPC   C2B33524   4.965  16.360   8.326
 2483POPC   C3B33525   4.897  16.175   7.942
 2483POPC   C4B33526   4.531  16.240   7.734
 2484POPC   NC333527  41.018  36.756   9.536
 2484POPC   PO433528  40.429  36.955   9.384
 2484POPC   GL133529  40.778  36.928   9.117
 2484POPC   GL233530  41.067  37.168   9.192
 2484POPC   C1A33531  40.709  36.887   8.707
 2484POPC   D2A33532  40.473  37.045   8.404
 2484POPC   C3A33533  40.526  36.820   8.038
 2484POPC   C4A33534  40.638  36.583   7.687
 2484POPC   C1B33535  41.203  36.987   8.791
 2484POPC   C2B33536  41.098  36.796   8.387
 2484POPC   C3B33537  41.036  36.964   7.995
 2484POPC   C4B33538  41.003  36.888   7.577
 2485POPC   NC333539  38.764   0.337   9.562
 2485POPC   PO433540  38.264   0.771   9.482
 2485POPC   GL133541  38.498   0.529   9.137
 2485POPC   GL233542  38.659   0.164   9.106
 2485POPC   C1A33543  38.339   0.311   8.742
 2485POPC   D2A33544  38.128   0.369   8.356
 2485POPC   C3A33545  38.376   0.353   8.014
 2485POPC   C4A33546  38.445   0.530   7.595
 2485POPC   C1B33547  38.665  44.906   8.794
 2485POPC   C2B33548  38.831   0.063   8.411
 2485POPC   C3B33549  38.832   0.124   7.968
 2485POPC   C4B33550  38.798   0.127   7.518
 2486POPC   NC333551   4.811  11.595   9.646
 2486POPC   PO433552   5.320  11.207   9.817
 2486POPC   GL133553   5.265  11.293   9.354
 2486POPC   GL233554   4.931  11.340   9.217
 2486POPC   C1A33555   5.323  11.258   8.880
 2486POPC   D2A33556   5.287  11.467   8.489
 2486POPC   C3A33557   5.079  11.182   8.235
 2486POPC   C4A33558   5.268  11.102   7.836
 2486POPC   C1B33559   4.958  11.636   8.842
 2486POPC   C2B33560   4.802  11.622   8.373
 2486POPC   C3B33561   4.999  11.579   7.926
 2486POPC   C4B33562   5.094  11.522   7.454
 2487POPC   NC333563  16.641   6.963   9.782
 2487POPC   PO433564  16.918   6.474   9.267
 2487POPC   GL133565  16.614   6.581   8.934
 2487POPC   GL233566  16.410   6.945   8.911
 2487POPC   C1A33567  16.806   6.719   8.617
 2487POPC   D2A33568  16.784   6.447   8.300
 2487POPC   C3A33569  16.957   6.654   7.963
 2487POPC   C4A33570  16.755   6.594   7.595
 2487POPC   C1B33571  16.322   6.778   8.509
 2487POPC   C2B33572  16.520   6.871   8.133
 2487POPC   C3B33573  16.368   6.923   7.726
 2487POPC   C4B33574  16.446   6.857   7.292
 2488POPC   NC333575   1.997  23.265   9.296
 2488POPC   PO433576   1.870  22.608   9.502
 2488POPC   GL133577   1.925  22.808   9.093
 2488POPC   GL233578   1.600  22.962   9.004
 2488POPC   C1A33579   2.011  23.081   8.693
 2488POPC   D2A33580   2.256  23.283   8.419
 2488POPC   C3A33581   2.092  23.047   8.117
 2488POPC   C4A33582   1.972  23.070   7.708
 2488POPC   C1B33583   1.769  22.645   8.648
 2488POPC   C2B33584   1.820  22.457   8.220
 2488POPC   C3B33585   1.905  22.554   7.799
 2488POPC   C4B33586   1.800  22.687   7.392
 2489POPC   NC333587  40.011  38.928   9.555
 2489POPC   PO433588  39.753  39.549   9.516
 2489POPC   GL133589  40.004  39.349   9.180
 2489POPC   GL233590  40.191  39.058   9.118
 2489POPC   C1A33591  39.967  39.503   8.757
 2489POPC   D2A33592  39.908  39.337   8.348
 2489POPC   C3A33593  39.944  39.468   7.893
 2489POPC   C4A33594  40.046  39.184   7.499
 2489POPC   C1B33595  40.367  39.196   8.755
 2489POPC   C2B33596  40.323  39.055   8.384
 2489POPC   C3B33597  40.142  39.011   7.993
 2489POPC   C4B33598  40.264  38.763   7.676
 2490POPC   NC333599  14.218  40.398   9.825
 2490POPC   PO433600  14.560  40.808   9.455
 2490POPC   GL133601  14.520  40.961   9.059
 2490POPC   GL233602  14.811  41.156   9.088
 2490POPC   C1A33603  14.224  41.021   8.713
 2490POPC   D2A33604  14.071  40.763   8.368
 2490POPC   C3A33605  14.239  40.858   7.962
 2490POPC   C4A33606  14.489  40.578   7.725
 2490POPC   C1B33607  14.740  41.183   8.653
 2490POPC   C2B33608  14.482  41.246   8.305
 2490POPC   C3B33609  14.562  41.255   7.885
 2490POPC   C4B33610  14.804  41.010   7.666
 2491POPC   NC333611  25.773   8.466   9.477
 2491POPC   PO433612  26.387   8.264   9.562
 2491POPC   GL133613  26.152   8.284   9.145
 2491POPC   GL233614  25.865   8.053   9.175
 2491POPC   C1A33615  26.078   8.141   8.694
 2491POPC   D2A33616  25.938   8.236   8.284
 2491POPC   C3A33617  26.073   8.266   7.846
 2491POPC   C4A33618  26.322   8.337   7.445
 2491POPC   C1B33619  25.623   7.888   8.842
 2491POPC   C2B33620  25.721   7.779   8.441
 2491POPC   C3B33621  25.570   7.766   8.042
 2491POPC   C4B33622  25.541   7.996   7.686
 2492POPC   NC333623  20.726  37.036   9.461
 2492POPC   PO433624  20.202  36.691   9.588
 2492POPC   GL133625  20.257  36.871   9.199
 2492POPC   GL233626  20.399  36.566   9.070
 2492POPC   C1A33627  20.507  37.001   8.838
 2492POPC   D2A33628  20.614  37.253   8.509
 2492POPC   C3A33629  20.595  37.101   8.084
 2492POPC   C4A33630  20.858  36.908   7.785
 2492POPC   C1B33631  20.532  36.380   8.666
 2492POPC   C2B33632  20.528  36.599   8.253
 2492POPC   C3B33633  20.285  36.748   7.881
 2492POPC   C4B33634  20.491  36.750   7.478
 2493POPC   NC333635   1.452  11.127   9.561
 2493POPC   PO433636   0.848  11.448   9.341
 2493POPC   GL133637   1.134  11.137   9.149
 2493POPC   GL233638   1.462  11.308   9.092
 2493POPC   C1A33639   1.283  10.982   8.751
 2493POPC   D2A33640   1.175  11.137   8.353
 2493POPC   C3A33641   1.357  11.195   7.974
 2493POPC   C4A33642   1.480  11.321   7.598
 2493POPC   C1B33643   1.251  11.502   8.772
 2493POPC   C2B33644   1.141  11.644   8.407
 2493POPC   C3B33645   0.944  11.528   8.061
 2493POPC   C4B33646   1.012  11.486   7.635
 2494POPC   NC333647   3.281  21.061   9.412
 2494POPC   PO433648   3.700  21.612   9.531
 2494POPC   GL133649   3.620  21.369   9.179
 2494POPC   GL233650   3.810  21.097   9.190
 2494POPC   C1A33651   3.326  21.258   8.811
 2494POPC   D2A33652   3.250  21.508   8.461
 2494POPC   C3A33653   3.447  21.431   8.058
 2494POPC   C4A33654   3.257  21.572   7.701
 2494POPC   C1B33655   3.818  21.230   8.728
 2494POPC   C2B33656   3.895  21.344   8.299
 2494POPC   C3B33657   3.922  21.316   7.835
 2494POPC   C4B33658   3.622  21.249   7.516
 2495POPC   NC333659  20.082  22.106   9.522
 2495POPC   PO433660  19.414  22.254   9.706
 2495POPC   GL133661  19.652  22.217   9.264
 2495POPC   GL233662  19.836  22.475   9.188
 2495POPC   C1A33663  19.591  22.192   8.806
 2495POPC   D2A33664  19.792  22.007   8.446
 2495POPC   C3A33665  19.543  22.001   8.071
 2495POPC   C4A33666  19.635  21.909   7.628
 2495POPC   C1B33667  19.827  22.679   8.781
 2495POPC   C2B33668  19.791  22.536   8.383
 2495POPC   C3B33669  19.650  22.510   7.977
 2495POPC   C4B33670  19.893  22.465   7.646
 2496POPC   NC333671  42.678   2.358   9.506
 2496POPC   PO433672  43.114   1.893   9.754
 2496POPC   GL133673  43.116   1.965   9.242
 2496POPC   GL233674  42.891   2.154   9.082
 2496POPC   C1A33675  43.295   1.963   8.812
 2496POPC   D2A33676  43.283   2.171   8.392
 2496POPC   C3A33677  43.250   1.966   8.009
 2496POPC   C4A33678  42.874   1.749   7.891
 2496POPC   C1B33679  42.822   2.516   8.810
 2496POPC   C2B33680  42.827   2.552   8.373
 2496POPC   C3B33681  42.802   2.236   8.068
 2496POPC   C4B33682  42.973   2.229   7.644
 2497POPC   NC333683  22.472   5.179   9.689
 2497POPC   PO433684  21.917   4.798   9.533
 2497POPC   GL133685  21.980   4.977   9.155
 2497POPC   GL233686  22.224   5.255   9.224
 2497POPC   C1A33687  21.888   5.236   8.812
 2497POPC   D2A33688  22.070   5.315   8.442
 2497POPC   C3A33689  22.071   5.027   8.105
 2497POPC   C4A33690  22.104   5.236   7.728
 2497POPC   C1B33691  22.369   5.054   8.829
 2497POPC   C2B33692  22.484   5.010   8.408
 2497POPC   C3B33693  22.540   5.189   7.995
 2497POPC   C4B33694  22.472   4.899   7.663
 2498POPC   NC333695  28.756   3.966   9.339
 2498POPC   PO433696  29.204   3.539   9.768
 2498POPC   GL133697  29.001   3.525   9.311
 2498POPC   GL233698  29.314   3.524   9.127
 2498POPC   C1A33699  28.926   3.409   8.838
 2498POPC   D2A33700  29.136   3.137   8.540
 2498POPC   C3A33701  29.141   3.243   8.074
 2498POPC   C4A33702  29.246   3.346   7.644
 2498POPC   C1B33703  29.295   3.806   8.768
 2498POPC   C2B33704  29.265   3.664   8.339
 2498POPC   C3B33705  29.286   3.791   7.906
 2498POPC   C4B33706  29.218   3.819   7.456
 2499POPC   NC333707  41.787  28.927   9.439
 2499POPC   PO433708  41.369  29.487   9.498
 2499POPC   GL133709  41.507  29.265   9.154
 2499POPC   GL233710  41.793  29.422   9.092
 2499POPC   C1A33711  41.423  28.957   8.830
 2499POPC   D2A33712  41.285  28.939   8.425
 2499POPC   C3A33713  41.179  29.315   8.222
 2499POPC   C4A33714  41.424  29.130   7.919
 2499POPC   C1B33715  41.897  29.138   8.738
 2499POPC   C2B33716  41.813  29.047   8.281
 2499POPC   C3B33717  41.872  28.930   7.871
 2499POPC   C4B33718  41.728  28.984   7.479
 2500POPC   NC333719   9.354  12.825   9.511
 2500POPC   PO433720   8.692  13.106   9.539
 2500POPC   GL133721   8.951  12.945   9.147
 2500POPC   GL233722   9.224  13.130   9.141
 2500POPC   C1A33723   8.853  12.818   8.687
 2500POPC   D2A33724   9.085  12.761   8.262
 2500POPC   C3A33725   8.913  12.959   7.851
 2500POPC   C4A33726   8.831  12.825   7.403
 2500POPC   C1B33727   9.333  12.915   8.766
 2500POPC   C2B33728   9.385  13.152   8.362
 2500POPC   C3B33729   9.416  13.040   7.938
 2500POPC   C4B33730   9.299  13.007   7.478
 2501POPC   NC333731  26.092  44.394   9.529
 2501POPC   PO433732  25.564  44.780   9.448
 2501POPC   GL133733  25.772  44.523   9.134
 2501POPC   GL233734  26.153  44.557   9.058
 2501POPC   C1A33735  25.807  44.711   8.726
 2501POPC   D2A33736  25.977  44.623   8.318
 2501POPC   C3A33737  25.769  44.783   7.956
 2501POPC   C4A33738  25.619  44.548   7.587
 2501POPC   C1B33739  26.312  44.801   8.718
 2501POPC   C2B33740  26.112   0.110   8.442
 2501POPC   C3B33741  26.142   0.132   7.994
 2501POPC   C4B33742  26.335  44.836   7.720
 2502POPC   NC333743   2.277  15.404   9.400
 2502POPC   PO433744   1.989  14.885   9.633
 2502POPC   GL133745   2.070  15.022   9.174
 2502POPC   GL233746   1.853  15.280   9.053
 2502POPC   C1A33747   2.142  15.060   8.692
 2502POPC   D2A33748   1.798  15.215   8.412
 2502POPC   C3A33749   1.940  15.248   7.977
 2502POPC   C4A33750   2.206  15.565   7.789
 2502POPC   C1B33751   1.723  14.859   8.870
 2502POPC   C2B33752   1.724  14.699   8.469
 2502POPC   C3B33753   1.583  14.864   8.091
 2502POPC   C4B33754   1.507  15.085   7.701
 2503POPC   NC333755   2.980  36.448   9.331
 2503POPC   PO433756   2.846  37.148   9.346
 2503POPC   GL133757   2.903  36.888   9.083
 2503POPC   GL233758   2.593  36.741   9.146
 2503POPC   C1A33759   2.885  36.861   8.679
 2503POPC   D2A33760   3.078  37.068   8.380
 2503POPC   C3A33761   3.033  36.844   8.083
 2503POPC   C4A33762   2.863  36.914   7.756
 2503POPC   C1B33763   2.422  37.041   8.851
 2503POPC   C2B33764   2.294  36.993   8.457
 2503POPC   C3B33765   2.552  37.090   8.149
 2503POPC   C4B33766   2.423  37.137   7.763
 2504POPC   NC333767  43.374  12.101   9.401
 2504POPC   PO433768  44.013  12.219   9.657
 2504POPC   GL133769  43.955  12.197   9.226
 2504POPC   GL233770  43.808  11.866   9.196
 2504POPC   C1A33771  43.889  12.123   8.771
 2504POPC   D2A33772  44.099  12.167   8.408
 2504POPC   C3A33773  43.872  12.201   8.030
 2504POPC   C4A33774  43.963  11.989   7.604
 2504POPC   C1B33775  43.499  11.821   8.837
 2504POPC   C2B33776  43.499  12.001   8.387
 2504POPC   C3B33777  43.491  11.893   7.909
 2504POPC   C4B33778  43.546  11.806   7.419
 2505POPC   NC333779  26.108  22.100   9.435
 2505POPC   PO433780  26.403  22.758   9.446
 2505POPC   GL133781  26.184  22.449   9.078
 2505POPC   GL233782  25.885  22.152   8.993
 2505POPC   C1A33783  26.218  22.253   8.638
 2505POPC   D2A33784  25.858  22.027   8.421
 2505POPC   C3A33785  25.913  22.142   7.996
 2505POPC   C4A33786  26.317  22.309   7.842
 2505POPC   C1B33787  26.134  21.785   8.779
 2505POPC   C2B33788  26.358  21.822   8.310
 2505POPC   C3B33789  26.307  21.785   7.829
 2505POPC   C4B33790  26.019  21.957   7.509
 2506POPC   NC333791  37.851   6.546   9.500
 2506POPC   PO433792  37.683   5.963   9.544
 2506POPC   GL133793  37.799   5.773   9.148
 2506POPC   GL233794  37.938   6.098   9.091
 2506POPC   C1A33795  37.736   5.526   8.749
 2506POPC   D2A33796  37.486   5.474   8.372
 2506POPC   C3A33797  37.633   5.594   7.955
 2506POPC   C4A33798  37.403   5.716   7.573
 2506POPC   C1B33799  37.694   6.035   8.682
 2506POPC   C2B33800  37.576   6.021   8.234
 2506POPC   C3B33801  37.479   6.204   7.847
 2506POPC   C4B33802  37.343   6.202   7.402
 2507POPC   NC333803  21.915  19.830   9.705
 2507POPC   PO433804  22.225  20.255   9.308
 2507POPC   GL133805  22.202  19.867   9.131
 2507POPC   GL233806  21.906  19.735   9.215
 2507POPC   C1A33807  22.389  19.831   8.745
 2507POPC   D2A33808  22.197  19.963   8.372
 2507POPC   C3A33809  22.365  19.939   7.949
 2507POPC   C4A33810  22.372  20.119   7.513
 2507POPC   C1B33811  21.862  19.713   8.774
 2507POPC   C2B33812  21.989  19.501   8.393
 2507POPC   C3B33813  21.964  19.622   8.002
 2507POPC   C4B33814  21.925  19.558   7.590
 2508POPC   NC333815  35.899  37.908   9.497
 2508POPC   PO433816  36.439  37.574   9.784
 2508POPC   GL133817  36.374  37.763   9.317
 2508POPC   GL233818  36.110  37.549   9.181
 2508POPC   C1A33819  36.383  37.744   8.807
 2508POPC   D2A33820  36.544  37.578   8.388
 2508POPC   C3A33821  36.484  37.877   8.044
 2508POPC   C4A33822  36.074  37.833   7.924
 2508POPC   C1B33823  35.959  37.426   8.780
 2508POPC   C2B33824  36.014  37.538   8.359
 2508POPC   C3B33825  35.902  37.288   8.019
 2508POPC   C4B33826  35.974  37.168   7.632
 2509POPC   NC333827  23.102  34.748   9.568
 2509POPC   PO433828  22.416  34.743   9.658
 2509POPC   GL133829  22.680  34.732   9.294
 2509POPC   GL233830  22.908  34.427   9.188
 2509POPC   C1A33831  22.824  34.842   8.896
 2509POPC   D2A33832  22.940  34.571   8.555
 2509POPC   C3A33833  22.915  34.792   8.167
 2509POPC   C4A33834  22.914  34.605   7.779
 2509POPC   C1B33835  23.130  34.183   8.848
 2509POPC   C2B33836  23.266  34.121   8.401
 2509POPC   C3B33837  23.143  34.155   7.957
 2509POPC   C4B33838  23.404  34.326   7.626
 2510POPC   NC333839   3.627  23.114   9.420
 2510POPC   PO433840   3.724  23.628   9.835
 2510POPC   GL133841   3.717  23.637   9.300
 2510POPC   GL233842   3.377  23.802   9.152
 2510POPC   C1A33843   3.634  23.482   8.833
 2510POPC   D2A33844   3.752  23.574   8.371
 2510POPC   C3A33845   3.787  23.561   7.910
 2510POPC   C4A33846   3.693  23.803   7.553
 2510POPC   C1B33847   3.454  23.973   8.794
 2510POPC   C2B33848   3.606  24.088   8.423
 2510POPC   C3B33849   3.558  23.987   8.035
 2510POPC   C4B33850   3.360  24.154   7.707
 2511POPC   NC333851  25.581  12.470   9.949
 2511POPC   PO433852  25.139  12.093   9.567
 2511POPC   GL133853  25.410  12.171   9.188
 2511POPC   GL233854  25.463  11.847   9.036
 2511POPC   C1A33855  25.336  12.232   8.724
 2511POPC   D2A33856  25.472  12.049   8.312
 2511POPC   C3A33857  25.303  12.260   7.935
 2511POPC   C4A33858  24.904  12.200   7.706
 2511POPC   C1B33859  25.288  11.691   8.645
 2511POPC   C2B33860  25.172  11.616   8.201
 2511POPC   C3B33861  25.229  11.778   7.769
 2511POPC   C4B33862  25.556  12.040   7.534
 2512POPC   NC333863  32.599  27.809   9.822
 2512POPC   PO433864  33.112  27.446   9.479
 2512POPC   GL133865  33.069  27.724   9.142
 2512POPC   GL233866  32.740  27.896   9.103
 2512POPC   C1A33867  32.980  27.661   8.700
 2512POPC   D2A33868  32.939  27.454   8.335
 2512POPC   C3A33869  33.182  27.519   7.998
 2512POPC   C4A33870  32.896  27.679   7.682
 2512POPC   C1B33871  33.074  28.138   8.836
 2512POPC   C2B33872  32.968  28.215   8.421
 2512POPC   C3B33873  32.938  27.963   8.099
 2512POPC   C4B33874  33.295  27.981   7.814
 2513POPC   NC333875  30.322  10.573   9.768
 2513POPC   PO433876  30.700  10.408   9.201
 2513POPC   GL133877  30.577  10.781   8.999
 2513POPC   GL233878  30.366  10.559   8.801
 2513POPC   C1A33879  30.503  11.006   8.604
 2513POPC   D2A33880  30.431  10.740   8.239
 2513POPC   C3A33881  30.800  10.639   8.025
 2513POPC   C4A33882  30.890  10.691   7.606
 2513POPC   C1B33883  30.814  10.572   8.584
 2513POPC   C2B33884  30.969  10.192   8.400
 2513POPC   C3B33885  30.600  10.177   8.167
 2513POPC   C4B33886  30.629  10.256   7.737
 2514POPC   NC333887  13.185  36.382   9.376
 2514POPC   PO433888  12.582  36.009   9.592
 2514POPC   GL133889  12.890  36.027   9.176
 2514POPC   GL233890  13.100  35.777   9.147
 2514POPC   C1A33891  12.819  36.154   8.677
 2514POPC   D2A33892  12.666  36.243   8.276
 2514POPC   C3A33893  12.789  36.030   7.914
 2514POPC   C4A33894  12.558  36.037   7.547
 2514POPC   C1B33895  13.285  36.038   8.797
 2514POPC   C2B33896  13.185  36.095   8.339
 2514POPC   C3B33897  13.208  36.334   7.959
 2514POPC   C4B33898  12.977  36.340   7.540
 2515POPC   NC333899  20.120  14.564   9.483
 2515POPC   PO433900  19.732  14.115   9.501
 2515POPC   GL133901  19.849  14.317   9.122
 2515POPC   GL233902  20.159  14.157   9.114
 2515POPC   C1A33903  19.714  14.460   8.707
 2515POPC   D2A33904  19.522  14.296   8.324
 2515POPC   C3A33905  19.688  14.329   7.913
 2515POPC   C4A33906  19.845  14.734   7.828
 2515POPC   C1B33907  20.168  14.171   8.685
 2515POPC   C2B33908  20.023  14.180   8.287
 2515POPC   C3B33909  20.198  14.354   7.915
 2515POPC   C4B33910  20.082  14.420   7.500
 2516POPC   NC333911   0.162   9.988   9.501
 2516POPC   PO433912   0.354  10.656   9.433
 2516POPC   GL133913   0.520  10.587   9.078
 2516POPC   GL233914   0.487  10.222   9.137
 2516POPC   C1A33915   0.470  10.837   8.713
 2516POPC   D2A33916   0.347  10.699   8.311
 2516POPC   C3A33917   0.685  10.584   8.025
 2516POPC   C4A33918   0.724  10.660   7.576
 2516POPC   C1B33919   0.215  10.341   8.764
 2516POPC   C2B33920  44.967  10.353   8.378
 2516POPC   C3B33921   0.266  10.271   8.048
 2516POPC   C4B33922   0.261  10.474   7.682
 2517POPC   NC333923  41.142   1.383   9.570
 2517POPC   PO433924  40.646   0.901   9.534
 2517POPC   GL133925  40.907   0.912   9.156
 2517POPC   GL233926  40.934   1.268   9.115
 2517POPC   C1A33927  40.763   0.983   8.719
 2517POPC   D2A33928  40.430   1.171   8.466
 2517POPC   C3A33929  40.592   1.255   8.075
 2517POPC   C4A33930  40.904   0.954   7.975
 2517POPC   C1B33931  40.752   1.513   8.739
 2517POPC   C2B33932  40.874   1.753   8.360
 2517POPC   C3B33933  40.847   1.692   7.910
 2517POPC   C4B33934  40.876   1.321   7.631
 2518POPC   NC333935   8.577  19.749  10.049
 2518POPC   PO433936   8.049  19.645   9.577
 2518POPC   GL133937   7.955  19.606   9.143
 2518POPC   GL233938   8.185  19.891   9.093
 2518POPC   C1A33939   7.873  19.756   8.720
 2518POPC   D2A33940   8.075  19.593   8.373
 2518POPC   C3A33941   8.027  19.792   8.001
 2518POPC   C4A33942   7.746  20.097   7.862
 2518POPC   C1B33943   8.390  19.801   8.728
 2518POPC   C2B33944   8.373  20.003   8.343
 2518POPC   C3B33945   8.529  19.703   8.096
 2518POPC   C4B33946   8.467  19.647   7.702
 2519POPC   NC333947  42.872  43.596   9.316
 2519POPC   PO433948  43.345  44.025   9.492
 2519POPC   GL133949  43.172  43.942   9.109
 2519POPC   GL233950  42.803  44.076   9.169
 2519POPC   C1A33951  43.273  43.666   8.751
 2519POPC   D2A33952  43.048  43.564   8.379
 2519POPC   C3A33953  43.108  43.827   8.050
 2519POPC   C4A33954  43.426  43.747   7.779
 2519POPC   C1B33955  42.787  43.841   8.742
 2519POPC   C2B33956  42.773  44.040   8.364
 2519POPC   C3B33957  42.725  44.255   7.977
 2519POPC   C4B33958  42.814  44.050   7.584
 2520POPC   NC333959   3.033  34.594   9.392
 2520POPC   PO433960   3.654  34.455   9.598
 2520POPC   GL133961   3.475  34.400   9.192
 2520POPC   GL233962   3.434  34.775   9.146
 2520POPC   C1A33963   3.444  34.142   8.805
 2520POPC   D2A33964   3.471  34.228   8.355
 2520POPC   C3A33965   3.876  34.393   8.191
 2520POPC   C4A33966   3.917  34.758   7.902
 2520POPC   C1B33967   3.661  34.733   8.762
 2520POPC   C2B33968   3.540  34.768   8.335
 2520POPC   C3B33969   3.444  34.579   7.952
 2520POPC   C4B33970   3.449  34.906   7.668
 2521POPC   NC333971  44.106   0.776   9.705
 2521POPC   PO433972  43.857   1.307   9.466
 2521POPC   GL133973  43.971   1.209   9.090
 2521POPC   GL233974  44.136   1.517   9.021
 2521POPC   C1A33975  43.996   1.187   8.637
 2521POPC   D2A33976  43.953   1.297   8.213
 2521POPC   C3A33977  43.957   0.992   7.860
 2521POPC   C4A33978  43.551   0.881   7.678
 2521POPC   C1B33979  43.672   1.548   8.843
 2521POPC   C2B33980  43.555   1.721   8.438
 2521POPC   C3B33981  43.671   1.686   8.024
 2521POPC   C4B33982  43.744   1.409   7.704
 2522POPC   NC333983  24.068   4.101   9.592
 2522POPC   PO433984  23.410   4.240   9.582
 2522POPC   GL133985  23.681   4.278   9.235
 2522POPC   GL233986  23.808   3.957   9.126
 2522POPC   C1A33987  23.668   4.331   8.776
 2522POPC   D2A33988  23.529   4.546   8.405
 2522POPC   C3A33989  23.686   4.443   8.013
 2522POPC   C4A33990  23.555   4.099   7.828
 2522POPC   C1B33991  24.060   4.030   8.713
 2522POPC   C2B33992  23.904   4.029   8.313
 2522POPC   C3B33993  24.043   4.023   7.910
 2522POPC   C4B33994  24.023   4.153   7.500
 2523POPC   NC333995   3.375  42.730   9.844
 2523POPC   PO433996   3.501  43.211   9.356
 2523POPC   GL133997   3.361  43.158   8.992
 2523POPC   GL233998   3.138  43.370   9.031
 2523POPC   C1A33999   3.380  43.095   8.594
 2523POPC   D2A34000   3.701  43.102   8.353
 2523POPC   C3A34001   3.651  42.889   8.001
 2523POPC   C4A34002   3.507  43.094   7.651
 2523POPC   C1B34003   3.189  43.610   8.727
 2523POPC   C2B34004   3.006  43.395   8.410
 2523POPC   C3B34005   3.241  43.238   8.091
 2523POPC   C4B34006   3.188  43.516   7.741
 2524POPC   NC334007  16.254  17.804   9.507
 2524POPC   PO434008  16.004  17.232   9.759
 2524POPC   GL134009  15.908  17.273   9.223
 2524POPC   GL234010  15.971  17.635   9.115
 2524POPC   C1A34011  15.929  17.287   8.739
 2524POPC   D2A34012  15.946  17.608   8.397
 2524POPC   C3A34013  15.753  17.647   7.962
 2524POPC   C4A34014  15.798  17.421   7.561
 2524POPC   C1B34015  16.316  17.657   8.796
 2524POPC   C2B34016  16.432  17.823   8.415
 2524POPC   C3B34017  16.330  17.641   8.051
 2524POPC   C4B34018  16.199  17.675   7.666
 2525POPC   NC334019  38.911  14.475   9.438
 2525POPC   PO434020  39.555  14.241   9.452
 2525POPC   GL134021  39.498  14.087   9.048
 2525POPC   GL234022  39.149  14.199   9.076
 2525POPC   C1A34023  39.409  14.189   8.598
 2525POPC   D2A34024  39.280  14.535   8.292
 2525POPC   C3A34025  39.406  14.545   7.854
 2525POPC   C4A34026  39.389  14.268   7.482
 2525POPC   C1B34027  38.955  14.487   8.728
 2525POPC   C2B34028  38.877  14.854   8.402
 2525POPC   C3B34029  39.060  14.896   7.954
 2525POPC   C4B34030  39.020  14.620   7.541
 2526POPC   NC334031  15.606  41.731   9.557
 2526POPC   PO434032  14.978  41.393   9.532
 2526POPC   GL134033  15.298  41.420   9.220
 2526POPC   GL234034  15.343  41.758   9.122
 2526POPC   C1A34035  15.168  41.411   8.788
 2526POPC   D2A34036  15.009  41.559   8.394
 2526POPC   C3A34037  15.069  41.314   8.025
 2526POPC   C4A34038  15.099  41.425   7.573
 2526POPC   C1B34039  15.583  41.711   8.743
 2526POPC   C2B34040  15.536  41.540   8.315
 2526POPC   C3B34041  15.458  41.657   7.868
 2526POPC   C4B34042  15.482  41.719   7.398
 2527POPC   NC334043  25.274  28.273   9.989
 2527POPC   PO434044  25.271  28.533   9.398
 2527POPC   GL134045  25.367  28.329   9.012
 2527POPC   GL234046  25.513  28.006   9.022
 2527POPC   C1A34047  25.258  28.475   8.631
 2527POPC   D2A34048  25.069  28.406   8.260
 2527POPC   C3A34049  25.386  28.524   7.964
 2527POPC   C4A34050  25.409  28.832   7.627
 2527POPC   C1B34051  25.172  27.973   8.675
 2527POPC   C2B34052  25.180  27.936   8.201
 2527POPC   C3B34053  25.166  28.082   7.751
 2527POPC   C4B34054  25.066  28.016   7.253
 2528POPC   NC334055  10.613  36.462   9.561
 2528POPC   PO434056  10.585  35.807   9.474
 2528POPC   GL134057  10.573  36.160   9.137
 2528POPC   GL234058  10.877  36.431   9.120
 2528POPC   C1A34059  10.361  36.054   8.729
 2528POPC   D2A34060  10.352  35.724   8.421
 2528POPC   C3A34061  10.579  35.785   8.005
 2528POPC   C4A34062  10.474  36.062   7.662
 2528POPC   C1B34063  10.825  36.291   8.699
 2528POPC   C2B34064  10.582  36.295   8.310
 2528POPC   C3B34065  10.707  36.439   7.908
 2528POPC   C4B34066  10.699  36.447   7.428
 2529POPC   NC334067  18.401  12.614   9.489
 2529POPC   PO434068  17.781  12.851   9.365
 2529POPC   GL134069  18.165  12.885   9.135
 2529POPC   GL234070  18.217  12.516   9.027
 2529POPC   C1A34071  18.439  12.932   8.783
 2529POPC   D2A34072  18.640  12.839   8.397
 2529POPC   C3A34073  18.559  13.092   8.034
 2529POPC   C4A34074  18.596  12.837   7.677
 2529POPC   C1B34075  17.959  12.723   8.705
 2529POPC   C2B34076  18.120  12.895   8.371
 2529POPC   C3B34077  18.256  12.673   8.033
 2529POPC   C4B34078  18.070  12.762   7.676
 2530POPC   NC334079  23.642  33.576   9.428
 2530POPC   PO434080  23.245  34.195   9.543
 2530POPC   GL134081  23.510  34.053   9.183
 2530POPC   GL234082  23.885  33.983   9.165
 2530POPC   C1A34083  23.516  33.849   8.778
 2530POPC   D2A34084  23.663  33.785   8.355
 2530POPC   C3A34085  23.665  34.061   8.011
 2530POPC   C4A34086  23.788  33.927   7.599
 2530POPC   C1B34087  24.032  33.795   8.737
 2530POPC   C2B34088  24.172  33.746   8.283
 2530POPC   C3B34089  24.078  33.543   7.859
 2530POPC   C4B34090  24.047  33.497   7.385
 2531POPC   NC334091  22.245  21.898   9.698
 2531POPC   PO434092  21.879  22.406   9.498
 2531POPC   GL134093  22.050  22.108   9.250
 2531POPC   GL234094  22.319  22.307   9.174
 2531POPC   C1A34095  21.962  21.967   8.859
 2531POPC   D2A34096  22.171  21.968   8.458
 2531POPC   C3A34097  21.979  22.045   8.082
 2531POPC   C4A34098  21.947  21.942   7.668
 2531POPC   C1B34099  22.616  22.426   8.869
 2531POPC   C2B34100  22.585  22.251   8.446
 2531POPC   C3B34101  22.469  22.319   7.987
 2531POPC   C4B34102  22.707  22.571   7.724
 2532POPC   NC334103  39.533  41.455   9.504
 2532POPC   PO434104  38.933  41.668   9.565
 2532POPC   GL134105  39.037  41.430   9.214
 2532POPC   GL234106  39.314  41.586   9.054
 2532POPC   C1A34107  39.003  41.265   8.799
 2532POPC   D2A34108  39.159  41.269   8.388
 2532POPC   C3A34109  38.811  41.297   8.108
 2532POPC   C4A34110  38.850  41.181   7.683
 2532POPC   C1B34111  39.143  41.769   8.666
 2532POPC   C2B34112  38.987  41.793   8.230
 2532POPC   C3B34113  39.173  41.614   7.859
 2532POPC   C4B34114  39.503  41.713   7.498
 2533POPC   NC334115  19.737  30.899   9.970
 2533POPC   PO434116  20.015  30.595   9.491
 2533POPC   GL134117  19.856  30.715   9.128
 2533POPC   GL234118  20.046  31.019   9.065
 2533POPC   C1A34119  19.972  30.618   8.716
 2533POPC   D2A34120  20.004  30.398   8.340
 2533POPC   C3A34121  19.723  30.645   8.150
 2533POPC   C4A34122  19.515  30.654   7.766
 2533POPC   C1B34123  20.293  31.024   8.694
 2533POPC   C2B34124  20.176  30.900   8.262
 2533POPC   C3B34125  20.054  30.799   7.812
 2533POPC   C4B34126  20.068  31.058   7.381
 2534POPC   NC334127  44.106   4.397   9.613
 2534POPC   PO434128  44.784   4.460   9.496
 2534POPC   GL134129  44.735   4.320   9.106
 2534POPC   GL234130  44.431   4.138   9.129
 2534POPC   C1A34131  44.884   4.406   8.692
 2534POPC   D2A34132  44.825   4.647   8.316
 2534POPC   C3A34133  44.849   4.388   7.951
 2534POPC   C4A34134  44.519   4.463   7.665
 2534POPC   C1B34135  44.690   3.919   8.779
 2534POPC   C2B34136  44.783   4.019   8.350
 2534POPC   C3B34137  44.598   3.925   7.949
 2534POPC   C4B34138  44.750   3.731   7.599
 2535POPC   NC334139  36.076  18.431   9.780
 2535POPC   PO434140  36.086  19.153   9.683
 2535POPC   GL134141  36.102  19.222   9.234
 2535POPC   GL234142  35.985  18.961   9.046
 2535POPC   C1A34143  36.200  19.332   8.789
 2535POPC   D2A34144  36.172  19.108   8.379
 2535POPC   C3A34145  36.127  19.347   8.072
 2535POPC   C4A34146  35.847  19.292   7.808
 2535POPC   C1B34147  36.018  18.720   8.679
 2535POPC   C2B34148  35.948  18.669   8.226
 2535POPC   C3B34149  35.986  18.788   7.769
 2535POPC   C4B34150  35.782  18.782   7.313
 2536POPC   NC334151  37.523  25.926   9.586
 2536POPC   PO434152  38.201  26.024   9.656
 2536POPC   GL134153  37.900  25.841   9.258
 2536POPC   GL234154  37.702  26.160   9.174
 2536POPC   C1A34155  37.550  25.793   8.882
 2536POPC   D2A34156  37.618  26.065   8.465
 2536POPC   C3A34157  37.691  25.935   8.024
 2536POPC   C4A34158  37.390  25.874   7.672
 2536POPC   C1B34159  37.405  26.325   8.842
 2536POPC   C2B34160  37.346  26.482   8.362
 2536POPC   C3B34161  37.346  26.351   7.891
 2536POPC   C4B34162  37.628  26.321   7.508
 2537POPC   NC334163  22.763  33.995   9.463
 2537POPC   PO434164  23.141  33.376   9.348
 2537POPC   GL134165  23.004  33.721   9.079
 2537POPC   GL234166  22.629  33.742   9.029
 2537POPC   C1A34167  23.027  33.705   8.628
 2537POPC   D2A34168  23.276  33.452   8.329
 2537POPC   C3A34169  23.298  33.667   7.914
 2537POPC   C4A34170  23.279  33.873   7.466
 2537POPC   C1B34171  22.635  34.122   8.762
 2537POPC   C2B34172  22.766  34.079   8.362
 2537POPC   C3B34173  22.779  33.730   8.103
 2537POPC   C4B34174  22.825  33.837   7.690
 2538POPC   NC334175   6.404  10.513   9.600
 2538POPC   PO434176   7.085  10.313   9.474
 2538POPC   GL134177   6.768  10.267   9.190
 2538POPC   GL234178   6.472  10.078   9.286
 2538POPC   C1A34179   6.544  10.415   8.836
 2538POPC   D2A34180   6.672  10.397   8.404
 2538POPC   C3A34181   6.710  10.731   8.144
 2538POPC   C4A34182   6.935  10.770   7.762
 2538POPC   C1B34183   6.167  10.062   8.936
 2538POPC   C2B34184   6.161  10.231   8.523
 2538POPC   C3B34185   6.273  10.260   8.095
 2538POPC   C4B34186   6.531  10.432   7.749
 2539POPC   NC334187  12.396  18.074   9.425
 2539POPC   PO434188  11.873  18.266   9.755
 2539POPC   GL134189  11.993  18.377   9.284
 2539POPC   GL234190  12.353  18.494   9.149
 2539POPC   C1A34191  11.942  18.269   8.825
 2539POPC   D2A34192  11.782  18.455   8.424
 2539POPC   C3A34193  11.912  18.285   8.006
 2539POPC   C4A34194  11.855  18.569   7.633
 2539POPC   C1B34195  12.465  18.259   8.780
 2539POPC   C2B34196  12.282  18.119   8.399
 2539POPC   C3B34197  12.366  18.047   7.989
 2539POPC   C4B34198  12.261  18.265   7.612
 2540POPC   NC334199   8.789  10.921   9.580
 2540POPC   PO434200   8.760  11.608   9.731
 2540POPC   GL134201   8.696  11.397   9.337
 2540POPC   GL234202   9.063  11.381   9.243
 2540POPC   C1A34203   8.720  11.150   8.925
 2540POPC   D2A34204   8.972  11.417   8.631
 2540POPC   C3A34205   8.962  11.471   8.159
 2540POPC   C4A34206   8.883  11.242   7.751
 2540POPC   C1B34207   9.239  11.061   8.937
 2540POPC   C2B34208   9.196  10.965   8.487
 2540POPC   C3B34209   9.276  11.051   8.047
 2540POPC   C4B34210   9.310  11.010   7.596
 2541POPC   NC334211  26.194   1.797   9.433
 2541POPC   PO434212  25.595   2.156   9.590
 2541POPC   GL134213  25.818   2.243   9.164
 2541POPC   GL234214  26.159   2.186   9.105
 2541POPC   C1A34215  25.825   2.382   8.725
 2541POPC   D2A34216  26.113   2.411   8.351
 2541POPC   C3A34217  25.939   2.094   8.110
 2541POPC   C4A34218  25.923   2.020   7.681
 2541POPC   C1B34219  26.417   2.108   8.743
 2541POPC   C2B34220  26.430   1.948   8.325
 2541POPC   C3B34221  26.392   2.065   7.905
 2541POPC   C4B34222  26.399   1.879   7.525
 2542POPC   NC334223  24.885  26.161   9.472
 2542POPC   PO434224  24.199  25.879   9.546
 2542POPC   GL134225  24.507  25.862   9.225
 2542POPC   GL234226  24.493  26.205   9.146
 2542POPC   C1A34227  24.564  25.823   8.780
 2542POPC   D2A34228  24.287  25.816   8.405
 2542POPC   C3A34229  24.497  25.711   8.018
 2542POPC   C4A34230  24.844  25.777   7.715
 2542POPC   C1B34231  24.756  26.395   8.848
 2542POPC   C2B34232  24.887  26.463   8.427
 2542POPC   C3B34233  24.846  26.273   8.036
 2542POPC   C4B34234  25.135  26.220   7.742
 2543POPC   NC334235   7.096   6.824   9.352
 2543POPC   PO434236   7.608   6.508   9.602
 2543POPC   GL134237   7.676   6.519   9.199
 2543POPC   GL234238   7.344   6.448   9.130
 2543POPC   C1A34239   7.681   6.453   8.753
 2543POPC   D2A34240   7.464   6.389   8.345
 2543POPC   C3A34241   7.625   6.684   8.035
 2543POPC   C4A34242   7.731   6.614   7.602
 2543POPC   C1B34243   7.208   6.646   8.728
 2543POPC   C2B34244   6.937   6.429   8.461
 2543POPC   C3B34245   7.026   6.197   8.097
 2543POPC   C4B34246   7.282   6.389   7.808
 2544POPC   NC334247   5.427  10.304   9.632
 2544POPC   PO434248   6.113  10.152   9.646
 2544POPC   GL134249   5.835  10.303   9.272
 2544POPC   GL234250   5.465  10.354   9.119
 2544POPC   C1A34251   5.964  10.560   8.915
 2544POPC   D2A34252   5.887  10.665   8.476
 2544POPC   C3A34253   6.118  10.763   8.105
 2544POPC   C4A34254   6.041  10.529   7.730
 2544POPC   C1B34255   5.460  10.709   8.795
 2544POPC   C2B34256   5.504  10.990   8.438
 2544POPC   C3B34257   5.567  10.747   8.075
 2544POPC   C4B34258   5.520  10.532   7.707
 2545POPC   NC334259  12.325   5.148   9.543
 2545POPC   PO434260  11.831   4.755   9.362
 2545POPC   GL134261  11.959   5.120   9.114
 2545POPC   GL234262  11.725   5.378   9.057
 2545POPC   C1A34263  11.975   5.164   8.656
 2545POPC   D2A34264  12.141   5.052   8.259
 2545POPC   C3A34265  12.033   5.183   7.863
 2545POPC   C4A34266  12.072   4.869   7.539
 2545POPC   C1B34267  11.621   5.524   8.683
 2545POPC   C2B34268  11.866   5.513   8.302
 2545POPC   C3B34269  11.701   5.583   7.928
 2545POPC   C4B34270  11.517   5.259   7.774
 2546POPC   NC334271  25.355  13.315   9.472
 2546POPC   PO434272  24.840  13.670   9.591
 2546POPC   GL134273  24.972  13.488   9.191
 2546POPC   GL234274  25.313  13.607   9.038
 2546POPC   C1A34275  24.958  13.335   8.788
 2546POPC   D2A34276  25.180  13.578   8.502
 2546POPC   C3A34277  24.954  13.594   8.142
 2546POPC   C4A34278  25.136  13.619   7.765
 2546POPC   C1B34279  25.641  13.715   8.709
 2546POPC   C2B34280  25.727  13.957   8.347
 2546POPC   C3B34281  25.609  13.847   7.926
 2546POPC   C4B34282  25.576  13.777   7.483
 2547POPC   NC334283  30.752  44.060   9.570
 2547POPC   PO434284  30.855  43.398   9.510
 2547POPC   GL134285  30.740  43.724   9.140
 2547POPC   GL234286  30.551  44.065   9.108
 2547POPC   C1A34287  30.567  43.794   8.684
 2547POPC   D2A34288  30.368  43.870   8.287
 2547POPC   C3A34289  30.425  43.523   8.042
 2547POPC   C4A34290  30.697  43.532   7.669
 2547POPC   C1B34291  30.920  44.143   8.834
 2547POPC   C2B34292  31.076  44.040   8.384
 2547POPC   C3B34293  30.798  43.975   7.974
 2547POPC   C4B34294  30.817  43.968   7.474
 2548POPC   NC334295  43.640  23.026   9.553
 2548POPC   PO434296  44.394  23.214   9.604
 2548POPC   GL134297  44.064  23.156   9.232
 2548POPC   GL234298  43.974  22.817   9.229
 2548POPC   C1A34299  43.773  23.097   8.831
 2548POPC   D2A34300  43.513  23.119   8.411
 2548POPC   C3A34301  43.713  23.049   8.022
 2548POPC   C4A34302  43.559  23.107   7.614
 2548POPC   C1B34303  43.926  22.615   8.833
 2548POPC   C2B34304  43.812  22.706   8.415
 2548POPC   C3B34305  43.739  22.515   8.028
 2548POPC   C4B34306  43.773  22.582   7.606
 2549POPC   NC334307  21.949  39.366   9.616
 2549POPC   PO434308  22.294  38.746   9.601
 2549POPC   GL134309  22.118  39.017   9.279
 2549POPC   GL234310  22.247  39.369   9.211
 2549POPC   C1A34311  22.112  39.040   8.845
 2549POPC   D2A34312  22.103  38.841   8.464
 2549POPC   C3A34313  22.174  39.065   8.097
 2549POPC   C4A34314  22.052  38.993   7.713
 2549POPC   C1B34315  22.168  39.580   8.844
 2549POPC   C2B34316  22.132  39.411   8.462
 2549POPC   C3B34317  21.998  39.539   8.067
 2549POPC   C4B34318  22.063  39.538   7.650
 2550POPC   NC334319   0.900  43.535   9.539
 2550POPC   PO434320   1.568  43.624   9.472
 2550POPC   GL134321   1.427  43.833   9.130
 2550POPC   GL234322   1.083  43.811   9.136
 2550POPC   C1A34323   1.546  43.950   8.746
 2550POPC   D2A34324   1.243  43.840   8.451
 2550POPC   C3A34325   1.334  43.812   8.054
 2550POPC   C4A34326   1.021  43.581   7.848
 2550POPC   C1B34327   0.829  43.935   8.782
 2550POPC   C2B34328   0.719  43.946   8.368
 2550POPC   C3B34329   0.985  44.182   8.136
 2550POPC   C4B34330   1.024  44.279   7.727
 2551POPC   NC334331   5.733  13.007   9.457
 2551POPC   PO434332   6.008  12.385   9.620
 2551POPC   GL134333   6.067  12.645   9.262
 2551POPC   GL234334   5.721  12.620   9.087
 2551POPC   C1A34335   6.123  12.745   8.819
 2551POPC   D2A34336   5.814  12.733   8.482
 2551POPC   C3A34337   5.998  12.872   8.092
 2551POPC   C4A34338   6.217  12.749   7.715
 2551POPC   C1B34339   5.657  13.056   8.837
 2551POPC   C2B34340   5.619  13.201   8.398
 2551POPC   C3B34341   5.479  12.885   8.113
 2551POPC   C4B34342   5.652  12.627   7.791
 2552POPC   NC334343  44.581   9.840   9.998
 2552POPC   PO434344  44.926   9.544   9.532
 2552POPC   GL134345  44.758   9.745   9.228
 2552POPC   GL234346  44.450   9.709   9.263
 2552POPC   C1A34347  44.695   9.488   8.869
 2552POPC   D2A34348  44.890   9.478   8.481
 2552POPC   C3A34349  44.752   9.352   8.106
 2552POPC   C4A34350  44.581   9.470   7.720
 2552POPC   C1B34351  44.263   9.785   8.856
 2552POPC   C2B34352  44.314   9.902   8.411
 2552POPC   C3B34353  44.458   9.911   7.979
 2552POPC   C4B34354  44.169   9.736   7.650
 2553POPC   NC334355  44.058  22.058   9.713
 2553POPC   PO434356  43.559  22.554   9.637
 2553POPC   GL134357  43.775  22.335   9.303
 2553POPC   GL234358  44.131  22.339   9.293
 2553POPC   C1A34359  43.801  22.126   8.882
 2553POPC   D2A34360  43.971  22.226   8.463
 2553POPC   C3A34361  43.894  22.032   8.063
 2553POPC   C4A34362  43.527  22.016   7.829
 2553POPC   C1B34363  44.327  22.291   8.900
 2553POPC   C2B34364  44.389  22.509   8.521
 2553POPC   C3B34365  44.222  22.566   8.146
 2553POPC   C4B34366  44.234  22.316   7.771
 2554POPC   NC334367  35.594  11.067   9.390
 2554POPC   PO434368  35.326  11.752   9.396
 2554POPC   GL134369  35.388  11.609   8.998
 2554POPC   GL234370  35.271  11.282   9.061
 2554POPC   C1A34371  35.690  11.408   8.730
 2554POPC   D2A34372  35.745  11.408   8.296
 2554POPC   C3A34373  35.356  11.415   8.108
 2554POPC   C4A34374  35.110  11.329   7.786
 2554POPC   C1B34375  35.230  11.208   8.638
 2554POPC   C2B34376  34.982  11.134   8.291
 2554POPC   C3B34377  34.968  10.862   7.915
 2554POPC   C4B34378  34.867  11.017   7.452
 2555POPC   NC334379  42.311   0.797   9.599
 2555POPC   PO434380  42.779   0.413   9.542
 2555POPC   GL134381  42.596   0.610   9.155
 2555POPC   GL234382  42.221   0.570   9.164
 2555POPC   C1A34383  42.435   0.713   8.725
 2555POPC   D2A34384  42.141   0.617   8.372
 2555POPC   C3A34385  42.309   0.579   7.952
 2555POPC   C4A34386  42.547   0.597   7.567
 2555POPC   C1B34387  42.130   0.323   8.819
 2555POPC   C2B34388  42.207   0.089   8.437
 2555POPC   C3B34389  42.140   0.051   7.997
 2555POPC   C4B34390  42.295   0.129   7.584
 2556POPC   NC334391  13.269   5.944   9.506
 2556POPC   PO434392  13.909   5.989   9.460
 2556POPC   GL134393  13.735   5.906   9.098
 2556POPC   GL234394  13.523   5.628   9.181
 2556POPC   C1A34395  13.827   6.054   8.671
 2556POPC   D2A34396  13.766   6.150   8.216
 2556POPC   C3A34397  13.757   5.850   7.877
 2556POPC   C4A34398  14.043   6.079   7.597
 2556POPC   C1B34399  13.346   5.786   8.799
 2556POPC   C2B34400  13.478   5.780   8.396
 2556POPC   C3B34401  13.282   5.931   8.071
 2556POPC   C4B34402  13.255   5.819   7.655
 2557POPC   NC334403  31.073  31.269   9.438
 2557POPC   PO434404  30.501  31.484   9.558
 2557POPC   GL134405  30.621  31.539   9.135
 2557POPC   GL234406  30.457  31.826   9.093
 2557POPC   C1A34407  30.759  31.446   8.707
 2557POPC   D2A34408  30.575  31.328   8.293
 2557POPC   C3A34409  30.836  31.351   7.909
 2557POPC   C4A34410  30.770  31.528   7.484
 2557POPC   C1B34411  30.633  31.939   8.699
 2557POPC   C2B34412  30.803  31.809   8.292
 2557POPC   C3B34413  30.617  31.854   7.879
 2557POPC   C4B34414  30.609  32.235   7.622
 2558POPC   NC334415  28.480   2.599   9.600
 2558POPC   PO434416  28.609   3.233   9.534
 2558POPC   GL134417  28.397   2.904   9.178
 2558POPC   GL234418  28.302   2.504   9.153
 2558POPC   C1A34419  28.207   2.815   8.757
 2558POPC   D2A34420  28.059   2.749   8.329
 2558POPC   C3A34421  28.378   2.914   8.072
 2558POPC   C4A34422  28.251   3.063   7.714
 2558POPC   C1B34423  28.556   2.459   8.868
 2558POPC   C2B34424  28.399   2.394   8.503
 2558POPC   C3B34425  28.396   2.404   8.086
 2558POPC   C4B34426  28.153   2.545   7.761
 2559POPC   NC334427  20.007  21.135   9.560
 2559POPC   PO434428  19.804  21.740   9.417
 2559POPC   GL134429  19.897  21.436   9.116
 2559POPC   GL234430  20.220  21.249   9.124
 2559POPC   C1A34431  19.845  21.541   8.699
 2559POPC   D2A34432  19.541  21.508   8.351
 2559POPC   C3A34433  19.791  21.551   7.970
 2559POPC   C4A34434  20.108  21.399   7.655
 2559POPC   C1B34435  19.997  20.992   8.869
 2559POPC   C2B34436  19.816  21.067   8.511
 2559POPC   C3B34437  19.815  21.063   8.121
 2559POPC   C4B34438  19.828  20.982   7.711
 2560POPC   NC334439   4.752  41.614   9.434
 2560POPC   PO434440   4.188  41.900   9.644
 2560POPC   GL134441   4.234  41.810   9.172
 2560POPC   GL234442   4.415  41.525   9.058
 2560POPC   C1A34443   4.014  41.742   8.749
 2560POPC   D2A34444   4.067  41.390   8.442
 2560POPC   C3A34445   4.276  41.366   8.039
 2560POPC   C4A34446   4.164  41.696   7.766
 2560POPC   C1B34447   4.517  41.793   8.728
 2560POPC   C2B34448   4.431  41.787   8.301
 2560POPC   C3B34449   4.641  41.794   7.896
 2560POPC   C4B34450   4.669  41.603   7.486
 2561POPC   NC334451   0.241  34.751   9.548
 2561POPC   PO434452   0.255  35.454   9.573
 2561POPC   GL134453   0.489  35.406   9.169
 2561POPC   GL234454   0.528  35.044   9.170
 2561POPC   C1A34455   0.494  35.536   8.722
 2561POPC   D2A34456   0.323  35.462   8.313
 2561POPC   C3A34457   0.545  35.534   7.957
 2561POPC   C4A34458   0.401  35.421   7.576
 2561POPC   C1B34459   0.320  35.028   8.776
 2561POPC   C2B34460   0.460  34.970   8.344
 2561POPC   C3B34461   0.318  35.048   7.913
 2561POPC   C4B34462   0.507  34.924   7.486
 2562POPC   NC334463   9.236  24.032   9.318
 2562POPC   PO434464   9.005  24.663   9.515
 2562POPC   GL134465   9.124  24.492   9.120
 2562POPC   GL234466   8.827  24.292   9.139
 2562POPC   C1A34467   9.169  24.260   8.705
 2562POPC   D2A34468   9.312  24.299   8.248
 2562POPC   C3A34469   9.159  24.607   7.929
 2562POPC   C4A34470   9.157  24.762   7.484
 2562POPC   C1B34471   8.751  24.556   8.782
 2562POPC   C2B34472   8.829  24.464   8.338
 2562POPC   C3B34473   8.778  24.250   7.947
 2562POPC   C4B34474   8.691  24.614   7.691
 2563POPC   NC334475  39.887  20.352   9.405
 2563POPC   PO434476  39.908  19.686   9.519
 2563POPC   GL134477  39.965  19.852   9.121
 2563POPC   GL234478  40.280  19.795   8.946
 2563POPC   C1A34479  39.746  19.948   8.756
 2563POPC   D2A34480  39.662  19.771   8.369
 2563POPC   C3A34481  39.945  19.866   8.016
 2563POPC   C4A34482  40.008  19.825   7.584
 2563POPC   C1B34483  40.195  19.903   8.492
 2563POPC   C2B34484  40.438  20.018   8.122
 2563POPC   C3B34485  40.514  19.812   7.765
 2563POPC   C4B34486  40.482  19.873   7.318
 2564POPC   NC334487  37.903   0.339   9.548
 2564POPC   PO434488  37.674   1.050   9.625
 2564POPC   GL134489  37.478   0.699   9.289
 2564POPC   GL234490  37.685   0.445   9.093
 2564POPC   C1A34491  37.383   0.710   8.798
 2564POPC   D2A34492  37.664   0.561   8.458
 2564POPC   C3A34493  37.509   0.446   8.049
 2564POPC   C4A34494  37.315   0.590   7.696
 2564POPC   C1B34495  37.836   0.173   8.766
 2564POPC   C2B34496  37.812  44.970   8.347
 2564POPC   C3B34497  37.896   0.150   7.923
 2564POPC   C4B34498  37.965   0.570   7.796
 2565POPC   NC334499   7.184  20.108   9.426
 2565POPC   PO434500   6.519  20.173   9.646
 2565POPC   GL134501   6.606  19.896   9.287
 2565POPC   GL234502   6.267  19.746   9.218
 2565POPC   C1A34503   6.849  19.963   8.872
 2565POPC   D2A34504   6.642  20.054   8.466
 2565POPC   C3A34505   6.782  20.030   8.066
 2565POPC   C4A34506   6.928  19.740   7.783
 2565POPC   C1B34507   6.411  19.723   8.790
 2565POPC   C2B34508   6.302  19.678   8.359
 2565POPC   C3B34509   6.375  19.742   7.888
 2565POPC   C4B34510   6.169  19.942   7.515
 2566POPC   NC334511   0.888   4.584   9.457
 2566POPC   PO434512   1.418   4.156   9.475
 2566POPC   GL134513   1.147   4.237   9.145
 2566POPC   GL234514   1.402   4.225   8.952
 2566POPC   C1A34515   0.960   4.486   8.801
 2566POPC   D2A34516   0.807   4.447   8.395
 2566POPC   C3A34517   0.997   4.608   8.005
 2566POPC   C4A34518   1.360   4.456   7.752
 2566POPC   C1B34519   1.373   4.341   8.526
 2566POPC   C2B34520   1.235   4.139   8.159
 2566POPC   C3B34521   1.488   3.959   7.808
 2566POPC   C4B34522   1.581   4.176   7.378
 2567POPC   NC334523   8.829  34.923   9.563
 2567POPC   PO434524   8.579  34.334   9.459
 2567POPC   GL134525   8.822  34.561   9.108
 2567POPC   GL234526   9.078  34.840   9.118
 2567POPC   C1A34527   8.958  34.650   8.662
 2567POPC   D2A34528   9.100  34.872   8.282
 2567POPC   C3A34529   9.129  34.554   7.994
 2567POPC   C4A34530   8.747  34.338   7.856
 2567POPC   C1B34531   8.786  35.085   8.859
 2567POPC   C2B34532   8.634  35.019   8.422
 2567POPC   C3B34533   8.649  34.831   8.012
 2567POPC   C4B34534   8.550  35.038   7.631
 2568POPC   NC334535   7.309  11.795   9.470
 2568POPC   PO434536   6.618  11.929   9.696
 2568POPC   GL134537   6.574  11.972   9.231
 2568POPC   GL234538   6.914  12.092   9.237
 2568POPC   C1A34539   6.472  12.095   8.790
 2568POPC   D2A34540   6.672  12.328   8.436
 2568POPC   C3A34541   6.520  12.153   8.030
 2568POPC   C4A34542   6.440  11.836   7.700
 2568POPC   C1B34543   6.995  12.136   8.810
 2568POPC   C2B34544   7.199  12.188   8.427
 2568POPC   C3B34545   7.064  12.280   8.004
 2568POPC   C4B34546   6.890  12.081   7.662
 2569POPC   NC334547  32.086   7.389   9.478
 2569POPC   PO434548  32.565   7.844   9.243
 2569POPC   GL134549  32.272   7.494   9.037
 2569POPC   GL234550  32.072   7.136   9.027
 2569POPC   C1A34551  32.008   7.561   8.749
 2569POPC   D2A34552  32.168   7.601   8.406
 2569POPC   C3A34553  31.936   7.533   8.112
 2569POPC   C4A34554  32.052   7.646   7.698
 2569POPC   C1B34555  32.419   7.033   8.757
 2569POPC   C2B34556  32.536   7.165   8.334
 2569POPC   C3B34557  32.410   7.382   7.970
 2569POPC   C4B34558  32.557   7.403   7.577
 2570POPC   NC334559  19.605  28.372   9.499
 2570POPC   PO434560  20.272  28.183   9.410
 2570POPC   GL134561  19.942  28.146   9.189
 2570POPC   GL234562  19.917  28.488   9.127
 2570POPC   C1A34563  19.908  28.126   8.779
 2570POPC   D2A34564  19.800  28.290   8.378
 2570POPC   C3A34565  20.027  28.224   8.031
 2570POPC   C4A34566  19.989  28.390   7.646
 2570POPC   C1B34567  20.002  28.616   8.741
 2570POPC   C2B34568  20.167  28.642   8.336
 2570POPC   C3B34569  19.987  28.803   7.989
 2570POPC   C4B34570  20.191  28.987   7.668
 2571POPC   NC334571  22.667   7.892   9.539
 2571POPC   PO434572  22.834   7.136   9.585
 2571POPC   GL134573  22.968   7.156   9.179
 2571POPC   GL234574  23.150   6.850   9.171
 2571POPC   C1A34575  22.969   7.472   8.844
 2571POPC   D2A34576  22.804   7.618   8.425
 2571POPC   C3A34577  23.089   7.632   8.060
 2571POPC   C4A34578  22.985   7.749   7.635
 2571POPC   C1B34579  23.271   7.034   8.791
 2571POPC   C2B34580  23.069   7.180   8.428
 2571POPC   C3B34581  23.209   7.142   8.029
 2571POPC   C4B34582  23.132   7.273   7.639
 2572POPC   NC334583  35.618  44.353   9.482
 2572POPC   PO434584  36.256  44.656   9.506
 2572POPC   GL134585  36.164  44.650   9.122
 2572POPC   GL234586  36.422  44.879   9.010
 2572POPC   C1A34587  35.920  44.712   8.763
 2572POPC   D2A34588  35.939  44.488   8.363
 2572POPC   C3A34589  35.961  44.699   7.972
 2572POPC   C4A34590  36.022  44.585   7.543
 2572POPC   C1B34591  36.405  44.504   8.699
 2572POPC   C2B34592  36.459  44.524   8.238
 2572POPC   C3B34593  36.317  44.327   7.871
 2572POPC   C4B34594  36.370  44.130   7.474
 2573POPC   NC334595  28.951   2.088   9.527
 2573POPC   PO434596  29.382   1.624   9.452
 2573POPC   GL134597  29.304   1.954   9.188
 2573POPC   GL234598  28.983   1.838   9.099
 2573POPC   C1A34599  29.408   1.999   8.763
 2573POPC   D2A34600  29.466   1.789   8.374
 2573POPC   C3A34601  29.215   1.900   8.042
 2573POPC   C4A34602  29.267   1.904   7.637
 2573POPC   C1B34603  28.938   2.151   8.806
 2573POPC   C2B34604  29.077   2.244   8.398
 2573POPC   C3B34605  28.898   2.309   8.000
 2573POPC   C4B34606  29.017   2.381   7.576
 2574POPC   NC334607  25.703   9.195   9.528
 2574POPC   PO434608  26.126   8.749   9.399
 2574POPC   GL134609  25.990   8.829   9.043
 2574POPC   GL234610  26.026   9.185   9.120
 2574POPC   C1A34611  26.008   8.688   8.627
 2574POPC   D2A34612  26.217   8.688   8.251
 2574POPC   C3A34613  26.017   8.869   7.901
 2574POPC   C4A34614  26.166   9.242   7.699
 2574POPC   C1B34615  25.732   9.189   8.793
 2574POPC   C2B34616  25.887   9.138   8.380
 2574POPC   C3B34617  25.797   9.341   8.023
 2574POPC   C4B34618  25.711   9.479   7.622
 2575POPC   NC334619  36.799  35.134   9.495
 2575POPC   PO434620  36.594  35.703   9.219
 2575POPC   GL134621  36.928  35.562   8.976
 2575POPC   GL234622  37.050  35.221   9.063
 2575POPC   C1A34623  36.847  35.593   8.541
 2575POPC   D2A34624  36.528  35.646   8.239
 2575POPC   C3A34625  36.753  35.598   7.872
 2575POPC   C4A34626  37.167  35.742   7.772
 2575POPC   C1B34627  37.212  35.243   8.640
 2575POPC   C2B34628  37.233  35.429   8.212
 2575POPC   C3B34629  37.125  35.254   7.832
 2575POPC   C4B34630  36.793  34.965   7.773
 2576POPC   NC334631  31.887  37.116   9.518
 2576POPC   PO434632  32.502  36.821   9.584
 2576POPC   GL134633  32.594  36.752   9.166
 2576POPC   GL234634  32.523  37.106   9.097
 2576POPC   C1A34635  32.432  36.712   8.733
 2576POPC   D2A34636  32.031  36.758   8.500
 2576POPC   C3A34637  31.987  36.571   8.079
 2576POPC   C4A34638  32.159  36.792   7.732
 2576POPC   C1B34639  32.258  37.200   8.749
 2576POPC   C2B34640  32.381  37.087   8.332
 2576POPC   C3B34641  32.346  37.236   7.921
 2576POPC   C4B34642  32.101  37.284   7.576
 2577POPC   NC334643  40.800  23.339   9.532
 2577POPC   PO434644  40.554  22.790   9.494
 2577POPC   GL134645  40.474  22.834   9.060
 2577POPC   GL234646  40.737  23.084   9.076
 2577POPC   C1A34647  40.501  22.854   8.574
 2577POPC   D2A34648  40.797  22.873   8.189
 2577POPC   C3A34649  40.731  22.662   7.772
 2577POPC   C4A34650  41.011  22.663   7.374
 2577POPC   C1B34651  40.793  23.302   8.705
 2577POPC   C2B34652  40.624  23.333   8.320
 2577POPC   C3B34653  40.919  23.408   7.966
 2577POPC   C4B34654  41.008  23.075   7.682
 2578POPC   NC334655  12.451  14.156   9.465
 2578POPC   PO434656  11.915  14.529   9.442
 2578POPC   GL134657  12.154  14.369   9.129
 2578POPC   GL234658  11.911  14.134   9.078
 2578POPC   C1A34659  12.362  14.130   8.786
 2578POPC   D2A34660  12.457  14.240   8.355
 2578POPC   C3A34661  12.338  14.462   7.976
 2578POPC   C4A34662  12.245  14.432   7.549
 2578POPC   C1B34663  11.938  14.392   8.688
 2578POPC   C2B34664  11.943  14.216   8.295
 2578POPC   C3B34665  11.826  14.293   7.876
 2578POPC   C4B34666  11.738  13.905   7.701
 2579POPC   NC334667  26.806  11.338  10.209
 2579POPC   PO434668  26.761  11.407   9.555
 2579POPC   GL134669  26.660  11.359   9.126
 2579POPC   GL234670  27.020  11.377   9.094
 2579POPC   C1A34671  26.689  11.207   8.709
 2579POPC   D2A34672  26.810  10.924   8.396
 2579POPC   C3A34673  26.597  11.126   8.082
 2579POPC   C4A34674  26.500  11.483   7.838
 2579POPC   C1B34675  27.170  11.544   8.718
 2579POPC   C2B34676  27.194  11.286   8.359
 2579POPC   C3B34677  27.059  11.309   7.938
 2579POPC   C4B34678  26.961  11.177   7.518
 2580POPC   NC334679  15.913  38.378   9.756
 2580POPC   PO434680  16.258  38.851   9.586
 2580POPC   GL134681  15.929  38.655   9.324
 2580POPC   GL234682  16.036  38.279   9.241
 2580POPC   C1A34683  15.726  38.550   8.943
 2580POPC   D2A34684  15.952  38.585   8.572
 2580POPC   C3A34685  15.808  38.459   8.194
 2580POPC   C4A34686  15.634  38.645   7.828
 2580POPC   C1B34687  15.934  38.099   8.814
 2580POPC   C2B34688  16.073  37.949   8.410
 2580POPC   C3B34689  16.223  38.072   8.013
 2580POPC   C4B34690  16.174  38.486   7.819
 2581POPC   NC334691  19.764   6.911   9.588
 2581POPC   PO434692  19.951   6.288   9.472
 2581POPC   GL134693  19.972   6.496   9.097
 2581POPC   GL234694  20.035   6.822   9.175
 2581POPC   C1A34695  20.053   6.342   8.687
 2581POPC   D2A34696  19.998   6.425   8.248
 2581POPC   C3A34697  19.638   6.300   8.015
 2581POPC   C4A34698  19.806   6.481   7.623
 2581POPC   C1B34699  19.783   6.872   8.797
 2581POPC   C2B34700  19.589   6.770   8.410
 2581POPC   C3B34701  19.663   6.808   7.988
 2581POPC   C4B34702  19.533   6.913   7.563
 2582POPC   NC334703  23.510  27.161   9.508
 2582POPC   PO434704  23.953  27.593   9.468
 2582POPC   GL134705  23.722  27.597   9.108
 2582POPC   GL234706  23.464  27.368   9.030
 2582POPC   C1A34707  23.895  27.667   8.718
 2582POPC   D2A34708  23.747  27.482   8.385
 2582POPC   C3A34709  23.980  27.497   8.045
 2582POPC   C4A34710  23.780  27.653   7.743
 2582POPC   C1B34711  23.371  27.724   8.718
 2582POPC   C2B34712  23.313  27.720   8.263
 2582POPC   C3B34713  23.284  27.614   7.833
 2582POPC   C4B34714  23.411  27.590   7.384
 2583POPC   NC334715  22.331  44.284   9.360
 2583POPC   PO434716  21.803  43.800   9.497
 2583POPC   GL134717  22.179  43.796   9.208
 2583POPC   GL234718  22.503  43.737   9.383
 2583POPC   C1A34719  22.252  43.996   8.782
 2583POPC   D2A34720  22.029  43.868   8.406
 2583POPC   C3A34721  22.262  43.918   8.039
 2583POPC   C4A34722  22.160  43.968   7.634
 2583POPC   C1B34723  22.598  43.620   8.920
 2583POPC   C2B34724  22.553  43.709   8.481
 2583POPC   C3B34725  22.605  43.518   8.100
 2583POPC   C4B34726  22.450  43.551   7.711
 2584POPC   NC334727   2.457  25.514   9.409
 2584POPC   PO434728   3.065  25.142   9.446
 2584POPC   GL134729   2.837  25.218   9.142
 2584POPC   GL234730   2.869  25.583   9.090
 2584POPC   C1A34731   3.020  25.083   8.747
 2584POPC   D2A34732   2.974  24.806   8.371
 2584POPC   C3A34733   2.628  24.902   8.087
 2584POPC   C4A34734   2.535  25.003   7.679
 2584POPC   C1B34735   2.637  25.461   8.747
 2584POPC   C2B34736   2.755  25.295   8.371
 2584POPC   C3B34737   2.756  25.392   7.962
 2584POPC   C4B34738   2.492  25.675   7.797
 2585POPC   NC334739   1.586  25.513   9.453
 2585POPC   PO434740   2.195  25.106   9.457
 2585POPC   GL134741   2.001  25.356   9.168
 2585POPC   GL234742   1.722  25.158   9.059
 2585POPC   C1A34743   2.143  25.327   8.750
 2585POPC   D2A34744   2.236  25.109   8.374
 2585POPC   C3A34745   2.228  25.278   7.955
 2585POPC   C4A34746   2.179  25.289   7.462
 2585POPC   C1B34747   1.668  25.527   8.790
 2585POPC   C2B34748   1.814  25.484   8.389
 2585POPC   C3B34749   1.768  25.151   8.116
 2585POPC   C4B34750   1.771  25.383   7.741
 2586POPC   NC334751   9.281  17.318   9.576
 2586POPC   PO434752   9.463  16.700   9.433
 2586POPC   GL134753   9.614  16.674   9.047
 2586POPC   GL234754   9.912  16.839   9.157
 2586POPC   C1A34755   9.514  16.852   8.681
 2586POPC   D2A34756   9.756  16.818   8.347
 2586POPC   C3A34757   9.700  16.642   7.937
 2586POPC   C4A34758   9.379  16.438   7.689
 2586POPC   C1B34759   9.934  17.162   8.821
 2586POPC   C2B34760  10.117  17.184   8.400
 2586POPC   C3B34761   9.907  17.129   7.993
 2586POPC   C4B34762   9.968  16.942   7.579
 2587POPC   NC334763  24.164  42.019   9.522
 2587POPC   PO434764  23.557  41.564   9.606
 2587POPC   GL134765  23.673  41.517   9.223
 2587POPC   GL234766  24.004  41.592   9.252
 2587POPC   C1A34767  23.596  41.635   8.825
 2587POPC   D2A34768  23.418  41.865   8.489
 2587POPC   C3A34769  23.481  41.567   8.162
 2587POPC   C4A34770  23.599  41.396   7.766
 2587POPC   C1B34771  24.117  41.740   8.846
 2587POPC   C2B34772  23.932  41.760   8.451
 2587POPC   C3B34773  23.987  41.585   8.080
 2587POPC   C4B34774  24.124  41.640   7.701
 2588POPC   NC334775   0.703  42.019   9.504
 2588POPC   PO434776   0.516  41.313   9.602
 2588POPC   GL134777   0.431  41.531   9.222
 2588POPC   GL234778   0.204  41.856   9.255
 2588POPC   C1A34779   0.574  41.710   8.826
 2588POPC   D2A34780   0.776  41.704   8.411
 2588POPC   C3A34781   0.595  41.414   8.123
 2588POPC   C4A34782   0.593  41.674   7.767
 2588POPC   C1B34783   0.066  41.608   8.878
 2588POPC   C2B34784   0.202  41.478   8.469
 2588POPC   C3B34785   0.175  41.697   8.075
 2588POPC   C4B34786   0.122  41.494   7.676
 2589POPC   NC334787  27.041   9.660   9.458
 2589POPC   PO434788  26.583  10.090   9.709
 2589POPC   GL134789  26.696  10.026   9.256
 2589POPC   GL234790  27.064  10.005   9.088
 2589POPC   C1A34791  26.668  10.136   8.820
 2589POPC   D2A34792  26.951  10.028   8.467
 2589POPC   C3A34793  26.712   9.977   8.107
 2589POPC   C4A34794  26.813   9.987   7.676
 2589POPC   C1B34795  26.867   9.643   8.800
 2589POPC   C2B34796  26.999   9.502   8.354
 2589POPC   C3B34797  26.808   9.503   7.919
 2589POPC   C4B34798  26.906   9.553   7.441
 2590POPC   NC334799  34.014  18.799   9.610
 2590POPC   PO434800  33.393  18.905   9.351
 2590POPC   GL134801  33.728  19.072   9.095
 2590POPC   GL234802  34.040  19.111   9.195
 2590POPC   C1A34803  33.871  19.035   8.680
 2590POPC   D2A34804  33.568  18.820   8.442
 2590POPC   C3A34805  33.434  18.986   8.089
 2590POPC   C4A34806  33.552  18.965   7.686
 2590POPC   C1B34807  34.192  18.740   8.958
 2590POPC   C2B34808  34.266  18.730   8.509
 2590POPC   C3B34809  34.001  18.852   8.155
 2590POPC   C4B34810  34.078  19.025   7.754
 2591POPC   NC334811  20.398   6.140   9.534
 2591POPC   PO434812  20.937   6.667   9.509
 2591POPC   GL134813  20.857   6.445   9.145
 2591POPC   GL234814  20.487   6.446   9.111
 2591POPC   C1A34815  20.815   6.567   8.706
 2591POPC   D2A34816  20.512   6.568   8.354
 2591POPC   C3A34817  20.671   6.777   7.998
 2591POPC   C4A34818  20.862   6.483   7.762
 2591POPC   C1B34819  20.333   6.754   8.786
 2591POPC   C2B34820  20.112   6.905   8.395
 2591POPC   C3B34821  20.165   6.830   7.950
 2591POPC   C4B34822  20.382   7.059   7.626
 2592POPC   NC334823  15.077  35.664   9.465
 2592POPC   PO434824  14.887  35.048   9.706
 2592POPC   GL134825  15.005  35.217   9.243
 2592POPC   GL234826  14.811  35.487   9.053
 2592POPC   C1A34827  15.219  35.365   8.789
 2592POPC   D2A34828  15.058  35.469   8.345
 2592POPC   C3A34829  15.206  35.449   7.892
 2592POPC   C4A34830  15.037  35.592   7.475
 2592POPC   C1B34831  14.793  35.083   8.813
 2592POPC   C2B34832  14.967  34.951   8.435
 2592POPC   C3B34833  14.870  35.054   8.022
 2592POPC   C4B34834  14.966  35.087   7.595
 2593POPC   NC334835   0.443   7.664   9.668
 2593POPC   PO434836   0.412   7.000   9.635
 2593POPC   GL134837   0.308   7.320   9.301
 2593POPC   GL234838   0.577   7.443   9.154
 2593POPC   C1A34839   0.165   7.444   8.846
 2593POPC   D2A34840   0.312   7.374   8.390
 2593POPC   C3A34841   0.337   7.352   7.931
 2593POPC   C4A34842   0.105   7.075   7.657
 2593POPC   C1B34843   0.662   7.546   8.740
 2593POPC   C2B34844   0.832   7.336   8.410
 2593POPC   C3B34845   0.882   7.268   8.012
 2593POPC   C4B34846   0.772   7.314   7.589
 2594POPC   NC334847  40.467  42.457   9.652
 2594POPC   PO434848  41.093  42.222   9.497
 2594POPC   GL134849  40.771  42.399   9.201
 2594POPC   GL234850  40.427  42.318   9.150
 2594POPC   C1A34851  40.722  42.552   8.780
 2594POPC   D2A34852  40.924  42.322   8.466
 2594POPC   C3A34853  40.788  42.214   8.048
 2594POPC   C4A34854  40.747  42.641   7.898
 2594POPC   C1B34855  40.526  42.084   8.767
 2594POPC   C2B34856  40.438  41.909   8.369
 2594POPC   C3B34857  40.260  41.828   7.948
 2594POPC   C4B34858  40.465  41.980   7.559
 2595POPC   NC334859  43.330  15.910   9.508
 2595POPC   PO434860  42.675  15.884   9.418
 2595POPC   GL134861  42.974  15.927   9.126
 2595POPC   GL234862  43.196  15.637   9.116
 2595POPC   C1A34863  43.163  16.060   8.756
 2595POPC   D2A34864  43.388  16.048   8.369
 2595POPC   C3A34865  43.165  16.169   7.978
 2595POPC   C4A34866  42.770  16.439   7.890
 2595POPC   C1B34867  42.976  15.553   8.768
 2595POPC   C2B34868  43.061  15.393   8.394
 2595POPC   C3B34869  42.918  15.412   7.997
 2595POPC   C4B34870  43.178  15.662   7.812
 2596POPC   NC334871  16.653   3.225   9.465
 2596POPC   PO434872  16.750   2.540   9.577
 2596POPC   GL134873  16.697   2.694   9.179
 2596POPC   GL234874  16.975   2.881   9.168
 2596POPC   C1A34875  16.834   2.523   8.767
 2596POPC   D2A34876  16.741   2.683   8.346
 2596POPC   C3A34877  16.495   2.732   7.954
 2596POPC   C4A34878  16.765   2.646   7.607
 2596POPC   C1B34879  16.860   3.050   8.779
 2596POPC   C2B34880  16.896   3.193   8.373
 2596POPC   C3B34881  16.910   3.020   7.968
 2596POPC   C4B34882  17.068   3.111   7.585
 2597POPC   NC334883  40.449   3.682   9.307
 2597POPC   PO434884  40.897   3.294   9.589
 2597POPC   GL134885  40.987   3.400   9.179
 2597POPC   GL234886  40.704   3.285   9.057
 2597POPC   C1A34887  40.927   3.586   8.748
 2597POPC   D2A34888  40.631   3.643   8.395
 2597POPC   C3A34889  40.829   3.606   8.001
 2597POPC   C4A34890  40.975   3.548   7.577
 2597POPC   C1B34891  40.686   3.046   8.686
 2597POPC   C2B34892  40.663   3.116   8.268
 2597POPC   C3B34893  40.386   3.365   8.004
 2597POPC   C4B34894  40.462   3.414   7.539
 2598POPC   NC334895   1.554  39.479   9.404
 2598POPC   PO434896   2.164  39.019   9.423
 2598POPC   GL134897   1.891  39.191   9.198
 2598POPC   GL234898   1.605  38.971   9.190
 2598POPC   C1A34899   1.883  39.405   8.814
 2598POPC   D2A34900   2.212  39.411   8.499
 2598POPC   C3A34901   2.054  39.532   8.105
 2598POPC   C4A34902   1.932  39.441   7.713
 2598POPC   C1B34903   1.807  38.898   8.806
 2598POPC   C2B34904   1.794  39.098   8.408
 2598POPC   C3B34905   1.711  38.829   8.062
 2598POPC   C4B34906   1.771  38.950   7.663
 2599POPC   NC334907  19.351  21.866   9.446
 2599POPC   PO434908  19.086  21.194   9.418
 2599POPC   GL134909  19.096  21.539   9.101
 2599POPC   GL234910  19.434  21.683   8.976
 2599POPC   C1A34911  19.073  21.478   8.649
 2599POPC   D2A34912  19.005  21.426   8.229
 2599POPC   C3A34913  19.241  21.568   7.897
 2599POPC   C4A34914  19.047  21.283   7.554
 2599POPC   C1B34915  19.462  21.213   8.836
 2599POPC   C2B34916  19.330  21.007   8.402
 2599POPC   C3B34917  19.349  21.062   7.919
 2599POPC   C4B34918  19.395  20.888   7.471
 2600POPC   NC334919  11.031   8.552   9.598
 2600POPC   PO434920  11.443   7.994   9.589
 2600POPC   GL134921  11.395   8.270   9.237
 2600POPC   GL234922  11.048   8.336   9.139
 2600POPC   C1A34923  11.405   8.106   8.827
 2600POPC   D2A34924  11.580   8.197   8.424
 2600POPC   C3A34925  11.361   8.091   8.044
 2600POPC   C4A34926  11.577   8.268   7.687
 2600POPC   C1B34927  11.192   8.571   8.780
 2600POPC   C2B34928  11.147   8.453   8.377
 2600POPC   C3B34929  11.334   8.602   7.989
 2600POPC   C4B34930  11.099   8.425   7.636
 2601POPC   NC334931  40.107   9.726   9.699
 2601POPC   PO434932  39.488  10.071   9.600
 2601POPC   GL134933  39.819   9.943   9.255
 2601POPC   GL234934  40.194   9.801   9.199
 2601POPC   C1A34935  39.817   9.888   8.795
 2601POPC   D2A34936  39.742   9.551   8.487
 2601POPC   C3A34937  39.720   9.588   8.059
 2601POPC   C4A34938  39.814   9.901   7.775
 2601POPC   C1B34939  40.333   9.885   8.766
 2601POPC   C2B34940  40.139   9.926   8.334
 2601POPC   C3B34941  40.347   9.855   7.923
 2601POPC   C4B34942  40.404   9.932   7.462
 2602POPC   NC334943  15.116  38.975   9.673
 2602POPC   PO434944  14.973  38.356   9.586
 2602POPC   GL134945  15.122  38.489   9.234
 2602POPC   GL234946  15.399  38.738   9.289
 2602POPC   C1A34947  15.040  38.278   8.837
 2602POPC   D2A34948  14.956  38.233   8.388
 2602POPC   C3A34949  15.340  38.205   8.126
 2602POPC   C4A34950  15.282  38.239   7.696
 2602POPC   C1B34951  15.267  38.748   8.831
 2602POPC   C2B34952  15.279  38.661   8.393
 2602POPC   C3B34953  15.038  38.615   8.015
 2602POPC   C4B34954  15.176  38.740   7.630
 2603POPC   NC334955   4.632  33.863   9.422
 2603POPC   PO434956   5.212  34.238   9.529
 2603POPC   GL134957   5.149  33.921   9.207
 2603POPC   GL234958   4.840  33.880   8.968
 2603POPC   C1A34959   5.316  33.823   8.809
 2603POPC   D2A34960   5.058  33.880   8.455
 2603POPC   C3A34961   5.231  33.769   8.084
 2603POPC   C4A34962   5.269  34.041   7.752
 2603POPC   C1B34963   4.885  33.473   8.750
 2603POPC   C2B34964   4.991  33.258   8.380
 2603POPC   C3B34965   4.836  33.420   7.995
 2603POPC   C4B34966   4.776  33.818   7.844
 2604POPC   NC334967   9.243  28.879   9.468
 2604POPC   PO434968   8.656  28.990   9.706
 2604POPC   GL134969   8.854  29.069   9.218
 2604POPC   GL234970   8.937  28.733   9.044
 2604POPC   C1A34971   9.127  29.259   8.833
 2604POPC   D2A34972   9.295  29.367   8.411
 2604POPC   C3A34973   9.175  29.053   8.116
 2604POPC   C4A34974   9.292  28.892   7.744
 2604POPC   C1B34975   9.014  28.846   8.581
 2604POPC   C2B34976   8.800  29.236   8.416
 2604POPC   C3B34977   8.910  29.495   8.069
 2604POPC   C4B34978   8.919  29.227   7.718
 2605POPC   NC334979   6.901   4.497   9.522
 2605POPC   PO434980   6.241   4.460   9.470
 2605POPC   GL134981   6.470   4.333   9.115
 2605POPC   GL234982   6.727   4.121   9.195
 2605POPC   C1A34983   6.495   4.001   8.756
 2605POPC   D2A34984   6.193   3.957   8.417
 2605POPC   C3A34985   6.389   4.080   8.019
 2605POPC   C4A34986   6.814   3.982   7.919
 2605POPC   C1B34987   6.866   4.382   8.816
 2605POPC   C2B34988   6.752   4.351   8.377
 2605POPC   C3B34989   7.031   4.434   8.035
 2605POPC   C4B34990   6.962   4.516   7.615
 2606POPC   NC334991  37.672  23.225   9.647
 2606POPC   PO434992  37.324  23.809   9.539
 2606POPC   GL134993  37.595  23.570   9.217
 2606POPC   GL234994  37.912  23.700   9.050
 2606POPC   C1A34995  37.584  23.420   8.777
 2606POPC   D2A34996  37.935  23.581   8.510
 2606POPC   C3A34997  37.826  23.494   8.097
 2606POPC   C4A34998  37.370  23.399   8.008
 2606POPC   C1B34999  37.654  23.929   8.745
 2606POPC   C2B35000  37.472  23.760   8.368
 2606POPC   C3B35001  37.542  23.897   7.933
 2606POPC   C4B35002  37.273  24.184   7.735
 2607POPC   NC335003  42.046  30.444   9.397
 2607POPC   PO435004  41.613  30.969   9.636
 2607POPC   GL135005  41.580  30.766   9.230
 2607POPC   GL235006  41.265  30.551   9.135
 2607POPC   C1A35007  41.440  30.935   8.837
 2607POPC   D2A35008  41.580  30.882   8.418
 2607POPC   C3A35009  41.421  30.665   8.054
 2607POPC   C4A35010  41.623  30.690   7.633
 2607POPC   C1B35011  41.569  30.440   8.808
 2607POPC   C2B35012  41.703  30.381   8.392
 2607POPC   C3B35013  41.906  30.458   7.995
 2607POPC   C4B35014  41.909  30.271   7.577
 2608POPC   NC335015  10.391  44.369   9.592
 2608POPC   PO435016  10.769  44.881   9.678
 2608POPC   GL135017  10.807  44.651   9.295
 2608POPC   GL235018  10.474  44.658   9.180
 2608POPC   C1A35019  10.887  44.461   8.904
 2608POPC   D2A35020  10.654  44.560   8.516
 2608POPC   C3A35021  10.698  44.312   8.140
 2608POPC   C4A35022  10.335  44.278   7.848
 2608POPC   C1B35023  10.460  44.928   8.841
 2608POPC   C2B35024  10.326  44.984   8.419
 2608POPC   C3B35025  10.417  44.746   8.051
 2608POPC   C4B35026  10.822  44.711   7.832
 2609POPC   NC335027   4.954  37.618   9.525
 2609POPC   PO435028   5.526  37.747   9.801
 2609POPC   GL135029   5.384  37.695   9.270
 2609POPC   GL235030   5.061  37.555   9.045
 2609POPC   C1A35031   5.324  37.901   8.837
 2609POPC   D2A35032   5.152  37.776   8.441
 2609POPC   C3A35033   5.373  37.890   8.057
 2609POPC   C4A35034   5.229  37.946   7.626
 2609POPC   C1B35035   4.799  37.903   8.843
 2609POPC   C2B35036   4.724  38.070   8.415
 2609POPC   C3B35037   4.829  37.863   8.024
 2609POPC   C4B35038   4.873  37.550   7.710
 2610POPC   NC335039  31.105  10.310   9.401
 2610POPC   PO435040  31.751  10.309   9.145
 2610POPC   GL135041  31.402  10.488   9.024
 2610POPC   GL235042  31.354  10.762   9.210
 2610POPC   C1A35043  31.343  10.491   8.615
 2610POPC   D2A35044  31.733  10.448   8.431
 2610POPC   C3A35045  31.541  10.156   8.164
 2610POPC   C4A35046  31.162  10.271   7.913
 2610POPC   C1B35047  31.412  10.958   8.780
 2610POPC   C2B35048  31.433  10.917   8.321
 2610POPC   C3B35049  31.564  10.630   7.977
 2610POPC   C4B35050  31.912  10.678   7.650
 2611POPC   NC335051  14.221  25.892   9.557
 2611POPC   PO435052  14.896  26.159   9.440
 2611POPC   GL135053  14.604  26.166   9.070
 2611POPC   GL235054  14.237  26.146   9.101
 2611POPC   C1A35055  14.438  25.908   8.705
 2611POPC   D2A35056  14.315  25.958   8.283
 2611POPC   C3A35057  14.576  25.836   7.944
 2611POPC   C4A35058  14.355  25.679   7.580
 2611POPC   C1B35059  14.104  26.320   8.704
 2611POPC   C2B35060  14.129  26.604   8.366
 2611POPC   C3B35061  14.293  26.411   8.011
 2611POPC   C4B35062  14.088  26.064   7.793
 2612POPC   NC335063  16.621  31.433   9.886
 2612POPC   PO435064  17.175  31.513   9.608
 2612POPC   GL135065  16.853  31.446   9.264
 2612POPC   GL235066  16.797  31.137   9.169
 2612POPC   C1A35067  16.939  31.390   8.763
 2612POPC   D2A35068  16.979  31.568   8.338
 2612POPC   C3A35069  16.924  31.440   7.920
 2612POPC   C4A35070  16.712  31.508   7.510
 2612POPC   C1B35071  16.557  31.061   8.772
 2612POPC   C2B35072  16.634  31.138   8.278
 2612POPC   C3B35073  16.613  31.062   7.799
 2612POPC   C4B35074  16.314  31.172   7.454
 2613POPC   NC335075  30.135   8.716   9.409
 2613POPC   PO435076  30.157   7.966   9.584
 2613POPC   GL135077  30.190   7.992   9.116
 2613POPC   GL235078  30.063   8.359   8.986
 2613POPC   C1A35079  29.982   7.803   8.727
 2613POPC   D2A35080  29.719   7.855   8.353
 2613POPC   C3A35081  29.951   7.942   7.975
 2613POPC   C4A35082  29.798   8.200   7.647
 2613POPC   C1B35083  29.749   8.655   8.700
 2613POPC   C2B35084  29.556   8.813   8.269
 2613POPC   C3B35085  29.751   8.680   7.859
 2613POPC   C4B35086  30.155   8.494   7.876
 2614POPC   NC335087  18.713   8.032   9.518
 2614POPC   PO435088  18.119   8.238   9.621
 2614POPC   GL135089  18.292   8.142   9.226
 2614POPC   GL235090  17.974   8.221   9.123
 2614POPC   C1A35091  18.343   8.219   8.773
 2614POPC   D2A35092  18.256   8.000   8.367
 2614POPC   C3A35093  18.431   8.189   8.013
 2614POPC   C4A35094  18.642   8.179   7.613
 2614POPC   C1B35095  17.908   7.951   8.778
 2614POPC   C2B35096  17.755   7.940   8.342
 2614POPC   C3B35097  17.898   8.041   7.961
 2614POPC   C4B35098  18.100   8.147   7.617
 2615POPC   NC335099  26.311  12.012   9.448
 2615POPC   PO435100  25.883  12.529   9.605
 2615POPC   GL135101  25.937  12.306   9.215
 2615POPC   GL235102  26.236  12.433   9.069
 2615POPC   C1A35103  25.841  12.224   8.768
 2615POPC   D2A35104  25.994  12.016   8.377
 2615POPC   C3A35105  25.847  12.141   7.950
 2615POPC   C4A35106  26.100  12.216   7.571
 2615POPC   C1B35107  26.351  12.104   8.792
 2615POPC   C2B35108  26.519  12.050   8.364
 2615POPC   C3B35109  26.437  11.989   7.906
 2615POPC   C4B35110  26.462  11.879   7.443
 2616POPC   NC335111   1.240  27.679   9.638
 2616POPC   PO435112   0.916  27.240   9.241
 2616POPC   GL135113   1.017  27.621   9.163
 2616POPC   GL235114   1.368  27.673   9.146
 2616POPC   C1A35115   1.046  27.741   8.747
 2616POPC   D2A35116   1.175  27.701   8.350
 2616POPC   C3A35117   0.907  27.547   8.014
 2616POPC   C4A35118   1.073  27.775   7.696
 2616POPC   C1B35119   1.425  27.386   8.776
 2616POPC   C2B35120   1.542  27.365   8.347
 2616POPC   C3B35121   1.401  27.433   7.927
 2616POPC   C4B35122   1.637  27.388   7.561
 2617POPC   NC335123  38.774  12.577   9.411
 2617POPC   PO435124  38.311  13.108   9.502
 2617POPC   GL135125  38.411  12.936   9.143
 2617POPC   GL235126  38.300  12.616   9.125
 2617POPC   C1A35127  38.340  13.100   8.757
 2617POPC   D2A35128  38.375  12.947   8.369
 2617POPC   C3A35129  38.528  13.213   8.047
 2617POPC   C4A35130  38.465  12.981   7.689
 2617POPC   C1B35131  38.406  12.519   8.723
 2617POPC   C2B35132  38.288  12.351   8.355
 2617POPC   C3B35133  38.330  12.566   7.996
 2617POPC   C4B35134  38.094  12.627   7.654
 2618POPC   NC335135  33.550  20.145   9.489
 2618POPC   PO435136  34.243  20.062   9.664
 2618POPC   GL135137  33.991  19.972   9.241
 2618POPC   GL235138  33.829  19.624   9.207
 2618POPC   C1A35139  33.901  19.912   8.779
 2618POPC   D2A35140  34.032  19.699   8.372
 2618POPC   C3A35141  33.962  19.891   7.954
 2618POPC   C4A35142  33.702  19.869   7.575
 2618POPC   C1B35143  33.588  19.491   8.819
 2618POPC   C2B35144  33.611  19.376   8.386
 2618POPC   C3B35145  33.744  19.406   7.964
 2618POPC   C4B35146  33.474  19.439   7.618
 2619POPC   NC335147  34.267  25.758   9.622
 2619POPC   PO435148  34.837  26.066   9.738
 2619POPC   GL135149  34.807  26.129   9.270
 2619POPC   GL235150  34.474  26.049   9.150
 2619POPC   C1A35151  34.899  26.093   8.801
 2619POPC   D2A35152  34.669  26.128   8.408
 2619POPC   C3A35153  34.848  26.031   8.028
 2619POPC   C4A35154  34.764  25.913   7.631
 2619POPC   C1B35155  34.256  26.089   8.740
 2619POPC   C2B35156  34.243  25.860   8.355
 2619POPC   C3B35157  34.337  25.850   7.917
 2619POPC   C4B35158  34.268  25.424   7.790
 2620POPC   NC335159  38.425  35.017   9.575
 2620POPC   PO435160  38.150  35.732   9.564
 2620POPC   GL135161  38.271  35.587   9.124
 2620POPC   GL235162  38.066  35.308   9.177
 2620POPC   C1A35163  38.594  35.472   8.774
 2620POPC   D2A35164  38.679  35.275   8.345
 2620POPC   C3A35165  38.493  35.474   7.964
 2620POPC   C4A35166  38.525  35.509   7.494
 2620POPC   C1B35167  38.192  35.131   8.790
 2620POPC   C2B35168  38.185  35.156   8.353
 2620POPC   C3B35169  38.167  35.057   7.943
 2620POPC   C4B35170  38.058  35.371   7.671
 2621POPC   NC335171  32.717  23.960   9.318
 2621POPC   PO435172  33.355  23.731   9.570
 2621POPC   GL135173  33.220  23.932   9.235
 2621POPC   GL235174  33.026  23.652   9.078
 2621POPC   C1A35175  33.173  24.052   8.811
 2621POPC   D2A35176  33.198  23.688   8.536
 2621POPC   C3A35177  33.224  23.664   8.123
 2621POPC   C4A35178  33.126  23.833   7.720
 2621POPC   C1B35179  32.740  23.798   8.707
 2621POPC   C2B35180  32.784  23.908   8.253
 2621POPC   C3B35181  32.688  23.662   7.880
 2621POPC   C4B35182  32.767  23.589   7.407
 2622POPC   NC335183  11.042  33.943   9.737
 2622POPC   PO435184  11.448  33.463   9.698
 2622POPC   GL135185  11.457  33.690   9.298
 2622POPC   GL235186  11.151  33.848   9.224
 2622POPC   C1A35187  11.390  33.583   8.838
 2622POPC   D2A35188  11.327  33.802   8.419
 2622POPC   C3A35189  11.477  33.741   8.015
 2622POPC   C4A35190  11.314  33.568   7.646
 2622POPC   C1B35191  11.083  34.011   8.801
 2622POPC   C2B35192  11.089  34.273   8.395
 2622POPC   C3B35193  11.226  34.179   7.968
 2622POPC   C4B35194  11.164  34.112   7.521
 2623POPC   NC335195  38.538  32.361   9.629
 2623POPC   PO435196  37.928  32.036   9.457
 2623POPC   GL135197  38.227  32.203   9.101
 2623POPC   GL235198  38.568  32.372   9.125
 2623POPC   C1A35199  38.327  32.369   8.647
 2623POPC   D2A35200  38.360  32.416   8.205
 2623POPC   C3A35201  38.532  32.104   7.929
 2623POPC   C4A35202  38.768  32.247   7.589
 2623POPC   C1B35203  38.708  32.099   8.788
 2623POPC   C2B35204  38.839  32.240   8.396
 2623POPC   C3B35205  38.881  32.497   8.039
 2623POPC   C4B35206  39.038  32.684   7.658
 2624POPC   NC335207  31.681  20.462   9.417
 2624POPC   PO435208  31.049  20.667   9.538
 2624POPC   GL135209  31.268  20.625   9.164
 2624POPC   GL235210  31.297  20.265   9.142
 2624POPC   C1A35211  31.509  20.692   8.767
 2624POPC   D2A35212  31.572  20.864   8.354
 2624POPC   C3A35213  31.387  20.682   7.964
 2624POPC   C4A35214  31.654  20.477   7.641
 2624POPC   C1B35215  31.146  20.349   8.731
 2624POPC   C2B35216  31.418  20.344   8.355
 2624POPC   C3B35217  31.476  20.138   7.954
 2624POPC   C4B35218  31.265  20.168   7.489
 2625POPC   NC335219  22.446  40.391   9.601
 2625POPC   PO435220  22.214  39.742   9.544
 2625POPC   GL135221  22.182  39.973   9.182
 2625POPC   GL235222  22.525  40.051   9.225
 2625POPC   C1A35223  22.058  40.095   8.748
 2625POPC   D2A35224  22.226  39.930   8.351
 2625POPC   C3A35225  22.297  40.145   7.985
 2625POPC   C4A35226  21.977  40.381   7.768
 2625POPC   C1B35227  22.549  39.960   8.802
 2625POPC   C2B35228  22.580  39.640   8.532
 2625POPC   C3B35229  22.507  39.590   8.083
 2625POPC   C4B35230  22.528  39.757   7.650
 2626POPC   NC335231  24.837  19.170   9.385
 2626POPC   PO435232  24.145  19.330   9.412
 2626POPC   GL135233  24.424  19.140   9.117
 2626POPC   GL235234  24.296  18.922   8.945
 2626POPC   C1A35235  24.758  19.097   8.771
 2626POPC   D2A35236  24.945  19.242   8.418
 2626POPC   C3A35237  24.758  19.046   8.091
 2626POPC   C4A35238  24.585  19.260   7.804
 2626POPC   C1B35239  24.467  18.735   8.582
 2626POPC   C2B35240  24.150  18.819   8.281
 2626POPC   C3B35241  24.162  18.996   7.879
 2626POPC   C4B35242  23.946  18.869   7.516
 2627POPC   NC335243   2.166   9.221   9.403
 2627POPC   PO435244   1.957   8.566   9.483
 2627POPC   GL135245   1.890   8.864   9.128
 2627POPC   GL235246   2.144   9.096   8.926
 2627POPC   C1A35247   1.719   8.767   8.744
 2627POPC   D2A35248   1.868   8.694   8.318
 2627POPC   C3A35249   2.139   9.032   8.197
 2627POPC   C4A35250   2.248   9.030   7.781
 2627POPC   C1B35251   1.821   9.264   8.668
 2627POPC   C2B35252   1.610   9.161   8.302
 2627POPC   C3B35253   1.720   9.137   7.900
 2627POPC   C4B35254   1.972   9.438   7.751
 2628POPC   NC335255   1.177   9.371   9.414
 2628POPC   PO435256   1.350  10.019   9.617
 2628POPC   GL135257   1.133   9.880   9.235
 2628POPC   GL235258   1.448   9.754   9.180
 2628POPC   C1A35259   1.027   9.692   8.819
 2628POPC   D2A35260   0.797   9.583   8.430
 2628POPC   C3A35261   1.000   9.730   8.068
 2628POPC   C4A35262   0.982   9.643   7.619
 2628POPC   C1B35263   1.490   9.925   8.811
 2628POPC   C2B35264   1.453   9.651   8.446
 2628POPC   C3B35265   1.537   9.705   8.023
 2628POPC   C4B35266   1.336   9.980   7.713
 2629POPC   NC335267  13.416  29.191   9.608
 2629POPC   PO435268  13.949  29.573   9.501
 2629POPC   GL135269  13.808  29.175   9.245
 2629POPC   GL235270  13.494  29.059   9.126
 2629POPC   C1A35271  13.838  29.180   8.780
 2629POPC   D2A35272  13.744  29.417   8.428
 2629POPC   C3A35273  13.673  29.201   8.040
 2629POPC   C4A35274  13.956  28.971   7.766
 2629POPC   C1B35275  13.463  28.798   8.787
 2629POPC   C2B35276  13.415  28.963   8.426
 2629POPC   C3B35277  13.184  28.821   8.090
 2629POPC   C4B35278  13.398  28.870   7.726
 2630POPC   NC335279  11.624   4.357   9.309
 2630POPC   PO435280  11.199   4.881   9.530
 2630POPC   GL135281  11.265   4.649   9.119
 2630POPC   GL235282  10.967   4.429   9.000
 2630POPC   C1A35283  11.347   4.513   8.676
 2630POPC   D2A35284  11.117   4.436   8.286
 2630POPC   C3A35285  11.348   4.411   7.919
 2630POPC   C4A35286  11.705   4.218   7.768
 2630POPC   C1B35287  11.004   4.125   8.677
 2630POPC   C2B35288  11.019   3.838   8.370
 2630POPC   C3B35289  11.169   3.937   8.010
 2630POPC   C4B35290  11.241   3.953   7.621
 2631POPC   NC335291  10.141  43.536   9.822
 2631POPC   PO435292  10.790  43.343   9.712
 2631POPC   GL135293  10.638  43.196   9.291
 2631POPC   GL235294  10.296  43.192   9.239
 2631POPC   C1A35295  10.610  43.144   8.828
 2631POPC   D2A35296  10.684  42.795   8.547
 2631POPC   C3A35297  10.787  42.908   8.121
 2631POPC   C4A35298  10.690  42.985   7.702
 2631POPC   C1B35299  10.113  43.078   8.849
 2631POPC   C2B35300  10.280  43.114   8.427
 2631POPC   C3B35301  10.270  43.374   8.084
 2631POPC   C4B35302  10.211  43.057   7.807
 2632POPC   NC335303  33.165   9.994   9.566
 2632POPC   PO435304  32.897   9.349   9.741
 2632POPC   GL135305  32.944   9.496   9.313
 2632POPC   GL235306  32.847   9.832   9.190
 2632POPC   C1A35307  32.986   9.439   8.866
 2632POPC   D2A35308  33.123   9.554   8.457
 2632POPC   C3A35309  32.887   9.771   8.165
 2632POPC   C4A35310  33.016   9.608   7.788
 2632POPC   C1B35311  33.073   9.932   8.799
 2632POPC   C2B35312  33.398   9.999   8.453
 2632POPC   C3B35313  33.379   9.896   8.008
 2632POPC   C4B35314  33.552   9.564   7.750
 2633POPC   NC335315   7.986  44.589   9.592
 2633POPC   PO435316   8.509  44.922   9.658
 2633POPC   GL135317   8.334  44.639   9.231
 2633POPC   GL235318   7.958  44.726   9.107
 2633POPC   C1A35319   8.160  44.411   8.803
 2633POPC   D2A35320   7.949  44.613   8.448
 2633POPC   C3A35321   7.896  44.330   8.072
 2633POPC   C4A35322   8.212  44.234   7.814
 2633POPC   C1B35323   8.362  44.894   8.805
 2633POPC   C2B35324   8.574  44.926   8.387
 2633POPC   C3B35325   8.399   0.050   7.992
 2633POPC   C4B35326   8.095  44.755   7.883
 2634POPC   NC335327  11.997   8.793   9.509
 2634POPC   PO435328  12.159   9.432   9.706
 2634POPC   GL135329  12.239   9.228   9.291
 2634POPC   GL235330  11.921   9.166   9.165
 2634POPC   C1A35331  12.346   9.224   8.816
 2634POPC   D2A35332  12.166   9.165   8.338
 2634POPC   C3A35333  12.378   9.268   7.885
 2634POPC   C4A35334  12.337   9.337   7.400
 2634POPC   C1B35335  11.959   8.863   8.823
 2634POPC   C2B35336  11.733   8.710   8.452
 2634POPC   C3B35337  11.769   8.903   8.064
 2634POPC   C4B35338  11.751   8.744   7.665
 2635POPC   NC335339  31.291   6.081   9.840
 2635POPC   PO435340  30.668   6.143   9.444
 2635POPC   GL135341  30.751   5.908   9.077
 2635POPC   GL235342  30.859   6.217   8.953
 2635POPC   C1A35343  30.606   5.913   8.643
 2635POPC   D2A35344  30.294   5.973   8.327
 2635POPC   C3A35345  30.455   5.972   7.914
 2635POPC   C4A35346  30.722   5.688   7.676
 2635POPC   C1B35347  30.877   6.346   8.588
 2635POPC   C2B35348  30.806   6.147   8.242
 2635POPC   C3B35349  30.973   6.050   7.891
 2635POPC   C4B35350  31.162   6.350   7.693
 2636POPC   NC335351  16.443  42.681   9.442
 2636POPC   PO435352  16.874  42.245   9.536
 2636POPC   GL135353  17.013  42.287   9.153
 2636POPC   GL235354  16.656  42.273   9.055
 2636POPC   C1A35355  17.117  42.158   8.750
 2636POPC   D2A35356  16.884  42.199   8.375
 2636POPC   C3A35357  16.966  42.447   8.004
 2636POPC   C4A35358  16.814  42.387   7.561
 2636POPC   C1B35359  16.437  42.439   8.703
 2636POPC   C2B35360  16.530  42.563   8.278
 2636POPC   C3B35361  16.396  42.476   7.848
 2636POPC   C4B35362  16.409  42.694   7.403
 2637POPC   NC335363  21.569  17.258   9.587
 2637POPC   PO435364  20.945  17.288   9.444
 2637POPC   GL135365  21.307  17.306   9.124
 2637POPC   GL235366  21.417  17.622   8.919
 2637POPC   C1A35367  21.542  17.171   8.753
 2637POPC   D2A35368  21.394  17.125   8.357
 2637POPC   C3A35369  21.364  17.513   8.164
 2637POPC   C4A35370  21.445  17.649   7.751
 2637POPC   C1B35371  21.114  17.457   8.641
 2637POPC   C2B35372  20.894  17.685   8.320
 2637POPC   C3B35373  20.936  17.636   7.906
 2637POPC   C4B35374  21.027  17.943   7.617
 2638POPC   NC335375  17.336   1.611   9.314
 2638POPC   PO435376  17.326   2.188   9.673
 2638POPC   GL135377  17.446   2.124   9.263
 2638POPC   GL235378  17.740   1.899   9.266
 2638POPC   C1A35379  17.196   2.184   8.892
 2638POPC   D2A35380  17.199   2.290   8.440
 2638POPC   C3A35381  17.471   1.953   8.289
 2638POPC   C4A35382  17.538   1.775   7.857
 2638POPC   C1B35383  17.766   1.875   8.802
 2638POPC   C2B35384  17.891   1.636   8.435
 2638POPC   C3B35385  17.945   1.479   7.992
 2638POPC   C4B35386  17.948   1.607   7.517
 2639POPC   NC335387   6.506   7.122   9.494
 2639POPC   PO435388   6.805   6.459   9.352
 2639POPC   GL135389   6.769   6.668   8.969
 2639POPC   GL235390   6.500   6.888   9.029
 2639POPC   C1A35391   6.666   6.860   8.556
 2639POPC   D2A35392   6.399   7.016   8.271
 2639POPC   C3A35393   6.688   6.980   7.982
 2639POPC   C4A35394   6.828   6.611   7.887
 2639POPC   C1B35395   6.351   6.518   8.720
 2639POPC   C2B35396   6.111   6.499   8.336
 2639POPC   C3B35397   6.300   6.636   7.943
 2639POPC   C4B35398   6.436   6.613   7.519
 2640POPC   NC335399  37.810  37.730   9.513
 2640POPC   PO435400  37.222  37.539   9.671
 2640POPC   GL135401  37.430  37.546   9.185
 2640POPC   GL235402  37.829  37.461   9.076
 2640POPC   C1A35403  37.467  37.400   8.732
 2640POPC   D2A35404  37.674  37.552   8.352
 2640POPC   C3A35405  37.398  37.454   8.034
 2640POPC   C4A35406  37.301  37.555   7.643
 2640POPC   C1B35407  37.723  37.848   8.822
 2640POPC   C2B35408  37.863  38.047   8.415
 2640POPC   C3B35409  37.919  37.925   7.972
 2640POPC   C4B35410  38.055  37.857   7.543
 2641POPC   NC335411  14.149  44.844   9.596
 2641POPC   PO435412  14.527  44.225   9.619
 2641POPC   GL135413  14.478  44.475   9.194
 2641POPC   GL235414  14.400  44.828   9.139
 2641POPC   C1A35415  14.572  44.579   8.734
 2641POPC   D2A35416  14.491  44.414   8.322
 2641POPC   C3A35417  14.533  44.633   7.925
 2641POPC   C4A35418  14.536  44.401   7.544
 2641POPC   C1B35419  14.156  44.891   8.685
 2641POPC   C2B35420  14.110  44.766   8.212
 2641POPC   C3B35421  14.180  44.976   7.789
 2641POPC   C4B35422  14.521   0.223   7.512
 2642POPC   NC335423   2.606  32.823   9.437
 2642POPC   PO435424   3.129  33.237   9.624
 2642POPC   GL135425   2.959  33.140   9.199
 2642POPC   GL235426   2.964  32.787   9.077
 2642POPC   C1A35427   2.647  33.047   8.795
 2642POPC   D2A35428   2.732  32.673   8.515
 2642POPC   C3A35429   2.639  32.709   8.070
 2642POPC   C4A35430   2.718  33.138   7.882
 2642POPC   C1B35431   3.124  33.136   8.751
 2642POPC   C2B35432   2.946  33.133   8.379
 2642POPC   C3B35433   3.135  33.353   8.135
 2642POPC   C4B35434   3.193  33.247   7.763
 2643POPC   NC335435  15.686  10.377   9.644
 2643POPC   PO435436  16.274  10.765   9.431
 2643POPC   GL135437  15.891  10.618   9.236
 2643POPC   GL235438  15.852  10.270   9.139
 2643POPC   C1A35439  15.785  10.684   8.809
 2643POPC   D2A35440  16.137  10.745   8.530
 2643POPC   C3A35441  15.967  10.694   8.150
 2643POPC   C4A35442  15.546  10.715   8.054
 2643POPC   C1B35443  16.007  10.223   8.694
 2643POPC   C2B35444  15.718  10.249   8.305
 2643POPC   C3B35445  15.818  10.292   7.873
 2643POPC   C4B35446  16.254  10.415   7.821
 2644POPC   NC335447  31.868   8.994   9.556
 2644POPC   PO435448  31.265   9.233   9.426
 2644POPC   GL135449  31.443   8.807   9.246
 2644POPC   GL235450  31.782   8.757   9.100
 2644POPC   C1A35451  31.341   8.658   8.823
 2644POPC   D2A35452  31.408   8.860   8.425
 2644POPC   C3A35453  31.463   8.674   8.029
 2644POPC   C4A35454  31.495   8.942   7.720
 2644POPC   C1B35455  31.598   9.107   8.855
 2644POPC   C2B35456  31.705   9.276   8.467
 2644POPC   C3B35457  31.843   9.152   8.054
 2644POPC   C4B35458  31.780   9.381   7.701
 2645POPC   NC335459  36.512  33.186   9.491
 2645POPC   PO435460  35.804  33.077   9.590
 2645POPC   GL135461  36.057  33.097   9.209
 2645POPC   GL235462  36.288  32.865   9.131
 2645POPC   C1A35463  35.959  33.014   8.755
 2645POPC   D2A35464  35.852  33.263   8.400
 2645POPC   C3A35465  36.055  33.239   7.972
 2645POPC   C4A35466  36.076  32.971   7.586
 2645POPC   C1B35467  36.468  33.026   8.772
 2645POPC   C2B35468  36.337  33.092   8.367
 2645POPC   C3B35469  36.492  32.923   7.963
 2645POPC   C4B35470  36.621  32.630   7.640
 2646POPC   NC335471  29.983  25.162   9.625
 2646POPC   PO435472  30.262  25.744   9.634
 2646POPC   GL135473  30.091  25.597   9.190
 2646POPC   GL235474  30.010  25.218   9.126
 2646POPC   C1A35475  29.938  25.537   8.735
 2646POPC   D2A35476  30.094  25.283   8.363
 2646POPC   C3A35477  29.790  25.090   8.074
 2646POPC   C4A35478  29.694  25.238   7.664
 2646POPC   C1B35479  30.267  25.041   8.808
 2646POPC   C2B35480  30.521  24.978   8.438
 2646POPC   C3B35481  30.370  24.924   8.037
 2646POPC   C4B35482  30.087  24.897   7.683
 2647POPC   NC335483  20.184  38.018   9.447
 2647POPC   PO435484  20.512  37.425   9.626
 2647POPC   GL135485  20.706  37.492   9.208
 2647POPC   GL235486  20.764  37.840   9.201
 2647POPC   C1A35487  20.550  37.662   8.801
 2647POPC   D2A35488  20.776  37.810   8.463
 2647POPC   C3A35489  20.756  37.580   8.131
 2647POPC   C4A35490  20.536  37.507   7.769
 2647POPC   C1B35491  21.061  37.990   8.860
 2647POPC   C2B35492  21.076  38.223   8.502
 2647POPC   C3B35493  21.139  38.099   8.117
 2647POPC   C4B35494  20.941  37.914   7.810
 2648POPC   NC335495   1.772  11.967   9.569
 2648POPC   PO435496   2.288  12.366   9.455
 2648POPC   GL135497   1.939  12.242   9.175
 2648POPC   GL235498   1.990  11.950   9.110
 2648POPC   C1A35499   1.779  12.344   8.764
 2648POPC   D2A35500   1.954  12.247   8.355
 2648POPC   C3A35501   1.754  12.217   7.930
 2648POPC   C4A35502   1.810  12.306   7.487
 2648POPC   C1B35503   2.141  11.764   8.767
 2648POPC   C2B35504   2.162  11.575   8.388
 2648POPC   C3B35505   1.987  11.794   8.105
 2648POPC   C4B35506   1.955  11.811   7.688
 2649POPC   NC335507  29.129  32.550   9.653
 2649POPC   PO435508  28.942  33.175   9.465
 2649POPC   GL135509  29.038  33.013   9.071
 2649POPC   GL235510  29.259  32.745   9.193
 2649POPC   C1A35511  29.141  33.196   8.668
 2649POPC   D2A35512  29.217  33.407   8.321
 2649POPC   C3A35513  29.098  33.150   7.996
 2649POPC   C4A35514  29.298  33.215   7.634
 2649POPC   C1B35515  29.359  32.736   8.752
 2649POPC   C2B35516  29.446  32.931   8.355
 2649POPC   C3B35517  29.385  32.725   7.961
 2649POPC   C4B35518  29.087  32.745   7.647
 2650POPC   NC335519  41.169  40.899   9.304
 2650POPC   PO435520  41.613  40.367   9.450
 2650POPC   GL135521  41.694  40.663   9.128
 2650POPC   GL235522  41.931  40.951   9.181
 2650POPC   C1A35523  41.517  40.823   8.750
 2650POPC   D2A35524  41.415  40.639   8.387
 2650POPC   C3A35525  41.441  40.925   8.138
 2650POPC   C4A35526  41.458  40.768   7.756
 2650POPC   C1B35527  42.018  40.837   8.743
 2650POPC   C2B35528  41.928  40.827   8.289
 2650POPC   C3B35529  41.881  41.033   7.899
 2650POPC   C4B35530  41.818  40.923   7.459
 2651POPC   NC335531  29.654  29.334   9.510
 2651POPC   PO435532  30.107  28.898   9.407
 2651POPC   GL135533  29.704  28.936   9.157
 2651POPC   GL235534  29.544  29.273   9.018
 2651POPC   C1A35535  29.805  28.905   8.728
 2651POPC   D2A35536  30.104  28.815   8.401
 2651POPC   C3A35537  29.879  29.042   8.108
 2651POPC   C4A35538  29.830  29.197   7.713
 2651POPC   C1B35539  29.917  29.434   8.782
 2651POPC   C2B35540  30.086  29.622   8.416
 2651POPC   C3B35541  29.864  29.586   8.050
 2651POPC   C4B35542  29.995  29.664   7.650
 2652POPC   NC335543   7.019  22.031   9.297
 2652POPC   PO435544   6.542  22.383   9.610
 2652POPC   GL135545   6.691  22.413   9.173
 2652POPC   GL235546   7.046  22.552   9.097
 2652POPC   C1A35547   6.647  22.320   8.739
 2652POPC   D2A35548   6.822  22.485   8.329
 2652POPC   C3A35549   6.549  22.553   7.974
 2652POPC   C4A35550   6.341  22.251   7.698
 2652POPC   C1B35551   7.157  22.314   8.695
 2652POPC   C2B35552   6.918  22.000   8.417
 2652POPC   C3B35553   6.702  22.042   8.015
 2652POPC   C4B35554   6.749  22.000   7.566
 2653POPC   NC335555  38.070   1.178   9.400
 2653POPC   PO435556  37.579   1.643   9.558
 2653POPC   GL135557  37.621   1.513   9.162
 2653POPC   GL235558  37.626   1.165   9.135
 2653POPC   C1A35559  37.785   1.533   8.764
 2653POPC   D2A35560  37.950   1.385   8.388
 2653POPC   C3A35561  37.756   1.420   7.989
 2653POPC   C4A35562  37.661   1.412   7.534
 2653POPC   C1B35563  37.777   1.026   8.748
 2653POPC   C2B35564  37.551   1.057   8.366
 2653POPC   C3B35565  37.643   0.932   7.949
 2653POPC   C4B35566  37.671   0.885   7.495
 2654POPC   NC335567  17.156  41.034   9.507
 2654POPC   PO435568  17.737  40.612   9.481
 2654POPC   GL135569  17.564  40.617   9.096
 2654POPC   GL235570  17.543  40.981   9.113
 2654POPC   C1A35571  17.376  40.710   8.673
 2654POPC   D2A35572  17.447  40.850   8.225
 2654POPC   C3A35573  17.237  40.645   7.863
 2654POPC   C4A35574  17.057  40.519   7.449
 2654POPC   C1B35575  17.868  40.891   8.779
 2654POPC   C2B35576  17.969  41.063   8.377
 2654POPC   C3B35577  17.756  41.180   8.002
 2654POPC   C4B35578  17.680  40.932   7.654
 2655POPC   NC335579  42.881  42.898   9.556
 2655POPC   PO435580  42.143  42.903   9.617
 2655POPC   GL135581  42.256  43.118   9.226
 2655POPC   GL235582  42.520  42.989   9.153
 2655POPC   C1A35583  42.162  43.116   8.775
 2655POPC   D2A35584  41.994  43.351   8.431
 2655POPC   C3A35585  42.193  43.338   8.026
 2655POPC   C4A35586  42.628  43.253   7.946
 2655POPC   C1B35587  42.632  42.901   8.707
 2655POPC   C2B35588  42.400  42.920   8.320
 2655POPC   C3B35589  42.156  42.815   7.970
 2655POPC   C4B35590  42.140  42.743   7.540
 2656POPC   NC335591  25.397  35.953   9.647
 2656POPC   PO435592  24.850  36.229   9.665
 2656POPC   GL135593  25.110  36.143   9.268
 2656POPC   GL235594  25.320  35.849   9.153
 2656POPC   C1A35595  25.195  36.295   8.849
 2656POPC   D2A35596  24.993  36.419   8.463
 2656POPC   C3A35597  25.298  36.478   8.097
 2656POPC   C4A35598  25.109  36.530   7.696
 2656POPC   C1B35599  25.132  35.789   8.735
 2656POPC   C2B35600  25.204  35.973   8.321
 2656POPC   C3B35601  24.938  36.121   8.002
 2656POPC   C4B35602  24.970  35.995   7.565
 2657POPC   NC335603  16.002  22.898   9.847
 2657POPC   PO435604  15.988  22.560   9.265
 2657POPC   GL135605  15.855  22.916   9.071
 2657POPC   GL235606  16.091  23.135   9.163
 2657POPC   C1A35607  15.754  23.001   8.633
 2657POPC   D2A35608  15.670  23.157   8.225
 2657POPC   C3A35609  15.960  23.081   7.920
 2657POPC   C4A35610  16.301  23.369   7.866
 2657POPC   C1B35611  16.244  23.149   8.748
 2657POPC   C2B35612  16.211  22.956   8.356
 2657POPC   C3B35613  16.454  22.862   8.028
 2657POPC   C4B35614  16.330  22.863   7.648
 2658POPC   NC335615  17.039  21.611   9.625
 2658POPC   PO435616  16.345  21.487   9.657
 2658POPC   GL135617  16.513  21.638   9.257
 2658POPC   GL235618  16.845  21.512   9.161
 2658POPC   C1A35619  16.460  21.489   8.804
 2658POPC   D2A35620  16.599  21.355   8.396
 2658POPC   C3A35621  16.334  21.503   8.054
 2658POPC   C4A35622  16.552  21.473   7.670
 2658POPC   C1B35623  16.967  21.251   8.797
 2658POPC   C2B35624  17.109  21.110   8.388
 2658POPC   C3B35625  16.929  21.065   7.979
 2658POPC   C4B35626  17.191  20.999   7.625
 2659POPC   NC335627  40.229  37.326   9.575
 2659POPC   PO435628  39.687  37.761   9.484
 2659POPC   GL135629  39.906  37.511   9.209
 2659POPC   GL235630  40.281  37.614   9.162
 2659POPC   C1A35631  39.839  37.382   8.793
 2659POPC   D2A35632  40.086  37.479   8.417
 2659POPC   C3A35633  39.826  37.595   8.061
 2659POPC   C4A35634  39.694  37.513   7.649
 2659POPC   C1B35635  40.094  37.832   8.806
 2659POPC   C2B35636  40.174  38.009   8.389
 2659POPC   C3B35637  40.303  37.818   8.004
 2659POPC   C4B35638  40.093  37.810   7.607
 2660POPC   NC335639   0.782   7.931   9.245
 2660POPC   PO435640   0.108   7.943   9.495
 2660POPC   GL135641   0.333   8.180   9.165
 2660POPC   GL235642   0.622   8.429   9.112
 2660POPC   C1A35643   0.386   8.075   8.738
 2660POPC   D2A35644   0.396   8.322   8.395
 2660POPC   C3A35645   0.219   8.086   8.070
 2660POPC   C4A35646   0.230   8.355   7.759
 2660POPC   C1B35647   0.848   8.329   8.707
 2660POPC   C2B35648   0.908   8.484   8.282
 2660POPC   C3B35649   0.714   8.204   7.989
 2660POPC   C4B35650   0.675   7.752   7.891
 2661POPC   NC335651   2.725  12.140   9.480
 2661POPC   PO435652   3.142  11.642   9.442
 2661POPC   GL135653   2.806  11.764   9.088
 2661POPC   GL235654   2.496  11.998   9.075
 2661POPC   C1A35655   2.625  11.773   8.633
 2661POPC   D2A35656   2.607  11.773   8.175
 2661POPC   C3A35657   2.818  12.112   8.024
 2661POPC   C4A35658   3.073  12.253   7.730
 2661POPC   C1B35659   2.304  12.249   8.779
 2661POPC   C2B35660   2.456  12.234   8.373
 2661POPC   C3B35661   2.309  12.162   7.964
 2661POPC   C4B35662   2.304  12.154   7.546
 2662POPC   NC335663  41.781  24.433   9.731
 2662POPC   PO435664  41.417  24.892   9.503
 2662POPC   GL135665  41.460  24.544   9.245
 2662POPC   GL235666  41.818  24.518   9.222
 2662POPC   C1A35667  41.275  24.507   8.827
 2662POPC   D2A35668  41.413  24.287   8.448
 2662POPC   C3A35669  41.331  24.435   8.044
 2662POPC   C4A35670  41.452  24.272   7.662
 2662POPC   C1B35671  41.749  24.287   8.856
 2662POPC   C2B35672  41.916  24.175   8.455
 2662POPC   C3B35673  41.809  24.229   8.041
 2662POPC   C4B35674  41.897  23.984   7.698
 2663POPC   NC335675  38.115  29.035   9.473
 2663POPC   PO435676  37.456  29.010   9.623
 2663POPC   GL135677  37.665  29.267   9.291
 2663POPC   GL235678  37.718  28.953   9.151
 2663POPC   C1A35679  37.877  29.495   8.912
 2663POPC   D2A35680  38.086  29.378   8.500
 2663POPC   C3A35681  37.783  29.168   8.231
 2663POPC   C4A35682  37.700  29.273   7.796
 2663POPC   C1B35683  37.931  28.995   8.776
 2663POPC   C2B35684  38.059  28.747   8.427
 2663POPC   C3B35685  38.090  28.819   7.974
 2663POPC   C4B35686  37.803  28.783   7.642
 2664POPC   NC335687   4.539  39.921   9.641
 2664POPC   PO435688   3.928  40.182   9.540
 2664POPC   GL135689   4.052  40.054   9.163
 2664POPC   GL235690   4.416  40.069   9.167
 2664POPC   C1A35691   4.036  40.080   8.743
 2664POPC   D2A35692   4.221  40.074   8.386
 2664POPC   C3A35693   3.982  40.171   8.019
 2664POPC   C4A35694   4.125  40.025   7.590
 2664POPC   C1B35695   4.462  40.341   8.821
 2664POPC   C2B35696   4.496  40.514   8.402
 2664POPC   C3B35697   4.480  40.311   8.000
 2664POPC   C4B35698   4.282  40.492   7.724
 2665POPC   NC335699  43.445  40.519   9.678
 2665POPC   PO435700  44.106  40.724   9.521
 2665POPC   GL135701  43.948  40.985   9.196
 2665POPC   GL235702  44.000  40.686   9.014
 2665POPC   C1A35703  43.760  41.048   8.767
 2665POPC   D2A35704  43.842  40.806   8.396
 2665POPC   C3A35705  43.794  41.069   8.033
 2665POPC   C4A35706  43.831  41.080   7.613
 2665POPC   C1B35707  43.990  40.390   8.710
 2665POPC   C2B35708  44.154  40.400   8.301
 2665POPC   C3B35709  43.957  40.441   7.915
 2665POPC   C4B35710  44.131  40.365   7.485
 2666POPC   NC335711  37.272  11.422   9.528
 2666POPC   PO435712  36.699  11.256   9.454
 2666POPC   GL135713  36.973  11.397   9.103
 2666POPC   GL235714  36.866  11.133   8.911
 2666POPC   C1A35715  37.219  11.390   8.677
 2666POPC   D2A35716  36.958  11.278   8.329
 2666POPC   C3A35717  37.076  11.190   7.912
 2666POPC   C4A35718  36.963  11.392   7.496
 2666POPC   C1B35719  36.536  11.129   8.594
 2666POPC   C2B35720  36.419  11.304   8.243
 2666POPC   C3B35721  36.587  11.354   7.853
 2666POPC   C4B35722  36.701  10.972   7.646
 2667POPC   NC335723   2.918   9.576   9.566
 2667POPC   PO435724   2.345  10.032   9.518
 2667POPC   GL135725   2.711   9.931   9.204
 2667POPC   GL235726   2.787   9.575   9.098
 2667POPC   C1A35727   2.815   9.913   8.740
 2667POPC   D2A35728   2.941   9.675   8.387
 2667POPC   C3A35729   2.791   9.824   7.991
 2667POPC   C4A35730   2.925   9.869   7.589
 2667POPC   C1B35731   2.856   9.325   8.767
 2667POPC   C2B35732   2.667   9.240   8.390
 2667POPC   C3B35733   2.902   9.326   8.025
 2667POPC   C4B35734   2.705   9.239   7.675
 2668POPC   NC335735   5.617   6.741   9.336
 2668POPC   PO435736   6.080   7.133   9.352
 2668POPC   GL135737   5.993   6.921   9.026
 2668POPC   GL235738   6.049   6.585   9.107
 2668POPC   C1A35739   6.063   6.957   8.629
 2668POPC   D2A35740   5.768   6.922   8.303
 2668POPC   C3A35741   5.792   6.667   7.960
 2668POPC   C4A35742   5.967   6.794   7.560
 2668POPC   C1B35743   5.783   6.540   8.727
 2668POPC   C2B35744   5.611   6.155   8.567
 2668POPC   C3B35745   5.399   6.081   8.227
 2668POPC   C4B35746   5.479   6.298   7.803
 2669POPC   NC335747  24.069  14.094   9.467
 2669POPC   PO435748  24.731  14.483   9.525
 2669POPC   GL135749  24.750  14.312   9.168
 2669POPC   GL235750  24.374  14.359   9.143
 2669POPC   C1A35751  24.705  14.390   8.761
 2669POPC   D2A35752  24.810  14.629   8.488
 2669POPC   C3A35753  24.812  14.383   8.174
 2669POPC   C4A35754  24.677  14.388   7.786
 2669POPC   C1B35755  24.345  14.051   8.794
 2669POPC   C2B35756  24.303  14.197   8.375
 2669POPC   C3B35757  24.043  13.998   8.051
 2669POPC   C4B35758  24.209  14.027   7.686
 2670POPC   NC335759  31.921  35.574   9.264
 2670POPC   PO435760  32.503  35.387   9.494
 2670POPC   GL135761  32.331  35.318   9.103
 2670POPC   GL235762  32.024  35.135   9.046
 2670POPC   C1A35763  32.282  35.570   8.726
 2670POPC   D2A35764  32.508  35.516   8.380
 2670POPC   C3A35765  32.382  35.623   8.007
 2670POPC   C4A35766  32.166  35.407   7.760
 2670POPC   C1B35767  32.229  35.073   8.623
 2670POPC   C2B35768  32.254  35.067   8.152
 2670POPC   C3B35769  31.974  34.964   7.799
 2670POPC   C4B35770  31.879  35.187   7.384
 2671POPC   NC335771  38.442  24.339   9.445
 2671POPC   PO435772  37.787  24.443   9.599
 2671POPC   GL135773  38.081  24.698   9.207
 2671POPC   GL235774  38.414  24.655   9.050
 2671POPC   C1A35775  37.983  24.762   8.773
 2671POPC   D2A35776  37.907  24.628   8.329
 2671POPC   C3A35777  38.286  24.604   8.147
 2671POPC   C4A35778  38.571  24.460   7.867
 2671POPC   C1B35779  38.772  24.699   8.719
 2671POPC   C2B35780  38.854  24.544   8.302
 2671POPC   C3B35781  39.046  24.308   7.978
 2671POPC   C4B35782  38.883  24.243   7.537
 2672POPC   NC335783  29.119  34.979   9.464
 2672POPC   PO435784  29.309  35.596   9.600
 2672POPC   GL135785  29.236  35.492   9.162
 2672POPC   GL235786  29.338  35.159   9.064
 2672POPC   C1A35787  29.099  35.478   8.714
 2672POPC   D2A35788  28.838  35.259   8.410
 2672POPC   C3A35789  28.840  35.384   7.964
 2672POPC   C4A35790  29.123  35.394   7.615
 2672POPC   C1B35791  29.143  34.951   8.729
 2672POPC   C2B35792  29.299  34.815   8.350
 2672POPC   C3B35793  29.231  35.028   7.975
 2672POPC   C4B35794  29.398  34.915   7.594
 2673POPC   NC335795  16.371  22.791   9.413
 2673POPC   PO435796  17.078  22.896   9.506
 2673POPC   GL135797  16.875  22.698   9.189
 2673POPC   GL235798  16.660  22.936   9.035
 2673POPC   C1A35799  16.855  22.532   8.767
 2673POPC   D2A35800  16.758  22.821   8.440
 2673POPC   C3A35801  17.022  22.801   8.076
 2673POPC   C4A35802  16.829  22.732   7.673
 2673POPC   C1B35803  16.747  23.232   8.757
 2673POPC   C2B35804  16.589  23.334   8.352
 2673POPC   C3B35805  16.787  23.241   7.984
 2673POPC   C4B35806  16.701  23.209   7.597
 2674POPC   NC335807   5.098   2.611   9.584
 2674POPC   PO435808   5.298   3.207   9.387
 2674POPC   GL135809   5.030   2.905   9.150
 2674POPC   GL235810   5.287   2.663   9.109
 2674POPC   C1A35811   4.931   2.717   8.737
 2674POPC   D2A35812   5.191   2.696   8.351
 2674POPC   C3A35813   5.028   2.531   8.023
 2674POPC   C4A35814   4.848   2.707   7.682
 2674POPC   C1B35815   5.414   2.490   8.736
 2674POPC   C2B35816   5.322   2.199   8.353
 2674POPC   C3B35817   5.363   2.186   7.885
 2674POPC   C4B35818   5.270   2.494   7.541
 2675POPC   NC335819  26.125  20.382   9.392
 2675POPC   PO435820  25.790  20.739   9.765
 2675POPC   GL135821  25.761  20.765   9.305
 2675POPC   GL235822  26.102  20.858   9.234
 2675POPC   C1A35823  25.685  20.566   8.875
 2675POPC   D2A35824  25.980  20.527   8.518
 2675POPC   C3A35825  25.855  20.511   8.100
 2675POPC   C4A35826  26.147  20.353   7.746
 2675POPC   C1B35827  26.021  20.937   8.826
 2675POPC   C2B35828  25.793  20.994   8.437
 2675POPC   C3B35829  25.964  21.069   8.052
 2675POPC   C4B35830  25.889  20.816   7.706
 2676POPC   NC335831  39.428  11.325   9.331
 2676POPC   PO435832  38.748  11.467   9.496
 2676POPC   GL135833  38.982  11.376   9.111
 2676POPC   GL235834  39.185  11.691   9.060
 2676POPC   C1A35835  39.123  11.333   8.680
 2676POPC   D2A35836  38.908  11.522   8.306
 2676POPC   C3A35837  39.114  11.491   7.910
 2676POPC   C4A35838  39.278  11.180   7.600
 2676POPC   C1B35839  39.524  11.633   8.717
 2676POPC   C2B35840  39.440  11.505   8.318
 2676POPC   C3B35841  39.566  11.236   8.017
 2676POPC   C4B35842  39.767  11.341   7.650
 2677POPC   NC335843  37.717  24.042   9.394
 2677POPC   PO435844  37.411  24.736   9.424
 2677POPC   GL135845  37.617  24.473   9.104
 2677POPC   GL235846  37.958  24.259   9.030
 2677POPC   C1A35847  37.601  24.420   8.675
 2677POPC   D2A35848  37.464  24.263   8.293
 2677POPC   C3A35849  37.502  24.569   8.006
 2677POPC   C4A35850  37.801  24.554   7.721
 2677POPC   C1B35851  38.081  24.226   8.628
 2677POPC   C2B35852  37.933  24.046   8.265
 2677POPC   C3B35853  38.072  24.177   7.876
 2677POPC   C4B35854  38.009  24.156   7.403
 2678POPC   NC335855   6.771  13.993   9.349
 2678POPC   PO435856   6.520  14.652   9.508
 2678POPC   GL135857   6.533  14.405   9.176
 2678POPC   GL235858   6.882  14.476   9.154
 2678POPC   C1A35859   6.528  14.162   8.788
 2678POPC   D2A35860   6.358  14.293   8.430
 2678POPC   C3A35861   6.539  14.241   8.052
 2678POPC   C4A35862   6.736  14.550   7.805
 2678POPC   C1B35863   7.036  14.240   8.810
 2678POPC   C2B35864   6.893  14.083   8.424
 2678POPC   C3B35865   7.044  14.187   8.037
 2678POPC   C4B35866   7.181  14.366   7.671
 2679POPC   NC335867  18.186  31.470   9.471
 2679POPC   PO435868  17.861  32.120   9.409
 2679POPC   GL135869  17.984  31.761   9.101
 2679POPC   GL235870  18.033  31.353   8.999
 2679POPC   C1A35871  18.355  31.680   8.837
 2679POPC   D2A35872  18.366  31.304   8.578
 2679POPC   C3A35873  18.464  31.261   8.147
 2679POPC   C4A35874  18.427  31.503   7.799
 2679POPC   C1B35875  17.901  31.595   8.606
 2679POPC   C2B35876  18.055  31.610   8.175
 2679POPC   C3B35877  17.937  31.606   7.740
 2679POPC   C4B35878  17.747  31.493   7.323
 2680POPC   NC335879   1.666  37.009   9.489
 2680POPC   PO435880   2.288  36.660   9.574
 2680POPC   GL135881   2.083  36.836   9.208
 2680POPC   GL235882   1.983  37.169   9.072
 2680POPC   C1A35883   2.003  36.705   8.804
 2680POPC   D2A35884   1.923  36.637   8.378
 2680POPC   C3A35885   2.219  36.690   8.035
 2680POPC   C4A35886   2.046  36.769   7.641
 2680POPC   C1B35887   1.722  37.103   8.700
 2680POPC   C2B35888   1.722  37.099   8.303
 2680POPC   C3B35889   1.983  37.144   8.002
 2680POPC   C4B35890   1.778  37.201   7.620
 2681POPC   NC335891   3.126  11.240   9.656
 2681POPC   PO435892   2.580  10.976   9.404
 2681POPC   GL135893   2.857  11.236   9.110
 2681POPC   GL235894   3.204  11.371   9.027
 2681POPC   C1A35895   2.856  11.312   8.666
 2681POPC   D2A35896   2.596  11.289   8.321
 2681POPC   C3A35897   2.740  11.171   7.913
 2681POPC   C4A35898   2.801  11.398   7.547
 2681POPC   C1B35899   3.355  11.244   8.607
 2681POPC   C2B35900   3.137  11.090   8.241
 2681POPC   C3B35901   3.245  11.165   7.807
 2681POPC   C4B35902   3.286  11.284   7.390
 2682POPC   NC335903   4.624  43.117   9.576
 2682POPC   PO435904   5.249  43.432   9.505
 2682POPC   GL135905   5.058  43.121   9.218
 2682POPC   GL235906   5.284  42.817   9.126
 2682POPC   C1A35907   4.879  43.044   8.853
 2682POPC   D2A35908   4.948  43.360   8.526
 2682POPC   C3A35909   5.098  43.169   8.157
 2682POPC   C4A35910   5.131  43.079   7.735
 2682POPC   C1B35911   5.366  43.056   8.736
 2682POPC   C2B35912   5.587  43.116   8.372
 2682POPC   C3B35913   5.581  43.182   7.935
 2682POPC   C4B35914   5.517  42.756   7.738
 2683POPC   NC335915  37.561  39.593   9.494
 2683POPC   PO435916  37.836  38.986   9.635
 2683POPC   GL135917  37.913  38.979   9.205
 2683POPC   GL235918  37.993  39.329   9.228
 2683POPC   C1A35919  37.789  38.883   8.761
 2683POPC   D2A35920  37.863  39.141   8.383
 2683POPC   C3A35921  37.641  39.095   7.979
 2683POPC   C4A35922  37.832  38.801   7.711
 2683POPC   C1B35923  37.729  39.378   8.871
 2683POPC   C2B35924  37.747  39.627   8.518
 2683POPC   C3B35925  37.825  39.574   8.085
 2683POPC   C4B35926  37.648  39.548   7.677
 2684POPC   NC335927  31.576   9.564   9.365
 2684POPC   PO435928  31.533  10.190   9.586
 2684POPC   GL135929  31.376   9.975   9.125
 2684POPC   GL235930  31.118   9.697   9.175
 2684POPC   C1A35931  31.564   9.980   8.653
 2684POPC   D2A35932  31.882   9.756   8.358
 2684POPC   C3A35933  31.852   9.837   7.923
 2684POPC   C4A35934  31.413   9.796   7.810
 2684POPC   C1B35935  31.261   9.590   8.760
 2684POPC   C2B35936  31.373   9.654   8.321
 2684POPC   C3B35937  31.376   9.345   8.061
 2684POPC   C4B35938  31.193   9.349   7.702
 2685POPC   NC335939  28.475  10.324   9.560
 2685POPC   PO435940  28.015  10.825   9.479
 2685POPC   GL135941  28.221  10.670   9.089
 2685POPC   GL235942  28.386  10.328   9.050
 2685POPC   C1A35943  28.108  10.548   8.649
 2685POPC   D2A35944  27.998  10.218   8.343
 2685POPC   C3A35945  28.123  10.371   7.941
 2685POPC   C4A35946  28.262  10.811   7.885
 2685POPC   C1B35947  28.623  10.548   8.769
 2685POPC   C2B35948  28.765  10.624   8.359
 2685POPC   C3B35949  28.636  10.479   7.948
 2685POPC   C4B35950  28.555  10.683   7.509
 2686POPC   NC335951  11.891  29.668   9.407
 2686POPC   PO435952  12.173  29.041   9.352
 2686POPC   GL135953  12.107  29.127   8.960
 2686POPC   GL235954  11.856  29.350   9.019
 2686POPC   C1A35955  12.264  29.239   8.558
 2686POPC   D2A35956  12.075  29.028   8.233
 2686POPC   C3A35957  12.175  29.123   7.831
 2686POPC   C4A35958  11.958  29.492   7.743
 2686POPC   C1B35959  11.810  29.529   8.639
 2686POPC   C2B35960  11.976  29.627   8.242
 2686POPC   C3B35961  12.363  29.550   8.047
 2686POPC   C4B35962  12.435  29.529   7.580
 2687POPC   NC335963  44.765  35.442   9.624
 2687POPC   PO435964  44.717  34.791   9.551
 2687POPC   GL135965  44.495  35.166   9.241
 2687POPC   GL235966  44.661  35.487   9.123
 2687POPC   C1A35967  44.293  35.371   8.810
 2687POPC   D2A35968  44.256  35.432   8.357
 2687POPC   C3A35969  44.605  35.477   8.052
 2687POPC   C4A35970  44.844  35.206   7.747
 2687POPC   C1B35971  44.686  35.721   8.705
 2687POPC   C2B35972  44.947  35.795   8.315
 2687POPC   C3B35973   0.052  35.671   7.862
 2687POPC   C4B35974  44.944  35.576   7.404
 2688POPC   NC335975  15.644  22.251   9.343
 2688POPC   PO435976  16.202  22.473   9.736
 2688POPC   GL135977  16.124  22.099   9.252
 2688POPC   GL235978  16.052  21.802   9.116
 2688POPC   C1A35979  16.047  22.198   8.747
 2688POPC   D2A35980  15.866  22.521   8.421
 2688POPC   C3A35981  16.037  22.551   7.972
 2688POPC   C4A35982  16.078  22.456   7.502
 2688POPC   C1B35983  15.970  21.697   8.663
 2688POPC   C2B35984  15.908  21.949   8.279
 2688POPC   C3B35985  16.081  22.037   7.857
 2688POPC   C4B35986  15.874  22.010   7.446
 2689POPC   NC335987   9.339   8.622   9.736
 2689POPC   PO435988   9.769   9.057   9.551
 2689POPC   GL135989   9.822   8.777   9.152
 2689POPC   GL235990  10.106   8.866   9.030
 2689POPC   C1A35991   9.770   8.743   8.676
 2689POPC   D2A35992   9.776   9.018   8.316
 2689POPC   C3A35993   9.610   8.734   8.024
 2689POPC   C4A35994   9.909   8.546   7.737
 2689POPC   C1B35995   9.914   9.222   8.796
 2689POPC   C2B35996  10.094   9.457   8.464
 2689POPC   C3B35997  10.066   9.379   8.010
 2689POPC   C4B35998   9.822   9.094   7.750
 2690POPC   NC335999  39.948  26.229   9.668
 2690POPC   PO436000  39.656  25.806   9.213
 2690POPC   GL136001  39.895  26.033   9.016
 2690POPC   GL236002  40.104  26.184   9.199
 2690POPC   C1A36003  40.077  25.975   8.661
 2690POPC   D2A36004  40.326  25.976   8.371
 2690POPC   C3A36005  40.097  25.799   8.073
 2690POPC   C4A36006  40.116  25.915   7.711
 2690POPC   C1B36007  40.246  26.409   8.842
 2690POPC   C2B36008  40.303  26.520   8.415
 2690POPC   C3B36009  40.263  26.342   8.002
 2690POPC   C4B36010  39.974  26.446   7.687
 2691POPC   NC336011  26.052  37.558   9.539
 2691POPC   PO436012  25.661  38.010   9.567
 2691POPC   GL136013  25.904  37.978   9.203
 2691POPC   GL236014  26.214  37.851   9.144
 2691POPC   C1A36015  25.887  37.773   8.785
 2691POPC   D2A36016  25.987  37.552   8.429
 2691POPC   C3A36017  25.725  37.517   8.076
 2691POPC   C4A36018  25.724  37.279   7.745
 2691POPC   C1B36019  26.374  37.588   8.813
 2691POPC   C2B36020  26.482  37.467   8.403
 2691POPC   C3B36021  26.246  37.363   8.013
 2691POPC   C4B36022  26.137  37.606   7.685
 2692POPC   NC336023  20.998   1.133   9.490
 2692POPC   PO436024  20.524   1.577   9.450
 2692POPC   GL136025  20.375   1.259   9.173
 2692POPC   GL236026  20.549   0.922   9.216
 2692POPC   C1A36027  20.428   1.141   8.740
 2692POPC   D2A36028  20.299   1.197   8.318
 2692POPC   C3A36029  20.626   1.257   8.087
 2692POPC   C4A36030  20.696   1.466   7.756
 2692POPC   C1B36031  20.869   0.909   8.875
 2692POPC   C2B36032  20.861   0.924   8.428
 2692POPC   C3B36033  20.910   0.773   7.996
 2692POPC   C4B36034  20.754   0.971   7.604
 2693POPC   NC336035  29.475  37.168   9.486
 2693POPC   PO436036  28.833  37.179   9.440
 2693POPC   GL136037  29.039  36.909   9.150
 2693POPC   GL236038  29.291  36.667   9.252
 2693POPC   C1A36039  28.982  36.977   8.713
 2693POPC   D2A36040  29.153  36.998   8.332
 2693POPC   C3A36041  29.008  36.977   7.931
 2693POPC   C4A36042  29.262  37.089   7.588
 2693POPC   C1B36043  29.459  36.833   8.847
 2693POPC   C2B36044  29.616  36.781   8.433
 2693POPC   C3B36045  29.550  36.895   7.990
 2693POPC   C4B36046  29.690  36.776   7.563
 2694POPC   NC336047  42.479  25.046   9.617
 2694POPC   PO436048  42.013  25.506   9.487
 2694POPC   GL136049  42.201  25.283   9.153
 2694POPC   GL236050  42.527  25.184   9.119
 2694POPC   C1A36051  42.152  25.105   8.759
 2694POPC   D2A36052  42.329  24.952   8.371
 2694POPC   C3A36053  42.088  25.143   8.059
 2694POPC   C4A36054  42.193  25.273   7.675
 2694POPC   C1B36055  42.537  25.576   8.875
 2694POPC   C2B36056  42.489  25.665   8.447
 2694POPC   C3B36057  42.534  25.401   8.098
 2694POPC   C4B36058  42.608  25.561   7.703
 2695POPC   NC336059  25.946  27.351   9.523
 2695POPC   PO436060  26.311  27.865   9.471
 2695POPC   GL136061  26.225  27.553   9.150
 2695POPC   GL236062  25.886  27.571   9.058
 2695POPC   C1A36063  26.281  27.360   8.754
 2695POPC   D2A36064  26.065  27.303   8.364
 2695POPC   C3A36065  26.053  27.609   8.051
 2695POPC   C4A36066  26.311  27.587   7.715
 2695POPC   C1B36067  25.776  27.170   8.836
 2695POPC   C2B36068  25.658  27.006   8.419
 2695POPC   C3B36069  25.698  27.168   7.992
 2695POPC   C4B36070  25.809  27.470   7.615
 2696POPC   NC336071  35.026  38.397   9.489
 2696POPC   PO436072  35.511  38.900   9.523
 2696POPC   GL136073  35.461  38.604   9.167
 2696POPC   GL236074  35.307  38.313   9.092
 2696POPC   C1A36075  35.281  38.637   8.715
 2696POPC   D2A36076  35.531  38.485   8.340
 2696POPC   C3A36077  35.298  38.664   8.043
 2696POPC   C4A36078  35.103  38.571   7.684
 2696POPC   C1B36079  35.210  38.143   8.729
 2696POPC   C2B36080  35.095  38.268   8.363
 2696POPC   C3B36081  35.289  38.148   7.992
 2696POPC   C4B36082  35.172  38.056   7.609
 2697POPC   NC336083  17.442   8.462   9.539
 2697POPC   PO436084  17.448   7.770   9.606
 2697POPC   GL136085  17.500   7.977   9.164
 2697POPC   GL236086  17.486   8.363   9.049
 2697POPC   C1A36087  17.411   8.009   8.709
 2697POPC   D2A36088  17.441   8.365   8.401
 2697POPC   C3A36089  17.395   8.144   8.019
 2697POPC   C4A36090  17.484   7.713   7.858
 2697POPC   C1B36091  17.822   8.494   8.722
 2697POPC   C2B36092  18.022   8.453   8.317
 2697POPC   C3B36093  17.834   8.535   7.924
 2697POPC   C4B36094  17.851   8.563   7.470
 2698POPC   NC336095   8.898  30.131   9.382
 2698POPC   PO436096   9.122  29.504   9.414
 2698POPC   GL136097   8.956  29.688   9.038
 2698POPC   GL236098   8.679  29.740   9.137
 2698POPC   C1A36099   8.916  29.738   8.566
 2698POPC   D2A36100   8.943  30.143   8.303
 2698POPC   C3A36101   9.240  30.163   7.945
 2698POPC   C4A36102   9.244  30.100   7.488
 2698POPC   C1B36103   8.586  30.051   8.814
 2698POPC   C2B36104   8.460  30.000   8.422
 2698POPC   C3B36105   8.570  29.871   8.012
 2698POPC   C4B36106   8.797  30.016   7.689
 2699POPC   NC336107   3.215  17.536   9.473
 2699POPC   PO436108   3.722  17.075   9.528
 2699POPC   GL136109   3.769  17.436   9.153
 2699POPC   GL236110   3.419  17.569   9.031
 2699POPC   C1A36111   3.760  17.742   8.744
 2699POPC   D2A36112   3.628  17.507   8.386
 2699POPC   C3A36113   3.736  17.643   8.036
 2699POPC   C4A36114   3.996  17.426   7.764
 2699POPC   C1B36115   3.178  17.539   8.664
 2699POPC   C2B36116   3.091  17.549   8.232
 2699POPC   C3B36117   3.190  17.294   7.897
 2699POPC   C4B36118   3.293  17.368   7.489
 2700POPC   NC336119  16.269  41.852   9.363
 2700POPC   PO436120  15.858  41.348   9.585
 2700POPC   GL136121  15.878  41.564   9.159
 2700POPC   GL236122  15.819  41.961   9.154
 2700POPC   C1A36123  16.069  41.432   8.780
 2700POPC   D2A36124  16.263  41.261   8.423
 2700POPC   C3A36125  16.102  41.447   8.054
 2700POPC   C4A36126  15.888  41.478   7.650
 2700POPC   C1B36127  16.042  41.953   8.754
 2700POPC   C2B36128  15.865  41.935   8.359
 2700POPC   C3B36129  15.929  41.939   7.936
 2700POPC   C4B36130  16.289  41.802   7.735
 2701POPC   NC336131   4.838  43.800   9.402
 2701POPC   PO436132   5.455  44.012   9.508
 2701POPC   GL136133   5.253  43.927   9.144
 2701POPC   GL236134   5.237  44.287   9.122
 2701POPC   C1A36135   4.912  43.880   8.771
 2701POPC   D2A36136   4.709  43.961   8.368
 2701POPC   C3A36137   4.873  43.652   8.087
 2701POPC   C4A36138   5.213  43.567   7.801
 2701POPC   C1B36139   5.329  44.144   8.706
 2701POPC   C2B36140   5.213  44.041   8.325
 2701POPC   C3B36141   5.138  44.074   7.927
 2701POPC   C4B36142   5.435  44.013   7.607
 2702POPC   NC336143  13.218  39.462   9.591
 2702POPC   PO436144  13.859  39.261   9.575
 2702POPC   GL136145  13.614  39.376   9.249
 2702POPC   GL236146  13.434  39.097   9.239
 2702POPC   C1A36147  13.762  39.391   8.843
 2702POPC   D2A36148  13.912  39.271   8.454
 2702POPC   C3A36149  13.682  39.421   8.123
 2702POPC   C4A36150  13.642  39.520   7.696
 2702POPC   C1B36151  13.295  39.048   8.851
 2702POPC   C2B36152  13.378  39.268   8.520
 2702POPC   C3B36153  13.263  39.099   8.144
 2702POPC   C4B36154  13.271  39.137   7.722
 2703POPC   NC336155   3.536  31.310   9.582
 2703POPC   PO436156   3.421  31.960   9.702
 2703POPC   GL136157   3.542  31.718   9.252
 2703POPC   GL236158   3.811  31.502   9.215
 2703POPC   C1A36159   3.390  31.577   8.823
 2703POPC   D2A36160   3.248  31.472   8.415
 2703POPC   C3A36161   3.493  31.587   8.093
 2703POPC   C4A36162   3.468  31.488   7.679
 2703POPC   C1B36163   3.960  31.713   8.877
 2703POPC   C2B36164   3.802  31.586   8.500
 2703POPC   C3B36165   3.970  31.359   8.165
 2703POPC   C4B36166   3.962  31.504   7.776
 2704POPC   NC336167  20.515  16.158   9.404
 2704POPC   PO436168  20.993  15.844   9.700
 2704POPC   GL136169  20.921  15.895   9.195
 2704POPC   GL236170  20.543  15.795   9.048
 2704POPC   C1A36171  20.931  15.687   8.768
 2704POPC   D2A36172  20.536  15.675   8.499
 2704POPC   C3A36173  20.616  15.796   8.084
 2704POPC   C4A36174  20.577  15.927   7.667
 2704POPC   C1B36175  20.623  16.116   8.772
 2704POPC   C2B36176  20.541  16.219   8.366
 2704POPC   C3B36177  20.299  16.215   8.003
 2704POPC   C4B36178  20.376  16.375   7.614
 2705POPC   NC336179  42.790   9.001   9.770
 2705POPC   PO436180  42.322   8.767   9.384
 2705POPC   GL136181  42.418   9.077   9.118
 2705POPC   GL236182  42.725   9.068   9.220
 2705POPC   C1A36183  42.220   9.028   8.744
 2705POPC   D2A36184  42.198   8.700   8.441
 2705POPC   C3A36185  42.264   8.896   8.048
 2705POPC   C4A36186  42.145   9.299   7.850
 2705POPC   C1B36187  42.681   8.810   8.801
 2705POPC   C2B36188  42.642   8.997   8.413
 2705POPC   C3B36189  42.792   8.936   8.027
 2705POPC   C4B36190  42.578   8.993   7.656
 2706POPC   NC336191  24.296  15.718   9.872
 2706POPC   PO436192  24.764  15.966   9.423
 2706POPC   GL136193  24.465  16.066   9.138
 2706POPC   GL236194  24.325  15.722   9.115
 2706POPC   C1A36195  24.562  16.297   8.763
 2706POPC   D2A36196  24.402  16.212   8.357
 2706POPC   C3A36197  24.706  16.003   8.106
 2706POPC   C4A36198  24.511  15.844   7.760
 2706POPC   C1B36199  24.330  15.808   8.668
 2706POPC   C2B36200  24.268  15.728   8.217
 2706POPC   C3B36201  24.117  15.540   7.829
 2706POPC   C4B36202  24.232  15.698   7.362
 2707POPC   NC336203   8.082  28.708  10.004
 2707POPC   PO436204   8.083  29.093   9.486
 2707POPC   GL136205   8.043  29.101   9.089
 2707POPC   GL236206   8.381  29.143   9.084
 2707POPC   C1A36207   8.062  29.199   8.659
 2707POPC   D2A36208   8.218  29.065   8.276
 2707POPC   C3A36209   7.927  29.033   7.969
 2707POPC   C4A36210   7.934  29.257   7.635
 2707POPC   C1B36211   8.538  28.966   8.759
 2707POPC   C2B36212   8.538  28.712   8.415
 2707POPC   C3B36213   8.656  28.900   8.036
 2707POPC   C4B36214   8.388  28.940   7.693
 2708POPC   NC336215  18.204   6.074   9.445
 2708POPC   PO436216  18.462   5.447   9.574
 2708POPC   GL136217  18.540   5.695   9.197
 2708POPC   GL236218  18.747   6.000   9.221
 2708POPC   C1A36219  18.222   5.805   8.835
 2708POPC   D2A36220  18.088   5.935   8.406
 2708POPC   C3A36221  18.011   5.599   8.098
 2708POPC   C4A36222  18.261   5.741   7.792
 2708POPC   C1B36223  18.690   6.018   8.809
 2708POPC   C2B36224  18.700   6.334   8.515
 2708POPC   C3B36225  18.519   6.159   8.169
 2708POPC   C4B36226  18.749   5.917   7.863
 2709POPC   NC336227  20.948  19.994   9.511
 2709POPC   PO436228  20.250  19.970   9.292
 2709POPC   GL136229  20.629  19.765   9.144
 2709POPC   GL236230  20.928  19.602   9.201
 2709POPC   C1A36231  20.839  19.895   8.788
 2709POPC   D2A36232  20.613  19.890   8.404
 2709POPC   C3A36233  20.671  19.986   7.983
 2709POPC   C4A36234  20.474  19.844   7.599
 2709POPC   C1B36235  20.939  19.365   8.843
 2709POPC   C2B36236  21.027  19.379   8.432
 2709POPC   C3B36237  21.064  19.654   8.108
 2709POPC   C4B36238  20.826  19.503   7.799
 2710POPC   NC336239   8.671   6.896   9.408
 2710POPC   PO436240   9.346   6.713   9.482
 2710POPC   GL136241   8.998   6.573   9.140
 2710POPC   GL236242   8.889   6.176   9.108
 2710POPC   C1A36243   8.725   6.565   8.764
 2710POPC   D2A36244   8.526   6.364   8.395
 2710POPC   C3A36245   8.644   6.561   8.027
 2710POPC   C4A36246   8.865   6.578   7.650
 2710POPC   C1B36247   9.143   6.247   8.769
 2710POPC   C2B36248   9.056   6.427   8.392
 2710POPC   C3B36249   9.062   6.261   8.010
 2710POPC   C4B36250   9.316   6.328   7.621
 2711POPC   NC336251  27.922  12.015   9.444
 2711POPC   PO436252  27.356  12.408   9.543
 2711POPC   GL136253  27.503  12.183   9.165
 2711POPC   GL236254  27.800  12.346   9.077
 2711POPC   C1A36255  27.618  12.004   8.729
 2711POPC   D2A36256  27.835  12.115   8.310
 2711POPC   C3A36257  27.561  12.072   7.933
 2711POPC   C4A36258  27.399  11.702   7.741
 2711POPC   C1B36259  27.495  12.484   8.754
 2711POPC   C2B36260  27.566  12.556   8.314
 2711POPC   C3B36261  27.837  12.512   7.957
 2711POPC   C4B36262  27.730  12.379   7.523
 2712POPC   NC336263  33.446  34.464   9.642
 2712POPC   PO436264  32.822  34.526   9.405
 2712POPC   GL136265  33.189  34.516   9.170
 2712POPC   GL236266  33.309  34.821   9.274
 2712POPC   C1A36267  33.080  34.407   8.742
 2712POPC   D2A36268  32.914  34.563   8.397
 2712POPC   C3A36269  32.986  34.374   8.000
 2712POPC   C4A36270  32.683  34.326   7.677
 2712POPC   C1B36271  33.090  34.905   8.855
 2712POPC   C2B36272  33.217  34.995   8.434
 2712POPC   C3B36273  33.085  34.881   8.046
 2712POPC   C4B36274  32.958  34.752   7.634
 2713POPC   NC336275  18.656  43.439   9.826
 2713POPC   PO436276  18.559  44.065   9.492
 2713POPC   GL136277  18.256  43.927   9.138
 2713POPC   GL236278  17.962  44.180   9.063
 2713POPC   C1A36279  18.357  43.659   8.737
 2713POPC   D2A36280  18.560  43.446   8.368
 2713POPC   C3A36281  18.572  43.653   7.955
 2713POPC   C4A36282  18.205  43.896   7.781
 2713POPC   C1B36283  18.263  44.207   8.716
 2713POPC   C2B36284  18.342  44.034   8.314
 2713POPC   C3B36285  18.583  44.167   7.990
 2713POPC   C4B36286  18.574  44.308   7.570
 2714POPC   NC336287   7.445  38.149   9.427
 2714POPC   PO436288   7.072  38.637   9.607
 2714POPC   GL136289   7.151  38.564   9.212
 2714POPC   GL236290   7.024  38.264   9.124
 2714POPC   C1A36291   7.378  38.621   8.844
 2714POPC   D2A36292   7.315  38.532   8.446
 2714POPC   C3A36293   7.587  38.505   8.119
 2714POPC   C4A36294   7.447  38.579   7.706
 2714POPC   C1B36295   7.333  38.105   8.788
 2714POPC   C2B36296   7.466  38.051   8.369
 2714POPC   C3B36297   7.218  38.181   8.012
 2714POPC   C4B36298   7.589  38.111   7.773
 2715POPC   NC336299   7.785  35.533   9.314
 2715POPC   PO436300   7.254  35.723   9.505
 2715POPC   GL136301   7.308  35.498   9.105
 2715POPC   GL236302   7.470  35.165   9.144
 2715POPC   C1A36303   7.194  35.274   8.718
 2715POPC   D2A36304   7.054  35.299   8.313
 2715POPC   C3A36305   7.360  35.274   8.009
 2715POPC   C4A36306   7.263  35.680   7.815
 2715POPC   C1B36307   7.692  35.267   8.740
 2715POPC   C2B36308   7.559  35.524   8.424
 2715POPC   C3B36309   7.733  35.670   8.055
 2715POPC   C4B36310   7.708  35.471   7.672
 2716POPC   NC336311  16.396  18.542   9.354
 2716POPC   PO436312  15.838  18.032   9.462
 2716POPC   GL136313  15.960  18.324   9.190
 2716POPC   GL236314  16.239  18.125   9.093
 2716POPC   C1A36315  15.931  18.522   8.794
 2716POPC   D2A36316  16.075  18.633   8.394
 2716POPC   C3A36317  15.881  18.523   8.042
 2716POPC   C4A36318  15.912  18.702   7.657
 2716POPC   C1B36319  15.982  18.023   8.739
 2716POPC   C2B36320  16.024  18.114   8.316
 2716POPC   C3B36321  16.153  18.115   7.915
 2716POPC   C4B36322  16.196  18.159   7.487
 2717POPC   NC336323  12.591  28.907   9.471
 2717POPC   PO436324  12.995  29.423   9.608
 2717POPC   GL136325  13.015  29.105   9.277
 2717POPC   GL236326  12.765  29.236   9.039
 2717POPC   C1A36327  12.978  28.782   8.935
 2717POPC   D2A36328  12.910  28.922   8.509
 2717POPC   C3A36329  12.595  28.940   8.186
 2717POPC   C4A36330  12.695  29.190   7.848
 2717POPC   C1B36331  13.164  29.270   8.774
 2717POPC   C2B36332  13.247  29.447   8.326
 2717POPC   C3B36333  13.193  29.296   7.894
 2717POPC   C4B36334  13.407  29.325   7.482
 2718POPC   NC336335  40.701  25.633   9.386
 2718POPC   PO436336  40.560  26.242   9.420
 2718POPC   GL136337  40.570  26.027   9.050
 2718POPC   GL236338  40.899  26.163   9.009
 2718POPC   C1A36339  40.628  25.733   8.723
 2718POPC   D2A36340  40.806  25.717   8.331
 2718POPC   C3A36341  40.595  25.836   7.963
 2718POPC   C4A36342  40.843  25.881   7.660
 2718POPC   C1B36343  40.718  26.219   8.594
 2718POPC   C2B36344  40.809  26.529   8.280
 2718POPC   C3B36345  40.816  26.327   7.907
 2718POPC   C4B36346  40.926  26.394   7.496
 2719POPC   NC336347  22.361   6.969   9.306
 2719POPC   PO436348  22.136   7.393   9.734
 2719POPC   GL136349  22.136   7.432   9.234
 2719POPC   GL236350  22.045   7.753   9.126
 2719POPC   C1A36351  21.875   7.360   8.816
 2719POPC   D2A36352  21.756   7.423   8.374
 2719POPC   C3A36353  22.017   7.324   7.995
 2719POPC   C4A36354  22.110   7.653   7.685
 2719POPC   C1B36355  22.335   7.558   8.772
 2719POPC   C2B36356  22.294   7.638   8.315
 2719POPC   C3B36357  22.579   7.654   7.943
 2719POPC   C4B36358  22.518   7.896   7.502
 2720POPC   NC336359  18.686  26.645   9.534
 2720POPC   PO436360  18.109  27.041   9.486
 2720POPC   GL136361  18.264  26.830   9.104
 2720POPC   GL236362  18.641  26.915   9.093
 2720POPC   C1A36363  18.033  26.585   8.755
 2720POPC   D2A36364  17.982  26.567   8.272
 2720POPC   C3A36365  18.039  26.973   8.015
 2720POPC   C4A36366  18.405  27.169   7.786
 2720POPC   C1B36367  18.775  26.506   8.875
 2720POPC   C2B36368  18.899  26.465   8.436
 2720POPC   C3B36369  18.606  26.472   8.094
 2720POPC   C4B36370  18.323  26.617   7.786
 2721POPC   NC336371  42.477  16.303   9.418
 2721POPC   PO436372  42.126  16.862   9.548
 2721POPC   GL136373  42.318  16.722   9.181
 2721POPC   GL236374  42.082  16.480   9.082
 2721POPC   C1A36375  42.251  16.858   8.761
 2721POPC   D2A36376  42.177  16.674   8.386
 2721POPC   C3A36377  42.397  16.823   8.027
 2721POPC   C4A36378  42.362  17.187   7.766
 2721POPC   C1B36379  42.377  16.361   8.751
 2721POPC   C2B36380  42.440  16.216   8.323
 2721POPC   C3B36381  42.181  16.349   8.000
 2721POPC   C4B36382  42.264  16.469   7.607
 2722POPC   NC336383  15.704   8.209   9.434
 2722POPC   PO436384  16.344   8.016   9.434
 2722POPC   GL136385  16.126   8.292   9.128
 2722POPC   GL236386  15.937   8.613   9.216
 2722POPC   C1A36387  15.829   8.290   8.780
 2722POPC   D2A36388  15.688   8.216   8.371
 2722POPC   C3A36389  16.028   8.073   8.114
 2722POPC   C4A36390  16.128   7.886   7.706
 2722POPC   C1B36391  15.673   8.775   8.860
 2722POPC   C2B36392  15.742   8.709   8.433
 2722POPC   C3B36393  15.728   8.565   8.002
 2722POPC   C4B36394  16.021   8.372   7.722
 2723POPC   NC336395  17.145  24.239   9.509
 2723POPC   PO436396  17.715  24.710   9.575
 2723POPC   GL136397  17.517  24.572   9.255
 2723POPC   GL236398  17.663  24.267   9.243
 2723POPC   C1A36399  17.526  24.729   8.856
 2723POPC   D2A36400  17.789  24.828   8.514
 2723POPC   C3A36401  17.622  24.742   8.106
 2723POPC   C4A36402  17.539  24.575   7.709
 2723POPC   C1B36403  17.448  24.220   8.876
 2723POPC   C2B36404  17.459  24.393   8.471
 2723POPC   C3B36405  17.474  24.236   8.075
 2723POPC   C4B36406  17.296  24.116   7.685
 2724POPC   NC336407  35.785  16.339   9.412
 2724POPC   PO436408  36.434  16.368   9.456
 2724POPC   GL136409  36.133  16.609   9.157
 2724POPC   GL236410  36.019  16.961   9.187
 2724POPC   C1A36411  35.904  16.684   8.740
 2724POPC   D2A36412  35.803  16.869   8.319
 2724POPC   C3A36413  35.884  16.592   7.940
 2724POPC   C4A36414  35.920  16.615   7.473
 2724POPC   C1B36415  36.348  16.933   8.836
 2724POPC   C2B36416  36.319  16.777   8.405
 2724POPC   C3B36417  36.208  16.993   8.014
 2724POPC   C4B36418  36.489  17.100   7.662
 2725POPC   NC336419  26.570  42.214   9.458
 2725POPC   PO436420  27.239  42.331   9.320
 2725POPC   GL136421  26.922  42.152   9.102
 2725POPC   GL236422  26.754  42.456   9.062
 2725POPC   C1A36423  26.757  42.074   8.722
 2725POPC   D2A36424  26.935  42.167   8.323
 2725POPC   C3A36425  26.872  41.928   7.972
 2725POPC   C4A36426  27.004  42.035   7.587
 2725POPC   C1B36427  26.853  42.605   8.694
 2725POPC   C2B36428  26.652  42.579   8.316
 2725POPC   C3B36429  26.800  42.446   7.902
 2725POPC   C4B36430  26.999  42.522   7.489
 2726POPC   NC336431  41.300  14.485   9.472
 2726POPC   PO436432  40.553  14.238   9.509
 2726POPC   GL136433  40.768  14.150   9.127
 2726POPC   GL236434  41.016  14.386   9.060
 2726POPC   C1A36435  40.698  14.254   8.677
 2726POPC   D2A36436  40.950  14.294   8.297
 2726POPC   C3A36437  40.794  14.081   7.917
 2726POPC   C4A36438  40.332  14.082   7.867
 2726POPC   C1B36439  41.021  14.781   8.832
 2726POPC   C2B36440  41.185  14.865   8.420
 2726POPC   C3B36441  41.002  14.891   8.023
 2726POPC   C4B36442  41.043  14.521   7.827
 2727POPC   NC336443  19.821  10.345   9.544
 2727POPC   PO436444  19.767   9.699   9.554
 2727POPC   GL136445  19.695   9.664   9.124
 2727POPC   GL236446  19.646  10.029   9.147
 2727POPC   C1A36447  19.901   9.536   8.712
 2727POPC   D2A36448  19.993   9.734   8.331
 2727POPC   C3A36449  19.857   9.522   7.968
 2727POPC   C4A36450  19.735   9.693   7.566
 2727POPC   C1B36451  19.634   9.990   8.715
 2727POPC   C2B36452  19.660  10.219   8.320
 2727POPC   C3B36453  19.652  10.443   7.943
 2727POPC   C4B36454  19.630  10.215   7.563
 2728POPC   NC336455  20.518  40.466   9.619
 2728POPC   PO436456  20.989  40.918   9.712
 2728POPC   GL136457  20.769  40.752   9.261
 2728POPC   GL236458  20.483  40.440   9.130
 2728POPC   C1A36459  20.704  40.717   8.802
 2728POPC   D2A36460  20.562  40.599   8.425
 2728POPC   C3A36461  20.390  40.845   8.104
 2728POPC   C4A36462  20.651  40.784   7.699
 2728POPC   C1B36463  20.206  40.426   8.764
 2728POPC   C2B36464  20.110  40.413   8.280
 2728POPC   C3B36465  20.466  40.371   7.956
 2728POPC   C4B36466  20.507  40.361   7.452
 2729POPC   NC336467  36.419  13.436   9.368
 2729POPC   PO436468  36.020  13.907   9.499
 2729POPC   GL136469  36.031  13.779   9.094
 2729POPC   GL236470  35.905  13.443   9.099
 2729POPC   C1A36471  36.233  13.695   8.708
 2729POPC   D2A36472  36.187  13.419   8.374
 2729POPC   C3A36473  36.297  13.600   7.984
 2729POPC   C4A36474  36.111  13.963   7.831
 2729POPC   C1B36475  35.735  13.565   8.685
 2729POPC   C2B36476  35.699  13.460   8.243
 2729POPC   C3B36477  35.719  13.497   7.776
 2729POPC   C4B36478  35.570  13.515   7.320
 2730POPC   NC336479   2.239  16.741   9.705
 2730POPC   PO436480   1.843  16.317   9.470
 2730POPC   GL136481   1.868  16.744   9.290
 2730POPC   GL236482   2.205  16.868   9.174
 2730POPC   C1A36483   1.790  16.923   8.894
 2730POPC   D2A36484   2.064  16.783   8.556
 2730POPC   C3A36485   1.911  16.844   8.111
 2730POPC   C4A36486   1.817  16.604   7.735
 2730POPC   C1B36487   2.352  16.518   8.954
 2730POPC   C2B36488   2.550  16.470   8.571
 2730POPC   C3B36489   2.492  16.705   8.231
 2730POPC   C4B36490   2.277  16.531   7.917
 2731POPC   NC336491  12.770   8.536   9.562
 2731POPC   PO436492  13.074   8.118   9.226
 2731POPC   GL136493  12.768   8.267   8.981
 2731POPC   GL236494  12.500   8.487   9.108
 2731POPC   C1A36495  12.662   8.336   8.568
 2731POPC   D2A36496  12.830   8.111   8.233
 2731POPC   C3A36497  12.973   8.189   7.842
 2731POPC   C4A36498  12.586   8.276   7.645
 2731POPC   C1B36499  12.304   8.102   8.912
 2731POPC   C2B36500  12.405   7.887   8.509
 2731POPC   C3B36501  12.363   8.029   8.069
 2731POPC   C4B36502  12.269   7.856   7.685
 2732POPC   NC336503  32.952  34.086   9.307
 2732POPC   PO436504  33.241  33.635   9.578
 2732POPC   GL136505  33.249  33.683   9.152
 2732POPC   GL236506  32.933  33.623   9.104
 2732POPC   C1A36507  33.301  33.941   8.758
 2732POPC   D2A36508  33.049  34.030   8.380
 2732POPC   C3A36509  33.149  33.869   7.970
 2732POPC   C4A36510  33.360  33.473   7.857
 2732POPC   C1B36511  32.900  33.600   8.688
 2732POPC   C2B36512  32.627  33.558   8.354
 2732POPC   C3B36513  32.810  33.494   7.968
 2732POPC   C4B36514  32.754  33.817   7.651
 2733POPC   NC336515  33.666   6.579   9.558
 2733POPC   PO436516  33.217   7.099   9.388
 2733POPC   GL136517  33.497   6.798   9.117
 2733POPC   GL236518  33.609   6.459   9.070
 2733POPC   C1A36519  33.639   6.747   8.665
 2733POPC   D2A36520  33.565   6.594   8.262
 2733POPC   C3A36521  33.658   6.926   7.982
 2733POPC   C4A36522  33.755   6.931   7.523
 2733POPC   C1B36523  34.009   6.418   8.809
 2733POPC   C2B36524  34.060   6.484   8.338
 2733POPC   C3B36525  34.076   6.656   7.889
 2733POPC   C4B36526  34.041   6.481   7.445
 2734POPC   NC336527   7.739  32.601   9.416
 2734POPC   PO436528   7.531  33.253   9.526
 2734POPC   GL136529   7.457  33.061   9.127
 2734POPC   GL236530   7.328  32.721   9.141
 2734POPC   C1A36531   7.373  33.203   8.709
 2734POPC   D2A36532   7.177  33.232   8.308
 2734POPC   C3A36533   7.439  33.190   7.925
 2734POPC   C4A36534   7.563  32.819   7.711
 2734POPC   C1B36535   7.563  32.723   8.750
 2734POPC   C2B36536   7.846  32.961   8.531
 2734POPC   C3B36537   7.966  32.937   8.103
 2734POPC   C4B36538   7.934  33.154   7.716
 2735POPC   NC336539  27.486  40.903   9.750
 2735POPC   PO436540  26.866  40.661   9.593
 2735POPC   GL136541  26.747  40.743   9.161
 2735POPC   GL236542  26.709  41.077   9.009
 2735POPC   C1A36543  26.618  40.664   8.726
 2735POPC   D2A36544  26.661  40.931   8.346
 2735POPC   C3A36545  26.736  40.654   8.040
 2735POPC   C4A36546  26.471  40.580   7.738
 2735POPC   C1B36547  27.031  40.949   8.708
 2735POPC   C2B36548  27.332  40.850   8.364
 2735POPC   C3B36549  27.459  40.999   7.952
 2735POPC   C4B36550  27.278  40.911   7.537
 2736POPC   NC336551  29.782  27.767   9.532
 2736POPC   PO436552  30.098  27.115   9.404
 2736POPC   GL136553  30.092  27.463   9.177
 2736POPC   GL236554  29.782  27.466   9.102
 2736POPC   C1A36555  30.088  27.611   8.746
 2736POPC   D2A36556  30.253  27.690   8.366
 2736POPC   C3A36557  30.218  27.527   7.960
 2736POPC   C4A36558  30.055  27.722   7.537
 2736POPC   C1B36559  29.703  27.274   8.697
 2736POPC   C2B36560  29.876  27.331   8.287
 2736POPC   C3B36561  29.713  27.593   7.932
 2736POPC   C4B36562  29.448  27.532   7.589
 2737POPC   NC336563  25.857  19.816   9.595
 2737POPC   PO436564  26.382  20.003   9.383
 2737POPC   GL136565  26.213  19.668   9.171
 2737POPC   GL236566  25.934  19.885   9.111
 2737POPC   C1A36567  26.028  19.506   8.783
 2737POPC   D2A36568  25.868  19.634   8.403
 2737POPC   C3A36569  26.051  19.526   8.020
 2737POPC   C4A36570  25.784  19.578   7.689
 2737POPC   C1B36571  25.932  20.079   8.752
 2737POPC   C2B36572  25.687  20.110   8.395
 2737POPC   C3B36573  25.867  20.006   8.009
 2737POPC   C4B36574  25.609  20.053   7.696
 2738POPC   NC336575   4.830  27.279   9.658
 2738POPC   PO436576   4.937  27.860   9.544
 2738POPC   GL136577   5.046  27.599   9.158
 2738POPC   GL236578   4.786  27.321   9.125
 2738POPC   C1A36579   5.222  27.751   8.742
 2738POPC   D2A36580   5.376  27.963   8.361
 2738POPC   C3A36581   5.410  27.689   8.010
 2738POPC   C4A36582   5.111  27.744   7.702
 2738POPC   C1B36583   4.750  27.534   8.710
 2738POPC   C2B36584   4.988  27.582   8.304
 2738POPC   C3B36585   5.011  27.312   7.927
 2738POPC   C4B36586   4.870  27.366   7.483
 2739POPC   NC336587  16.543  20.303   9.473
 2739POPC   PO436588  17.192  20.491   9.440
 2739POPC   GL136589  16.926  20.617   9.121
 2739POPC   GL236590  16.634  20.498   9.018
 2739POPC   C1A36591  16.957  20.732   8.703
 2739POPC   D2A36592  16.647  20.830   8.397
 2739POPC   C3A36593  16.704  20.581   8.053
 2739POPC   C4A36594  16.859  20.592   7.635
 2739POPC   C1B36595  16.408  20.208   8.794
 2739POPC   C2B36596  16.279  19.990   8.434
 2739POPC   C3B36597  16.321  20.153   8.043
 2739POPC   C4B36598  16.499  20.017   7.674
 2740POPC   NC336599   1.352  20.913   9.514
 2740POPC   PO436600   1.141  20.351   9.400
 2740POPC   GL136601   1.220  20.627   9.082
 2740POPC   GL236602   1.578  20.725   9.057
 2740POPC   C1A36603   1.068  20.511   8.680
 2740POPC   D2A36604   0.897  20.397   8.271
 2740POPC   C3A36605   1.227  20.423   7.925
 2740POPC   C4A36606   1.271  20.405   7.455
 2740POPC   C1B36607   1.381  20.954   8.695
 2740POPC   C2B36608   1.122  20.868   8.319
 2740POPC   C3B36609   1.133  21.034   7.918
 2740POPC   C4B36610   1.448  20.852   7.658
 2741POPC   NC336611  41.872   5.025   9.419
 2741POPC   PO436612  41.210   5.217   9.428
 2741POPC   GL136613  41.531   5.259   9.117
 2741POPC   GL236614  41.544   4.930   9.040
 2741POPC   C1A36615  41.730   5.314   8.725
 2741POPC   D2A36616  41.523   5.161   8.367
 2741POPC   C3A36617  41.722   5.183   7.964
 2741POPC   C4A36618  41.650   5.232   7.526
 2741POPC   C1B36619  41.376   4.752   8.670
 2741POPC   C2B36620  41.470   4.645   8.235
 2741POPC   C3B36621  41.498   4.758   7.780
 2741POPC   C4B36622  41.442   4.823   7.324
 2742POPC   NC336623  30.882  14.533   9.500
 2742POPC   PO436624  30.539  13.980   9.362
 2742POPC   GL136625  30.795  14.199   9.097
 2742POPC   GL236626  30.648  14.526   9.056
 2742POPC   C1A36627  30.754  14.240   8.653
 2742POPC   D2A36628  30.983  14.478   8.366
 2742POPC   C3A36629  30.859  14.419   7.950
 2742POPC   C4A36630  30.652  14.231   7.589
 2742POPC   C1B36631  30.691  14.758   8.673
 2742POPC   C2B36632  30.417  14.546   8.350
 2742POPC   C3B36633  30.360  14.551   7.914
 2742POPC   C4B36634  30.632  14.786   7.686
 2743POPC   NC336635  24.309   8.551   9.832
 2743POPC   PO436636  24.730   8.085   9.487
 2743POPC   GL136637  24.480   8.177   9.146
 2743POPC   GL236638  24.754   8.133   8.938
 2743POPC   C1A36639  24.322   8.334   8.734
 2743POPC   D2A36640  24.642   8.280   8.441
 2743POPC   C3A36641  24.453   8.273   8.076
 2743POPC   C4A36642  24.588   8.233   7.721
 2743POPC   C1B36643  24.437   7.854   8.752
 2743POPC   C2B36644  24.214   7.931   8.369
 2743POPC   C3B36645  24.321   7.786   7.918
 2743POPC   C4B36646  24.303   7.907   7.460
 2744POPC   NC336647  34.311  38.934   9.939
 2744POPC   PO436648  34.550  38.525   9.420
 2744POPC   GL136649  34.838  38.523   9.043
 2744POPC   GL236650  34.763  38.186   8.979
 2744POPC   C1A36651  34.747  38.606   8.617
 2744POPC   D2A36652  34.424  38.563   8.299
 2744POPC   C3A36653  34.757  38.506   8.050
 2744POPC   C4A36654  34.882  38.945   8.027
 2744POPC   C1B36655  34.332  38.366   8.790
 2744POPC   C2B36656  34.111  38.166   8.414
 2744POPC   C3B36657  34.355  38.133   8.010
 2744POPC   C4B36658  34.681  38.163   7.657
 2745POPC   NC336659   9.050  16.575   9.593
 2745POPC   PO436660   8.930  17.151   9.817
 2745POPC   GL136661   9.031  16.975   9.301
 2745POPC   GL236662   8.828  16.679   9.162
 2745POPC   C1A36663   9.018  16.996   8.823
 2745POPC   D2A36664   9.117  17.087   8.390
 2745POPC   C3A36665   9.355  16.994   8.055
 2745POPC   C4A36666   9.159  16.912   7.688
 2745POPC   C1B36667   9.116  16.510   8.797
 2745POPC   C2B36668   9.241  16.562   8.349
 2745POPC   C3B36669   8.972  16.517   7.984
 2745POPC   C4B36670   8.915  16.186   7.677
 2746POPC   NC336671   5.719   1.053   9.451
 2746POPC   PO436672   6.128   1.611   9.541
 2746POPC   GL136673   6.092   1.495   9.108
 2746POPC   GL236674   5.779   1.344   9.035
 2746POPC   C1A36675   6.144   1.141   8.786
 2746POPC   D2A36676   6.001   0.902   8.421
 2746POPC   C3A36677   6.158   1.076   7.991
 2746POPC   C4A36678   6.071   1.342   7.620
 2746POPC   C1B36679   5.608   1.211   8.641
 2746POPC   C2B36680   5.518   1.009   8.221
 2746POPC   C3B36681   5.604   1.007   7.774
 2746POPC   C4B36682   5.302   0.963   7.419
 2747POPC   NC336683  18.125  44.781   9.481
 2747POPC   PO436684  18.742  44.599   9.680
 2747POPC   GL136685  18.610  44.526   9.186
 2747POPC   GL236686  18.264  44.613   9.039
 2747POPC   C1A36687  18.614  44.608   8.696
 2747POPC   D2A36688  18.372  44.575   8.329
 2747POPC   C3A36689  18.526  44.673   7.935
 2747POPC   C4A36690  18.132  44.386   7.865
 2747POPC   C1B36691  18.172  44.884   8.680
 2747POPC   C2B36692  17.906  44.906   8.363
 2747POPC   C3B36693  18.068  44.885   7.980
 2747POPC   C4B36694  18.225   0.167   7.709
 2748POPC   NC336695  34.979  21.164   9.616
 2748POPC   PO436696  35.534  21.660   9.425
 2748POPC   GL136697  35.280  21.347   9.236
 2748POPC   GL236698  34.976  21.549   9.243
 2748POPC   C1A36699  35.333  21.070   8.835
 2748POPC   D2A36700  35.569  20.990   8.421
 2748POPC   C3A36701  35.419  21.149   8.018
 2748POPC   C4A36702  35.566  21.573   7.870
 2748POPC   C1B36703  35.127  21.551   8.803
 2748POPC   C2B36704  35.160  21.334   8.424
 2748POPC   C3B36705  35.070  21.543   8.041
 2748POPC   C4B36706  34.811  21.666   7.725
 2749POPC   NC336707  37.746   4.259   9.389
 2749POPC   PO436708  37.635   4.903   9.413
 2749POPC   GL136709  37.442   4.636   9.077
 2749POPC   GL236710  37.341   4.256   9.052
 2749POPC   C1A36711  37.459   4.552   8.640
 2749POPC   D2A36712  37.741   4.424   8.322
 2749POPC   C3A36713  37.600   4.262   7.951
 2749POPC   C4A36714  37.818   4.588   7.718
 2749POPC   C1B36715  37.701   4.116   8.745
 2749POPC   C2B36716  37.795   3.903   8.360
 2749POPC   C3B36717  38.009   3.894   7.970
 2749POPC   C4B36718  37.909   4.102   7.576
 2750POPC   NC336719   9.309  41.265   9.595
 2750POPC   PO436720   8.703  41.415   9.422
 2750POPC   GL136721   8.936  41.552   9.049
 2750POPC   GL236722   9.133  41.850   9.066
 2750POPC   C1A36723   8.929  41.671   8.591
 2750POPC   D2A36724   8.652  41.844   8.260
 2750POPC   C3A36725   8.690  41.725   7.823
 2750POPC   C4A36726   8.754  41.325   7.623
 2750POPC   C1B36727   9.419  41.898   8.725
 2750POPC   C2B36728   9.395  41.638   8.363
 2750POPC   C3B36729   9.178  41.646   8.000
 2750POPC   C4B36730   9.478  41.914   7.844
 2751POPC   NC336731   3.299   0.895   9.573
 2751POPC   PO436732   3.666   1.365   9.741
 2751POPC   GL136733   3.501   1.296   9.297
 2751POPC   GL236734   3.484   0.946   9.103
 2751POPC   C1A36735   3.653   1.389   8.881
 2751POPC   D2A36736   3.520   1.424   8.458
 2751POPC   C3A36737   3.756   1.208   8.153
 2751POPC   C4A36738   3.576   1.276   7.789
 2751POPC   C1B36739   3.238   0.895   8.714
 2751POPC   C2B36740   3.283   0.959   8.246
 2751POPC   C3B36741   3.124   1.048   7.829
 2751POPC   C4B36742   3.394   0.956   7.422
 2752POPC   NC336743  13.306  17.972   9.424
 2752POPC   PO436744  12.796  18.344   9.441
 2752POPC   GL136745  12.913  18.356   9.060
 2752POPC   GL236746  13.209  18.500   9.061
 2752POPC   C1A36747  12.967  18.321   8.638
 2752POPC   D2A36748  12.722  18.401   8.324
 2752POPC   C3A36749  12.834  18.053   8.157
 2752POPC   C4A36750  13.062  17.977   7.795
 2752POPC   C1B36751  13.167  18.770   8.713
 2752POPC   C2B36752  13.263  18.732   8.268
 2752POPC   C3B36753  13.227  18.451   7.911
 2752POPC   C4B36754  13.170  18.341   7.450
 2753POPC   NC336755  16.402   1.484   9.443
 2753POPC   PO436756  16.559   0.833   9.593
 2753POPC   GL136757  16.650   1.097   9.194
 2753POPC   GL236758  16.816   0.831   9.106
 2753POPC   C1A36759  16.690   1.395   8.801
 2753POPC   D2A36760  16.541   1.639   8.430
 2753POPC   C3A36761  16.781   1.480   8.132
 2753POPC   C4A36762  16.726   1.273   7.788
 2753POPC   C1B36763  16.874   0.910   8.729
 2753POPC   C2B36764  16.993   1.102   8.394
 2753POPC   C3B36765  17.072   0.958   7.999
 2753POPC   C4B36766  16.813   0.793   7.654
 2754POPC   NC336767  28.412  34.529   9.501
 2754POPC   PO436768  28.237  33.862   9.620
 2754POPC   GL136769  28.310  34.095   9.190
 2754POPC   GL236770  28.527  34.412   9.029
 2754POPC   C1A36771  28.246  34.129   8.729
 2754POPC   D2A36772  28.473  34.406   8.478
 2754POPC   C3A36773  28.239  34.642   8.200
 2754POPC   C4A36774  28.264  34.558   7.772
 2754POPC   C1B36775  28.658  34.784   8.754
 2754POPC   C2B36776  28.765  34.786   8.271
 2754POPC   C3B36777  28.763  34.848   7.804
 2754POPC   C4B36778  28.922  34.986   7.383
 2755POPC   NC336779   7.022   0.015   9.881
 2755POPC   PO436780   7.564  44.793   9.518
 2755POPC   GL136781   7.429  44.642   9.123
 2755POPC   GL236782   7.084  44.551   9.109
 2755POPC   C1A36783   7.439  44.756   8.715
 2755POPC   D2A36784   7.554   0.033   8.405
 2755POPC   C3A36785   7.612  44.770   8.101
 2755POPC   C4A36786   7.603  44.660   7.710
 2755POPC   C1B36787   6.917  44.831   8.769
 2755POPC   C2B36788   7.064  44.891   8.365
 2755POPC   C3B36789   7.125  44.756   7.973
 2755POPC   C4B36790   7.185  44.945   7.595
 2756POPC   NC336791  30.016  13.309   9.296
 2756POPC   PO436792  29.821  12.686   9.626
 2756POPC   GL136793  29.810  12.665   9.146
 2756POPC   GL236794  29.953  12.948   8.922
 2756POPC   C1A36795  29.830  12.493   8.710
 2756POPC   D2A36796  29.941  12.803   8.398
 2756POPC   C3A36797  29.787  12.707   8.010
 2756POPC   C4A36798  29.466  12.881   7.751
 2756POPC   C1B36799  30.202  13.246   8.626
 2756POPC   C2B36800  30.308  13.462   8.239
 2756POPC   C3B36801  30.309  13.259   7.837
 2756POPC   C4B36802  30.349  12.993   7.480
 2757POPC   NC336803  19.372   1.708   9.483
 2757POPC   PO436804  20.027   2.067   9.550
 2757POPC   GL136805  19.825   1.887   9.151
 2757POPC   GL236806  19.536   1.864   9.047
 2757POPC   C1A36807  19.897   2.008   8.692
 2757POPC   D2A36808  20.201   2.221   8.393
 2757POPC   C3A36809  20.214   2.146   7.939
 2757POPC   C4A36810  19.943   2.210   7.613
 2757POPC   C1B36811  19.382   2.069   8.736
 2757POPC   C2B36812  19.471   1.849   8.382
 2757POPC   C3B36813  19.652   1.897   7.995
 2757POPC   C4B36814  19.469   2.228   7.756
 2758POPC   NC336815  31.154  43.002   9.497
 2758POPC   PO436816  31.766  43.254   9.503
 2758POPC   GL136817  31.567  43.106   9.185
 2758POPC   GL236818  31.525  42.769   9.115
 2758POPC   C1A36819  31.758  43.090   8.793
 2758POPC   D2A36820  31.660  42.917   8.447
 2758POPC   C3A36821  31.728  43.199   8.166
 2758POPC   C4A36822  31.562  43.208   7.752
 2758POPC   C1B36823  31.272  42.918   8.809
 2758POPC   C2B36824  31.088  43.006   8.448
 2758POPC   C3B36825  31.291  42.948   8.090
 2758POPC   C4B36826  31.331  42.734   7.719
 2759POPC   NC336827  22.997  22.554   9.761
 2759POPC   PO436828  22.566  23.099   9.530
 2759POPC   GL136829  22.637  22.873   9.159
 2759POPC   GL236830  22.936  22.714   9.256
 2759POPC   C1A36831  22.718  22.909   8.708
 2759POPC   D2A36832  22.697  22.713   8.293
 2759POPC   C3A36833  22.774  23.001   7.986
 2759POPC   C4A36834  22.798  23.037   7.528
 2759POPC   C1B36835  23.136  22.608   8.857
 2759POPC   C2B36836  23.191  22.774   8.440
 2759POPC   C3B36837  23.152  22.653   8.003
 2759POPC   C4B36838  23.232  23.053   7.772
 2760POPC   NC336839  28.987   0.646  10.008
 2760POPC   PO436840  29.112   0.255   9.421
 2760POPC   GL136841  29.091   0.486   9.083
 2760POPC   GL236842  29.400   0.612   9.113
 2760POPC   C1A36843  28.861   0.401   8.718
 2760POPC   D2A36844  28.889   0.130   8.363
 2760POPC   C3A36845  29.052   0.455   8.097
 2760POPC   C4A36846  29.219   0.506   7.662
 2760POPC   C1B36847  29.372   0.547   8.665
 2760POPC   C2B36848  29.277   0.850   8.346
 2760POPC   C3B36849  29.217   0.923   7.940
 2760POPC   C4B36850  28.942   0.994   7.661
 2761POPC   NC336851  43.806   6.100   9.555
 2761POPC   PO436852  43.503   5.587   9.748
 2761POPC   GL136853  43.680   5.700   9.275
 2761POPC   GL236854  44.077   5.697   9.239
 2761POPC   C1A36855  43.820   5.770   8.811
 2761POPC   D2A36856  43.966   5.687   8.386
 2761POPC   C3A36857  43.718   5.692   7.970
 2761POPC   C4A36858  43.550   6.068   7.762
 2761POPC   C1B36859  44.277   5.477   8.834
 2761POPC   C2B36860  44.295   5.298   8.381
 2761POPC   C3B36861  44.225   5.538   7.981
 2761POPC   C4B36862  44.085   5.547   7.549
 2762POPC   NC336863  30.899  15.306   9.487
 2762POPC   PO436864  30.461  14.769   9.481
 2762POPC   GL136865  30.573  15.040   9.184
 2762POPC   GL236866  30.897  14.949   9.122
 2762POPC   C1A36867  30.441  15.204   8.814
 2762POPC   D2A36868  30.321  15.046   8.451
 2762POPC   C3A36869  30.588  15.050   8.122
 2762POPC   C4A36870  30.561  15.289   7.741
 2762POPC   C1B36871  30.945  15.202   8.816
 2762POPC   C2B36872  31.033  15.153   8.413
 2762POPC   C3B36873  31.083  14.889   8.080
 2762POPC   C4B36874  31.035  15.105   7.731
 2763POPC   NC336875   3.965   6.296   9.464
 2763POPC   PO436876   4.620   6.305   9.679
 2763POPC   GL136877   4.366   6.534   9.276
 2763POPC   GL236878   4.042   6.718   9.211
 2763POPC   C1A36879   4.266   6.494   8.804
 2763POPC   D2A36880   4.477   6.484   8.388
 2763POPC   C3A36881   4.234   6.497   8.067
 2763POPC   C4A36882   4.249   6.630   7.672
 2763POPC   C1B36883   3.809   6.833   8.845
 2763POPC   C2B36884   3.969   6.791   8.416
 2763POPC   C3B36885   3.853   6.880   7.981
 2763POPC   C4B36886   3.913   7.232   7.683
 2764POPC   NC336887  25.532  43.597   9.755
 2764POPC   PO436888  24.998  43.260   9.452
 2764POPC   GL136889  25.260  43.160   9.087
 2764POPC   GL236890  25.608  43.023   9.147
 2764POPC   C1A36891  25.326  42.965   8.674
 2764POPC   D2A36892  25.324  42.803   8.296
 2764POPC   C3A36893  25.114  43.092   8.036
 2764POPC   C4A36894  25.234  42.983   7.644
 2764POPC   C1B36895  25.706  43.264   8.753
 2764POPC   C2B36896  25.510  43.382   8.408
 2764POPC   C3B36897  25.597  43.177   8.052
 2764POPC   C4B36898  25.492  43.405   7.694
 2765POPC   NC336899  42.365  34.164   9.670
 2765POPC   PO436900  42.279  34.828   9.500
 2765POPC   GL136901  42.229  34.603   9.167
 2765POPC   GL236902  42.257  34.263   9.185
 2765POPC   C1A36903  42.236  34.726   8.759
 2765POPC   D2A36904  42.007  34.740   8.423
 2765POPC   C3A36905  42.254  34.719   8.128
 2765POPC   C4A36906  42.135  34.522   7.812
 2765POPC   C1B36907  42.594  34.373   8.894
 2765POPC   C2B36908  42.663  34.573   8.499
 2765POPC   C3B36909  42.728  34.525   8.066
 2765POPC   C4B36910  42.598  34.512   7.624
 2766POPC   NC336911   3.130  27.852   9.464
 2766POPC   PO436912   2.469  27.525   9.516
 2766POPC   GL136913   2.792  27.415   9.235
 2766POPC   GL236914   2.544  27.180   9.119
 2766POPC   C1A36915   2.947  27.614   8.870
 2766POPC   D2A36916   2.807  27.702   8.475
 2766POPC   C3A36917   3.005  27.760   8.111
 2766POPC   C4A36918   3.039  27.847   7.748
 2766POPC   C1B36919   2.434  27.503   8.810
 2766POPC   C2B36920   2.332  27.542   8.365
 2766POPC   C3B36921   2.414  27.456   7.950
 2766POPC   C4B36922   2.470  27.047   7.808
 2767POPC   NC336923   0.816  18.019   9.386
 2767POPC   PO436924   1.358  17.541   9.573
 2767POPC   GL136925   1.472  17.575   9.196
 2767POPC   GL236926   1.131  17.604   9.110
 2767POPC   C1A36927   1.573  17.418   8.842
 2767POPC   D2A36928   1.308  17.455   8.497
 2767POPC   C3A36929   1.464  17.718   8.236
 2767POPC   C4A36930   1.385  17.630   7.846
 2767POPC   C1B36931   0.818  17.587   8.833
 2767POPC   C2B36932   0.751  17.398   8.467
 2767POPC   C3B36933   0.949  17.453   8.094
 2767POPC   C4B36934   0.908  17.624   7.689
 2768POPC   NC336935   4.853  39.105   9.697
 2768POPC   PO436936   5.492  39.364   9.549
 2768POPC   GL136937   5.364  39.125   9.209
 2768POPC   GL236938   5.190  38.837   9.309
 2768POPC   C1A36939   5.309  39.319   8.791
 2768POPC   D2A36940   5.038  39.611   8.540
 2768POPC   C3A36941   4.954  39.533   8.109
 2768POPC   C4A36942   5.275  39.415   7.820
 2768POPC   C1B36943   5.174  38.822   8.844
 2768POPC   C2B36944   5.047  39.041   8.436
 2768POPC   C3B36945   5.206  38.929   8.016
 2768POPC   C4B36946   5.090  38.858   7.594
 2769POPC   NC336947  44.745   5.807   9.499
 2769POPC   PO436948  44.242   6.224   9.529
 2769POPC   GL136949  44.457   6.095   9.155
 2769POPC   GL236950  44.822   6.085   9.079
 2769POPC   C1A36951  44.504   5.931   8.742
 2769POPC   D2A36952  44.509   5.765   8.361
 2769POPC   C3A36953  44.436   6.015   8.032
 2769POPC   C4A36954  44.506   5.839   7.667
 2769POPC   C1B36955  44.973   5.720   8.869
 2769POPC   C2B36956   0.077   5.793   8.456
 2769POPC   C3B36957  44.939   5.887   8.040
 2769POPC   C4B36958  44.974   5.651   7.675
 2770POPC   NC336959   0.826  23.198   9.429
 2770POPC   PO436960   0.841  23.894   9.484
 2770POPC   GL136961   0.562  23.686   9.196
 2770POPC   GL236962   0.775  23.836   8.950
 2770POPC   C1A36963   0.305  23.798   8.791
 2770POPC   D2A36964   0.596  23.799   8.406
 2770POPC   C3A36965   0.365  23.733   7.968
 2770POPC   C4A36966   0.166  23.325   7.810
 2770POPC   C1B36967   0.633  23.403   8.791
 2770POPC   C2B36968   0.762  23.255   8.412
 2770POPC   C3B36969   0.774  23.470   8.057
 2770POPC   C4B36970   0.852  23.916   7.957
 2771POPC   NC336971   0.876   2.789   9.544
 2771POPC   PO436972   0.929   3.344   9.158
 2771POPC   GL136973   1.159   2.936   9.102
 2771POPC   GL236974   1.039   2.587   9.106
 2771POPC   C1A36975   1.260   2.775   8.679
 2771POPC   D2A36976   1.474   2.828   8.268
 2771POPC   C3A36977   1.268   3.122   8.023
 2771POPC   C4A36978   1.028   2.918   7.727
 2771POPC   C1B36979   0.767   2.356   8.845
 2771POPC   C2B36980   0.728   2.400   8.403
 2771POPC   C3B36981   0.851   2.519   7.984
 2771POPC   C4B36982   1.268   2.453   7.783
 2772POPC   NC336983   0.629  16.398   9.626
 2772POPC   PO436984   0.241  16.921   9.564
 2772POPC   GL136985   0.501  16.742   9.228
 2772POPC   GL236986   0.763  16.469   9.163
 2772POPC   C1A36987   0.388  16.577   8.826
 2772POPC   D2A36988   0.219  16.367   8.478
 2772POPC   C3A36989   0.269  16.669   8.156
 2772POPC   C4A36990   0.427  16.786   7.738
 2772POPC   C1B36991   0.879  16.646   8.818
 2772POPC   C2B36992   0.687  16.733   8.450
 2772POPC   C3B36993   0.806  16.681   8.064
 2772POPC   C4B36994   0.896  16.588   7.683
 2773POPC   NC336995   2.490  10.490   9.474
 2773POPC   PO436996   3.135  10.646   9.527
 2773POPC   GL136997   2.908  10.714   9.109
 2773POPC   GL236998   3.112  10.822   8.819
 2773POPC   C1A36999   2.607  10.867   8.740
 2773POPC   D2A37000   2.712  10.788   8.290
 2773POPC   C3A37001   2.506  10.596   7.921
 2773POPC   C4A37002   2.453  10.166   7.740
 2773POPC   C1B37003   2.826  10.427   8.696
 2773POPC   C2B37004   2.707  10.208   8.327
 2773POPC   C3B37005   2.923  10.315   7.987
 2773POPC   C4B37006   2.997  10.730   7.858
 2774POPC   NC337007  30.826  30.120   9.412
 2774POPC   PO437008  30.672  29.562   9.687
 2774POPC   GL137009  30.699  29.591   9.196
 2774POPC   GL237010  30.838  29.873   8.986
 2774POPC   C1A37011  30.697  29.480   8.730
 2774POPC   D2A37012  30.775  29.855   8.425
 2774POPC   C3A37013  30.843  29.792   7.982
 2774POPC   C4A37014  30.460  29.751   7.792
 2774POPC   C1B37015  30.731  30.254   8.739
 2774POPC   C2B37016  30.768  30.382   8.323
 2774POPC   C3B37017  30.568  30.262   7.946
 2774POPC   C4B37018  30.693  30.173   7.515
 2775POPC   NC337019  17.255   2.625   9.531
 2775POPC   PO437020  17.177   3.296   9.409
 2775POPC   GL137021  17.466   3.009   9.122
 2775POPC   GL237022  17.483   2.612   9.100
 2775POPC   C1A37023  17.506   2.851   8.677
 2775POPC   D2A37024  17.228   2.800   8.343
 2775POPC   C3A37025  17.393   2.799   7.938
 2775POPC   C4A37026  17.828   2.700   7.847
 2775POPC   C1B37027  17.654   2.372   8.744
 2775POPC   C2B37028  17.703   2.441   8.301
 2775POPC   C3B37029  17.522   2.301   7.921
 2775POPC   C4B37030  17.121   2.365   7.826
 2776POPC   NC337031  41.827  25.049   9.401
 2776POPC   PO437032  41.126  25.419   9.455
 2776POPC   GL137033  41.427  25.251   9.137
 2776POPC   GL237034  41.712  25.441   9.062
 2776POPC   C1A37035  41.609  24.956   8.792
 2776POPC   D2A37036  41.390  24.812   8.411
 2776POPC   C3A37037  41.460  24.987   7.993
 2776POPC   C4A37038  41.793  24.954   7.672
 2776POPC   C1B37039  41.488  25.445   8.666
 2776POPC   C2B37040  41.682  25.362   8.273
 2776POPC   C3B37041  41.704  25.451   7.827
 2776POPC   C4B37042  41.507  25.726   7.504
 2777POPC   NC337043  41.459   5.616   9.469
 2777POPC   PO437044  41.740   6.224   9.457
 2777POPC   GL137045  41.591   6.080   9.102
 2777POPC   GL237046  41.267   6.006   9.061
 2777POPC   C1A37047  41.677   6.033   8.684
 2777POPC   D2A37048  41.635   5.743   8.350
 2777POPC   C3A37049  41.431   6.003   8.026
 2777POPC   C4A37050  41.622   6.129   7.598
 2777POPC   C1B37051  41.344   5.662   8.804
 2777POPC   C2B37052  41.161   5.552   8.416
 2777POPC   C3B37053  41.307   5.488   8.018
 2777POPC   C4B37054  41.277   5.711   7.653
 2778POPC   NC337055  26.746   0.990   9.486
 2778POPC   PO437056  26.178   1.345   9.534
 2778POPC   GL137057  26.436   1.195   9.116
 2778POPC   GL237058  26.816   1.253   9.048
 2778POPC   C1A37059  26.635   0.946   8.719
 2778POPC   D2A37060  26.909   0.918   8.372
 2778POPC   C3A37061  26.621   0.984   8.028
 2778POPC   C4A37062  26.475   1.251   7.747
 2778POPC   C1B37063  27.090   1.454   8.740
 2778POPC   C2B37064  27.262   1.439   8.308
 2778POPC   C3B37065  27.046   1.250   7.955
 2778POPC   C4B37066  27.221   0.999   7.622
 2779POPC   NC337067   3.256  19.425   9.705
 2779POPC   PO437068   3.564  18.848   9.459
 2779POPC   GL137069   3.407  19.104   9.095
 2779POPC   GL237070   3.234  19.417   9.180
 2779POPC   C1A37071   3.645  19.116   8.688
 2779POPC   D2A37072   3.945  19.160   8.345
 2779POPC   C3A37073   3.768  18.993   7.958
 2779POPC   C4A37074   3.307  19.022   7.796
 2779POPC   C1B37075   3.241  19.493   8.753
 2779POPC   C2B37076   3.331  19.362   8.309
 2779POPC   C3B37077   3.089  19.443   7.956
 2779POPC   C4B37078   3.217  19.572   7.556
 2780POPC   NC337079  26.293  21.105   9.643
 2780POPC   PO437080  25.970  21.669   9.446
 2780POPC   GL137081  25.899  21.327   9.211
 2780POPC   GL237082  26.207  21.353   9.132
 2780POPC   C1A37083  25.794  21.385   8.772
 2780POPC   D2A37084  26.021  21.454   8.407
 2780POPC   C3A37085  25.894  21.627   8.067
 2780POPC   C4A37086  25.872  21.462   7.677
 2780POPC   C1B37087  26.350  21.310   8.768
 2780POPC   C2B37088  26.362  21.073   8.396
 2780POPC   C3B37089  26.396  21.321   8.033
 2780POPC   C4B37090  26.290  21.138   7.656
 2781POPC   NC337091  15.213  37.195   9.575
 2781POPC   PO437092  15.287  36.633   9.856
 2781POPC   GL137093  15.196  36.768   9.319
 2781POPC   GL237094  15.519  36.827   9.143
 2781POPC   C1A37095  14.995  36.956   8.898
 2781POPC   D2A37096  15.033  37.203   8.475
 2781POPC   C3A37097  15.079  36.990   8.035
 2781POPC   C4A37098  15.451  36.939   7.765
 2781POPC   C1B37099  15.345  36.609   8.761
 2781POPC   C2B37100  15.184  36.591   8.346
 2781POPC   C3B37101  15.347  36.472   7.933
 2781POPC   C4B37102  15.367  36.517   7.448
 2782POPC   NC337103  23.870  23.112   9.455
 2782POPC   PO437104  23.269  22.892   9.643
 2782POPC   GL137105  23.436  22.896   9.203
 2782POPC   GL237106  23.787  22.783   9.098
 2782POPC   C1A37107  23.501  23.047   8.772
 2782POPC   D2A37108  23.785  23.042   8.446
 2782POPC   C3A37109  23.589  22.906   8.091
 2782POPC   C4A37110  23.582  22.684   7.704
 2782POPC   C1B37111  24.099  23.071   8.848
 2782POPC   C2B37112  24.291  22.930   8.473
 2782POPC   C3B37113  24.088  22.784   8.102
 2782POPC   C4B37114  23.947  23.061   7.752
 2783POPC   NC337115  18.812  15.653   9.458
 2783POPC   PO437116  19.263  16.096   9.458
 2783POPC   GL137117  19.099  16.095   9.096
 2783POPC   GL237118  18.769  16.052   9.126
 2783POPC   C1A37119  19.191  16.045   8.691
 2783POPC   D2A37120  19.372  16.149   8.324
 2783POPC   C3A37121  19.154  15.934   8.030
 2783POPC   C4A37122  18.992  16.195   7.737
 2783POPC   C1B37123  18.756  15.717   8.805
 2783POPC   C2B37124  18.766  15.539   8.381
 2783POPC   C3B37125  18.679  15.677   7.965
 2783POPC   C4B37126  18.919  15.723   7.601
 2784POPC   NC337127  35.766  41.779   9.476
 2784POPC   PO437128  36.314  41.355   9.531
 2784POPC   GL137129  36.086  41.535   9.164
 2784POPC   GL237130  35.745  41.370   9.198
 2784POPC   C1A37131  36.238  41.495   8.738
 2784POPC   D2A37132  36.282  41.694   8.340
 2784POPC   C3A37133  36.384  41.447   8.013
 2784POPC   C4A37134  36.111  41.271   7.724
 2784POPC   C1B37135  35.663  41.616   8.810
 2784POPC   C2B37136  35.771  41.739   8.380
 2784POPC   C3B37137  35.710  41.587   7.942
 2784POPC   C4B37138  35.760  41.558   7.455
 2785POPC   NC337139   4.088  13.383   9.783
 2785POPC   PO437140   4.422  12.892   9.400
 2785POPC   GL137141   4.363  12.677   9.027
 2785POPC   GL237142   4.161  12.973   8.904
 2785POPC   C1A37143   4.159  12.543   8.644
 2785POPC   D2A37144   4.073  12.849   8.317
 2785POPC   C3A37145   4.130  12.696   7.907
 2785POPC   C4A37146   4.340  12.618   7.534
 2785POPC   C1B37147   4.589  13.056   8.780
 2785POPC   C2B37148   4.636  13.175   8.393
 2785POPC   C3B37149   4.453  13.092   8.013
 2785POPC   C4B37150   4.365  13.231   7.604
 2786POPC   NC337151   3.132   4.778   9.407
 2786POPC   PO437152   3.770   5.009   9.654
 2786POPC   GL137153   3.664   5.134   9.190
 2786POPC   GL237154   3.313   5.179   9.088
 2786POPC   C1A37155   3.662   5.330   8.739
 2786POPC   D2A37156   3.840   5.291   8.311
 2786POPC   C3A37157   3.602   5.321   7.940
 2786POPC   C4A37158   3.774   5.215   7.509
 2786POPC   C1B37159   3.317   4.918   8.762
 2786POPC   C2B37160   3.602   4.858   8.454
 2786POPC   C3B37161   3.627   4.799   8.029
 2786POPC   C4B37162   3.345   4.948   7.701
 2787POPC   NC337163   9.997  13.798   9.383
 2787POPC   PO437164   9.523  13.269   9.545
 2787POPC   GL137165   9.647  13.484   9.198
 2787POPC   GL237166  10.007  13.367   9.129
 2787POPC   C1A37167   9.569  13.736   8.814
 2787POPC   D2A37168   9.332  13.656   8.420
 2787POPC   C3A37169   9.573  13.543   8.043
 2787POPC   C4A37170   9.646  13.770   7.636
 2787POPC   C1B37171  10.153  13.480   8.724
 2787POPC   C2B37172   9.943  13.692   8.381
 2787POPC   C3B37173  10.072  13.708   7.940
 2787POPC   C4B37174  10.100  13.569   7.510
 2788POPC   NC337175   7.698  39.227   9.669
 2788POPC   PO437176   7.139  39.340   9.400
 2788POPC   GL137177   7.500  39.468   9.165
 2788POPC   GL237178   7.810  39.222   9.182
 2788POPC   C1A37179   7.411  39.514   8.724
 2788POPC   D2A37180   7.116  39.442   8.383
 2788POPC   C3A37181   7.269  39.424   7.936
 2788POPC   C4A37182   7.185  39.684   7.533
 2788POPC   C1B37183   7.620  39.067   8.837
 2788POPC   C2B37184   7.445  39.034   8.437
 2788POPC   C3B37185   7.616  39.006   8.058
 2788POPC   C4B37186   7.658  39.053   7.658
 2789POPC   NC337187  19.946  11.342   9.573
 2789POPC   PO437188  19.800  10.793   9.481
 2789POPC   GL137189  19.742  11.152   9.144
 2789POPC   GL237190  20.079  11.331   9.078
 2789POPC   C1A37191  19.663  11.387   8.738
 2789POPC   D2A37192  19.926  11.520   8.366
 2789POPC   C3A37193  19.862  11.442   7.955
 2789POPC   C4A37194  19.439  11.508   7.840
 2789POPC   C1B37195  20.106  11.127   8.659
 2789POPC   C2B37196  19.925  10.945   8.270
 2789POPC   C3B37197  20.062  10.919   7.850
 2789POPC   C4B37198  20.307  11.214   7.603
 2790POPC   NC337199   6.915  17.394   9.487
 2790POPC   PO437200   6.334  17.767   9.578
 2790POPC   GL137201   6.284  17.640   9.124
 2790POPC   GL237202   6.579  17.443   9.062
 2790POPC   C1A37203   6.360  17.591   8.647
 2790POPC   D2A37204   6.691  17.336   8.424
 2790POPC   C3A37205   6.716  17.441   7.975
 2790POPC   C4A37206   6.516  17.765   7.724
 2790POPC   C1B37207   6.850  17.688   8.849
 2790POPC   C2B37208   6.902  17.798   8.435
 2790POPC   C3B37209   7.108  17.781   8.056
 2790POPC   C4B37210   6.997  17.881   7.650
 2791POPC   NC337211  35.593  17.205   9.392
 2791POPC   PO437212  34.975  17.565   9.384
 2791POPC   GL137213  35.283  17.597   9.112
 2791POPC   GL237214  35.513  17.801   9.261
 2791POPC   C1A37215  35.493  17.411   8.770
 2791POPC   D2A37216  35.492  17.268   8.353
 2791POPC   C3A37217  35.516  17.522   7.972
 2791POPC   C4A37218  35.099  17.684   7.811
 2791POPC   C1B37219  35.561  17.916   8.814
 2791POPC   C2B37220  35.387  17.794   8.412
 2791POPC   C3B37221  35.475  18.005   8.025
 2791POPC   C4B37222  35.716  17.940   7.675
 2792POPC   NC337223   7.103   8.252   9.477
 2792POPC   PO437224   6.466   8.305   9.564
 2792POPC   GL137225   6.664   8.232   9.161
 2792POPC   GL237226   6.653   7.951   9.045
 2792POPC   C1A37227   6.549   8.296   8.700
 2792POPC   D2A37228   6.311   8.273   8.311
 2792POPC   C3A37229   6.613   8.321   7.957
 2792POPC   C4A37230   6.836   8.445   7.575
 2792POPC   C1B37231   6.800   7.758   8.725
 2792POPC   C2B37232   6.723   7.923   8.350
 2792POPC   C3B37233   6.872   7.797   8.002
 2792POPC   C4B37234   6.775   7.929   7.631
 2793POPC   NC337235   0.519   5.291   9.865
 2793POPC   PO437236   1.069   5.082   9.540
 2793POPC   GL137237   1.127   5.181   9.152
 2793POPC   GL237238   1.267   5.505   9.159
 2793POPC   C1A37239   1.241   4.897   8.855
 2793POPC   D2A37240   1.159   4.822   8.450
 2793POPC   C3A37241   1.044   5.177   8.240
 2793POPC   C4A37242   1.056   5.238   7.793
 2793POPC   C1B37243   1.544   5.295   8.884
 2793POPC   C2B37244   1.607   5.116   8.516
 2793POPC   C3B37245   1.556   5.213   8.099
 2793POPC   C4B37246   1.539   4.936   7.753
 2794POPC   NC337247   3.260  12.844   9.631
 2794POPC   PO437248   3.712  13.205   9.569
 2794POPC   GL137249   3.403  13.137   9.226
 2794POPC   GL237250   3.615  13.351   9.064
 2794POPC   C1A37251   3.347  12.893   8.828
 2794POPC   D2A37252   3.642  12.643   8.530
 2794POPC   C3A37253   3.579  12.547   8.066
 2794POPC   C4A37254   3.668  12.710   7.638
 2794POPC   C1B37255   3.742  13.181   8.664
 2794POPC   C2B37256   3.466  13.093   8.333
 2794POPC   C3B37257   3.482  13.079   7.917
 2794POPC   C4B37258   3.908  13.157   7.803
 2795POPC   NC337259   8.054  30.253   9.476
 2795POPC   PO437260   8.283  30.966   9.476
 2795POPC   GL137261   8.221  30.759   9.085
 2795POPC   GL237262   8.417  30.425   9.140
 2795POPC   C1A37263   7.989  30.824   8.680
 2795POPC   D2A37264   8.026  30.851   8.233
 2795POPC   C3A37265   7.963  30.530   7.943
 2795POPC   C4A37266   8.040  30.677   7.526
 2795POPC   C1B37267   8.111  30.327   8.807
 2795POPC   C2B37268   8.202  30.422   8.409
 2795POPC   C3B37269   8.478  30.365   8.079
 2795POPC   C4B37270   8.382  30.328   7.671
 2796POPC   NC337271  39.263  32.906   9.588
 2796POPC   PO437272  39.430  32.297   9.650
 2796POPC   GL137273  39.078  32.378   9.327
 2796POPC   GL237274  39.028  32.067   9.159
 2796POPC   C1A37275  39.087  32.493   8.849
 2796POPC   D2A37276  39.457  32.449   8.535
 2796POPC   C3A37277  39.394  32.437   8.103
 2796POPC   C4A37278  39.374  32.266   7.714
 2796POPC   C1B37279  39.334  32.033   8.808
 2796POPC   C2B37280  39.323  31.968   8.346
 2796POPC   C3B37281  39.032  31.999   7.985
 2796POPC   C4B37282  38.963  31.769   7.589
 2797POPC   NC337283  30.257  37.920   9.428
 2797POPC   PO437284  29.814  37.481   9.569
 2797POPC   GL137285  30.002  37.535   9.181
 2797POPC   GL237286  29.695  37.432   9.064
 2797POPC   C1A37287  30.206  37.545   8.778
 2797POPC   D2A37288  30.060  37.638   8.402
 2797POPC   C3A37289  30.162  37.574   7.977
 2797POPC   C4A37290  29.993  37.878   7.710
 2797POPC   C1B37291  29.382  37.327   8.784
 2797POPC   C2B37292  29.514  37.329   8.382
 2797POPC   C3B37293  29.349  37.384   7.996
 2797POPC   C4B37294  29.614  37.532   7.678
 2798POPC   NC337295  22.445  36.129   9.336
 2798POPC   PO437296  21.796  36.188   9.429
 2798POPC   GL137297  22.014  36.347   9.071
 2798POPC   GL237298  22.334  36.558   9.077
 2798POPC   C1A37299  21.918  36.229   8.660
 2798POPC   D2A37300  21.724  36.356   8.304
 2798POPC   C3A37301  21.908  36.213   7.944
 2798POPC   C4A37302  21.995  35.794   7.770
 2798POPC   C1B37303  22.420  36.299   8.684
 2798POPC   C2B37304  22.276  36.033   8.328
 2798POPC   C3B37305  22.465  35.986   7.949
 2798POPC   C4B37306  22.366  36.373   7.791
 2799POPC   NC337307  44.291   6.675   9.500
 2799POPC   PO437308  44.919   6.286   9.525
 2799POPC   GL137309  44.705   6.568   9.187
 2799POPC   GL237310  44.477   6.836   9.049
 2799POPC   C1A37311  44.771   6.541   8.747
 2799POPC   D2A37312  44.691   6.270   8.389
 2799POPC   C3A37313  44.806   6.379   7.964
 2799POPC   C4A37314  44.744   6.786   7.845
 2799POPC   C1B37315  44.227   6.969   8.694
 2799POPC   C2B37316  44.124   6.684   8.352
 2799POPC   C3B37317  44.310   6.529   7.990
 2799POPC   C4B37318  44.222   6.790   7.605
 2800POPC   NC337319  43.061  42.040   9.588
 2800POPC   PO437320  43.282  42.663   9.629
 2800POPC   GL137321  43.207  42.318   9.209
 2800POPC   GL237322  42.889  42.230   8.991
 2800POPC   C1A37323  43.353  42.165   8.791
 2800POPC   D2A37324  43.132  42.190   8.393
 2800POPC   C3A37325  43.366  42.306   8.039
 2800POPC   C4A37326  43.300  42.300   7.655
 2800POPC   C1B37327  42.639  42.384   8.649
 2800POPC   C2B37328  42.799  42.576   8.259
 2800POPC   C3B37329  42.864  42.311   7.905
 2800POPC   C4B37330  42.738  42.133   7.498
 2801POPC   NC337331   7.094  19.214   9.356
 2801POPC   PO437332   7.574  18.905   9.755
 2801POPC   GL137333   7.547  19.019   9.265
 2801POPC   GL237334   7.834  19.012   9.051
 2801POPC   C1A37335   7.467  19.298   8.844
 2801POPC   D2A37336   7.337  19.347   8.393
 2801POPC   C3A37337   7.360  19.078   8.027
 2801POPC   C4A37338   7.156  19.260   7.686
 2801POPC   C1B37339   7.774  18.986   8.602
 2801POPC   C2B37340   7.821  19.189   8.240
 2801POPC   C3B37341   7.812  19.334   7.842
 2801POPC   C4B37342   7.673  19.018   7.610
 2802POPC   NC337343  13.529  13.857   9.543
 2802POPC   PO437344  13.360  13.172   9.428
 2802POPC   GL137345  13.482  13.555   9.135
 2802POPC   GL237346  13.223  13.868   9.161
 2802POPC   C1A37347  13.728  13.828   8.812
 2802POPC   D2A37348  13.938  13.727   8.410
 2802POPC   C3A37349  13.740  13.929   8.064
 2802POPC   C4A37350  13.587  13.691   7.745
 2802POPC   C1B37351  13.224  13.764   8.754
 2802POPC   C2B37352  13.435  13.631   8.417
 2802POPC   C3B37353  13.245  13.840   8.101
 2802POPC   C4B37354  13.169  14.031   7.699
 2803POPC   NC337355   4.756  15.439   9.468
 2803POPC   PO437356   5.426  15.160   9.590
 2803POPC   GL137357   5.206  15.137   9.210
 2803POPC   GL237358   4.896  14.944   9.290
 2803POPC   C1A37359   5.229  15.211   8.749
 2803POPC   D2A37360   4.893  15.228   8.436
 2803POPC   C3A37361   4.947  15.388   8.015
 2803POPC   C4A37362   5.263  15.274   7.726
 2803POPC   C1B37363   4.970  14.799   8.881
 2803POPC   C2B37364   4.996  14.692   8.470
 2803POPC   C3B37365   5.083  14.888   8.100
 2803POPC   C4B37366   4.874  14.951   7.734
 2804POPC   NC337367  10.959  43.579   9.357
 2804POPC   PO437368  10.467  43.928   9.663
 2804POPC   GL137369  10.657  43.990   9.223
 2804POPC   GL237370  10.548  43.656   9.060
 2804POPC   C1A37371  10.646  44.042   8.743
 2804POPC   D2A37372  10.407  43.762   8.470
 2804POPC   C3A37373  10.503  43.840   8.057
 2804POPC   C4A37374  10.273  43.772   7.712
 2804POPC   C1B37375  10.843  43.570   8.712
 2804POPC   C2B37376  10.732  43.368   8.355
 2804POPC   C3B37377  10.751  43.419   7.937
 2804POPC   C4B37378  10.953  43.654   7.675
 2805POPC   NC337379   8.324  38.568   9.653
 2805POPC   PO437380   7.895  37.983   9.521
 2805POPC   GL137381   8.073  38.125   9.124
 2805POPC   GL237382   8.384  38.373   9.175
 2805POPC   C1A37383   7.825  38.272   8.749
 2805POPC   D2A37384   7.825  38.682   8.542
 2805POPC   C3A37385   8.058  38.695   8.160
 2805POPC   C4A37386   7.954  38.548   7.745
 2805POPC   C1B37387   8.285  38.512   8.746
 2805POPC   C2B37388   8.220  38.243   8.382
 2805POPC   C3B37389   8.382  38.298   7.975
 2805POPC   C4B37390   8.498  38.721   7.866
 2806POPC   NC337391  39.164  42.939   9.541
 2806POPC   PO437392  39.229  43.624   9.478
 2806POPC   GL137393  39.339  43.291   9.220
 2806POPC   GL237394  39.010  43.221   9.157
 2806POPC   C1A37395  39.351  43.025   8.845
 2806POPC   D2A37396  39.278  43.223   8.440
 2806POPC   C3A37397  39.200  42.949   8.095
 2806POPC   C4A37398  39.143  42.918   7.663
 2806POPC   C1B37399  39.013  43.471   8.821
 2806POPC   C2B37400  38.742  43.536   8.526
 2806POPC   C3B37401  38.817  43.329   8.174
 2806POPC   C4B37402  39.095  43.407   7.849
 2807POPC   NC337403  19.882  18.592   9.484
 2807POPC   PO437404  20.388  18.111   9.547
 2807POPC   GL137405  20.125  18.251   9.159
 2807POPC   GL237406  19.730  18.286   9.119
 2807POPC   C1A37407  19.990  18.111   8.714
 2807POPC   D2A37408  19.955  17.953   8.274
 2807POPC   C3A37409  20.107  18.201   7.946
 2807POPC   C4A37410  19.879  18.599   7.912
 2807POPC   C1B37411  19.846  18.599   8.801
 2807POPC   C2B37412  19.740  18.722   8.401
 2807POPC   C3B37413  19.496  18.393   8.184
 2807POPC   C4B37414  19.486  18.102   7.822
 2808POPC   NC337415  16.290   2.472   9.553
 2808POPC   PO437416  16.207   3.078   9.513
 2808POPC   GL137417  16.120   2.994   9.102
 2808POPC   GL237418  16.188   2.644   9.092
 2808POPC   C1A37419  15.898   2.861   8.702
 2808POPC   D2A37420  15.821   3.100   8.309
 2808POPC   C3A37421  15.830   2.861   7.927
 2808POPC   C4A37422  15.632   2.446   7.813
 2808POPC   C1B37423  16.398   2.773   8.729
 2808POPC   C2B37424  16.251   2.526   8.388
 2808POPC   C3B37425  16.102   2.411   7.998
 2808POPC   C4B37426  16.138   2.621   7.560
 2809POPC   NC337427  13.692  41.069   9.302
 2809POPC   PO437428  13.525  40.498   9.565
 2809POPC   GL137429  13.466  40.357   9.150
 2809POPC   GL237430  13.703  40.594   9.060
 2809POPC   C1A37431  13.503  40.258   8.734
 2809POPC   D2A37432  13.593  40.494   8.374
 2809POPC   C3A37433  13.459  40.411   7.992
 2809POPC   C4A37434  13.531  40.641   7.578
 2809POPC   C1B37435  13.702  40.858   8.706
 2809POPC   C2B37436  13.501  41.012   8.350
 2809POPC   C3B37437  13.724  40.875   7.990
 2809POPC   C4B37438  13.874  41.050   7.586
 2810POPC   NC337439   7.132  31.755   9.821
 2810POPC   PO437440   7.681  31.493   9.446
 2810POPC   GL137441   7.501  31.390   9.074
 2810POPC   GL237442   7.782  31.159   9.032
 2810POPC   C1A37443   7.180  31.422   8.738
 2810POPC   D2A37444   7.114  31.211   8.324
 2810POPC   C3A37445   7.256  31.440   7.956
 2810POPC   C4A37446   7.371  31.290   7.560
 2810POPC   C1B37447   7.726  31.408   8.625
 2810POPC   C2B37448   7.730  31.441   8.193
 2810POPC   C3B37449   7.781  31.511   7.764
 2810POPC   C4B37450   7.952  31.467   7.355
 2811POPC   NC337451   8.405  25.802   9.594
 2811POPC   PO437452   7.783  26.040   9.761
 2811POPC   GL137453   7.983  25.953   9.258
 2811POPC   GL237454   8.341  25.861   9.110
 2811POPC   C1A37455   8.076  26.035   8.754
 2811POPC   D2A37456   8.254  25.787   8.382
 2811POPC   C3A37457   8.227  25.972   7.921
 2811POPC   C4A37458   8.289  26.284   7.554
 2811POPC   C1B37459   8.608  26.057   8.754
 2811POPC   C2B37460   8.583  26.165   8.300
 2811POPC   C3B37461   8.709  26.170   7.864
 2811POPC   C4B37462   8.776  26.253   7.431
 2812POPC   NC337463  18.857   7.271   9.554
 2812POPC   PO437464  19.161   7.881   9.548
 2812POPC   GL137465  19.090   7.580   9.195
 2812POPC   GL237466  19.118   7.220   9.097
 2812POPC   C1A37467  19.123   7.602   8.749
 2812POPC   D2A37468  18.822   7.632   8.391
 2812POPC   C3A37469  18.834   7.839   7.973
 2812POPC   C4A37470  18.867   7.688   7.527
 2812POPC   C1B37471  19.272   7.036   8.738
 2812POPC   C2B37472  19.217   7.279   8.361
 2812POPC   C3B37473  19.066   7.363   7.936
 2812POPC   C4B37474  19.167   7.278   7.494
 2813POPC   NC337475   0.561  22.626   9.900
 2813POPC   PO437476   0.328  22.034   9.527
 2813POPC   GL137477   0.437  21.970   9.110
 2813POPC   GL237478   0.670  22.190   8.993
 2813POPC   C1A37479   0.415  21.914   8.631
 2813POPC   D2A37480   0.569  22.150   8.268
 2813POPC   C3A37481   0.231  22.199   7.983
 2813POPC   C4A37482   0.170  21.932   7.669
 2813POPC   C1B37483   0.765  22.563   8.758
 2813POPC   C2B37484   0.859  22.745   8.394
 2813POPC   C3B37485   0.893  22.500   8.041
 2813POPC   C4B37486   0.573  22.534   7.764
 2814POPC   NC337487   5.821   4.528   9.286
 2814POPC   PO437488   5.969   5.145   9.631
 2814POPC   GL137489   5.851   5.129   9.188
 2814POPC   GL237490   5.492   5.280   9.169
 2814POPC   C1A37491   5.973   4.899   8.770
 2814POPC   D2A37492   5.785   4.756   8.355
 2814POPC   C3A37493   5.876   5.003   7.955
 2814POPC   C4A37494   5.997   4.899   7.492
 2814POPC   C1B37495   5.582   5.228   8.702
 2814POPC   C2B37496   5.958   5.266   8.401
 2814POPC   C3B37497   6.279   5.422   8.116
 2814POPC   C4B37498   6.349   5.126   7.805
 2815POPC   NC337499  39.242  39.412   9.503
 2815POPC   PO437500  39.536  38.748   9.547
 2815POPC   GL137501  39.538  39.122   9.196
 2815POPC   GL237502  39.219  39.294   9.008
 2815POPC   C1A37503  39.594  39.147   8.734
 2815POPC   D2A37504  39.365  39.191   8.355
 2815POPC   C3A37505  39.583  39.122   7.993
 2815POPC   C4A37506  39.559  39.260   7.606
 2815POPC   C1B37507  39.087  38.960   8.731
 2815POPC   C2B37508  38.870  38.990   8.352
 2815POPC   C3B37509  38.780  39.211   7.989
 2815POPC   C4B37510  39.149  39.411   7.888
 2816POPC   NC337511  34.236   0.230   9.537
 2816POPC   PO437512  34.829   0.585   9.563
 2816POPC   GL137513  34.553   0.484   9.219
 2816POPC   GL237514  34.563   0.131   9.155
 2816POPC   C1A37515  34.338   0.498   8.833
 2816POPC   D2A37516  34.362   0.290   8.436
 2816POPC   C3A37517  34.618   0.391   8.075
 2816POPC   C4A37518  34.471   0.479   7.682
 2816POPC   C1B37519  34.575  44.894   8.770
 2816POPC   C2B37520  34.725  44.958   8.341
 2816POPC   C3B37521  34.580  44.921   7.913
 2816POPC   C4B37522  34.797   0.001   7.491
 2817POPC   NC337523   4.176  42.408   9.630
 2817POPC   PO437524   4.672  42.069   9.336
 2817POPC   GL137525   4.364  42.298   9.113
 2817POPC   GL237526   4.238  42.624   9.166
 2817POPC   C1A37527   4.104  42.270   8.758
 2817POPC   D2A37528   3.969  42.088   8.353
 2817POPC   C3A37529   4.245  42.146   7.984
 2817POPC   C4A37530   4.615  42.326   7.827
 2817POPC   C1B37531   4.466  42.687   8.788
 2817POPC   C2B37532   4.385  42.469   8.368
 2817POPC   C3B37533   4.235  42.655   7.995
 2817POPC   C4B37534   4.395  42.712   7.575
 2818POPC   NC337535  18.997  44.293   9.432
 2818POPC   PO437536  19.410  44.875   9.281
 2818POPC   GL137537  19.158  44.600   9.061
 2818POPC   GL237538  18.969  44.827   8.961
 2818POPC   C1A37539  19.041  44.342   8.707
 2818POPC   D2A37540  18.878  44.440   8.288
 2818POPC   C3A37541  19.065  44.380   7.879
 2818POPC   C4A37542  19.376  44.528   7.553
 2818POPC   C1B37543  19.165   0.098   8.676
 2818POPC   C2B37544  18.952  44.955   8.337
 2818POPC   C3B37545  19.024  44.867   7.954
 2818POPC   C4B37546  19.258   0.056   7.657
 2819POPC   NC337547  25.082   7.744   9.494
 2819POPC   PO437548  25.560   7.283   9.545
 2819POPC   GL137549  25.395   7.227   9.147
 2819POPC   GL237550  25.339   7.568   9.109
 2819POPC   C1A37551  25.555   7.328   8.726
 2819POPC   D2A37552  25.317   7.452   8.388
 2819POPC   C3A37553  25.407   7.266   8.000
 2819POPC   C4A37554  25.185   7.555   7.747
 2819POPC   C1B37555  25.108   7.747   8.775
 2819POPC   C2B37556  24.823   7.763   8.434
 2819POPC   C3B37557  24.816   7.882   8.022
 2819POPC   C4B37558  24.749   7.735   7.594
 2820POPC   NC337559  22.982  43.529   9.600
 2820POPC   PO437560  22.774  44.192   9.522
 2820POPC   GL137561  22.756  44.083   9.104
 2820POPC   GL237562  22.994  43.837   9.157
 2820POPC   C1A37563  22.863  44.060   8.673
 2820POPC   D2A37564  22.685  44.132   8.259
 2820POPC   C3A37565  22.795  44.006   7.861
 2820POPC   C4A37566  22.545  44.285   7.659
 2820POPC   C1B37567  23.145  43.661   8.740
 2820POPC   C2B37568  23.042  43.734   8.268
 2820POPC   C3B37569  23.032  43.549   7.820
 2820POPC   C4B37570  22.839  43.439   7.406
 2821POPC   NC337571  24.885   9.183   9.748
 2821POPC   PO437572  25.436   8.797   9.558
 2821POPC   GL137573  25.397   8.961   9.185
 2821POPC   GL237574  25.197   9.225   9.323
 2821POPC   C1A37575  25.294   8.782   8.803
 2821POPC   D2A37576  25.389   8.993   8.461
 2821POPC   C3A37577  25.273   8.877   8.087
 2821POPC   C4A37578  25.525   9.013   7.730
 2821POPC   C1B37579  24.971   9.134   8.958
 2821POPC   C2B37580  24.887   9.063   8.521
 2821POPC   C3B37581  24.862   9.198   8.089
 2821POPC   C4B37582  25.002   9.016   7.656
 2822POPC   NC337583  27.235  35.348   9.545
 2822POPC   PO437584  27.823  35.579   9.501
 2822POPC   GL137585  27.695  35.270   9.191
 2822POPC   GL237586  27.528  34.963   9.300
 2822POPC   C1A37587  27.851  35.321   8.775
 2822POPC   D2A37588  27.711  35.604   8.479
 2822POPC   C3A37589  27.867  35.506   8.111
 2822POPC   C4A37590  27.668  35.509   7.740
 2822POPC   C1B37591  27.546  34.916   8.830
 2822POPC   C2B37592  27.442  35.109   8.457
 2822POPC   C3B37593  27.586  35.083   8.053
 2822POPC   C4B37594  27.712  34.798   7.770
 2823POPC   NC337595  17.392   6.471   9.404
 2823POPC   PO437596  17.771   7.093   9.432
 2823POPC   GL137597  17.550   6.883   9.096
 2823POPC   GL237598  17.194   6.814   9.036
 2823POPC   C1A37599  17.563   6.577   8.767
 2823POPC   D2A37600  17.262   6.539   8.483
 2823POPC   C3A37601  17.434   6.713   8.154
 2823POPC   C4A37602  17.550   6.453   7.824
 2823POPC   C1B37603  17.241   7.032   8.666
 2823POPC   C2B37604  17.030   7.052   8.294
 2823POPC   C3B37605  17.179   7.199   7.960
 2823POPC   C4B37606  17.303   6.918   7.698
 2824POPC   NC337607  15.421   4.129   9.392
 2824POPC   PO437608  16.023   4.320   9.556
 2824POPC   GL137609  15.914   4.478   9.150
 2824POPC   GL237610  15.837   4.171   9.068
 2824POPC   C1A37611  15.730   4.728   8.821
 2824POPC   D2A37612  15.585   4.658   8.406
 2824POPC   C3A37613  15.886   4.455   8.147
 2824POPC   C4A37614  16.096   4.466   7.756
 2824POPC   C1B37615  16.000   4.252   8.635
 2824POPC   C2B37616  15.980   3.970   8.260
 2824POPC   C3B37617  16.214   3.842   7.915
 2824POPC   C4B37618  16.323   4.033   7.552
 2825POPC   NC337619  29.618  36.353   9.549
 2825POPC   PO437620  30.173  36.073   9.440
 2825POPC   GL137621  29.909  36.192   9.127
 2825POPC   GL237622  29.743  36.497   9.089
 2825POPC   C1A37623  30.007  36.111   8.729
 2825POPC   D2A37624  30.227  36.289   8.400
 2825POPC   C3A37625  30.197  36.170   7.975
 2825POPC   C4A37626  30.404  35.934   7.667
 2825POPC   C1B37627  29.534  36.332   8.772
 2825POPC   C2B37628  29.615  36.158   8.404
 2825POPC   C3B37629  29.557  36.384   8.094
 2825POPC   C4B37630  29.760  36.338   7.766
 2826POPC   NC337631  34.873  43.691   9.560
 2826POPC   PO437632  34.328  44.078   9.637
 2826POPC   GL137633  34.390  43.943   9.180
 2826POPC   GL237634  34.549  43.612   9.173
 2826POPC   C1A37635  34.392  43.805   8.720
 2826POPC   D2A37636  34.589  44.028   8.382
 2826POPC   C3A37637  34.645  43.925   8.014
 2826POPC   C4A37638  34.414  44.045   7.670
 2826POPC   C1B37639  34.785  43.400   8.836
 2826POPC   C2B37640  34.738  43.510   8.417
 2826POPC   C3B37641  34.819  43.445   8.003
 2826POPC   C4B37642  34.646  43.605   7.614
 2827POPC   NC337643  30.218   4.118   9.406
 2827POPC   PO437644  30.741   4.488   9.497
 2827POPC   GL137645  30.688   4.356   9.133
 2827POPC   GL237646  30.355   4.533   9.133
 2827POPC   C1A37647  30.863   4.250   8.731
 2827POPC   D2A37648  30.593   4.047   8.466
 2827POPC   C3A37649  30.509   4.010   8.008
 2827POPC   C4A37650  30.826   4.141   7.713
 2827POPC   C1B37651  30.525   4.625   8.745
 2827POPC   C2B37652  30.422   4.552   8.342
 2827POPC   C3B37653  30.543   4.513   7.940
 2827POPC   C4B37654  30.548   4.499   7.504
 2828POPC   NC337655   5.494  24.545   9.315
 2828POPC   PO437656   4.895  24.584   9.598
 2828POPC   GL137657   4.894  24.677   9.164
 2828POPC   GL237658   5.036  24.363   9.135
 2828POPC   C1A37659   5.156  24.760   8.788
 2828POPC   D2A37660   5.263  24.518   8.451
 2828POPC   C3A37661   5.227  24.680   8.074
 2828POPC   C4A37662   5.352  24.489   7.739
 2828POPC   C1B37663   4.842  24.362   8.734
 2828POPC   C2B37664   4.782  24.495   8.340
 2828POPC   C3B37665   4.891  24.291   7.978
 2828POPC   C4B37666   4.807  24.074   7.606
 2829POPC   NC337667  39.575   6.476   9.587
 2829POPC   PO437668  39.084   6.831   9.833
 2829POPC   GL137669  39.166   6.686   9.346
 2829POPC   GL237670  39.200   6.953   9.089
 2829POPC   C1A37671  39.415   6.501   8.935
 2829POPC   D2A37672  39.284   6.693   8.505
 2829POPC   C3A37673  39.330   6.601   8.053
 2829POPC   C4A37674  39.489   6.226   7.888
 2829POPC   C1B37675  38.936   6.602   8.894
 2829POPC   C2B37676  38.858   6.317   8.554
 2829POPC   C3B37677  38.867   6.366   8.105
 2829POPC   C4B37678  39.028   6.337   7.693
 2830POPC   NC337679  20.318  24.091   9.531
 2830POPC   PO437680  20.816  24.378   9.717
 2830POPC   GL137681  20.828  24.438   9.244
 2830POPC   GL237682  20.528  24.338   9.126
 2830POPC   C1A37683  20.767  24.686   8.819
 2830POPC   D2A37684  20.460  24.843   8.479
 2830POPC   C3A37685  20.626  24.736   8.047
 2830POPC   C4A37686  20.907  24.484   7.752
 2830POPC   C1B37687  20.307  24.357   8.742
 2830POPC   C2B37688  20.314  24.401   8.297
 2830POPC   C3B37689  20.194  24.489   7.898
 2830POPC   C4B37690  20.454  24.241   7.737
 2831POPC   NC337691  22.622  37.881   9.495
 2831POPC   PO437692  22.877  37.308   9.704
 2831POPC   GL137693  22.962  37.537   9.258
 2831POPC   GL237694  23.087  37.904   9.280
 2831POPC   C1A37695  22.764  37.607   8.801
 2831POPC   D2A37696  22.816  37.413   8.389
 2831POPC   C3A37697  23.184  37.415   8.105
 2831POPC   C4A37698  22.938  37.477   7.737
 2831POPC   C1B37699  23.035  38.020   8.865
 2831POPC   C2B37700  23.163  37.847   8.459
 2831POPC   C3B37701  23.076  37.920   8.010
 2831POPC   C4B37702  23.320  37.794   7.664
 2832POPC   NC337703  32.732  19.969   9.549
 2832POPC   PO437704  33.316  19.725   9.499
 2832POPC   GL137705  33.124  19.971   9.190
 2832POPC   GL237706  33.418  19.924   9.032
 2832POPC   C1A37707  32.955  20.053   8.767
 2832POPC   D2A37708  32.640  19.964   8.452
 2832POPC   C3A37709  32.811  19.935   8.017
 2832POPC   C4A37710  32.742  20.110   7.559
 2832POPC   C1B37711  33.440  20.051   8.641
 2832POPC   C2B37712  33.252  20.141   8.288
 2832POPC   C3B37713  33.408  19.881   8.001
 2832POPC   C4B37714  33.170  19.849   7.659
 2833POPC   NC337715  27.930  29.192   9.829
 2833POPC   PO437716  28.435  29.372   9.450
 2833POPC   GL137717  28.563  29.332   9.113
 2833POPC   GL237718  28.800  29.618   9.086
 2833POPC   C1A37719  28.500  29.082   8.748
 2833POPC   D2A37720  28.755  29.071   8.399
 2833POPC   C3A37721  28.538  28.954   8.037
 2833POPC   C4A37722  28.613  28.759   7.673
 2833POPC   C1B37723  28.570  29.577   8.700
 2833POPC   C2B37724  28.367  29.439   8.383
 2833POPC   C3B37725  28.620  29.446   8.050
 2833POPC   C4B37726  28.453  29.352   7.664
 2834POPC   NC337727  13.719   8.601   9.870
 2834POPC   PO437728  13.704   9.186   9.546
 2834POPC   GL137729  13.717   9.172   9.112
 2834POPC   GL237730  13.614   8.855   9.033
 2834POPC   C1A37731  13.370   9.231   8.790
 2834POPC   D2A37732  13.295   9.048   8.375
 2834POPC   C3A37733  13.660   9.030   8.115
 2834POPC   C4A37734  13.586   9.129   7.719
 2834POPC   C1B37735  13.789   8.707   8.634
 2834POPC   C2B37736  13.553   8.564   8.290
 2834POPC   C3B37737  13.359   8.650   7.883
 2834POPC   C4B37738  13.530   8.718   7.430
 2835POPC   NC337739   7.044  33.298   9.320
 2835POPC   PO437740   6.644  32.826   9.361
 2835POPC   GL137741   6.603  32.867   8.970
 2835POPC   GL237742   6.940  32.977   8.941
 2835POPC   C1A37743   6.476  33.199   8.734
 2835POPC   D2A37744   6.551  33.388   8.352
 2835POPC   C3A37745   6.378  33.213   8.008
 2835POPC   C4A37746   6.528  33.275   7.610
 2835POPC   C1B37747   7.059  32.781   8.596
 2835POPC   C2B37748   6.744  32.873   8.293
 2835POPC   C3B37749   6.878  33.080   7.926
 2835POPC   C4B37750   7.025  33.238   7.553
 2836POPC   NC337751  18.152  42.792   9.487
 2836POPC   PO437752  17.827  43.436   9.510
 2836POPC   GL137753  17.989  43.176   9.175
 2836POPC   GL237754  18.365  43.129   9.180
 2836POPC   C1A37755  18.025  43.192   8.742
 2836POPC   D2A37756  18.022  43.359   8.347
 2836POPC   C3A37757  18.254  43.248   7.994
 2836POPC   C4A37758  18.245  43.423   7.604
 2836POPC   C1B37759  18.526  43.083   8.767
 2836POPC   C2B37760  18.350  42.922   8.376
 2836POPC   C3B37761  18.480  42.778   7.981
 2836POPC   C4B37762  18.598  43.073   7.640
 2837POPC   NC337763  17.511  13.625   9.835
 2837POPC   PO437764  17.420  13.738   9.238
 2837POPC   GL137765  17.644  13.592   8.955
 2837POPC   GL237766  17.936  13.734   9.118
 2837POPC   C1A37767  17.434  13.357   8.701
 2837POPC   D2A37768  17.178  13.359   8.358
 2837POPC   C3A37769  17.459  13.530   8.071
 2837POPC   C4A37770  17.755  13.580   7.766
 2837POPC   C1B37771  17.841  13.985   8.749
 2837POPC   C2B37772  17.584  13.810   8.478
 2837POPC   C3B37773  17.887  13.838   8.187
 2837POPC   C4B37774  18.010  14.034   7.805
 2838POPC   NC337775  42.035  13.370   9.671
 2838POPC   PO437776  42.318  14.054   9.462
 2838POPC   GL137777  42.302  13.614   9.279
 2838POPC   GL237778  41.962  13.464   9.174
 2838POPC   C1A37779  42.391  13.422   8.877
 2838POPC   D2A37780  42.383  13.592   8.473
 2838POPC   C3A37781  42.424  13.401   8.072
 2838POPC   C4A37782  42.329  13.634   7.688
 2838POPC   C1B37783  41.921  13.206   8.777
 2838POPC   C2B37784  41.993  13.275   8.319
 2838POPC   C3B37785  41.942  13.359   7.888
 2838POPC   C4B37786  41.950  13.380   7.432
 2839POPC   NC337787  18.780  33.218   9.684
 2839POPC   PO437788  19.385  32.859   9.736
 2839POPC   GL137789  19.095  33.080   9.311
 2839POPC   GL237790  19.070  32.862   9.034
 2839POPC   C1A37791  19.037  33.313   8.858
 2839POPC   D2A37792  19.268  33.353   8.417
 2839POPC   C3A37793  19.042  33.238   8.003
 2839POPC   C4A37794  18.786  33.288   7.598
 2839POPC   C1B37795  19.302  32.873   8.649
 2839POPC   C2B37796  19.296  32.631   8.297
 2839POPC   C3B37797  19.191  32.775   7.877
 2839POPC   C4B37798  18.788  32.795   7.761
 2840POPC   NC337799  30.265  28.487   9.550
 2840POPC   PO437800  29.629  28.210   9.550
 2840POPC   GL137801  29.909  28.289   9.236
 2840POPC   GL237802  30.034  27.976   9.137
 2840POPC   C1A37803  30.030  28.459   8.850
 2840POPC   D2A37804  29.968  28.305   8.442
 2840POPC   C3A37805  29.772  28.509   8.107
 2840POPC   C4A37806  29.866  28.696   7.720
 2840POPC   C1B37807  29.762  27.992   8.809
 2840POPC   C2B37808  29.767  27.836   8.394
 2840POPC   C3B37809  30.007  27.992   8.036
 2840POPC   C4B37810  29.921  28.208   7.689
 2841POPC   NC337811  41.262   9.765   9.604
 2841POPC   PO437812  41.913   9.672   9.503
 2841POPC   GL137813  41.568   9.820   9.187
 2841POPC   GL237814  41.215  10.011   9.162
 2841POPC   C1A37815  41.509   9.605   8.806
 2841POPC   D2A37816  41.751   9.323   8.536
 2841POPC   C3A37817  41.770   9.495   8.129
 2841POPC   C4A37818  41.505   9.382   7.785
 2841POPC   C1B37819  41.403  10.130   8.801
 2841POPC   C2B37820  41.278   9.948   8.441
 2841POPC   C3B37821  41.409   9.852   8.055
 2841POPC   C4B37822  41.291   9.992   7.680
 2842POPC   NC337823  12.475  40.156   9.427
 2842POPC   PO437824  11.784  40.111   9.539
 2842POPC   GL137825  12.018  40.070   9.169
 2842POPC   GL237826  12.242  39.769   9.130
 2842POPC   C1A37827  12.058  40.072   8.743
 2842POPC   D2A37828  11.839  40.093   8.405
 2842POPC   C3A37829  12.010  40.226   8.078
 2842POPC   C4A37830  11.845  39.975   7.747
 2842POPC   C1B37831  12.369  39.675   8.678
 2842POPC   C2B37832  12.318  39.875   8.281
 2842POPC   C3B37833  12.322  39.835   7.836
 2842POPC   C4B37834  12.335  40.055   7.436
 2843POPC   NC337835  22.083   0.875   9.518
 2843POPC   PO437836  22.421   1.471   9.586
 2843POPC   GL137837  22.100   1.360   9.279
 2843POPC   GL237838  22.357   1.139   9.143
 2843POPC   C1A37839  21.884   1.118   8.932
 2843POPC   D2A37840  21.867   0.950   8.516
 2843POPC   C3A37841  22.017   1.225   8.175
 2843POPC   C4A37842  22.021   1.134   7.729
 2843POPC   C1B37843  22.357   1.091   8.690
 2843POPC   C2B37844  22.527   1.294   8.319
 2843POPC   C3B37845  22.511   1.228   7.887
 2843POPC   C4B37846  22.483   0.894   7.617
 2844POPC   NC337847  36.536   2.205   9.414
 2844POPC   PO437848  35.885   2.162   9.496
 2844POPC   GL137849  36.116   1.859   9.253
 2844POPC   GL237850  36.139   2.137   9.020
 2844POPC   C1A37851  36.318   1.698   8.851
 2844POPC   D2A37852  36.170   1.885   8.476
 2844POPC   C3A37853  36.392   1.926   8.084
 2844POPC   C4A37854  36.507   2.266   7.804
 2844POPC   C1B37855  35.812   2.278   8.706
 2844POPC   C2B37856  35.609   2.118   8.374
 2844POPC   C3B37857  35.847   1.881   8.079
 2844POPC   C4B37858  36.009   1.875   7.678
 2845POPC   NC337859  37.848  24.899   9.580
 2845POPC   PO437860  37.759  25.501   9.597
 2845POPC   GL137861  37.600  25.351   9.197
 2845POPC   GL237862  37.659  25.002   9.102
 2845POPC   C1A37863  37.782  25.343   8.771
 2845POPC   D2A37864  37.706  25.568   8.434
 2845POPC   C3A37865  37.964  25.491   8.105
 2845POPC   C4A37866  37.767  25.505   7.709
 2845POPC   C1B37867  37.495  24.916   8.706
 2845POPC   C2B37868  37.659  25.071   8.331
 2845POPC   C3B37869  37.802  25.028   7.908
 2845POPC   C4B37870  37.520  24.943   7.548
 2846POPC   NC337871  25.650   4.165   9.569
 2846POPC   PO437872  24.949   4.281   9.553
 2846POPC   GL137873  25.253   4.186   9.257
 2846POPC   GL237874  25.330   4.507   9.123
 2846POPC   C1A37875  25.507   4.001   8.904
 2846POPC   D2A37876  25.694   3.833   8.529
 2846POPC   C3A37877  25.486   3.961   8.143
 2846POPC   C4A37878  25.685   4.061   7.733
 2846POPC   C1B37879  25.060   4.261   8.814
 2846POPC   C2B37880  25.002   4.371   8.405
 2846POPC   C3B37881  24.941   4.462   8.013
 2846POPC   C4B37882  25.294   4.377   7.765
 2847POPC   NC337883  14.160  12.383   9.629
 2847POPC   PO437884  14.341  13.041   9.483
 2847POPC   GL137885  14.359  12.954   9.126
 2847POPC   GL237886  14.143  12.651   9.189
 2847POPC   C1A37887  14.599  13.054   8.766
 2847POPC   D2A37888  14.473  12.826   8.418
 2847POPC   C3A37889  14.655  12.861   8.014
 2847POPC   C4A37890  14.493  12.656   7.672
 2847POPC   C1B37891  14.022  12.805   8.775
 2847POPC   C2B37892  13.983  12.645   8.385
 2847POPC   C3B37893  14.146  12.827   8.016
 2847POPC   C4B37894  14.008  12.842   7.619
 2848POPC   NC337895  38.145   5.904   9.509
 2848POPC   PO437896  38.790   5.833   9.390
 2848POPC   GL137897  38.717   5.643   9.054
 2848POPC   GL237898  38.348   5.675   9.108
 2848POPC   C1A37899  38.650   5.828   8.661
 2848POPC   D2A37900  38.449   6.051   8.374
 2848POPC   C3A37901  38.589   5.951   8.020
 2848POPC   C4A37902  38.579   5.608   7.857
 2848POPC   C1B37903  38.157   5.790   8.742
 2848POPC   C2B37904  37.977   5.764   8.341
 2848POPC   C3B37905  38.042   5.929   7.914
 2848POPC   C4B37906  37.906   6.152   7.540
 2849POPC   NC337907   3.482  23.956   9.618
 2849POPC   PO437908   3.358  24.687   9.698
 2849POPC   GL137909   3.374  24.392   9.309
 2849POPC   GL237910   3.651  24.223   9.177
 2849POPC   C1A37911   3.276  24.438   8.863
 2849POPC   D2A37912   3.448  24.580   8.471
 2849POPC   C3A37913   3.272  24.480   8.086
 2849POPC   C4A37914   3.484  24.632   7.728
 2849POPC   C1B37915   3.808  24.372   8.811
 2849POPC   C2B37916   3.968  24.504   8.455
 2849POPC   C3B37917   3.815  24.431   8.076
 2849POPC   C4B37918   3.839  24.289   7.682
 2850POPC   NC337919  28.134   3.250   9.479
 2850POPC   PO437920  27.476   3.332   9.486
 2850POPC   GL137921  27.580   3.267   9.071
 2850POPC   GL237922  27.930   3.140   9.043
 2850POPC   C1A37923  27.471   3.510   8.675
 2850POPC   D2A37924  27.536   3.907   8.434
 2850POPC   C3A37925  27.626   3.765   8.049
 2850POPC   C4A37926  27.347   3.401   8.048
 2850POPC   C1B37927  27.802   3.098   8.636
 2850POPC   C2B37928  27.786   3.206   8.229
 2850POPC   C3B37929  27.851   3.364   7.830
 2850POPC   C4B37930  27.941   3.288   7.358
 2851POPC   NC337931  40.221   6.771   9.584
 2851POPC   PO437932  39.605   6.913   9.416
 2851POPC   GL137933  39.894   6.692   9.121
 2851POPC   GL237934  40.244   6.494   9.161
 2851POPC   C1A37935  39.797   6.723   8.672
 2851POPC   D2A37936  39.756   6.457   8.316
 2851POPC   C3A37937  39.813   6.798   8.036
 2851POPC   C4A37938  40.078   6.891   7.683
 2851POPC   C1B37939  40.304   6.647   8.755
 2851POPC   C2B37940  40.222   6.671   8.321
 2851POPC   C3B37941  40.136   6.419   7.938
 2851POPC   C4B37942  40.280   6.466   7.522
 2852POPC   NC337943  15.454  29.518   9.166
 2852POPC   PO437944  14.928  29.300   9.548
 2852POPC   GL137945  14.960  29.061   9.179
 2852POPC   GL237946  15.280  29.008   9.089
 2852POPC   C1A37947  14.850  28.993   8.750
 2852POPC   D2A37948  14.713  29.161   8.343
 2852POPC   C3A37949  14.872  28.979   7.925
 2852POPC   C4A37950  14.987  29.014   7.474
 2852POPC   C1B37951  15.355  29.078   8.667
 2852POPC   C2B37952  15.172  28.851   8.344
 2852POPC   C3B37953  15.355  28.881   7.963
 2852POPC   C4B37954  15.384  29.294   7.752
 2853POPC   NC337955  10.375  37.032   9.488
 2853POPC   PO437956  10.993  36.716   9.550
 2853POPC   GL137957  10.802  36.928   9.214
 2853POPC   GL237958  10.502  36.777   9.090
 2853POPC   C1A37959  10.864  36.863   8.777
 2853POPC   D2A37960  10.574  36.968   8.457
 2853POPC   C3A37961  10.778  36.894   8.099
 2853POPC   C4A37962  10.725  36.883   7.668
 2853POPC   C1B37963  10.399  36.558   8.739
 2853POPC   C2B37964  10.196  36.628   8.335
 2853POPC   C3B37965  10.257  36.884   7.990
 2853POPC   C4B37966  10.236  36.517   7.770
 2854POPC   NC337967   4.210  28.592   9.460
 2854POPC   PO437968   4.802  28.363   9.752
 2854POPC   GL137969   4.614  28.338   9.267
 2854POPC   GL237970   4.307  28.225   9.116
 2854POPC   C1A37971   4.634  28.541   8.865
 2854POPC   D2A37972   4.714  28.663   8.464
 2854POPC   C3A37973   4.561  28.378   8.194
 2854POPC   C4A37974   4.543  28.519   7.808
 2854POPC   C1B37975   4.123  28.458   8.782
 2854POPC   C2B37976   4.135  28.634   8.366
 2854POPC   C3B37977   4.074  28.445   7.973
 2854POPC   C4B37978   3.852  28.081   7.862
 2855POPC   NC337979  24.044  28.755   9.930
 2855POPC   PO437980  23.753  29.001   9.334
 2855POPC   GL137981  23.617  29.242   8.969
 2855POPC   GL237982  23.321  29.548   9.014
 2855POPC   C1A37983  23.842  29.053   8.673
 2855POPC   D2A37984  23.989  29.097   8.308
 2855POPC   C3A37985  23.680  29.085   7.999
 2855POPC   C4A37986  23.948  28.828   7.838
 2855POPC   C1B37987  23.243  29.345   8.651
 2855POPC   C2B37988  23.588  29.402   8.394
 2855POPC   C3B37989  23.690  29.601   8.032
 2855POPC   C4B37990  23.323  29.664   7.870
 2856POPC   NC337991  14.435   7.903   9.891
 2856POPC   PO437992  13.958   7.828   9.426
 2856POPC   GL137993  14.259   8.025   9.133
 2856POPC   GL237994  14.523   8.231   9.274
 2856POPC   C1A37995  14.508   7.960   8.757
 2856POPC   D2A37996  14.636   7.837   8.350
 2856POPC   C3A37997  14.404   7.951   7.983
 2856POPC   C4A37998  14.285   8.285   7.740
 2856POPC   C1B37999  14.797   8.346   8.918
 2856POPC   C2B38000  14.838   8.294   8.475
 2856POPC   C3B38001  14.678   8.462   8.083
 2856POPC   C4B38002  14.808   8.744   7.765
 2857POPC   NC338003  20.171  43.258   9.611
 2857POPC   PO438004  20.892  43.388   9.522
 2857POPC   GL138005  20.756  43.360   9.155
 2857POPC   GL238006  20.535  43.083   9.257
 2857POPC   C1A38007  20.785  43.186   8.759
 2857POPC   D2A38008  20.911  42.910   8.425
 2857POPC   C3A38009  20.755  43.115   8.076
 2857POPC   C4A38010  20.459  43.254   7.817
 2857POPC   C1B38011  20.336  42.949   8.882
 2857POPC   C2B38012  20.396  43.023   8.440
 2857POPC   C3B38013  20.349  42.805   8.051
 2857POPC   C4B38014  20.625  42.782   7.712
 2858POPC   NC338015  35.461   9.381   9.840
 2858POPC   PO438016  35.174   9.939   9.637
 2858POPC   GL138017  35.072   9.942   9.193
 2858POPC   GL238018  35.186   9.621   9.147
 2858POPC   C1A38019  35.248   9.947   8.743
 2858POPC   D2A38020  35.603   9.867   8.429
 2858POPC   C3A38021  35.450   9.872   8.013
 2858POPC   C4A38022  35.128   9.611   7.873
 2858POPC   C1B38023  35.243   9.405   8.747
 2858POPC   C2B38024  35.337   9.410   8.309
 2858POPC   C3B38025  35.603   9.362   7.949
 2858POPC   C4B38026  35.431   9.277   7.538
 2859POPC   NC338027  38.035  15.830   9.343
 2859POPC   PO438028  37.519  16.086   9.596
 2859POPC   GL138029  37.709  16.128   9.133
 2859POPC   GL238030  37.984  16.310   8.948
 2859POPC   C1A38031  37.524  16.181   8.701
 2859POPC   D2A38032  37.251  16.075   8.326
 2859POPC   C3A38033  37.502  15.953   7.957
 2859POPC   C4A38034  37.660  16.267   7.568
 2859POPC   C1B38035  38.040  15.926   8.718
 2859POPC   C2B38036  37.861  15.903   8.343
 2859POPC   C3B38037  37.933  16.188   8.022
 2859POPC   C4B38038  37.915  15.865   7.697
 2860POPC   NC338039   1.786  43.220   9.448
 2860POPC   PO438040   2.074  42.739   9.787
 2860POPC   GL138041   2.165  42.729   9.257
 2860POPC   GL238042   2.064  43.022   9.107
 2860POPC   C1A38043   1.936  42.660   8.809
 2860POPC   D2A38044   1.681  42.948   8.557
 2860POPC   C3A38045   1.837  42.983   8.129
 2860POPC   C4A38046   1.829  42.611   7.871
 2860POPC   C1B38047   2.154  43.137   8.704
 2860POPC   C2B38048   2.282  43.224   8.312
 2860POPC   C3B38049   2.114  43.527   8.082
 2860POPC   C4B38050   1.877  43.386   7.777
 2861POPC   NC338051  27.706   7.727   9.510
 2861POPC   PO438052  27.857   7.061   9.613
 2861POPC   GL138053  27.612   7.309   9.222
 2861POPC   GL238054  27.738   7.642   8.991
 2861POPC   C1A38055  27.421   7.333   8.794
 2861POPC   D2A38056  27.636   7.535   8.440
 2861POPC   C3A38057  27.476   7.400   8.082
 2861POPC   C4A38058  27.490   7.405   7.670
 2861POPC   C1B38059  28.081   7.734   8.666
 2861POPC   C2B38060  28.160   7.784   8.248
 2861POPC   C3B38061  27.929   7.608   7.954
 2861POPC   C4B38062  27.904   7.673   7.587
 2862POPC   NC338063  17.079  14.026   9.352
 2862POPC   PO438064  16.659  13.621   9.683
 2862POPC   GL138065  16.726  13.635   9.238
 2862POPC   GL238066  17.021  13.451   9.070
 2862POPC   C1A38067  16.585  13.593   8.806
 2862POPC   D2A38068  16.706  13.590   8.377
 2862POPC   C3A38069  16.491  13.696   8.005
 2862POPC   C4A38070  16.601  13.345   7.765
 2862POPC   C1B38071  17.087  13.756   8.701
 2862POPC   C2B38072  17.108  13.889   8.273
 2862POPC   C3B38073  16.999  13.651   7.913
 2862POPC   C4B38074  17.279  13.686   7.601
 2863POPC   NC338075  40.443  26.686   9.445
 2863POPC   PO438076  41.040  26.992   9.523
 2863POPC   GL138077  40.864  26.809   9.172
 2863POPC   GL238078  40.636  27.090   9.039
 2863POPC   C1A38079  40.665  26.675   8.781
 2863POPC   D2A38080  40.527  27.005   8.511
 2863POPC   C3A38081  40.602  26.996   8.081
 2863POPC   C4A38082  40.532  26.704   7.743
 2863POPC   C1B38083  41.022  27.021   8.734
 2863POPC   C2B38084  41.085  27.123   8.293
 2863POPC   C3B38085  41.067  26.906   7.893
 2863POPC   C4B38086  41.135  26.994   7.452
 2864POPC   NC338087  19.792  25.405   9.470
 2864POPC   PO438088  19.248  24.916   9.422
 2864POPC   GL138089  19.533  25.115   9.087
 2864POPC   GL238090  19.908  25.201   9.029
 2864POPC   C1A38091  19.615  25.163   8.638
 2864POPC   D2A38092  19.906  25.368   8.392
 2864POPC   C3A38093  19.659  25.511   8.080
 2864POPC   C4A38094  19.685  25.241   7.765
 2864POPC   C1B38095  20.011  25.637   8.812
 2864POPC   C2B38096  20.185  25.807   8.397
 2864POPC   C3B38097  20.159  25.682   7.956
 2864POPC   C4B38098  19.824  25.743   7.659
 2865POPC   NC338099   4.632   8.114   9.500
 2865POPC   PO438100   3.970   8.356   9.565
 2865POPC   GL138101   4.265   8.317   9.216
 2865POPC   GL238102   4.291   7.993   9.046
 2865POPC   C1A38103   4.383   8.502   8.826
 2865POPC   D2A38104   4.387   8.283   8.440
 2865POPC   C3A38105   4.373   8.490   8.063
 2865POPC   C4A38106   4.181   8.440   7.681
 2865POPC   C1B38107   4.579   7.855   8.694
 2865POPC   C2B38108   4.629   7.885   8.221
 2865POPC   C3B38109   4.299   7.995   7.911
 2865POPC   C4B38110   4.369   7.992   7.464
 2866POPC   NC338111  25.675  28.307   9.418
 2866POPC   PO438112  26.240  28.666   9.496
 2866POPC   GL138113  26.065  28.435   9.133
 2866POPC   GL238114  26.045  28.077   9.092
 2866POPC   C1A38115  25.819  28.416   8.759
 2866POPC   D2A38116  26.045  28.341   8.361
 2866POPC   C3A38117  25.944  28.501   7.954
 2866POPC   C4A38118  26.186  28.433   7.559
 2866POPC   C1B38119  25.887  27.921   8.684
 2866POPC   C2B38120  25.596  28.119   8.399
 2866POPC   C3B38121  25.658  28.051   7.959
 2866POPC   C4B38122  25.996  27.971   7.659
 2867POPC   NC338123  15.739  24.779   9.396
 2867POPC   PO438124  16.045  24.159   9.565
 2867POPC   GL138125  16.168  24.265   9.151
 2867POPC   GL238126  15.821  24.366   9.072
 2867POPC   C1A38127  16.224  24.618   8.872
 2867POPC   D2A38128  15.991  24.850   8.532
 2867POPC   C3A38129  16.028  24.596   8.177
 2867POPC   C4A38130  16.018  24.467   7.773
 2867POPC   C1B38131  15.897  24.349   8.630
 2867POPC   C2B38132  15.880  24.107   8.292
 2867POPC   C3B38133  15.716  24.085   7.906
 2867POPC   C4B38134  15.571  24.279   7.563
 2868POPC   NC338135  40.263  16.877   9.507
 2868POPC   PO438136  39.536  16.994   9.562
 2868POPC   GL138137  39.788  16.702   9.243
 2868POPC   GL238138  40.019  16.892   9.082
 2868POPC   C1A38139  40.013  16.474   8.823
 2868POPC   D2A38140  40.070  16.367   8.348
 2868POPC   C3A38141  40.176  16.558   7.922
 2868POPC   C4A38142  40.051  16.897   7.600
 2868POPC   C1B38143  40.229  16.950   8.731
 2868POPC   C2B38144  40.168  16.884   8.316
 2868POPC   C3B38145  40.389  17.024   7.964
 2868POPC   C4B38146  40.334  17.307   7.654
 2869POPC   NC338147  41.267   3.017   9.541
 2869POPC   PO438148  41.930   2.878   9.650
 2869POPC   GL138149  41.721   2.846   9.212
 2869POPC   GL238150  41.398   2.745   9.117
 2869POPC   C1A38151  41.710   2.928   8.748
 2869POPC   D2A38152  41.382   2.792   8.432
 2869POPC   C3A38153  41.469   2.823   7.985
 2869POPC   C4A38154  41.366   2.609   7.640
 2869POPC   C1B38155  41.201   3.084   8.843
 2869POPC   C2B38156  41.139   3.243   8.408
 2869POPC   C3B38157  41.183   3.236   7.944
 2869POPC   C4B38158  41.149   3.064   7.507
 2870POPC   NC338159   4.954   6.162   9.394
 2870POPC   PO438160   5.217   5.592   9.620
 2870POPC   GL138161   5.250   5.756   9.201
 2870POPC   GL238162   4.938   5.808   9.035
 2870POPC   C1A38163   5.322   5.712   8.742
 2870POPC   D2A38164   4.957   5.807   8.489
 2870POPC   C3A38165   4.982   5.792   8.056
 2870POPC   C4A38166   5.372   5.792   7.824
 2870POPC   C1B38167   5.143   6.186   8.794
 2870POPC   C2B38168   4.975   6.317   8.419
 2870POPC   C3B38169   5.015   6.320   8.016
 2870POPC   C4B38170   5.002   6.111   7.636
 2871POPC   NC338171   1.467   2.969   9.553
 2871POPC   PO438172   2.029   2.650   9.464
 2871POPC   GL138173   1.958   2.503   9.084
 2871POPC   GL238174   1.584   2.593   9.097
 2871POPC   C1A38175   2.249   2.606   8.734
 2871POPC   D2A38176   2.285   2.914   8.414
 2871POPC   C3A38177   2.172   2.782   8.026
 2871POPC   C4A38178   2.035   2.781   7.624
 2871POPC   C1B38179   1.754   2.717   8.691
 2871POPC   C2B38180   1.905   2.462   8.352
 2871POPC   C3B38181   1.747   2.492   7.935
 2871POPC   C4B38182   1.553   2.871   7.682
 2872POPC   NC338183  16.251   7.548   9.456
 2872POPC   PO438184  15.606   7.757   9.444
 2872POPC   GL138185  15.732   7.564   9.061
 2872POPC   GL238186  16.001   7.279   9.067
 2872POPC   C1A38187  15.635   7.788   8.666
 2872POPC   D2A38188  15.660   7.735   8.226
 2872POPC   C3A38189  16.026   7.565   8.160
 2872POPC   C4A38190  16.194   7.398   7.841
 2872POPC   C1B38191  16.130   7.266   8.610
 2872POPC   C2B38192  16.010   7.046   8.199
 2872POPC   C3B38193  15.698   7.209   7.914
 2872POPC   C4B38194  15.687   7.617   7.714
 2873POPC   NC338195  10.954  12.139   9.338
 2873POPC   PO438196  10.286  11.973   9.637
 2873POPC   GL138197  10.429  12.141   9.242
 2873POPC   GL238198  10.262  12.444   9.201
 2873POPC   C1A38199  10.562  11.997   8.815
 2873POPC   D2A38200  10.336  11.875   8.446
 2873POPC   C3A38201  10.626  11.930   8.129
 2873POPC   C4A38202  10.597  12.088   7.743
 2873POPC   C1B38203  10.410  12.510   8.788
 2873POPC   C2B38204  10.578  12.368   8.408
 2873POPC   C3B38205  10.695  12.507   7.999
 2873POPC   C4B38206  10.409  12.535   7.624
 2874POPC   NC338207  21.716  29.402   9.465
 2874POPC   PO438208  22.364  29.770   9.483
 2874POPC   GL138209  22.243  29.637   9.098
 2874POPC   GL238210  21.912  29.787   9.118
 2874POPC   C1A38211  22.339  29.799   8.702
 2874POPC   D2A38212  22.612  29.979   8.394
 2874POPC   C3A38213  22.500  29.758   8.039
 2874POPC   C4A38214  22.106  29.636   7.834
 2874POPC   C1B38215  21.830  29.608   8.717
 2874POPC   C2B38216  21.862  29.696   8.295
 2874POPC   C3B38217  21.971  30.061   8.090
 2874POPC   C4B38218  21.964  30.117   7.654
 2875POPC   NC338219  11.092  29.515   9.650
 2875POPC   PO438220  11.645  30.033   9.599
 2875POPC   GL138221  11.394  29.860   9.209
 2875POPC   GL238222  11.086  29.985   9.059
 2875POPC   C1A38223  11.428  29.870   8.718
 2875POPC   D2A38224  11.387  29.609   8.322
 2875POPC   C3A38225  11.123  29.854   8.070
 2875POPC   C4A38226  11.343  30.236   7.988
 2875POPC   C1B38227  10.841  30.079   8.747
 2875POPC   C2B38228  10.863  30.219   8.361
 2875POPC   C3B38229  10.700  30.129   7.967
 2875POPC   C4B38230  10.995  30.151   7.619
 2876POPC   NC338231   1.774  13.502   9.438
 2876POPC   PO438232   2.299  13.940   9.522
 2876POPC   GL138233   2.178  13.685   9.168
 2876POPC   GL238234   1.863  13.852   9.073
 2876POPC   C1A38235   2.239  13.409   8.811
 2876POPC   D2A38236   2.336  13.575   8.405
 2876POPC   C3A38237   2.081  13.663   8.062
 2876POPC   C4A38238   2.197  13.522   7.667
 2876POPC   C1B38239   1.862  13.716   8.651
 2876POPC   C2B38240   1.617  13.706   8.277
 2876POPC   C3B38241   1.630  13.968   7.919
 2876POPC   C4B38242   1.801  13.861   7.529
 2877POPC   NC338243  31.854  31.891   9.383
 2877POPC   PO438244  32.438  32.260   9.474
 2877POPC   GL138245  32.252  32.176   9.145
 2877POPC   GL238246  31.936  32.299   9.067
 2877POPC   C1A38247  32.382  32.307   8.780
 2877POPC   D2A38248  32.402  32.130   8.419
 2877POPC   C3A38249  32.133  32.179   8.080
 2877POPC   C4A38250  32.350  32.193   7.693
 2877POPC   C1B38251  32.057  31.923   8.746
 2877POPC   C2B38252  32.120  31.709   8.339
 2877POPC   C3B38253  31.856  31.728   7.941
 2877POPC   C4B38254  31.938  31.951   7.542
 2878POPC   NC338255  43.439  29.124   9.537
 2878POPC   PO438256  42.801  28.942   9.568
 2878POPC   GL138257  42.964  29.144   9.181
 2878POPC   GL238258  43.314  29.283   9.077
 2878POPC   C1A38259  42.913  29.339   8.764
 2878POPC   D2A38260  43.074  29.449   8.356
 2878POPC   C3A38261  42.866  29.312   7.960
 2878POPC   C4A38262  43.151  29.251   7.606
 2878POPC   C1B38263  43.239  28.929   8.806
 2878POPC   C2B38264  43.056  28.903   8.420
 2878POPC   C3B38265  43.178  28.907   7.995
 2878POPC   C4B38266  43.159  28.700   7.595
 2879POPC   NC338267   5.497  12.222   9.513
 2879POPC   PO438268   4.794  12.045   9.558
 2879POPC   GL138269   5.060  12.062   9.175
 2879POPC   GL238270   5.248  12.372   9.092
 2879POPC   C1A38271   4.980  12.131   8.723
 2879POPC   D2A38272   5.158  12.003   8.344
 2879POPC   C3A38273   4.913  12.083   7.996
 2879POPC   C4A38274   5.109  12.025   7.602
 2879POPC   C1B38275   5.355  12.569   8.702
 2879POPC   C2B38276   5.126  12.539   8.302
 2879POPC   C3B38277   5.145  12.507   7.845
 2879POPC   C4B38278   5.341  12.453   7.409
 2880POPC   NC338279   6.098  17.356   9.535
 2880POPC   PO438280   5.443  17.680   9.499
 2880POPC   GL138281   5.767  17.616   9.228
 2880POPC   GL238282   5.643  17.316   9.106
 2880POPC   C1A38283   5.846  17.655   8.779
 2880POPC   D2A38284   5.608  17.801   8.420
 2880POPC   C3A38285   5.718  17.528   8.066
 2880POPC   C4A38286   6.075  17.545   7.803
 2880POPC   C1B38287   6.062  17.200   8.904
 2880POPC   C2B38288   6.359  17.008   8.625
 2880POPC   C3B38289   6.469  16.928   8.175
 2880POPC   C4B38290   6.149  17.011   7.857
 2881POPC   NC338291  22.324  26.123   9.490
 2881POPC   PO438292  21.592  25.978   9.573
 2881POPC   GL138293  21.855  26.047   9.240
 2881POPC   GL238294  22.016  25.725   9.205
 2881POPC   C1A38295  21.967  26.109   8.799
 2881POPC   D2A38296  21.970  25.942   8.368
 2881POPC   C3A38297  22.288  26.137   8.089
 2881POPC   C4A38298  22.283  26.313   7.688
 2881POPC   C1B38299  21.879  25.550   8.814
 2881POPC   C2B38300  21.848  25.374   8.402
 2881POPC   C3B38301  22.024  25.502   7.999
 2881POPC   C4B38302  21.994  25.881   7.743
 2882POPC   NC338303   8.037  36.706   9.662
 2882POPC   PO438304   8.563  36.535   9.449
 2882POPC   GL138305   8.229  36.761   9.149
 2882POPC   GL238306   7.894  36.650   9.067
 2882POPC   C1A38307   8.217  36.940   8.730
 2882POPC   D2A38308   8.407  37.231   8.413
 2882POPC   C3A38309   8.349  37.170   7.962
 2882POPC   C4A38310   8.415  36.850   7.632
 2882POPC   C1B38311   7.702  36.959   8.692
 2882POPC   C2B38312   7.899  37.035   8.323
 2882POPC   C3B38313   8.088  36.740   8.057
 2882POPC   C4B38314   7.941  36.967   7.724
 2883POPC   NC338315  23.237  35.520   9.376
 2883POPC   PO438316  22.933  35.107   9.808
 2883POPC   GL138317  22.887  35.185   9.284
 2883POPC   GL238318  22.555  35.230   9.172
 2883POPC   C1A38319  23.103  35.262   8.799
 2883POPC   D2A38320  22.974  35.515   8.421
 2883POPC   C3A38321  23.163  35.414   8.026
 2883POPC   C4A38322  23.198  35.050   7.763
 2883POPC   C1B38323  22.638  35.427   8.808
 2883POPC   C2B38324  22.591  35.138   8.479
 2883POPC   C3B38325  22.671  35.254   8.084
 2883POPC   C4B38326  22.700  35.103   7.719
 2884POPC   NC338327   8.887  44.690   9.858
 2884POPC   PO438328   9.392  44.513   9.430
 2884POPC   GL138329   9.217  44.769   9.077
 2884POPC   GL238330   8.827  44.779   9.045
 2884POPC   C1A38331   9.126  44.694   8.626
 2884POPC   D2A38332   8.964  44.396   8.304
 2884POPC   C3A38333   9.129  44.493   7.901
 2884POPC   C4A38334   9.264  44.935   7.772
 2884POPC   C1B38335   8.653  44.472   8.710
 2884POPC   C2B38336   8.441  44.423   8.280
 2884POPC   C3B38337   8.605  44.601   7.869
 2884POPC   C4B38338   8.888  44.697   7.494
 2885POPC   NC338339   0.044  20.398   9.479
 2885POPC   PO438340  44.493  20.731   9.725
 2885POPC   GL138341  44.550  20.720   9.253
 2885POPC   GL238342  44.736  20.459   9.107
 2885POPC   C1A38343  44.417  20.656   8.792
 2885POPC   D2A38344  44.315  20.442   8.406
 2885POPC   C3A38345  44.363  20.591   8.016
 2885POPC   C4A38346  44.441  20.511   7.600
 2885POPC   C1B38347  44.938  20.568   8.716
 2885POPC   C2B38348  44.825  20.401   8.304
 2885POPC   C3B38349   0.004  20.472   7.916
 2885POPC   C4B38350   0.256  20.850   7.813
 2886POPC   NC338351  29.550   3.832   9.827
 2886POPC   PO438352  29.705   3.325   9.388
 2886POPC   GL138353  29.985   3.411   9.017
 2886POPC   GL238354  29.897   3.723   8.846
 2886POPC   C1A38355  30.347   3.542   8.747
 2886POPC   D2A38356  30.301   3.671   8.344
 2886POPC   C3A38357  30.129   3.523   8.012
 2886POPC   C4A38358  30.227   3.706   7.665
 2886POPC   C1B38359  29.591   3.400   8.693
 2886POPC   C2B38360  29.579   3.177   8.306
 2886POPC   C3B38361  29.627   3.415   7.987
 2886POPC   C4B38362  29.732   3.547   7.603
 2887POPC   NC338363  21.826  41.594   9.421
 2887POPC   PO438364  22.560  41.625   9.658
 2887POPC   GL138365  22.316  41.559   9.259
 2887POPC   GL238366  22.110  41.724   9.046
 2887POPC   C1A38367  22.371  41.320   8.858
 2887POPC   D2A38368  22.488  41.440   8.431
 2887POPC   C3A38369  22.356  41.320   7.988
 2887POPC   C4A38370  22.294  41.551   7.561
 2887POPC   C1B38371  21.927  41.637   8.683
 2887POPC   C2B38372  22.099  41.802   8.315
 2887POPC   C3B38373  22.022  41.865   7.896
 2887POPC   C4B38374  21.805  41.532   7.701
 2888POPC   NC338375  34.783   1.044   9.526
 2888POPC   PO438376  34.318   1.458   9.478
 2888POPC   GL138377  34.538   1.306   9.122
 2888POPC   GL238378  34.425   0.978   9.141
 2888POPC   C1A38379  34.466   1.204   8.660
 2888POPC   D2A38380  34.739   1.200   8.276
 2888POPC   C3A38381  34.564   1.336   7.893
 2888POPC   C4A38382  34.673   1.348   7.430
 2888POPC   C1B38383  34.777   0.848   8.869
 2888POPC   C2B38384  34.644   0.732   8.455
 2888POPC   C3B38385  34.438   0.861   8.048
 2888POPC   C4B38386  34.811   0.924   7.784
 2889POPC   NC338387  19.697  24.746   9.430
 2889POPC   PO438388  19.856  24.137   9.576
 2889POPC   GL138389  19.988  24.326   9.202
 2889POPC   GL238390  20.130  24.653   9.142
 2889POPC   C1A38391  19.836  24.173   8.849
 2889POPC   D2A38392  19.855  24.311   8.463
 2889POPC   C3A38393  19.490  24.312   8.259
 2889POPC   C4A38394  19.445  24.388   7.857
 2889POPC   C1B38395  19.873  24.723   8.788
 2889POPC   C2B38396  19.928  24.819   8.362
 2889POPC   C3B38397  19.794  24.779   7.954
 2889POPC   C4B38398  20.063  24.918   7.625
 2890POPC   NC338399  20.697  15.555   9.475
 2890POPC   PO438400  20.445  14.917   9.464
 2890POPC   GL138401  20.735  15.098   9.192
 2890POPC   GL238402  20.789  14.850   8.915
 2890POPC   C1A38403  20.555  15.309   8.852
 2890POPC   D2A38404  20.335  15.121   8.519
 2890POPC   C3A38405  20.477  15.301   8.137
 2890POPC   C4A38406  20.547  15.415   7.727
 2890POPC   C1B38407  21.032  15.174   8.724
 2890POPC   C2B38408  20.994  15.337   8.307
 2890POPC   C3B38409  20.913  15.098   7.910
 2890POPC   C4B38410  20.801  15.060   7.458
 2891POPC   NC338411  42.041  12.571   9.462
 2891POPC   PO438412  42.514  13.140   9.540
 2891POPC   GL138413  42.501  12.982   9.189
 2891POPC   GL238414  42.512  12.638   9.269
 2891POPC   C1A38415  42.342  12.915   8.831
 2891POPC   D2A38416  42.162  12.843   8.494
 2891POPC   C3A38417  42.354  12.851   8.129
 2891POPC   C4A38418  42.271  13.008   7.747
 2891POPC   C1B38419  42.544  12.461   8.859
 2891POPC   C2B38420  42.691  12.632   8.502
 2891POPC   C3B38421  42.704  12.471   8.100
 2891POPC   C4B38422  42.506  12.553   7.706
 2892POPC   NC338423  26.989  21.804   9.805
 2892POPC   PO438424  26.696  21.223   9.873
 2892POPC   GL138425  26.684  21.361   9.399
 2892POPC   GL238426  26.614  21.080   9.196
 2892POPC   C1A38427  26.815  21.462   8.926
 2892POPC   D2A38428  26.714  21.452   8.443
 2892POPC   C3A38429  26.815  21.622   8.015
 2892POPC   C4A38430  26.684  21.483   7.591
 2892POPC   C1B38431  26.727  20.975   8.740
 2892POPC   C2B38432  26.917  20.951   8.346
 2892POPC   C3B38433  26.862  21.106   7.938
 2892POPC   C4B38434  27.009  20.982   7.555
 2893POPC   NC338435  40.198  39.684   9.618
 2893POPC   PO438436  39.911  40.387   9.467
 2893POPC   GL138437  40.123  40.171   9.175
 2893POPC   GL238438  40.091  39.842   9.169
 2893POPC   C1A38439  39.893  40.051   8.770
 2893POPC   D2A38440  39.954  39.872   8.392
 2893POPC   C3A38441  39.799  40.071   8.060
 2893POPC   C4A38442  39.961  39.969   7.677
 2893POPC   C1B38443  40.368  39.802   8.855
 2893POPC   C2B38444  40.373  39.598   8.427
 2893POPC   C3B38445  40.325  39.786   8.008
 2893POPC   C4B38446  40.314  39.582   7.576
 2894POPC   NC338447  33.461   0.183   9.498
 2894POPC   PO438448  32.819   0.495   9.554
 2894POPC   GL138449  33.082   0.482   9.223
 2894POPC   GL238450  33.062   0.125   9.145
 2894POPC   C1A38451  32.942   0.492   8.809
 2894POPC   D2A38452  32.947   0.140   8.551
 2894POPC   C3A38453  32.869   0.231   8.115
 2894POPC   C4A38454  33.049   0.485   7.795
 2894POPC   C1B38455  33.395   0.244   8.822
 2894POPC   C2B38456  33.371   0.346   8.365
 2894POPC   C3B38457  33.351   0.076   7.987
 2894POPC   C4B38458  33.335   0.164   7.531
 2895POPC   NC338459  21.995   6.133   9.579
 2895POPC   PO438460  22.431   5.623   9.610
 2895POPC   GL138461  22.273   5.770   9.246
 2895POPC   GL238462  22.489   6.044   9.287
 2895POPC   C1A38463  22.237   5.622   8.829
 2895POPC   D2A38464  22.190   5.853   8.447
 2895POPC   C3A38465  22.166   5.627   8.060
 2895POPC   C4A38466  21.858   5.765   7.767
 2895POPC   C1B38467  22.366   6.125   8.863
 2895POPC   C2B38468  22.543   6.237   8.441
 2895POPC   C3B38469  22.346   6.135   8.030
 2895POPC   C4B38470  22.349   5.881   7.663
 2896POPC   NC338471   4.067   8.875   9.696
 2896POPC   PO438472   4.703   8.613   9.579
 2896POPC   GL138473   4.390   8.821   9.271
 2896POPC   GL238474   3.982   8.746   9.220
 2896POPC   C1A38475   4.447   9.034   8.876
 2896POPC   D2A38476   4.446   9.204   8.463
 2896POPC   C3A38477   4.532   8.975   8.104
 2896POPC   C4A38478   4.434   8.872   7.686
 2896POPC   C1B38479   3.977   8.863   8.810
 2896POPC   C2B38480   4.141   8.764   8.421
 2896POPC   C3B38481   4.026   8.866   8.009
 2896POPC   C4B38482   4.138   9.265   7.855
 2897POPC   NC338483  34.890  44.415   9.494
 2897POPC   PO438484  35.421  44.815   9.579
 2897POPC   GL138485  35.280  44.674   9.211
 2897POPC   GL238486  34.985  44.868   9.264
 2897POPC   C1A38487  35.422  44.511   8.794
 2897POPC   D2A38488  35.434  44.316   8.373
 2897POPC   C3A38489  35.437  44.583   8.007
 2897POPC   C4A38490  35.410  44.452   7.605
 2897POPC   C1B38491  35.097  44.926   8.808
 2897POPC   C2B38492  35.212  44.851   8.379
 2897POPC   C3B38493  35.095   0.043   7.955
 2897POPC   C4B38494  35.285  44.928   7.529
 2898POPC   NC338495   6.690  13.296   9.472
 2898POPC   PO438496   6.335  13.887   9.501
 2898POPC   GL138497   6.428  13.610   9.147
 2898POPC   GL238498   6.805  13.566   9.044
 2898POPC   C1A38499   6.439  13.588   8.698
 2898POPC   D2A38500   6.786  13.557   8.436
 2898POPC   C3A38501   6.765  13.749   8.037
 2898POPC   C4A38502   6.596  13.532   7.721
 2898POPC   C1B38503   7.011  13.235   8.786
 2898POPC   C2B38504   7.151  13.170   8.396
 2898POPC   C3B38505   6.965  13.256   8.020
 2898POPC   C4B38506   7.069  13.346   7.597
 2899POPC   NC338507  18.974  13.283   9.589
 2899POPC   PO438508  18.862  13.885   9.433
 2899POPC   GL138509  18.912  13.565   9.137
 2899POPC   GL238510  19.185  13.366   9.126
 2899POPC   C1A38511  18.771  13.639   8.739
 2899POPC   D2A38512  18.650  13.786   8.346
 2899POPC   C3A38513  18.799  13.577   8.002
 2899POPC   C4A38514  19.068  13.617   7.663
 2899POPC   C1B38515  19.289  13.575   8.771
 2899POPC   C2B38516  19.125  13.483   8.397
 2899POPC   C3B38517  19.333  13.614   8.078
 2899POPC   C4B38518  19.520  13.365   7.777
 2900POPC   NC338519   5.479  31.590   9.833
 2900POPC   PO438520   4.922  31.430   9.534
 2900POPC   GL138521   4.828  31.328   9.129
 2900POPC   GL238522   4.617  31.027   9.117
 2900POPC   C1A38523   4.948  31.487   8.731
 2900POPC   D2A38524   4.794  31.708   8.368
 2900POPC   C3A38525   5.086  31.742   8.062
 2900POPC   C4A38526   5.205  31.455   7.763
 2900POPC   C1B38527   4.906  30.954   8.798
 2900POPC   C2B38528   5.171  31.098   8.471
 2900POPC   C3B38529   4.938  31.237   8.133
 2900POPC   C4B38530   4.739  31.236   7.729
 2901POPC   NC338531   5.202  41.176   9.297
 2901POPC   PO438532   5.207  41.764   9.444
 2901POPC   GL138533   5.045  41.699   9.045
 2901POPC   GL238534   5.345  41.591   8.954
 2901POPC   C1A38535   4.926  41.493   8.678
 2901POPC   D2A38536   4.956  41.662   8.296
 2901POPC   C3A38537   4.803  41.327   8.095
 2901POPC   C4A38538   4.811  41.188   7.717
 2901POPC   C1B38539   5.424  41.529   8.522
 2901POPC   C2B38540   5.311  41.200   8.245
 2901POPC   C3B38541   5.332  41.252   7.825
 2901POPC   C4B38542   5.130  41.612   7.807
 2902POPC   NC338543  23.712  25.750   9.481
 2902POPC   PO438544  23.998  25.160   9.423
 2902POPC   GL138545  23.913  25.043   9.049
 2902POPC   GL238546  23.753  25.392   9.027
 2902POPC   C1A38547  23.637  25.023   8.693
 2902POPC   D2A38548  23.568  25.289   8.320
 2902POPC   C3A38549  23.757  25.106   7.974
 2902POPC   C4A38550  23.662  24.767   7.754
 2902POPC   C1B38551  23.424  25.668   8.871
 2902POPC   C2B38552  23.229  25.693   8.484
 2902POPC   C3B38553  23.303  25.801   8.058
 2902POPC   C4B38554  23.498  25.524   7.799
 2903POPC   NC338555   3.219  22.373   9.554
 2903POPC   PO438556   2.658  22.055   9.629
 2903POPC   GL138557   2.771  22.262   9.194
 2903POPC   GL238558   3.087  22.440   9.087
 2903POPC   C1A38559   2.912  22.087   8.780
 2903POPC   D2A38560   3.095  22.127   8.375
 2903POPC   C3A38561   2.767  22.136   8.077
 2903POPC   C4A38562   2.576  21.837   7.809
 2903POPC   C1B38563   2.952  22.599   8.729
 2903POPC   C2B38564   2.752  22.535   8.391
 2903POPC   C3B38565   2.850  22.641   8.002
 2903POPC   C4B38566   2.757  22.501   7.627
 2904POPC   NC338567  31.905   8.326   9.351
 2904POPC   PO438568  31.245   8.346   9.449
 2904POPC   GL138569  31.417   8.204   9.088
 2904POPC   GL238570  31.702   8.275   8.893
 2904POPC   C1A38571  31.222   8.179   8.719
 2904POPC   D2A38572  31.453   8.344   8.409
 2904POPC   C3A38573  31.337   8.170   8.033
 2904POPC   C4A38574  31.379   8.360   7.626
 2904POPC   C1B38575  31.643   7.923   8.617
 2904POPC   C2B38576  31.788   7.988   8.242
 2904POPC   C3B38577  31.827   8.189   7.880
 2904POPC   C4B38578  31.684   7.969   7.549
 2905POPC   NC338579   5.631  44.444   9.464
 2905POPC   PO438580   6.007  44.998   9.621
 2905POPC   GL138581   5.877  44.838   9.211
 2905POPC   GL238582   6.073  44.526   9.116
 2905POPC   C1A38583   5.905  44.880   8.754
 2905POPC   D2A38584   6.061  44.553   8.451
 2905POPC   C3A38585   5.926  44.647   8.053
 2905POPC   C4A38586   6.082  44.819   7.698
 2905POPC   C1B38587   5.719  44.426   8.813
 2905POPC   C2B38588   5.536  44.473   8.383
 2905POPC   C3B38589   5.607  44.253   8.009
 2905POPC   C4B38590   5.832  44.394   7.608
 2906POPC   NC338591  40.101  22.732   9.463
 2906POPC   PO438592  39.633  23.180   9.490
 2906POPC   GL138593  39.951  23.141   9.169
 2906POPC   GL238594  40.299  23.257   9.306
 2906POPC   C1A38595  40.006  22.812   8.821
 2906POPC   D2A38596  39.975  22.591   8.428
 2906POPC   C3A38597  40.003  22.803   8.036
 2906POPC   C4A38598  40.207  22.782   7.651
 2906POPC   C1B38599  40.302  23.249   8.833
 2906POPC   C2B38600  40.093  23.148   8.435
 2906POPC   C3B38601  40.145  23.300   8.038
 2906POPC   C4B38602  40.499  23.129   7.862
 2907POPC   NC338603  18.358   2.593   9.397
 2907POPC   PO438604  17.724   2.750   9.551
 2907POPC   GL138605  18.024   2.989   9.266
 2907POPC   GL238606  17.931   2.839   8.989
 2907POPC   C1A38607  18.399   3.022   8.926
 2907POPC   D2A38608  18.558   2.989   8.501
 2907POPC   C3A38609  18.369   3.149   8.145
 2907POPC   C4A38610  18.310   2.904   7.800
 2907POPC   C1B38611  18.020   2.946   8.580
 2907POPC   C2B38612  18.144   2.699   8.266
 2907POPC   C3B38613  18.210   2.392   7.964
 2907POPC   C4B38614  18.218   2.461   7.552
 2908POPC   NC338615  24.913  10.793   9.527
 2908POPC   PO438616  24.438  10.452   9.592
 2908POPC   GL138617  24.715  10.430   9.232
 2908POPC   GL238618  24.849  10.129   9.098
 2908POPC   C1A38619  24.773  10.578   8.836
 2908POPC   D2A38620  24.731  10.382   8.434
 2908POPC   C3A38621  24.482  10.668   8.141
 2908POPC   C4A38622  24.373  10.900   7.754
 2908POPC   C1B38623  24.451  10.158   8.855
 2908POPC   C2B38624  24.233  10.274   8.438
 2908POPC   C3B38625  24.453  10.169   8.035
 2908POPC   C4B38626  24.532  10.229   7.596
 2909POPC   NC338627  25.493  11.770   9.542
 2909POPC   PO438628  25.170  11.166   9.477
 2909POPC   GL138629  25.344  11.334   9.139
 2909POPC   GL238630  25.682  11.397   9.230
 2909POPC   C1A38631  25.285  11.181   8.732
 2909POPC   D2A38632  25.462  11.112   8.361
 2909POPC   C3A38633  25.170  11.060   8.051
 2909POPC   C4A38634  24.892  11.324   7.837
 2909POPC   C1B38635  25.722  11.444   8.794
 2909POPC   C2B38636  25.711  11.562   8.355
 2909POPC   C3B38637  25.573  11.433   7.922
 2909POPC   C4B38638  25.563  11.542   7.425
 2910POPC   NC338639   0.226  44.273   9.580
 2910POPC   PO438640   0.559  44.881   9.609
 2910POPC   GL138641   0.533  44.816   9.194
 2910POPC   GL238642   0.449  44.499   9.196
 2910POPC   C1A38643   0.391  44.850   8.765
 2910POPC   D2A38644   0.575  44.804   8.389
 2910POPC   C3A38645   0.373  44.890   7.990
 2910POPC   C4A38646   0.319  44.838   7.550
 2910POPC   C1B38647   0.538  44.356   8.806
 2910POPC   C2B38648   0.368  44.323   8.432
 2910POPC   C3B38649   0.550  44.411   8.057
 2910POPC   C4B38650   0.424  44.368   7.689
 2911POPC   NC338651  33.974  30.095   9.352
 2911POPC   PO438652  33.400  29.846   9.359
 2911POPC   GL138653  33.682  29.777   9.037
 2911POPC   GL238654  33.992  29.610   9.181
 2911POPC   C1A38655  33.781  30.077   8.678
 2911POPC   D2A38656  34.054  30.138   8.314
 2911POPC   C3A38657  33.885  30.257   7.924
 2911POPC   C4A38658  34.112  30.192   7.555
 2911POPC   C1B38659  34.093  29.659   8.746
 2911POPC   C2B38660  33.912  29.646   8.321
 2911POPC   C3B38661  33.816  29.764   7.887
 2911POPC   C4B38662  33.458  29.668   7.671
 2912POPC   NC338663  28.094   5.623   9.358
 2912POPC   PO438664  28.620   5.888   9.734
 2912POPC   GL138665  28.529   5.890   9.289
 2912POPC   GL238666  28.536   6.197   9.147
 2912POPC   C1A38667  28.529   5.744   8.835
 2912POPC   D2A38668  28.480   5.917   8.417
 2912POPC   C3A38669  28.435   5.634   8.084
 2912POPC   C4A38670  28.118   5.735   7.766
 2912POPC   C1B38671  28.268   6.180   8.804
 2912POPC   C2B38672  28.154   6.317   8.432
 2912POPC   C3B38673  28.004   6.138   8.084
 2912POPC   C4B38674  28.098   6.235   7.685
 2913POPC   NC338675  18.565  37.841   9.489
 2913POPC   PO438676  18.267  37.303   9.441
 2913POPC   GL138677  18.360  37.578   9.077
 2913POPC   GL238678  18.489  37.966   9.008
 2913POPC   C1A38679  18.119  37.636   8.696
 2913POPC   D2A38680  18.073  37.786   8.305
 2913POPC   C3A38681  18.051  37.572   7.949
 2913POPC   C4A38682  17.997  37.815   7.610
 2913POPC   C1B38683  18.637  37.722   8.674
 2913POPC   C2B38684  18.577  37.550   8.285
 2913POPC   C3B38685  18.518  37.762   7.915
 2913POPC   C4B38686  18.831  37.861   7.653
 2914POPC   NC338687  22.536  44.388   9.868
 2914POPC   PO438688  21.952  44.496   9.530
 2914POPC   GL138689  22.087  44.673   9.129
 2914POPC   GL238690  21.795  44.876   9.101
 2914POPC   C1A38691  22.095  44.566   8.727
 2914POPC   D2A38692  22.216  44.342   8.358
 2914POPC   C3A38693  22.339  44.588   8.023
 2914POPC   C4A38694  22.072  44.500   7.673
 2914POPC   C1B38695  21.955   0.126   8.787
 2914POPC   C2B38696  22.078  44.966   8.388
 2914POPC   C3B38697  21.955  44.916   7.972
 2914POPC   C4B38698  21.957   0.045   7.577
 2915POPC   NC338699  28.867  43.801   9.549
 2915POPC   PO438700  29.535  43.682   9.714
 2915POPC   GL138701  29.450  43.913   9.266
 2915POPC   GL238702  29.163  44.115   9.243
 2915POPC   C1A38703  29.359  43.843   8.815
 2915POPC   D2A38704  29.291  44.006   8.390
 2915POPC   C3A38705  29.174  43.784   7.979
 2915POPC   C4A38706  29.443  43.773   7.606
 2915POPC   C1B38707  28.962  44.135   8.828
 2915POPC   C2B38708  28.789  44.117   8.400
 2915POPC   C3B38709  28.961  44.258   8.014
 2915POPC   C4B38710  29.102  44.159   7.590
 2916POPC   NC338711  43.002  26.419   9.434
 2916POPC   PO438712  43.395  25.850   9.393
 2916POPC   GL138713  43.053  26.008   9.142
 2916POPC   GL238714  43.179  26.304   8.973
 2916POPC   C1A38715  42.824  26.021   8.767
 2916POPC   D2A38716  42.965  25.844   8.380
 2916POPC   C3A38717  43.307  25.901   8.112
 2916POPC   C4A38718  42.998  25.890   7.823
 2916POPC   C1B38719  43.364  26.093   8.626
 2916POPC   C2B38720  43.442  26.375   8.269
 2916POPC   C3B38721  43.451  26.350   7.827
 2916POPC   C4B38722  43.519  26.478   7.378
 2917POPC   NC338723   2.536  38.714   9.471
 2917POPC   PO438724   2.925  38.145   9.368
 2917POPC   GL138725   2.656  38.382   9.118
 2917POPC   GL238726   2.917  38.642   9.118
 2917POPC   C1A38727   2.516  38.710   8.809
 2917POPC   D2A38728   2.520  38.507   8.429
 2917POPC   C3A38729   2.707  38.648   8.085
 2917POPC   C4A38730   2.603  38.382   7.762
 2917POPC   C1B38731   2.954  38.431   8.706
 2917POPC   C2B38732   3.156  38.455   8.308
 2917POPC   C3B38733   3.073  38.310   7.898
 2917POPC   C4B38734   3.010  38.397   7.440
 2918POPC   NC338735  34.732  32.172   9.394
 2918POPC   PO438736  34.298  32.642   9.473
 2918POPC   GL138737  34.352  32.349   9.083
 2918POPC   GL238738  34.342  31.962   9.105
 2918POPC   C1A38739  34.633  32.211   8.722
 2918POPC   D2A38740  34.937  32.283   8.395
 2918POPC   C3A38741  34.792  32.334   7.988
 2918POPC   C4A38742  34.372  32.314   7.809
 2918POPC   C1B38743  34.156  32.032   8.696
 2918POPC   C2B38744  34.326  32.109   8.285
 2918POPC   C3B38745  34.293  31.837   7.917
 2918POPC   C4B38746  34.279  31.860   7.452
 2919POPC   NC338747  20.880   8.785   9.532
 2919POPC   PO438748  20.318   8.984   9.442
 2919POPC   GL138749  20.521   8.753   9.163
 2919POPC   GL238750  20.767   8.984   9.067
 2919POPC   C1A38751  20.576   8.630   8.768
 2919POPC   D2A38752  20.404   8.773   8.402
 2919POPC   C3A38753  20.549   8.536   8.101
 2919POPC   C4A38754  20.605   8.612   7.694
 2919POPC   C1B38755  20.738   9.113   8.595
 2919POPC   C2B38756  20.697   9.048   8.111
 2919POPC   C3B38757  20.934   9.168   7.749
 2919POPC   C4B38758  20.871   9.606   7.584
 2920POPC   NC338759  11.043   3.478   9.413
 2920POPC   PO438760  11.230   4.131   9.323
 2920POPC   GL138761  11.108   3.811   9.046
 2920POPC   GL238762  11.420   3.634   9.090
 2920POPC   C1A38763  11.114   3.453   8.734
 2920POPC   D2A38764  10.919   3.331   8.376
 2920POPC   C3A38765  11.138   3.411   8.056
 2920POPC   C4A38766  11.202   3.444   7.665
 2920POPC   C1B38767  11.461   3.837   8.671
 2920POPC   C2B38768  11.541   3.678   8.237
 2920POPC   C3B38769  11.647   3.696   7.773
 2920POPC   C4B38770  11.668   3.931   7.339
 2921POPC   NC338771  34.224   5.018   9.422
 2921POPC   PO438772  34.708   5.301   9.758
 2921POPC   GL138773  34.746   5.242   9.263
 2921POPC   GL238774  34.789   4.881   9.140
 2921POPC   C1A38775  34.598   5.240   8.807
 2921POPC   D2A38776  34.425   5.119   8.389
 2921POPC   C3A38777  34.660   5.334   8.016
 2921POPC   C4A38778  34.695   5.320   7.560
 2921POPC   C1B38779  35.023   4.994   8.760
 2921POPC   C2B38780  34.928   5.069   8.357
 2921POPC   C3B38781  34.856   4.857   7.967
 2921POPC   C4B38782  35.059   4.897   7.607
 2922POPC   NC338783  20.053  12.324   9.418
 2922POPC   PO438784  20.138  11.734   9.488
 2922POPC   GL138785  19.779  11.740   9.169
 2922POPC   GL238786  19.599  12.068   9.103
 2922POPC   C1A38787  19.824  11.873   8.720
 2922POPC   D2A38788  19.894  12.162   8.394
 2922POPC   C3A38789  19.971  11.972   8.022
 2922POPC   C4A38790  19.717  11.915   7.713
 2922POPC   C1B38791  19.659  12.440   8.781
 2922POPC   C2B38792  19.527  12.511   8.334
 2922POPC   C3B38793  19.744  12.440   7.906
 2922POPC   C4B38794  20.199  12.499   7.814
 2923POPC   NC338795   3.160   5.710   9.555
 2923POPC   PO438796   2.419   6.023   9.538
 2923POPC   GL138797   2.713   6.048   9.210
 2923POPC   GL238798   2.836   5.720   9.176
 2923POPC   C1A38799   2.805   6.038   8.778
 2923POPC   D2A38800   2.561   5.911   8.459
 2923POPC   C3A38801   2.745   6.041   8.077
 2923POPC   C4A38802   2.599   5.983   7.684
 2923POPC   C1B38803   2.544   5.576   8.866
 2923POPC   C2B38804   2.534   5.400   8.447
 2923POPC   C3B38805   2.597   5.559   8.065
 2923POPC   C4B38806   2.519   5.437   7.681
 2924POPC   NC338807  31.489  29.593   9.469
 2924POPC   PO438808  31.276  30.268   9.506
 2924POPC   GL138809  31.307  30.019   9.141
 2924POPC   GL238810  31.647  29.985   9.144
 2924POPC   C1A38811  31.214  30.027   8.689
 2924POPC   D2A38812  31.269  29.896   8.270
 2924POPC   C3A38813  31.643  30.008   8.110
 2924POPC   C4A38814  31.711  29.897   7.672
 2924POPC   C1B38815  31.833  29.831   8.777
 2924POPC   C2B38816  31.651  29.573   8.436
 2924POPC   C3B38817  31.577  29.491   7.991
 2924POPC   C4B38818  31.247  29.565   7.698
 2925POPC   NC338819  27.616  12.807   9.654
 2925POPC   PO438820  28.127  12.519   9.443
 2925POPC   GL138821  27.822  12.848   9.164
 2925POPC   GL238822  27.489  12.765   9.170
 2925POPC   C1A38823  27.730  13.078   8.765
 2925POPC   D2A38824  27.450  13.067   8.412
 2925POPC   C3A38825  27.600  13.023   7.996
 2925POPC   C4A38826  27.743  12.887   7.604
 2925POPC   C1B38827  27.246  12.922   8.858
 2925POPC   C2B38828  27.103  12.676   8.514
 2925POPC   C3B38829  27.138  12.762   8.126
 2925POPC   C4B38830  27.356  12.597   7.785
 2926POPC   NC338831  42.422   0.132   9.435
 2926POPC   PO438832  42.528  44.445   9.528
 2926POPC   GL138833  42.539  44.682   9.172
 2926POPC   GL238834  42.190  44.592   9.156
 2926POPC   C1A38835  42.442  44.729   8.740
 2926POPC   D2A38836  42.677  44.544   8.449
 2926POPC   C3A38837  42.458  44.670   8.149
 2926POPC   C4A38838  42.505  44.689   7.761
 2926POPC   C1B38839  42.014  44.425   8.774
 2926POPC   C2B38840  41.981  44.617   8.343
 2926POPC   C3B38841  42.006  44.563   7.882
 2926POPC   C4B38842  42.130  44.569   7.437
 2927POPC   NC338843  29.026  26.420   9.493
 2927POPC   PO438844  29.325  25.822   9.455
 2927POPC   GL138845  29.136  26.050   9.109
 2927POPC   GL238846  28.770  26.118   9.174
 2927POPC   C1A38847  28.985  25.914   8.709
 2927POPC   D2A38848  29.098  25.707   8.329
 2927POPC   C3A38849  29.177  25.936   7.975
 2927POPC   C4A38850  29.035  26.295   7.834
 2927POPC   C1B38851  28.630  26.289   8.790
 2927POPC   C2B38852  28.750  26.225   8.348
 2927POPC   C3B38853  28.632  25.988   8.007
 2927POPC   C4B38854  28.568  26.268   7.684
 2928POPC   NC338855  42.429  28.882   9.823
 2928POPC   PO438856  42.117  29.336   9.496
 2928POPC   GL138857  42.254  29.168   9.148
 2928POPC   GL238858  42.457  28.887   9.197
 2928POPC   C1A38859  42.406  29.258   8.759
 2928POPC   D2A38860  42.605  29.166   8.373
 2928POPC   C3A38861  42.328  29.058   8.039
 2928POPC   C4A38862  42.247  29.107   7.567
 2928POPC   C1B38863  42.664  28.828   8.782
 2928POPC   C2B38864  42.642  28.649   8.327
 2928POPC   C3B38865  42.703  28.755   7.887
 2928POPC   C4B38866  42.733  29.000   7.503
 2929POPC   NC338867  15.734  14.318   9.623
 2929POPC   PO438868  16.404  14.217   9.610
 2929POPC   GL138869  16.063  14.267   9.223
 2929POPC   GL238870  15.774  14.556   9.182
 2929POPC   C1A38871  15.867  14.252   8.779
 2929POPC   D2A38872  16.100  14.286   8.387
 2929POPC   C3A38873  15.872  14.327   7.982
 2929POPC   C4A38874  15.813  14.058   7.618
 2929POPC   C1B38875  15.456  14.666   8.858
 2929POPC   C2B38876  15.470  14.495   8.432
 2929POPC   C3B38877  15.495  14.679   8.028
 2929POPC   C4B38878  15.699  14.618   7.586
 2930POPC   NC338879  32.346  34.337   9.464
 2930POPC   PO438880  31.978  34.989   9.585
 2930POPC   GL138881  32.044  34.677   9.246
 2930POPC   GL238882  32.398  34.799   9.209
 2930POPC   C1A38883  32.164  34.427   8.855
 2930POPC   D2A38884  31.927  34.232   8.528
 2930POPC   C3A38885  32.104  34.322   8.128
 2930POPC   C4A38886  32.188  34.505   7.732
 2930POPC   C1B38887  32.590  34.726   8.805
 2930POPC   C2B38888  32.401  34.633   8.410
 2930POPC   C3B38889  32.582  34.702   8.012
 2930POPC   C4B38890  32.470  34.945   7.659
 2931POPC   NC338891   3.390  38.816   9.517
 2931POPC   PO438892   3.869  39.285   9.444
 2931POPC   GL138893   3.448  39.318   9.248
 2931POPC   GL238894   3.213  39.058   9.114
 2931POPC   C1A38895   3.386  39.385   8.794
 2931POPC   D2A38896   3.616  39.246   8.425
 2931POPC   C3A38897   3.460  39.314   8.012
 2931POPC   C4A38898   3.671  39.272   7.633
 2931POPC   C1B38899   3.273  38.848   8.724
 2931POPC   C2B38900   3.187  38.957   8.299
 2931POPC   C3B38901   3.388  38.770   7.916
 2931POPC   C4B38902   3.409  38.808   7.445
 2932POPC   NC338903   8.803  31.123   9.475
 2932POPC   PO438904   9.164  30.503   9.384
 2932POPC   GL138905   9.015  30.651   9.047
 2932POPC   GL238906   8.751  30.820   9.084
 2932POPC   C1A38907   8.932  30.601   8.625
 2932POPC   D2A38908   9.045  30.888   8.281
 2932POPC   C3A38909   8.951  30.609   8.062
 2932POPC   C4A38910   8.837  30.522   7.738
 2932POPC   C1B38911   8.549  30.921   8.714
 2932POPC   C2B38912   8.523  30.812   8.330
 2932POPC   C3B38913   8.449  30.841   7.925
 2932POPC   C4B38914   8.793  31.051   7.781
 2933POPC   NC338915  25.699   5.148   9.745
 2933POPC   PO438916  26.353   5.260   9.478
 2933POPC   GL138917  26.060   5.294   9.139
 2933POPC   GL238918  25.903   4.962   9.075
 2933POPC   C1A38919  25.936   5.314   8.682
 2933POPC   D2A38920  26.111   5.489   8.304
 2933POPC   C3A38921  26.146   5.187   7.941
 2933POPC   C4A38922  26.347   4.770   7.850
 2933POPC   C1B38923  25.581   4.890   8.758
 2933POPC   C2B38924  25.600   4.938   8.357
 2933POPC   C3B38925  25.652   5.263   8.069
 2933POPC   C4B38926  25.716   5.310   7.645
 2934POPC   NC338927  21.666  25.513   9.525
 2934POPC   PO438928  21.103  25.106   9.537
 2934POPC   GL138929  21.259  25.363   9.210
 2934POPC   GL238930  21.236  25.712   9.292
 2934POPC   C1A38931  21.398  25.360   8.778
 2934POPC   D2A38932  21.344  25.225   8.350
 2934POPC   C3A38933  21.545  25.331   7.990
 2934POPC   C4A38934  21.337  25.258   7.635
 2934POPC   C1B38935  21.026  25.720   8.901
 2934POPC   C2B38936  20.994  25.605   8.475
 2934POPC   C3B38937  21.132  25.614   8.050
 2934POPC   C4B38938  20.916  25.545   7.685
 2935POPC   NC338939   7.933  34.548   9.798
 2935POPC   PO438940   8.389  34.943   9.715
 2935POPC   GL138941   8.359  34.770   9.275
 2935POPC   GL238942   8.032  34.621   9.158
 2935POPC   C1A38943   8.434  34.703   8.817
 2935POPC   D2A38944   8.285  34.442   8.468
 2935POPC   C3A38945   8.160  34.644   8.070
 2935POPC   C4A38946   8.353  34.574   7.643
 2935POPC   C1B38947   7.776  34.370   8.845
 2935POPC   C2B38948   7.784  34.357   8.402
 2935POPC   C3B38949   7.750  34.216   8.006
 2935POPC   C4B38950   7.832  34.512   7.686
 2936POPC   NC338951  13.841  25.236   9.713
 2936POPC   PO438952  14.417  25.296   9.602
 2936POPC   GL138953  14.464  25.246   9.173
 2936POPC   GL238954  14.672  24.941   9.118
 2936POPC   C1A38955  14.267  25.427   8.796
 2936POPC   D2A38956  14.104  25.256   8.415
 2936POPC   C3A38957  14.148  25.476   8.034
 2936POPC   C4A38958  14.146  25.207   7.652
 2936POPC   C1B38959  14.665  25.132   8.687
 2936POPC   C2B38960  14.587  25.457   8.343
 2936POPC   C3B38961  14.603  25.322   7.902
 2936POPC   C4B38962  14.591  24.910   7.743
 2937POPC   NC338963  13.255  15.849   9.566
 2937POPC   PO438964  12.623  15.647   9.663
 2937POPC   GL138965  12.727  15.964   9.288
 2937POPC   GL238966  13.053  16.066   9.174
 2937POPC   C1A38967  12.690  16.047   8.825
 2937POPC   D2A38968  12.466  15.913   8.463
 2937POPC   C3A38969  12.704  15.870   8.084
 2937POPC   C4A38970  12.618  15.978   7.673
 2937POPC   C1B38971  13.209  16.149   8.802
 2937POPC   C2B38972  13.068  16.010   8.431
 2937POPC   C3B38973  13.192  16.044   8.029
 2937POPC   C4B38974  12.972  16.324   7.771
 2938POPC   NC338975  22.495  20.629   9.248
 2938POPC   PO438976  21.984  20.548   9.684
 2938POPC   GL138977  21.959  20.707   9.262
 2938POPC   GL238978  22.110  21.020   9.329
 2938POPC   C1A38979  22.003  20.562   8.808
 2938POPC   D2A38980  21.903  20.420   8.418
 2938POPC   C3A38981  22.257  20.415   8.139
 2938POPC   C4A38982  22.183  20.538   7.737
 2938POPC   C1B38983  22.101  21.059   8.890
 2938POPC   C2B38984  22.295  20.891   8.523
 2938POPC   C3B38985  22.205  20.916   8.102
 2938POPC   C4B38986  22.074  21.079   7.728
 2939POPC   NC338987   3.782   3.532   9.801
 2939POPC   PO438988   4.338   3.484   9.409
 2939POPC   GL138989   4.330   3.522   9.004
 2939POPC   GL238990   4.602   3.282   8.927
 2939POPC   C1A38991   3.899   3.638   8.776
 2939POPC   D2A38992   3.720   3.571   8.360
 2939POPC   C3A38993   3.915   3.658   7.959
 2939POPC   C4A38994   4.116   3.761   7.576
 2939POPC   C1B38995   4.554   3.322   8.510
 2939POPC   C2B38996   4.344   3.473   8.172
 2939POPC   C3B38997   4.559   3.563   7.781
 2939POPC   C4B38998   4.523   3.355   7.370
 2940POPC   NC338999  10.809  38.769   9.331
 2940POPC   PO439000  10.396  38.193   9.450
 2940POPC   GL139001  10.623  38.333   9.114
 2940POPC   GL239002  10.385  38.611   9.119
 2940POPC   C1A39003  10.755  38.265   8.659
 2940POPC   D2A39004  10.580  38.442   8.261
 2940POPC   C3A39005  10.661  38.170   7.904
 2940POPC   C4A39006  10.745  38.222   7.425
 2940POPC   C1B39007  10.584  38.730   8.729
 2940POPC   C2B39008  10.431  38.933   8.395
 2940POPC   C3B39009  10.241  38.816   8.031
 2940POPC   C4B39010  10.466  38.586   7.737
 2941POPC   NC339011   4.110   1.443   9.776
 2941POPC   PO439012   4.560   1.022   9.605
 2941POPC   GL139013   4.439   1.126   9.217
 2941POPC   GL239014   4.350   1.472   9.262
 2941POPC   C1A39015   4.571   1.016   8.787
 2941POPC   D2A39016   4.551   1.286   8.439
 2941POPC   C3A39017   4.567   1.078   8.026
 2941POPC   C4A39018   4.346   1.085   7.645
 2941POPC   C1B39019   4.186   1.370   8.843
 2941POPC   C2B39020   4.042   1.554   8.460
 2941POPC   C3B39021   4.217   1.457   8.071
 2941POPC   C4B39022   4.061   1.499   7.698
 2942POPC   NC339023  34.646   4.112   9.437
 2942POPC   PO439024  34.584   3.361   9.603
 2942POPC   GL139025  34.651   3.384   9.154
 2942POPC   GL239026  34.547   3.716   9.126
 2942POPC   C1A39027  34.825   3.531   8.739
 2942POPC   D2A39028  34.585   3.511   8.373
 2942POPC   C3A39029  34.723   3.779   8.051
 2942POPC   C4A39030  34.570   3.544   7.727
 2942POPC   C1B39031  34.457   3.913   8.694
 2942POPC   C2B39032  34.255   3.896   8.244
 2942POPC   C3B39033  34.367   4.039   7.794
 2942POPC   C4B39034  34.421   3.822   7.356
 2943POPC   NC339035  24.291   7.795   9.454
 2943POPC   PO439036  24.576   7.115   9.480
 2943POPC   GL139037  24.451   7.423   9.162
 2943POPC   GL239038  24.716   7.665   9.139
 2943POPC   C1A39039  24.224   7.404   8.762
 2943POPC   D2A39040  24.387   7.472   8.348
 2943POPC   C3A39041  24.136   7.292   8.035
 2943POPC   C4A39042  24.134   7.062   7.657
 2943POPC   C1B39043  24.762   7.354   8.787
 2943POPC   C2B39044  24.851   7.237   8.388
 2943POPC   C3B39045  24.785   7.384   8.025
 2943POPC   C4B39046  24.599   7.266   7.694
 2944POPC   NC339047  25.540  21.776   9.538
 2944POPC   PO439048  25.133  21.230   9.695
 2944POPC   GL139049  25.114  21.381   9.246
 2944POPC   GL239050  25.430  21.474   9.132
 2944POPC   C1A39051  25.068  21.398   8.791
 2944POPC   D2A39052  24.936  21.582   8.429
 2944POPC   C3A39053  24.923  21.378   8.043
 2944POPC   C4A39054  25.053  21.088   7.743
 2944POPC   C1B39055  25.491  21.793   8.792
 2944POPC   C2B39056  25.472  21.612   8.382
 2944POPC   C3B39057  25.425  21.495   7.946
 2944POPC   C4B39058  25.524  21.847   7.670
 2945POPC   NC339059  36.512  44.252   9.378
 2945POPC   PO439060  35.894  44.015   9.320
 2945POPC   GL139061  36.161  44.128   9.009
 2945POPC   GL239062  35.894  44.195   8.790
 2945POPC   C1A39063  36.384  43.841   8.750
 2945POPC   D2A39064  36.309  43.551   8.412
 2945POPC   C3A39065  36.143  43.783   8.093
 2945POPC   C4A39066  36.320  43.664   7.734
 2945POPC   C1B39067  35.871  43.725   8.687
 2945POPC   C2B39068  35.771  43.474   8.316
 2945POPC   C3B39069  35.681  43.680   7.906
 2945POPC   C4B39070  35.781  44.175   7.877
 2946POPC   NC339071  22.765  38.734   9.530
 2946POPC   PO439072  23.121  39.301   9.506
 2946POPC   GL139073  22.946  39.121   9.146
 2946POPC   GL239074  22.618  39.027   9.165
 2946POPC   C1A39075  22.988  38.971   8.718
 2946POPC   D2A39076  23.010  38.843   8.302
 2946POPC   C3A39077  23.256  39.136   8.104
 2946POPC   C4A39078  23.123  39.223   7.736
 2946POPC   C1B39079  22.567  39.245   8.824
 2946POPC   C2B39080  22.579  39.131   8.416
 2946POPC   C3B39081  22.705  39.131   8.014
 2946POPC   C4B39082  22.518  39.248   7.647
 2947POPC   NC339083   2.195  36.197   9.735
 2947POPC   PO439084   2.699  36.029   9.331
 2947POPC   GL139085   2.626  36.231   8.999
 2947POPC   GL239086   2.281  36.350   9.057
 2947POPC   C1A39087   2.936  36.353   8.668
 2947POPC   D2A39088   3.131  36.353   8.262
 2947POPC   C3A39089   2.992  36.033   8.040
 2947POPC   C4A39090   2.852  36.016   7.640
 2947POPC   C1B39091   2.461  36.561   8.676
 2947POPC   C2B39092   2.656  36.600   8.299
 2947POPC   C3B39093   2.661  36.440   7.894
 2947POPC   C4B39094   2.293  36.248   7.690
 2948POPC   NC339095  32.476   3.179   9.704
 2948POPC   PO439096  31.934   2.772   9.471
 2948POPC   GL139097  32.109   2.914   9.127
 2948POPC   GL239098  32.387   2.696   9.102
 2948POPC   C1A39099  32.072   2.763   8.682
 2948POPC   D2A39100  32.092   2.755   8.231
 2948POPC   C3A39101  32.045   3.123   7.958
 2948POPC   C4A39102  32.063   3.141   7.479
 2948POPC   C1B39103  32.462   2.371   8.791
 2948POPC   C2B39104  32.582   2.261   8.351
 2948POPC   C3B39105  32.382   2.432   7.971
 2948POPC   C4B39106  32.321   2.758   7.706
 2949POPC   NC339107  42.966  44.311   9.611
 2949POPC   PO439108  43.449  44.749   9.652
 2949POPC   GL139109  43.073  44.727   9.337
 2949POPC   GL239110  43.178  44.453   9.177
 2949POPC   C1A39111  42.957  44.779   8.844
 2949POPC   D2A39112  43.140  44.717   8.409
 2949POPC   C3A39113  42.988  44.773   7.971
 2949POPC   C4A39114  43.248  44.921   7.587
 2949POPC   C1B39115  43.028  44.289   8.773
 2949POPC   C2B39116  43.277  44.135   8.467
 2949POPC   C3B39117  43.218  44.313   8.093
 2949POPC   C4B39118  43.280  44.239   7.679
 2950POPC   NC339119  41.623  31.436   9.671
 2950POPC   PO439120  41.346  31.982   9.544
 2950POPC   GL139121  41.474  31.611   9.213
 2950POPC   GL239122  41.714  31.276   9.191
 2950POPC   C1A39123  41.649  31.585   8.762
 2950POPC   D2A39124  41.572  31.800   8.355
 2950POPC   C3A39125  41.567  31.559   7.984
 2950POPC   C4A39126  41.344  31.193   8.068
 2950POPC   C1B39127  41.906  31.107   8.787
 2950POPC   C2B39128  41.888  31.282   8.345
 2950POPC   C3B39129  41.825  31.031   7.960
 2950POPC   C4B39130  41.758  31.213   7.536
 2951POPC   NC339131  23.691  39.161   9.586
 2951POPC   PO439132  23.772  38.559   9.720
 2951POPC   GL139133  23.736  38.744   9.269
 2951POPC   GL239134  23.431  38.983   9.209
 2951POPC   C1A39135  23.809  38.934   8.837
 2951POPC   D2A39136  24.034  38.975   8.446
 2951POPC   C3A39137  23.767  39.163   8.141
 2951POPC   C4A39138  23.630  39.115   7.730
 2951POPC   C1B39139  23.533  39.350   8.926
 2951POPC   C2B39140  23.484  39.489   8.489
 2951POPC   C3B39141  23.493  39.666   8.077
 2951POPC   C4B39142  23.463  39.573   7.662
 2952POPC   NC339143  27.611  32.750   9.405
 2952POPC   PO439144  27.547  33.410   9.592
 2952POPC   GL139145  27.376  33.211   9.148
 2952POPC   GL239146  27.358  32.884   8.958
 2952POPC   C1A39147  27.395  33.293   8.661
 2952POPC   D2A39148  27.657  33.180   8.265
 2952POPC   C3A39149  27.539  32.875   7.939
 2952POPC   C4A39150  27.193  32.685   7.726
 2952POPC   C1B39151  27.737  32.888   8.699
 2952POPC   C2B39152  27.957  32.772   8.304
 2952POPC   C3B39153  28.049  33.000   7.904
 2952POPC   C4B39154  27.784  33.147   7.561
 2953POPC   NC339155   9.033  36.420   9.530
 2953POPC   PO439156   8.953  35.753   9.556
 2953POPC   GL139157   9.041  35.996   9.170
 2953POPC   GL239158   9.234  36.310   9.070
 2953POPC   C1A39159   8.841  36.153   8.777
 2953POPC   D2A39160   8.705  36.135   8.336
 2953POPC   C3A39161   8.958  35.858   8.094
 2953POPC   C4A39162   9.009  35.790   7.639
 2953POPC   C1B39163   9.417  36.215   8.668
 2953POPC   C2B39164   9.359  36.205   8.204
 2953POPC   C3B39165   9.057  36.300   7.860
 2953POPC   C4B39166   9.164  36.308   7.436
 2954POPC   NC339167  43.851  15.083   9.317
 2954POPC   PO439168  44.448  15.470   9.528
 2954POPC   GL139169  44.176  15.398   9.099
 2954POPC   GL239170  44.181  15.052   8.891
 2954POPC   C1A39171  43.957  15.411   8.657
 2954POPC   D2A39172  44.047  15.119   8.318
 2954POPC   C3A39173  43.989  15.330   7.942
 2954POPC   C4A39174  43.654  15.487   7.672
 2954POPC   C1B39175  43.784  14.912   8.717
 2954POPC   C2B39176  43.653  14.770   8.358
 2954POPC   C3B39177  43.759  14.844   7.951
 2954POPC   C4B39178  43.895  14.987   7.573
 2955POPC   NC339179   5.086   6.671   9.644
 2955POPC   PO439180   4.605   6.986   9.348
 2955POPC   GL139181   4.839   6.657   9.176
 2955POPC   GL239182   5.155   6.657   9.113
 2955POPC   C1A39183   4.779   6.636   8.755
 2955POPC   D2A39184   4.942   6.826   8.356
 2955POPC   C3A39185   4.738   6.733   7.986
 2955POPC   C4A39186   4.922   6.623   7.613
 2955POPC   C1B39187   5.288   6.679   8.716
 2955POPC   C2B39188   5.405   6.580   8.322
 2955POPC   C3B39189   5.283   6.756   7.959
 2955POPC   C4B39190   5.442   6.784   7.551
 2956POPC   NC339191   8.473   5.961   9.449
 2956POPC   PO439192   8.048   6.230   9.795
 2956POPC   GL139193   8.011   6.154   9.311
 2956POPC   GL239194   8.061   5.803   9.203
 2956POPC   C1A39195   8.065   6.122   8.841
 2956POPC   D2A39196   8.174   5.962   8.434
 2956POPC   C3A39197   8.221   6.124   8.039
 2956POPC   C4A39198   7.861   6.142   7.751
 2956POPC   C1B39199   8.102   5.608   8.797
 2956POPC   C2B39200   8.326   5.483   8.410
 2956POPC   C3B39201   8.192   5.623   8.033
 2956POPC   C4B39202   8.254   5.798   7.656
 2957POPC   NC339203  24.145  18.826   9.425
 2957POPC   PO439204  23.460  19.026   9.482
 2957POPC   GL139205  23.787  19.033   9.131
 2957POPC   GL239206  23.819  18.693   9.044
 2957POPC   C1A39207  23.882  19.123   8.691
 2957POPC   D2A39208  23.692  19.408   8.384
 2957POPC   C3A39209  23.812  19.349   7.987
 2957POPC   C4A39210  23.663  19.266   7.623
 2957POPC   C1B39211  23.436  18.818   8.823
 2957POPC   C2B39212  23.422  18.963   8.411
 2957POPC   C3B39213  23.662  18.866   8.042
 2957POPC   C4B39214  23.447  18.793   7.668
 2958POPC   NC339215   6.559   7.817   9.519
 2958POPC   PO439216   6.959   7.217   9.537
 2958POPC   GL139217   6.718   7.398   9.135
 2958POPC   GL239218   6.376   7.525   9.153
 2958POPC   C1A39219   6.517   7.324   8.721
 2958POPC   D2A39220   6.747   7.398   8.354
 2958POPC   C3A39221   6.476   7.445   8.031
 2958POPC   C4A39222   6.294   7.151   7.728
 2958POPC   C1B39223   6.281   7.816   8.781
 2958POPC   C2B39224   6.249   7.751   8.375
 2958POPC   C3B39225   6.326   7.909   7.940
 2958POPC   C4B39226   6.280   7.668   7.597
 2959POPC   NC339227  41.819  29.690   9.547
 2959POPC   PO439228  41.600  30.292   9.453
 2959POPC   GL139229  41.739  30.009   9.136
 2959POPC   GL239230  41.436  29.815   9.117
 2959POPC   C1A39231  41.678  29.947   8.688
 2959POPC   D2A39232  41.373  29.932   8.364
 2959POPC   C3A39233  41.508  30.130   7.982
 2959POPC   C4A39234  41.321  30.220   7.605
 2959POPC   C1B39235  41.322  29.545   8.764
 2959POPC   C2B39236  41.623  29.484   8.436
 2959POPC   C3B39237  41.541  29.611   8.010
 2959POPC   C4B39238  41.143  29.746   7.861
 2960POPC   NC339239  37.037  26.417   9.636
 2960POPC   PO439240  36.392  26.539   9.434
 2960POPC   GL139241  36.766  26.704   9.224
 2960POPC   GL239242  37.136  26.753   9.163
 2960POPC   C1A39243  36.738  26.830   8.823
 2960POPC   D2A39244  36.886  26.666   8.481
 2960POPC   C3A39245  36.762  26.797   8.100
 2960POPC   C4A39246  37.026  26.743   7.794
 2960POPC   C1B39247  37.155  27.105   8.810
 2960POPC   C2B39248  37.225  27.020   8.333
 2960POPC   C3B39249  37.215  27.209   7.863
 2960POPC   C4B39250  37.319  27.245   7.358
 2961POPC   NC339251  22.656   0.378   9.636
 2961POPC   PO439252  23.289   0.184   9.555
 2961POPC   GL139253  22.997   0.279   9.258
 2961POPC   GL239254  22.944  44.980   9.182
 2961POPC   C1A39255  22.740   0.377   8.880
 2961POPC   D2A39256  22.635   0.669   8.536
 2961POPC   C3A39257  22.822   0.531   8.156
 2961POPC   C4A39258  22.744   0.493   7.740
 2961POPC   C1B39259  23.241   0.190   8.835
 2961POPC   C2B39260  23.257   0.455   8.446
 2961POPC   C3B39261  23.313   0.361   7.998
 2961POPC   C4B39262  23.235   0.504   7.577
 2962POPC   NC339263  28.546  24.564   9.786
 2962POPC   PO439264  27.938  24.962   9.628
 2962POPC   GL139265  28.244  24.746   9.307
 2962POPC   GL239266  28.396  24.419   9.259
 2962POPC   C1A39267  28.472  24.811   8.876
 2962POPC   D2A39268  28.364  25.113   8.513
 2962POPC   C3A39269  28.183  24.927   8.129
 2962POPC   C4A39270  28.302  24.589   7.846
 2962POPC   C1B39271  28.287  24.342   8.777
 2962POPC   C2B39272  28.385  24.249   8.286
 2962POPC   C3B39273  28.496  24.095   7.834
 2962POPC   C4B39274  28.817  24.255   7.502
 2963POPC   NC339275  30.157   3.148   9.421
 2963POPC   PO439276  30.128   2.429   9.331
 2963POPC   GL139277  29.956   2.783   9.122
 2963POPC   GL239278  29.577   2.827   9.216
 2963POPC   C1A39279  30.167   3.007   8.780
 2963POPC   D2A39280  30.037   3.256   8.469
 2963POPC   C3A39281  30.143   3.038   8.108
 2963POPC   C4A39282  29.950   3.099   7.741
 2963POPC   C1B39283  29.605   2.896   8.762
 2963POPC   C2B39284  29.846   2.756   8.411
 2963POPC   C3B39285  29.867   2.613   7.980
 2963POPC   C4B39286  30.130   2.307   7.794
 2964POPC   NC339287   8.769  23.300   9.506
 2964POPC   PO439288   9.166  22.711   9.628
 2964POPC   GL139289   9.088  22.894   9.197
 2964POPC   GL239290   8.733  22.908   9.161
 2964POPC   C1A39291   8.938  23.055   8.752
 2964POPC   D2A39292   8.762  22.991   8.370
 2964POPC   C3A39293   9.023  23.065   8.053
 2964POPC   C4A39294   9.026  23.344   7.719
 2964POPC   C1B39295   8.762  22.582   8.856
 2964POPC   C2B39296   8.656  22.468   8.439
 2964POPC   C3B39297   8.826  22.592   8.026
 2964POPC   C4B39298   8.822  22.844   7.651
 2965POPC   NC339299  21.554  13.174   9.559
 2965POPC   PO439300  21.149  12.780   9.575
 2965POPC   GL139301  21.224  13.019   9.213
 2965POPC   GL239302  21.519  12.784   9.185
 2965POPC   C1A39303  21.407  13.110   8.824
 2965POPC   D2A39304  21.311  12.822   8.496
 2965POPC   C3A39305  21.300  12.924   8.067
 2965POPC   C4A39306  21.455  12.754   7.704
 2965POPC   C1B39307  21.773  12.768   8.772
 2965POPC   C2B39308  21.772  13.054   8.408
 2965POPC   C3B39309  21.754  13.119   7.954
 2965POPC   C4B39310  21.961  12.855   7.638
 2966POPC   NC339311  41.011  41.162   9.823
 2966POPC   PO439312  40.893  40.574   9.503
 2966POPC   GL139313  40.753  40.639   9.118
 2966POPC   GL239314  40.645  40.985   9.195
 2966POPC   C1A39315  40.999  40.673   8.711
 2966POPC   D2A39316  40.939  41.022   8.379
 2966POPC   C3A39317  40.988  40.952   7.933
 2966POPC   C4A39318  41.098  40.488   7.979
 2966POPC   C1B39319  40.529  40.912   8.757
 2966POPC   C2B39320  40.585  40.594   8.441
 2966POPC   C3B39321  40.593  40.668   8.062
 2966POPC   C4B39322  40.514  40.794   7.685
 2967POPC   NC339323  26.568   2.708   9.605
 2967POPC   PO439324  27.197   2.404   9.481
 2967POPC   GL139325  26.923   2.703   9.231
 2967POPC   GL239326  26.603   2.580   9.138
 2967POPC   C1A39327  26.865   2.943   8.855
 2967POPC   D2A39328  27.031   2.769   8.489
 2967POPC   C3A39329  26.886   2.936   8.142
 2967POPC   C4A39330  26.937   2.778   7.772
 2967POPC   C1B39331  26.817   2.434   8.814
 2967POPC   C2B39332  26.790   2.303   8.423
 2967POPC   C3B39333  26.683   2.442   8.057
 2967POPC   C4B39334  26.526   2.496   7.642
 2968POPC   NC339335  37.809  14.855   9.356
 2968POPC   PO439336  37.349  14.437   9.522
 2968POPC   GL139337  37.647  14.366   9.154
 2968POPC   GL239338  37.890  14.071   9.168
 2968POPC   C1A39339  37.604  14.593   8.729
 2968POPC   D2A39340  37.245  14.679   8.435
 2968POPC   C3A39341  37.270  14.403   8.085
 2968POPC   C4A39342  37.497  14.434   7.710
 2968POPC   C1B39343  37.728  14.041   8.751
 2968POPC   C2B39344  37.659  14.213   8.358
 2968POPC   C3B39345  37.842  14.170   7.977
 2968POPC   C4B39346  37.858  13.868   7.649
 2969POPC   NC339347  37.109  20.154   9.367
 2969POPC   PO439348  36.822  20.795   9.543
 2969POPC   GL139349  36.900  20.603   9.178
 2969POPC   GL239350  37.177  20.756   9.014
 2969POPC   C1A39351  36.711  20.636   8.790
 2969POPC   D2A39352  36.890  20.591   8.429
 2969POPC   C3A39353  36.926  20.852   8.084
 2969POPC   C4A39354  36.894  20.670   7.709
 2969POPC   C1B39355  37.217  20.393   8.766
 2969POPC   C2B39356  37.165  20.124   8.418
 2969POPC   C3B39357  36.939  20.228   8.069
 2969POPC   C4B39358  37.165  20.222   7.740
 2970POPC   NC339359  32.507  30.174   9.533
 2970POPC   PO439360  31.978  29.704   9.438
 2970POPC   GL139361  32.262  29.895   9.179
 2970POPC   GL239362  32.092  30.201   9.246
 2970POPC   C1A39363  32.389  29.799   8.766
 2970POPC   D2A39364  32.149  29.522   8.501
 2970POPC   C3A39365  32.071  29.732   8.101
 2970POPC   C4A39366  32.238  29.704   7.701
 2970POPC   C1B39367  32.146  30.269   8.836
 2970POPC   C2B39368  32.059  30.117   8.436
 2970POPC   C3B39369  32.136  30.292   8.063
 2970POPC   C4B39370  32.139  30.187   7.686
 2971POPC   NC339371  13.261  32.488   9.657
 2971POPC   PO439372  13.519  31.865   9.475
 2971POPC   GL139373  13.565  32.210   9.198
 2971POPC   GL239374  13.317  32.474   9.153
 2971POPC   C1A39375  13.802  32.221   8.805
 2971POPC   D2A39376  13.911  32.056   8.388
 2971POPC   C3A39377  13.659  32.077   8.025
 2971POPC   C4A39378  13.779  32.353   7.697
 2971POPC   C1B39379  13.293  32.271   8.774
 2971POPC   C2B39380  13.481  32.379   8.409
 2971POPC   C3B39381  13.394  32.537   8.005
 2971POPC   C4B39382  13.293  32.424   7.574
 2972POPC   NC339383  26.004  42.722   9.386
 2972POPC   PO439384  25.862  43.391   9.490
 2972POPC   GL139385  26.030  43.340   9.124
 2972POPC   GL239386  26.305  43.189   9.208
 2972POPC   C1A39387  26.127  42.992   8.778
 2972POPC   D2A39388  25.849  42.877   8.425
 2972POPC   C3A39389  26.052  42.942   8.021
 2972POPC   C4A39390  25.835  43.029   7.633
 2972POPC   C1B39391  26.370  43.453   8.787
 2972POPC   C2B39392  26.127  43.384   8.403
 2972POPC   C3B39393  26.279  43.440   8.003
 2972POPC   C4B39394  26.332  43.204   7.629
 2973POPC   NC339395  40.637  10.527   9.774
 2973POPC   PO439396  40.558  11.030   9.313
 2973POPC   GL139397  40.608  10.621   9.232
 2973POPC   GL239398  40.928  10.620   9.315
 2973POPC   C1A39399  40.562  10.504   8.815
 2973POPC   D2A39400  40.610  10.746   8.443
 2973POPC   C3A39401  40.879  10.740   8.109
 2973POPC   C4A39402  40.758  10.783   7.730
 2973POPC   C1B39403  41.054  10.502   8.913
 2973POPC   C2B39404  41.041  10.433   8.484
 2973POPC   C3B39405  41.110  10.282   8.082
 2973POPC   C4B39406  41.140  10.472   7.692
 2974POPC   NC339407   4.248  10.787   9.477
 2974POPC   PO439408   4.578  10.223   9.348
 2974POPC   GL139409   4.490  10.575   9.072
 2974POPC   GL239410   4.582  10.921   9.124
 2974POPC   C1A39411   4.372  10.491   8.682
 2974POPC   D2A39412   4.230  10.138   8.469
 2974POPC   C3A39413   4.419  10.307   8.120
 2974POPC   C4A39414   4.272  10.354   7.722
 2974POPC   C1B39415   4.203  10.954   8.823
 2974POPC   C2B39416   4.113  10.844   8.390
 2974POPC   C3B39417   4.322  10.804   7.992
 2974POPC   C4B39418   4.541  10.799   7.588
 2975POPC   NC339419   1.810  44.939   9.418
 2975POPC   PO439420   2.196  44.326   9.428
 2975POPC   GL139421   2.112  44.613   9.152
 2975POPC   GL239422   1.807  44.440   9.066
 2975POPC   C1A39423   2.149  44.613   8.710
 2975POPC   D2A39424   2.003  44.436   8.315
 2975POPC   C3A39425   2.244  44.663   8.004
 2975POPC   C4A39426   2.202  44.710   7.540
 2975POPC   C1B39427   1.613  44.593   8.689
 2975POPC   C2B39428   1.632  44.823   8.289
 2975POPC   C3B39429   1.774  44.815   7.844
 2975POPC   C4B39430   1.841   0.067   7.467
 2976POPC   NC339431  34.387  19.613   9.619
 2976POPC   PO439432  34.788  20.050   9.376
 2976POPC   GL139433  34.521  19.824   9.135
 2976POPC   GL239434  34.841  19.779   8.933
 2976POPC   C1A39435  34.398  19.890   8.725
 2976POPC   D2A39436  34.671  19.943   8.430
 2976POPC   C3A39437  34.479  19.954   8.093
 2976POPC   C4A39438  34.432  19.894   7.714
 2976POPC   C1B39439  34.762  19.472   8.645
 2976POPC   C2B39440  34.726  19.487   8.220
 2976POPC   C3B39441  34.869  19.638   7.840
 2976POPC   C4B39442  34.686  19.515   7.469
 2977POPC   NC339443   9.009   7.747   9.743
 2977POPC   PO439444   9.023   8.395   9.460
 2977POPC   GL139445   8.839   8.209   9.091
 2977POPC   GL239446   8.750   7.863   9.155
 2977POPC   C1A39447   9.091   8.209   8.693
 2977POPC   D2A39448   9.364   8.441   8.398
 2977POPC   C3A39449   9.223   8.364   7.976
 2977POPC   C4A39450   8.858   8.447   7.736
 2977POPC   C1B39451   8.653   7.925   8.694
 2977POPC   C2B39452   8.908   7.912   8.305
 2977POPC   C3B39453   8.938   7.925   7.847
 2977POPC   C4B39454   8.705   7.644   7.607
 2978POPC   NC339455  37.413  30.268   9.600
 2978POPC   PO439456  38.064  30.406   9.511
 2978POPC   GL139457  37.812  30.111   9.192
 2978POPC   GL239458  37.604  29.801   9.265
 2978POPC   C1A39459  37.579  29.996   8.791
 2978POPC   D2A39460  37.714  29.731   8.474
 2978POPC   C3A39461  37.545  29.856   8.120
 2978POPC   C4A39462  37.618  29.853   7.722
 2978POPC   C1B39463  37.359  29.541   8.949
 2978POPC   C2B39464  37.251  29.528   8.522
 2978POPC   C3B39465  37.148  29.541   8.093
 2978POPC   C4B39466  37.254  29.517   7.680
 2979POPC   NC339467  35.033   3.219   9.517
 2979POPC   PO439468  35.533   3.658   9.496
 2979POPC   GL139469  35.509   3.326   9.228
 2979POPC   GL239470  35.206   3.430   9.075
 2979POPC   C1A39471  35.685   3.364   8.827
 2979POPC   D2A39472  35.424   3.346   8.486
 2979POPC   C3A39473  35.528   3.465   8.054
 2979POPC   C4A39474  35.518   3.273   7.653
 2979POPC   C1B39475  35.074   3.082   8.821
 2979POPC   C2B39476  34.986   3.078   8.403
 2979POPC   C3B39477  35.034   3.401   8.146
 2979POPC   C4B39478  35.073   3.488   7.728
 2980POPC   NC339479   0.023   6.767   9.535
 2980POPC   PO439480   0.758   6.496   9.522
 2980POPC   GL139481   0.471   6.622   9.203
 2980POPC   GL239482   0.591   6.924   9.128
 2980POPC   C1A39483   0.293   6.592   8.754
 2980POPC   D2A39484   0.086   6.622   8.331
 2980POPC   C3A39485   0.285   6.585   7.927
 2980POPC   C4A39486   0.112   6.591   7.502
 2980POPC   C1B39487   0.517   7.052   8.738
 2980POPC   C2B39488   0.562   6.868   8.333
 2980POPC   C3B39489   0.754   6.783   7.926
 2980POPC   C4B39490   0.557   6.854   7.504
 2981POPC   NC339491   3.581  14.202   9.515
 2981POPC   PO439492   3.417  14.897   9.357
 2981POPC   GL139493   3.678  14.663   9.058
 2981POPC   GL239494   3.719  14.335   9.054
 2981POPC   C1A39495   3.826  14.639   8.650
 2981POPC   D2A39496   3.627  14.806   8.311
 2981POPC   C3A39497   3.602  14.672   7.906
 2981POPC   C4A39498   3.453  14.487   7.537
 2981POPC   C1B39499   3.677  14.144   8.667
 2981POPC   C2B39500   3.614  14.274   8.255
 2981POPC   C3B39501   3.780  14.091   7.888
 2981POPC   C4B39502   3.612  13.988   7.496
 2982POPC   NC339503  31.886  41.978   9.535
 2982POPC   PO439504  32.192  41.396   9.569
 2982POPC   GL139505  32.347  41.503   9.173
 2982POPC   GL239506  32.636  41.278   9.161
 2982POPC   C1A39507  32.358  41.765   8.818
 2982POPC   D2A39508  32.075  41.593   8.537
 2982POPC   C3A39509  32.083  41.623   8.079
 2982POPC   C4A39510  31.842  41.771   7.709
 2982POPC   C1B39511  32.464  41.261   8.744
 2982POPC   C2B39512  32.346  41.192   8.341
 2982POPC   C3B39513  32.497  41.332   7.971
 2982POPC   C4B39514  32.253  41.468   7.625
 2983POPC   NC339515  22.458  31.399   9.524
 2983POPC   PO439516  23.113  31.482   9.497
 2983POPC   GL139517  22.812  31.477   9.182
 2983POPC   GL239518  22.689  31.108   9.170
 2983POPC   C1A39519  22.715  31.660   8.805
 2983POPC   D2A39520  22.667  31.820   8.394
 2983POPC   C3A39521  22.939  31.721   8.084
 2983POPC   C4A39522  22.886  31.504   7.722
 2983POPC   C1B39523  22.934  31.164   8.798
 2983POPC   C2B39524  22.813  31.315   8.411
 2983POPC   C3B39525  22.527  31.353   8.100
 2983POPC   C4B39526  22.538  31.132   7.724
 2984POPC   NC339527  42.511   7.152   9.755
 2984POPC   PO439528  42.302   6.615   9.387
 2984POPC   GL139529  42.293   6.373   9.018
 2984POPC   GL239530  41.958   6.425   8.973
 2984POPC   C1A39531  42.558   6.333   8.652
 2984POPC   D2A39532  42.685   6.607   8.288
 2984POPC   C3A39533  42.462   6.598   7.897
 2984POPC   C4A39534  42.035   6.433   7.790
 2984POPC   C1B39535  42.181   6.714   8.670
 2984POPC   C2B39536  42.052   6.751   8.237
 2984POPC   C3B39537  42.081   6.943   7.852
 2984POPC   C4B39538  42.207   6.815   7.463
 2985POPC   NC339539  37.892   1.434   9.829
 2985POPC   PO439540  37.629   2.121   9.800
 2985POPC   GL139541  37.672   2.063   9.307
 2985POPC   GL239542  37.380   2.137   9.144
 2985POPC   C1A39543  37.754   2.046   8.829
 2985POPC   D2A39544  37.749   2.212   8.378
 2985POPC   C3A39545  37.934   1.894   8.108
 2985POPC   C4A39546  38.015   1.749   7.693
 2985POPC   C1B39547  37.333   1.795   8.790
 2985POPC   C2B39548  37.524   1.734   8.368
 2985POPC   C3B39549  37.439   1.827   7.932
 2985POPC   C4B39550  37.184   1.601   7.621
 2986POPC   NC339551  19.949  13.084   9.514
 2986POPC   PO439552  19.586  12.432   9.434
 2986POPC   GL139553  19.612  12.820   9.156
 2986POPC   GL239554  19.959  12.873   9.052
 2986POPC   C1A39555  19.444  13.074   8.776
 2986POPC   D2A39556  19.575  13.220   8.332
 2986POPC   C3A39557  19.514  12.907   8.014
 2986POPC   C4A39558  19.596  12.865   7.588
 2986POPC   C1B39559  19.889  12.911   8.622
 2986POPC   C2B39560  19.978  12.775   8.230
 2986POPC   C3B39561  19.994  12.967   7.851
 2986POPC   C4B39562  20.223  12.926   7.472
 2987POPC   NC339563   0.951   3.781   9.281
 2987POPC   PO439564   0.256   3.770   9.508
 2987POPC   GL139565   0.457   3.703   9.132
 2987POPC   GL239566   0.397   3.342   9.085
 2987POPC   C1A39567   0.567   3.619   8.711
 2987POPC   D2A39568   0.561   3.290   8.469
 2987POPC   C3A39569   0.698   3.521   8.123
 2987POPC   C4A39570   0.577   3.741   7.754
 2987POPC   C1B39571   0.061   3.563   8.847
 2987POPC   C2B39572  44.905   3.510   8.441
 2987POPC   C3B39573   0.187   3.402   8.118
 2987POPC   C4B39574   0.161   3.404   7.698
 2988POPC   NC339575   6.894  14.930   9.432
 2988POPC   PO439576   6.432  15.344   9.636
 2988POPC   GL139577   6.479  15.260   9.221
 2988POPC   GL239578   6.435  14.926   9.095
 2988POPC   C1A39579   6.678  15.346   8.837
 2988POPC   D2A39580   6.806  15.162   8.450
 2988POPC   C3A39581   6.712  15.433   8.115
 2988POPC   C4A39582   6.511  15.366   7.713
 2988POPC   C1B39583   6.659  14.694   8.753
 2988POPC   C2B39584   6.646  14.683   8.315
 2988POPC   C3B39585   6.524  14.956   8.030
 2988POPC   C4B39586   6.874  15.046   7.824
 2989POPC   NC339587  22.902  16.434   9.585
 2989POPC   PO439588  22.998  17.103   9.442
 2989POPC   GL139589  22.807  16.821   9.160
 2989POPC   GL239590  22.720  16.471   9.131
 2989POPC   C1A39591  22.824  16.899   8.749
 2989POPC   D2A39592  23.065  16.770   8.439
 2989POPC   C3A39593  22.836  16.878   8.115
 2989POPC   C4A39594  22.661  17.055   7.760
 2989POPC   C1B39595  23.018  16.417   8.813
 2989POPC   C2B39596  23.026  16.132   8.472
 2989POPC   C3B39597  23.038  16.391   8.100
 2989POPC   C4B39598  22.896  16.587   7.695
 2990POPC   NC339599  31.636  14.631   9.524
 2990POPC   PO439600  31.192  14.095   9.588
 2990POPC   GL139601  31.301  14.336   9.226
 2990POPC   GL239602  31.644  14.198   9.220
 2990POPC   C1A39603  31.174  14.587   8.853
 2990POPC   D2A39604  31.405  14.804   8.505
 2990POPC   C3A39605  31.480  14.485   8.180
 2990POPC   C4A39606  31.209  14.092   8.118
 2990POPC   C1B39607  31.709  13.936   8.865
 2990POPC   C2B39608  31.699  14.005   8.420
 2990POPC   C3B39609  31.650  13.892   8.021
 2990POPC   C4B39610  31.560  14.215   7.747
 2991POPC   NC339611  13.479  36.578   9.879
 2991POPC   PO439612  13.318  35.982   9.560
 2991POPC   GL139613  13.605  36.137   9.193
 2991POPC   GL239614  13.928  36.009   9.088
 2991POPC   C1A39615  13.699  36.333   8.770
 2991POPC   D2A39616  13.579  36.460   8.345
 2991POPC   C3A39617  13.714  36.288   7.942
 2991POPC   C4A39618  13.916  36.341   7.528
 2991POPC   C1B39619  13.886  35.867   8.697
 2991POPC   C2B39620  13.664  35.934   8.337
 2991POPC   C3B39621  13.449  35.811   7.993
 2991POPC   C4B39622  13.390  36.013   7.620
 2992POPC   NC339623  21.660  27.793   9.488
 2992POPC   PO439624  22.260  27.342   9.642
 2992POPC   GL139625  22.190  27.621   9.282
 2992POPC   GL239626  22.438  27.912   9.220
 2992POPC   C1A39627  22.010  27.795   8.890
 2992POPC   D2A39628  21.934  27.614   8.491
 2992POPC   C3A39629  21.984  27.867   8.126
 2992POPC   C4A39630  21.948  27.645   7.718
 2992POPC   C1B39631  22.502  27.632   8.864
 2992POPC   C2B39632  22.431  27.715   8.415
 2992POPC   C3B39633  22.389  27.612   7.992
 2992POPC   C4B39634  22.420  27.711   7.521
 2993POPC   NC339635  10.889  42.897   9.640
 2993POPC   PO439636  11.333  43.433   9.590
 2993POPC   GL139637  11.188  43.124   9.289
 2993POPC   GL239638  11.494  43.040   9.208
 2993POPC   C1A39639  11.100  43.023   8.859
 2993POPC   D2A39640  11.215  42.869   8.463
 2993POPC   C3A39641  11.198  43.231   8.194
 2993POPC   C4A39642  11.160  43.180   7.754
 2993POPC   C1B39643  11.607  43.011   8.807
 2993POPC   C2B39644  11.680  43.143   8.391
 2993POPC   C3B39645  11.575  42.938   8.016
 2993POPC   C4B39646  11.548  42.918   7.555
 2994POPC   NC339647  13.444  41.687   9.511
 2994POPC   PO439648  14.008  41.392   9.290
 2994POPC   GL139649  13.585  41.499   9.072
 2994POPC   GL239650  13.413  41.230   8.885
 2994POPC   C1A39651  13.551  41.792   8.781
 2994POPC   D2A39652  13.853  41.977   8.545
 2994POPC   C3A39653  13.766  41.900   8.116
 2994POPC   C4A39654  13.348  41.726   7.946
 2994POPC   C1B39655  13.814  41.357   8.640
 2994POPC   C2B39656  13.968  41.265   8.246
 2994POPC   C3B39657  13.759  41.423   7.893
 2994POPC   C4B39658  13.797  41.767   7.608
 2995POPC   NC339659   5.951  16.453   9.471
 2995POPC   PO439660   5.733  17.058   9.565
 2995POPC   GL139661   5.795  16.827   9.160
 2995POPC   GL239662   5.581  16.539   9.106
 2995POPC   C1A39663   6.021  16.637   8.803
 2995POPC   D2A39664   6.033  16.698   8.360
 2995POPC   C3A39665   5.705  16.906   8.126
 2995POPC   C4A39666   5.808  16.615   7.809
 2995POPC   C1B39667   5.505  16.625   8.653
 2995POPC   C2B39668   5.461  16.462   8.215
 2995POPC   C3B39669   5.388  16.304   7.820
 2995POPC   C4B39670   5.523  16.515   7.409
 2996POPC   NC339671  22.063  33.287   9.555
 2996POPC   PO439672  22.590  32.817   9.532
 2996POPC   GL139673  22.323  33.016   9.147
 2996POPC   GL239674  21.963  33.210   9.085
 2996POPC   C1A39675  22.391  33.101   8.729
 2996POPC   D2A39676  22.411  32.902   8.336
 2996POPC   C3A39677  22.434  33.217   8.032
 2996POPC   C4A39678  22.086  33.290   7.761
 2996POPC   C1B39679  21.875  33.093   8.711
 2996POPC   C2B39680  21.977  33.195   8.298
 2996POPC   C3B39681  21.815  32.926   7.988
 2996POPC   C4B39682  21.878  32.681   7.620
 2997POPC   NC339683  44.094   3.364   9.633
 2997POPC   PO439684  44.014   3.965   9.465
 2997POPC   GL139685  43.851   3.607   9.218
 2997POPC   GL239686  44.027   3.290   9.134
 2997POPC   C1A39687  43.713   3.605   8.792
 2997POPC   D2A39688  43.818   3.901   8.450
 2997POPC   C3A39689  43.626   3.755   8.052
 2997POPC   C4A39690  43.707   3.364   7.868
 2997POPC   C1B39691  44.073   3.210   8.716
 2997POPC   C2B39692  43.955   3.171   8.275
 2997POPC   C3B39693  44.162   3.126   7.862
 2997POPC   C4B39694  44.211   3.045   7.406
 2998POPC   NC339695  10.547  27.980   9.436
 2998POPC   PO439696  10.695  28.679   9.434
 2998POPC   GL139697  10.471  28.519   9.114
 2998POPC   GL239698  10.368  28.196   9.024
 2998POPC   C1A39699  10.622  28.592   8.732
 2998POPC   D2A39700  10.494  28.562   8.340
 2998POPC   C3A39701  10.744  28.566   8.005
 2998POPC   C4A39702  10.672  28.339   7.642
 2998POPC   C1B39703  10.154  28.311   8.656
 2998POPC   C2B39704  10.235  28.135   8.241
 2998POPC   C3B39705  10.197  28.250   7.800
 2998POPC   C4B39706  10.192  28.030   7.382
 2999POPC   NC339707  13.794  15.467   9.653
 2999POPC   PO439708  13.933  14.871   9.397
 2999POPC   GL139709  13.763  15.266   9.188
 2999POPC   GL239710  13.521  15.143   8.983
 2999POPC   C1A39711  13.775  15.516   8.784
 2999POPC   D2A39712  13.564  15.238   8.467
 2999POPC   C3A39713  13.682  15.281   8.047
 2999POPC   C4A39714  14.088  15.412   7.872
 2999POPC   C1B39715  13.433  14.817   8.711
 2999POPC   C2B39716  13.209  14.877   8.342
 2999POPC   C3B39717  13.220  14.854   7.906
 2999POPC   C4B39718  13.273  15.205   7.654
 3000POPC   NC339719  38.253  25.574   9.541
 3000POPC   PO439720  38.388  24.899   9.559
 3000POPC   GL139721  38.394  25.157   9.218
 3000POPC   GL239722  38.095  25.254   9.176
 3000POPC   C1A39723  38.436  25.089   8.786
 3000POPC   D2A39724  38.154  25.119   8.446
 3000POPC   C3A39725  38.374  25.136   8.077
 3000POPC   C4A39726  38.248  25.323   7.726
 3000POPC   C1B39727  38.239  25.547   8.846
 3000POPC   C2B39728  38.477  25.522   8.467
 3000POPC   C3B39729  38.507  25.652   8.052
 3000POPC   C4B39730  38.635  25.619   7.648
 3001POPC   NC339731  30.916  37.359   9.292
 3001POPC   PO439732  31.472  37.668   9.538
 3001POPC   GL139733  31.553  37.691   9.105
 3001POPC   GL239734  31.730  37.359   9.065
 3001POPC   C1A39735  31.415  37.570   8.694
 3001POPC   D2A39736  31.611  37.610   8.303
 3001POPC   C3A39737  31.345  37.749   7.981
 3001POPC   C4A39738  31.531  37.811   7.603
 3001POPC   C1B39739  31.757  37.186   8.610
 3001POPC   C2B39740  31.869  37.153   8.151
 3001POPC   C3B39741  31.653  37.361   7.811
 3001POPC   C4B39742  31.601  37.332   7.364
 3002POPC   NC339743  28.184  25.443   9.475
 3002POPC   PO439744  28.666  25.089   9.625
 3002POPC   GL139745  28.563  25.210   9.196
 3002POPC   GL239746  28.217  25.192   9.058
 3002POPC   C1A39747  28.577  25.477   8.811
 3002POPC   D2A39748  28.495  25.599   8.363
 3002POPC   C3A39749  28.572  25.307   7.999
 3002POPC   C4A39750  28.745  24.936   7.761
 3002POPC   C1B39751  28.015  25.423   8.767
 3002POPC   C2B39752  27.961  25.421   8.339
 3002POPC   C3B39753  28.064  25.404   7.911
 3002POPC   C4B39754  27.941  25.438   7.475
 3003POPC   NC339755  38.770  19.571   9.523
 3003POPC   PO439756  38.103  19.333   9.440
 3003POPC   GL139757  38.299  19.592   9.103
 3003POPC   GL239758  38.556  19.856   9.139
 3003POPC   C1A39759  38.225  19.761   8.693
 3003POPC   D2A39760  38.436  19.688   8.294
 3003POPC   C3A39761  38.331  19.950   7.976
 3003POPC   C4A39762  38.032  20.088   7.722
 3003POPC   C1B39763  38.734  19.775   8.714
 3003POPC   C2B39764  38.937  19.819   8.272
 3003POPC   C3B39765  38.806  19.855   7.834
 3003POPC   C4B39766  38.885  19.818   7.395
 3004POPC   NC339767   7.225   0.964   9.638
 3004POPC   PO439768   7.778   1.411   9.514
 3004POPC   GL139769   7.584   1.387   9.125
 3004POPC   GL239770   7.247   1.227   9.161
 3004POPC   C1A39771   7.588   1.311   8.725
 3004POPC   D2A39772   7.350   1.338   8.348
 3004POPC   C3A39773   7.547   1.350   7.950
 3004POPC   C4A39774   7.476   1.020   7.677
 3004POPC   C1B39775   7.078   1.430   8.792
 3004POPC   C2B39776   6.893   1.570   8.389
 3004POPC   C3B39777   7.048   1.513   7.957
 3004POPC   C4B39778   7.180   1.587   7.533
 3005POPC   NC339779  11.695  18.641   9.933
 3005POPC   PO439780  11.289  18.317   9.462
 3005POPC   GL139781  11.160  18.414   9.090
 3005POPC   GL239782  10.835  18.308   9.062
 3005POPC   C1A39783  11.339  18.330   8.699
 3005POPC   D2A39784  11.230  18.536   8.323
 3005POPC   C3A39785  11.479  18.526   7.989
 3005POPC   C4A39786  11.481  18.191   7.698
 3005POPC   C1B39787  10.833  18.401   8.629
 3005POPC   C2B39788  10.756  18.239   8.236
 3005POPC   C3B39789  11.025  18.311   7.900
 3005POPC   C4B39790  11.031  18.326   7.463
 3006POPC   NC339791  27.192  11.212   9.578
 3006POPC   PO439792  27.555  11.712   9.452
 3006POPC   GL139793  27.696  11.399   9.169
 3006POPC   GL239794  27.584  11.061   9.264
 3006POPC   C1A39795  27.694  11.505   8.734
 3006POPC   D2A39796  27.517  11.685   8.337
 3006POPC   C3A39797  27.623  11.383   8.072
 3006POPC   C4A39798  27.922  11.166   7.820
 3006POPC   C1B39799  27.413  11.092   8.836
 3006POPC   C2B39800  27.408  10.833   8.471
 3006POPC   C3B39801  27.408  10.927   8.031
 3006POPC   C4B39802  27.453  11.200   7.640
 3007POPC   NC339803   5.001  38.456   9.585
 3007POPC   PO439804   5.523  38.170   9.364
 3007POPC   GL139805   5.185  38.335   9.116
 3007POPC   GL239806   4.812  38.358   9.129
 3007POPC   C1A39807   5.062  38.322   8.701
 3007POPC   D2A39808   5.140  38.549   8.392
 3007POPC   C3A39809   5.073  38.311   8.099
 3007POPC   C4A39810   5.272  38.427   7.779
 3007POPC   C1B39811   4.695  38.663   8.762
 3007POPC   C2B39812   4.626  38.575   8.364
 3007POPC   C3B39813   4.757  38.710   7.981
 3007POPC   C4B39814   4.722  39.141   7.837
 3008POPC   NC339815  39.613  42.292   9.515
 3008POPC   PO439816  38.919  42.524   9.504
 3008POPC   GL139817  39.244  42.534   9.198
 3008POPC   GL239818  39.320  42.184   9.111
 3008POPC   C1A39819  39.165  42.518   8.760
 3008POPC   D2A39820  38.908  42.261   8.492
 3008POPC   C3A39821  39.004  42.361   8.079
 3008POPC   C4A39822  38.890  42.494   7.704
 3008POPC   C1B39823  39.515  42.113   8.737
 3008POPC   C2B39824  39.397  42.131   8.337
 3008POPC   C3B39825  39.390  42.057   7.908
 3008POPC   C4B39826  39.417  42.359   7.603
 3009POPC   NC339827   4.956  21.178  10.088
 3009POPC   PO439828   5.061  20.804   9.512
 3009POPC   GL139829   5.069  20.604   9.122
 3009POPC   GL239830   5.141  20.223   9.192
 3009POPC   C1A39831   4.970  20.730   8.702
 3009POPC   D2A39832   5.058  20.576   8.293
 3009POPC   C3A39833   4.997  20.700   7.850
 3009POPC   C4A39834   5.166  20.798   7.416
 3009POPC   C1B39835   5.236  20.272   8.766
 3009POPC   C2B39836   5.212  20.075   8.381
 3009POPC   C3B39837   5.222  20.200   7.983
 3009POPC   C4B39838   5.253  20.322   7.597
 3010POPC   NC339839   4.118  37.440   9.546
 3010POPC   PO439840   4.574  37.925   9.550
 3010POPC   GL139841   4.342  37.798   9.144
 3010POPC   GL239842   4.194  37.447   9.062
 3010POPC   C1A39843   4.252  37.778   8.689
 3010POPC   D2A39844   4.119  37.528   8.356
 3010POPC   C3A39845   4.269  37.817   8.067
 3010POPC   C4A39846   4.462  37.871   7.665
 3010POPC   C1B39847   4.598  37.435   8.853
 3010POPC   C2B39848   4.650  37.572   8.431
 3010POPC   C3B39849   4.514  37.397   8.039
 3010POPC   C4B39850   4.142  37.372   7.836
 3011POPC   NC339851  25.483   1.682   9.593
 3011POPC   PO439852  24.918   2.090   9.448
 3011POPC   GL139853  24.961   1.735   9.192
 3011POPC   GL239854  25.305   1.690   9.061
 3011POPC   C1A39855  24.915   1.845   8.774
 3011POPC   D2A39856  25.175   2.008   8.467
 3011POPC   C3A39857  25.015   1.845   8.117
 3011POPC   C4A39858  25.071   1.992   7.716
 3011POPC   C1B39859  25.569   1.726   8.660
 3011POPC   C2B39860  25.697   1.661   8.244
 3011POPC   C3B39861  25.502   1.886   7.922
 3011POPC   C4B39862  25.500   1.871   7.447
 3012POPC   NC339863  42.359  32.556   9.905
 3012POPC   PO439864  42.498  33.079   9.476
 3012POPC   GL139865  42.171  33.014   9.112
 3012POPC   GL239866  42.356  32.844   8.874
 3012POPC   C1A39867  42.041  33.207   8.711
 3012POPC   D2A39868  42.340  33.237   8.380
 3012POPC   C3A39869  42.187  33.409   8.012
 3012POPC   C4A39870  42.409  33.412   7.648
 3012POPC   C1B39871  41.968  32.687   8.746
 3012POPC   C2B39872  41.909  32.845   8.358
 3012POPC   C3B39873  42.180  32.896   8.014
 3012POPC   C4B39874  42.007  32.606   7.805
 3013POPC   NC339875  13.802  20.271   9.514
 3013POPC   PO439876  13.859  20.953   9.284
 3013POPC   GL139877  13.871  20.619   9.072
 3013POPC   GL239878  13.893  20.814   8.781
 3013POPC   C1A39879  13.758  20.284   8.824
 3013POPC   D2A39880  13.500  20.239   8.467
 3013POPC   C3A39881  13.786  20.393   8.156
 3013POPC   C4A39882  14.056  20.257   7.836
 3013POPC   C1B39883  13.438  20.704   8.681
 3013POPC   C2B39884  13.353  20.660   8.218
 3013POPC   C3B39885  13.558  20.684   7.797
 3013POPC   C4B39886  13.438  20.893   7.387
 3014POPC   NC339887  24.541  23.848   9.367
 3014POPC   PO439888  24.222  23.389   9.547
 3014POPC   GL139889  24.387  23.393   9.150
 3014POPC   GL239890  24.728  23.473   9.094
 3014POPC   C1A39891  24.316  23.573   8.759
 3014POPC   D2A39892  24.171  23.427   8.363
 3014POPC   C3A39893  24.283  23.689   8.024
 3014POPC   C4A39894  24.315  23.618   7.576
 3014POPC   C1B39895  24.835  23.733   8.749
 3014POPC   C2B39896  24.747  23.729   8.315
 3014POPC   C3B39897  24.755  23.860   7.886
 3014POPC   C4B39898  24.668  23.981   7.467
 3015POPC   NC339899  23.940  28.032   9.268
 3015POPC   PO439900  23.709  28.547   9.644
 3015POPC   GL139901  23.665  28.507   9.163
 3015POPC   GL239902  23.378  28.729   9.132
 3015POPC   C1A39903  23.827  28.392   8.709
 3015POPC   D2A39904  23.965  28.054   8.366
 3015POPC   C3A39905  23.774  28.122   7.956
 3015POPC   C4A39906  23.773  28.415   7.624
 3015POPC   C1B39907  23.358  28.837   8.737
 3015POPC   C2B39908  23.574  28.737   8.387
 3015POPC   C3B39909  23.498  28.602   8.008
 3015POPC   C4B39910  23.259  28.517   7.663
 3016POPC   NC339911   7.740  16.152   9.401
 3016POPC   PO439912   7.066  16.101   9.483
 3016POPC   GL139913   7.281  16.151   9.151
 3016POPC   GL239914   7.413  15.832   9.130
 3016POPC   C1A39915   7.463  16.187   8.769
 3016POPC   D2A39916   7.302  16.066   8.416
 3016POPC   C3A39917   7.484  16.137   8.039
 3016POPC   C4A39918   7.163  16.228   7.739
 3016POPC   C1B39919   7.527  15.679   8.719
 3016POPC   C2B39920   7.786  15.848   8.397
 3016POPC   C3B39921   7.681  15.661   8.035
 3016POPC   C4B39922   7.416  15.726   7.718
 3017POPC   NC339923  32.410  38.680   9.962
 3017POPC   PO439924  32.092  38.343   9.477
 3017POPC   GL139925  32.308  38.544   9.156
 3017POPC   GL239926  32.476  38.849   9.244
 3017POPC   C1A39927  32.136  38.705   8.785
 3017POPC   D2A39928  31.841  38.512   8.495
 3017POPC   C3A39929  32.099  38.505   8.138
 3017POPC   C4A39930  32.053  38.701   7.762
 3017POPC   C1B39931  32.659  38.790   8.842
 3017POPC   C2B39932  32.548  38.654   8.441
 3017POPC   C3B39933  32.594  38.853   8.064
 3017POPC   C4B39934  32.541  38.690   7.692
 3018POPC   NC339935  30.484  43.171   9.664
 3018POPC   PO439936  30.863  42.648   9.611
 3018POPC   GL139937  30.698  42.946   9.270
 3018POPC   GL239938  30.952  43.170   9.074
 3018POPC   C1A39939  30.482  43.177   8.925
 3018POPC   D2A39940  30.618  43.171   8.502
 3018POPC   C3A39941  30.447  42.937   8.158
 3018POPC   C4A39942  30.485  43.097   7.785
 3018POPC   C1B39943  30.971  43.478   8.760
 3018POPC   C2B39944  30.897  43.568   8.330
 3018POPC   C3B39945  30.896  43.262   8.044
 3018POPC   C4B39946  31.073  43.164   7.659
 3019POPC   NC339947  16.634   5.288   9.704
 3019POPC   PO439948  16.834   4.537   9.831
 3019POPC   GL139949  16.698   4.780   9.442
 3019POPC   GL239950  16.339   4.718   9.310
 3019POPC   C1A39951  16.673   5.014   9.036
 3019POPC   D2A39952  16.596   5.024   8.581
 3019POPC   C3A39953  16.879   5.224   8.285
 3019POPC   C4A39954  16.724   5.268   7.850
 3019POPC   C1B39955  16.370   4.555   8.860
 3019POPC   C2B39956  16.529   4.546   8.409
 3019POPC   C3B39957  16.685   4.798   8.091
 3019POPC   C4B39958  16.885   4.825   7.702
 3020POPC   NC339959  18.133  11.789   9.587
 3020POPC   PO439960  18.757  11.892   9.542
 3020POPC   GL139961  18.425  12.075   9.244
 3020POPC   GL239962  18.059  12.000   9.135
 3020POPC   C1A39963  18.430  12.067   8.791
 3020POPC   D2A39964  18.450  11.927   8.382
 3020POPC   C3A39965  18.476  12.198   8.049
 3020POPC   C4A39966  18.266  11.972   7.761
 3020POPC   C1B39967  17.924  12.187   8.767
 3020POPC   C2B39968  18.068  12.315   8.376
 3020POPC   C3B39969  17.895  12.206   7.986
 3020POPC   C4B39970  17.883  12.279   7.540
 3021POPC   NC339971  44.014  26.667   9.738
 3021POPC   PO439972  43.393  26.774   9.773
 3021POPC   GL139973  43.828  26.873   9.329
 3021POPC   GL239974  44.002  26.588   9.227
 3021POPC   C1A39975  43.702  26.968   8.845
 3021POPC   D2A39976  43.614  27.078   8.402
 3021POPC   C3A39977  43.808  26.760   8.157
 3021POPC   C4A39978  43.682  26.808   7.766
 3021POPC   C1B39979  44.137  26.718   8.828
 3021POPC   C2B39980  44.111  27.110   8.539
 3021POPC   C3B39981  44.104  27.195   8.107
 3021POPC   C4B39982  44.227  26.872   7.816
 3022POPC   NC339983   4.219  41.047   9.392
 3022POPC   PO439984   4.700  40.954   9.738
 3022POPC   GL139985   4.560  40.680   9.291
 3022POPC   GL239986   4.221  40.540   9.274
 3022POPC   C1A39987   4.379  40.823   8.815
 3022POPC   D2A39988   4.477  41.077   8.441
 3022POPC   C3A39989   4.530  40.875   8.025
 3022POPC   C4A39990   4.333  41.011   7.646
 3022POPC   C1B39991   3.934  40.548   8.917
 3022POPC   C2B39992   3.973  40.571   8.451
 3022POPC   C3B39993   4.022  40.804   8.031
 3022POPC   C4B39994   3.854  40.714   7.596
 3023POPC   NC339995  15.086  11.041   9.445
 3023POPC   PO439996  15.223  10.354   9.619
 3023POPC   GL139997  15.288  10.296   9.221
 3023POPC   GL239998  14.893  10.362   9.185
 3023POPC   C1A39999  15.245  10.181   8.818
 3023POPC   D2A40000  14.947  10.302   8.525
 3023POPC   C3A40001  15.182  10.340   8.165
 3023POPC   C4A40002  14.923  10.406   7.849
 3023POPC   C1B40003  15.054  10.663   8.895
 3023POPC   C2B40004  15.312  10.663   8.531
 3023POPC   C3B40005  15.078  10.842   8.186
 3023POPC   C4B40006  15.133  10.866   7.761
 3024POPC   NC340007   6.583   0.778   9.464
 3024POPC   PO440008   6.966   1.379   9.571
 3024POPC   GL140009   6.732   1.443   9.190
 3024POPC   GL240010   6.481   1.185   9.178
 3024POPC   C1A40011   6.536   1.517   8.780
 3024POPC   D2A40012   6.435   1.290   8.416
 3024POPC   C3A40013   6.650   1.211   8.072
 3024POPC   C4A40014   6.582   1.481   7.749
 3024POPC   C1B40015   6.726   1.035   8.827
 3024POPC   C2B40016   6.959   1.019   8.449
 3024POPC   C3B40017   7.037   0.849   8.037
 3024POPC   C4B40018   6.948   1.098   7.669
 3025POPC   NC340019  39.417  37.266   9.393
 3025POPC   PO440020  39.201  36.646   9.443
 3025POPC   GL140021  39.186  36.913   9.089
 3025POPC   GL240022  38.849  36.979   8.951
 3025POPC   C1A40023  39.444  36.942   8.736
 3025POPC   D2A40024  39.540  36.748   8.336
 3025POPC   C3A40025  39.662  36.987   7.989
 3025POPC   C4A40026  39.431  37.031   7.682
 3025POPC   C1B40027  38.954  37.157   8.595
 3025POPC   C2B40028  39.112  37.006   8.228
 3025POPC   C3B40029  38.993  36.825   7.854
 3025POPC   C4B40030  38.681  37.038   7.634
 3026POPC   NC340031  22.175  23.372   9.556
 3026POPC   PO440032  22.171  23.993   9.317
 3026POPC   GL140033  22.112  23.684   9.030
 3026POPC   GL240034  21.853  23.482   9.126
 3026POPC   C1A40035  22.245  23.721   8.609
 3026POPC   D2A40036  22.298  23.499   8.242
 3026POPC   C3A40037  22.232  23.791   7.923
 3026POPC   C4A40038  22.398  24.182   7.799
 3026POPC   C1B40039  21.725  23.426   8.668
 3026POPC   C2B40040  21.767  23.513   8.167
 3026POPC   C3B40041  22.045  23.319   7.811
 3026POPC   C4B40042  22.494  23.360   7.787
 3027POPC   NC340043   7.439  25.742   9.844
 3027POPC   PO440044   7.342  26.023   9.277
 3027POPC   GL140045   7.593  26.058   8.933
 3027POPC   GL240046   7.301  26.001   8.747
 3027POPC   C1A40047   7.699  25.754   8.577
 3027POPC   D2A40048   7.451  25.785   8.222
 3027POPC   C3A40049   7.678  25.799   7.843
 3027POPC   C4A40050   7.852  26.018   7.511
 3027POPC   C1B40051   7.283  26.456   8.748
 3027POPC   C2B40052   7.129  26.562   8.377
 3027POPC   C3B40053   7.310  26.400   8.011
 3027POPC   C4B40054   7.157  26.012   7.847
 3028POPC   NC340055  27.979  42.566   9.521
 3028POPC   PO440056  28.615  42.653   9.519
 3028POPC   GL140057  28.351  42.540   9.143
 3028POPC   GL240058  28.147  42.783   9.050
 3028POPC   C1A40059  28.164  42.377   8.723
 3028POPC   D2A40060  28.037  42.191   8.301
 3028POPC   C3A40061  28.264  42.011   7.936
 3028POPC   C4A40062  28.322  42.188   7.537
 3028POPC   C1B40063  28.401  42.829   8.694
 3028POPC   C2B40064  28.560  42.595   8.369
 3028POPC   C3B40065  28.398  42.505   7.979
 3028POPC   C4B40066  28.121  42.688   7.717
 3029POPC   NC340067  33.293  22.627   9.838
 3029POPC   PO440068  33.834  22.330   9.515
 3029POPC   GL140069  33.708  22.291   9.140
 3029POPC   GL240070  33.422  22.093   9.237
 3029POPC   C1A40071  33.917  22.224   8.783
 3029POPC   D2A40072  34.116  22.419   8.448
 3029POPC   C3A40073  33.994  22.143   8.117
 3029POPC   C4A40074  33.987  22.257   7.709
 3029POPC   C1B40075  33.594  21.841   8.927
 3029POPC   C2B40076  33.603  21.835   8.479
 3029POPC   C3B40077  33.512  21.948   8.056
 3029POPC   C4B40078  33.559  21.862   7.624
 3030POPC   NC340079  13.288  11.142   9.417
 3030POPC   PO440080  12.700  11.131   9.646
 3030POPC   GL140081  12.721  11.219   9.186
 3030POPC   GL240082  13.009  11.372   9.073
 3030POPC   C1A40083  12.640  11.358   8.719
 3030POPC   D2A40084  12.682  11.606   8.321
 3030POPC   C3A40085  12.778  11.384   7.942
 3030POPC   C4A40086  12.608  11.006   7.807
 3030POPC   C1B40087  13.090  11.116   8.736
 3030POPC   C2B40088  13.107  11.323   8.371
 3030POPC   C3B40089  13.283  11.326   7.989
 3030POPC   C4B40090  13.244  11.456   7.584
 3031POPC   NC340091   6.488  44.267   9.487
 3031POPC   PO440092   6.843  43.691   9.423
 3031POPC   GL140093   6.566  43.855   9.161
 3031POPC   GL240094   6.225  43.791   9.234
 3031POPC   C1A40095   6.623  43.902   8.750
 3031POPC   D2A40096   6.518  44.104   8.388
 3031POPC   C3A40097   6.759  43.890   8.094
 3031POPC   C4A40098   6.915  43.947   7.680
 3031POPC   C1B40099   6.285  43.525   8.856
 3031POPC   C2B40100   6.431  43.532   8.439
 3031POPC   C3B40101   6.279  43.720   8.109
 3031POPC   C4B40102   6.449  43.756   7.712
 3032POPC   NC340103  32.763  29.329   9.486
 3032POPC   PO440104  33.350  28.984   9.527
 3032POPC   GL140105  33.123  29.117   9.167
 3032POPC   GL240106  33.087  29.486   9.123
 3032POPC   C1A40107  33.228  29.185   8.732
 3032POPC   D2A40108  32.930  29.116   8.400
 3032POPC   C3A40109  33.052  29.150   7.964
 3032POPC   C4A40110  32.786  29.085   7.600
 3032POPC   C1B40111  32.887  29.604   8.717
 3032POPC   C2B40112  32.628  29.548   8.335
 3032POPC   C3B40113  32.669  29.501   7.891
 3032POPC   C4B40114  32.957  29.639   7.599
 3033POPC   NC340115  24.779  36.527   9.326
 3033POPC   PO440116  24.619  37.167   9.623
 3033POPC   GL140117  24.473  36.984   9.222
 3033POPC   GL240118  24.388  36.686   9.032
 3033POPC   C1A40119  24.357  37.192   8.834
 3033POPC   D2A40120  24.108  37.133   8.488
 3033POPC   C3A40121  24.329  37.181   8.102
 3033POPC   C4A40122  24.458  37.273   7.679
 3033POPC   C1B40123  24.396  36.699   8.618
 3033POPC   C2B40124  24.616  36.744   8.258
 3033POPC   C3B40125  24.486  36.772   7.846
 3033POPC   C4B40126  24.713  36.819   7.509
 3034POPC   NC340127  14.581  30.547   9.333
 3034POPC   PO440128  14.533  29.920   9.744
 3034POPC   GL140129  14.607  29.994   9.314
 3034POPC   GL240130  14.297  29.872   9.252
 3034POPC   C1A40131  14.713  29.954   8.844
 3034POPC   D2A40132  14.563  29.807   8.442
 3034POPC   C3A40133  14.676  29.907   8.022
 3034POPC   C4A40134  14.584  29.855   7.588
 3034POPC   C1B40135  14.214  29.905   8.836
 3034POPC   C2B40136  14.035  29.848   8.471
 3034POPC   C3B40137  14.172  29.925   8.098
 3034POPC   C4B40138  14.096  29.971   7.705
 3035POPC   NC340139   0.384  11.621   9.420
 3035POPC   PO440140   0.693  12.221   9.347
 3035POPC   GL140141   0.310  12.045   9.126
 3035POPC   GL240142   0.351  11.769   8.909
 3035POPC   C1A40143   0.115  12.250   8.794
 3035POPC   D2A40144   0.323  12.078   8.462
 3035POPC   C3A40145   0.137  12.147   8.108
 3035POPC   C4A40146   0.269  12.237   7.740
 3035POPC   C1B40147   0.738  11.824   8.688
 3035POPC   C2B40148   0.815  12.002   8.283
 3035POPC   C3B40149   0.590  11.884   7.914
 3035POPC   C4B40150   0.204  11.744   7.792
 3036POPC   NC340151  43.086   5.479   9.496
 3036POPC   PO440152  42.902   6.136   9.536
 3036POPC   GL140153  43.234   5.975   9.305
 3036POPC   GL240154  42.984   5.817   9.120
 3036POPC   C1A40155  43.393   6.045   8.871
 3036POPC   D2A40156  43.486   5.969   8.404
 3036POPC   C3A40157  43.170   5.956   8.054
 3036POPC   C4A40158  43.247   5.654   7.693
 3036POPC   C1B40159  42.927   5.917   8.701
 3036POPC   C2B40160  43.015   5.617   8.396
 3036POPC   C3B40161  42.829   5.572   8.009
 3036POPC   C4B40162  42.776   5.835   7.629
 3037POPC   NC340163  22.022  34.160   9.465
 3037POPC   PO440164  22.435  33.612   9.503
 3037POPC   GL140165  22.136  33.704   9.206
 3037POPC   GL240166  22.180  34.027   9.007
 3037POPC   C1A40167  22.132  33.575   8.786
 3037POPC   D2A40168  22.320  33.806   8.485
 3037POPC   C3A40169  22.196  33.653   8.119
 3037POPC   C4A40170  22.329  33.739   7.713
 3037POPC   C1B40171  21.881  34.038   8.694
 3037POPC   C2B40172  21.762  33.894   8.295
 3037POPC   C3B40173  21.888  33.975   7.872
 3037POPC   C4B40174  21.916  34.050   7.434
 3038POPC   NC340175  37.714  18.329   9.580
 3038POPC   PO440176  37.182  17.859   9.535
 3038POPC   GL140177  37.403  18.130   9.197
 3038POPC   GL240178  37.788  18.183   9.099
 3038POPC   C1A40179  37.426  18.182   8.754
 3038POPC   D2A40180  37.334  18.337   8.334
 3038POPC   C3A40181  37.627  18.333   7.980
 3038POPC   C4A40182  37.551  18.156   7.558
 3038POPC   C1B40183  37.815  18.500   8.795
 3038POPC   C2B40184  38.079  18.451   8.487
 3038POPC   C3B40185  38.122  18.362   8.095
 3038POPC   C4B40186  38.043  18.212   7.671
 3039POPC   NC340187  34.805  15.640   9.315
 3039POPC   PO440188  34.472  15.034   9.575
 3039POPC   GL140189  34.451  15.221   9.177
 3039POPC   GL240190  34.774  15.183   9.096
 3039POPC   C1A40191  34.246  15.142   8.768
 3039POPC   D2A40192  34.280  15.343   8.371
 3039POPC   C3A40193  34.229  15.239   7.926
 3039POPC   C4A40194  34.558  15.465   7.772
 3039POPC   C1B40195  34.711  14.932   8.759
 3039POPC   C2B40196  34.501  14.846   8.408
 3039POPC   C3B40197  34.683  15.101   8.128
 3039POPC   C4B40198  34.759  15.001   7.742
 3040POPC   NC340199  16.086  30.114   9.577
 3040POPC   PO440200  15.481  29.846   9.483
 3040POPC   GL140201  15.727  30.009   9.192
 3040POPC   GL240202  16.021  29.801   9.165
 3040POPC   C1A40203  15.781  30.100   8.769
 3040POPC   D2A40204  15.990  30.265   8.414
 3040POPC   C3A40205  15.723  30.141   8.073
 3040POPC   C4A40206  15.534  30.164   7.663
 3040POPC   C1B40207  16.197  29.795   8.735
 3040POPC   C2B40208  16.028  29.769   8.287
 3040POPC   C3B40209  16.209  29.862   7.868
 3040POPC   C4B40210  16.254  29.563   7.476
 3041POPC   NC340211  44.882  15.653   9.444
 3041POPC   PO440212  44.977  16.175   9.056
 3041POPC   GL140213  44.568  16.084   8.965
 3041POPC   GL240214  44.555  15.736   9.063
 3041POPC   C1A40215  44.524  15.959   8.541
 3041POPC   D2A40216  44.858  15.734   8.356
 3041POPC   C3A40217  44.963  16.018   8.039
 3041POPC   C4A40218  44.804  15.841   7.691
 3041POPC   C1B40219  44.506  15.460   8.714
 3041POPC   C2B40220  44.372  15.519   8.304
 3041POPC   C3B40221  44.400  15.847   8.025
 3041POPC   C4B40222  44.068  15.785   7.730
 3042POPC   NC340223   1.527  15.986   9.469
 3042POPC   PO440224   0.878  16.052   9.472
 3042POPC   GL140225   1.159  16.122   9.166
 3042POPC   GL240226   1.171  15.743   9.173
 3042POPC   C1A40227   1.188  16.136   8.735
 3042POPC   D2A40228   1.107  16.434   8.408
 3042POPC   C3A40229   1.092  16.260   7.985
 3042POPC   C4A40230   1.473  16.221   7.731
 3042POPC   C1B40231   1.009  15.615   8.782
 3042POPC   C2B40232   1.280  15.684   8.450
 3042POPC   C3B40233   1.294  15.820   8.036
 3042POPC   C4B40234   1.158  15.851   7.588
 3043POPC   NC340235   1.462  41.966   9.318
 3043POPC   PO440236   0.985  42.418   9.574
 3043POPC   GL140237   1.189  42.609   9.226
 3043POPC   GL240238   0.890  42.608   9.046
 3043POPC   C1A40239   1.377  42.475   8.803
 3043POPC   D2A40240   1.367  42.121   8.491
 3043POPC   C3A40241   1.401  42.292   8.065
 3043POPC   C4A40242   1.328  42.195   7.636
 3043POPC   C1B40243   0.793  42.367   8.715
 3043POPC   C2B40244   0.966  42.422   8.324
 3043POPC   C3B40245   0.908  42.380   7.892
 3043POPC   C4B40246   0.848  42.598   7.514
 3044POPC   NC340247   4.021  21.274   9.663
 3044POPC   PO440248   4.381  21.772   9.790
 3044POPC   GL140249   4.130  21.533   9.277
 3044POPC   GL240250   4.343  21.268   9.246
 3044POPC   C1A40251   4.124  21.608   8.818
 3044POPC   D2A40252   4.367  21.393   8.512
 3044POPC   C3A40253   4.322  21.556   8.097
 3044POPC   C4A40254   4.430  21.361   7.707
 3044POPC   C1B40255   4.239  21.005   8.896
 3044POPC   C2B40256   4.127  20.918   8.482
 3044POPC   C3B40257   4.278  21.018   8.096
 3044POPC   C4B40258   4.172  20.864   7.714
 3045POPC   NC340259  22.903   1.390   9.596
 3045POPC   PO440260  22.877   0.736   9.443
 3045POPC   GL140261  22.904   1.127   9.127
 3045POPC   GL240262  23.117   1.458   9.144
 3045POPC   C1A40263  22.937   1.164   8.649
 3045POPC   D2A40264  23.143   0.942   8.284
 3045POPC   C3A40265  22.982   0.962   7.831
 3045POPC   C4A40266  22.836   1.245   7.486
 3045POPC   C1B40267  23.350   1.477   8.777
 3045POPC   C2B40268  23.196   1.582   8.377
 3045POPC   C3B40269  22.990   1.488   7.992
 3045POPC   C4B40270  23.244   1.520   7.643
 3046POPC   NC340271  34.734   1.687   9.478
 3046POPC   PO440272  34.483   2.368   9.545
 3046POPC   GL140273  34.480   2.052   9.224
 3046POPC   GL240274  34.736   2.061   9.074
 3046POPC   C1A40275  34.471   1.725   8.846
 3046POPC   D2A40276  34.662   1.677   8.449
 3046POPC   C3A40277  34.501   1.803   8.070
 3046POPC   C4A40278  34.686   1.781   7.691
 3046POPC   C1B40279  34.797   2.127   8.700
 3046POPC   C2B40280  34.627   2.220   8.324
 3046POPC   C3B40281  34.844   2.208   7.917
 3046POPC   C4B40282  34.695   2.220   7.463
 3047POPC   NC340283  15.777  15.302   9.446
 3047POPC   PO440284  16.398  15.197   9.412
 3047POPC   GL140285  16.198  15.323   9.109
 3047POPC   GL240286  16.002  15.021   9.086
 3047POPC   C1A40287  16.044  15.416   8.756
 3047POPC   D2A40288  15.975  15.222   8.420
 3047POPC   C3A40289  16.122  15.522   8.115
 3047POPC   C4A40290  15.912  15.429   7.748
 3047POPC   C1B40291  15.952  14.777   8.725
 3047POPC   C2B40292  15.908  14.737   8.307
 3047POPC   C3B40293  15.962  14.896   7.932
 3047POPC   C4B40294  16.297  15.119   7.878
 3048POPC   NC340295  22.259  22.697   9.493
 3048POPC   PO440296  21.804  23.118   9.506
 3048POPC   GL140297  22.138  23.064   9.164
 3048POPC   GL240298  22.135  22.755   9.010
 3048POPC   C1A40299  22.196  23.213   8.760
 3048POPC   D2A40300  21.995  23.105   8.383
 3048POPC   C3A40301  22.267  22.962   8.116
 3048POPC   C4A40302  22.293  22.825   7.740
 3048POPC   C1B40303  22.140  22.431   8.711
 3048POPC   C2B40304  22.113  22.498   8.285
 3048POPC   C3B40305  21.897  22.523   7.867
 3048POPC   C4B40306  21.703  22.431   7.427
 3049POPC   NC340307   7.566  37.588   9.636
 3049POPC   PO440308   7.039  37.930   9.492
 3049POPC   GL140309   7.257  37.707   9.144
 3049POPC   GL240310   7.637  37.766   9.124
 3049POPC   C1A40311   7.076  37.421   8.786
 3049POPC   D2A40312   6.892  37.280   8.364
 3049POPC   C3A40313   6.988  37.472   7.962
 3049POPC   C4A40314   7.351  37.700   7.908
 3049POPC   C1B40315   7.591  37.491   8.763
 3049POPC   C2B40316   7.488  37.407   8.323
 3049POPC   C3B40317   7.795  37.408   7.970
 3049POPC   C4B40318   7.969  37.479   7.572
 3050POPC   NC340319  25.502   6.120   9.620
 3050POPC   PO440320  25.276   5.510   9.579
 3050POPC   GL140321  25.198   5.823   9.265
 3050POPC   GL240322  24.916   5.619   9.156
 3050POPC   C1A40323  25.428   6.041   8.903
 3050POPC   D2A40324  25.438   5.901   8.469
 3050POPC   C3A40325  25.400   6.109   8.068
 3050POPC   C4A40326  25.449   5.704   7.833
 3050POPC   C1B40327  25.026   5.760   8.773
 3050POPC   C2B40328  24.953   5.727   8.389
 3050POPC   C3B40329  24.971   5.860   8.011
 3050POPC   C4B40330  24.926   5.680   7.653
 3051POPC   NC340331   8.365  18.528   9.614
 3051POPC   PO440332   7.930  18.029   9.795
 3051POPC   GL140333   8.052  18.236   9.298
 3051POPC   GL240334   8.394  18.160   9.187
 3051POPC   C1A40335   8.040  18.185   8.830
 3051POPC   D2A40336   8.195  18.341   8.422
 3051POPC   C3A40337   8.234  18.159   8.039
 3051POPC   C4A40338   7.941  18.225   7.736
 3051POPC   C1B40339   8.552  18.376   8.795
 3051POPC   C2B40340   8.647  18.555   8.403
 3051POPC   C3B40341   8.651  18.436   7.986
 3051POPC   C4B40342   8.454  18.376   7.578
 3052POPC   NC340343   0.738   0.563   9.542
 3052POPC   PO440344   0.148   0.469   9.273
 3052POPC   GL140345   0.475   0.328   9.080
 3052POPC   GL240346   0.611   0.640   9.058
 3052POPC   C1A40347   0.508   0.332   8.639
 3052POPC   D2A40348   0.213   0.265   8.304
 3052POPC   C3A40349   0.455   0.411   8.016
 3052POPC   C4A40350   0.600   0.253   7.664
 3052POPC   C1B40351   0.807   0.792   8.690
 3052POPC   C2B40352   0.878   0.527   8.336
 3052POPC   C3B40353   1.038   0.524   7.960
 3052POPC   C4B40354   0.755   0.724   7.771
 3053POPC   NC340355  35.415  23.408   9.289
 3053POPC   PO440356  35.076  23.899   9.539
 3053POPC   GL140357  34.984  23.688   9.174
 3053POPC   GL240358  35.282  23.873   9.047
 3053POPC   C1A40359  35.044  23.511   8.750
 3053POPC   D2A40360  35.298  23.454   8.384
 3053POPC   C3A40361  35.123  23.498   7.941
 3053POPC   C4A40362  35.135  23.680   7.516
 3053POPC   C1B40363  35.474  23.904   8.644
 3053POPC   C2B40364  35.717  23.756   8.288
 3053POPC   C3B40365  35.548  23.794   7.894
 3053POPC   C4B40366  35.648  23.772   7.463
 3054POPC   NC340367   5.480   7.584   9.538
 3054POPC   PO440368   6.131   7.724   9.687
 3054POPC   GL140369   5.887   7.586   9.243
 3054POPC   GL240370   5.649   7.283   9.172
 3054POPC   C1A40371   5.952   7.446   8.791
 3054POPC   D2A40372   5.768   7.409   8.394
 3054POPC   C3A40373   5.966   7.531   8.017
 3054POPC   C4A40374   5.752   7.645   7.656
 3054POPC   C1B40375   5.567   7.096   8.783
 3054POPC   C2B40376   5.315   7.165   8.448
 3054POPC   C3B40377   5.388   7.238   8.057
 3054POPC   C4B40378   5.718   7.150   7.807
 3055POPC   NC340379   1.674  21.475   9.532
 3055POPC   PO440380   0.987  21.178   9.529
 3055POPC   GL140381   1.076  21.123   9.132
 3055POPC   GL240382   1.433  21.219   9.132
 3055POPC   C1A40383   0.921  21.165   8.752
 3055POPC   D2A40384   1.126  21.352   8.414
 3055POPC   C3A40385   0.917  21.625   8.134
 3055POPC   C4A40386   1.039  21.511   7.737
 3055POPC   C1B40387   1.520  21.540   8.872
 3055POPC   C2B40388   1.670  21.456   8.484
 3055POPC   C3B40389   1.601  21.169   8.141
 3055POPC   C4B40390   1.512  21.349   7.744
 3056POPC   NC340391  17.549   5.455   9.442
 3056POPC   PO440392  17.723   6.095   9.426
 3056POPC   GL140393  17.444   5.871   9.143
 3056POPC   GL240394  17.723   5.675   9.000
 3056POPC   C1A40395  17.302   5.763   8.716
 3056POPC   D2A40396  17.613   5.727   8.396
 3056POPC   C3A40397  17.493   5.704   7.972
 3056POPC   C4A40398  17.375   6.003   7.639
 3056POPC   C1B40399  17.729   6.085   8.748
 3056POPC   C2B40400  17.666   6.231   8.299
 3056POPC   C3B40401  17.858   6.056   7.919
 3056POPC   C4B40402  17.910   5.947   7.495
 3057POPC   NC340403  38.192  31.646   9.441
 3057POPC   PO440404  38.729  31.934   9.571
 3057POPC   GL140405  38.613  31.741   9.173
 3057POPC   GL240406  38.581  31.367   9.211
 3057POPC   C1A40407  38.474  31.631   8.752
 3057POPC   D2A40408  38.376  31.902   8.386
 3057POPC   C3A40409  38.258  31.646   8.009
 3057POPC   C4A40410  38.479  31.501   7.626
 3057POPC   C1B40411  38.803  31.185   8.859
 3057POPC   C2B40412  38.682  31.242   8.455
 3057POPC   C3B40413  38.575  31.061   8.076
 3057POPC   C4B40414  38.224  31.126   7.870
 3058POPC   NC340415  37.990  40.127   9.625
 3058POPC   PO440416  37.392  39.971   9.715
 3058POPC   GL140417  37.598  40.093   9.301
 3058POPC   GL240418  37.436  40.338   9.116
 3058POPC   C1A40419  37.857  39.956   8.927
 3058POPC   D2A40420  37.938  40.097   8.463
 3058POPC   C3A40421  37.573  39.993   8.178
 3058POPC   C4A40422  37.460  40.033   7.742
 3058POPC   C1B40423  37.450  40.192   8.685
 3058POPC   C2B40424  37.445  40.458   8.328
 3058POPC   C3B40425  37.670  40.449   7.951
 3058POPC   C4B40426  38.039  40.234   7.755
 3059POPC   NC340427   2.408  37.143   9.497
 3059POPC   PO440428   2.965  37.573   9.671
 3059POPC   GL140429   2.885  37.653   9.198
 3059POPC   GL240430   2.555  37.494   9.106
 3059POPC   C1A40431   2.775  37.886   8.776
 3059POPC   D2A40432   2.815  38.080   8.336
 3059POPC   C3A40433   2.724  37.893   7.936
 3059POPC   C4A40434   2.647  37.580   7.636
 3059POPC   C1B40435   2.876  37.380   8.763
 3059POPC   C2B40436   2.994  37.574   8.388
 3059POPC   C3B40437   2.946  37.390   7.993
 3059POPC   C4B40438   3.127  37.361   7.598
 3060POPC   NC340439  32.904   4.046   9.536
 3060POPC   PO440440  32.995   4.676   9.336
 3060POPC   GL140441  32.992   4.287   9.102
 3060POPC   GL240442  32.687   4.058   9.079
 3060POPC   C1A40443  33.254   4.289   8.747
 3060POPC   D2A40444  33.270   4.603   8.420
 3060POPC   C3A40445  33.342   4.386   8.052
 3060POPC   C4A40446  33.302   4.289   7.650
 3060POPC   C1B40447  32.886   3.933   8.707
 3060POPC   C2B40448  32.926   4.198   8.340
 3060POPC   C3B40449  32.840   4.227   7.923
 3060POPC   C4B40450  32.884   4.023   7.559
 3061POPC   NC340451  34.064  24.578   9.610
 3061POPC   PO440452  34.753  24.469   9.525
 3061POPC   GL140453  34.444  24.666   9.253
 3061POPC   GL240454  34.263  24.367   9.199
 3061POPC   C1A40455  34.404  24.654   8.807
 3061POPC   D2A40456  34.560  24.344   8.532
 3061POPC   C3A40457  34.721  24.541   8.205
 3061POPC   C4A40458  34.767  24.453   7.793
 3061POPC   C1B40459  34.155  24.206   8.822
 3061POPC   C2B40460  34.081  24.145   8.405
 3061POPC   C3B40461  34.380  24.182   8.058
 3061POPC   C4B40462  34.306  24.258   7.639
 3062POPC   NC340463  30.160  30.863   9.482
 3062POPC   PO440464  29.762  30.261   9.610
 3062POPC   GL140465  29.989  30.446   9.251
 3062POPC   GL240466  29.797  30.731   9.131
 3062POPC   C1A40467  30.210  30.593   8.845
 3062POPC   D2A40468  29.925  30.563   8.460
 3062POPC   C3A40469  30.082  30.537   8.041
 3062POPC   C4A40470  29.821  30.497   7.713
 3062POPC   C1B40471  29.811  30.999   8.755
 3062POPC   C2B40472  29.623  31.084   8.331
 3062POPC   C3B40473  29.668  30.969   7.888
 3062POPC   C4B40474  30.078  30.953   7.726
 3063POPC   NC340475  37.025  44.874   9.477
 3063POPC   PO440476  36.976  44.242   9.373
 3063POPC   GL140477  36.879  44.557   9.097
 3063POPC   GL240478  37.255  44.618   9.106
 3063POPC   C1A40479  36.841  44.769   8.716
 3063POPC   D2A40480  36.805  44.954   8.326
 3063POPC   C3A40481  36.875  44.714   7.949
 3063POPC   C4A40482  36.848  44.325   7.785
 3063POPC   C1B40483  37.229  44.424   8.727
 3063POPC   C2B40484  37.205  44.588   8.336
 3063POPC   C3B40485  37.318  44.349   7.982
 3063POPC   C4B40486  37.301  44.505   7.574
 3064POPC   NC340487  41.903   8.570   9.349
 3064POPC   PO440488  41.774   7.981   9.548
 3064POPC   GL140489  41.610   8.146   9.159
 3064POPC   GL240490  41.269   8.063   9.080
 3064POPC   C1A40491  41.567   8.310   8.726
 3064POPC   D2A40492  41.759   8.228   8.323
 3064POPC   C3A40493  41.500   8.160   7.955
 3064POPC   C4A40494  41.518   8.306   7.541
 3064POPC   C1B40495  41.296   7.827   8.709
 3064POPC   C2B40496  41.206   7.923   8.315
 3064POPC   C3B40497  41.002   7.832   7.959
 3064POPC   C4B40498  41.201   7.872   7.606
 3065POPC   NC340499  33.491  31.809   9.549
 3065POPC   PO440500  32.905  31.384   9.491
 3065POPC   GL140501  32.873  31.484   9.106
 3065POPC   GL240502  33.083  31.761   9.151
 3065POPC   C1A40503  32.832  31.302   8.711
 3065POPC   D2A40504  33.085  31.256   8.336
 3065POPC   C3A40505  32.903  31.469   8.004
 3065POPC   C4A40506  32.716  31.350   7.625
 3065POPC   C1B40507  33.206  31.650   8.732
 3065POPC   C2B40508  33.191  31.778   8.328
 3065POPC   C3B40509  33.385  31.711   7.947
 3065POPC   C4B40510  33.231  31.464   7.621
 3066POPC   NC340511  26.472  23.262   9.364
 3066POPC   PO440512  25.806  23.379   9.586
 3066POPC   GL140513  25.945  23.256   9.180
 3066POPC   GL240514  25.964  22.900   9.114
 3066POPC   C1A40515  26.150  23.236   8.773
 3066POPC   D2A40516  26.105  23.085   8.362
 3066POPC   C3A40517  26.294  23.303   8.030
 3066POPC   C4A40518  26.156  23.139   7.659
 3066POPC   C1B40519  25.845  22.629   8.733
 3066POPC   C2B40520  26.014  22.577   8.298
 3066POPC   C3B40521  25.925  22.675   7.889
 3066POPC   C4B40522  25.514  22.738   7.809
 3067POPC   NC340523   0.732  20.718   9.473
 3067POPC   PO440524   0.058  20.847   9.359
 3067POPC   GL140525   0.384  20.595   9.099
 3067POPC   GL240526   0.714  20.744   8.981
 3067POPC   C1A40527   0.537  20.325   8.735
 3067POPC   D2A40528   0.332  20.447   8.325
 3067POPC   C3A40529   0.520  20.422   7.925
 3067POPC   C4A40530   0.811  20.682   7.755
 3067POPC   C1B40531   0.639  20.787   8.563
 3067POPC   C2B40532   0.620  20.882   8.188
 3067POPC   C3B40533   0.628  21.209   7.943
 3067POPC   C4B40534   0.715  21.144   7.540
 3068POPC   NC340535  32.044  43.274   9.864
 3068POPC   PO440536  32.435  42.884   9.505
 3068POPC   GL140537  32.422  43.015   9.146
 3068POPC   GL240538  32.120  43.210   9.133
 3068POPC   C1A40539  32.244  42.894   8.760
 3068POPC   D2A40540  32.158  43.162   8.461
 3068POPC   C3A40541  32.234  42.939   8.105
 3068POPC   C4A40542  32.058  43.133   7.801
 3068POPC   C1B40543  32.431  43.417   8.866
 3068POPC   C2B40544  32.638  43.456   8.497
 3068POPC   C3B40545  32.436  43.423   8.108
 3068POPC   C4B40546  32.521  43.267   7.717
 3069POPC   NC340547  42.058  26.620   9.495
 3069POPC   PO440548  42.518  27.083   9.686
 3069POPC   GL140549  42.281  27.005   9.235
 3069POPC   GL240550  42.323  26.649   9.055
 3069POPC   C1A40551  42.084  27.049   8.806
 3069POPC   D2A40552  42.102  26.859   8.368
 3069POPC   C3A40553  42.091  27.065   7.945
 3069POPC   C4A40554  42.335  26.936   7.555
 3069POPC   C1B40555  42.719  26.533   8.814
 3069POPC   C2B40556  42.989  26.630   8.443
 3069POPC   C3B40557  42.963  26.442   8.020
 3069POPC   C4B40558  42.586  26.490   7.778
 3070POPC   NC340559  13.868  13.049   9.401
 3070POPC   PO440560  13.672  12.434   9.486
 3070POPC   GL140561  13.625  12.668   9.084
 3070POPC   GL240562  13.556  13.036   8.989
 3070POPC   C1A40563  13.506  12.678   8.650
 3070POPC   D2A40564  13.579  12.993   8.358
 3070POPC   C3A40565  13.655  12.750   7.993
 3070POPC   C4A40566  13.489  12.873   7.613
 3070POPC   C1B40567  13.833  13.302   8.739
 3070POPC   C2B40568  14.060  13.215   8.353
 3070POPC   C3B40569  13.836  13.236   7.945
 3070POPC   C4B40570  13.898  13.319   7.506
 3071POPC   NC340571  36.182  12.541   9.746
 3071POPC   PO440572  36.536  12.988   9.370
 3071POPC   GL140573  36.326  12.881   9.019
 3071POPC   GL240574  36.338  13.221   8.903
 3071POPC   C1A40575  36.120  12.581   8.725
 3071POPC   D2A40576  35.871  12.411   8.356
 3071POPC   C3A40577  36.163  12.484   8.013
 3071POPC   C4A40578  36.344  12.806   7.724
 3071POPC   C1B40579  35.956  13.088   8.716
 3071POPC   C2B40580  35.975  12.926   8.312
 3071POPC   C3B40581  36.044  13.152   7.943
 3071POPC   C4B40582  35.891  13.115   7.511
 3072POPC   NC340583  12.347  30.507   9.321
 3072POPC   PO440584  11.855  30.992   9.517
 3072POPC   GL140585  12.003  30.834   9.128
 3072POPC   GL240586  11.960  30.449   9.031
 3072POPC   C1A40587  12.191  30.956   8.751
 3072POPC   D2A40588  11.963  30.892   8.373
 3072POPC   C3A40589  12.143  30.990   8.020
 3072POPC   C4A40590  11.967  30.943   7.619
 3072POPC   C1B40591  12.146  30.467   8.614
 3072POPC   C2B40592  12.349  30.549   8.213
 3072POPC   C3B40593  12.167  30.517   7.790
 3072POPC   C4B40594  12.172  30.312   7.368
 3073POPC   NC340595  26.346   4.826   9.292
 3073POPC   PO440596  25.997   4.455   9.727
 3073POPC   GL140597  26.157   4.274   9.286
 3073POPC   GL240598  26.255   4.468   8.953
 3073POPC   C1A40599  26.058   4.006   8.886
 3073POPC   D2A40600  26.004   4.245   8.491
 3073POPC   C3A40601  26.090   4.192   8.056
 3073POPC   C4A40602  26.102   4.377   7.659
 3073POPC   C1B40603  25.794   4.448   8.930
 3073POPC   C2B40604  25.502   4.406   8.572
 3073POPC   C3B40605  25.625   4.453   8.142
 3073POPC   C4B40606  25.825   4.769   7.902
 3074POPC   NC340607   2.769   8.586   9.529
 3074POPC   PO440608   2.650   9.208   9.457
 3074POPC   GL140609   2.651   8.931   9.114
 3074POPC   GL240610   2.378   8.699   9.203
 3074POPC   C1A40611   2.995   8.835   8.821
 3074POPC   D2A40612   3.080   8.926   8.395
 3074POPC   C3A40613   2.783   8.840   8.059
 3074POPC   C4A40614   3.065   8.771   7.729
 3074POPC   C1B40615   2.216   8.613   8.793
 3074POPC   C2B40616   2.394   8.588   8.379
 3074POPC   C3B40617   2.358   8.564   7.936
 3074POPC   C4B40618   2.594   8.743   7.544
 3075POPC   NC340619  30.084  14.009   9.404
 3075POPC   PO440620  29.698  14.519   9.406
 3075POPC   GL140621  30.134  14.463   9.166
 3075POPC   GL240622  30.288  14.177   8.958
 3075POPC   C1A40623  30.208  14.708   8.817
 3075POPC   D2A40624  29.886  14.740   8.488
 3075POPC   C3A40625  29.919  14.470   8.146
 3075POPC   C4A40626  29.825  14.619   7.724
 3075POPC   C1B40627  30.007  14.269   8.654
 3075POPC   C2B40628  29.794  14.031   8.386
 3075POPC   C3B40629  29.664  14.026   7.986
 3075POPC   C4B40630  29.882  14.108   7.600
 3076POPC   NC340631  13.752  37.944   9.400
 3076POPC   PO440632  13.987  37.373   9.691
 3076POPC   GL140633  13.582  37.503   9.255
 3076POPC   GL240634  13.320  37.744   9.167
 3076POPC   C1A40635  13.650  37.705   8.796
 3076POPC   D2A40636  13.602  37.856   8.406
 3076POPC   C3A40637  13.906  37.941   8.127
 3076POPC   C4A40638  13.842  37.741   7.753
 3076POPC   C1B40639  13.271  38.041   8.764
 3076POPC   C2B40640  13.154  38.063   8.286
 3076POPC   C3B40641  13.381  37.869   7.910
 3076POPC   C4B40642  13.482  37.923   7.441
 3077POPC   NC340643  17.698  26.829   9.541
 3077POPC   PO440644  17.133  26.510   9.681
 3077POPC   GL140645  17.315  26.552   9.288
 3077POPC   GL240646  17.191  26.895   9.262
 3077POPC   C1A40647  17.537  26.743   8.912
 3077POPC   D2A40648  17.700  26.923   8.525
 3077POPC   C3A40649  17.539  26.850   8.098
 3077POPC   C4A40650  17.670  26.952   7.653
 3077POPC   C1B40651  17.103  27.082   8.832
 3077POPC   C2B40652  17.002  27.062   8.379
 3077POPC   C3B40653  17.091  27.167   7.940
 3077POPC   C4B40654  17.161  26.905   7.576
 3078POPC   NC340655   9.215  38.146   9.488
 3078POPC   PO440656   8.766  38.587   9.550
 3078POPC   GL140657   8.900  38.503   9.158
 3078POPC   GL240658   8.869  38.143   9.081
 3078POPC   C1A40659   8.796  38.518   8.719
 3078POPC   D2A40660   8.774  38.524   8.286
 3078POPC   C3A40661   9.051  38.851   8.159
 3078POPC   C4A40662   8.982  38.927   7.774
 3078POPC   C1B40663   9.250  38.303   8.840
 3078POPC   C2B40664   9.295  38.500   8.454
 3078POPC   C3B40665   9.211  38.375   8.036
 3078POPC   C4B40666   9.373  38.287   7.616
 3079POPC   NC340667  17.265  16.351   9.368
 3079POPC   PO440668  17.137  16.966   9.580
 3079POPC   GL140669  17.309  16.839   9.165
 3079POPC   GL240670  17.664  16.692   9.245
 3079POPC   C1A40671  17.503  16.984   8.757
 3079POPC   D2A40672  17.617  17.193   8.385
 3079POPC   C3A40673  17.463  17.001   8.005
 3079POPC   C4A40674  17.476  16.902   7.513
 3079POPC   C1B40675  17.627  16.508   8.830
 3079POPC   C2B40676  17.798  16.681   8.446
 3079POPC   C3B40677  17.780  16.604   8.011
 3079POPC   C4B40678  17.342  16.528   7.837
 3080POPC   NC340679  34.876  11.685   9.428
 3080POPC   PO440680  34.448  11.273   9.372
 3080POPC   GL140681  34.766  11.269   9.078
 3080POPC   GL240682  34.829  10.953   8.896
 3080POPC   C1A40683  34.791  11.464   8.691
 3080POPC   D2A40684  34.496  11.343   8.411
 3080POPC   C3A40685  34.548  11.172   8.034
 3080POPC   C4A40686  34.621  11.397   7.706
 3080POPC   C1B40687  34.361  11.009   8.763
 3080POPC   C2B40688  34.115  11.005   8.354
 3080POPC   C3B40689  34.116  10.926   7.921
 3080POPC   C4B40690  34.390  10.952   7.586
 3081POPC   NC340691   9.960   7.346   9.821
 3081POPC   PO440692   9.434   7.706   9.566
 3081POPC   GL140693   9.589   7.590   9.172
 3081POPC   GL240694   9.904   7.497   9.324
 3081POPC   C1A40695   9.445   7.320   8.802
 3081POPC   D2A40696   9.212   7.338   8.398
 3081POPC   C3A40697   9.548   7.235   8.140
 3081POPC   C4A40698   9.768   7.169   7.780
 3081POPC   C1B40699  10.113   7.450   8.937
 3081POPC   C2B40700   9.960   7.302   8.523
 3081POPC   C3B40701   9.985   7.535   8.139
 3081POPC   C4B40702  10.151   7.509   7.709
 3082POPC   NC340703  12.873  21.501   9.711
 3082POPC   PO440704  13.428  21.822   9.527
 3082POPC   GL140705  13.152  21.519   9.212
 3082POPC   GL240706  12.791  21.406   9.206
 3082POPC   C1A40707  13.114  21.221   8.825
 3082POPC   D2A40708  13.173  21.362   8.392
 3082POPC   C3A40709  12.985  21.303   7.978
 3082POPC   C4A40710  12.913  21.605   7.621
 3082POPC   C1B40711  12.597  21.267   8.793
 3082POPC   C2B40712  12.628  21.328   8.336
 3082POPC   C3B40713  12.521  21.439   7.901
 3082POPC   C4B40714  12.462  21.204   7.503
 3083POPC   NC340715  35.963   3.405   9.483
 3083POPC   PO440716  36.433   3.908   9.541
 3083POPC   GL140717  36.250   3.681   9.188
 3083POPC   GL240718  35.897   3.832   9.198
 3083POPC   C1A40719  36.202   3.477   8.791
 3083POPC   D2A40720  36.409   3.410   8.413
 3083POPC   C3A40721  36.188   3.571   8.052
 3083POPC   C4A40722  35.950   3.541   7.695
 3083POPC   C1B40723  35.941   3.922   8.797
 3083POPC   C2B40724  35.817   3.709   8.424
 3083POPC   C3B40725  35.782   3.899   8.025
 3083POPC   C4B40726  35.970   4.041   7.653
 3084POPC   NC340727  17.860  43.955   9.511
 3084POPC   PO440728  17.148  43.854   9.489
 3084POPC   GL140729  17.282  43.750   9.092
 3084POPC   GL240730  17.647  43.711   9.099
 3084POPC   C1A40731  17.356  43.891   8.687
 3084POPC   D2A40732  17.419  44.066   8.282
 3084POPC   C3A40733  17.327  43.739   7.988
 3084POPC   C4A40734  17.434  43.647   7.567
 3084POPC   C1B40735  17.862  43.778   8.696
 3084POPC   C2B40736  17.870  43.831   8.232
 3084POPC   C3B40737  17.814  43.531   7.888
 3084POPC   C4B40738  17.768  43.270   7.487
 3085POPC   NC340739  32.618   4.815   9.550
 3085POPC   PO440740  32.161   5.203   9.671
 3085POPC   GL140741  32.236   5.058   9.229
 3085POPC   GL240742  32.030   4.774   9.125
 3085POPC   C1A40743  32.288   5.336   8.850
 3085POPC   D2A40744  32.032   5.465   8.483
 3085POPC   C3A40745  32.166   5.445   8.031
 3085POPC   C4A40746  32.087   5.264   7.568
 3085POPC   C1B40747  32.178   4.803   8.701
 3085POPC   C2B40748  32.294   5.017   8.320
 3085POPC   C3B40749  32.374   4.987   7.877
 3085POPC   C4B40750  32.356   4.852   7.446
 3086POPC   NC340751  15.061  14.734   9.515
 3086POPC   PO440752  15.315  14.206   9.777
 3086POPC   GL140753  15.298  14.286   9.297
 3086POPC   GL240754  14.966  14.316   9.165
 3086POPC   C1A40755  15.298  14.185   8.828
 3086POPC   D2A40756  15.027  14.227   8.484
 3086POPC   C3A40757  15.228  14.111   8.118
 3086POPC   C4A40758  15.383  14.265   7.753
 3086POPC   C1B40759  14.866  14.608   8.837
 3086POPC   C2B40760  15.018  14.748   8.456
 3086POPC   C3B40761  14.987  14.576   8.059
 3086POPC   C4B40762  15.161  14.715   7.662
 3087POPC   NC340763   3.807  41.940   9.411
 3087POPC   PO440764   3.276  41.613   9.252
 3087POPC   GL140765   3.574  41.368   9.030
 3087POPC   GL240766   3.925  41.382   9.093
 3087POPC   C1A40767   3.574  41.449   8.607
 3087POPC   D2A40768   3.220  41.634   8.391
 3087POPC   C3A40769   3.311  41.739   7.987
 3087POPC   C4A40770   3.272  41.541   7.579
 3087POPC   C1B40771   3.888  41.040   8.767
 3087POPC   C2B40772   3.702  41.022   8.352
 3087POPC   C3B40773   3.671  41.356   8.071
 3087POPC   C4B40774   3.889  41.243   7.705
 3088POPC   NC340775  20.284  19.505   9.440
 3088POPC   PO440776  20.245  18.832   9.364
 3088POPC   GL140777  19.982  19.096   9.150
 3088POPC   GL240778  19.686  18.929   9.130
 3088POPC   C1A40779  20.027  19.071   8.710
 3088POPC   D2A40780  20.083  19.187   8.291
 3088POPC   C3A40781  20.095  19.057   7.858
 3088POPC   C4A40782  19.956  19.211   7.444
 3088POPC   C1B40783  19.496  19.233   8.866
 3088POPC   C2B40784  19.599  19.258   8.452
 3088POPC   C3B40785  19.597  19.107   8.069
 3088POPC   C4B40786  19.596  18.954   7.693
 3089POPC   NC340787  40.623  17.504   9.435
 3089POPC   PO440788  41.178  17.003   9.261
 3089POPC   GL140789  40.981  17.371   9.072
 3089POPC   GL240790  41.029  17.721   9.181
 3089POPC   C1A40791  40.607  17.454   8.789
 3089POPC   D2A40792  40.473  17.276   8.414
 3089POPC   C3A40793  40.830  17.150   8.183
 3089POPC   C4A40794  40.839  17.281   7.768
 3089POPC   C1B40795  41.062  17.734   8.727
 3089POPC   C2B40796  40.810  17.660   8.357
 3089POPC   C3B40797  40.534  17.643   8.008
 3089POPC   C4B40798  40.872  17.769   7.792
 3090POPC   NC340799  17.954  10.091   9.525
 3090POPC   PO440800  17.494   9.676   9.715
 3090POPC   GL140801  17.476   9.728   9.263
 3090POPC   GL240802  17.285   9.992   9.181
 3090POPC   C1A40803  17.673   9.630   8.852
 3090POPC   D2A40804  17.448   9.457   8.500
 3090POPC   C3A40805  17.554   9.303   8.112
 3090POPC   C4A40806  17.324   9.347   7.738
 3090POPC   C1B40807  17.524  10.125   8.785
 3090POPC   C2B40808  17.670   9.901   8.380
 3090POPC   C3B40809  17.557   9.821   7.956
 3090POPC   C4B40810  17.135   9.794   7.813
 3091POPC   NC340811  13.966  26.792   9.473
 3091POPC   PO440812  13.317  26.752   9.615
 3091POPC   GL140813  13.516  26.654   9.244
 3091POPC   GL240814  13.614  26.943   9.129
 3091POPC   C1A40815  13.403  26.616   8.771
 3091POPC   D2A40816  13.478  26.496   8.308
 3091POPC   C3A40817  13.774  26.536   7.927
 3091POPC   C4A40818  13.434  26.642   7.589
 3091POPC   C1B40819  13.862  26.809   8.791
 3091POPC   C2B40820  13.720  26.946   8.400
 3091POPC   C3B40821  13.497  26.929   8.005
 3091POPC   C4B40822  13.843  26.968   7.683
 3092POPC   NC340823  39.308  37.677   9.743
 3092POPC   PO440824  38.890  37.173   9.469
 3092POPC   GL140825  39.024  37.428   9.107
 3092POPC   GL240826  39.195  37.723   9.239
 3092POPC   C1A40827  39.333  37.433   8.774
 3092POPC   D2A40828  39.527  37.297   8.377
 3092POPC   C3A40829  39.308  37.427   8.000
 3092POPC   C4A40830  39.272  37.839   7.827
 3092POPC   C1B40831  39.168  37.901   8.835
 3092POPC   C2B40832  39.155  37.726   8.401
 3092POPC   C3B40833  38.863  37.958   8.152
 3092POPC   C4B40834  38.800  38.058   7.758
 3093POPC   NC340835  22.077  44.958   9.533
 3093POPC   PO440836  22.240   0.528   9.777
 3093POPC   GL140837  22.285   0.434   9.295
 3093POPC   GL240838  22.444   0.116   9.219
 3093POPC   C1A40839  22.207   0.603   8.874
 3093POPC   D2A40840  22.141   0.490   8.445
 3093POPC   C3A40841  22.309   0.730   8.092
 3093POPC   C4A40842  22.146   0.529   7.711
 3093POPC   C1B40843  22.426  44.964   8.815
 3093POPC   C2B40844  22.555   0.155   8.438
 3093POPC   C3B40845  22.406   0.210   8.042
 3093POPC   C4B40846  22.448   0.097   7.631
 3094POPC   NC340847  13.948  31.706   9.474
 3094POPC   PO440848  13.460  31.181   9.477
 3094POPC   GL140849  13.618  31.431   9.143
 3094POPC   GL240850  13.448  31.724   9.008
 3094POPC   C1A40851  13.779  31.400   8.724
 3094POPC   D2A40852  13.921  31.219   8.332
 3094POPC   C3A40853  13.657  31.231   7.964
 3094POPC   C4A40854  13.714  31.564   7.668
 3094POPC   C1B40855  13.513  31.839   8.621
 3094POPC   C2B40856  13.616  31.631   8.285
 3094POPC   C3B40857  13.311  31.616   8.013
 3094POPC   C4B40858  13.351  31.910   7.656
 3095POPC   NC340859   7.120   9.822   9.486
 3095POPC   PO440860   6.537   9.484   9.361
 3095POPC   GL140861   6.808   9.732   9.102
 3095POPC   GL240862   7.045   9.480   9.086
 3095POPC   C1A40863   6.820   9.971   8.738
 3095POPC   D2A40864   6.551   9.915   8.403
 3095POPC   C3A40865   6.735  10.046   8.007
 3095POPC   C4A40866   6.390   9.892   7.741
 3095POPC   C1B40867   6.899   9.457   8.662
 3095POPC   C2B40868   6.964   9.669   8.267
 3095POPC   C3B40869   6.824   9.571   7.848
 3095POPC   C4B40870   6.593   9.186   7.835
 3096POPC   NC340871  12.077   0.297   9.523
 3096POPC   PO440872  11.743   0.852   9.405
 3096POPC   GL140873  11.724   0.458   9.165
 3096POPC   GL240874  11.726   0.082   9.199
 3096POPC   C1A40875  12.013   0.299   8.831
 3096POPC   D2A40876  11.939   0.265   8.389
 3096POPC   C3A40877  12.128   0.273   7.980
 3096POPC   C4A40878  12.394   0.605   7.804
 3096POPC   C1B40879  11.714  44.883   8.771
 3096POPC   C2B40880  11.802  44.781   8.314
 3096POPC   C3B40881  11.716  44.953   7.882
 3096POPC   C4B40882  11.696   0.089   7.417
 3097POPC   NC340883   5.085  25.817   9.396
 3097POPC   PO440884   5.441  26.443   9.366
 3097POPC   GL140885   5.173  26.220   9.080
 3097POPC   GL240886   5.379  25.915   8.995
 3097POPC   C1A40887   4.843  26.270   8.751
 3097POPC   D2A40888   4.659  26.432   8.356
 3097POPC   C3A40889   4.809  26.289   7.919
 3097POPC   C4A40890   5.078  26.392   7.565
 3097POPC   C1B40891   5.046  25.795   8.701
 3097POPC   C2B40892   4.852  25.918   8.289
 3097POPC   C3B40893   4.893  25.775   7.846
 3097POPC   C4B40894   5.201  25.890   7.501
 3098POPC   NC340895  40.959   4.618   9.426
 3098POPC   PO440896  40.602   4.041   9.551
 3098POPC   GL140897  40.744   4.166   9.201
 3098POPC   GL240898  40.571   4.456   9.153
 3098POPC   C1A40899  40.810   4.109   8.781
 3098POPC   D2A40900  40.515   4.170   8.459
 3098POPC   C3A40901  40.655   4.114   8.036
 3098POPC   C4A40902  40.976   4.034   7.736
 3098POPC   C1B40903  40.690   4.638   8.763
 3098POPC   C2B40904  40.508   4.686   8.361
 3098POPC   C3B40905  40.618   4.619   7.918
 3098POPC   C4B40906  41.055   4.512   7.904
 3099POPC   NC340907  18.114  24.954   9.571
 3099POPC   PO440908  18.498  25.511   9.503
 3099POPC   GL140909  18.322  25.223   9.218
 3099POPC   GL240910  18.048  25.468   9.194
 3099POPC   C1A40911  18.175  24.958   8.850
 3099POPC   D2A40912  18.240  25.157   8.462
 3099POPC   C3A40913  18.058  25.017   8.093
 3099POPC   C4A40914  18.165  25.180   7.730
 3099POPC   C1B40915  18.288  25.537   8.830
 3099POPC   C2B40916  18.336  25.672   8.439
 3099POPC   C3B40917  18.285  25.577   8.032
 3099POPC   C4B40918  18.632  25.530   7.752
 3100POPC   NC340919   5.734  11.255   9.602
 3100POPC   PO440920   5.398  10.732   9.454
 3100POPC   GL140921   5.655  11.001   9.164
 3100POPC   GL240922   5.734  11.412   9.110
 3100POPC   C1A40923   5.874  11.068   8.783
 3100POPC   D2A40924   6.064  11.239   8.418
 3100POPC   C3A40925   5.800  11.245   8.061
 3100POPC   C4A40926   5.825  10.998   7.717
 3100POPC   C1B40927   5.926  11.712   8.771
 3100POPC   C2B40928   6.183  11.859   8.403
 3100POPC   C3B40929   6.293  11.558   8.078
 3100POPC   C4B40930   6.067  11.488   7.668
 3101POPC   NC340931   0.704  21.717   9.512
 3101POPC   PO440932   0.070  21.515   9.742
 3101POPC   GL140933   0.295  21.460   9.323
 3101POPC   GL240934   0.481  21.131   9.232
 3101POPC   C1A40935   0.521  21.497   8.894
 3101POPC   D2A40936   0.572  21.369   8.443
 3101POPC   C3A40937   0.405  21.674   8.124
 3101POPC   C4A40938   0.570  21.660   7.702
 3101POPC   C1B40939   0.275  21.062   8.782
 3101POPC   C2B40940   0.142  21.016   8.318
 3101POPC   C3B40941   0.097  21.317   7.934
 3101POPC   C4B40942   0.242  21.317   7.492
 3102POPC   NC340943  19.297  20.714   9.480
 3102POPC   PO440944  18.794  20.261   9.627
 3102POPC   GL140945  18.933  20.464   9.260
 3102POPC   GL240946  18.747  20.776   9.231
 3102POPC   C1A40947  19.120  20.600   8.837
 3102POPC   D2A40948  19.302  20.454   8.416
 3102POPC   C3A40949  19.097  20.645   8.083
 3102POPC   C4A40950  19.113  20.475   7.683
 3102POPC   C1B40951  18.609  20.473   8.892
 3102POPC   C2B40952  18.768  20.418   8.472
 3102POPC   C3B40953  18.714  20.332   8.029
 3102POPC   C4B40954  18.619  20.586   7.694
 3103POPC   NC340955   8.849  10.047   9.348
 3103POPC   PO440956   9.151   9.387   9.442
 3103POPC   GL140957   9.123   9.682   9.122
 3103POPC   GL240958   9.335   9.930   9.168
 3103POPC   C1A40959   9.177   9.648   8.691
 3103POPC   D2A40960   8.885   9.491   8.412
 3103POPC   C3A40961   8.727   9.709   8.085
 3103POPC   C4A40962   8.790   9.683   7.671
 3103POPC   C1B40963   9.123  10.139   8.765
 3103POPC   C2B40964   9.082  10.015   8.313
 3103POPC   C3B40965   9.198   9.896   7.882
 3103POPC   C4B40966   9.206   9.772   7.403
 3104POPC   NC340967  34.585  40.571   9.424
 3104POPC   PO440968  34.079  40.913   9.431
 3104POPC   GL140969  34.290  40.785   9.066
 3104POPC   GL240970  34.629  40.958   9.066
 3104POPC   C1A40971  34.329  40.818   8.638
 3104POPC   D2A40972  34.660  41.034   8.402
 3104POPC   C3A40973  34.706  40.932   7.976
 3104POPC   C4A40974  34.389  41.113   7.775
 3104POPC   C1B40975  34.825  40.712   8.757
 3104POPC   C2B40976  34.926  40.592   8.301
 3104POPC   C3B40977  34.969  40.479   7.825
 3104POPC   C4B40978  34.918  40.428   7.346
 3105POPC   NC340979  15.627   8.967   9.481
 3105POPC   PO440980  16.215   9.008   9.463
 3105POPC   GL140981  16.014   9.101   9.073
 3105POPC   GL240982  15.687   9.305   9.100
 3105POPC   C1A40983  16.153   8.927   8.662
 3105POPC   D2A40984  16.225   8.747   8.241
 3105POPC   C3A40985  16.104   8.848   7.816
 3105POPC   C4A40986  16.260   8.669   7.373
 3105POPC   C1B40987  15.857   9.354   8.673
 3105POPC   C2B40988  15.900   9.152   8.254
 3105POPC   C3B40989  15.843   9.289   7.846
 3105POPC   C4B40990  16.215   9.528   7.799
 3106POPC   NC340991  35.613   0.964   9.348
 3106POPC   PO440992  35.094   1.382   9.478
 3106POPC   GL140993  35.306   1.510   9.122
 3106POPC   GL240994  34.960   1.613   9.037
 3106POPC   C1A40995  35.441   1.265   8.758
 3106POPC   D2A40996  35.167   0.981   8.480
 3106POPC   C3A40997  35.265   1.085   8.062
 3106POPC   C4A40998  35.329   0.859   7.703
 3106POPC   C1B40999  34.941   1.361   8.745
 3106POPC   C2B41000  35.150   1.483   8.382
 3106POPC   C3B41001  35.032   1.547   7.983
 3106POPC   C4B41002  35.133   1.341   7.611
 3107POPC   NC341003  36.493   4.369   9.519
 3107POPC   PO441004  35.765   4.519   9.413
 3107POPC   GL141005  36.150   4.473   9.130
 3107POPC   GL241006  36.269   4.172   9.127
 3107POPC   C1A41007  36.230   4.373   8.681
 3107POPC   D2A41008  35.892   4.227   8.380
 3107POPC   C3A41009  35.817   4.421   7.940
 3107POPC   C4A41010  35.896   4.485   7.440
 3107POPC   C1B41011  36.471   3.943   8.809
 3107POPC   C2B41012  36.296   3.914   8.420
 3107POPC   C3B41013  36.280   4.120   8.047
 3107POPC   C4B41014  36.446   3.894   7.709
 3108POPC   NC341015  34.312  20.445   9.919
 3108POPC   PO441016  33.776  20.578   9.479
 3108POPC   GL141017  33.738  20.675   9.074
 3108POPC   GL241018  33.690  20.351   8.982
 3108POPC   C1A41019  33.950  20.842   8.729
 3108POPC   D2A41020  34.167  20.715   8.379
 3108POPC   C3A41021  33.850  20.814   8.108
 3108POPC   C4A41022  33.803  20.664   7.725
 3108POPC   C1B41023  33.674  20.477   8.515
 3108POPC   C2B41024  33.694  20.311   8.101
 3108POPC   C3B41025  33.487  20.286   7.705
 3108POPC   C4B41026  33.213  20.228   7.321
 3109POPC   NC341027  27.626   1.163   9.574
 3109POPC   PO441028  27.021   1.460   9.449
 3109POPC   GL141029  27.421   1.326   9.133
 3109POPC   GL241030  27.845   1.212   9.121
 3109POPC   C1A41031  27.589   1.319   8.704
 3109POPC   D2A41032  27.785   1.223   8.314
 3109POPC   C3A41033  27.561   1.216   7.931
 3109POPC   C4A41034  27.352   1.561   7.696
 3109POPC   C1B41035  28.055   1.048   8.729
 3109POPC   C2B41036  28.214   0.940   8.319
 3109POPC   C3B41037  28.056   1.066   7.918
 3109POPC   C4B41038  27.948   1.433   7.665
 3110POPC   NC341039  20.053  37.155   9.595
 3110POPC   PO441040  19.708  37.800   9.475
 3110POPC   GL141041  19.918  37.696   9.104
 3110POPC   GL241042  20.193  37.457   9.191
 3110POPC   C1A41043  19.769  37.696   8.681
 3110POPC   D2A41044  19.736  37.423   8.316
 3110POPC   C3A41045  19.633  37.674   7.957
 3110POPC   C4A41046  19.781  38.119   7.818
 3110POPC   C1B41047  20.146  37.357   8.747
 3110POPC   C2B41048  20.246  37.556   8.363
 3110POPC   C3B41049  20.200  37.810   8.047
 3110POPC   C4B41050  20.060  37.712   7.697
 3111POPC   NC341051   2.806  31.967   9.770
 3111POPC   PO441052   3.094  31.484   9.394
 3111POPC   GL141053   2.863  31.512   9.095
 3111POPC   GL241054   2.678  31.801   9.204
 3111POPC   C1A41055   2.846  31.349   8.683
 3111POPC   D2A41056   2.720  31.344   8.246
 3111POPC   C3A41057   3.062  31.265   7.938
 3111POPC   C4A41058   3.058  31.309   7.469
 3111POPC   C1B41059   2.481  31.690   8.818
 3111POPC   C2B41060   2.316  31.714   8.417
 3111POPC   C3B41061   2.492  31.811   8.033
 3111POPC   C4B41062   2.671  31.524   7.762
 3112POPC   NC341063  24.051  35.031   9.431
 3112POPC   PO441064  24.111  34.396   9.409
 3112POPC   GL141065  24.435  34.522   9.102
 3112POPC   GL241066  24.632  34.824   9.194
 3112POPC   C1A41067  24.374  34.680   8.720
 3112POPC   D2A41068  24.178  34.897   8.409
 3112POPC   C3A41069  24.423  34.668   8.153
 3112POPC   C4A41070  24.434  34.532   7.750
 3112POPC   C1B41071  24.895  34.799   8.823
 3112POPC   C2B41072  24.983  34.773   8.376
 3112POPC   C3B41073  24.882  34.784   7.924
 3112POPC   C4B41074  24.942  34.511   7.574
 3113POPC   NC341075  43.397  25.382   9.403
 3113POPC   PO441076  42.879  24.950   9.423
 3113POPC   GL141077  43.042  25.159   9.100
 3113POPC   GL241078  42.923  25.506   9.244
 3113POPC   C1A41079  43.350  25.192   8.760
 3113POPC   D2A41080  43.414  25.535   8.476
 3113POPC   C3A41081  43.543  25.424   8.078
 3113POPC   C4A41082  43.455  25.081   7.821
 3113POPC   C1B41083  43.047  25.586   8.834
 3113POPC   C2B41084  42.917  25.351   8.493
 3113POPC   C3B41085  43.041  25.412   8.082
 3113POPC   C4B41086  42.925  25.177   7.755
 3114POPC   NC341087  21.036   7.826   9.295
 3114POPC   PO441088  20.652   8.387   9.599
 3114POPC   GL141089  20.569   8.240   9.188
 3114POPC   GL241090  20.894   8.370   9.134
 3114POPC   C1A41091  20.346   8.159   8.782
 3114POPC   D2A41092  20.506   8.109   8.371
 3114POPC   C3A41093  20.282   8.043   8.006
 3114POPC   C4A41094  20.388   8.128   7.596
 3114POPC   C1B41095  20.876   8.219   8.716
 3114POPC   C2B41096  21.000   8.147   8.280
 3114POPC   C3B41097  20.829   8.172   7.875
 3114POPC   C4B41098  20.874   8.286   7.413
 3115POPC   NC341099  12.780  43.939   9.625
 3115POPC   PO441100  12.454  43.713   9.170
 3115POPC   GL141101  12.949  43.728   9.145
 3115POPC   GL241102  13.187  44.016   9.165
 3115POPC   C1A41103  13.292  43.669   8.812
 3115POPC   D2A41104  13.135  43.597   8.385
 3115POPC   C3A41105  12.935  43.861   8.062
 3115POPC   C4A41106  12.999  43.679   7.691
 3115POPC   C1B41107  13.012  44.094   8.730
 3115POPC   C2B41108  12.644  43.979   8.457
 3115POPC   C3B41109  12.451  43.666   8.167
 3115POPC   C4B41110  12.500  43.747   7.751
 3116POPC   NC341111  18.612  21.287   9.466
 3116POPC   PO441112  17.858  21.235   9.382
 3116POPC   GL141113  18.208  21.453   9.188
 3116POPC   GL241114  18.337  21.127   9.070
 3116POPC   C1A41115  18.516  21.541   8.828
 3116POPC   D2A41116  18.596  21.724   8.410
 3116POPC   C3A41117  18.532  21.490   7.991
 3116POPC   C4A41118  18.358  21.612   7.573
 3116POPC   C1B41119  18.049  21.277   8.735
 3116POPC   C2B41120  18.111  21.508   8.348
 3116POPC   C3B41121  17.986  21.504   7.912
 3116POPC   C4B41122  18.017  21.246   7.522
 3117POPC   NC341123  16.801  14.056   9.823
 3117POPC   PO441124  17.040  14.514   9.426
 3117POPC   GL141125  16.813  14.447   9.078
 3117POPC   GL241126  16.580  14.136   9.125
 3117POPC   C1A41127  16.879  14.751   8.722
 3117POPC   D2A41128  17.143  14.789   8.352
 3117POPC   C3A41129  16.998  14.425   8.170
 3117POPC   C4A41130  16.827  14.421   7.780
 3117POPC   C1B41131  16.371  14.458   8.826
 3117POPC   C2B41132  16.473  14.629   8.402
 3117POPC   C3B41133  16.354  14.557   7.962
 3117POPC   C4B41134  16.306  14.142   7.743
 3118POPC   NC341135   7.663  26.338   9.428
 3118POPC   PO441136   7.728  27.078   9.523
 3118POPC   GL141137   7.503  26.869   9.182
 3118POPC   GL241138   7.678  26.620   9.005
 3118POPC   C1A41139   7.386  26.977   8.759
 3118POPC   D2A41140   7.551  26.837   8.364
 3118POPC   C3A41141   7.404  27.106   8.039
 3118POPC   C4A41142   7.199  27.143   7.669
 3118POPC   C1B41143   7.802  26.444   8.628
 3118POPC   C2B41144   8.042  26.283   8.287
 3118POPC   C3B41145   7.890  26.425   7.877
 3118POPC   C4B41146   7.575  26.738   7.710
 3119POPC   NC341147   1.980   6.272   9.502
 3119POPC   PO441148   2.345   6.788   9.543
 3119POPC   GL141149   2.339   6.860   9.161
 3119POPC   GL241150   2.027   6.638   9.109
 3119POPC   C1A41151   2.195   7.010   8.790
 3119POPC   D2A41152   2.160   6.669   8.517
 3119POPC   C3A41153   2.264   6.629   8.085
 3119POPC   C4A41154   2.095   6.729   7.672
 3119POPC   C1B41155   1.800   6.393   8.792
 3119POPC   C2B41156   1.691   6.455   8.356
 3119POPC   C3B41157   1.521   6.299   7.995
 3119POPC   C4B41158   1.652   6.493   7.647
 3120POPC   NC341159  37.582  27.983   9.335
 3120POPC   PO441160  37.795  27.362   9.491
 3120POPC   GL141161  37.676  27.499   9.114
 3120POPC   GL241162  37.745  27.158   9.025
 3120POPC   C1A41163  37.779  27.768   8.739
 3120POPC   D2A41164  37.598  27.796   8.323
 3120POPC   C3A41165  37.612  27.821   7.866
 3120POPC   C4A41166  37.950  27.924   7.630
 3120POPC   C1B41167  37.603  27.298   8.634
 3120POPC   C2B41168  37.651  27.286   8.232
 3120POPC   C3B41169  37.994  27.081   7.996
 3120POPC   C4B41170  37.708  27.259   7.724
 3121POPC   NC341171  13.444  43.340   9.415
 3121POPC   PO441172  13.834  42.762   9.498
 3121POPC   GL141173  13.908  43.120   9.252
 3121POPC   GL241174  13.962  42.904   9.000
 3121POPC   C1A41175  13.813  43.364   8.859
 3121POPC   D2A41176  13.525  43.292   8.530
 3121POPC   C3A41177  13.670  43.327   8.113
 3121POPC   C4A41178  13.370  43.245   7.782
 3121POPC   C1B41179  13.606  42.821   8.711
 3121POPC   C2B41180  13.569  42.853   8.252
 3121POPC   C3B41181  13.597  42.760   7.810
 3121POPC   C4B41182  13.832  42.699   7.402
 3122POPC   NC341183  27.419   7.557   5.433
 3122POPC   PO441184  28.033   7.159   5.441
 3122POPC   GL141185  27.726   7.256   5.800
 3122POPC   GL241186  27.791   7.566   5.977
 3122POPC   C1A41187  27.453   7.248   6.226
 3122POPC   D2A41188  27.460   7.552   6.606
 3122POPC   C3A41189  27.188   7.512   6.970
 3122POPC   C4A41190  27.405   7.199   7.214
 3122POPC   C1B41191  27.966   7.248   6.260
 3122POPC   C2B41192  27.993   7.098   6.672
 3122POPC   C3B41193  27.848   7.382   6.981
 3122POPC   C4B41194  27.586   7.696   7.188
 3123POPC   NC341195  33.027   9.014   5.452
 3123POPC   PO441196  32.864   9.606   5.011
 3123POPC   GL141197  33.147   9.483   5.552
 3123POPC   GL241198  32.894   9.324   5.831
 3123POPC   C1A41199  33.316   9.214   6.030
 3123POPC   D2A41200  33.171   8.822   6.327
 3123POPC   C3A41201  33.211   8.797   6.806
 3123POPC   C4A41202  33.015   8.731   7.246
 3123POPC   C1B41203  32.798   9.178   6.229
 3123POPC   C2B41204  32.767   9.011   6.635
 3123POPC   C3B41205  32.909   9.193   7.019
 3123POPC   C4B41206  32.922   9.192   7.460
 3124POPC   NC341207  23.401   0.972   5.581
 3124POPC   PO441208  23.919   1.168   5.215
 3124POPC   GL141209  24.011   1.227   5.695
 3124POPC   GL241210  23.699   1.230   5.895
 3124POPC   C1A41211  24.143   1.323   6.141
 3124POPC   D2A41212  23.839   1.225   6.488
 3124POPC   C3A41213  23.927   1.346   6.918
 3124POPC   C4A41214  23.859   1.060   7.242
 3124POPC   C1B41215  23.354   1.149   6.218
 3124POPC   C2B41216  23.306   1.344   6.612
 3124POPC   C3B41217  23.441   1.182   6.990
 3124POPC   C4B41218  23.313   1.072   7.410
 3125POPC   NC341219  14.018  24.587   5.554
 3125POPC   PO441220  14.551  24.635   5.284
 3125POPC   GL141221  14.562  24.642   5.761
 3125POPC   GL241222  14.313  24.827   5.969
 3125POPC   C1A41223  14.614  24.440   6.218
 3125POPC   D2A41224  14.644  24.324   6.710
 3125POPC   C3A41225  14.617  24.412   7.193
 3125POPC   C4A41226  14.613  24.387   7.663
 3125POPC   C1B41227  14.194  24.660   6.408
 3125POPC   C2B41228  14.304  24.717   6.861
 3125POPC   C3B41229  14.302  24.848   7.290
 3125POPC   C4B41230  14.141  24.658   7.669
 3126POPC   NC341231  25.806  10.595   5.668
 3126POPC   PO441232  26.440  10.329   5.402
 3126POPC   GL141233  26.216  10.311   5.845
 3126POPC   GL241234  26.110  10.634   6.064
 3126POPC   C1A41235  26.269  10.227   6.329
 3126POPC   D2A41236  26.534  10.224   6.737
 3126POPC   C3A41237  26.349  10.500   7.059
 3126POPC   C4A41238  26.128  10.421   7.449
 3126POPC   C1B41239  25.776  10.404   6.297
 3126POPC   C2B41240  25.771  10.439   6.730
 3126POPC   C3B41241  25.735  10.498   7.154
 3126POPC   C4B41242  25.723  10.736   7.487
 3127POPC   NC341243  22.564  20.641   5.068
 3127POPC   PO441244  23.110  20.724   5.389
 3127POPC   GL141245  22.949  20.632   5.784
 3127POPC   GL241246  22.816  20.306   5.826
 3127POPC   C1A41247  22.816  20.748   6.186
 3127POPC   D2A41248  22.862  20.929   6.573
 3127POPC   C3A41249  23.127  20.868   6.862
 3127POPC   C4A41250  22.952  20.929   7.294
 3127POPC   C1B41251  23.092  20.307   6.173
 3127POPC   C2B41252  22.892  20.387   6.580
 3127POPC   C3B41253  22.849  20.468   7.017
 3127POPC   C4B41254  23.152  20.470   7.357
 3128POPC   NC341255  36.131  32.509   5.375
 3128POPC   PO441256  35.685  32.045   5.500
 3128POPC   GL141257  35.934  32.296   5.806
 3128POPC   GL241258  35.900  32.686   5.807
 3128POPC   C1A41259  36.089  32.129   6.179
 3128POPC   D2A41260  35.829  32.019   6.489
 3128POPC   C3A41261  36.059  31.954   6.817
 3128POPC   C4A41262  36.054  32.006   7.232
 3128POPC   C1B41263  36.221  32.637   6.140
 3128POPC   C2B41264  36.183  32.465   6.580
 3128POPC   C3B41265  35.974  32.432   6.970
 3128POPC   C4B41266  35.953  32.519   7.388
 3129POPC   NC341267  13.371  34.604   5.588
 3129POPC   PO441268  14.016  34.328   5.425
 3129POPC   GL141269  13.800  34.463   5.858
 3129POPC   GL241270  13.466  34.553   6.053
 3129POPC   C1A41271  13.831  34.345   6.306
 3129POPC   D2A41272  13.791  34.600   6.664
 3129POPC   C3A41273  13.732  34.405   7.035
 3129POPC   C4A41274  13.768  34.605   7.392
 3129POPC   C1B41275  13.294  34.428   6.402
 3129POPC   C2B41276  13.284  34.583   6.813
 3129POPC   C3B41277  13.262  34.553   7.253
 3129POPC   C4B41278  13.339  34.800   7.626
 3130POPC   NC341279  31.181  12.074   5.250
 3130POPC   PO441280  31.710  12.338   5.411
 3130POPC   GL141281  31.474  12.056   5.729
 3130POPC   GL241282  31.144  11.926   5.748
 3130POPC   C1A41283  31.518  11.838   6.137
 3130POPC   D2A41284  31.388  11.675   6.530
 3130POPC   C3A41285  31.395  11.894   6.880
 3130POPC   C4A41286  31.449  11.837   7.296
 3130POPC   C1B41287  31.167  12.208   6.113
 3130POPC   C2B41288  31.071  12.185   6.553
 3130POPC   C3B41289  30.988  12.183   6.980
 3130POPC   C4B41290  31.362  12.309   7.187
 3131POPC   NC341291  37.155  22.473   5.641
 3131POPC   PO441292  36.640  22.091   5.303
 3131POPC   GL141293  36.656  22.313   5.701
 3131POPC   GL241294  36.805  22.024   5.831
 3131POPC   C1A41295  36.531  22.286   6.161
 3131POPC   D2A41296  36.718  22.377   6.566
 3131POPC   C3A41297  36.964  22.250   6.885
 3131POPC   C4A41298  36.777  22.384   7.274
 3131POPC   C1B41299  37.047  22.178   6.218
 3131POPC   C2B41300  37.333  22.048   6.556
 3131POPC   C3B41301  37.429  22.036   6.987
 3131POPC   C4B41302  37.394  21.777   7.312
 3132POPC   NC341303  20.479  20.024   5.608
 3132POPC   PO441304  20.099  19.420   5.518
 3132POPC   GL141305  20.362  19.633   5.886
 3132POPC   GL241306  20.719  19.743   5.972
 3132POPC   C1A41307  20.312  19.966   6.235
 3132POPC   D2A41308  20.550  20.027   6.613
 3132POPC   C3A41309  20.619  19.742   6.973
 3132POPC   C4A41310  20.694  20.103   7.231
 3132POPC   C1B41311  20.755  19.603   6.391
 3132POPC   C2B41312  21.056  19.668   6.731
 3132POPC   C3B41313  21.093  19.783   7.171
 3132POPC   C4B41314  21.021  19.909   7.598
 3133POPC   NC341315  21.927   7.000   5.382
 3133POPC   PO441316  22.181   6.351   5.292
 3133POPC   GL141317  22.268   6.546   5.732
 3133POPC   GL241318  21.953   6.720   5.825
 3133POPC   C1A41319  22.391   6.619   6.202
 3133POPC   D2A41320  22.452   6.447   6.650
 3133POPC   C3A41321  22.212   6.553   7.058
 3133POPC   C4A41322  22.258   6.825   7.441
 3133POPC   C1B41323  21.877   6.623   6.266
 3133POPC   C2B41324  21.976   6.792   6.673
 3133POPC   C3B41325  21.831   6.914   7.106
 3133POPC   C4B41326  21.765   6.936   7.587
 3134POPC   NC341327  35.146  16.413   5.453
 3134POPC   PO441328  35.259  15.689   5.401
 3134POPC   GL141329  35.396  15.939   5.698
 3134POPC   GL241330  35.084  16.048   5.842
 3134POPC   C1A41331  35.517  15.926   6.121
 3134POPC   D2A41332  35.315  15.907   6.502
 3134POPC   C3A41333  35.554  16.047   6.810
 3134POPC   C4A41334  35.528  15.970   7.190
 3134POPC   C1B41335  35.111  16.298   6.242
 3134POPC   C2B41336  35.203  16.394   6.715
 3134POPC   C3B41337  35.094  16.260   7.186
 3134POPC   C4B41338  35.038  16.277   7.702
 3135POPC   NC341339  10.416  27.177   5.511
 3135POPC   PO441340  10.577  26.469   5.459
 3135POPC   GL141341  10.398  26.728   5.802
 3135POPC   GL241342  10.344  27.047   5.970
 3135POPC   C1A41343  10.256  26.624   6.237
 3135POPC   D2A41344  10.416  26.402   6.599
 3135POPC   C3A41345  10.568  26.568   6.972
 3135POPC   C4A41346  10.465  26.760   7.351
 3135POPC   C1B41347  10.664  26.936   6.223
 3135POPC   C2B41348  10.490  26.915   6.599
 3135POPC   C3B41349  10.490  27.084   6.965
 3135POPC   C4B41350  10.178  27.209   7.286
 3136POPC   NC341351  39.691  18.906   5.082
 3136POPC   PO441352  40.010  19.365   5.495
 3136POPC   GL141353  39.946  19.093   5.835
 3136POPC   GL241354  39.617  19.228   5.791
 3136POPC   C1A41355  39.813  18.956   6.259
 3136POPC   D2A41356  39.692  18.937   6.700
 3136POPC   C3A41357  40.068  18.981   7.013
 3136POPC   C4A41358  40.444  18.989   7.312
 3136POPC   C1B41359  39.740  19.457   6.171
 3136POPC   C2B41360  39.893  19.412   6.597
 3136POPC   C3B41361  39.715  19.354   7.004
 3136POPC   C4B41362  39.578  18.968   7.196
 3137POPC   NC341363  20.270  29.202   5.495
 3137POPC   PO441364  20.871  29.333   5.728
 3137POPC   GL141365  20.489  29.302   5.932
 3137POPC   GL241366  20.559  28.977   5.998
 3137POPC   C1A41367  20.503  29.449   6.310
 3137POPC   D2A41368  20.747  29.368   6.659
 3137POPC   C3A41369  20.575  29.457   7.020
 3137POPC   C4A41370  20.188  29.629   7.131
 3137POPC   C1B41371  20.319  28.976   6.340
 3137POPC   C2B41372  20.441  28.934   6.723
 3137POPC   C3B41373  20.570  28.968   7.104
 3137POPC   C4B41374  20.155  29.112   7.177
 3138POPC   NC341375  15.983  18.928   5.619
 3138POPC   PO441376  15.318  18.769   5.488
 3138POPC   GL141377  15.582  18.811   5.905
 3138POPC   GL241378  15.629  19.153   6.002
 3138POPC   C1A41379  15.888  18.576   6.214
 3138POPC   D2A41380  15.859  18.439   6.630
 3138POPC   C3A41381  15.676  18.773   6.872
 3138POPC   C4A41382  15.819  19.033   7.220
 3138POPC   C1B41383  16.016  19.062   6.259
 3138POPC   C2B41384  16.299  18.800   6.517
 3138POPC   C3B41385  16.349  18.977   6.947
 3138POPC   C4B41386  16.220  19.351   7.208
 3139POPC   NC341387  37.715  12.789   5.447
 3139POPC   PO441388  37.975  13.455   5.433
 3139POPC   GL141389  37.754  13.238   5.816
 3139POPC   GL241390  37.570  12.896   5.910
 3139POPC   C1A41391  37.835  13.098   6.271
 3139POPC   D2A41392  37.836  12.758   6.584
 3139POPC   C3A41393  37.815  12.960   6.990
 3139POPC   C4A41394  37.475  13.190   7.208
 3139POPC   C1B41395  37.556  12.504   6.165
 3139POPC   C2B41396  37.432  12.355   6.568
 3139POPC   C3B41397  37.499  12.556   6.947
 3139POPC   C4B41398  37.433  12.328   7.288
 3140POPC   NC341399   9.225   8.485   5.548
 3140POPC   PO441400   8.906   7.836   5.482
 3140POPC   GL141401   9.019   7.996   5.914
 3140POPC   GL241402   8.922   8.334   5.903
 3140POPC   C1A41403   9.122   7.953   6.395
 3140POPC   D2A41404   8.858   7.969   6.764
 3140POPC   C3A41405   8.915   8.317   7.041
 3140POPC   C4A41406   9.156   8.217   7.398
 3140POPC   C1B41407   9.265   8.396   6.199
 3140POPC   C2B41408   9.172   8.450   6.629
 3140POPC   C3B41409   9.363   8.573   7.052
 3140POPC   C4B41410   9.420   8.609   7.558
 3141POPC   NC341411  42.186  31.735   5.061
 3141POPC   PO441412  42.631  31.263   5.346
 3141POPC   GL141413  42.492  31.555   5.698
 3141POPC   GL241414  42.465  31.314   5.995
 3141POPC   C1A41415  42.122  31.682   5.971
 3141POPC   D2A41416  42.149  31.463   6.387
 3141POPC   C3A41417  42.346  31.476   6.794
 3141POPC   C4A41418  42.079  31.235   7.085
 3141POPC   C1B41419  42.355  30.979   6.369
 3141POPC   C2B41420  42.544  30.971   6.806
 3141POPC   C3B41421  42.575  31.218   7.197
 3141POPC   C4B41422  42.266  31.121   7.540
 3142POPC   NC341423   0.653  21.067   5.380
 3142POPC   PO441424   0.087  21.505   5.477
 3142POPC   GL141425   0.327  21.276   5.767
 3142POPC   GL241426   0.664  21.423   5.762
 3142POPC   C1A41427   0.247  21.200   6.196
 3142POPC   D2A41428   0.351  21.443   6.544
 3142POPC   C3A41429   0.273  21.370   6.957
 3142POPC   C4A41430   0.323  21.745   7.217
 3142POPC   C1B41431   0.744  21.444   6.199
 3142POPC   C2B41432   0.844  21.249   6.587
 3142POPC   C3B41433   0.752  21.218   7.023
 3142POPC   C4B41434   0.818  21.561   7.271
 3143POPC   NC341435  37.845  40.566   5.502
 3143POPC   PO441436  37.335  40.930   5.370
 3143POPC   GL141437  37.502  40.815   5.793
 3143POPC   GL241438  37.433  40.470   5.771
 3143POPC   C1A41439  37.596  40.915   6.249
 3143POPC   D2A41440  37.618  40.849   6.711
 3143POPC   C3A41441  38.018  40.856   6.932
 3143POPC   C4A41442  37.856  40.903   7.293
 3143POPC   C1B41443  37.652  40.415   6.172
 3143POPC   C2B41444  37.832  40.357   6.596
 3143POPC   C3B41445  37.733  40.449   7.028
 3143POPC   C4B41446  37.692  40.434   7.443
 3144POPC   NC341447  41.091  17.270   5.422
 3144POPC   PO441448  40.646  17.633   5.117
 3144POPC   GL141449  40.876  17.644   5.641
 3144POPC   GL241450  40.761  17.309   5.790
 3144POPC   C1A41451  40.803  17.670   6.138
 3144POPC   D2A41452  40.736  17.523   6.564
 3144POPC   C3A41453  40.987  17.694   6.903
 3144POPC   C4A41454  40.969  17.597   7.323
 3144POPC   C1B41455  40.686  17.144   6.167
 3144POPC   C2B41456  40.432  17.082   6.505
 3144POPC   C3B41457  40.562  17.067   6.895
 3144POPC   C4B41458  40.670  17.107   7.328
 3145POPC   NC341459  32.735  33.253   5.455
 3145POPC   PO441460  33.242  32.688   5.437
 3145POPC   GL141461  33.319  32.859   5.842
 3145POPC   GL241462  33.284  33.230   5.862
 3145POPC   C1A41463  33.075  32.778   6.218
 3145POPC   D2A41464  32.707  32.916   6.458
 3145POPC   C3A41465  32.901  32.896   6.873
 3145POPC   C4A41466  32.844  32.844   7.322
 3145POPC   C1B41467  32.977  33.298   6.183
 3145POPC   C2B41468  32.927  33.363   6.632
 3145POPC   C3B41469  33.212  33.284   6.988
 3145POPC   C4B41470  33.260  33.201   7.416
 3146POPC   NC341471  10.836   7.212   5.496
 3146POPC   PO441472  11.478   7.407   5.458
 3146POPC   GL141473  11.319   7.423   5.877
 3146POPC   GL241474  11.050   7.293   5.988
 3146POPC   C1A41475  11.444   7.234   6.312
 3146POPC   D2A41476  11.670   7.268   6.713
 3146POPC   C3A41477  11.355   7.198   6.976
 3146POPC   C4A41478  11.344   7.041   7.387
 3146POPC   C1B41479  11.092   7.596   6.357
 3146POPC   C2B41480  10.941   7.486   6.792
 3146POPC   C3B41481  10.967   7.600   7.240
 3146POPC   C4B41482  11.056   7.398   7.631
 3147POPC   NC341483  39.109  26.129   5.024
 3147POPC   PO441484  39.522  25.966   5.589
 3147POPC   GL141485  39.186  26.004   5.857
 3147POPC   GL241486  39.018  25.687   5.751
 3147POPC   C1A41487  39.290  26.174   6.278
 3147POPC   D2A41488  39.375  26.005   6.702
 3147POPC   C3A41489  39.079  26.121   7.024
 3147POPC   C4A41490  39.031  26.080   7.465
 3147POPC   C1B41491  39.151  25.649   6.202
 3147POPC   C2B41492  39.017  25.468   6.571
 3147POPC   C3B41493  38.977  25.627   6.967
 3147POPC   C4B41494  39.075  25.588   7.397
 3148POPC   NC341495  35.715   5.060   5.490
 3148POPC   PO441496  35.229   5.453   5.362
 3148POPC   GL141497  35.221   5.066   5.662
 3148POPC   GL241498  35.331   5.290   5.895
 3148POPC   C1A41499  35.436   4.824   6.073
 3148POPC   D2A41500  35.557   4.726   6.526
 3148POPC   C3A41501  35.296   4.828   6.869
 3148POPC   C4A41502  35.436   4.896   7.285
 3148POPC   C1B41503  35.003   5.096   6.161
 3148POPC   C2B41504  35.024   5.189   6.598
 3148POPC   C3B41505  35.322   5.319   6.926
 3148POPC   C4B41506  35.108   5.295   7.274
 3149POPC   NC341507   3.928   7.911   5.444
 3149POPC   PO441508   3.388   8.211   5.426
 3149POPC   GL141509   3.222   8.334   5.813
 3149POPC   GL241510   3.468   8.087   5.911
 3149POPC   C1A41511   3.449   8.489   6.202
 3149POPC   D2A41512   3.634   8.450   6.606
 3149POPC   C3A41513   3.384   8.398   6.949
 3149POPC   C4A41514   3.499   8.471   7.357
 3149POPC   C1B41515   3.764   8.082   6.235
 3149POPC   C2B41516   3.592   7.957   6.628
 3149POPC   C3B41517   3.629   7.924   7.024
 3149POPC   C4B41518   3.436   7.935   7.391
 3150POPC   NC341519  36.243  22.322   5.260
 3150POPC   PO441520  35.642  22.232   5.368
 3150POPC   GL141521  35.933  22.229   5.773
 3150POPC   GL241522  36.252  22.002   5.751
 3150POPC   C1A41523  35.993  22.095   6.233
 3150POPC   D2A41524  35.833  21.878   6.627
 3150POPC   C3A41525  35.877  22.137   7.017
 3150POPC   C4A41526  35.687  22.075   7.432
 3150POPC   C1B41527  36.398  21.783   6.140
 3150POPC   C2B41528  36.346  21.908   6.573
 3150POPC   C3B41529  36.475  22.078   6.960
 3150POPC   C4B41530  36.457  21.984   7.400
 3151POPC   NC341531  34.779  29.839   5.449
 3151POPC   PO441532  34.125  29.914   5.356
 3151POPC   GL141533  34.361  29.812   5.743
 3151POPC   GL241534  34.443  30.126   5.765
 3151POPC   C1A41535  34.624  29.775   6.132
 3151POPC   D2A41536  34.505  29.892   6.561
 3151POPC   C3A41537  34.712  29.835   6.954
 3151POPC   C4A41538  34.497  29.651   7.358
 3151POPC   C1B41539  34.294  30.176   6.177
 3151POPC   C2B41540  34.520  30.455   6.451
 3151POPC   C3B41541  34.558  30.392   6.882
 3151POPC   C4B41542  34.577  30.168   7.305
 3152POPC   NC341543  33.573  38.134   5.670
 3152POPC   PO441544  34.072  38.601   5.444
 3152POPC   GL141545  33.831  38.562   5.837
 3152POPC   GL241546  33.930  38.878   5.864
 3152POPC   C1A41547  33.691  38.420   6.272
 3152POPC   D2A41548  33.746  38.172   6.651
 3152POPC   C3A41549  33.627  38.388   7.046
 3152POPC   C4A41550  33.618  38.207   7.440
 3152POPC   C1B41551  34.068  38.789   6.268
 3152POPC   C2B41552  33.852  38.714   6.674
 3152POPC   C3B41553  33.962  38.824   7.101
 3152POPC   C4B41554  33.955  38.567   7.488
 3153POPC   NC341555  44.581  18.647   5.418
 3153POPC   PO441556  44.280  19.283   5.491
 3153POPC   GL141557  44.593  19.102   5.803
 3153POPC   GL241558  44.642  18.746   5.913
 3153POPC   C1A41559  44.504  19.108   6.244
 3153POPC   D2A41560  44.318  18.829   6.561
 3153POPC   C3A41561  44.430  18.894   6.982
 3153POPC   C4A41562  44.760  19.122   7.226
 3153POPC   C1B41563  44.914  18.815   6.274
 3153POPC   C2B41564  44.968  18.960   6.728
 3153POPC   C3B41565   0.066  18.713   7.113
 3153POPC   C4B41566  44.803  18.673   7.493
 3154POPC   NC341567  19.539  43.211   5.534
 3154POPC   PO441568  18.949  42.886   5.594
 3154POPC   GL141569  18.840  43.103   5.941
 3154POPC   GL241570  19.057  43.398   5.884
 3154POPC   C1A41571  18.743  43.019   6.374
 3154POPC   D2A41572  18.767  43.260   6.759
 3154POPC   C3A41573  18.857  43.012   7.138
 3154POPC   C4A41574  19.081  42.997   7.521
 3154POPC   C1B41575  19.271  43.149   6.213
 3154POPC   C2B41576  19.414  43.268   6.596
 3154POPC   C3B41577  19.231  43.378   6.970
 3154POPC   C4B41578  19.416  43.289   7.340
 3155POPC   NC341579   3.086   2.792   5.399
 3155POPC   PO441580   2.436   2.445   5.427
 3155POPC   GL141581   2.523   2.585   5.809
 3155POPC   GL241582   2.710   2.892   5.762
 3155POPC   C1A41583   2.698   2.650   6.215
 3155POPC   D2A41584   2.819   2.913   6.556
 3155POPC   C3A41585   2.568   2.763   6.856
 3155POPC   C4A41586   2.614   2.615   7.240
 3155POPC   C1B41587   2.631   3.155   6.119
 3155POPC   C2B41588   2.372   3.198   6.469
 3155POPC   C3B41589   2.445   3.261   6.880
 3155POPC   C4B41590   2.795   3.154   7.181
 3156POPC   NC341591  15.842  13.007   5.462
 3156POPC   PO441592  16.433  12.536   5.316
 3156POPC   GL141593  16.132  12.554   5.686
 3156POPC   GL241594  15.773  12.589   5.745
 3156POPC   C1A41595  16.097  12.795   6.089
 3156POPC   D2A41596  15.975  12.877   6.516
 3156POPC   C3A41597  16.266  12.903   6.855
 3156POPC   C4A41598  16.154  12.832   7.270
 3156POPC   C1B41599  15.628  12.577   6.174
 3156POPC   C2B41600  15.740  12.421   6.567
 3156POPC   C3B41601  15.832  12.607   6.959
 3156POPC   C4B41602  15.697  12.518   7.392
 3157POPC   NC341603   6.937  27.136   5.504
 3157POPC   PO441604   6.803  27.677   5.187
 3157POPC   GL141605   6.697  27.594   5.661
 3157POPC   GL241606   6.323  27.518   5.704
 3157POPC   C1A41607   6.698  27.611   6.150
 3157POPC   D2A41608   6.578  27.925   6.497
 3157POPC   C3A41609   6.752  28.009   6.932
 3157POPC   C4A41610   6.794  27.963   7.401
 3157POPC   C1B41611   6.287  27.304   6.118
 3157POPC   C2B41612   6.426  27.283   6.527
 3157POPC   C3B41613   6.645  27.496   6.816
 3157POPC   C4B41614   6.466  27.653   7.193
 3158POPC   NC341615  29.042  43.814   5.402
 3158POPC   PO441616  29.156  44.348   5.744
 3158POPC   GL141617  29.213  43.939   5.891
 3158POPC   GL241618  29.503  43.716   5.748
 3158POPC   C1A41619  29.095  43.971   6.339
 3158POPC   D2A41620  29.265  44.065   6.733
 3158POPC   C3A41621  29.022  43.856   7.019
 3158POPC   C4A41622  28.982  43.686   7.421
 3158POPC   C1B41623  29.417  43.596   6.208
 3158POPC   C2B41624  29.295  43.545   6.660
 3158POPC   C3B41625  29.482  43.628   7.055
 3158POPC   C4B41626  29.668  43.406   7.359
 3159POPC   NC341627  15.649  35.862   5.310
 3159POPC   PO441628  16.057  36.265   5.565
 3159POPC   GL141629  15.972  36.055   5.939
 3159POPC   GL241630  15.854  35.704   5.848
 3159POPC   C1A41631  16.073  36.176   6.387
 3159POPC   D2A41632  16.347  36.203   6.762
 3159POPC   C3A41633  16.127  36.089   7.162
 3159POPC   C4A41634  15.792  36.216   7.454
 3159POPC   C1B41635  15.821  35.726   6.326
 3159POPC   C2B41636  15.781  35.814   6.788
 3159POPC   C3B41637  15.862  35.663   7.207
 3159POPC   C4B41638  15.946  35.303   7.486
 3160POPC   NC341639  22.572   3.443   5.330
 3160POPC   PO441640  21.871   3.633   5.402
 3160POPC   GL141641  22.106   3.730   5.771
 3160POPC   GL241642  21.885   3.939   5.966
 3160POPC   C1A41643  22.217   3.583   6.170
 3160POPC   D2A41644  22.253   3.592   6.600
 3160POPC   C3A41645  22.030   3.257   6.847
 3160POPC   C4A41646  21.893   3.289   7.273
 3160POPC   C1B41647  21.863   3.924   6.390
 3160POPC   C2B41648  21.739   3.656   6.657
 3160POPC   C3B41649  21.949   3.744   7.005
 3160POPC   C4B41650  22.258   3.677   7.263
 3161POPC   NC341651  24.122   0.283   5.572
 3161POPC   PO441652  24.764   0.133   5.505
 3161POPC   GL141653  24.599   0.386   5.845
 3161POPC   GL241654  24.319   0.223   6.030
 3161POPC   C1A41655  24.708   0.506   6.255
 3161POPC   D2A41656  24.437   0.407   6.597
 3161POPC   C3A41657  24.498   0.621   6.981
 3161POPC   C4A41658  24.561   0.303   7.269
 3161POPC   C1B41659  24.215   0.645   6.169
 3161POPC   C2B41660  24.139   0.823   6.575
 3161POPC   C3B41661  23.984   0.651   6.956
 3161POPC   C4B41662  24.113   0.548   7.381
 3162POPC   NC341663  39.382  42.430   5.076
 3162POPC   PO441664  38.954  42.484   5.606
 3162POPC   GL141665  39.297  42.338   5.889
 3162POPC   GL241666  39.585  42.591   6.005
 3162POPC   C1A41667  39.200  42.269   6.318
 3162POPC   D2A41668  39.278  42.410   6.766
 3162POPC   C3A41669  39.321  42.111   7.142
 3162POPC   C4A41670  39.039  42.023   7.526
 3162POPC   C1B41671  39.219  42.779   6.185
 3162POPC   C2B41672  38.927  42.679   6.466
 3162POPC   C3B41673  38.867  42.722   6.897
 3162POPC   C4B41674  39.140  42.592   7.239
 3163POPC   NC341675  17.809  43.345   5.125
 3163POPC   PO441676  17.667  42.730   5.417
 3163POPC   GL141677  17.576  43.001   5.768
 3163POPC   GL241678  17.584  43.375   5.699
 3163POPC   C1A41679  17.664  42.895   6.203
 3163POPC   D2A41680  17.438  42.740   6.566
 3163POPC   C3A41681  17.614  42.883   6.968
 3163POPC   C4A41682  17.350  43.105   7.237
 3163POPC   C1B41683  17.503  43.382   6.156
 3163POPC   C2B41684  17.648  43.270   6.596
 3163POPC   C3B41685  17.597  43.516   7.000
 3163POPC   C4B41686  17.159  43.577   7.155
 3164POPC   NC341687   5.513  38.387   5.432
 3164POPC   PO441688   6.106  38.753   5.535
 3164POPC   GL141689   5.922  38.398   5.800
 3164POPC   GL241690   5.649  38.120   5.878
 3164POPC   C1A41691   6.054  38.382   6.221
 3164POPC   D2A41692   6.107  38.246   6.632
 3164POPC   C3A41693   6.058  38.581   6.936
 3164POPC   C4A41694   5.921  38.900   7.237
 3164POPC   C1B41695   5.651  38.093   6.365
 3164POPC   C2B41696   5.655  38.094   6.818
 3164POPC   C3B41697   5.580  38.146   7.260
 3164POPC   C4B41698   5.702  38.151   7.718
 3165POPC   NC341699  27.715  36.914   5.431
 3165POPC   PO441700  27.062  37.138   5.455
 3165POPC   GL141701  27.352  37.137   5.818
 3165POPC   GL241702  27.714  37.100   5.885
 3165POPC   C1A41703  27.324  37.013   6.276
 3165POPC   D2A41704  27.510  36.654   6.543
 3165POPC   C3A41705  27.535  36.735   7.005
 3165POPC   C4A41706  27.613  37.157   7.211
 3165POPC   C1B41707  27.832  36.995   6.292
 3165POPC   C2B41708  27.727  37.104   6.716
 3165POPC   C3B41709  28.025  36.907   7.067
 3165POPC   C4B41710  28.057  37.095   7.512
 3166POPC   NC341711  32.525   3.983   5.396
 3166POPC   PO441712  32.935   4.567   5.301
 3166POPC   GL141713  32.818   4.339   5.663
 3166POPC   GL241714  32.574   4.522   5.820
 3166POPC   C1A41715  32.933   4.279   6.091
 3166POPC   D2A41716  33.109   4.316   6.506
 3166POPC   C3A41717  32.934   4.190   6.902
 3166POPC   C4A41718  33.228   4.100   7.186
 3166POPC   C1B41719  32.645   4.688   6.235
 3166POPC   C2B41720  32.591   4.467   6.639
 3166POPC   C3B41721  32.605   4.603   7.066
 3166POPC   C4B41722  32.876   4.504   7.423
 3167POPC   NC341723  36.906  30.422   5.391
 3167POPC   PO441724  37.010  31.090   5.412
 3167POPC   GL141725  36.763  30.821   5.758
 3167POPC   GL241726  36.922  30.484   5.903
 3167POPC   C1A41727  36.533  30.680   6.163
 3167POPC   D2A41728  36.569  30.494   6.573
 3167POPC   C3A41729  36.788  30.678   6.897
 3167POPC   C4A41730  36.649  30.696   7.318
 3167POPC   C1B41731  37.070  30.477   6.350
 3167POPC   C2B41732  37.242  30.413   6.766
 3167POPC   C3B41733  37.256  30.672   7.121
 3167POPC   C4B41734  37.007  31.055   7.247
 3168POPC   NC341735  28.752  14.608   5.146
 3168POPC   PO441736  28.368  15.171   5.337
 3168POPC   GL141737  28.402  15.245   5.759
 3168POPC   GL241738  28.742  15.183   5.774
 3168POPC   C1A41739  28.364  15.083   6.176
 3168POPC   D2A41740  28.100  15.079   6.523
 3168POPC   C3A41741  28.350  15.105   6.849
 3168POPC   C4A41742  28.410  14.938   7.222
 3168POPC   C1B41743  28.766  15.393   6.171
 3168POPC   C2B41744  28.817  15.235   6.611
 3168POPC   C3B41745  28.757  15.354   7.039
 3168POPC   C4B41746  28.358  15.450   7.232
 3169POPC   NC341747  21.977  33.440   5.440
 3169POPC   PO441748  22.209  34.076   5.187
 3169POPC   GL141749  22.197  34.076   5.641
 3169POPC   GL241750  21.894  33.903   5.760
 3169POPC   C1A41751  22.260  34.076   6.092
 3169POPC   D2A41752  22.078  33.971   6.500
 3169POPC   C3A41753  22.381  33.979   6.843
 3169POPC   C4A41754  22.383  34.013   7.281
 3169POPC   C1B41755  21.891  33.595   6.122
 3169POPC   C2B41756  21.785  33.535   6.582
 3169POPC   C3B41757  21.916  33.758   6.977
 3169POPC   C4B41758  22.171  33.541   7.279
 3170POPC   NC341759  33.353  37.650   5.055
 3170POPC   PO441760  33.800  37.654   5.614
 3170POPC   GL141761  33.857  37.609   6.013
 3170POPC   GL241762  33.799  37.949   6.122
 3170POPC   C1A41763  33.592  37.510   6.353
 3170POPC   D2A41764  33.480  37.562   6.779
 3170POPC   C3A41765  33.835  37.528   6.986
 3170POPC   C4A41766  34.011  37.905   7.122
 3170POPC   C1B41767  33.349  37.980   6.290
 3170POPC   C2B41768  33.102  37.882   6.664
 3170POPC   C3B41769  33.286  37.951   7.093
 3170POPC   C4B41770  33.586  37.727   7.364
 3171POPC   NC341771  34.083  15.244   5.576
 3171POPC   PO441772  33.500  15.511   5.491
 3171POPC   GL141773  33.632  15.328   5.848
 3171POPC   GL241774  33.691  15.016   5.823
 3171POPC   C1A41775  33.941  15.293   6.202
 3171POPC   D2A41776  33.877  15.498   6.560
 3171POPC   C3A41777  33.991  15.327   6.985
 3171POPC   C4A41778  33.658  15.309   7.266
 3171POPC   C1B41779  33.714  14.834   6.236
 3171POPC   C2B41780  33.851  14.949   6.651
 3171POPC   C3B41781  33.827  14.819   7.097
 3171POPC   C4B41782  33.968  14.964   7.520
 3172POPC   NC341783  16.935  37.146   5.204
 3172POPC   PO441784  16.444  36.700   5.340
 3172POPC   GL141785  16.709  36.728   5.748
 3172POPC   GL241786  16.858  37.068   5.790
 3172POPC   C1A41787  16.622  36.865   6.199
 3172POPC   D2A41788  16.479  36.953   6.627
 3172POPC   C3A41789  16.678  36.640   6.893
 3172POPC   C4A41790  16.831  36.710   7.318
 3172POPC   C1B41791  16.831  37.352   6.151
 3172POPC   C2B41792  16.894  37.304   6.594
 3172POPC   C3B41793  16.834  37.111   6.980
 3172POPC   C4B41794  16.442  37.018   7.186
 3173POPC   NC341795   9.708  25.645   5.408
 3173POPC   PO441796   9.980  25.162   5.467
 3173POPC   GL141797   9.792  25.334   5.814
 3173POPC   GL241798   9.435  25.310   5.709
 3173POPC   C1A41799   9.904  25.224   6.229
 3173POPC   D2A41800  10.075  25.469   6.521
 3173POPC   C3A41801   9.909  25.390   6.870
 3173POPC   C4A41802   9.731  25.192   7.193
 3173POPC   C1B41803   9.384  25.449   6.127
 3173POPC   C2B41804   9.493  25.330   6.542
 3173POPC   C3B41805   9.388  25.519   6.925
 3173POPC   C4B41806   9.644  25.705   7.206
 3174POPC   NC341807   6.423  37.978   5.434
 3174POPC   PO441808   5.738  37.891   5.324
 3174POPC   GL141809   5.915  37.690   5.731
 3174POPC   GL241810   6.167  37.441   5.787
 3174POPC   C1A41811   5.968  37.730   6.207
 3174POPC   D2A41812   5.707  37.613   6.596
 3174POPC   C3A41813   5.833  37.616   7.036
 3174POPC   C4A41814   5.666  37.696   7.443
 3174POPC   C1B41815   6.288  37.334   6.242
 3174POPC   C2B41816   6.216  37.553   6.661
 3174POPC   C3B41817   6.241  37.910   6.995
 3174POPC   C4B41818   6.120  37.922   7.442
 3175POPC   NC341819   6.503  14.267   5.376
 3175POPC   PO441820   6.954  14.729   5.506
 3175POPC   GL141821   6.752  14.421   5.801
 3175POPC   GL241822   6.371  14.432   5.854
 3175POPC   C1A41823   6.834  14.130   6.145
 3175POPC   D2A41824   6.770  14.341   6.548
 3175POPC   C3A41825   6.884  14.216   6.932
 3175POPC   C4A41826   6.785  14.363   7.339
 3175POPC   C1B41827   6.355  14.247   6.269
 3175POPC   C2B41828   6.286  14.227   6.728
 3175POPC   C3B41829   6.429  14.051   7.122
 3175POPC   C4B41830   6.475  14.011   7.598
 3176POPC   NC341831  42.192  38.695   5.531
 3176POPC   PO441832  42.528  38.093   5.581
 3176POPC   GL141833  42.420  38.368   5.883
 3176POPC   GL241834  42.063  38.264   5.853
 3176POPC   C1A41835  42.459  38.692   6.210
 3176POPC   D2A41836  42.653  38.864   6.576
 3176POPC   C3A41837  42.614  38.560   6.876
 3176POPC   C4A41838  42.512  38.468   7.257
 3176POPC   C1B41839  42.127  38.300   6.296
 3176POPC   C2B41840  42.163  38.604   6.621
 3176POPC   C3B41841  42.085  38.688   7.051
 3176POPC   C4B41842  41.977  38.510   7.438
 3177POPC   NC341843   2.490  18.419   5.369
 3177POPC   PO441844   2.887  17.862   5.338
 3177POPC   GL141845   2.828  18.141   5.761
 3177POPC   GL241846   2.562  18.339   5.862
 3177POPC   C1A41847   2.926  18.358   6.214
 3177POPC   D2A41848   2.959  18.655   6.582
 3177POPC   C3A41849   2.840  18.539   7.035
 3177POPC   C4A41850   2.880  18.235   7.368
 3177POPC   C1B41851   2.422  18.416   6.270
 3177POPC   C2B41852   2.614  18.262   6.649
 3177POPC   C3B41853   2.469  18.163   7.060
 3177POPC   C4B41854   2.416  18.455   7.422
 3178POPC   NC341855   7.680  30.556   5.514
 3178POPC   PO441856   7.226  30.966   5.578
 3178POPC   GL141857   7.499  30.873   5.878
 3178POPC   GL241858   7.365  30.551   5.919
 3178POPC   C1A41859   7.499  30.946   6.294
 3178POPC   D2A41860   7.453  31.164   6.654
 3178POPC   C3A41861   7.325  30.923   7.009
 3178POPC   C4A41862   7.129  30.795   7.390
 3178POPC   C1B41863   7.572  30.441   6.288
 3178POPC   C2B41864   7.551  30.582   6.722
 3178POPC   C3B41865   7.644  30.517   7.176
 3178POPC   C4B41866   7.539  30.556   7.621
 3179POPC   NC341867  37.374  27.402   5.603
 3179POPC   PO441868  36.701  27.491   5.494
 3179POPC   GL141869  36.927  27.589   5.849
 3179POPC   GL241870  36.937  27.945   5.893
 3179POPC   C1A41871  36.750  27.599   6.273
 3179POPC   D2A41872  36.465  27.458   6.549
 3179POPC   C3A41873  36.622  27.462   6.972
 3179POPC   C4A41874  36.793  27.430   7.401
 3179POPC   C1B41875  37.225  27.730   6.223
 3179POPC   C2B41876  37.209  27.486   6.621
 3179POPC   C3B41877  37.153  27.644   7.053
 3179POPC   C4B41878  36.904  27.936   7.288
 3180POPC   NC341879  10.575  20.188   5.482
 3180POPC   PO441880  10.298  19.528   5.525
 3180POPC   GL141881  10.474  19.753   5.863
 3180POPC   GL241882  10.307  20.055   5.882
 3180POPC   C1A41883  10.414  19.784   6.331
 3180POPC   D2A41884  10.317  19.639   6.776
 3180POPC   C3A41885  10.601  19.724   7.118
 3180POPC   C4A41886  10.855  20.016   7.402
 3180POPC   C1B41887  10.370  20.286   6.230
 3180POPC   C2B41888  10.706  20.256   6.489
 3180POPC   C3B41889  10.599  20.180   6.879
 3180POPC   C4B41890  10.409  20.182   7.230
 3181POPC   NC341891  22.787   1.051   5.270
 3181POPC   PO441892  23.334   1.426   5.506
 3181POPC   GL141893  22.986   1.204   5.784
 3181POPC   GL241894  22.614   1.270   5.797
 3181POPC   C1A41895  22.851   0.994   6.180
 3181POPC   D2A41896  23.032   0.901   6.596
 3181POPC   C3A41897  22.944   1.120   6.978
 3181POPC   C4A41898  23.087   1.530   7.142
 3181POPC   C1B41899  22.626   1.450   6.231
 3181POPC   C2B41900  22.793   1.463   6.639
 3181POPC   C3B41901  22.586   1.480   7.058
 3181POPC   C4B41902  22.347   1.294   7.362
 3182POPC   NC341903  31.998  12.645   5.167
 3182POPC   PO441904  31.450  13.069   5.417
 3182POPC   GL141905  31.536  12.912   5.798
 3182POPC   GL241906  31.406  12.572   5.788
 3182POPC   C1A41907  31.572  13.134   6.190
 3182POPC   D2A41908  31.718  13.009   6.600
 3182POPC   C3A41909  31.615  13.284   6.947
 3182POPC   C4A41910  31.652  13.155   7.379
 3182POPC   C1B41911  31.383  12.657   6.254
 3182POPC   C2B41912  31.486  12.531   6.689
 3182POPC   C3B41913  31.589  12.742   7.075
 3182POPC   C4B41914  31.337  12.719   7.490
 3183POPC   NC341915  17.905  42.587   5.049
 3183POPC   PO441916  17.560  42.050   5.322
 3183POPC   GL141917  17.479  42.323   5.684
 3183POPC   GL241918  17.545  42.053   5.894
 3183POPC   C1A41919  17.391  42.458   6.123
 3183POPC   D2A41920  17.443  42.147   6.470
 3183POPC   C3A41921  17.286  42.260   6.854
 3183POPC   C4A41922  17.541  42.391   7.215
 3183POPC   C1B41923  17.867  41.973   6.224
 3183POPC   C2B41924  18.022  41.991   6.624
 3183POPC   C3B41925  17.803  42.010   7.008
 3183POPC   C4B41926  17.445  41.795   7.034
 3184POPC   NC341927  44.177  19.733   5.526
 3184POPC   PO441928  44.810  19.920   5.230
 3184POPC   GL141929  44.677  19.900   5.707
 3184POPC   GL241930  44.531  19.599   5.863
 3184POPC   C1A41931  44.757  19.903   6.215
 3184POPC   D2A41932  44.625  20.135   6.652
 3184POPC   C3A41933  44.541  19.939   7.087
 3184POPC   C4A41934  44.325  19.999   7.485
 3184POPC   C1B41935  44.325  19.588   6.277
 3184POPC   C2B41936  44.301  19.345   6.680
 3184POPC   C3B41937  44.376  19.415   7.105
 3184POPC   C4B41938  44.445  19.497   7.515
 3185POPC   NC341939  34.987  13.982   5.477
 3185POPC   PO441940  35.493  14.440   5.329
 3185POPC   GL141941  35.391  14.271   5.722
 3185POPC   GL241942  35.101  14.494   5.719
 3185POPC   C1A41943  35.503  14.432   6.130
 3185POPC   D2A41944  35.725  14.491   6.521
 3185POPC   C3A41945  35.510  14.441   6.880
 3185POPC   C4A41946  35.659  14.415   7.280
 3185POPC   C1B41947  34.992  14.265   6.084
 3185POPC   C2B41948  34.913  14.391   6.500
 3185POPC   C3B41949  35.030  14.263   6.897
 3185POPC   C4B41950  35.156  14.493   7.251
 3186POPC   NC341951  15.367  11.323   5.136
 3186POPC   PO441952  14.723  11.129   5.192
 3186POPC   GL141953  14.959  11.092   5.630
 3186POPC   GL241954  15.343  11.156   5.659
 3186POPC   C1A41955  14.996  11.303   6.058
 3186POPC   D2A41956  15.143  11.470   6.465
 3186POPC   C3A41957  14.797  11.534   6.757
 3186POPC   C4A41958  14.778  11.418   7.189
 3186POPC   C1B41959  15.436  11.052   6.094
 3186POPC   C2B41960  15.175  10.944   6.424
 3186POPC   C3B41961  15.122  11.110   6.846
 3186POPC   C4B41962  15.181  10.986   7.273
 3187POPC   NC341963  18.572  23.086   5.482
 3187POPC   PO441964  17.998  22.831   5.265
 3187POPC   GL141965  18.192  22.825   5.687
 3187POPC   GL241966  18.140  23.138   5.784
 3187POPC   C1A41967  18.403  22.845   6.114
 3187POPC   D2A41968  18.206  22.722   6.502
 3187POPC   C3A41969  18.346  22.991   6.832
 3187POPC   C4A41970  18.508  23.064   7.242
 3187POPC   C1B41971  17.924  23.021   6.139
 3187POPC   C2B41972  17.884  23.128   6.556
 3187POPC   C3B41973  17.841  22.919   6.907
 3187POPC   C4B41974  18.077  22.801   7.229
 3188POPC   NC341975  32.829  21.692   5.516
 3188POPC   PO441976  33.517  21.746   5.478
 3188POPC   GL141977  33.277  21.330   5.626
 3188POPC   GL241978  32.920  21.140   5.654
 3188POPC   C1A41979  33.206  21.278   6.078
 3188POPC   D2A41980  33.294  21.300   6.535
 3188POPC   C3A41981  33.174  21.648   6.830
 3188POPC   C4A41982  32.817  21.740   7.097
 3188POPC   C1B41983  32.736  21.014   6.083
 3188POPC   C2B41984  32.787  21.092   6.561
 3188POPC   C3B41985  33.027  21.163   6.973
 3188POPC   C4B41986  32.922  21.096   7.422
 3189POPC   NC341987  17.028   5.834   5.359
 3189POPC   PO441988  16.388   5.838   5.434
 3189POPC   GL141989  16.569   5.660   5.834
 3189POPC   GL241990  16.950   5.670   5.854
 3189POPC   C1A41991  16.644   5.815   6.270
 3189POPC   D2A41992  16.452   5.867   6.682
 3189POPC   C3A41993  16.671   5.891   7.096
 3189POPC   C4A41994  16.862   6.102   7.422
 3189POPC   C1B41995  17.108   5.597   6.274
 3189POPC   C2B41996  17.043   5.822   6.681
 3189POPC   C3B41997  17.031   5.534   7.028
 3189POPC   C4B41998  17.065   5.633   7.468
 3190POPC   NC341999  17.125  19.369   5.258
 3190POPC   PO442000  16.654  18.965   5.276
 3190POPC   GL142001  16.830  18.879   5.726
 3190POPC   GL242002  16.474  18.828   5.791
 3190POPC   C1A42003  17.011  18.995   6.133
 3190POPC   D2A42004  16.817  19.000   6.531
 3190POPC   C3A42005  17.027  19.034   6.906
 3190POPC   C4A42006  16.789  18.840   7.209
 3190POPC   C1B42007  16.514  19.124   6.118
 3190POPC   C2B42008  16.420  19.315   6.508
 3190POPC   C3B42009  16.602  19.429   6.889
 3190POPC   C4B42010  16.848  19.326   7.287
 3191POPC   NC342011  36.354  11.858   5.523
 3191POPC   PO442012  35.777  12.214   5.452
 3191POPC   GL142013  35.992  12.019   5.844
 3191POPC   GL242014  36.338  12.051   5.983
 3191POPC   C1A42015  35.997  11.765   6.231
 3191POPC   D2A42016  36.116  11.674   6.632
 3191POPC   C3A42017  35.896  11.848   6.971
 3191POPC   C4A42018  36.083  12.006   7.315
 3191POPC   C1B42019  36.611  12.095   6.335
 3191POPC   C2B42020  36.573  12.198   6.770
 3191POPC   C3B42021  36.472  12.289   7.195
 3191POPC   C4B42022  36.499  12.305   7.661
 3192POPC   NC342023   7.656  18.524   5.557
 3192POPC   PO442024   7.144  18.090   5.503
 3192POPC   GL142025   7.087  18.399   5.852
 3192POPC   GL242026   7.392  18.588   5.993
 3192POPC   C1A42027   7.107  18.289   6.293
 3192POPC   D2A42028   7.385  18.473   6.592
 3192POPC   C3A42029   7.436  18.248   6.977
 3192POPC   C4A42030   7.086  18.193   7.249
 3192POPC   C1B42031   7.654  18.238   6.163
 3192POPC   C2B42032   7.897  18.194   6.546
 3192POPC   C3B42033   7.869  17.987   6.922
 3192POPC   C4B42034   7.828  17.829   7.341
 3193POPC   NC342035   6.397  20.733   5.397
 3193POPC   PO442036   5.736  20.419   5.455
 3193POPC   GL142037   6.067  20.506   5.785
 3193POPC   GL242038   6.132  20.870   5.818
 3193POPC   C1A42039   6.099  20.443   6.245
 3193POPC   D2A42040   5.971  20.677   6.634
 3193POPC   C3A42041   5.918  20.481   7.022
 3193POPC   C4A42042   6.143  20.457   7.389
 3193POPC   C1B42043   5.878  20.938   6.202
 3193POPC   C2B42044   5.523  20.938   6.522
 3193POPC   C3B42045   5.413  20.971   6.963
 3193POPC   C4B42046   5.662  21.090   7.315
 3194POPC   NC342047   8.045   0.154   5.360
 3194POPC   PO442048   7.884   0.794   5.562
 3194POPC   GL142049   8.165   0.541   5.846
 3194POPC   GL242050   8.274   0.178   5.824
 3194POPC   C1A42051   8.129   0.509   6.308
 3194POPC   D2A42052   8.381   0.730   6.627
 3194POPC   C3A42053   8.190   0.709   7.021
 3194POPC   C4A42054   7.882   0.430   7.175
 3194POPC   C1B42055   8.475   0.121   6.245
 3194POPC   C2B42056   8.401   0.225   6.705
 3194POPC   C3B42057   8.233   0.050   7.099
 3194POPC   C4B42058   8.435  44.902   7.477
 3195POPC   NC342059   3.796  44.914   5.192
 3195POPC   PO442060   3.189  44.902   5.507
 3195POPC   GL142061   3.409  44.741   5.843
 3195POPC   GL242062   3.751  44.730   5.733
 3195POPC   C1A42063   3.409  44.535   6.254
 3195POPC   D2A42064   3.645  44.506   6.639
 3195POPC   C3A42065   3.403  44.462   7.040
 3195POPC   C4A42066   3.520  44.643   7.469
 3195POPC   C1B42067   3.804  44.894   6.176
 3195POPC   C2B42068   3.769   0.060   6.597
 3195POPC   C3B42069   3.729  44.855   7.004
 3195POPC   C4B42070   3.836   0.064   7.360
 3196POPC   NC342071  15.945   4.379   5.532
 3196POPC   PO442072  16.088   3.927   5.847
 3196POPC   GL142073  16.048   4.374   6.027
 3196POPC   GL242074  16.236   4.657   5.844
 3196POPC   C1A42075  15.949   4.433   6.460
 3196POPC   D2A42076  15.682   4.247   6.781
 3196POPC   C3A42077  15.843   4.036   7.134
 3196POPC   C4A42078  15.815   4.112   7.549
 3196POPC   C1B42079  16.275   4.815   6.258
 3196POPC   C2B42080  16.334   4.663   6.678
 3196POPC   C3B42081  16.037   4.579   6.968
 3196POPC   C4B42082  15.986   4.766   7.353
 3197POPC   NC342083   0.109  44.545   5.108
 3197POPC   PO442084  44.509  44.465   5.394
 3197POPC   GL142085  44.786  44.570   5.751
 3197POPC   GL242086  44.934  44.884   5.582
 3197POPC   C1A42087  44.745  44.499   6.267
 3197POPC   D2A42088  44.542  44.593   6.697
 3197POPC   C3A42089  44.649  44.443   7.129
 3197POPC   C4A42090  44.463  44.395   7.580
 3197POPC   C1B42091  44.941   0.016   6.029
 3197POPC   C2B42092  44.926  44.939   6.493
 3197POPC   C3B42093  44.820  44.950   6.955
 3197POPC   C4B42094  44.835  44.883   7.399
 3198POPC   NC342095  20.540  28.145   5.387
 3198POPC   PO442096  20.454  28.778   5.551
 3198POPC   GL142097  20.581  28.468   5.848
 3198POPC   GL242098  20.421  28.139   5.883
 3198POPC   C1A42099  20.725  28.557   6.252
 3198POPC   D2A42100  20.894  28.385   6.590
 3198POPC   C3A42101  20.686  28.500   6.918
 3198POPC   C4A42102  20.811  28.447   7.284
 3198POPC   C1B42103  20.399  28.033   6.323
 3198POPC   C2B42104  20.411  27.956   6.767
 3198POPC   C3B42105  20.392  28.144   7.180
 3198POPC   C4B42106  20.384  28.079   7.660
 3199POPC   NC342107  44.278  16.805   5.463
 3199POPC   PO442108  43.651  17.082   5.442
 3199POPC   GL142109  43.886  16.914   5.798
 3199POPC   GL242110  44.178  17.120   5.851
 3199POPC   C1A42111  44.017  16.682   6.171
 3199POPC   D2A42112  43.986  16.416   6.547
 3199POPC   C3A42113  43.904  16.674   6.908
 3199POPC   C4A42114  43.801  16.643   7.317
 3199POPC   C1B42115  44.361  17.114   6.243
 3199POPC   C2B42116  44.275  16.884   6.587
 3199POPC   C3B42117  44.416  16.789   6.966
 3199POPC   C4B42118  44.160  16.986   7.265
 3200POPC   NC342119  27.590  34.850   5.525
 3200POPC   PO442120  27.781  34.178   5.424
 3200POPC   GL142121  27.732  34.424   5.796
 3200POPC   GL242122  27.545  34.189   6.002
 3200POPC   C1A42123  27.560  34.664   6.190
 3200POPC   D2A42124  27.467  34.415   6.584
 3200POPC   C3A42125  27.365  34.649   6.939
 3200POPC   C4A42126  27.533  34.642   7.316
 3200POPC   C1B42127  27.929  34.333   6.263
 3200POPC   C2B42128  27.940  34.630   6.612
 3200POPC   C3B42129  27.867  34.435   7.001
 3200POPC   C4B42130  27.874  33.997   7.106
 3201POPC   NC342131  43.883  14.891   5.386
 3201POPC   PO442132  43.718  14.278   5.345
 3201POPC   GL142133  43.787  14.476   5.702
 3201POPC   GL242134  43.471  14.635   5.703
 3201POPC   C1A42135  43.977  14.342   6.081
 3201POPC   D2A42136  43.922  14.323   6.500
 3201POPC   C3A42137  44.060  14.019   6.780
 3201POPC   C4A42138  44.131  14.110   7.199
 3201POPC   C1B42139  43.477  14.489   6.158
 3201POPC   C2B42140  43.432  14.406   6.621
 3201POPC   C3B42141  43.746  14.408   6.983
 3201POPC   C4B42142  43.675  14.561   7.413
 3202POPC   NC342143  11.705   6.571   5.429
 3202POPC   PO442144  12.268   6.287   5.397
 3202POPC   GL142145  12.166   6.440   5.794
 3202POPC   GL242146  12.503   6.414   5.882
 3202POPC   C1A42147  12.098   6.741   6.161
 3202POPC   D2A42148  11.772   6.847   6.453
 3202POPC   C3A42149  11.807   6.782   6.898
 3202POPC   C4A42150  11.711   6.587   7.291
 3202POPC   C1B42151  12.358   6.318   6.284
 3202POPC   C2B42152  12.193   6.544   6.636
 3202POPC   C3B42153  12.132   6.394   7.045
 3202POPC   C4B42154  12.394   6.387   7.398
 3203POPC   NC342155   8.439   5.178   5.531
 3203POPC   PO442156   7.891   4.693   5.543
 3203POPC   GL142157   8.140   4.920   5.856
 3203POPC   GL242158   8.038   5.275   5.921
 3203POPC   C1A42159   8.316   4.963   6.280
 3203POPC   D2A42160   8.168   4.851   6.723
 3203POPC   C3A42161   8.248   5.027   7.163
 3203POPC   C4A42162   8.285   4.807   7.588
 3203POPC   C1B42163   7.977   5.317   6.381
 3203POPC   C2B42164   8.326   5.334   6.671
 3203POPC   C3B42165   8.612   5.366   6.995
 3203POPC   C4B42166   8.304   5.523   7.247
 3204POPC   NC342167  23.727  27.339   5.419
 3204POPC   PO442168  23.449  26.764   5.223
 3204POPC   GL142169  23.456  26.840   5.689
 3204POPC   GL242170  23.788  26.938   5.789
 3204POPC   C1A42171  23.543  26.742   6.166
 3204POPC   D2A42172  23.758  26.627   6.545
 3204POPC   C3A42173  23.466  26.703   6.892
 3204POPC   C4A42174  23.382  26.755   7.331
 3204POPC   C1B42175  24.020  26.955   6.175
 3204POPC   C2B42176  24.142  27.001   6.575
 3204POPC   C3B42177  23.965  26.875   6.952
 3204POPC   C4B42178  24.025  26.975   7.366
 3205POPC   NC342179   8.923  40.451   5.278
 3205POPC   PO442180   8.672  41.043   5.482
 3205POPC   GL142181   8.948  40.947   5.808
 3205POPC   GL242182   9.100  40.615   5.740
 3205POPC   C1A42183   8.855  40.752   6.209
 3205POPC   D2A42184   8.696  40.658   6.611
 3205POPC   C3A42185   8.925  40.897   6.924
 3205POPC   C4A42186   9.127  41.163   7.252
 3205POPC   C1B42187   9.098  40.296   6.064
 3205POPC   C2B42188   9.212  40.281   6.490
 3205POPC   C3B42189   9.033  40.393   6.865
 3205POPC   C4B42190   9.131  40.518   7.253
 3206POPC   NC342191   5.393  18.834   5.637
 3206POPC   PO442192   4.782  19.100   5.457
 3206POPC   GL142193   4.854  19.236   5.839
 3206POPC   GL242194   5.191  19.220   5.887
 3206POPC   C1A42195   4.823  19.047   6.232
 3206POPC   D2A42196   4.979  19.112   6.628
 3206POPC   C3A42197   4.820  18.938   6.970
 3206POPC   C4A42198   5.002  18.984   7.360
 3206POPC   C1B42199   5.362  19.114   6.271
 3206POPC   C2B42200   5.482  19.200   6.671
 3206POPC   C3B42201   5.402  18.969   7.027
 3206POPC   C4B42202   5.479  18.827   7.456
 3207POPC   NC342203  32.807  38.466   5.242
 3207POPC   PO442204  33.376  38.553   5.590
 3207POPC   GL142205  33.158  38.371   5.893
 3207POPC   GL242206  32.849  38.376   5.748
 3207POPC   C1A42207  33.172  38.476   6.297
 3207POPC   D2A42208  33.276  38.367   6.671
 3207POPC   C3A42209  33.124  38.612   6.968
 3207POPC   C4A42210  33.163  38.453   7.369
 3207POPC   C1B42211  32.688  38.601   6.100
 3207POPC   C2B42212  32.809  38.763   6.525
 3207POPC   C3B42213  32.622  38.860   6.885
 3207POPC   C4B42214  32.674  38.620   7.226
 3208POPC   NC342215  23.971  24.950   5.578
 3208POPC   PO442216  23.507  25.427   5.482
 3208POPC   GL142217  23.647  25.469   5.913
 3208POPC   GL242218  23.941  25.277   5.975
 3208POPC   C1A42219  23.615  25.414   6.359
 3208POPC   D2A42220  23.646  25.128   6.700
 3208POPC   C3A42221  23.684  25.327   7.053
 3208POPC   C4A42222  23.677  25.191   7.467
 3208POPC   C1B42223  23.849  24.934   6.273
 3208POPC   C2B42224  24.100  24.854   6.662
 3208POPC   C3B42225  24.041  24.945   7.123
 3208POPC   C4B42226  24.104  24.978   7.600
 3209POPC   NC342227  24.202  35.869   5.559
 3209POPC   PO442228  24.718  36.266   5.535
 3209POPC   GL142229  24.448  36.179   5.889
 3209POPC   GL242230  24.084  36.267   5.858
 3209POPC   C1A42231  24.322  35.878   6.225
 3209POPC   D2A42232  24.093  35.712   6.552
 3209POPC   C3A42233  24.256  35.798   7.001
 3209POPC   C4A42234  24.564  36.060   7.167
 3209POPC   C1B42235  24.194  36.369   6.281
 3209POPC   C2B42236  24.300  36.173   6.656
 3209POPC   C3B42237  24.134  36.294   7.036
 3209POPC   C4B42238  24.374  36.536   7.283
 3210POPC   NC342239  19.326  24.726   5.565
 3210POPC   PO442240  18.919  24.190   5.546
 3210POPC   GL142241  19.144  24.351   5.862
 3210POPC   GL242242  19.350  24.072   5.936
 3210POPC   C1A42243  19.082  24.680   6.186
 3210POPC   D2A42244  19.249  24.816   6.586
 3210POPC   C3A42245  19.033  24.731   6.992
 3210POPC   C4A42246  18.790  24.585   7.349
 3210POPC   C1B42247  19.105  24.144   6.324
 3210POPC   C2B42248  19.173  24.297   6.729
 3210POPC   C3B42249  19.138  24.250   7.143
 3210POPC   C4B42250  19.468  24.155   7.399
 3211POPC   NC342251  34.247   0.520   5.412
 3211POPC   PO442252  34.845   0.385   5.338
 3211POPC   GL142253  34.661   0.472   5.735
 3211POPC   GL242254  34.472   0.160   5.732
 3211POPC   C1A42255  34.875   0.456   6.147
 3211POPC   D2A42256  35.118   0.431   6.520
 3211POPC   C3A42257  34.814   0.415   6.829
 3211POPC   C4A42258  34.640   0.396   7.220
 3211POPC   C1B42259  34.362   0.313   6.137
 3211POPC   C2B42260  34.443   0.528   6.498
 3211POPC   C3B42261  34.267   0.434   6.878
 3211POPC   C4B42262  34.112   0.391   7.262
 3212POPC   NC342263  26.892   8.365   5.394
 3212POPC   PO442264  26.948   7.696   5.447
 3212POPC   GL142265  26.790   7.986   5.780
 3212POPC   GL242266  26.999   8.280   5.870
 3212POPC   C1A42267  26.698   8.051   6.233
 3212POPC   D2A42268  26.817   8.330   6.583
 3212POPC   C3A42269  26.692   8.280   7.019
 3212POPC   C4A42270  26.694   7.935   7.307
 3212POPC   C1B42271  27.136   8.648   6.151
 3212POPC   C2B42272  27.259   8.590   6.560
 3212POPC   C3B42273  27.021   8.698   6.886
 3212POPC   C4B42274  27.105   8.538   7.219
 3213POPC   NC342275  11.084  36.418   5.626
 3213POPC   PO442276  11.426  36.011   5.158
 3213POPC   GL142277  11.393  35.979   5.673
 3213POPC   GL242278  11.031  35.935   5.817
 3213POPC   C1A42279  11.516  36.026   6.154
 3213POPC   D2A42280  11.676  35.994   6.611
 3213POPC   C3A42281  11.377  36.233   6.854
 3213POPC   C4A42282  11.371  36.652   7.092
 3213POPC   C1B42283  11.002  36.132   6.255
 3213POPC   C2B42284  10.813  36.421   6.550
 3213POPC   C3B42285  10.923  36.443   6.966
 3213POPC   C4B42286  11.050  36.118   7.227
 3214POPC   NC342287   2.082  19.724   5.423
 3214POPC   PO442288   1.918  20.330   5.351
 3214POPC   GL142289   2.083  20.095   5.771
 3214POPC   GL242290   1.879  19.776   5.881
 3214POPC   C1A42291   2.211  19.971   6.227
 3214POPC   D2A42292   1.910  20.080   6.599
 3214POPC   C3A42293   1.996  20.039   7.053
 3214POPC   C4A42294   2.404  19.960   7.172
 3214POPC   C1B42295   1.868  19.623   6.303
 3214POPC   C2B42296   2.215  19.652   6.647
 3214POPC   C3B42297   2.068  19.544   7.046
 3214POPC   C4B42298   1.658  19.662   7.141
 3215POPC   NC342299   6.770  13.303   5.362
 3215POPC   PO442300   6.181  13.197   5.399
 3215POPC   GL142301   6.397  12.860   5.677
 3215POPC   GL242302   6.756  12.919   5.780
 3215POPC   C1A42303   6.368  12.918   6.148
 3215POPC   D2A42304   6.494  13.266   6.462
 3215POPC   C3A42305   6.650  13.103   6.891
 3215POPC   C4A42306   6.499  12.837   7.232
 3215POPC   C1B42307   6.880  12.776   6.229
 3215POPC   C2B42308   7.029  12.521   6.597
 3215POPC   C3B42309   6.941  12.559   7.049
 3215POPC   C4B42310   7.009  12.922   7.307
 3216POPC   NC342311  19.493  35.346   5.543
 3216POPC   PO442312  18.925  35.098   5.121
 3216POPC   GL142313  19.005  35.153   5.617
 3216POPC   GL242314  18.951  35.508   5.804
 3216POPC   C1A42315  19.086  35.099   6.097
 3216POPC   D2A42316  19.156  35.319   6.504
 3216POPC   C3A42317  19.036  35.197   6.920
 3216POPC   C4A42318  19.296  35.206   7.278
 3216POPC   C1B42319  18.858  35.655   6.260
 3216POPC   C2B42320  18.730  35.588   6.711
 3216POPC   C3B42321  18.835  35.727   7.143
 3216POPC   C4B42322  18.844  35.522   7.556
 3217POPC   NC342323   5.492  30.080   5.726
 3217POPC   PO442324   5.803  29.650   5.309
 3217POPC   GL142325   5.971  29.935   5.639
 3217POPC   GL242326   6.064  29.646   5.796
 3217POPC   C1A42327   6.055  30.073   6.094
 3217POPC   D2A42328   6.152  30.247   6.517
 3217POPC   C3A42329   5.970  30.099   6.916
 3217POPC   C4A42330   5.871  30.048   7.385
 3217POPC   C1B42331   6.375  29.669   6.098
 3217POPC   C2B42332   6.194  29.735   6.487
 3217POPC   C3B42333   6.296  29.691   6.895
 3217POPC   C4B42334   6.083  29.623   7.236
 3218POPC   NC342335  21.450  34.200   5.438
 3218POPC   PO442336  21.455  33.513   5.367
 3218POPC   GL142337  21.432  33.661   5.802
 3218POPC   GL242338  21.260  33.963   5.864
 3218POPC   C1A42339  21.382  33.604   6.251
 3218POPC   D2A42340  21.165  33.711   6.619
 3218POPC   C3A42341  21.413  33.580   6.934
 3218POPC   C4A42342  21.702  33.328   7.124
 3218POPC   C1B42343  21.130  34.167   6.254
 3218POPC   C2B42344  20.948  34.201   6.660
 3218POPC   C3B42345  21.180  34.069   7.006
 3218POPC   C4B42346  21.445  33.918   7.305
 3219POPC   NC342347  22.569  38.692   5.512
 3219POPC   PO442348  23.082  38.360   5.075
 3219POPC   GL142349  23.155  38.412   5.582
 3219POPC   GL242350  23.401  38.188   5.807
 3219POPC   C1A42351  23.047  38.512   6.028
 3219POPC   D2A42352  22.941  38.489   6.478
 3219POPC   C3A42353  23.127  38.568   6.877
 3219POPC   C4A42354  22.920  38.519   7.267
 3219POPC   C1B42355  23.277  38.102   6.258
 3219POPC   C2B42356  23.144  38.068   6.725
 3219POPC   C3B42357  23.279  38.123   7.179
 3219POPC   C4B42358  23.243  38.290   7.614
 3220POPC   NC342359  12.560   9.160   5.459
 3220POPC   PO442360  12.949   8.621   5.319
 3220POPC   GL142361  12.776   8.707   5.750
 3220POPC   GL242362  12.896   9.040   5.858
 3220POPC   C1A42363  12.733   8.758   6.237
 3220POPC   D2A42364  13.005   8.933   6.600
 3220POPC   C3A42365  12.862   8.904   7.039
 3220POPC   C4A42366  12.666   8.954   7.486
 3220POPC   C1B42367  12.928   9.298   6.231
 3220POPC   C2B42368  12.764   9.405   6.663
 3220POPC   C3B42369  12.793   9.399   7.134
 3220POPC   C4B42370  12.832   9.422   7.591
 3221POPC   NC342371  40.127  39.856   5.299
 3221POPC   PO442372  40.112  40.541   5.193
 3221POPC   GL142373  40.136  40.219   5.684
 3221POPC   GL242374  39.983  39.883   5.793
 3221POPC   C1A42375  40.155  40.229   6.155
 3221POPC   D2A42376  40.081  40.354   6.585
 3221POPC   C3A42377  39.762  40.162   6.847
 3221POPC   C4A42378  39.918  40.231   7.247
 3221POPC   C1B42379  40.149  39.715   6.177
 3221POPC   C2B42380  40.252  39.839   6.602
 3221POPC   C3B42381  40.095  39.804   7.042
 3221POPC   C4B42382  39.817  39.617   7.351
 3222POPC   NC342383  13.514   6.889   5.385
 3222POPC   PO442384  13.761   6.298   5.323
 3222POPC   GL142385  13.780   6.572   5.716
 3222POPC   GL242386  13.460   6.725   5.844
 3222POPC   C1A42387  13.833   6.585   6.173
 3222POPC   D2A42388  13.614   6.590   6.558
 3222POPC   C3A42389  13.801   6.600   6.945
 3222POPC   C4A42390  13.707   6.390   7.304
 3222POPC   C1B42391  13.272   6.703   6.205
 3222POPC   C2B42392  13.111   6.776   6.618
 3222POPC   C3B42393  13.284   6.819   7.015
 3222POPC   C4B42394  13.274   6.650   7.411
 3223POPC   NC342395  16.231  37.655   5.394
 3223POPC   PO442396  15.664  38.005   5.383
 3223POPC   GL142397  15.838  37.823   5.784
 3223POPC   GL242398  16.176  37.942   5.834
 3223POPC   C1A42399  15.866  37.648   6.243
 3223POPC   D2A42400  15.745  37.791   6.684
 3223POPC   C3A42401  15.887  37.596   7.094
 3223POPC   C4A42402  15.951  37.738   7.533
 3223POPC   C1B42403  16.183  38.071   6.250
 3223POPC   C2B42404  16.256  37.981   6.681
 3223POPC   C3B42405  16.316  37.894   7.109
 3223POPC   C4B42406  16.315  38.093   7.510
 3224POPC   NC342407  18.858  38.664   5.472
 3224POPC   PO442408  19.427  38.248   5.449
 3224POPC   GL142409  19.236  38.268   5.844
 3224POPC   GL242410  18.891  38.235   5.749
 3224POPC   C1A42411  19.212  38.484   6.233
 3224POPC   D2A42412  18.913  38.501   6.580
 3224POPC   C3A42413  19.042  38.587   6.997
 3224POPC   C4A42414  19.207  38.762   7.376
 3224POPC   C1B42415  18.789  38.191   6.172
 3224POPC   C2B42416  18.749  38.001   6.571
 3224POPC   C3B42417  18.779  38.121   7.019
 3224POPC   C4B42418  18.981  38.293   7.425
 3225POPC   NC342419   5.682  25.288   5.391
 3225POPC   PO442420   6.222  25.162   5.716
 3225POPC   GL142421   5.969  25.370   5.952
 3225POPC   GL242422   5.768  25.602   5.783
 3225POPC   C1A42423   5.824  25.223   6.321
 3225POPC   D2A42424   5.806  25.160   6.738
 3225POPC   C3A42425   6.158  25.021   7.001
 3225POPC   C4A42426   6.170  25.132   7.441
 3225POPC   C1B42427   5.525  25.610   6.157
 3225POPC   C2B42428   5.383  25.368   6.534
 3225POPC   C3B42429   5.456  25.461   6.952
 3225POPC   C4B42430   5.724  25.246   7.224
 3226POPC   NC342431   6.864  18.863   5.454
 3226POPC   PO442432   7.554  18.979   5.475
 3226POPC   GL142433   7.366  19.140   5.828
 3226POPC   GL242434   7.062  18.974   5.909
 3226POPC   C1A42435   7.582  19.247   6.194
 3226POPC   D2A42436   7.701  19.115   6.615
 3226POPC   C3A42437   7.616  19.402   6.928
 3226POPC   C4A42438   7.392  19.186   7.241
 3226POPC   C1B42439   7.190  18.921   6.333
 3226POPC   C2B42440   7.192  18.945   6.785
 3226POPC   C3B42441   7.212  18.693   7.113
 3226POPC   C4B42442   7.220  18.773   7.542
 3227POPC   NC342443  38.677  39.135   5.292
 3227POPC   PO442444  38.348  39.662   5.531
 3227POPC   GL142445  38.417  39.301   5.838
 3227POPC   GL242446  38.721  39.035   5.804
 3227POPC   C1A42447  38.178  39.192   6.230
 3227POPC   D2A42448  38.287  38.907   6.563
 3227POPC   C3A42449  38.242  39.086   6.979
 3227POPC   C4A42450  38.382  39.058   7.403
 3227POPC   C1B42451  38.701  39.132   6.253
 3227POPC   C2B42452  38.769  39.025   6.688
 3227POPC   C3B42453  38.740  39.202   7.078
 3227POPC   C4B42454  38.838  39.363   7.486
 3228POPC   NC342455  18.514  42.993   5.546
 3228POPC   PO442456  18.253  43.526   5.269
 3228POPC   GL142457  18.048  43.217   5.580
 3228POPC   GL242458  18.064  42.870   5.703
 3228POPC   C1A42459  17.992  43.255   6.049
 3228POPC   D2A42460  18.125  43.376   6.483
 3228POPC   C3A42461  18.052  43.244   6.941
 3228POPC   C4A42462  18.454  43.330   7.165
 3228POPC   C1B42463  18.192  42.801   6.164
 3228POPC   C2B42464  18.056  42.870   6.597
 3228POPC   C3B42465  18.389  42.859   6.925
 3228POPC   C4B42466  18.644  42.514   7.042
 3229POPC   NC342467  33.939  15.907   5.405
 3229POPC   PO442468  33.414  16.280   5.532
 3229POPC   GL142469  33.610  15.930   5.807
 3229POPC   GL242470  33.944  15.721   5.877
 3229POPC   C1A42471  33.541  15.753   6.210
 3229POPC   D2A42472  33.659  15.973   6.581
 3229POPC   C3A42473  33.716  15.763   6.974
 3229POPC   C4A42474  33.505  15.781   7.366
 3229POPC   C1B42475  34.127  16.091   6.041
 3229POPC   C2B42476  34.131  16.249   6.467
 3229POPC   C3B42477  33.998  16.225   6.889
 3229POPC   C4B42478  34.086  16.002   7.234
 3230POPC   NC342479  34.042  44.608   5.367
 3230POPC   PO442480  33.482   0.035   5.525
 3230POPC   GL142481  33.626  44.831   5.911
 3230POPC   GL242482  33.741  44.478   5.935
 3230POPC   C1A42483  33.579  44.831   6.355
 3230POPC   D2A42484  33.867  44.770   6.684
 3230POPC   C3A42485  33.817  44.995   7.045
 3230POPC   C4A42486  33.480  44.779   7.245
 3230POPC   C1B42487  34.155  44.384   6.156
 3230POPC   C2B42488  34.284  44.484   6.561
 3230POPC   C3B42489  34.152  44.476   6.976
 3230POPC   C4B42490  34.120  44.198   7.290
 3231POPC   NC342491  30.489   0.426   5.427
 3231POPC   PO442492  30.954  44.952   5.702
 3231POPC   GL142493  30.771   0.394   5.864
 3231POPC   GL242494  30.430   0.608   5.893
 3231POPC   C1A42495  30.763   0.566   6.285
 3231POPC   D2A42496  30.969   0.575   6.668
 3231POPC   C3A42497  30.787   0.508   7.040
 3231POPC   C4A42498  30.962   0.094   7.170
 3231POPC   C1B42499  30.258   0.755   6.294
 3231POPC   C2B42500  30.401   0.587   6.693
 3231POPC   C3B42501  30.313   0.333   7.096
 3231POPC   C4B42502  30.220   0.544   7.503
 3232POPC   NC342503  14.991  36.613   5.375
 3232POPC   PO442504  15.023  37.246   5.500
 3232POPC   GL142505  15.280  37.064   5.788
 3232POPC   GL242506  15.423  36.773   5.608
 3232POPC   C1A42507  15.240  37.126   6.239
 3232POPC   D2A42508  15.408  37.383   6.578
 3232POPC   C3A42509  15.287  37.233   6.983
 3232POPC   C4A42510  15.480  36.982   7.269
 3232POPC   C1B42511  15.334  36.631   6.062
 3232POPC   C2B42512  15.465  36.655   6.519
 3232POPC   C3B42513  15.231  36.635   6.930
 3232POPC   C4B42514  14.979  36.861   7.237
 3233POPC   NC342515  41.212   6.687   5.268
 3233POPC   PO442516  40.591   6.897   5.316
 3233POPC   GL142517  40.472   6.717   5.714
 3233POPC   GL242518  40.816   6.710   5.800
 3233POPC   C1A42519  40.515   6.411   6.095
 3233POPC   D2A42520  40.740   6.363   6.533
 3233POPC   C3A42521  40.559   6.455   6.972
 3233POPC   C4A42522  40.763   6.522   7.393
 3233POPC   C1B42523  40.718   6.862   6.232
 3233POPC   C2B42524  40.768   6.891   6.668
 3233POPC   C3B42525  41.016   6.754   7.001
 3233POPC   C4B42526  40.936   7.077   7.274
 3234POPC   NC342527  42.582  37.623   5.531
 3234POPC   PO442528  41.901  37.472   5.472
 3234POPC   GL142529  42.178  37.431   5.818
 3234POPC   GL242530  42.281  37.785   5.941
 3234POPC   C1A42531  42.283  37.362   6.255
 3234POPC   D2A42532  42.169  37.482   6.682
 3234POPC   C3A42533  42.476  37.668   6.909
 3234POPC   C4A42534  42.598  37.550   7.298
 3234POPC   C1B42535  42.396  37.872   6.395
 3234POPC   C2B42536  42.319  38.148   6.781
 3234POPC   C3B42537  42.219  38.026   7.190
 3234POPC   C4B42538  42.052  37.567   7.199
 3235POPC   NC342539   0.951  29.062   5.330
 3235POPC   PO442540   1.620  29.174   5.293
 3235POPC   GL142541   1.320  29.154   5.679
 3235POPC   GL242542   1.360  28.824   5.824
 3235POPC   C1A42543   1.118  29.173   6.117
 3235POPC   D2A42544   1.266  29.315   6.497
 3235POPC   C3A42545   1.085  29.352   6.899
 3235POPC   C4A42546   0.822  29.353   7.247
 3235POPC   C1B42547   1.514  28.872   6.269
 3235POPC   C2B42548   1.301  28.855   6.713
 3235POPC   C3B42549   1.328  28.990   7.153
 3235POPC   C4B42550   1.579  28.898   7.533
 3236POPC   NC342551  11.847  12.280   5.484
 3236POPC   PO442552  12.169  11.772   5.452
 3236POPC   GL142553  11.973  11.943   5.829
 3236POPC   GL242554  12.310  12.040   5.925
 3236POPC   C1A42555  11.948  11.899   6.287
 3236POPC   D2A42556  12.269  11.880   6.640
 3236POPC   C3A42557  12.302  12.108   7.030
 3236POPC   C4A42558  12.309  11.979   7.451
 3236POPC   C1B42559  12.296  12.280   6.322
 3236POPC   C2B42560  11.991  12.349   6.650
 3236POPC   C3B42561  11.806  12.472   7.065
 3236POPC   C4B42562  11.889  12.324   7.520
 3237POPC   NC342563  29.366   6.889   5.637
 3237POPC   PO442564  28.798   6.480   5.442
 3237POPC   GL142565  29.036   6.538   5.807
 3237POPC   GL242566  28.867   6.848   5.857
 3237POPC   C1A42567  29.254   6.644   6.243
 3237POPC   D2A42568  29.442   6.849   6.638
 3237POPC   C3A42569  29.302   6.704   7.053
 3237POPC   C4A42570  29.409   6.362   7.348
 3237POPC   C1B42571  28.757   6.621   6.230
 3237POPC   C2B42572  28.917   6.702   6.664
 3237POPC   C3B42573  28.751   6.624   7.087
 3237POPC   C4B42574  28.978   6.609   7.480
 3238POPC   NC342575   5.852  25.969   5.424
 3238POPC   PO442576   6.101  26.529   5.210
 3238POPC   GL142577   6.002  26.374   5.727
 3238POPC   GL242578   5.747  26.103   5.903
 3238POPC   C1A42579   6.057  26.361   6.194
 3238POPC   D2A42580   5.715  26.198   6.439
 3238POPC   C3A42581   5.766  26.095   6.866
 3238POPC   C4A42582   6.132  26.082   7.117
 3238POPC   C1B42583   6.000  25.842   6.179
 3238POPC   C2B42584   5.864  25.669   6.556
 3238POPC   C3B42585   5.938  25.621   6.959
 3238POPC   C4B42586   5.658  25.780   7.297
 3239POPC   NC342587  13.201  27.433   5.418
 3239POPC   PO442588  12.708  27.931   5.433
 3239POPC   GL142589  12.877  27.650   5.757
 3239POPC   GL242590  13.069  27.344   5.900
 3239POPC   C1A42591  12.928  27.775   6.174
 3239POPC   D2A42592  12.625  27.805   6.493
 3239POPC   C3A42593  12.746  27.797   6.920
 3239POPC   C4A42594  12.518  27.984   7.246
 3239POPC   C1B42595  12.666  27.338   6.146
 3239POPC   C2B42596  12.651  27.281   6.602
 3239POPC   C3B42597  12.971  27.296   6.931
 3239POPC   C4B42598  13.029  27.535   7.291
 3240POPC   NC342599   4.893   5.298   5.512
 3240POPC   PO442600   5.538   4.988   5.361
 3240POPC   GL142601   5.321   5.134   5.741
 3240POPC   GL242602   5.041   4.896   5.843
 3240POPC   C1A42603   5.220   5.294   6.151
 3240POPC   D2A42604   5.330   5.383   6.575
 3240POPC   C3A42605   5.115   5.392   6.949
 3240POPC   C4A42606   5.136   5.201   7.339
 3240POPC   C1B42607   5.127   4.803   6.278
 3240POPC   C2B42608   5.272   4.882   6.692
 3240POPC   C3B42609   4.959   4.876   7.004
 3240POPC   C4B42610   4.723   4.897   7.378
 3241POPC   NC342611  15.429  21.969   5.349
 3241POPC   PO442612  14.896  22.322   5.493
 3241POPC   GL142613  15.271  22.256   5.777
 3241POPC   GL242614  15.243  21.877   5.835
 3241POPC   C1A42615  15.377  22.524   6.173
 3241POPC   D2A42616  15.528  22.481   6.620
 3241POPC   C3A42617  15.228  22.444   6.948
 3241POPC   C4A42618  15.050  22.321   7.313
 3241POPC   C1B42619  15.385  21.823   6.262
 3241POPC   C2B42620  15.279  22.004   6.672
 3241POPC   C3B42621  15.252  21.909   7.112
 3241POPC   C4B42622  15.386  21.963   7.527
 3242POPC   NC342623  24.288  27.906   5.345
 3242POPC   PO442624  24.397  28.558   5.478
 3242POPC   GL142625  24.429  28.309   5.816
 3242POPC   GL242626  24.582  28.637   5.973
 3242POPC   C1A42627  24.667  28.178   6.167
 3242POPC   D2A42628  24.678  28.427   6.544
 3242POPC   C3A42629  24.656  28.278   6.994
 3242POPC   C4A42630  24.661  28.655   7.281
 3242POPC   C1B42631  24.251  28.498   6.247
 3242POPC   C2B42632  24.190  28.333   6.647
 3242POPC   C3B42633  24.230  28.546   7.041
 3242POPC   C4B42634  24.227  28.332   7.415
 3243POPC   NC342635  40.699  14.596   5.437
 3243POPC   PO442636  41.110  14.212   5.223
 3243POPC   GL142637  40.998  14.315   5.743
 3243POPC   GL242638  40.663  14.423   5.904
 3243POPC   C1A42639  40.969  14.237   6.244
 3243POPC   D2A42640  40.768  14.371   6.639
 3243POPC   C3A42641  41.047  14.279   7.020
 3243POPC   C4A42642  41.065  14.140   7.458
 3243POPC   C1B42643  40.390  14.566   6.276
 3243POPC   C2B42644  40.380  14.731   6.730
 3243POPC   C3B42645  40.492  14.421   7.074
 3243POPC   C4B42646  40.637  14.492   7.521
 3244POPC   NC342647  11.087  11.746   5.461
 3244POPC   PO442648  11.368  11.080   5.398
 3244POPC   GL142649  11.440  11.286   5.808
 3244POPC   GL242650  11.454  11.639   5.838
 3244POPC   C1A42651  11.206  11.353   6.199
 3244POPC   D2A42652  11.112  11.574   6.578
 3244POPC   C3A42653  11.197  11.376   6.979
 3244POPC   C4A42654  11.513  11.214   7.243
 3244POPC   C1B42655  11.390  11.847   6.226
 3244POPC   C2B42656  11.575  11.910   6.640
 3244POPC   C3B42657  11.597  11.724   7.048
 3244POPC   C4B42658  11.286  11.710   7.356
 3245POPC   NC342659  36.178  25.104   5.511
 3245POPC   PO442660  35.678  25.561   5.528
 3245POPC   GL142661  35.935  25.448   5.834
 3245POPC   GL242662  35.913  25.106   5.945
 3245POPC   C1A42663  35.950  25.513   6.251
 3245POPC   D2A42664  35.895  25.303   6.605
 3245POPC   C3A42665  35.974  25.602   6.915
 3245POPC   C4A42666  36.227  25.514   7.260
 3245POPC   C1B42667  36.028  24.857   6.308
 3245POPC   C2B42668  36.231  24.856   6.715
 3245POPC   C3B42669  36.299  25.020   7.141
 3245POPC   C4B42670  36.376  25.023   7.594
 3246POPC   NC342671  27.471  18.663   5.492
 3246POPC   PO442672  27.578  19.326   5.254
 3246POPC   GL142673  27.740  19.082   5.669
 3246POPC   GL242674  27.949  19.323   5.862
 3246POPC   C1A42675  27.736  18.859   6.068
 3246POPC   D2A42676  27.829  18.817   6.484
 3246POPC   C3A42677  27.535  18.771   6.820
 3246POPC   C4A42678  27.428  19.100   7.137
 3246POPC   C1B42679  27.749  19.337   6.264
 3246POPC   C2B42680  27.625  19.280   6.675
 3246POPC   C3B42681  27.777  19.464   7.030
 3246POPC   C4B42682  27.792  19.375   7.464
 3247POPC   NC342683   9.628  22.216   5.346
 3247POPC   PO442684  10.008  21.729   5.443
 3247POPC   GL142685   9.777  21.952   5.798
 3247POPC   GL242686   9.529  21.735   5.879
 3247POPC   C1A42687   9.717  22.225   6.235
 3247POPC   D2A42688   9.879  22.326   6.698
 3247POPC   C3A42689   9.604  22.316   7.101
 3247POPC   C4A42690   9.635  22.500   7.548
 3247POPC   C1B42691   9.782  21.732   6.280
 3247POPC   C2B42692   9.605  21.885   6.696
 3247POPC   C3B42693   9.555  21.717   7.119
 3247POPC   C4B42694   9.749  21.661   7.514
 3248POPC   NC342695  20.753  22.487   5.538
 3248POPC   PO442696  20.301  22.082   5.443
 3248POPC   GL142697  20.516  22.091   5.805
 3248POPC   GL242698  20.487  21.744   5.852
 3248POPC   C1A42699  20.724  22.238   6.200
 3248POPC   D2A42700  20.831  22.426   6.619
 3248POPC   C3A42701  20.867  22.113   6.966
 3248POPC   C4A42702  20.705  22.229   7.375
 3248POPC   C1B42703  20.284  21.917   6.216
 3248POPC   C2B42704  20.524  21.938   6.590
 3248POPC   C3B42705  20.324  21.834   6.939
 3248POPC   C4B42706  20.466  21.785   7.305
 3249POPC   NC342707  23.171  24.366   5.440
 3249POPC   PO442708  22.794  24.918   5.476
 3249POPC   GL142709  22.796  24.560   5.789
 3249POPC   GL242710  22.671  24.227   5.657
 3249POPC   C1A42711  22.978  24.484   6.207
 3249POPC   D2A42712  22.885  24.689   6.612
 3249POPC   C3A42713  23.095  24.702   7.019
 3249POPC   C4A42714  22.810  24.637   7.384
 3249POPC   C1B42715  22.571  24.120   6.091
 3249POPC   C2B42716  22.642  24.239   6.524
 3249POPC   C3B42717  22.777  24.291   6.948
 3249POPC   C4B42718  22.585  24.180   7.327
 3250POPC   NC342719  33.110  29.708   5.563
 3250POPC   PO442720  33.118  30.304   5.303
 3250POPC   GL142721  33.018  30.248   5.792
 3250POPC   GL242722  33.261  30.039   5.987
 3250POPC   C1A42723  32.822  30.097   6.242
 3250POPC   D2A42724  32.979  29.757   6.583
 3250POPC   C3A42725  32.831  29.808   7.018
 3250POPC   C4A42726  32.760  30.234   7.124
 3250POPC   C1B42727  33.290  30.282   6.338
 3250POPC   C2B42728  33.100  30.353   6.691
 3250POPC   C3B42729  33.237  30.102   6.972
 3250POPC   C4B42730  33.305  29.679   7.182
 3251POPC   NC342731   7.592  39.377   5.270
 3251POPC   PO442732   7.074  39.002   5.499
 3251POPC   GL142733   7.431  39.201   5.768
 3251POPC   GL242734   7.597  39.546   5.771
 3251POPC   C1A42735   7.390  39.269   6.210
 3251POPC   D2A42736   7.065  39.336   6.516
 3251POPC   C3A42737   7.150  39.143   6.903
 3251POPC   C4A42738   7.335  39.259   7.301
 3251POPC   C1B42739   7.641  39.714   6.224
 3251POPC   C2B42740   7.562  39.503   6.666
 3251POPC   C3B42741   7.591  39.657   7.124
 3251POPC   C4B42742   7.656  39.593   7.630
 3252POPC   NC342743  44.878  38.628   5.587
 3252POPC   PO442744   0.379  38.097   5.593
 3252POPC   GL142745   0.043  38.218   5.904
 3252POPC   GL242746  44.817  37.980   5.989
 3252POPC   C1A42747  44.777  38.418   6.274
 3252POPC   D2A42748  44.399  38.377   6.580
 3252POPC   C3A42749  44.523  38.572   6.961
 3252POPC   C4A42750  44.939  38.681   7.100
 3252POPC   C1B42751  44.572  37.954   6.325
 3252POPC   C2B42752  44.854  38.074   6.663
 3252POPC   C3B42753  44.697  38.107   7.043
 3252POPC   C4B42754  44.223  38.160   7.055
 3253POPC   NC342755   9.973  15.477   5.540
 3253POPC   PO442756   9.419  15.135   5.311
 3253POPC   GL142757   9.533  15.050   5.778
 3253POPC   GL242758   9.728  15.331   5.943
 3253POPC   C1A42759   9.594  14.964   6.257
 3253POPC   D2A42760   9.776  15.258   6.562
 3253POPC   C3A42761   9.877  15.083   6.960
 3253POPC   C4A42762  10.125  14.946   7.339
 3253POPC   C1B42763   9.612  15.635   6.222
 3253POPC   C2B42764   9.423  15.637   6.652
 3253POPC   C3B42765   9.701  15.576   6.988
 3253POPC   C4B42766   9.958  15.456   7.295
 3254POPC   NC342767  29.151  31.646   5.462
 3254POPC   PO442768  28.515  31.243   5.454
 3254POPC   GL142769  28.453  31.481   5.842
 3254POPC   GL242770  28.159  31.680   5.894
 3254POPC   C1A42771  28.422  31.541   6.311
 3254POPC   D2A42772  28.347  31.353   6.708
 3254POPC   C3A42773  28.341  31.435   7.150
 3254POPC   C4A42774  28.554  31.631   7.456
 3254POPC   C1B42775  28.094  31.221   6.098
 3254POPC   C2B42776  28.156  30.925   6.485
 3254POPC   C3B42777  28.028  31.019   6.932
 3254POPC   C4B42778  27.831  31.399   7.165
 3255POPC   NC342779   5.230  10.847   5.347
 3255POPC   PO442780   4.992  10.253   5.441
 3255POPC   GL142781   4.923  10.587   5.730
 3255POPC   GL242782   4.706  10.411   5.916
 3255POPC   C1A42783   4.983  10.749   6.190
 3255POPC   D2A42784   5.311  10.652   6.523
 3255POPC   C3A42785   5.180  10.724   6.941
 3255POPC   C4A42786   5.382  10.477   7.216
 3255POPC   C1B42787   5.067  10.244   6.115
 3255POPC   C2B42788   4.961  10.287   6.511
 3255POPC   C3B42789   4.746  10.375   6.854
 3255POPC   C4B42790   4.908  10.321   7.234
 3256POPC   NC342791   0.106  25.251   5.512
 3256POPC   PO442792   0.767  25.365   5.379
 3256POPC   GL142793   0.560  25.257   5.799
 3256POPC   GL242794   0.426  25.539   5.928
 3256POPC   C1A42795   0.386  25.084   6.200
 3256POPC   D2A42796   0.398  25.297   6.629
 3256POPC   C3A42797   0.248  25.095   6.995
 3256POPC   C4A42798   0.049  25.209   7.378
 3256POPC   C1B42799   0.726  25.451   6.262
 3256POPC   C2B42800   0.924  25.420   6.648
 3256POPC   C3B42801   0.749  25.308   7.015
 3256POPC   C4B42802   0.477  25.460   7.279
 3257POPC   NC342803  34.201  19.072   5.450
 3257POPC   PO442804  33.504  19.012   5.451
 3257POPC   GL142805  33.804  19.089   5.800
 3257POPC   GL242806  34.044  18.829   5.879
 3257POPC   C1A42807  33.751  19.077   6.240
 3257POPC   D2A42808  33.508  19.005   6.586
 3257POPC   C3A42809  33.779  19.209   6.893
 3257POPC   C4A42810  33.841  19.167   7.320
 3257POPC   C1B42811  34.241  18.850   6.268
 3257POPC   C2B42812  34.216  19.032   6.656
 3257POPC   C3B42813  34.188  18.814   7.046
 3257POPC   C4B42814  34.339  18.683   7.452
 3258POPC   NC342815  44.485  44.894   5.158
 3258POPC   PO442816  44.726   0.563   5.393
 3258POPC   GL142817  44.745   0.519   5.865
 3258POPC   GL242818   0.052   0.671   5.966
 3258POPC   C1A42819  44.649   0.364   6.326
 3258POPC   D2A42820  44.413   0.108   6.667
 3258POPC   C3A42821  44.442   0.254   7.105
 3258POPC   C4A42822  44.579   0.304   7.545
 3258POPC   C1B42823   0.157   0.410   6.305
 3258POPC   C2B42824   0.055   0.381   6.735
 3258POPC   C3B42825  44.802   0.620   7.014
 3258POPC   C4B42826  44.786   0.754   7.438
 3259POPC   NC342827  42.168  29.276   5.375
 3259POPC   PO442828  42.687  28.885   5.422
 3259POPC   GL142829  42.513  28.962   5.845
 3259POPC   GL242830  42.184  29.126   5.861
 3259POPC   C1A42831  42.460  29.077   6.300
 3259POPC   D2A42832  42.614  29.268   6.693
 3259POPC   C3A42833  42.421  29.121   7.069
 3259POPC   C4A42834  42.081  28.819   7.158
 3259POPC   C1B42835  41.954  29.036   6.233
 3259POPC   C2B42836  42.087  29.043   6.665
 3259POPC   C3B42837  41.917  29.300   6.970
 3259POPC   C4B42838  41.925  29.446   7.344
 3260POPC   NC342839   6.501  33.117   5.519
 3260POPC   PO442840   7.029  32.651   5.550
 3260POPC   GL142841   6.801  32.867   5.879
 3260POPC   GL242842   6.450  32.742   5.860
 3260POPC   C1A42843   6.907  33.186   6.227
 3260POPC   D2A42844   6.940  33.384   6.649
 3260POPC   C3A42845   6.917  33.110   7.043
 3260POPC   C4A42846   6.517  32.938   7.229
 3260POPC   C1B42847   6.426  32.998   6.223
 3260POPC   C2B42848   6.584  32.973   6.639
 3260POPC   C3B42849   6.474  33.327   6.878
 3260POPC   C4B42850   6.240  33.416   7.230
 3261POPC   NC342851  43.368   4.517   5.549
 3261POPC   PO442852  42.963   4.010   5.619
 3261POPC   GL142853  43.119   4.297   5.951
 3261POPC   GL242854  43.483   4.241   5.979
 3261POPC   C1A42855  43.251   4.608   6.289
 3261POPC   D2A42856  43.368   4.640   6.750
 3261POPC   C3A42857  43.145   4.448   7.081
 3261POPC   C4A42858  42.822   4.712   7.254
 3261POPC   C1B42859  43.329   4.099   6.404
 3261POPC   C2B42860  43.024   4.007   6.757
 3261POPC   C3B42861  43.074   3.919   7.218
 3261POPC   C4B42862  43.094   4.043   7.681
 3262POPC   NC342863  23.360  17.627   5.380
 3262POPC   PO442864  22.824  17.158   5.242
 3262POPC   GL142865  22.941  17.153   5.722
 3262POPC   GL242866  23.261  17.312   5.832
 3262POPC   C1A42867  22.846  17.360   6.153
 3262POPC   D2A42868  22.645  17.431   6.556
 3262POPC   C3A42869  22.795  17.379   7.014
 3262POPC   C4A42870  22.718  17.764   7.237
 3262POPC   C1B42871  23.349  17.425   6.260
 3262POPC   C2B42872  23.320  17.815   6.490
 3262POPC   C3B42873  23.083  17.763   6.841
 3262POPC   C4B42874  23.240  17.598   7.198
 3263POPC   NC342875  23.539  20.862   5.491
 3263POPC   PO442876  24.073  20.455   5.369
 3263POPC   GL142877  23.898  20.583   5.803
 3263POPC   GL242878  23.515  20.504   5.849
 3263POPC   C1A42879  23.812  20.793   6.230
 3263POPC   D2A42880  23.596  20.997   6.582
 3263POPC   C3A42881  23.879  20.912   6.898
 3263POPC   C4A42882  23.920  20.674   7.258
 3263POPC   C1B42883  23.317  20.770   6.167
 3263POPC   C2B42884  23.384  20.533   6.545
 3263POPC   C3B42885  23.501  20.519   6.962
 3263POPC   C4B42886  23.458  20.859   7.230
 3264POPC   NC342887  28.773   7.630   5.687
 3264POPC   PO442888  29.434   7.337   5.527
 3264POPC   GL142889  29.142   7.311   5.852
 3264POPC   GL242890  29.382   7.519   6.038
 3264POPC   C1A42891  29.024   7.161   6.253
 3264POPC   D2A42892  29.324   7.314   6.532
 3264POPC   C3A42893  29.255   7.242   6.967
 3264POPC   C4A42894  29.004   7.066   7.275
 3264POPC   C1B42895  29.059   7.695   6.299
 3264POPC   C2B42896  29.008   7.643   6.753
 3264POPC   C3B42897  29.069   7.677   7.203
 3264POPC   C4B42898  28.948   7.886   7.594
 3265POPC   NC342899   1.755  26.427   5.214
 3265POPC   PO442900   2.129  25.970   5.485
 3265POPC   GL142901   2.249  25.970   5.892
 3265POPC   GL242902   1.911  25.872   5.939
 3265POPC   C1A42903   2.115  26.167   6.280
 3265POPC   D2A42904   2.270  26.177   6.663
 3265POPC   C3A42905   2.025  26.116   7.033
 3265POPC   C4A42906   1.722  26.182   7.404
 3265POPC   C1B42907   1.737  25.665   6.295
 3265POPC   C2B42908   1.904  25.688   6.710
 3265POPC   C3B42909   1.721  25.720   7.109
 3265POPC   C4B42910   1.510  25.720   7.489
 3266POPC   NC342911  34.835  26.197   5.487
 3266POPC   PO442912  34.216  25.909   5.405
 3266POPC   GL142913  34.412  25.997   5.810
 3266POPC   GL242914  34.708  26.170   5.970
 3266POPC   C1A42915  34.460  25.823   6.231
 3266POPC   D2A42916  34.631  26.089   6.567
 3266POPC   C3A42917  34.531  25.962   6.992
 3266POPC   C4A42918  34.391  25.706   7.366
 3266POPC   C1B42919  34.467  26.441   6.237
 3266POPC   C2B42920  34.208  26.452   6.597
 3266POPC   C3B42921  34.388  26.463   7.031
 3266POPC   C4B42922  34.744  26.305   7.320
 3267POPC   NC342923  21.993  27.297   5.038
 3267POPC   PO442924  21.895  27.817   5.501
 3267POPC   GL142925  22.189  27.647   5.743
 3267POPC   GL242926  22.352  27.928   5.780
 3267POPC   C1A42927  22.194  27.428   6.129
 3267POPC   D2A42928  22.356  27.530   6.539
 3267POPC   C3A42929  22.167  27.296   6.876
 3267POPC   C4A42930  22.070  27.425   7.264
 3267POPC   C1B42931  22.039  27.946   6.147
 3267POPC   C2B42932  21.917  27.841   6.584
 3267POPC   C3B42933  22.170  27.845   6.959
 3267POPC   C4B42934  21.973  27.972   7.330
 3268POPC   NC342935  19.654  20.330   5.245
 3268POPC   PO442936  20.234  20.411   5.530
 3268POPC   GL142937  19.884  20.606   5.808
 3268POPC   GL242938  19.599  20.384   5.798
 3268POPC   C1A42939  19.614  20.715   6.212
 3268POPC   D2A42940  19.464  20.903   6.608
 3268POPC   C3A42941  19.641  20.755   6.995
 3268POPC   C4A42942  19.846  20.606   7.385
 3268POPC   C1B42943  19.796  20.243   6.178
 3268POPC   C2B42944  19.565  20.333   6.576
 3268POPC   C3B42945  19.331  20.210   6.923
 3268POPC   C4B42946  19.395  20.407   7.278
 3269POPC   NC342947  14.480   3.996   5.288
 3269POPC   PO442948  14.565   4.593   5.185
 3269POPC   GL142949  14.567   4.487   5.667
 3269POPC   GL242950  14.286   4.296   5.819
 3269POPC   C1A42951  14.635   4.488   6.167
 3269POPC   D2A42952  14.519   4.308   6.620
 3269POPC   C3A42953  14.570   4.390   7.092
 3269POPC   C4A42954  14.778   4.124   7.442
 3269POPC   C1B42955  14.127   4.393   6.280
 3269POPC   C2B42956  14.018   4.391   6.748
 3269POPC   C3B42957  14.066   4.213   7.161
 3269POPC   C4B42958  14.309   4.297   7.556
 3270POPC   NC342959   1.354  36.651   5.520
 3270POPC   PO442960   0.870  37.227   5.555
 3270POPC   GL142961   1.158  37.028   5.803
 3270POPC   GL242962   1.002  36.708   5.915
 3270POPC   C1A42963   1.380  37.092   6.162
 3270POPC   D2A42964   1.213  36.950   6.582
 3270POPC   C3A42965   1.380  37.081   6.991
 3270POPC   C4A42966   1.388  36.924   7.428
 3270POPC   C1B42967   1.358  36.584   6.190
 3270POPC   C2B42968   1.471  36.456   6.622
 3270POPC   C3B42969   1.421  36.582   7.051
 3270POPC   C4B42970   1.643  36.490   7.473
 3271POPC   NC342971   2.714  29.083   5.347
 3271POPC   PO442972   3.271  29.076   5.584
 3271POPC   GL142973   2.975  29.307   5.816
 3271POPC   GL242974   2.613  29.233   5.836
 3271POPC   C1A42975   2.898  29.296   6.259
 3271POPC   D2A42976   2.644  29.345   6.602
 3271POPC   C3A42977   2.938  29.390   6.938
 3271POPC   C4A42978   2.772  29.189   7.288
 3271POPC   C1B42979   2.485  28.975   6.213
 3271POPC   C2B42980   2.325  28.955   6.689
 3271POPC   C3B42981   2.398  28.838   7.155
 3271POPC   C4B42982   2.501  28.891   7.620
 3272POPC   NC342983  14.610   7.688   5.606
 3272POPC   PO442984  14.325   7.103   5.507
 3272POPC   GL142985  14.519   7.277   5.902
 3272POPC   GL242986  14.207   7.449   5.955
 3272POPC   C1A42987  14.570   7.604   6.273
 3272POPC   D2A42988  14.307   7.753   6.631
 3272POPC   C3A42989  14.502   7.634   7.014
 3272POPC   C4A42990  14.529   7.323   7.312
 3272POPC   C1B42991  14.134   7.033   6.169
 3272POPC   C2B42992  14.102   6.847   6.576
 3272POPC   C3B42993  14.140   7.025   6.989
 3272POPC   C4B42994  14.049   7.416   7.199
 3273POPC   NC342995  38.490  27.038   5.262
 3273POPC   PO442996  38.716  26.396   5.183
 3273POPC   GL142997  38.452  26.624   5.596
 3273POPC   GL242998  38.669  26.894   5.744
 3273POPC   C1A42999  38.365  26.782   6.119
 3273POPC   D2A43000  38.645  26.916   6.498
 3273POPC   C3A43001  38.454  26.951   6.926
 3273POPC   C4A43002  38.303  27.020   7.348
 3273POPC   C1B43003  38.715  26.458   5.984
 3273POPC   C2B43004  38.605  26.391   6.428
 3273POPC   C3B43005  38.710  26.505   6.835
 3273POPC   C4B43006  38.671  26.378   7.246
 3274POPC   NC343007  19.681   7.555   5.085
 3274POPC   PO443008  20.127   7.461   5.537
 3274POPC   GL143009  20.014   7.244   5.855
 3274POPC   GL243010  19.824   7.005   5.709
 3274POPC   C1A43011  19.988   7.373   6.246
 3274POPC   D2A43012  20.089   7.222   6.626
 3274POPC   C3A43013  20.015   7.540   6.933
 3274POPC   C4A43014  20.135   7.386   7.297
 3274POPC   C1B43015  19.624   7.005   6.130
 3274POPC   C2B43016  19.557   7.278   6.497
 3274POPC   C3B43017  19.637   7.189   6.888
 3274POPC   C4B43018  19.641   7.314   7.293
 3275POPC   NC343019  31.047  12.820   5.423
 3275POPC   PO443020  30.556  13.276   5.554
 3275POPC   GL143021  30.664  12.982   5.889
 3275POPC   GL243022  31.035  12.944   5.915
 3275POPC   C1A43023  30.416  12.796   6.272
 3275POPC   D2A43024  30.248  13.007   6.652
 3275POPC   C3A43025  30.495  12.892   7.003
 3275POPC   C4A43026  30.576  12.484   7.124
 3275POPC   C1B43027  30.918  12.899   6.334
 3275POPC   C2B43028  30.821  12.639   6.671
 3275POPC   C3B43029  31.059  12.693   7.017
 3275POPC   C4B43030  31.193  13.092   7.141
 3276POPC   NC343031  28.621   2.980   5.529
 3276POPC   PO443032  28.038   2.638   5.407
 3276POPC   GL143033  28.195   2.731   5.815
 3276POPC   GL243034  28.531   2.551   5.826
 3276POPC   C1A43035  28.089   2.914   6.225
 3276POPC   D2A43036  28.289   3.102   6.573
 3276POPC   C3A43037  28.167   3.025   6.968
 3276POPC   C4A43038  28.147   2.770   7.319
 3276POPC   C1B43039  28.593   2.788   6.228
 3276POPC   C2B43040  28.592   2.667   6.687
 3276POPC   C3B43041  28.618   2.831   7.123
 3276POPC   C4B43042  28.596   2.709   7.566
 3277POPC   NC343043  23.425  36.234   5.335
 3277POPC   PO443044  23.869  35.751   5.267
 3277POPC   GL143045  23.706  35.910   5.697
 3277POPC   GL243046  23.557  36.251   5.823
 3277POPC   C1A43047  23.801  35.937   6.146
 3277POPC   D2A43048  23.531  35.986   6.493
 3277POPC   C3A43049  23.770  35.995   6.837
 3277POPC   C4A43050  23.739  36.038   7.219
 3277POPC   C1B43051  23.697  36.481   6.182
 3277POPC   C2B43052  23.803  36.451   6.613
 3277POPC   C3B43053  23.629  36.496   7.012
 3277POPC   C4B43054  23.888  36.621   7.345
 3278POPC   NC343055  35.206  17.746   5.041
 3278POPC   PO443056  35.300  17.218   5.488
 3278POPC   GL143057  35.456  17.435   5.804
 3278POPC   GL243058  35.515  17.755   5.600
 3278POPC   C1A43059  35.503  17.301   6.245
 3278POPC   D2A43060  35.293  17.342   6.658
 3278POPC   C3A43061  35.497  17.330   7.064
 3278POPC   C4A43062  35.278  17.306   7.479
 3278POPC   C1B43063  35.288  17.892   5.987
 3278POPC   C2B43064  35.288  17.838   6.455
 3278POPC   C3B43065  35.211  17.793   6.922
 3278POPC   C4B43066  35.359  17.781   7.353
 3279POPC   NC343067  11.587   7.038   5.689
 3279POPC   PO443068  11.064   6.894   5.213
 3279POPC   GL143069  11.105   6.858   5.733
 3279POPC   GL243070  10.920   6.618   5.903
 3279POPC   C1A43071  11.334   6.720   6.175
 3279POPC   D2A43072  11.402   6.505   6.581
 3279POPC   C3A43073  11.302   6.691   6.977
 3279POPC   C4A43074  11.006   6.610   7.267
 3279POPC   C1B43075  10.872   6.895   6.289
 3279POPC   C2B43076  10.932   6.973   6.739
 3279POPC   C3B43077  10.890   7.103   7.188
 3279POPC   C4B43078  10.923   6.913   7.660
 3280POPC   NC343079  29.702   1.590   5.459
 3280POPC   PO443080  29.938   2.321   5.488
 3280POPC   GL143081  29.843   2.218   5.884
 3280POPC   GL243082  29.696   1.910   5.858
 3280POPC   C1A43083  29.944   2.149   6.311
 3280POPC   D2A43084  30.186   1.816   6.470
 3280POPC   C3A43085  30.055   1.654   6.839
 3280POPC   C4A43086  30.222   1.824   7.219
 3280POPC   C1B43087  29.613   1.725   6.251
 3280POPC   C2B43088  29.548   1.786   6.687
 3280POPC   C3B43089  29.757   2.039   6.986
 3280POPC   C4B43090  29.722   1.829   7.360
 3281POPC   NC343091   0.265  27.979   5.194
 3281POPC   PO443092   0.669  28.669   5.373
 3281POPC   GL143093   0.539  28.548   5.860
 3281POPC   GL243094   0.171  28.499   5.961
 3281POPC   C1A43095   0.593  28.404   6.259
 3281POPC   D2A43096   0.296  28.228   6.523
 3281POPC   C3A43097   0.363  28.224   6.958
 3281POPC   C4A43098   0.228  28.220   7.366
 3281POPC   C1B43099   0.116  28.699   6.348
 3281POPC   C2B43100   0.310  28.702   6.747
 3281POPC   C3B43101   0.291  28.696   7.221
 3281POPC   C4B43102   0.015  28.623   7.612
 3282POPC   NC343103   0.368   8.242   5.448
 3282POPC   PO443104   0.826   7.773   5.574
 3282POPC   GL143105   0.593   8.027   5.851
 3282POPC   GL243106   0.733   8.398   5.794
 3282POPC   C1A43107   0.332   7.995   6.226
 3282POPC   D2A43108   0.468   7.926   6.662
 3282POPC   C3A43109   0.370   8.011   7.110
 3282POPC   C4A43110   0.304   7.902   7.571
 3282POPC   C1B43111   0.771   8.306   6.245
 3282POPC   C2B43112   0.683   8.463   6.655
 3282POPC   C3B43113   0.777   8.314   7.051
 3282POPC   C4B43114   0.658   8.269   7.487
 3283POPC   NC343115  29.667  17.442   5.487
 3283POPC   PO443116  30.337  17.643   5.276
 3283POPC   GL143117  30.073  17.596   5.762
 3283POPC   GL243118  29.739  17.618   5.971
 3283POPC   C1A43119  30.146  17.543   6.251
 3283POPC   D2A43120  30.050  17.758   6.648
 3283POPC   C3A43121  30.098  17.564   7.070
 3283POPC   C4A43122  29.760  17.716   7.316
 3283POPC   C1B43123  29.652  17.275   6.265
 3283POPC   C2B43124  29.790  17.178   6.689
 3283POPC   C3B43125  29.706  17.219   7.140
 3283POPC   C4B43126  29.859  17.287   7.567
 3284POPC   NC343127   1.721  11.795   5.639
 3284POPC   PO443128   2.155  11.319   5.585
 3284POPC   GL143129   1.894  11.110   5.895
 3284POPC   GL243130   2.050  11.395   6.102
 3284POPC   C1A43131   1.881  10.944   6.329
 3284POPC   D2A43132   2.088  11.256   6.604
 3284POPC   C3A43133   2.049  11.263   7.046
 3284POPC   C4A43134   1.835  11.511   7.302
 3284POPC   C1B43135   2.374  11.065   6.194
 3284POPC   C2B43136   2.388  10.830   6.574
 3284POPC   C3B43137   2.465  10.933   7.014
 3284POPC   C4B43138   2.397  11.105   7.443
 3285POPC   NC343139  11.700  13.347   5.082
 3285POPC   PO443140  12.205  13.644   5.381
 3285POPC   GL143141  12.076  13.770   5.788
 3285POPC   GL243142  12.437  13.854   5.822
 3285POPC   C1A43143  11.944  13.588   6.226
 3285POPC   D2A43144  11.778  13.671   6.663
 3285POPC   C3A43145  12.038  13.549   7.056
 3285POPC   C4A43146  11.950  13.479   7.520
 3285POPC   C1B43147  12.287  13.968   6.222
 3285POPC   C2B43148  12.220  13.892   6.649
 3285POPC   C3B43149  12.123  14.114   7.000
 3285POPC   C4B43150  12.144  13.965   7.400
 3286POPC   NC343151  32.532   8.442   5.457
 3286POPC   PO443152  32.055   8.028   5.418
 3286POPC   GL143153  32.171   8.228   5.813
 3286POPC   GL243154  32.517   8.133   5.911
 3286POPC   C1A43155  32.181   8.332   6.269
 3286POPC   D2A43156  32.420   8.168   6.628
 3286POPC   C3A43157  32.265   8.293   7.052
 3286POPC   C4A43158  32.175   8.130   7.499
 3286POPC   C1B43159  32.658   8.506   6.208
 3286POPC   C2B43160  32.845   8.479   6.630
 3286POPC   C3B43161  32.769   8.236   7.001
 3286POPC   C4B43162  32.637   8.347   7.405
 3287POPC   NC343163   8.984  20.043   5.570
 3287POPC   PO443164   8.929  19.587   5.107
 3287POPC   GL143165   8.696  19.627   5.645
 3287POPC   GL243166   8.848  19.379   5.888
 3287POPC   C1A43167   8.879  19.782   6.153
 3287POPC   D2A43168   9.239  19.813   6.470
 3287POPC   C3A43169   9.082  19.910   6.879
 3287POPC   C4A43170   8.944  19.662   7.236
 3287POPC   C1B43171   9.039  19.290   6.297
 3287POPC   C2B43172   9.047  19.417   6.716
 3287POPC   C3B43173   9.309  19.334   7.057
 3287POPC   C4B43174   9.322  19.370   7.509
 3288POPC   NC343175  43.391  40.950   5.464
 3288POPC   PO443176  43.013  40.415   5.412
 3288POPC   GL143177  43.036  40.715   5.788
 3288POPC   GL243178  43.373  40.732   5.941
 3288POPC   C1A43179  42.823  40.835   6.189
 3288POPC   D2A43180  42.776  40.684   6.594
 3288POPC   C3A43181  43.105  40.785   6.867
 3288POPC   C4A43182  43.045  41.109   7.126
 3288POPC   C1B43183  43.279  40.688   6.384
 3288POPC   C2B43184  43.275  40.344   6.660
 3288POPC   C3B43185  43.284  40.362   7.086
 3288POPC   C4B43186  43.179  40.653   7.379
 3289POPC   NC343187  12.485  16.824   5.549
 3289POPC   PO443188  13.171  17.172   5.446
 3289POPC   GL143189  12.962  16.943   5.766
 3289POPC   GL243190  12.938  16.601   5.756
 3289POPC   C1A43191  12.745  16.980   6.158
 3289POPC   D2A43192  12.644  16.745   6.520
 3289POPC   C3A43193  12.742  16.974   6.889
 3289POPC   C4A43194  12.543  16.976   7.267
 3289POPC   C1B43195  12.870  16.440   6.158
 3289POPC   C2B43196  13.119  16.363   6.514
 3289POPC   C3B43197  13.026  16.531   6.915
 3289POPC   C4B43198  12.819  16.365   7.275
 3290POPC   NC343199  11.418   7.857   5.495
 3290POPC   PO443200  11.212   8.533   5.544
 3290POPC   GL143201  11.427   8.251   5.827
 3290POPC   GL243202  11.205   7.945   5.952
 3290POPC   C1A43203  11.464   8.256   6.259
 3290POPC   D2A43204  11.173   8.082   6.537
 3290POPC   C3A43205  11.254   8.251   6.934
 3290POPC   C4A43206  11.321   8.046   7.317
 3290POPC   C1B43207  11.536   7.766   6.147
 3290POPC   C2B43208  11.571   7.720   6.537
 3290POPC   C3B43209  11.375   7.734   6.913
 3290POPC   C4B43210  11.468   7.545   7.313
 3291POPC   NC343211  27.031  24.611   5.380
 3291POPC   PO443212  26.356  24.384   5.425
 3291POPC   GL143213  26.595  24.434   5.805
 3291POPC   GL243214  26.895  24.257   5.722
 3291POPC   C1A43215  26.532  24.569   6.257
 3291POPC   D2A43216  26.564  24.816   6.650
 3291POPC   C3A43217  26.712  24.575   7.005
 3291POPC   C4A43218  26.670  24.431   7.446
 3291POPC   C1B43219  27.003  24.630   6.046
 3291POPC   C2B43220  27.054  24.581   6.500
 3291POPC   C3B43221  27.215  24.293   6.814
 3291POPC   C4B43222  27.166  24.440   7.238
 3292POPC   NC343223  12.973  19.242   5.277
 3292POPC   PO443224  12.347  18.902   5.240
 3292POPC   GL143225  12.529  18.942   5.715
 3292POPC   GL243226  12.813  18.687   5.753
 3292POPC   C1A43227  12.849  19.112   6.081
 3292POPC   D2A43228  13.073  19.285   6.501
 3292POPC   C3A43229  12.876  19.244   6.951
 3292POPC   C4A43230  12.670  19.182   7.431
 3292POPC   C1B43231  13.109  18.672   6.130
 3292POPC   C2B43232  13.121  18.708   6.592
 3292POPC   C3B43233  13.123  18.725   7.059
 3292POPC   C4B43234  12.889  18.746   7.450
 3293POPC   NC343235  16.553  44.639   5.248
 3293POPC   PO443236  17.053  44.466   5.406
 3293POPC   GL143237  16.768  44.535   5.732
 3293POPC   GL243238  16.741  44.850   5.693
 3293POPC   C1A43239  16.405  44.657   6.001
 3293POPC   D2A43240  16.335  44.808   6.425
 3293POPC   C3A43241  16.599  44.579   6.734
 3293POPC   C4A43242  16.615  44.558   7.173
 3293POPC   C1B43243  16.772   0.014   6.122
 3293POPC   C2B43244  16.853  44.985   6.565
 3293POPC   C3B43245  17.029  44.902   7.006
 3293POPC   C4B43246  16.945  44.859   7.452
 3294POPC   NC343247   3.672  24.534   5.344
 3294POPC   PO443248   3.030  24.452   5.259
 3294POPC   GL143249   3.290  24.551   5.684
 3294POPC   GL243250   3.645  24.727   5.805
 3294POPC   C1A43251   3.465  24.306   6.043
 3294POPC   D2A43252   3.658  24.362   6.447
 3294POPC   C3A43253   3.460  24.240   6.818
 3294POPC   C4A43254   3.551  24.373   7.255
 3294POPC   C1B43255   3.381  24.840   6.116
 3294POPC   C2B43256   3.298  24.957   6.528
 3294POPC   C3B43257   3.281  24.719   6.913
 3294POPC   C4B43258   3.386  24.865   7.305
 3295POPC   NC343259  29.764  35.447   5.585
 3295POPC   PO443260  29.959  35.797   5.073
 3295POPC   GL143261  30.225  35.609   5.584
 3295POPC   GL243262  30.140  35.724   5.931
 3295POPC   C1A43263  30.118  35.260   6.073
 3295POPC   D2A43264  30.032  35.126   6.498
 3295POPC   C3A43265  30.243  35.309   6.872
 3295POPC   C4A43266  30.400  35.345   7.297
 3295POPC   C1B43267  29.756  35.544   6.269
 3295POPC   C2B43268  29.668  35.419   6.748
 3295POPC   C3B43269  29.701  35.611   7.179
 3295POPC   C4B43270  29.595  35.595   7.657
 3296POPC   NC343271  19.749  10.331   5.362
 3296POPC   PO443272  19.088  10.369   5.401
 3296POPC   GL143273  18.943  10.601   5.777
 3296POPC   GL243274  19.224  10.744   5.984
 3296POPC   C1A43275  18.800  10.549   6.221
 3296POPC   D2A43276  18.950  10.697   6.612
 3296POPC   C3A43277  19.049  10.491   6.978
 3296POPC   C4A43278  19.207  10.231   7.308
 3296POPC   C1B43279  19.411  10.869   6.383
 3296POPC   C2B43280  19.354  10.919   6.822
 3296POPC   C3B43281  19.448  10.735   7.189
 3296POPC   C4B43282  19.724  10.713   7.516
 3297POPC   NC343283  43.817  44.596   5.434
 3297POPC   PO443284  43.331   0.008   5.738
 3297POPC   GL143285  43.609  44.736   5.910
 3297POPC   GL243286  43.568  44.394   5.844
 3297POPC   C1A43287  43.725  44.623   6.331
 3297POPC   D2A43288  44.023  44.577   6.658
 3297POPC   C3A43289  44.019  44.827   7.035
 3297POPC   C4A43290  44.341  44.809   7.329
 3297POPC   C1B43291  43.418  44.232   6.217
 3297POPC   C2B43292  43.687  44.163   6.586
 3297POPC   C3B43293  43.672  44.370   6.967
 3297POPC   C4B43294  43.336  44.285   7.172
 3298POPC   NC343295  33.086  18.972   5.254
 3298POPC   PO443296  32.519  19.112   5.311
 3298POPC   GL143297  32.793  18.977   5.704
 3298POPC   GL243298  33.106  19.184   5.731
 3298POPC   C1A43299  32.988  18.928   6.158
 3298POPC   D2A43300  32.856  18.724   6.547
 3298POPC   C3A43301  32.993  18.818   6.969
 3298POPC   C4A43302  32.773  18.788   7.367
 3298POPC   C1B43303  33.264  19.376   6.124
 3298POPC   C2B43304  33.091  19.342   6.528
 3298POPC   C3B43305  33.267  19.292   6.935
 3298POPC   C4B43306  33.186  19.132   7.330
 3299POPC   NC343307  38.552  42.637   5.433
 3299POPC   PO443308  38.122  43.162   5.431
 3299POPC   GL143309  38.196  43.155   5.848
 3299POPC   GL243310  38.470  42.920   5.843
 3299POPC   C1A43311  38.165  42.972   6.259
 3299POPC   D2A43312  38.397  42.899   6.665
 3299POPC   C3A43313  38.204  42.959   7.082
 3299POPC   C4A43314  38.335  43.166   7.453
 3299POPC   C1B43315  38.640  43.168   6.174
 3299POPC   C2B43316  38.828  43.150   6.588
 3299POPC   C3B43317  38.656  43.226   7.012
 3299POPC   C4B43318  38.826  43.312   7.426
 3300POPC   NC343319   3.038   4.369   5.667
 3300POPC   PO443320   2.460   4.135   5.408
 3300POPC   GL143321   2.587   4.140   5.831
 3300POPC   GL243322   2.542   4.500   5.813
 3300POPC   C1A43323   2.804   4.190   6.258
 3300POPC   D2A43324   3.136   4.404   6.527
 3300POPC   C3A43325   2.987   4.349   6.938
 3300POPC   C4A43326   2.718   4.079   7.181
 3300POPC   C1B43327   2.417   4.534   6.233
 3300POPC   C2B43328   2.606   4.569   6.624
 3300POPC   C3B43329   2.416   4.692   7.006
 3300POPC   C4B43330   2.590   4.540   7.333
 3301POPC   NC343331  20.162  33.404   5.398
 3301POPC   PO443332  20.133  34.098   5.364
 3301POPC   GL143333  20.018  33.808   5.681
 3301POPC   GL243334  20.338  33.735   5.769
 3301POPC   C1A43335  19.808  33.662   6.049
 3301POPC   D2A43336  19.729  33.773   6.480
 3301POPC   C3A43337  19.645  33.496   6.827
 3301POPC   C4A43338  19.550  33.617   7.245
 3301POPC   C1B43339  20.314  33.661   6.190
 3301POPC   C2B43340  20.152  33.500   6.571
 3301POPC   C3B43341  20.096  33.674   6.987
 3301POPC   C4B43342  20.408  33.689   7.295
 3302POPC   NC343343  43.522  15.853   5.162
 3302POPC   PO443344  44.051  15.701   5.564
 3302POPC   GL143345  43.886  15.996   5.857
 3302POPC   GL243346  43.605  16.214   5.690
 3302POPC   C1A43347  43.762  15.861   6.273
 3302POPC   D2A43348  43.919  15.869   6.665
 3302POPC   C3A43349  43.598  15.761   6.927
 3302POPC   C4A43350  43.788  15.806   7.290
 3302POPC   C1B43351  43.614  16.334   6.154
 3302POPC   C2B43352  43.510  16.204   6.605
 3302POPC   C3B43353  43.640  16.243   7.052
 3302POPC   C4B43354  43.372  16.411   7.390
 3303POPC   NC343355   5.639  22.352   5.383
 3303POPC   PO443356   6.081  21.872   5.435
 3303POPC   GL143357   6.003  22.227   5.754
 3303POPC   GL243358   5.652  22.434   5.869
 3303POPC   C1A43359   5.917  22.148   6.185
 3303POPC   D2A43360   5.799  22.295   6.571
 3303POPC   C3A43361   6.092  22.276   6.893
 3303POPC   C4A43362   6.028  22.316   7.307
 3303POPC   C1B43363   5.415  22.198   6.182
 3303POPC   C2B43364   5.423  21.969   6.576
 3303POPC   C3B43365   5.384  22.232   6.930
 3303POPC   C4B43366   5.531  22.235   7.345
 3304POPC   NC343367  14.001  38.846   5.440
 3304POPC   PO443368  13.449  38.466   5.466
 3304POPC   GL143369  13.701  38.419   5.833
 3304POPC   GL243370  13.756  38.783   5.881
 3304POPC   C1A43371  13.806  38.465   6.281
 3304POPC   D2A43372  13.946  38.437   6.695
 3304POPC   C3A43373  13.670  38.266   6.968
 3304POPC   C4A43374  13.393  38.395   7.281
 3304POPC   C1B43375  13.998  38.941   6.229
 3304POPC   C2B43376  13.866  39.052   6.651
 3304POPC   C3B43377  13.762  38.807   7.011
 3304POPC   C4B43378  13.917  38.540   7.334
 3305POPC   NC343379   4.795  21.987   5.428
 3305POPC   PO443380   5.198  22.486   5.411
 3305POPC   GL143381   5.224  22.102   5.712
 3305POPC   GL243382   5.568  21.926   5.773
 3305POPC   C1A43383   4.923  22.061   6.091
 3305POPC   D2A43384   4.994  22.237   6.517
 3305POPC   C3A43385   4.759  22.360   6.880
 3305POPC   C4A43386   5.007  22.397   7.252
 3305POPC   C1B43387   5.300  21.714   6.096
 3305POPC   C2B43388   5.006  21.707   6.466
 3305POPC   C3B43389   4.985  21.863   6.900
 3305POPC   C4B43390   5.157  21.897   7.320
 3306POPC   NC343391  11.792  34.926   5.494
 3306POPC   PO443392  12.160  34.416   5.204
 3306POPC   GL143393  12.137  34.544   5.681
 3306POPC   GL243394  12.396  34.758   5.849
 3306POPC   C1A43395  12.112  34.378   6.143
 3306POPC   D2A43396  12.275  34.368   6.603
 3306POPC   C3A43397  11.978  34.479   6.978
 3306POPC   C4A43398  11.891  34.432   7.449
 3306POPC   C1B43399  12.324  34.823   6.300
 3306POPC   C2B43400  12.462  34.851   6.736
 3306POPC   C3B43401  12.371  34.751   7.134
 3306POPC   C4B43402  12.009  34.920   7.364
 3307POPC   NC343403  31.313  33.749   5.418
 3307POPC   PO443404  31.783  34.144   5.657
 3307POPC   GL143405  31.541  33.843   5.918
 3307POPC   GL243406  31.343  33.528   5.850
 3307POPC   C1A43407  31.539  33.888   6.365
 3307POPC   D2A43408  31.804  33.935   6.720
 3307POPC   C3A43409  31.642  33.736   7.057
 3307POPC   C4A43410  31.449  33.964   7.389
 3307POPC   C1B43411  31.450  33.408   6.228
 3307POPC   C2B43412  31.292  33.509   6.604
 3307POPC   C3B43413  31.246  33.318   6.943
 3307POPC   C4B43414  31.377  33.382   7.321
 3308POPC   NC343415  44.421  27.424   5.720
 3308POPC   PO443416  44.861  27.817   5.421
 3308POPC   GL143417  44.923  27.570   5.815
 3308POPC   GL243418  44.723  27.779   5.950
 3308POPC   C1A43419  44.797  27.354   6.248
 3308POPC   D2A43420  44.411  27.314   6.528
 3308POPC   C3A43421  44.488  27.417   6.979
 3308POPC   C4A43422  44.900  27.371   7.184
 3308POPC   C1B43423  44.901  27.984   6.302
 3308POPC   C2B43424   0.055  27.824   6.728
 3308POPC   C3B43425  44.847  27.933   7.109
 3308POPC   C4B43426  44.629  27.720   7.440
 3309POPC   NC343427  28.892  34.276   5.386
 3309POPC   PO443428  29.253  34.735   5.177
 3309POPC   GL143429  29.208  34.619   5.690
 3309POPC   GL243430  29.122  34.319   5.850
 3309POPC   C1A43431  28.886  34.665   6.112
 3309POPC   D2A43432  28.839  34.436   6.544
 3309POPC   C3A43433  28.930  34.687   6.944
 3309POPC   C4A43434  29.368  34.688   7.137
 3309POPC   C1B43435  29.338  34.125   6.165
 3309POPC   C2B43436  29.207  33.995   6.550
 3309POPC   C3B43437  29.171  34.234   6.887
 3309POPC   C4B43438  29.231  34.117   7.248
 3310POPC   NC343439  22.086  21.673   5.191
 3310POPC   PO443440  22.386  21.023   5.275
 3310POPC   GL143441  22.325  21.164   5.701
 3310POPC   GL243442  22.167  21.519   5.700
 3310POPC   C1A43443  22.380  21.035   6.131
 3310POPC   D2A43444  22.191  21.080   6.525
 3310POPC   C3A43445  22.446  21.084   6.892
 3310POPC   C4A43446  22.253  21.283   7.237
 3310POPC   C1B43447  21.990  21.430   6.126
 3310POPC   C2B43448  21.805  21.432   6.541
 3310POPC   C3B43449  21.916  21.550   6.943
 3310POPC   C4B43450  21.841  21.529   7.373
 3311POPC   NC343451  14.305  31.126   5.465
 3311POPC   PO443452  14.322  30.484   5.309
 3311POPC   GL143453  14.329  30.639   5.732
 3311POPC   GL243454  14.635  30.809   5.699
 3311POPC   C1A43455  14.437  30.491   6.161
 3311POPC   D2A43456  14.223  30.569   6.566
 3311POPC   C3A43457  14.406  30.634   6.970
 3311POPC   C4A43458  14.382  30.993   7.275
 3311POPC   C1B43459  14.580  30.972   6.107
 3311POPC   C2B43460  14.666  30.881   6.576
 3311POPC   C3B43461  14.796  30.997   7.001
 3311POPC   C4B43462  14.974  31.000   7.414
 3312POPC   NC343463  16.752   1.563   5.577
 3312POPC   PO443464  16.857   0.903   5.659
 3312POPC   GL143465  16.756   1.207   5.959
 3312POPC   GL243466  16.423   1.374   5.910
 3312POPC   C1A43467  17.035   1.300   6.276
 3312POPC   D2A43468  17.219   1.112   6.640
 3312POPC   C3A43469  17.145   1.322   7.010
 3312POPC   C4A43470  16.900   1.158   7.325
 3312POPC   C1B43471  16.578   1.632   6.251
 3312POPC   C2B43472  16.731   1.469   6.649
 3312POPC   C3B43473  16.527   1.279   6.986
 3312POPC   C4B43474  16.521   1.475   7.372
 3313POPC   NC343475  39.669  23.069   5.789
 3313POPC   PO443476  39.221  22.858   5.403
 3313POPC   GL143477  39.199  22.794   5.830
 3313POPC   GL243478  39.468  22.579   5.934
 3313POPC   C1A43479  39.140  23.016   6.233
 3313POPC   D2A43480  39.068  23.265   6.601
 3313POPC   C3A43481  39.153  23.107   7.015
 3313POPC   C4A43482  39.463  23.262   7.296
 3313POPC   C1B43483  39.591  22.772   6.351
 3313POPC   C2B43484  39.814  22.672   6.719
 3313POPC   C3B43485  39.558  22.784   7.036
 3313POPC   C4B43486  39.346  22.625   7.336
 3314POPC   NC343487  27.302   9.591   5.558
 3314POPC   PO443488  27.908   9.810   5.350
 3314POPC   GL143489  27.817  10.065   5.732
 3314POPC   GL243490  27.774   9.731   5.859
 3314POPC   C1A43491  27.814  10.099   6.230
 3314POPC   D2A43492  27.655   9.854   6.617
 3314POPC   C3A43493  27.597   9.962   7.064
 3314POPC   C4A43494  27.291   9.945   7.418
 3314POPC   C1B43495  27.457   9.667   6.177
 3314POPC   C2B43496  27.309   9.484   6.542
 3314POPC   C3B43497  27.531   9.434   6.905
 3314POPC   C4B43498  27.377   9.464   7.276
 3315POPC   NC343499   6.193  31.711   5.760
 3315POPC   PO443500   5.829  31.355   5.361
 3315POPC   GL143501   5.859  31.319   5.817
 3315POPC   GL243502   6.075  30.992   5.794
 3315POPC   C1A43503   5.736  31.515   6.278
 3315POPC   D2A43504   5.877  31.725   6.709
 3315POPC   C3A43505   5.744  31.602   7.138
 3315POPC   C4A43506   5.579  31.365   7.463
 3315POPC   C1B43507   6.181  31.133   6.210
 3315POPC   C2B43508   6.044  31.251   6.598
 3315POPC   C3B43509   6.211  31.367   6.955
 3315POPC   C4B43510   6.232  31.732   7.205
 3316POPC   NC343511  40.160  15.679   5.429
 3316POPC   PO443512  39.937  16.355   5.521
 3316POPC   GL143513  40.018  16.011   5.801
 3316POPC   GL243514  40.367  16.035   5.856
 3316POPC   C1A43515  40.060  15.830   6.225
 3316POPC   D2A43516  39.844  15.804   6.608
 3316POPC   C3A43517  40.106  15.788   6.973
 3316POPC   C4A43518  39.873  15.970   7.291
 3316POPC   C1B43519  40.417  16.224   6.263
 3316POPC   C2B43520  40.155  16.193   6.606
 3316POPC   C3B43521  40.145  16.300   7.013
 3316POPC   C4B43522  40.371  16.203   7.381
 3317POPC   NC343523  40.347   4.983   5.506
 3317POPC   PO443524  39.902   5.393   5.503
 3317POPC   GL143525  40.030   5.173   5.854
 3317POPC   GL243526  40.370   5.175   5.986
 3317POPC   C1A43527  39.918   5.075   6.250
 3317POPC   D2A43528  40.183   5.059   6.571
 3317POPC   C3A43529  39.930   4.974   6.908
 3317POPC   C4A43530  40.159   5.079   7.275
 3317POPC   C1B43531  40.311   4.727   6.155
 3317POPC   C2B43532  40.444   4.596   6.574
 3317POPC   C3B43533  40.273   4.609   6.978
 3317POPC   C4B43534  40.446   4.679   7.396
 3318POPC   NC343535  37.786  42.063   5.502
 3318POPC   PO443536  37.373  42.596   5.534
 3318POPC   GL143537  37.661  42.492   5.810
 3318POPC   GL243538  37.993  42.672   5.785
 3318POPC   C1A43539  37.506  42.309   6.205
 3318POPC   D2A43540  37.671  42.172   6.598
 3318POPC   C3A43541  37.456  42.297   6.977
 3318POPC   C4A43542  37.550  42.224   7.411
 3318POPC   C1B43543  38.012  42.416   6.171
 3318POPC   C2B43544  38.047  42.545   6.587
 3318POPC   C3B43545  37.897  42.544   7.002
 3318POPC   C4B43546  37.747  42.686   7.403
 3319POPC   NC343547  17.090  12.026   5.069
 3319POPC   PO443548  17.684  12.035   5.262
 3319POPC   GL143549  17.581  12.140   5.711
 3319POPC   GL243550  17.323  12.353   5.691
 3319POPC   C1A43551  17.589  12.159   6.184
 3319POPC   D2A43552  17.300  12.151   6.552
 3319POPC   C3A43553  17.434  11.972   6.908
 3319POPC   C4A43554  17.518  11.883   7.349
 3319POPC   C1B43555  17.341  12.585   6.068
 3319POPC   C2B43556  17.524  12.630   6.463
 3319POPC   C3B43557  17.612  12.468   6.860
 3319POPC   C4B43558  17.412  12.361   7.255
 3320POPC   NC343559  41.401  30.482   5.130
 3320POPC   PO443560  41.602  29.943   5.488
 3320POPC   GL143561  41.553  29.885   5.920
 3320POPC   GL243562  41.195  29.770   5.971
 3320POPC   C1A43563  41.861  29.854   6.287
 3320POPC   D2A43564  41.870  30.076   6.697
 3320POPC   C3A43565  41.744  29.880   7.110
 3320POPC   C4A43566  41.677  29.838   7.572
 3320POPC   C1B43567  41.178  30.152   6.212
 3320POPC   C2B43568  41.294  30.240   6.651
 3320POPC   C3B43569  41.286  30.142   7.097
 3320POPC   C4B43570  41.100  29.792   7.344
 3321POPC   NC343571  40.081  42.040   5.324
 3321POPC   PO443572  39.923  41.372   5.321
 3321POPC   GL143573  40.022  41.656   5.677
 3321POPC   GL243574  39.722  41.847   5.743
 3321POPC   C1A43575  40.129  41.680   6.124
 3321POPC   D2A43576  40.007  41.833   6.518
 3321POPC   C3A43577  40.015  41.649   6.943
 3321POPC   C4A43578  40.055  41.631   7.414
 3321POPC   C1B43579  39.595  41.750   6.201
 3321POPC   C2B43580  39.632  41.479   6.574
 3321POPC   C3B43581  39.617  41.179   6.902
 3321POPC   C4B43582  39.736  41.239   7.317
 3322POPC   NC343583  37.018  29.700   5.326
 3322POPC   PO443584  36.500  30.232   5.481
 3322POPC   GL143585  36.848  30.004   5.710
 3322POPC   GL243586  36.701  29.813   5.958
 3322POPC   C1A43587  37.158  30.044   6.067
 3322POPC   D2A43588  37.318  29.961   6.488
 3322POPC   C3A43589  37.110  29.656   6.764
 3322POPC   C4A43590  37.222  29.779   7.168
 3322POPC   C1B43591  36.709  30.101   6.295
 3322POPC   C2B43592  36.847  30.097   6.743
 3322POPC   C3B43593  36.909  30.253   7.190
 3322POPC   C4B43594  36.691  30.269   7.626
 3323POPC   NC343595  37.113  21.830   5.234
 3323POPC   PO443596  36.770  21.215   5.346
 3323POPC   GL143597  36.918  21.210   5.768
 3323POPC   GL243598  36.623  21.357   5.903
 3323POPC   C1A43599  36.950  21.137   6.232
 3323POPC   D2A43600  36.698  21.325   6.578
 3323POPC   C3A43601  36.826  21.174   6.979
 3323POPC   C4A43602  37.187  21.307   7.201
 3323POPC   C1B43603  36.888  21.638   6.142
 3323POPC   C2B43604  36.849  21.834   6.533
 3323POPC   C3B43605  37.014  21.708   6.900
 3323POPC   C4B43606  36.913  21.893   7.240
 3324POPC   NC343607  30.940  14.765   5.557
 3324POPC   PO443608  30.583  14.211   5.456
 3324POPC   GL143609  30.905  14.249   5.815
 3324POPC   GL243610  31.075  14.573   5.990
 3324POPC   C1A43611  30.819  14.278   6.288
 3324POPC   D2A43612  30.535  14.193   6.621
 3324POPC   C3A43613  30.727  14.235   7.025
 3324POPC   C4A43614  30.637  14.603   7.224
 3324POPC   C1B43615  30.720  14.768   6.276
 3324POPC   C2B43616  30.779  14.688   6.727
 3324POPC   C3B43617  31.119  14.603   7.058
 3324POPC   C4B43618  31.077  14.617   7.529
 3325POPC   NC343619   1.188   4.586   5.545
 3325POPC   PO443620   0.700   4.142   5.316
 3325POPC   GL143621   0.831   4.007   5.762
 3325POPC   GL243622   1.171   4.107   5.861
 3325POPC   C1A43623   0.837   4.037   6.230
 3325POPC   D2A43624   1.175   4.107   6.522
 3325POPC   C3A43625   1.202   4.068   6.967
 3325POPC   C4A43626   1.104   4.357   7.303
 3325POPC   C1B43627   1.472   4.324   6.148
 3325POPC   C2B43628   1.598   4.409   6.578
 3325POPC   C3B43629   1.388   4.559   6.909
 3325POPC   C4B43630   1.492   4.699   7.293
 3326POPC   NC343631  20.996  37.030   5.564
 3326POPC   PO443632  20.983  36.397   5.381
 3326POPC   GL143633  20.843  36.617   5.794
 3326POPC   GL243634  20.532  36.855   5.803
 3326POPC   C1A43635  20.674  36.623   6.253
 3326POPC   D2A43636  20.362  36.651   6.620
 3326POPC   C3A43637  20.649  36.715   6.992
 3326POPC   C4A43638  21.050  36.930   7.137
 3326POPC   C1B43639  20.438  37.131   6.184
 3326POPC   C2B43640  20.290  37.161   6.613
 3326POPC   C3B43641  20.430  37.209   7.030
 3326POPC   C4B43642  20.706  37.210   7.382
 3327POPC   NC343643  25.071   5.532   5.362
 3327POPC   PO443644  25.210   4.916   5.472
 3327POPC   GL143645  25.436   5.191   5.711
 3327POPC   GL243646  25.125   5.327   5.836
 3327POPC   C1A43647  25.569   5.308   6.118
 3327POPC   D2A43648  25.344   5.272   6.474
 3327POPC   C3A43649  25.450   4.997   6.799
 3327POPC   C4A43650  25.670   5.160   7.161
 3327POPC   C1B43651  24.891   5.262   6.197
 3327POPC   C2B43652  24.869   5.129   6.580
 3327POPC   C3B43653  24.909   5.213   6.945
 3327POPC   C4B43654  25.158   5.069   7.228
 3328POPC   NC343655  29.339  32.497   5.583
 3328POPC   PO443656  28.850  32.017   5.290
 3328POPC   GL143657  29.013  32.028   5.741
 3328POPC   GL243658  28.860  31.776   5.873
 3328POPC   C1A43659  29.217  32.076   6.130
 3328POPC   D2A43660  29.314  32.332   6.513
 3328POPC   C3A43661  29.437  32.144   6.914
 3328POPC   C4A43662  29.319  32.329   7.325
 3328POPC   C1B43663  28.765  31.907   6.293
 3328POPC   C2B43664  28.741  32.240   6.587
 3328POPC   C3B43665  28.946  32.243   6.971
 3328POPC   C4B43666  29.015  31.908   7.288
 3329POPC   NC343667   3.294  17.709   5.159
 3329POPC   PO443668   3.593  18.310   5.283
 3329POPC   GL143669   3.568  18.393   5.767
 3329POPC   GL243670   3.310  18.238   5.896
 3329POPC   C1A43671   3.756  18.295   6.179
 3329POPC   D2A43672   3.620  18.314   6.600
 3329POPC   C3A43673   3.924  18.273   6.886
 3329POPC   C4A43674   3.801  18.179   7.276
 3329POPC   C1B43675   3.305  18.025   6.294
 3329POPC   C2B43676   3.130  18.146   6.688
 3329POPC   C3B43677   3.303  18.298   7.064
 3329POPC   C4B43678   3.373  18.206   7.520
 3330POPC   NC343679   9.083   0.465   5.413
 3330POPC   PO443680   8.425   0.421   5.367
 3330POPC   GL143681   8.668   0.505   5.746
 3330POPC   GL243682   8.845   0.242   5.864
 3330POPC   C1A43683   8.606   0.613   6.164
 3330POPC   D2A43684   8.820   0.417   6.487
 3330POPC   C3A43685   8.807   0.587   6.869
 3330POPC   C4A43686   8.582   0.404   7.159
 3330POPC   C1B43687   9.119   0.553   6.079
 3330POPC   C2B43688   9.270   0.633   6.509
 3330POPC   C3B43689   9.243   0.332   6.816
 3330POPC   C4B43690   9.210   0.496   7.214
 3331POPC   NC343691  25.559   9.642   5.490
 3331POPC   PO443692  24.917   9.781   5.348
 3331POPC   GL143693  25.111   9.634   5.708
 3331POPC   GL243694  25.243   9.948   5.768
 3331POPC   C1A43695  25.353   9.495   6.104
 3331POPC   D2A43696  25.388   9.651   6.517
 3331POPC   C3A43697  25.588   9.470   6.883
 3331POPC   C4A43698  25.602   9.761   7.210
 3331POPC   C1B43699  25.058   9.979   6.167
 3331POPC   C2B43700  24.818  10.113   6.505
 3331POPC   C3B43701  24.935   9.963   6.855
 3331POPC   C4B43702  25.108   9.858   7.252
 3332POPC   NC343703  11.185  29.659   5.485
 3332POPC   PO443704  11.552  30.236   5.355
 3332POPC   GL143705  11.445  30.038   5.748
 3332POPC   GL243706  11.104  30.088   5.798
 3332POPC   C1A43707  11.398  29.959   6.214
 3332POPC   D2A43708  11.667  30.071   6.584
 3332POPC   C3A43709  11.537  29.882   7.003
 3332POPC   C4A43710  11.467  30.073   7.427
 3332POPC   C1B43711  10.967  30.255   6.186
 3332POPC   C2B43712  11.161  30.221   6.632
 3332POPC   C3B43713  11.106  30.157   7.077
 3332POPC   C4B43714  11.095  29.734   7.273
 3333POPC   NC343715  14.765  43.051   5.473
 3333POPC   PO443716  14.179  42.687   5.485
 3333POPC   GL143717  14.267  42.891   5.939
 3333POPC   GL243718  14.534  43.102   5.906
 3333POPC   C1A43719  14.253  43.251   6.259
 3333POPC   D2A43720  14.502  43.155   6.587
 3333POPC   C3A43721  14.271  42.920   6.921
 3333POPC   C4A43722  14.213  43.059   7.323
 3333POPC   C1B43723  14.688  43.499   6.055
 3333POPC   C2B43724  14.855  43.646   6.422
 3333POPC   C3B43725  14.782  43.535   6.828
 3333POPC   C4B43726  14.574  43.511   7.230
 3334POPC   NC343727  37.219  16.843   5.499
 3334POPC   PO443728  36.745  16.569   5.072
 3334POPC   GL143729  36.663  16.676   5.542
 3334POPC   GL243730  36.489  16.392   5.642
 3334POPC   C1A43731  36.773  16.804   6.010
 3334POPC   D2A43732  36.695  16.818   6.485
 3334POPC   C3A43733  36.746  16.979   6.924
 3334POPC   C4A43734  37.104  16.877   7.207
 3334POPC   C1B43735  36.756  16.293   5.994
 3334POPC   C2B43736  36.739  16.299   6.441
 3334POPC   C3B43737  36.854  16.443   6.856
 3334POPC   C4B43738  36.695  16.536   7.248
 3335POPC   NC343739  10.153   4.143   5.604
 3335POPC   PO443740   9.587   4.247   5.252
 3335POPC   GL143741   9.709   4.575   5.668
 3335POPC   GL243742  10.023   4.558   5.882
 3335POPC   C1A43743   9.631   4.672   6.171
 3335POPC   D2A43744   9.539   4.414   6.555
 3335POPC   C3A43745   9.625   4.417   6.990
 3335POPC   C4A43746   9.336   4.096   7.165
 3335POPC   C1B43747   9.872   4.228   6.196
 3335POPC   C2B43748   9.949   4.152   6.634
 3335POPC   C3B43749  10.139   4.315   6.994
 3335POPC   C4B43750  10.070   4.587   7.320
 3336POPC   NC343751  38.376  20.900   5.416
 3336POPC   PO443752  38.269  21.542   5.495
 3336POPC   GL143753  38.456  21.300   5.811
 3336POPC   GL243754  38.153  21.128   5.839
 3336POPC   C1A43755  38.543  21.421   6.242
 3336POPC   D2A43756  38.396  21.622   6.634
 3336POPC   C3A43757  38.627  21.429   6.963
 3336POPC   C4A43758  38.653  21.162   7.323
 3336POPC   C1B43759  38.193  21.036   6.262
 3336POPC   C2B43760  38.383  21.072   6.657
 3336POPC   C3B43761  38.250  20.909   7.032
 3336POPC   C4B43762  38.034  20.975   7.347
 3337POPC   NC343763  16.984  41.366   5.360
 3337POPC   PO443764  16.848  41.953   5.576
 3337POPC   GL143765  16.869  41.585   5.826
 3337POPC   GL243766  17.235  41.629   5.743
 3337POPC   C1A43767  16.751  41.543   6.297
 3337POPC   D2A43768  16.715  41.294   6.715
 3337POPC   C3A43769  16.665  41.378   7.194
 3337POPC   C4A43770  16.403  41.282   7.625
 3337POPC   C1B43771  17.177  41.817   6.161
 3337POPC   C2B43772  17.122  41.749   6.610
 3337POPC   C3B43773  16.943  41.825   7.016
 3337POPC   C4B43774  17.153  42.094   7.334
 3338POPC   NC343775  35.276  12.471   5.690
 3338POPC   PO443776  35.288  11.837   5.419
 3338POPC   GL143777  35.476  12.013   5.798
 3338POPC   GL243778  35.219  12.020   6.014
 3338POPC   C1A43779  35.651  12.117   6.215
 3338POPC   D2A43780  35.552  12.016   6.615
 3338POPC   C3A43781  35.380  12.198   6.969
 3338POPC   C4A43782  35.564  12.131   7.363
 3338POPC   C1B43783  35.211  12.342   6.354
 3338POPC   C2B43784  35.015  12.505   6.747
 3338POPC   C3B43785  35.023  12.529   7.216
 3338POPC   C4B43786  35.219  12.685   7.642
 3339POPC   NC343787  14.700  28.864   5.514
 3339POPC   PO443788  14.369  29.486   5.293
 3339POPC   GL143789  14.422  29.223   5.723
 3339POPC   GL243790  14.752  29.311   5.823
 3339POPC   C1A43791  14.166  29.030   6.087
 3339POPC   D2A43792  14.274  29.065   6.538
 3339POPC   C3A43793  14.015  28.972   6.902
 3339POPC   C4A43794  14.149  29.073   7.306
 3339POPC   C1B43795  14.674  29.001   6.178
 3339POPC   C2B43796  14.819  28.993   6.625
 3339POPC   C3B43797  14.629  28.962   7.034
 3339POPC   C4B43798  14.592  29.294   7.321
 3340POPC   NC343799  38.942   0.338   5.468
 3340POPC   PO443800  39.491  44.966   5.288
 3340POPC   GL143801  39.440   0.015   5.770
 3340POPC   GL243802  39.248   0.335   5.891
 3340POPC   C1A43803  39.503   0.067   6.242
 3340POPC   D2A43804  39.572   0.233   6.679
 3340POPC   C3A43805  39.270   0.482   6.963
 3340POPC   C4A43806  39.412   0.666   7.387
 3340POPC   C1B43807  39.109   0.499   6.319
 3340POPC   C2B43808  38.792   0.453   6.690
 3340POPC   C3B43809  38.677   0.473   7.117
 3340POPC   C4B43810  38.933   0.605   7.459
 3341POPC   NC343811  41.159  27.101   5.552
 3341POPC   PO443812  41.304  26.534   5.224
 3341POPC   GL143813  41.527  26.398   5.760
 3341POPC   GL243814  41.216  26.278   6.021
 3341POPC   C1A43815  41.748  26.658   6.156
 3341POPC   D2A43816  41.861  26.826   6.607
 3341POPC   C3A43817  41.504  27.001   6.864
 3341POPC   C4A43818  41.544  27.232   7.247
 3341POPC   C1B43819  41.403  26.336   6.411
 3341POPC   C2B43820  41.475  26.486   6.826
 3341POPC   C3B43821  41.498  26.657   7.262
 3341POPC   C4B43822  41.382  26.576   7.669
 3342POPC   NC343823  13.416  19.399   5.702
 3342POPC   PO443824  12.741  19.760   5.569
 3342POPC   GL143825  12.892  19.904   5.915
 3342POPC   GL243826  13.054  19.602   6.008
 3342POPC   C1A43827  12.830  20.077   6.306
 3342POPC   D2A43828  12.543  20.200   6.607
 3342POPC   C3A43829  12.458  20.001   6.953
 3342POPC   C4A43830  12.694  19.997   7.337
 3342POPC   C1B43831  12.687  19.572   6.280
 3342POPC   C2B43832  12.770  19.711   6.680
 3342POPC   C3B43833  13.031  19.757   7.022
 3342POPC   C4B43834  12.993  19.588   7.439
 3343POPC   NC343835  19.048  26.111   5.226
 3343POPC   PO443836  18.607  25.714   5.516
 3343POPC   GL143837  18.793  26.090   5.690
 3343POPC   GL243838  19.154  26.133   5.776
 3343POPC   C1A43839  18.801  26.087   6.139
 3343POPC   D2A43840  18.790  26.275   6.527
 3343POPC   C3A43841  18.854  26.161   6.935
 3343POPC   C4A43842  19.250  26.334   7.055
 3343POPC   C1B43843  19.297  26.202   6.212
 3343POPC   C2B43844  19.219  25.975   6.598
 3343POPC   C3B43845  19.233  25.808   7.008
 3343POPC   C4B43846  19.499  25.977   7.317
 3344POPC   NC343847  39.430  36.375   5.389
 3344POPC   PO443848  39.292  35.692   5.430
 3344POPC   GL143849  39.436  35.997   5.745
 3344POPC   GL243850  39.142  36.203   5.793
 3344POPC   C1A43851  39.483  36.184   6.163
 3344POPC   D2A43852  39.260  36.220   6.574
 3344POPC   C3A43853  39.440  36.243   6.944
 3344POPC   C4A43854  39.309  36.085   7.286
 3344POPC   C1B43855  39.066  35.893   6.125
 3344POPC   C2B43856  38.944  35.823   6.547
 3344POPC   C3B43857  38.918  36.004   6.938
 3344POPC   C4B43858  38.922  35.745   7.274
 3345POPC   NC343859  27.486  34.196   5.035
 3345POPC   PO443860  27.640  33.588   5.372
 3345POPC   GL143861  27.825  33.771   5.777
 3345POPC   GL243862  28.028  33.506   5.935
 3345POPC   C1A43863  27.806  33.831   6.259
 3345POPC   D2A43864  27.675  33.675   6.678
 3345POPC   C3A43865  27.404  33.959   6.894
 3345POPC   C4A43866  27.062  33.880   7.150
 3345POPC   C1B43867  28.066  33.361   6.355
 3345POPC   C2B43868  28.110  33.293   6.815
 3345POPC   C3B43869  27.907  33.473   7.121
 3345POPC   C4B43870  28.078  33.659   7.449
 3346POPC   NC343871   5.824  26.928   5.189
 3346POPC   PO443872   5.525  26.465   5.644
 3346POPC   GL143873   5.648  26.626   6.048
 3346POPC   GL243874   5.988  26.816   5.996
 3346POPC   C1A43875   5.700  26.711   6.469
 3346POPC   D2A43876   6.031  26.529   6.739
 3346POPC   C3A43877   5.908  26.570   7.155
 3346POPC   C4A43878   6.063  26.377   7.530
 3346POPC   C1B43879   6.187  26.855   6.378
 3346POPC   C2B43880   5.983  27.051   6.754
 3346POPC   C3B43881   6.045  27.113   7.197
 3346POPC   C4B43882   6.235  27.198   7.626
 3347POPC   NC343883  27.211  39.827   5.545
 3347POPC   PO443884  26.909  40.348   5.516
 3347POPC   GL143885  26.702  40.008   5.758
 3347POPC   GL243886  26.763  39.625   5.800
 3347POPC   C1A43887  26.473  39.906   6.137
 3347POPC   D2A43888  26.550  39.788   6.564
 3347POPC   C3A43889  26.803  40.067   6.784
 3347POPC   C4A43890  26.780  40.116   7.200
 3347POPC   C1B43891  26.963  39.737   6.205
 3347POPC   C2B43892  27.009  39.570   6.642
 3347POPC   C3B43893  26.742  39.575   7.008
 3347POPC   C4B43894  26.895  39.676   7.416
 3348POPC   NC343895  13.974  25.854   5.491
 3348POPC   PO443896  13.315  26.181   5.432
 3348POPC   GL143897  13.473  25.938   5.777
 3348POPC   GL243898  13.799  26.039   5.931
 3348POPC   C1A43899  13.357  25.986   6.225
 3348POPC   D2A43900  13.513  26.056   6.642
 3348POPC   C3A43901  13.736  25.779   6.924
 3348POPC   C4A43902  13.570  25.900   7.323
 3348POPC   C1B43903  13.934  25.944   6.347
 3348POPC   C2B43904  14.041  26.151   6.724
 3348POPC   C3B43905  13.752  26.309   7.020
 3348POPC   C4B43906  13.793  26.339   7.442
 3349POPC   NC343907   4.212  27.776   5.513
 3349POPC   PO443908   4.710  27.318   5.508
 3349POPC   GL143909   4.549  27.443   5.908
 3349POPC   GL243910   4.423  27.125   5.965
 3349POPC   C1A43911   4.561  27.587   6.382
 3349POPC   D2A43912   4.416  27.885   6.734
 3349POPC   C3A43913   4.199  27.686   7.080
 3349POPC   C4A43914   4.422  27.602   7.447
 3349POPC   C1B43915   4.070  27.280   6.211
 3349POPC   C2B43916   4.087  27.402   6.647
 3349POPC   C3B43917   4.141  27.170   7.032
 3349POPC   C4B43918   4.030  27.294   7.449
 3350POPC   NC343919  41.649   4.512   5.522
 3350POPC   PO443920  41.975   3.972   5.766
 3350POPC   GL143921  41.708   4.305   5.977
 3350POPC   GL243922  41.366   4.553   5.989
 3350POPC   C1A43923  41.744   4.581   6.305
 3350POPC   D2A43924  41.521   4.773   6.647
 3350POPC   C3A43925  41.683   4.553   6.974
 3350POPC   C4A43926  41.662   4.160   7.179
 3350POPC   C1B43927  41.326   4.216   6.311
 3350POPC   C2B43928  41.279   4.089   6.735
 3350POPC   C3B43929  41.214   4.379   7.070
 3350POPC   C4B43930  41.312   4.360   7.496
 3351POPC   NC343931  20.992  27.286   5.332
 3351POPC   PO443932  20.437  27.678   5.302
 3351POPC   GL143933  20.644  27.711   5.699
 3351POPC   GL243934  20.939  27.883   5.682
 3351POPC   C1A43935  20.626  27.603   6.145
 3351POPC   D2A43936  20.808  27.402   6.508
 3351POPC   C3A43937  20.676  27.511   6.928
 3351POPC   C4A43938  20.595  27.283   7.301
 3351POPC   C1B43939  20.883  28.068   6.114
 3351POPC   C2B43940  20.887  27.892   6.534
 3351POPC   C3B43941  20.873  28.011   6.970
 3351POPC   C4B43942  20.722  27.809   7.376
 3352POPC   NC343943   9.753   3.799   5.183
 3352POPC   PO443944   9.824   3.098   5.323
 3352POPC   GL143945   9.722   3.395   5.662
 3352POPC   GL243946  10.035   3.489   5.775
 3352POPC   C1A43947   9.640   3.618   6.081
 3352POPC   D2A43948   9.528   3.880   6.446
 3352POPC   C3A43949   9.625   3.658   6.819
 3352POPC   C4A43950   9.834   3.904   7.112
 3352POPC   C1B43951   9.917   3.136   6.069
 3352POPC   C2B43952   9.932   3.008   6.503
 3352POPC   C3B43953  10.072   3.141   6.919
 3352POPC   C4B43954  10.087   3.482   7.229
 3353POPC   NC343955   7.282  28.810   5.362
 3353POPC   PO443956   7.566  29.401   5.482
 3353POPC   GL143957   7.305  29.186   5.763
 3353POPC   GL243958   7.476  28.869   5.840
 3353POPC   C1A43959   7.170  29.139   6.187
 3353POPC   D2A43960   7.331  29.058   6.588
 3353POPC   C3A43961   7.268  28.891   6.976
 3353POPC   C4A43962   7.174  29.271   7.175
 3353POPC   C1B43963   7.474  28.712   6.262
 3353POPC   C2B43964   7.743  28.794   6.661
 3353POPC   C3B43965   7.714  29.110   7.002
 3353POPC   C4B43966   7.632  28.918   7.413
 3354POPC   NC343967  33.181   9.883   5.226
 3354POPC   PO443968  32.652   9.530   5.470
 3354POPC   GL143969  32.871   9.838   5.799
 3354POPC   GL243970  33.138  10.068   5.719
 3354POPC   C1A43971  33.045   9.672   6.186
 3354POPC   D2A43972  32.886   9.549   6.592
 3354POPC   C3A43973  33.186   9.616   6.919
 3354POPC   C4A43974  33.244   9.536   7.329
 3354POPC   C1B43975  33.086  10.182   6.191
 3354POPC   C2B43976  33.113  10.048   6.655
 3354POPC   C3B43977  32.990  10.037   7.151
 3354POPC   C4B43978  32.964  10.106   7.656
 3355POPC   NC343979  12.479   6.760   5.501
 3355POPC   PO443980  13.166   6.573   5.400
 3355POPC   GL143981  13.010   6.453   5.806
 3355POPC   GL243982  12.894   6.791   5.852
 3355POPC   C1A43983  12.835   6.485   6.266
 3355POPC   D2A43984  12.693   6.431   6.688
 3355POPC   C3A43985  12.894   6.476   7.092
 3355POPC   C4A43986  12.877   6.354   7.529
 3355POPC   C1B43987  12.585   6.912   6.178
 3355POPC   C2B43988  12.591   6.936   6.639
 3355POPC   C3B43989  12.491   6.772   7.044
 3355POPC   C4B43990  12.763   6.842   7.443
 3356POPC   NC343991  23.335  41.822   5.406
 3356POPC   PO443992  23.848  41.403   5.439
 3356POPC   GL143993  23.643  41.534   5.773
 3356POPC   GL243994  23.436  41.210   5.790
 3356POPC   C1A43995  23.743  41.685   6.190
 3356POPC   D2A43996  23.608  41.604   6.612
 3356POPC   C3A43997  23.882  41.600   6.963
 3356POPC   C4A43998  23.678  41.697   7.352
 3356POPC   C1B43999  23.790  41.152   6.066
 3356POPC   C2B44000  23.751  41.119   6.471
 3356POPC   C3B44001  23.790  41.104   6.887
 3356POPC   C4B44002  23.752  41.197   7.318
 3357POPC   NC344003  18.739   5.466   5.424
 3357POPC   PO444004  19.022   4.871   5.310
 3357POPC   GL144005  19.051   5.087   5.693
 3357POPC   GL244006  19.352   5.217   5.711
 3357POPC   C1A44007  18.977   5.223   6.125
 3357POPC   D2A44008  18.884   5.386   6.548
 3357POPC   C3A44009  18.961   5.130   6.883
 3357POPC   C4A44010  19.211   4.899   7.173
 3357POPC   C1B44011  19.443   5.389   6.101
 3357POPC   C2B44012  19.372   5.243   6.521
 3357POPC   C3B44013  19.406   5.393   6.919
 3357POPC   C4B44014  19.634   5.379   7.288
 3358POPC   NC344015   6.014  15.794   5.616
 3358POPC   PO444016   6.299  16.358   5.398
 3358POPC   GL144017   6.070  16.247   5.844
 3358POPC   GL244018   5.708  16.050   5.901
 3358POPC   C1A44019   6.039  16.056   6.308
 3358POPC   D2A44020   5.864  15.717   6.605
 3358POPC   C3A44021   5.758  15.854   7.021
 3358POPC   C4A44022   6.077  15.928   7.288
 3358POPC   C1B44023   5.527  15.882   6.255
 3358POPC   C2B44024   5.496  16.078   6.629
 3358POPC   C3B44025   5.289  16.110   7.018
 3358POPC   C4B44026   5.434  16.013   7.406
 3359POPC   NC344027  17.083  43.823   5.253
 3359POPC   PO444028  16.540  43.591   5.442
 3359POPC   GL144029  16.554  43.771   5.850
 3359POPC   GL244030  16.475  44.131   5.853
 3359POPC   C1A44031  16.826  43.844   6.222
 3359POPC   D2A44032  16.915  43.720   6.637
 3359POPC   C3A44033  16.831  43.947   7.008
 3359POPC   C4A44034  16.650  43.616   7.209
 3359POPC   C1B44035  16.577  44.281   6.269
 3359POPC   C2B44036  16.519  44.087   6.628
 3359POPC   C3B44037  16.348  44.112   7.020
 3359POPC   C4B44038  16.534  44.075   7.404
 3360POPC   NC344039  10.315   0.977   5.206
 3360POPC   PO444040  10.380   1.576   5.346
 3360POPC   GL144041  10.444   1.378   5.742
 3360POPC   GL244042  10.287   1.043   5.778
 3360POPC   C1A44043  10.588   1.430   6.161
 3360POPC   D2A44044  10.770   1.197   6.512
 3360POPC   C3A44045  10.753   1.345   6.940
 3360POPC   C4A44046  10.820   1.214   7.336
 3360POPC   C1B44047  10.340   1.008   6.249
 3360POPC   C2B44048  10.310   1.206   6.704
 3360POPC   C3B44049  10.317   1.204   7.182
 3360POPC   C4B44050  10.169   0.940   7.576
 3361POPC   NC344051  33.250   3.305   5.520
 3361POPC   PO444052  33.907   3.338   5.381
 3361POPC   GL144053  33.805   3.667   5.710
 3361POPC   GL244054  33.441   3.770   5.748
 3361POPC   C1A44055  33.995   3.713   6.121
 3361POPC   D2A44056  33.877   3.823   6.531
 3361POPC   C3A44057  33.729   3.596   6.865
 3361POPC   C4A44058  33.954   3.673   7.203
 3361POPC   C1B44059  33.510   3.540   6.145
 3361POPC   C2B44060  33.405   3.351   6.540
 3361POPC   C3B44061  33.414   3.155   6.952
 3361POPC   C4B44062  33.568   3.358   7.302
 3362POPC   NC344063  10.171  16.723   5.691
 3362POPC   PO444064   9.563  16.595   5.422
 3362POPC   GL144065   9.695  16.823   5.833
 3362POPC   GL244066   9.518  17.140   5.871
 3362POPC   C1A44067   9.899  16.689   6.262
 3362POPC   D2A44068   9.824  16.423   6.603
 3362POPC   C3A44069   9.805  16.552   6.981
 3362POPC   C4A44070  10.177  16.667   7.177
 3362POPC   C1B44071   9.522  17.021   6.312
 3362POPC   C2B44072   9.802  16.998   6.674
 3362POPC   C3B44073   9.771  17.035   7.108
 3362POPC   C4B44074   9.514  16.813   7.358
 3363POPC   NC344075  42.289  44.182   5.527
 3363POPC   PO444076  42.363  43.609   5.815
 3363POPC   GL144077  42.027  43.762   6.009
 3363POPC   GL244078  42.011  44.127   5.930
 3363POPC   C1A44079  42.086  43.822   6.441
 3363POPC   D2A44080  42.506  43.811   6.652
 3363POPC   C3A44081  42.330  43.823   7.054
 3363POPC   C4A44082  42.011  43.547   7.246
 3363POPC   C1B44083  42.373  44.155   6.195
 3363POPC   C2B44084  42.322  44.279   6.598
 3363POPC   C3B44085  42.177  44.323   6.987
 3363POPC   C4B44086  42.512  44.277   7.256
 3364POPC   NC344087   3.492  26.278   5.308
 3364POPC   PO444088   3.800  25.684   5.379
 3364POPC   GL144089   3.557  25.772   5.768
 3364POPC   GL244090   3.489  26.101   5.789
 3364POPC   C1A44091   3.610  25.834   6.210
 3364POPC   D2A44092   3.386  25.850   6.571
 3364POPC   C3A44093   3.589  25.859   6.952
 3364POPC   C4A44094   3.343  25.802   7.296
 3364POPC   C1B44095   3.647  26.358   6.136
 3364POPC   C2B44096   3.825  26.215   6.538
 3364POPC   C3B44097   3.707  26.384   6.942
 3364POPC   C4B44098   3.500  26.297   7.316
 3365POPC   NC344099  12.338   5.804   5.330
 3365POPC   PO444100  11.664   5.506   5.497
 3365POPC   GL144101  11.921   5.889   5.725
 3365POPC   GL244102  12.295   5.918   5.821
 3365POPC   C1A44103  11.929   6.021   6.198
 3365POPC   D2A44104  11.999   5.757   6.607
 3365POPC   C3A44105  11.891   5.924   7.019
 3365POPC   C4A44106  11.998   6.057   7.436
 3365POPC   C1B44107  12.387   5.806   6.252
 3365POPC   C2B44108  12.448   5.980   6.677
 3365POPC   C3B44109  12.409   5.951   7.110
 3365POPC   C4B44110  12.460   5.867   7.541
 3366POPC   NC344111  27.740  24.890   5.519
 3366POPC   PO444112  27.337  24.313   5.249
 3366POPC   GL144113  27.367  24.425   5.746
 3366POPC   GL244114  27.616  24.660   5.952
 3366POPC   C1A44115  27.372  24.312   6.204
 3366POPC   D2A44116  27.638  24.532   6.499
 3366POPC   C3A44117  27.547  24.690   6.886
 3366POPC   C4A44118  27.689  24.387   7.161
 3366POPC   C1B44119  27.950  24.855   6.213
 3366POPC   C2B44120  28.198  24.805   6.573
 3366POPC   C3B44121  28.082  24.829   7.016
 3366POPC   C4B44122  28.015  24.687   7.409
 3367POPC   NC344123   1.151   0.775   5.544
 3367POPC   PO444124   1.353   0.195   5.298
 3367POPC   GL144125   1.347   0.311   5.760
 3367POPC   GL244126   1.544   0.627   5.846
 3367POPC   C1A44127   1.239   0.401   6.222
 3367POPC   D2A44128   1.063   0.578   6.632
 3367POPC   C3A44129   1.061   0.345   7.029
 3367POPC   C4A44130   1.435   0.124   7.171
 3367POPC   C1B44131   1.557   0.868   6.250
 3367POPC   C2B44132   1.526   0.830   6.699
 3367POPC   C3B44133   1.351   0.784   7.084
 3367POPC   C4B44134   1.100   0.686   7.421
 3368POPC   NC344135  24.264   6.054   5.335
 3368POPC   PO444136  24.606   5.532   5.282
 3368POPC   GL144137  24.689   5.670   5.705
 3368POPC   GL244138  24.625   6.032   5.698
 3368POPC   C1A44139  24.637   5.713   6.146
 3368POPC   D2A44140  24.649   5.986   6.486
 3368POPC   C3A44141  24.569   5.866   6.903
 3368POPC   C4A44142  24.864   5.671   7.158
 3368POPC   C1B44143  24.439   6.231   6.073
 3368POPC   C2B44144  24.335   6.400   6.483
 3368POPC   C3B44145  24.214   6.280   6.895
 3368POPC   C4B44146  24.236   6.037   7.261
 3369POPC   NC344147  39.326  29.487   5.329
 3369POPC   PO444148  39.180  28.797   5.348
 3369POPC   GL144149  39.190  29.138   5.698
 3369POPC   GL244150  38.911  29.421   5.688
 3369POPC   C1A44151  39.417  29.070   6.110
 3369POPC   D2A44152  39.369  28.830   6.497
 3369POPC   C3A44153  39.529  28.925   6.858
 3369POPC   C4A44154  39.486  28.912   7.239
 3369POPC   C1B44155  38.906  29.259   6.142
 3369POPC   C2B44156  39.064  29.304   6.597
 3369POPC   C3B44157  39.062  29.218   7.073
 3369POPC   C4B44158  38.961  29.447   7.483
 3370POPC   NC344159  42.026  39.995   5.329
 3370POPC   PO444160  41.427  39.890   5.396
 3370POPC   GL144161  41.565  39.992   5.834
 3370POPC   GL244162  41.792  39.725   5.867
 3370POPC   C1A44163  41.512  40.264   6.254
 3370POPC   D2A44164  41.480  40.526   6.648
 3370POPC   C3A44165  41.446  40.264   7.001
 3370POPC   C4A44166  41.442  39.913   7.282
 3370POPC   C1B44167  41.627  39.771   6.325
 3370POPC   C2B44168  41.553  39.797   6.786
 3370POPC   C3B44169  41.718  39.525   7.138
 3370POPC   C4B44170  41.690  39.462   7.603
 3371POPC   NC344171  25.873  13.907   5.685
 3371POPC   PO444172  25.864  13.309   5.367
 3371POPC   GL144173  25.764  13.435   5.803
 3371POPC   GL244174  26.100  13.409   5.861
 3371POPC   C1A44175  25.812  13.456   6.273
 3371POPC   D2A44176  26.080  13.320   6.636
 3371POPC   C3A44177  25.991  13.606   6.971
 3371POPC   C4A44178  25.986  14.014   7.202
 3371POPC   C1B44179  26.310  13.558   6.223
 3371POPC   C2B44180  26.246  13.817   6.572
 3371POPC   C3B44181  26.451  13.914   6.954
 3371POPC   C4B44182  26.395  13.648   7.288
 3372POPC   NC344183  39.713  14.139   5.653
 3372POPC   PO444184  40.380  14.258   5.400
 3372POPC   GL144185  40.187  14.257   5.834
 3372POPC   GL244186  39.954  14.523   5.883
 3372POPC   C1A44187  40.023  14.190   6.276
 3372POPC   D2A44188  40.091  14.319   6.700
 3372POPC   C3A44189  40.150  14.033   7.067
 3372POPC   C4A44190  40.145  14.272   7.427
 3372POPC   C1B44191  39.648  14.537   6.245
 3372POPC   C2B44192  39.576  14.428   6.672
 3372POPC   C3B44193  39.758  14.363   7.096
 3372POPC   C4B44194  39.764  14.608   7.491
 3373POPC   NC344195   9.255  39.109   5.305
 3373POPC   PO444196   8.692  39.405   5.529
 3373POPC   GL144197   9.026  39.295   5.751
 3373POPC   GL244198   9.023  38.940   5.739
 3373POPC   C1A44199   9.155  39.405   6.169
 3373POPC   D2A44200   9.248  39.257   6.575
 3373POPC   C3A44201   9.244  39.445   6.973
 3373POPC   C4A44202   8.860  39.590   7.159
 3373POPC   C1B44203   8.882  38.947   6.166
 3373POPC   C2B44204   8.947  38.850   6.588
 3373POPC   C3B44205   8.849  39.015   6.997
 3373POPC   C4B44206   8.662  38.829   7.371
 3374POPC   NC344207   9.336  30.510   5.397
 3374POPC   PO444208   9.887  30.884   5.244
 3374POPC   GL144209   9.730  30.714   5.669
 3374POPC   GL244210  10.010  30.527   5.821
 3374POPC   C1A44211   9.533  30.612   6.101
 3374POPC   D2A44212   9.708  30.566   6.563
 3374POPC   C3A44213   9.555  30.811   6.918
 3374POPC   C4A44214   9.353  30.517   7.192
 3374POPC   C1B44215  10.022  30.760   6.201
 3374POPC   C2B44216  10.035  30.967   6.603
 3374POPC   C3B44217  10.052  30.769   6.994
 3374POPC   C4B44218  10.061  30.586   7.363
 3375POPC   NC344219  20.262  23.245   5.433
 3375POPC   PO444220  19.666  22.841   5.294
 3375POPC   GL144221  19.839  22.824   5.673
 3375POPC   GL244222  19.775  23.153   5.797
 3375POPC   C1A44223  19.821  22.728   6.099
 3375POPC   D2A44224  20.122  22.826   6.419
 3375POPC   C3A44225  20.034  22.662   6.818
 3375POPC   C4A44226  20.060  22.691   7.222
 3375POPC   C1B44227  19.943  23.243   6.189
 3375POPC   C2B44228  19.792  23.288   6.597
 3375POPC   C3B44229  19.878  23.119   6.985
 3375POPC   C4B44230  19.978  23.311   7.355
 3376POPC   NC344231   1.343   6.926   5.090
 3376POPC   PO444232   1.245   6.325   5.457
 3376POPC   GL144233   1.331   6.572   5.824
 3376POPC   GL244234   1.247   6.908   5.894
 3376POPC   C1A44235   1.066   6.523   6.187
 3376POPC   D2A44236   1.159   6.376   6.575
 3376POPC   C3A44237   1.220   6.680   6.870
 3376POPC   C4A44238   1.388   6.588   7.232
 3376POPC   C1B44239   1.436   6.863   6.332
 3376POPC   C2B44240   1.549   7.049   6.750
 3376POPC   C3B44241   1.454   7.075   7.186
 3376POPC   C4B44242   1.025   6.945   7.296
 3377POPC   NC344243  20.096  24.814   5.471
 3377POPC   PO444244  20.701  25.164   5.420
 3377POPC   GL144245  20.523  25.342   5.782
 3377POPC   GL244246  20.180  25.217   5.832
 3377POPC   C1A44247  20.591  25.443   6.195
 3377POPC   D2A44248  20.826  25.264   6.553
 3377POPC   C3A44249  20.679  25.438   6.932
 3377POPC   C4A44250  20.832  25.256   7.287
 3377POPC   C1B44251  20.212  25.072   6.280
 3377POPC   C2B44252  20.364  25.086   6.734
 3377POPC   C3B44253  20.335  25.128   7.195
 3377POPC   C4B44254  20.026  25.374   7.404
 3378POPC   NC344255  38.469  13.260   5.484
 3378POPC   PO444256  38.184  12.583   5.472
 3378POPC   GL144257  38.493  12.800   5.748
 3378POPC   GL244258  38.824  12.645   5.857
 3378POPC   C1A44259  38.543  12.991   6.152
 3378POPC   D2A44260  38.612  12.840   6.549
 3378POPC   C3A44261  38.756  13.094   6.892
 3378POPC   C4A44262  38.602  13.243   7.298
 3378POPC   C1B44263  38.503  12.430   6.148
 3378POPC   C2B44264  38.438  12.354   6.582
 3378POPC   C3B44265  38.247  12.620   6.854
 3378POPC   C4B44266  38.361  12.797   7.224
 3379POPC   NC344267   0.656  40.942   5.298
 3379POPC   PO444268   1.228  40.460   5.462
 3379POPC   GL144269   1.179  40.530   5.854
 3379POPC   GL244270   0.861  40.683   5.804
 3379POPC   C1A44271   1.455  40.580   6.215
 3379POPC   D2A44272   1.389  40.596   6.637
 3379POPC   C3A44273   0.994  40.663   6.842
 3379POPC   C4A44274   1.264  40.755   7.189
 3379POPC   C1B44275   0.943  40.709   6.263
 3379POPC   C2B44276   0.991  41.073   6.512
 3379POPC   C3B44277   0.974  41.179   6.941
 3379POPC   C4B44278   0.788  40.941   7.260
 3380POPC   NC344279   7.098   6.349   5.454
 3380POPC   PO444280   7.513   6.846   5.352
 3380POPC   GL144281   7.606   6.568   5.739
 3380POPC   GL244282   7.304   6.421   5.926
 3380POPC   C1A44283   7.797   6.486   6.171
 3380POPC   D2A44284   7.575   6.523   6.581
 3380POPC   C3A44285   7.651   6.730   6.976
 3380POPC   C4A44286   7.633   7.018   7.318
 3380POPC   C1B44287   7.230   6.733   6.267
 3380POPC   C2B44288   7.119   6.745   6.740
 3380POPC   C3B44289   7.200   6.775   7.211
 3380POPC   C4B44290   7.261   6.880   7.684
 3381POPC   NC344291  23.972  28.353   5.544
 3381POPC   PO444292  23.424  28.711   5.650
 3381POPC   GL144293  23.564  28.312   5.846
 3381POPC   GL244294  23.350  28.037   5.941
 3381POPC   C1A44295  23.785  28.286   6.254
 3381POPC   D2A44296  23.680  28.429   6.685
 3381POPC   C3A44297  23.885  28.196   7.033
 3381POPC   C4A44298  23.839  27.988   7.391
 3381POPC   C1B44299  23.278  28.364   6.265
 3381POPC   C2B44300  23.175  28.680   6.542
 3381POPC   C3B44301  23.283  28.672   6.943
 3381POPC   C4B44302  23.472  28.400   7.218
 3382POPC   NC344303  35.605  20.250   5.435
 3382POPC   PO444304  35.289  20.833   5.438
 3382POPC   GL144305  35.259  20.721   5.855
 3382POPC   GL244306  35.113  20.367   5.879
 3382POPC   C1A44307  35.411  20.758   6.264
 3382POPC   D2A44308  35.478  20.460   6.624
 3382POPC   C3A44309  35.406  20.563   7.076
 3382POPC   C4A44310  35.089  20.456   7.399
 3382POPC   C1B44311  34.949  20.548   6.282
 3382POPC   C2B44312  35.078  20.799   6.642
 3382POPC   C3B44313  34.998  20.863   7.059
 3382POPC   C4B44314  35.178  20.959   7.447
 3383POPC   NC344315   0.894   5.539   5.469
 3383POPC   PO444316   0.370   6.065   5.457
 3383POPC   GL144317   0.425   5.874   5.829
 3383POPC   GL244318   0.768   5.889   5.814
 3383POPC   C1A44319   0.512   5.629   6.195
 3383POPC   D2A44320   0.263   5.716   6.543
 3383POPC   C3A44321   0.444   5.698   6.935
 3383POPC   C4A44322   0.193   5.852   7.264
 3383POPC   C1B44323   0.823   6.063   6.212
 3383POPC   C2B44324   0.708   6.126   6.633
 3383POPC   C3B44325   0.882   5.982   6.994
 3383POPC   C4B44326   0.689   5.953   7.329
 3384POPC   NC344327   7.632  42.149   5.501
 3384POPC   PO444328   6.903  42.002   5.540
 3384POPC   GL144329   7.197  42.116   5.885
 3384POPC   GL244330   7.497  42.370   5.957
 3384POPC   C1A44331   7.148  42.273   6.308
 3384POPC   D2A44332   7.355  42.545   6.603
 3384POPC   C3A44333   7.191  42.377   6.963
 3384POPC   C4A44334   7.204  42.172   7.322
 3384POPC   C1B44335   7.664  42.178   6.348
 3384POPC   C2B44336   7.612  42.112   6.801
 3384POPC   C3B44337   7.665  42.315   7.194
 3384POPC   C4B44338   7.567  42.636   7.527
 3385POPC   NC344339  33.751  14.237   5.398
 3385POPC   PO444340  33.959  14.822   5.440
 3385POPC   GL144341  33.705  14.516   5.819
 3385POPC   GL244342  33.795  14.180   5.903
 3385POPC   C1A44343  33.434  14.396   6.214
 3385POPC   D2A44344  33.499  14.563   6.655
 3385POPC   C3A44345  33.581  14.302   7.020
 3385POPC   C4A44346  33.640  14.464   7.441
 3385POPC   C1B44347  33.955  14.368   6.293
 3385POPC   C2B44348  34.009  14.445   6.738
 3385POPC   C3B44349  34.070  14.344   7.177
 3385POPC   C4B44350  34.075  14.326   7.640
 3386POPC   NC344351  12.591  34.989   5.431
 3386POPC   PO444352  12.923  35.612   5.359
 3386POPC   GL144353  12.948  35.350   5.760
 3386POPC   GL244354  12.608  35.248   5.896
 3386POPC   C1A44355  13.093  35.437   6.192
 3386POPC   D2A44356  13.122  35.696   6.564
 3386POPC   C3A44357  13.126  35.538   6.966
 3386POPC   C4A44358  12.834  35.399   7.254
 3386POPC   C1B44359  12.707  35.156   6.345
 3386POPC   C2B44360  12.676  35.389   6.723
 3386POPC   C3B44361  12.400  35.263   7.058
 3386POPC   C4B44362  12.465  35.125   7.478
 3387POPC   NC344363  44.448  26.465   5.435
 3387POPC   PO444364  44.792  25.795   5.433
 3387POPC   GL144365  44.621  26.011   5.767
 3387POPC   GL244366  44.866  26.244   5.855
 3387POPC   C1A44367  44.591  25.895   6.198
 3387POPC   D2A44368  44.541  25.725   6.618
 3387POPC   C3A44369  44.608  25.917   6.981
 3387POPC   C4A44370  44.411  25.992   7.376
 3387POPC   C1B44371  44.606  26.430   6.155
 3387POPC   C2B44372  44.505  26.421   6.600
 3387POPC   C3B44373  44.648  26.433   7.044
 3387POPC   C4B44374  44.430  26.483   7.457
 3388POPC   NC344375   3.933  41.464   5.522
 3388POPC   PO444376   3.352  41.718   5.512
 3388POPC   GL144377   3.514  41.520   5.866
 3388POPC   GL244378   3.857  41.546   6.011
 3388POPC   C1A44379   3.345  41.466   6.256
 3388POPC   D2A44380   3.485  41.586   6.655
 3388POPC   C3A44381   3.466  41.714   7.108
 3388POPC   C4A44382   3.749  41.654   7.449
 3388POPC   C1B44383   3.745  41.137   6.219
 3388POPC   C2B44384   3.454  41.079   6.574
 3388POPC   C3B44385   3.484  41.214   6.988
 3388POPC   C4B44386   3.503  41.121   7.392
 3389POPC   NC344387  44.033  17.329   5.372
 3389POPC   PO444388  43.741  17.885   5.521
 3389POPC   GL144389  44.022  17.641   5.775
 3389POPC   GL244390  43.774  17.405   5.916
 3389POPC   C1A44391  44.139  17.606   6.189
 3389POPC   D2A44392  44.078  17.921   6.544
 3389POPC   C3A44393  43.958  17.697   6.934
 3389POPC   C4A44394  44.040  17.495   7.322
 3389POPC   C1B44395  43.830  17.148   6.297
 3389POPC   C2B44396  43.876  17.174   6.764
 3389POPC   C3B44397  43.689  17.141   7.193
 3389POPC   C4B44398  43.691  16.978   7.648
 3390POPC   NC344399  33.007  35.662   5.553
 3390POPC   PO444400  33.419  35.194   5.546
 3390POPC   GL144401  33.130  35.163   5.863
 3390POPC   GL244402  32.765  35.264   5.864
 3390POPC   C1A44403  33.085  35.311   6.265
 3390POPC   D2A44404  32.739  35.219   6.511
 3390POPC   C3A44405  32.931  35.264   6.875
 3390POPC   C4A44406  33.027  35.074   7.245
 3390POPC   C1B44407  32.714  35.628   6.166
 3390POPC   C2B44408  32.821  35.724   6.643
 3390POPC   C3B44409  32.789  35.655   7.130
 3390POPC   C4B44410  33.112  35.606   7.391
 3391POPC   NC344411  37.422  20.339   5.444
 3391POPC   PO444412  37.914  20.792   5.421
 3391POPC   GL144413  37.719  20.586   5.783
 3391POPC   GL244414  37.768  20.226   5.842
 3391POPC   C1A44415  37.789  20.721   6.205
 3391POPC   D2A44416  37.575  20.977   6.511
 3391POPC   C3A44417  37.736  20.971   6.928
 3391POPC   C4A44418  37.548  20.873   7.342
 3391POPC   C1B44419  37.633  20.242   6.256
 3391POPC   C2B44420  37.661  20.466   6.657
 3391POPC   C3B44421  37.715  20.466   7.079
 3391POPC   C4B44422  37.632  20.297   7.496
 3392POPC   NC344423  42.353  35.832   5.420
 3392POPC   PO444424  42.159  36.514   5.347
 3392POPC   GL144425  42.390  36.278   5.751
 3392POPC   GL244426  42.335  35.966   5.923
 3392POPC   C1A44427  42.594  36.304   6.185
 3392POPC   D2A44428  42.423  36.435   6.592
 3392POPC   C3A44429  42.418  36.199   6.963
 3392POPC   C4A44430  42.555  36.209   7.372
 3392POPC   C1B44431  41.972  35.813   6.222
 3392POPC   C2B44432  41.757  35.762   6.634
 3392POPC   C3B44433  42.056  35.838   7.006
 3392POPC   C4B44434  42.220  35.804   7.455
 3393POPC   NC344435   9.897  27.303   5.225
 3393POPC   PO444436   9.536  27.784   5.500
 3393POPC   GL144437   9.790  27.600   5.844
 3393POPC   GL244438   9.920  27.295   5.802
 3393POPC   C1A44439   9.955  27.697   6.250
 3393POPC   D2A44440   9.760  27.624   6.630
 3393POPC   C3A44441   9.935  27.737   7.010
 3393POPC   C4A44442   9.603  27.983   7.195
 3393POPC   C1B44443   9.958  27.177   6.265
 3393POPC   C2B44444  10.074  27.247   6.714
 3393POPC   C3B44445   9.744  27.242   7.048
 3393POPC   C4B44446   9.674  27.147   7.487
 3394POPC   NC344447  20.027  39.297   5.434
 3394POPC   PO444448  19.418  39.450   5.655
 3394POPC   GL144449  19.804  39.466   5.868
 3394POPC   GL244450  19.891  39.090   5.888
 3394POPC   C1A44451  19.801  39.380   6.283
 3394POPC   D2A44452  19.865  39.037   6.559
 3394POPC   C3A44453  19.864  39.192   6.944
 3394POPC   C4A44454  19.888  39.356   7.331
 3394POPC   C1B44455  19.537  38.928   6.177
 3394POPC   C2B44456  19.288  38.869   6.564
 3394POPC   C3B44457  19.493  38.837   6.958
 3394POPC   C4B44458  19.718  38.869   7.341
 3395POPC   NC344459  39.923  31.915   5.224
 3395POPC   PO444460  40.236  31.263   5.147
 3395POPC   GL144461  40.110  31.404   5.602
 3395POPC   GL244462  39.758  31.389   5.727
 3395POPC   C1A44463  40.082  31.350   6.108
 3395POPC   D2A44464  40.017  31.527   6.527
 3395POPC   C3A44465  40.119  31.280   6.878
 3395POPC   C4A44466  40.454  31.184   7.190
 3395POPC   C1B44467  39.564  31.519   6.133
 3395POPC   C2B44468  39.552  31.736   6.537
 3395POPC   C3B44469  39.677  31.560   6.934
 3395POPC   C4B44470  39.866  31.433   7.328
 3396POPC   NC344471  39.660  19.724   5.545
 3396POPC   PO444472  39.009  19.615   5.497
 3396POPC   GL144473  39.027  19.804   5.893
 3396POPC   GL244474  39.349  19.719   5.962
 3396POPC   C1A44475  38.988  19.825   6.306
 3396POPC   D2A44476  38.983  20.053   6.630
 3396POPC   C3A44477  38.951  19.703   6.906
 3396POPC   C4A44478  39.294  19.588   7.210
 3396POPC   C1B44479  39.408  20.106   6.231
 3396POPC   C2B44480  39.416  20.294   6.668
 3396POPC   C3B44481  39.254  20.081   7.070
 3396POPC   C4B44482  39.420  20.011   7.472
 3397POPC   NC344483  17.770  39.927   5.499
 3397POPC   PO444484  17.161  40.117   5.412
 3397POPC   GL144485  17.340  40.111   5.810
 3397POPC   GL244486  17.424  39.773   5.890
 3397POPC   C1A44487  17.400  40.169   6.267
 3397POPC   D2A44488  17.434  39.957   6.670
 3397POPC   C3A44489  17.606  40.155   7.021
 3397POPC   C4A44490  17.686  39.995   7.430
 3397POPC   C1B44491  17.293  39.612   6.298
 3397POPC   C2B44492  17.194  39.500   6.736
 3397POPC   C3B44493  17.401  39.647   7.145
 3397POPC   C4B44494  17.304  39.686   7.630
 3398POPC   NC344495  36.627  15.984   5.344
 3398POPC   PO444496  37.246  15.726   5.282
 3398POPC   GL144497  37.097  15.839   5.731
 3398POPC   GL244498  36.753  15.807   5.853
 3398POPC   C1A44499  37.106  15.962   6.212
 3398POPC   D2A44500  36.939  15.882   6.668
 3398POPC   C3A44501  37.167  16.014   7.049
 3398POPC   C4A44502  37.144  16.309   7.405
 3398POPC   C1B44503  36.502  15.868   6.221
 3398POPC   C2B44504  36.424  15.720   6.632
 3398POPC   C3B44505  36.531  15.972   6.989
 3398POPC   C4B44506  36.774  15.861   7.348
 3399POPC   NC344507  24.309  20.911   5.525
 3399POPC   PO444508  24.551  21.586   5.436
 3399POPC   GL144509  24.394  21.395   5.779
 3399POPC   GL244510  24.257  21.754   5.828
 3399POPC   C1A44511  24.498  21.149   6.197
 3399POPC   D2A44512  24.775  21.147   6.610
 3399POPC   C3A44513  24.549  21.078   7.024
 3399POPC   C4A44514  24.168  21.100   7.293
 3399POPC   C1B44515  24.572  21.676   6.169
 3399POPC   C2B44516  24.432  21.524   6.568
 3399POPC   C3B44517  24.216  21.465   6.940
 3399POPC   C4B44518  24.435  21.522   7.355
 3400POPC   NC344519  12.109  39.648   5.450
 3400POPC   PO444520  11.811  40.211   5.315
 3400POPC   GL144521  12.100  40.057   5.763
 3400POPC   GL244522  12.256  39.694   5.917
 3400POPC   C1A44523  12.149  40.119   6.239
 3400POPC   D2A44524  11.840  40.125   6.580
 3400POPC   C3A44525  11.976  40.197   6.997
 3400POPC   C4A44526  11.717  40.243   7.344
 3400POPC   C1B44527  12.410  39.677   6.324
 3400POPC   C2B44528  12.135  39.694   6.633
 3400POPC   C3B44529  12.261  39.763   7.012
 3400POPC   C4B44530  11.980  39.746   7.319
 3401POPC   NC344531  38.789  32.293   5.543
 3401POPC   PO444532  38.153  32.564   5.586
 3401POPC   GL144533  38.497  32.576   5.865
 3401POPC   GL244534  38.489  32.214   5.973
 3401POPC   C1A44535  38.545  32.587   6.305
 3401POPC   D2A44536  38.338  32.282   6.563
 3401POPC   C3A44537  38.499  32.283   6.967
 3401POPC   C4A44538  38.364  32.447   7.335
 3401POPC   C1B44539  38.587  31.904   6.297
 3401POPC   C2B44540  38.554  31.809   6.718
 3401POPC   C3B44541  38.717  31.852   7.124
 3401POPC   C4B44542  38.398  31.947   7.412
 3402POPC   NC344543   5.995   7.465   5.368
 3402POPC   PO444544   6.284   7.973   5.669
 3402POPC   GL144545   6.097   7.662   5.957
 3402POPC   GL244546   5.811   7.478   5.843
 3402POPC   C1A44547   6.035   7.477   6.391
 3402POPC   D2A44548   5.764   7.652   6.717
 3402POPC   C3A44549   5.844   7.635   7.142
 3402POPC   C4A44550   5.980   7.296   7.370
 3402POPC   C1B44551   5.553   7.569   6.207
 3402POPC   C2B44552   5.450   7.268   6.525
 3402POPC   C3B44553   5.392   7.248   6.956
 3402POPC   C4B44554   5.460   7.289   7.392
 3403POPC   NC344555  21.468   8.943   5.487
 3403POPC   PO444556  22.100   8.927   5.703
 3403POPC   GL144557  21.739   9.044   5.919
 3403POPC   GL244558  21.674   8.722   5.928
 3403POPC   C1A44559  21.344   9.020   6.181
 3403POPC   D2A44560  21.161   8.882   6.569
 3403POPC   C3A44561  21.300   9.095   6.918
 3403POPC   C4A44562  21.065   9.250   7.254
 3403POPC   C1B44563  21.782   8.688   6.336
 3403POPC   C2B44564  21.568   8.608   6.707
 3403POPC   C3B44565  21.638   8.741   7.106
 3403POPC   C4B44566  21.488   9.014   7.399
 3404POPC   NC344567  13.924  20.019   5.497
 3404POPC   PO444568  13.376  19.541   5.274
 3404POPC   GL144569  13.439  19.892   5.696
 3404POPC   GL244570  13.754  19.934   5.951
 3404POPC   C1A44571  13.318  20.012   6.146
 3404POPC   D2A44572  13.266  19.831   6.542
 3404POPC   C3A44573  13.496  20.036   6.876
 3404POPC   C4A44574  13.352  20.026   7.319
 3404POPC   C1B44575  13.735  19.686   6.307
 3404POPC   C2B44576  13.708  19.571   6.731
 3404POPC   C3B44577  13.531  19.603   7.140
 3404POPC   C4B44578  13.778  19.794   7.503
 3405POPC   NC344579  36.308  29.654   5.641
 3405POPC   PO444580  35.847  30.165   5.440
 3405POPC   GL144581  35.956  29.971   5.844
 3405POPC   GL244582  36.285  30.111   5.914
 3405POPC   C1A44583  35.773  29.780   6.256
 3405POPC   D2A44584  35.564  29.603   6.605
 3405POPC   C3A44585  35.762  29.835   6.915
 3405POPC   C4A44586  36.124  29.858   7.140
 3405POPC   C1B44587  36.269  29.844   6.275
 3405POPC   C2B44588  36.315  29.984   6.682
 3405POPC   C3B44589  36.440  30.250   7.015
 3405POPC   C4B44590  36.259  30.361   7.385
 3406POPC   NC344591  21.053   4.654   5.807
 3406POPC   PO444592  21.420   4.203   5.390
 3406POPC   GL144593  21.418   4.086   5.801
 3406POPC   GL244594  21.114   3.882   5.800
 3406POPC   C1A44595  21.551   4.285   6.202
 3406POPC   D2A44596  21.603   4.316   6.653
 3406POPC   C3A44597  21.371   4.617   6.909
 3406POPC   C4A44598  21.469   4.440   7.286
 3406POPC   C1B44599  21.062   4.114   6.187
 3406POPC   C2B44600  21.085   4.363   6.564
 3406POPC   C3B44601  21.085   4.210   7.012
 3406POPC   C4B44602  21.054   3.899   7.361
 3407POPC   NC344603  39.724  16.722   5.715
 3407POPC   PO444604  40.285  16.952   5.517
 3407POPC   GL144605  40.230  16.803   5.927
 3407POPC   GL244606  40.092  16.475   5.986
 3407POPC   C1A44607  40.037  16.832   6.321
 3407POPC   D2A44608  39.922  16.635   6.681
 3407POPC   C3A44609  40.109  16.803   7.054
 3407POPC   C4A44610  40.170  17.204   7.180
 3407POPC   C1B44611  39.763  16.267   6.275
 3407POPC   C2B44612  39.586  16.251   6.723
 3407POPC   C3B44613  39.665  16.499   7.099
 3407POPC   C4B44614  39.912  16.455   7.442
 3408POPC   NC344615  41.189  34.792   5.395
 3408POPC   PO444616  40.612  34.427   5.422
 3408POPC   GL144617  40.630  34.434   5.840
 3408POPC   GL244618  40.966  34.482   5.795
 3408POPC   C1A44619  40.634  34.317   6.279
 3408POPC   D2A44620  40.571  34.658   6.568
 3408POPC   C3A44621  40.568  34.817   6.978
 3408POPC   C4A44622  40.697  34.599   7.361
 3408POPC   C1B44623  40.948  34.726   6.193
 3408POPC   C2B44624  41.087  34.899   6.618
 3408POPC   C3B44625  41.072  34.810   7.070
 3408POPC   C4B44626  41.203  34.986   7.488
 3409POPC   NC344627  20.880  37.963   5.441
 3409POPC   PO444628  20.538  37.292   5.533
 3409POPC   GL144629  20.673  37.512   5.855
 3409POPC   GL244630  20.597  37.844   5.873
 3409POPC   C1A44631  20.798  37.564   6.268
 3409POPC   D2A44632  20.765  37.385   6.659
 3409POPC   C3A44633  20.686  37.684   6.967
 3409POPC   C4A44634  20.832  37.700   7.373
 3409POPC   C1B44635  20.622  38.059   6.280
 3409POPC   C2B44636  20.498  38.146   6.716
 3409POPC   C3B44637  20.445  38.129   7.179
 3409POPC   C4B44638  20.477  38.004   7.623
 3410POPC   NC344639   9.565  21.512   5.423
 3410POPC   PO444640  10.041  21.038   5.339
 3410POPC   GL144641   9.920  21.299   5.742
 3410POPC   GL244642   9.592  21.219   5.861
 3410POPC   C1A44643   9.958  21.241   6.219
 3410POPC   D2A44644   9.997  20.983   6.593
 3410POPC   C3A44645  10.076  21.278   6.891
 3410POPC   C4A44646  10.110  21.464   7.243
 3410POPC   C1B44647   9.408  21.387   6.232
 3410POPC   C2B44648   9.636  21.369   6.615
 3410POPC   C3B44649   9.584  21.214   7.002
 3410POPC   C4B44650   9.294  21.235   7.307
 3411POPC   NC344651   5.303  37.719   5.232
 3411POPC   PO444652   4.771  38.016   5.493
 3411POPC   GL144653   5.032  37.783   5.783
 3411POPC   GL244654   5.390  37.699   5.729
 3411POPC   C1A44655   4.926  37.609   6.189
 3411POPC   D2A44656   4.976  37.383   6.588
 3411POPC   C3A44657   4.832  37.612   6.949
 3411POPC   C4A44658   4.840  37.907   7.290
 3411POPC   C1B44659   5.431  37.665   6.166
 3411POPC   C2B44660   5.240  37.827   6.573
 3411POPC   C3B44661   5.337  37.720   6.998
 3411POPC   C4B44662   5.196  37.522   7.341
 3412POPC   NC344663  21.120   8.065   5.462
 3412POPC   PO444664  21.680   8.513   5.462
 3412POPC   GL144665  21.339   8.390   5.787
 3412POPC   GL244666  21.383   8.066   5.915
 3412POPC   C1A44667  21.312   8.471   6.254
 3412POPC   D2A44668  21.090   8.391   6.659
 3412POPC   C3A44669  21.145   8.599   7.037
 3412POPC   C4A44670  21.408   8.331   7.279
 3412POPC   C1B44671  21.226   7.954   6.294
 3412POPC   C2B44672  21.170   7.892   6.699
 3412POPC   C3B44673  21.106   7.964   7.103
 3412POPC   C4B44674  21.304   7.869   7.490
 3413POPC   NC344675  30.245   2.802   5.551
 3413POPC   PO444676  29.807   3.130   5.250
 3413POPC   GL144677  29.779   2.938   5.714
 3413POPC   GL244678  29.610   2.663   5.762
 3413POPC   C1A44679  29.927   2.706   6.159
 3413POPC   D2A44680  29.968   2.561   6.622
 3413POPC   C3A44681  29.987   2.816   7.021
 3413POPC   C4A44682  29.943   2.686   7.457
 3413POPC   C1B44683  29.479   2.424   6.159
 3413POPC   C2B44684  29.513   2.296   6.588
 3413POPC   C3B44685  29.571   2.528   6.972
 3413POPC   C4B44686  29.452   2.629   7.393
 3414POPC   NC344687   2.278   7.754   5.464
 3414POPC   PO444688   2.125   7.053   5.574
 3414POPC   GL144689   1.942   7.311   5.924
 3414POPC   GL244690   1.971   7.676   5.874
 3414POPC   C1A44691   1.712   7.320   6.326
 3414POPC   D2A44692   2.010   7.224   6.664
 3414POPC   C3A44693   1.963   7.219   7.110
 3414POPC   C4A44694   2.326   6.970   7.284
 3414POPC   C1B44695   2.080   7.678   6.311
 3414POPC   C2B44696   2.162   7.700   6.757
 3414POPC   C3B44697   2.002   7.785   7.177
 3414POPC   C4B44698   1.989   7.807   7.630
 3415POPC   NC344699  13.469  38.000   5.449
 3415POPC   PO444700  13.334  37.275   5.569
 3415POPC   GL144701  13.587  37.507   5.897
 3415POPC   GL244702  13.614  37.862   5.909
 3415POPC   C1A44703  13.634  37.465   6.331
 3415POPC   D2A44704  13.327  37.325   6.611
 3415POPC   C3A44705  13.425  37.428   7.011
 3415POPC   C4A44706  13.652  37.438   7.380
 3415POPC   C1B44707  13.516  38.034   6.300
 3415POPC   C2B44708  13.489  37.834   6.698
 3415POPC   C3B44709  13.792  37.779   7.035
 3415POPC   C4B44710  13.995  38.030   7.352
 3416POPC   NC344711  28.232  29.849   5.363
 3416POPC   PO444712  28.895  29.711   5.375
 3416POPC   GL144713  28.665  29.911   5.738
 3416POPC   GL244714  28.399  29.658   5.820
 3416POPC   C1A44715  28.667  29.937   6.206
 3416POPC   D2A44716  28.656  29.670   6.580
 3416POPC   C3A44717  28.526  29.815   6.982
 3416POPC   C4A44718  28.466  30.179   7.290
 3416POPC   C1B44719  28.288  29.554   6.236
 3416POPC   C2B44720  28.128  29.788   6.611
 3416POPC   C3B44721  28.072  29.999   7.004
 3416POPC   C4B44722  28.228  29.752   7.407
 3417POPC   NC344723   6.445  44.009   5.372
 3417POPC   PO444724   6.832  43.478   5.247
 3417POPC   GL144725   6.943  43.679   5.696
 3417POPC   GL244726   6.774  43.967   5.764
 3417POPC   C1A44727   6.733  43.699   6.176
 3417POPC   D2A44728   6.676  43.678   6.617
 3417POPC   C3A44729   6.482  43.982   6.882
 3417POPC   C4A44730   6.604  43.824   7.253
 3417POPC   C1B44731   6.977  44.150   6.137
 3417POPC   C2B44732   6.799  44.252   6.570
 3417POPC   C3B44733   6.956  44.206   7.011
 3417POPC   C4B44734   6.725  44.317   7.394
 3418POPC   NC344735  17.805  23.998   5.575
 3418POPC   PO444736  18.296  23.495   5.464
 3418POPC   GL144737  18.287  23.734   5.826
 3418POPC   GL244738  18.526  23.496   5.927
 3418POPC   C1A44739  18.184  23.927   6.231
 3418POPC   D2A44740  18.279  24.138   6.629
 3418POPC   C3A44741  18.223  23.951   7.034
 3418POPC   C4A44742  18.225  24.009   7.494
 3418POPC   C1B44743  18.311  23.344   6.250
 3418POPC   C2B44744  18.287  23.462   6.641
 3418POPC   C3B44745  18.110  23.398   7.020
 3418POPC   C4B44746  18.387  23.558   7.308
 3419POPC   NC344747  31.055   2.846   5.346
 3419POPC   PO444748  31.530   2.348   5.195
 3419POPC   GL144749  31.364   2.461   5.619
 3419POPC   GL244750  31.423   2.820   5.713
 3419POPC   C1A44751  31.311   2.492   6.094
 3419POPC   D2A44752  31.386   2.586   6.570
 3419POPC   C3A44753  31.487   2.551   7.011
 3419POPC   C4A44754  31.811   2.786   7.215
 3419POPC   C1B44755  31.404   3.008   6.137
 3419POPC   C2B44756  31.249   3.078   6.544
 3419POPC   C3B44757  31.476   3.077   6.949
 3419POPC   C4B44758  31.373   3.070   7.398
 3420POPC   NC344759  31.502  34.469   5.506
 3420POPC   PO444760  31.318  35.090   5.579
 3420POPC   GL144761  31.249  34.719   5.884
 3420POPC   GL244762  31.273  34.310   5.914
 3420POPC   C1A44763  31.072  34.746   6.284
 3420POPC   D2A44764  31.301  34.761   6.634
 3420POPC   C3A44765  31.117  34.767   6.972
 3420POPC   C4A44766  31.304  34.878   7.307
 3420POPC   C1B44767  31.486  34.399   6.286
 3420POPC   C2B44768  31.374  34.260   6.689
 3420POPC   C3B44769  31.440  34.379   7.073
 3420POPC   C4B44770  31.836  34.292   7.198
 3421POPC   NC344771  22.927  20.075   5.398
 3421POPC   PO444772  22.586  19.552   5.335
 3421POPC   GL144773  22.637  19.812   5.757
 3421POPC   GL244774  22.996  19.794   5.848
 3421POPC   C1A44775  22.704  19.992   6.227
 3421POPC   D2A44776  23.078  19.903   6.520
 3421POPC   C3A44777  23.130  20.034   6.977
 3421POPC   C4A44778  22.784  19.971   7.264
 3421POPC   C1B44779  23.029  19.472   6.186
 3421POPC   C2B44780  23.028  19.390   6.640
 3421POPC   C3B44781  23.028  19.521   7.079
 3421POPC   C4B44782  23.416  19.636   7.303
 3422POPC   NC344783  43.025  12.436   5.530
 3422POPC   PO444784  43.284  11.963   5.130
 3422POPC   GL144785  43.247  11.910   5.675
 3422POPC   GL244786  43.108  12.184   5.936
 3422POPC   C1A44787  43.287  11.818   6.202
 3422POPC   D2A44788  43.075  11.894   6.633
 3422POPC   C3A44789  43.261  12.012   7.026
 3422POPC   C4A44790  43.037  11.882   7.385
 3422POPC   C1B44791  42.955  12.297   6.337
 3422POPC   C2B44792  42.628  12.226   6.630
 3422POPC   C3B44793  42.737  12.124   7.026
 3422POPC   C4B44794  42.821  12.381   7.342
 3423POPC   NC344795  37.210  39.858   5.260
 3423POPC   PO444796  37.852  40.082   5.483
 3423POPC   GL144797  37.699  40.025   5.857
 3423POPC   GL244798  37.400  39.963   5.730
 3423POPC   C1A44799  37.916  39.974   6.229
 3423POPC   D2A44800  37.830  39.798   6.615
 3423POPC   C3A44801  37.951  39.997   6.980
 3423POPC   C4A44802  37.812  39.949   7.373
 3423POPC   C1B44803  37.214  40.146   6.102
 3423POPC   C2B44804  37.150  40.027   6.511
 3423POPC   C3B44805  37.425  40.066   6.841
 3423POPC   C4B44806  37.331  40.062   7.250
 3424POPC   NC344807  24.759  22.901   5.108
 3424POPC   PO444808  25.428  22.989   5.286
 3424POPC   GL144809  25.510  23.079   5.709
 3424POPC   GL244810  25.155  22.995   5.772
 3424POPC   C1A44811  25.494  22.853   6.139
 3424POPC   D2A44812  25.533  22.639   6.555
 3424POPC   C3A44813  25.435  22.888   6.942
 3424POPC   C4A44814  25.358  22.652   7.312
 3424POPC   C1B44815  24.926  23.044   6.154
 3424POPC   C2B44816  25.105  22.964   6.533
 3424POPC   C3B44817  24.948  22.838   6.910
 3424POPC   C4B44818  25.054  23.082   7.275
 3425POPC   NC344819  25.176  24.294   5.195
 3425POPC   PO444820  25.136  24.936   5.313
 3425POPC   GL144821  25.121  24.578   5.658
 3425POPC   GL244822  24.961  24.254   5.690
 3425POPC   C1A44823  25.330  24.416   6.044
 3425POPC   D2A44824  25.558  24.404   6.425
 3425POPC   C3A44825  25.475  24.686   6.735
 3425POPC   C4A44826  25.391  24.554   7.134
 3425POPC   C1B44827  24.862  24.236   6.125
 3425POPC   C2B44828  25.042  24.403   6.538
 3425POPC   C3B44829  24.944  24.319   6.974
 3425POPC   C4B44830  25.017  24.359   7.430
 3426POPC   NC344831  16.326  42.770   5.183
 3426POPC   PO444832  16.002  43.264   5.430
 3426POPC   GL144833  15.863  43.172   5.771
 3426POPC   GL244834  15.687  43.504   5.793
 3426POPC   C1A44835  16.032  42.975   6.143
 3426POPC   D2A44836  16.158  43.114   6.561
 3426POPC   C3A44837  15.981  42.895   6.913
 3426POPC   C4A44838  15.922  43.007   7.323
 3426POPC   C1B44839  15.893  43.475   6.173
 3426POPC   C2B44840  15.762  43.445   6.546
 3426POPC   C3B44841  15.861  43.379   6.927
 3426POPC   C4B44842  15.677  43.478   7.279
 3427POPC   NC344843  33.023  28.092   5.207
 3427POPC   PO444844  32.881  28.559   5.683
 3427POPC   GL144845  33.188  28.332   5.848
 3427POPC   GL244846  33.234  27.988   5.839
 3427POPC   C1A44847  33.247  28.406   6.262
 3427POPC   D2A44848  32.936  28.590   6.521
 3427POPC   C3A44849  33.043  28.703   6.914
 3427POPC   C4A44850  32.865  28.664   7.321
 3427POPC   C1B44851  32.985  27.979   6.259
 3427POPC   C2B44852  33.064  28.119   6.680
 3427POPC   C3B44853  33.007  28.214   7.090
 3427POPC   C4B44854  33.336  28.187   7.343
 3428POPC   NC344855  40.116  13.227   5.577
 3428POPC   PO444856  39.708  12.645   5.583
 3428POPC   GL144857  39.956  12.545   5.938
 3428POPC   GL244858  40.193  12.761   5.823
 3428POPC   C1A44859  39.896  12.665   6.376
 3428POPC   D2A44860  39.917  13.075   6.600
 3428POPC   C3A44861  39.791  12.950   6.990
 3428POPC   C4A44862  40.078  12.615   7.162
 3428POPC   C1B44863  40.269  12.956   6.199
 3428POPC   C2B44864  40.516  12.828   6.553
 3428POPC   C3B44865  40.515  12.895   6.990
 3428POPC   C4B44866  40.203  13.126   7.186
 3429POPC   NC344867  24.386  35.001   5.432
 3429POPC   PO444868  24.869  34.530   5.543
 3429POPC   GL144869  24.721  34.696   5.880
 3429POPC   GL244870  24.401  34.537   5.821
 3429POPC   C1A44871  24.852  34.944   6.253
 3429POPC   D2A44872  24.712  34.716   6.632
 3429POPC   C3A44873  24.817  34.573   7.053
 3429POPC   C4A44874  24.429  34.430   7.271
 3429POPC   C1B44875  24.363  34.766   6.220
 3429POPC   C2B44876  24.188  34.817   6.608
 3429POPC   C3B44877  24.318  34.846   7.018
 3429POPC   C4B44878  24.116  34.873   7.456
 3430POPC   NC344879  41.113  15.044   5.362
 3430POPC   PO444880  40.495  15.010   5.379
 3430POPC   GL144881  40.608  14.959   5.839
 3430POPC   GL244882  40.959  14.864   5.837
 3430POPC   C1A44883  40.467  15.083   6.299
 3430POPC   D2A44884  40.411  15.294   6.706
 3430POPC   C3A44885  40.622  15.160   7.070
 3430POPC   C4A44886  40.571  15.321   7.478
 3430POPC   C1B44887  40.873  14.774   6.264
 3430POPC   C2B44888  40.847  14.927   6.675
 3430POPC   C3B44889  40.873  14.746   7.099
 3430POPC   C4B44890  40.918  14.942   7.503
 3431POPC   NC344891  31.746  35.217   5.441
 3431POPC   PO444892  32.457  35.459   5.494
 3431POPC   GL144893  32.149  35.324   5.768
 3431POPC   GL244894  31.925  35.608   5.768
 3431POPC   C1A44895  32.081  35.236   6.196
 3431POPC   D2A44896  32.251  35.002   6.536
 3431POPC   C3A44897  32.163  35.163   6.936
 3431POPC   C4A44898  32.519  35.143   7.195
 3431POPC   C1B44899  32.213  35.737   6.105
 3431POPC   C2B44900  32.344  35.568   6.495
 3431POPC   C3B44901  32.348  35.646   6.899
 3431POPC   C4B44902  32.296  35.564   7.316
 3432POPC   NC344903   7.257   4.637   5.181
 3432POPC   PO444904   7.334   4.106   5.702
 3432POPC   GL144905   7.333   4.170   6.074
 3432POPC   GL244906   7.025   3.987   6.108
 3432POPC   C1A44907   7.507   4.472   6.328
 3432POPC   D2A44908   7.845   4.479   6.594
 3432POPC   C3A44909   7.605   4.534   6.948
 3432POPC   C4A44910   7.612   4.384   7.341
 3432POPC   C1B44911   6.990   4.336   6.412
 3432POPC   C2B44912   7.096   4.509   6.806
 3432POPC   C3B44913   7.114   4.305   7.190
 3432POPC   C4B44914   6.996   3.964   7.449
 3433POPC   NC344915  38.106  44.817   5.433
 3433POPC   PO444916  37.337  44.965   5.432
 3433POPC   GL144917  37.542  44.907   5.848
 3433POPC   GL244918  37.848   0.078   5.788
 3433POPC   C1A44919  37.672  44.695   6.265
 3433POPC   D2A44920  37.799  44.328   6.563
 3433POPC   C3A44921  37.690  44.429   6.998
 3433POPC   C4A44922  37.461  44.802   7.181
 3433POPC   C1B44923  38.110  44.940   6.121
 3433POPC   C2B44924  38.084  44.805   6.571
 3433POPC   C3B44925  37.958  44.860   7.002
 3433POPC   C4B44926  37.883  44.868   7.469
 3434POPC   NC344927  20.611  38.817   5.571
 3434POPC   PO444928  20.419  38.123   5.466
 3434POPC   GL144929  20.564  38.367   5.836
 3434POPC   GL244930  20.911  38.264   5.866
 3434POPC   C1A44931  20.513  38.563   6.261
 3434POPC   D2A44932  20.418  38.852   6.609
 3434POPC   C3A44933  20.489  38.611   6.975
 3434POPC   C4A44934  20.637  38.622   7.389
 3434POPC   C1B44935  21.022  38.487   6.244
 3434POPC   C2B44936  20.940  38.642   6.658
 3434POPC   C3B44937  20.907  38.319   6.966
 3434POPC   C4B44938  20.904  38.195   7.391
 3435POPC   NC344939  32.402  18.668   5.398
 3435POPC   PO444940  31.998  18.053   5.392
 3435POPC   GL144941  32.188  18.236   5.746
 3435POPC   GL244942  32.007  18.561   5.819
 3435POPC   C1A44943  32.208  18.008   6.162
 3435POPC   D2A44944  31.996  18.165   6.562
 3435POPC   C3A44945  32.255  18.128   6.920
 3435POPC   C4A44946  32.292  17.890   7.259
 3435POPC   C1B44947  32.165  18.497   6.209
 3435POPC   C2B44948  32.493  18.349   6.513
 3435POPC   C3B44949  32.541  18.545   6.937
 3435POPC   C4B44950  32.418  18.416   7.374
 3436POPC   NC344951  43.965  23.140   5.286
 3436POPC   PO444952  43.643  22.493   5.373
 3436POPC   GL144953  43.716  22.866   5.675
 3436POPC   GL244954  44.058  22.999   5.775
 3436POPC   C1A44955  43.655  23.058   6.109
 3436POPC   D2A44956  43.906  23.015   6.501
 3436POPC   C3A44957  43.745  22.982   6.914
 3436POPC   C4A44958  43.941  22.955   7.298
 3436POPC   C1B44959  44.245  22.659   6.006
 3436POPC   C2B44960  44.253  22.605   6.447
 3436POPC   C3B44961  44.191  22.699   6.896
 3436POPC   C4B44962  44.200  22.517   7.305
 3437POPC   NC344963   5.307   6.098   5.076
 3437POPC   PO444964   5.172   5.687   5.561
 3437POPC   GL144965   5.006   5.704   5.924
 3437POPC   GL244966   4.821   5.999   5.890
 3437POPC   C1A44967   4.914   5.665   6.345
 3437POPC   D2A44968   5.124   5.865   6.673
 3437POPC   C3A44969   4.958   5.886   7.082
 3437POPC   C4A44970   5.135   5.689   7.399
 3437POPC   C1B44971   5.033   6.188   6.252
 3437POPC   C2B44972   5.444   6.217   6.459
 3437POPC   C3B44973   5.408   6.255   6.899
 3437POPC   C4B44974   5.397   6.137   7.330
 3438POPC   NC344975   9.514  44.448   5.446
 3438POPC   PO444976  10.131  44.794   5.587
 3438POPC   GL144977   9.729  44.832   5.855
 3438POPC   GL244978   9.569  44.491   5.930
 3438POPC   C1A44979   9.552  44.801   6.309
 3438POPC   D2A44980   9.544  44.539   6.696
 3438POPC   C3A44981   9.686  44.745   7.068
 3438POPC   C4A44982  10.053  44.963   7.221
 3438POPC   C1B44983   9.925  44.310   6.145
 3438POPC   C2B44984  10.092  44.303   6.576
 3438POPC   C3B44985   9.981  44.190   6.988
 3438POPC   C4B44986   9.899  44.400   7.365
 3439POPC   NC344987   3.750  14.543   5.450
 3439POPC   PO444988   3.234  14.040   5.480
 3439POPC   GL144989   3.454  14.260   5.762
 3439POPC   GL244990   3.273  14.576   5.727
 3439POPC   C1A44991   3.746  14.388   6.081
 3439POPC   D2A44992   3.812  14.224   6.446
 3439POPC   C3A44993   3.639  14.323   6.786
 3439POPC   C4A44994   3.756  14.362   7.169
 3439POPC   C1B44995   3.255  14.530   6.174
 3439POPC   C2B44996   3.337  14.682   6.595
 3439POPC   C3B44997   3.254  14.547   7.025
 3439POPC   C4B44998   3.246  14.152   7.186
 3440POPC   NC344999  33.391  44.552   5.532
 3440POPC   PO445000  32.765  44.825   5.591
 3440POPC   GL145001  32.947  44.537   5.873
 3440POPC   GL245002  32.654  44.281   5.860
 3440POPC   C1A45003  33.187  44.511   6.297
 3440POPC   D2A45004  33.390  44.522   6.725
 3440POPC   C3A45005  33.163  44.419   7.065
 3440POPC   C4A45006  32.932  44.812   7.171
 3440POPC   C1B45007  32.658  44.517   6.276
 3440POPC   C2B45008  32.816  44.490   6.696
 3440POPC   C3B45009  32.642  44.374   7.084
 3440POPC   C4B45010  32.646  44.493   7.492
 3441POPC   NC345011  42.693  18.705   5.481
 3441POPC   PO445012  43.393  18.822   5.526
 3441POPC   GL145013  43.173  18.761   5.899
 3441POPC   GL245014  42.910  18.998   5.883
 3441POPC   C1A45015  43.361  18.738   6.322
 3441POPC   D2A45016  43.452  18.617   6.732
 3441POPC   C3A45017  43.464  18.918   7.070
 3441POPC   C4A45018  43.125  18.915   7.339
 3441POPC   C1B45019  42.885  18.922   6.350
 3441POPC   C2B45020  43.030  18.941   6.794
 3441POPC   C3B45021  42.846  19.256   7.119
 3441POPC   C4B45022  42.796  19.181   7.585
 3442POPC   NC345023  33.833   2.871   5.435
 3442POPC   PO445024  33.304   2.923   5.792
 3442POPC   GL145025  33.558   2.534   5.955
 3442POPC   GL245026  33.893   2.457   5.767
 3442POPC   C1A45027  33.563   2.585   6.406
 3442POPC   D2A45028  33.735   2.904   6.627
 3442POPC   C3A45029  33.831   2.709   6.979
 3442POPC   C4A45030  33.651   2.838   7.308
 3442POPC   C1B45031  34.032   2.495   6.207
 3442POPC   C2B45032  34.029   2.334   6.643
 3442POPC   C3B45033  34.250   2.419   7.050
 3442POPC   C4B45034  34.216   2.791   7.378
 3443POPC   NC345035  11.626  44.108   5.480
 3443POPC   PO445036  10.944  44.216   5.516
 3443POPC   GL145037  11.129  43.939   5.857
 3443POPC   GL245038  11.493  43.813   5.872
 3443POPC   C1A45039  11.234  43.936   6.306
 3443POPC   D2A45040  11.177  44.230   6.656
 3443POPC   C3A45041  11.297  44.130   7.070
 3443POPC   C4A45042  10.991  43.827   7.211
 3443POPC   C1B45043  11.738  43.922   6.240
 3443POPC   C2B45044  11.610  43.944   6.680
 3443POPC   C3B45045  11.755  43.782   7.060
 3443POPC   C4B45046  11.716  43.746   7.483
 3444POPC   NC345047  41.119  26.220   5.523
 3444POPC   PO445048  40.472  25.992   5.337
 3444POPC   GL145049  40.693  26.020   5.720
 3444POPC   GL245050  40.702  26.367   5.784
 3444POPC   C1A45051  40.952  25.807   6.032
 3444POPC   D2A45052  41.005  25.895   6.466
 3444POPC   C3A45053  40.772  25.750   6.811
 3444POPC   C4A45054  40.846  25.970   7.176
 3444POPC   C1B45055  40.689  26.215   6.212
 3444POPC   C2B45056  40.485  26.210   6.629
 3444POPC   C3B45057  40.544  26.354   7.056
 3444POPC   C4B45058  40.449  26.228   7.498
 3445POPC   NC345059  14.415  25.046   5.448
 3445POPC   PO445060  13.975  25.451   5.252
 3445POPC   GL145061  14.261  25.481   5.685
 3445POPC   GL245062  14.554  25.283   5.853
 3445POPC   C1A45063  14.144  25.430   6.133
 3445POPC   D2A45064  14.268  25.151   6.466
 3445POPC   C3A45065  14.055  25.187   6.864
 3445POPC   C4A45066  14.044  25.457   7.216
 3445POPC   C1B45067  14.667  25.418   6.223
 3445POPC   C2B45068  14.741  25.385   6.629
 3445POPC   C3B45069  14.563  25.176   6.960
 3445POPC   C4B45070  14.582  25.289   7.371
 3446POPC   NC345071  18.752  44.547   5.661
 3446POPC   PO445072  19.404  44.480   5.543
 3446POPC   GL145073  19.210  44.556   5.911
 3446POPC   GL245074  19.094  44.903   5.949
 3446POPC   C1A45075  19.248  44.335   6.289
 3446POPC   D2A45076  19.126  44.398   6.714
 3446POPC   C3A45077  19.363  44.466   7.032
 3446POPC   C4A45078  19.332  44.883   7.180
 3446POPC   C1B45079  18.853  44.664   6.295
 3446POPC   C2B45080  18.653  44.578   6.676
 3446POPC   C3B45081  18.836  44.673   7.078
 3446POPC   C4B45082  18.898  44.686   7.497
 3447POPC   NC345083  17.495  14.965   5.119
 3447POPC   PO445084  17.619  15.419   5.605
 3447POPC   GL145085  17.547  15.053   5.865
 3447POPC   GL245086  17.173  14.992   5.809
 3447POPC   C1A45087  17.697  15.076   6.321
 3447POPC   D2A45088  17.815  15.003   6.762
 3447POPC   C3A45089  17.697  15.169   7.180
 3447POPC   C4A45090  17.608  15.378   7.600
 3447POPC   C1B45091  17.226  15.261   6.205
 3447POPC   C2B45092  17.258  15.405   6.635
 3447POPC   C3B45093  17.076  15.431   7.026
 3447POPC   C4B45094  17.201  15.139   7.349
 3448POPC   NC345095  12.182  29.636   5.424
 3448POPC   PO445096  12.211  30.307   5.387
 3448POPC   GL145097  11.972  30.026   5.697
 3448POPC   GL245098  12.290  29.916   5.842
 3448POPC   C1A45099  11.881  29.806   6.141
 3448POPC   D2A45100  12.038  29.696   6.584
 3448POPC   C3A45101  12.033  29.978   6.965
 3448POPC   C4A45102  11.939  29.848   7.380
 3448POPC   C1B45103  12.153  30.244   6.132
 3448POPC   C2B45104  12.259  30.187   6.539
 3448POPC   C3B45105  12.483  29.887   6.761
 3448POPC   C4B45106  12.495  29.891   7.225
 3449POPC   NC345107  21.234  13.183   5.496
 3449POPC   PO445108  21.099  12.531   5.290
 3449POPC   GL145109  21.101  12.671   5.711
 3449POPC   GL245110  20.821  12.569   5.914
 3449POPC   C1A45111  21.347  12.815   6.090
 3449POPC   D2A45112  21.478  13.087   6.427
 3449POPC   C3A45113  21.476  13.010   6.877
 3449POPC   C4A45114  21.660  12.861   7.236
 3449POPC   C1B45115  20.908  12.697   6.332
 3449POPC   C2B45116  21.204  12.659   6.662
 3449POPC   C3B45117  21.249  12.454   7.088
 3449POPC   C4B45118  21.597  12.375   7.410
 3450POPC   NC345119  32.369  15.299   5.425
 3450POPC   PO445120  32.483  14.680   5.482
 3450POPC   GL145121  32.258  14.927   5.808
 3450POPC   GL245122  32.112  15.261   5.840
 3450POPC   C1A45123  32.363  15.086   6.232
 3450POPC   D2A45124  32.542  15.325   6.561
 3450POPC   C3A45125  32.470  15.159   6.943
 3450POPC   C4A45126  32.494  15.332   7.350
 3450POPC   C1B45127  31.931  15.385   6.247
 3450POPC   C2B45128  32.039  15.184   6.630
 3450POPC   C3B45129  31.983  15.279   7.032
 3450POPC   C4B45130  31.593  15.409   7.162
 3451POPC   NC345131  43.189  42.347   5.290
 3451POPC   PO445132  42.580  42.072   5.466
 3451POPC   GL145133  42.922  42.216   5.707
 3451POPC   GL245134  42.924  42.527   5.840
 3451POPC   C1A45135  43.187  42.144   6.083
 3451POPC   D2A45136  43.423  42.138   6.461
 3451POPC   C3A45137  43.140  42.075   6.786
 3451POPC   C4A45138  43.182  42.194   7.183
 3451POPC   C1B45139  43.106  42.651   6.236
 3451POPC   C2B45140  43.231  42.584   6.662
 3451POPC   C3B45141  43.204  42.692   7.078
 3451POPC   C4B45142  42.958  42.585   7.437
 3452POPC   NC345143   1.661  21.419   5.606
 3452POPC   PO445144   1.044  21.303   5.273
 3452POPC   GL145145   1.155  21.236   5.716
 3452POPC   GL245146   1.268  21.532   5.906
 3452POPC   C1A45147   1.161  21.123   6.172
 3452POPC   D2A45148   1.305  21.428   6.508
 3452POPC   C3A45149   1.244  21.221   6.928
 3452POPC   C4A45150   1.187  21.198   7.373
 3452POPC   C1B45151   1.575  21.760   6.191
 3452POPC   C2B45152   1.502  21.924   6.578
 3452POPC   C3B45153   1.467  21.670   6.936
 3452POPC   C4B45154   1.340  21.675   7.337
 3453POPC   NC345155   6.909   3.025   5.399
 3453POPC   PO445156   6.326   2.635   5.513
 3453POPC   GL145157   6.481   2.567   5.926
 3453POPC   GL245158   6.739   2.801   5.887
 3453POPC   C1A45159   6.497   2.739   6.363
 3453POPC   D2A45160   6.319   2.940   6.740
 3453POPC   C3A45161   6.510   2.810   7.090
 3453POPC   C4A45162   6.635   3.119   7.354
 3453POPC   C1B45163   6.943   2.511   6.210
 3453POPC   C2B45164   6.928   2.610   6.650
 3453POPC   C3B45165   6.900   2.443   7.046
 3453POPC   C4B45166   6.853   2.650   7.449
 3454POPC   NC345167  11.074  44.696   5.414
 3454POPC   PO445168  11.767  44.549   5.446
 3454POPC   GL145169  11.480  44.735   5.740
 3454POPC   GL245170  11.333  44.420   5.807
 3454POPC   C1A45171  11.463  44.854   6.174
 3454POPC   D2A45172  11.445  44.659   6.562
 3454POPC   C3A45173  11.506  44.915   6.909
 3454POPC   C4A45174  11.545  44.641   7.260
 3454POPC   C1B45175  11.118  44.445   6.197
 3454POPC   C2B45176  10.936  44.674   6.554
 3454POPC   C3B45177  11.100  44.615   6.988
 3454POPC   C4B45178  11.115  44.456   7.452
 3455POPC   NC345179  41.727  24.656   5.399
 3455POPC   PO445180  41.589  24.006   5.480
 3455POPC   GL145181  41.586  24.332   5.811
 3455POPC   GL245182  41.678  24.690   5.897
 3455POPC   C1A45183  41.610  24.324   6.248
 3455POPC   D2A45184  41.836  24.495   6.550
 3455POPC   C3A45185  41.553  24.452   6.872
 3455POPC   C4A45186  41.663  24.156   7.207
 3455POPC   C1B45187  41.390  24.806   6.235
 3455POPC   C2B45188  41.222  24.925   6.630
 3455POPC   C3B45189  41.390  24.959   7.037
 3455POPC   C4B45190  41.562  24.676   7.321
 3456POPC   NC345191  10.975  35.489   5.274
 3456POPC   PO445192  11.317  34.943   5.097
 3456POPC   GL145193  11.259  35.078   5.613
 3456POPC   GL245194  11.255  35.462   5.727
 3456POPC   C1A45195  11.423  35.160   6.088
 3456POPC   D2A45196  11.462  35.322   6.546
 3456POPC   C3A45197  11.169  35.172   6.876
 3456POPC   C4A45198  11.278  34.881   7.224
 3456POPC   C1B45199  11.213  35.622   6.181
 3456POPC   C2B45200  11.187  35.772   6.621
 3456POPC   C3B45201  11.342  35.697   7.041
 3456POPC   C4B45202  11.356  35.812   7.500
 3457POPC   NC345203  36.102  41.356   5.394
 3457POPC   PO445204  36.397  41.929   5.555
 3457POPC   GL145205  36.070  41.720   5.765
 3457POPC   GL245206  36.314  41.482   5.859
 3457POPC   C1A45207  35.871  41.507   6.136
 3457POPC   D2A45208  35.689  41.453   6.574
 3457POPC   C3A45209  35.953  41.424   6.942
 3457POPC   C4A45210  35.982  41.130   7.263
 3457POPC   C1B45211  36.360  41.820   6.187
 3457POPC   C2B45212  36.494  41.751   6.594
 3457POPC   C3B45213  36.348  41.836   6.997
 3457POPC   C4B45214  36.251  41.588   7.331
 3458POPC   NC345215  22.006  44.894   5.560
 3458POPC   PO445216  22.597  44.777   5.220
 3458POPC   GL145217  22.406  44.564   5.639
 3458POPC   GL245218  22.085  44.397   5.781
 3458POPC   C1A45219  22.422  44.584   6.109
 3458POPC   D2A45220  22.240  44.784   6.482
 3458POPC   C3A45221  22.325  44.629   6.884
 3458POPC   C4A45222  22.355  44.720   7.313
 3458POPC   C1B45223  21.883  44.612   6.161
 3458POPC   C2B45224  21.771  44.535   6.597
 3458POPC   C3B45225  21.823  44.524   7.025
 3458POPC   C4B45226  21.952  44.937   7.084
 3459POPC   NC345227  22.000  20.754   5.369
 3459POPC   PO445228  22.451  20.269   5.319
 3459POPC   GL145229  22.424  20.602   5.670
 3459POPC   GL245230  22.106  20.682   5.841
 3459POPC   C1A45231  22.430  20.444   6.135
 3459POPC   D2A45232  22.448  20.642   6.548
 3459POPC   C3A45233  22.329  20.528   6.964
 3459POPC   C4A45234  22.218  20.789   7.303
 3459POPC   C1B45235  21.927  20.420   6.160
 3459POPC   C2B45236  21.943  20.525   6.579
 3459POPC   C3B45237  21.875  20.299   6.938
 3459POPC   C4B45238  21.876  20.425   7.331
 3460POPC   NC345239   4.944  25.552   5.389
 3460POPC   PO445240   5.292  25.042   5.370
 3460POPC   GL145241   5.275  25.342   5.726
 3460POPC   GL245242   5.487  25.179   5.905
 3460POPC   C1A45243   5.044  25.419   6.141
 3460POPC   D2A45244   4.917  25.162   6.552
 3460POPC   C3A45245   4.965  25.360   6.978
 3460POPC   C4A45246   4.844  25.588   7.330
 3460POPC   C1B45247   5.291  24.967   6.220
 3460POPC   C2B45248   5.424  24.837   6.594
 3460POPC   C3B45249   5.301  24.977   6.970
 3460POPC   C4B45250   5.284  24.827   7.364
 3461POPC   NC345251   1.787   3.786   5.545
 3461POPC   PO445252   2.019   3.242   5.499
 3461POPC   GL145253   1.823   3.181   5.888
 3461POPC   GL245254   1.681   3.490   5.960
 3461POPC   C1A45255   1.892   3.180   6.324
 3461POPC   D2A45256   1.929   3.464   6.675
 3461POPC   C3A45257   1.853   3.286   7.075
 3461POPC   C4A45258   2.003   3.264   7.500
 3461POPC   C1B45259   1.707   3.861   6.198
 3461POPC   C2B45260   1.621   3.892   6.606
 3461POPC   C3B45261   1.821   3.997   6.968
 3461POPC   C4B45262   1.846   3.728   7.336
 3462POPC   NC345263  30.126  10.025   5.271
 3462POPC   PO445264  29.459   9.749   5.347
 3462POPC   GL145265  29.745   9.778   5.731
 3462POPC   GL245266  30.081   9.606   5.664
 3462POPC   C1A45267  29.641   9.739   6.188
 3462POPC   D2A45268  29.603   9.805   6.630
 3462POPC   C3A45269  29.728   9.487   6.949
 3462POPC   C4A45270  29.845   9.769   7.295
 3462POPC   C1B45271  30.160   9.722   6.106
 3462POPC   C2B45272  30.062   9.589   6.546
 3462POPC   C3B45273  30.240   9.617   6.982
 3462POPC   C4B45274  30.258   9.545   7.442
 3463POPC   NC345275  33.496  12.683   5.635
 3463POPC   PO445276  34.007  12.950   5.247
 3463POPC   GL145277  33.998  12.917   5.781
 3463POPC   GL245278  33.702  12.957   5.971
 3463POPC   C1A45279  34.044  12.799   6.288
 3463POPC   D2A45280  34.095  12.867   6.756
 3463POPC   C3A45281  33.873  12.725   7.139
 3463POPC   C4A45282  33.860  13.016   7.496
 3463POPC   C1B45283  33.547  13.180   6.260
 3463POPC   C2B45284  33.585  13.007   6.646
 3463POPC   C3B45285  33.507  13.072   7.044
 3463POPC   C4B45286  33.387  12.845   7.386
 3464POPC   NC345287  10.357  31.913   5.487
 3464POPC   PO445288  10.387  32.575   5.588
 3464POPC   GL145289  10.659  32.248   5.771
 3464POPC   GL245290  10.374  32.140   5.954
 3464POPC   C1A45291  10.806  31.988   6.142
 3464POPC   D2A45292  10.637  32.097   6.560
 3464POPC   C3A45293  10.848  32.298   6.884
 3464POPC   C4A45294  10.677  32.092   7.215
 3464POPC   C1B45295  10.424  32.478   6.237
 3464POPC   C2B45296  10.220  32.434   6.597
 3464POPC   C3B45297  10.275  32.348   6.999
 3464POPC   C4B45298  10.527  32.585   7.273
 3465POPC   NC345299  14.500  20.906   5.530
 3465POPC   PO445300  14.334  20.264   5.568
 3465POPC   GL145301  14.487  20.559   5.949
 3465POPC   GL245302  14.679  20.893   5.992
 3465POPC   C1A45303  14.490  20.476   6.405
 3465POPC   D2A45304  14.127  20.380   6.703
 3465POPC   C3A45305  14.280  20.516   7.079
 3465POPC   C4A45306  14.713  20.591   7.127
 3465POPC   C1B45307  14.443  20.995   6.333
 3465POPC   C2B45308  14.435  20.888   6.731
 3465POPC   C3B45309  14.696  21.080   6.975
 3465POPC   C4B45310  14.932  21.024   7.301
 3466POPC   NC345311  18.917   3.071   5.349
 3466POPC   PO445312  18.982   2.449   5.193
 3466POPC   GL145313  18.952   2.483   5.694
 3466POPC   GL245314  18.921   2.839   5.796
 3466POPC   C1A45315  19.037   2.579   6.192
 3466POPC   D2A45316  19.207   2.815   6.558
 3466POPC   C3A45317  19.249   2.584   6.950
 3466POPC   C4A45318  18.924   2.594   7.205
 3466POPC   C1B45319  18.975   3.113   6.156
 3466POPC   C2B45320  18.818   3.147   6.577
 3466POPC   C3B45321  19.010   3.047   6.976
 3466POPC   C4B45322  19.327   3.024   7.268
 3467POPC   NC345323  32.071  33.344   5.066
 3467POPC   PO445324  32.317  32.857   5.434
 3467POPC   GL145325  32.343  33.182   5.781
 3467POPC   GL245326  32.635  32.978   5.931
 3467POPC   C1A45327  32.459  33.360   6.214
 3467POPC   D2A45328  32.318  33.216   6.623
 3467POPC   C3A45329  32.533  33.238   7.008
 3467POPC   C4A45330  32.307  33.149   7.376
 3467POPC   C1B45331  32.231  32.861   6.166
 3467POPC   C2B45332  31.959  32.871   6.545
 3467POPC   C3B45333  32.125  32.865   6.970
 3467POPC   C4B45334  31.890  32.813   7.339
 3468POPC   NC345335  26.770  18.978   5.458
 3468POPC   PO445336  27.298  19.321   5.726
 3468POPC   GL145337  27.011  19.067   5.905
 3468POPC   GL245338  27.250  18.823   5.927
 3468POPC   C1A45339  26.707  19.076   6.223
 3468POPC   D2A45340  26.507  19.247   6.608
 3468POPC   C3A45341  26.689  19.108   6.998
 3468POPC   C4A45342  26.959  19.232   7.338
 3468POPC   C1B45343  27.308  19.021   6.339
 3468POPC   C2B45344  27.076  18.973   6.703
 3468POPC   C3B45345  27.058  18.735   7.090
 3468POPC   C4B45346  27.060  18.778   7.532
 3469POPC   NC345347   3.939  44.281   5.568
 3469POPC   PO445348   4.349  43.754   5.418
 3469POPC   GL145349   4.456  43.937   5.801
 3469POPC   GL245350   4.116  43.867   5.874
 3469POPC   C1A45351   4.381  44.060   6.249
 3469POPC   D2A45352   4.514  44.028   6.658
 3469POPC   C3A45353   4.303  44.259   6.972
 3469POPC   C4A45354   4.523  44.129   7.322
 3469POPC   C1B45355   4.058  43.632   6.258
 3469POPC   C2B45356   4.043  43.788   6.694
 3469POPC   C3B45357   4.143  43.774   7.125
 3469POPC   C4B45358   4.062  44.015   7.511
 3470POPC   NC345359  31.432  42.914   5.121
 3470POPC   PO445360  31.647  43.441   5.453
 3470POPC   GL145361  31.454  43.275   5.831
 3470POPC   GL245362  31.255  43.016   5.644
 3470POPC   C1A45363  31.581  43.282   6.260
 3470POPC   D2A45364  31.845  42.994   6.505
 3470POPC   C3A45365  31.794  42.950   6.977
 3470POPC   C4A45366  31.436  43.136   7.251
 3470POPC   C1B45367  31.132  42.941   6.080
 3470POPC   C2B45368  31.149  42.780   6.512
 3470POPC   C3B45369  31.320  42.718   6.922
 3470POPC   C4B45370  31.093  42.769   7.288
 3471POPC   NC345371  39.516  22.412   5.417
 3471POPC   PO445372  39.097  21.896   5.457
 3471POPC   GL145373  39.293  22.103   5.770
 3471POPC   GL245374  38.998  22.304   5.842
 3471POPC   C1A45375  39.411  22.132   6.203
 3471POPC   D2A45376  39.188  22.151   6.592
 3471POPC   C3A45377  39.394  22.275   6.943
 3471POPC   C4A45378  39.376  22.107   7.340
 3471POPC   C1B45379  39.058  22.507   6.242
 3471POPC   C2B45380  39.183  22.657   6.660
 3471POPC   C3B45381  38.956  22.492   7.039
 3471POPC   C4B45382  38.846  22.635   7.467
 3472POPC   NC345383   7.820  27.378   5.475
 3472POPC   PO445384   8.021  28.037   5.616
 3472POPC   GL145385   8.096  27.625   5.851
 3472POPC   GL245386   8.430  27.473   5.778
 3472POPC   C1A45387   8.009  27.335   6.214
 3472POPC   D2A45388   7.990  27.497   6.667
 3472POPC   C3A45389   8.016  27.460   7.145
 3472POPC   C4A45390   7.991  27.744   7.538
 3472POPC   C1B45391   8.506  27.321   6.188
 3472POPC   C2B45392   8.533  27.564   6.561
 3472POPC   C3B45393   8.509  27.602   6.991
 3472POPC   C4B45394   8.490  27.653   7.431
 3473POPC   NC345395   3.291  12.171   5.528
 3473POPC   PO445396   2.608  12.056   5.520
 3473POPC   GL145397   2.708  11.977   5.927
 3473POPC   GL245398   3.065  11.996   5.945
 3473POPC   C1A45399   2.611  12.044   6.357
 3473POPC   D2A45400   2.740  11.830   6.734
 3473POPC   C3A45401   2.572  11.990   7.130
 3473POPC   C4A45402   2.747  11.907   7.549
 3473POPC   C1B45403   3.080  11.770   6.328
 3473POPC   C2B45404   3.271  11.887   6.724
 3473POPC   C3B45405   3.083  12.043   7.098
 3473POPC   C4B45406   2.988  11.639   7.153
 3474POPC   NC345407   8.569   6.044   5.405
 3474POPC   PO445408   8.094   5.594   5.511
 3474POPC   GL145409   8.279   5.899   5.797
 3474POPC   GL245410   8.374   5.645   6.040
 3474POPC   C1A45411   8.290   6.137   6.193
 3474POPC   D2A45412   8.325   5.828   6.524
 3474POPC   C3A45413   8.496   5.871   6.928
 3474POPC   C4A45414   8.391   6.091   7.264
 3474POPC   C1B45415   7.935   5.768   6.150
 3474POPC   C2B45416   7.787   5.748   6.552
 3474POPC   C3B45417   7.988   5.723   6.911
 3474POPC   C4B45418   7.892   5.878   7.301
 3475POPC   NC345419  23.964   4.216   5.474
 3475POPC   PO445420  23.269   4.491   5.424
 3475POPC   GL145421  23.551   4.473   5.774
 3475POPC   GL245422  23.583   4.111   5.828
 3475POPC   C1A45423  23.454   4.500   6.235
 3475POPC   D2A45424  23.652   4.469   6.663
 3475POPC   C3A45425  23.392   4.453   7.043
 3475POPC   C4A45426  23.556   4.086   7.271
 3475POPC   C1B45427  23.916   4.254   6.134
 3475POPC   C2B45428  24.108   4.169   6.536
 3475POPC   C3B45429  24.001   4.145   6.976
 3475POPC   C4B45430  23.890   4.503   7.145
 3476POPC   NC345431  20.162  16.156   5.232
 3476POPC   PO445432  19.487  16.032   5.556
 3476POPC   GL145433  19.767  16.050   5.887
 3476POPC   GL245434  20.098  16.060   5.726
 3476POPC   C1A45435  19.722  16.036   6.314
 3476POPC   D2A45436  19.709  15.740   6.644
 3476POPC   C3A45437  20.045  15.782   6.899
 3476POPC   C4A45438  19.752  15.841   7.211
 3476POPC   C1B45439  20.212  16.150   6.143
 3476POPC   C2B45440  20.149  16.194   6.582
 3476POPC   C3B45441  19.846  16.356   6.887
 3476POPC   C4B45442  19.655  16.327   7.303
 3477POPC   NC345443  33.376  20.497   5.445
 3477POPC   PO445444  32.703  20.583   5.423
 3477POPC   GL145445  32.991  20.623   5.810
 3477POPC   GL245446  33.301  20.812   5.862
 3477POPC   C1A45447  33.031  20.362   6.198
 3477POPC   D2A45448  32.846  20.168   6.579
 3477POPC   C3A45449  32.775  20.276   7.022
 3477POPC   C4A45450  32.834  20.581   7.338
 3477POPC   C1B45451  33.146  20.827   6.312
 3477POPC   C2B45452  33.066  20.654   6.725
 3477POPC   C3B45453  33.287  20.727   7.113
 3477POPC   C4B45454  33.278  20.736   7.567
 3478POPC   NC345455  38.078  18.550   5.432
 3478POPC   PO445456  37.597  19.042   5.386
 3478POPC   GL145457  37.679  19.083   5.798
 3478POPC   GL245458  37.914  18.807   5.868
 3478POPC   C1A45459  37.497  19.249   6.160
 3478POPC   D2A45460  37.542  19.092   6.559
 3478POPC   C3A45461  37.647  19.346   6.885
 3478POPC   C4A45462  37.664  19.180   7.303
 3478POPC   C1B45463  38.029  19.131   6.176
 3478POPC   C2B45464  38.117  19.130   6.613
 3478POPC   C3B45465  38.083  19.039   7.041
 3478POPC   C4B45466  38.183  19.151   7.467
 3479POPC   NC345467  10.023   7.888   5.639
 3479POPC   PO445468   9.648   8.369   5.459
 3479POPC   GL145469   9.703   8.273   5.809
 3479POPC   GL245470   9.513   7.936   5.772
 3479POPC   C1A45471   9.851   8.452   6.180
 3479POPC   D2A45472   9.673   8.422   6.585
 3479POPC   C3A45473   9.903   8.247   6.917
 3479POPC   C4A45474   9.790   8.412   7.278
 3479POPC   C1B45475   9.613   7.996   6.208
 3479POPC   C2B45476   9.625   7.901   6.608
 3479POPC   C3B45477   9.377   8.066   6.897
 3479POPC   C4B45478   9.575   7.963   7.221
 3480POPC   NC345479  25.248  27.676   5.509
 3480POPC   PO445480  24.847  27.065   5.595
 3480POPC   GL145481  24.944  27.441   5.861
 3480POPC   GL245482  25.322  27.445   5.953
 3480POPC   C1A45483  24.996  27.775   6.183
 3480POPC   D2A45484  25.144  27.759   6.602
 3480POPC   C3A45485  25.036  27.412   6.816
 3480POPC   C4A45486  25.080  27.299   7.200
 3480POPC   C1B45487  25.586  27.569   6.280
 3480POPC   C2B45488  25.567  27.500   6.706
 3480POPC   C3B45489  25.409  27.668   7.095
 3480POPC   C4B45490  25.558  27.889   7.444
 3481POPC   NC345491  24.522   2.962   5.491
 3481POPC   PO445492  24.826   3.505   5.407
 3481POPC   GL145493  24.641   3.496   5.835
 3481POPC   GL245494  24.665   3.138   5.955
 3481POPC   C1A45495  24.576   3.467   6.302
 3481POPC   D2A45496  24.711   3.305   6.714
 3481POPC   C3A45497  24.909   3.652   6.876
 3481POPC   C4A45498  24.964   3.822   7.255
 3481POPC   C1B45499  24.420   2.999   6.384
 3481POPC   C2B45500  24.210   3.292   6.686
 3481POPC   C3B45501  24.249   3.296   7.115
 3481POPC   C4B45502  24.653   3.389   7.275
 3482POPC   NC345503  17.300  30.403   5.497
 3482POPC   PO445504  17.732  30.872   5.339
 3482POPC   GL145505  17.472  30.841   5.784
 3482POPC   GL245506  17.404  30.534   5.976
 3482POPC   C1A45507  17.336  30.906   6.275
 3482POPC   D2A45508  17.411  30.499   6.557
 3482POPC   C3A45509  17.411  30.635   7.009
 3482POPC   C4A45510  17.310  30.882   7.367
 3482POPC   C1B45511  17.791  30.652   6.240
 3482POPC   C2B45512  17.847  30.722   6.727
 3482POPC   C3B45513  17.875  30.483   7.157
 3482POPC   C4B45514  17.790  30.654   7.597
 3483POPC   NC345515  30.994  42.139   5.388
 3483POPC   PO445516  30.427  42.324   5.296
 3483POPC   GL145517  30.636  42.369   5.688
 3483POPC   GL245518  30.843  42.670   5.675
 3483POPC   C1A45519  30.632  42.179   6.117
 3483POPC   D2A45520  30.787  41.966   6.496
 3483POPC   C3A45521  30.692  42.075   6.933
 3483POPC   C4A45522  30.705  41.992   7.415
 3483POPC   C1B45523  30.681  42.685   6.105
 3483POPC   C2B45524  30.692  42.497   6.511
 3483POPC   C3B45525  30.812  42.595   6.896
 3483POPC   C4B45526  30.694  42.468   7.272
 3484POPC   NC345527  32.913  24.795   5.564
 3484POPC   PO445528  32.970  24.078   5.651
 3484POPC   GL145529  32.847  24.358   5.932
 3484POPC   GL245530  33.160  24.519   5.916
 3484POPC   C1A45531  32.968  24.338   6.384
 3484POPC   D2A45532  33.115  24.274   6.811
 3484POPC   C3A45533  32.887  24.487   7.150
 3484POPC   C4A45534  32.706  24.930   7.168
 3484POPC   C1B45535  33.345  24.666   6.281
 3484POPC   C2B45536  33.178  24.782   6.641
 3484POPC   C3B45537  33.355  24.742   7.011
 3484POPC   C4B45538  33.427  24.402   7.212
 3485POPC   NC345539  18.063  31.948   5.355
 3485POPC   PO445540  18.383  32.470   5.394
 3485POPC   GL145541  18.282  32.294   5.732
 3485POPC   GL245542  18.109  32.613   5.823
 3485POPC   C1A45543  18.386  32.013   6.055
 3485POPC   D2A45544  18.186  31.909   6.448
 3485POPC   C3A45545  18.369  31.915   6.834
 3485POPC   C4A45546  18.481  32.134   7.242
 3485POPC   C1B45547  18.124  32.409   6.236
 3485POPC   C2B45548  18.336  32.384   6.633
 3485POPC   C3B45549  18.464  32.592   7.005
 3485POPC   C4B45550  18.442  32.625   7.434
 3486POPC   NC345551  13.303   6.123   5.355
 3486POPC   PO445552  12.767   5.689   5.157
 3486POPC   GL145553  12.793   5.893   5.596
 3486POPC   GL245554  13.133   5.815   5.739
 3486POPC   C1A45555  12.802   6.026   6.050
 3486POPC   D2A45556  12.891   5.826   6.452
 3486POPC   C3A45557  12.941   6.020   6.864
 3486POPC   C4A45558  12.881   5.878   7.290
 3486POPC   C1B45559  13.216   5.559   6.104
 3486POPC   C2B45560  13.302   5.531   6.539
 3486POPC   C3B45561  13.014   5.531   6.897
 3486POPC   C4B45562  13.175   5.472   7.272
 3487POPC   NC345563  20.297  37.680   5.480
 3487POPC   PO445564  19.662  37.404   5.504
 3487POPC   GL145565  19.799  37.549   5.872
 3487POPC   GL245566  20.146  37.460   5.908
 3487POPC   C1A45567  19.676  37.714   6.271
 3487POPC   D2A45568  19.788  37.959   6.627
 3487POPC   C3A45569  19.637  37.763   6.998
 3487POPC   C4A45570  19.663  37.841   7.416
 3487POPC   C1B45571  20.192  37.766   6.186
 3487POPC   C2B45572  20.327  37.684   6.566
 3487POPC   C3B45573  20.163  37.760   6.946
 3487POPC   C4B45574  20.329  37.620   7.308
 3488POPC   NC345575   2.613  28.078   5.416
 3488POPC   PO445576   3.132  28.338   5.375
 3488POPC   GL145577   2.862  28.411   5.745
 3488POPC   GL245578   2.854  28.768   5.727
 3488POPC   C1A45579   2.757  28.354   6.198
 3488POPC   D2A45580   2.945  28.258   6.601
 3488POPC   C3A45581   2.755  28.269   7.005
 3488POPC   C4A45582   2.898  28.157   7.399
 3488POPC   C1B45583   2.986  28.816   6.140
 3488POPC   C2B45584   2.827  28.839   6.549
 3488POPC   C3B45585   2.907  28.833   6.950
 3488POPC   C4B45586   2.851  28.654   7.328
 3489POPC   NC345587  33.401  34.745   5.615
 3489POPC   PO445588  32.709  34.492   5.506
 3489POPC   GL145589  32.915  34.673   5.833
 3489POPC   GL245590  33.185  34.437   5.951
 3489POPC   C1A45591  32.983  34.817   6.240
 3489POPC   D2A45592  33.101  34.829   6.669
 3489POPC   C3A45593  32.703  34.805   6.874
 3489POPC   C4A45594  32.632  34.624   7.262
 3489POPC   C1B45595  32.991  34.298   6.339
 3489POPC   C2B45596  32.920  34.360   6.805
 3489POPC   C3B45597  33.146  34.555   7.169
 3489POPC   C4B45598  33.501  34.860   7.259
 3490POPC   NC345599   2.249  14.977   5.409
 3490POPC   PO445600   1.788  15.381   5.632
 3490POPC   GL145601   2.036  15.129   5.867
 3490POPC   GL245602   2.411  15.169   5.857
 3490POPC   C1A45603   1.939  15.090   6.284
 3490POPC   D2A45604   1.767  15.339   6.585
 3490POPC   C3A45605   1.835  15.158   7.005
 3490POPC   C4A45606   1.895  15.261   7.439
 3490POPC   C1B45607   2.448  15.046   6.299
 3490POPC   C2B45608   2.252  15.139   6.718
 3490POPC   C3B45609   2.323  15.283   7.160
 3490POPC   C4B45610   2.358  15.113   7.601
 3491POPC   NC345611   2.264   5.450   5.456
 3491POPC   PO445612   1.903   4.935   5.311
 3491POPC   GL145613   2.128   5.011   5.727
 3491POPC   GL245614   1.992   5.287   5.848
 3491POPC   C1A45615   2.212   5.016   6.200
 3491POPC   D2A45616   2.017   5.275   6.542
 3491POPC   C3A45617   2.051   5.077   6.947
 3491POPC   C4A45618   1.875   5.011   7.349
 3491POPC   C1B45619   2.252   5.533   6.156
 3491POPC   C2B45620   2.453   5.583   6.571
 3491POPC   C3B45621   2.213   5.593   6.941
 3491POPC   C4B45622   2.178   5.405   7.324
 3492POPC   NC345623  33.010   0.203   5.513
 3492POPC   PO445624  33.227   0.791   5.563
 3492POPC   GL145625  32.905   0.574   5.876
 3492POPC   GL245626  32.687   0.261   5.890
 3492POPC   C1A45627  32.905   0.429   6.337
 3492POPC   D2A45628  33.281   0.379   6.615
 3492POPC   C3A45629  33.234   0.661   6.968
 3492POPC   C4A45630  33.190   0.794   7.371
 3492POPC   C1B45631  33.006  44.975   6.154
 3492POPC   C2B45632  32.973  44.956   6.591
 3492POPC   C3B45633  32.832   0.292   6.869
 3492POPC   C4B45634  32.930   0.363   7.305
 3493POPC   NC345635  31.839  44.184   5.267
 3493POPC   PO445636  32.412  43.895   5.493
 3493POPC   GL145637  32.322  43.817   5.899
 3493POPC   GL245638  32.477  43.491   5.856
 3493POPC   C1A45639  32.378  44.067   6.249
 3493POPC   D2A45640  32.581  44.053   6.612
 3493POPC   C3A45641  32.264  44.070   6.933
 3493POPC   C4A45642  32.089  43.760   7.176
 3493POPC   C1B45643  32.700  43.628   6.190
 3493POPC   C2B45644  32.552  43.498   6.543
 3493POPC   C3B45645  32.539  43.649   6.931
 3493POPC   C4B45646  32.556  43.596   7.338
 3494POPC   NC345647  18.890  20.081   5.455
 3494POPC   PO445648  19.185  19.479   5.637
 3494POPC   GL145649  18.946  19.699   5.872
 3494POPC   GL245650  19.138  20.033   5.884
 3494POPC   C1A45651  18.897  19.800   6.297
 3494POPC   D2A45652  19.245  19.819   6.579
 3494POPC   C3A45653  19.224  19.494   6.846
 3494POPC   C4A45654  19.253  19.532   7.257
 3494POPC   C1B45655  19.156  20.243   6.273
 3494POPC   C2B45656  18.872  20.161   6.663
 3494POPC   C3B45657  18.921  19.884   7.034
 3494POPC   C4B45658  19.156  19.994   7.433
 3495POPC   NC345659  10.316  11.742   5.539
 3495POPC   PO445660  10.857  12.194   5.420
 3495POPC   GL145661  10.752  11.945   5.796
 3495POPC   GL245662  10.423  12.013   5.956
 3495POPC   C1A45663  10.845  11.834   6.221
 3495POPC   D2A45664  10.580  12.108   6.490
 3495POPC   C3A45665  10.639  12.233   6.885
 3495POPC   C4A45666  10.409  12.186   7.265
 3495POPC   C1B45667  10.361  11.710   6.263
 3495POPC   C2B45668  10.567  11.614   6.643
 3495POPC   C3B45669  10.446  11.758   7.001
 3495POPC   C4B45670  10.490  11.709   7.430
 3496POPC   NC345671   6.235  43.101   5.620
 3496POPC   PO445672   5.606  43.413   5.484
 3496POPC   GL145673   5.744  43.136   5.775
 3496POPC   GL245674   5.461  43.250   5.962
 3496POPC   C1A45675   5.914  43.080   6.189
 3496POPC   D2A45676   5.915  43.204   6.600
 3496POPC   C3A45677   6.084  42.948   6.920
 3496POPC   C4A45678   5.966  43.188   7.243
 3496POPC   C1B45679   5.461  42.840   6.108
 3496POPC   C2B45680   5.614  42.756   6.517
 3496POPC   C3B45681   5.552  42.957   6.928
 3496POPC   C4B45682   5.476  43.125   7.360
 3497POPC   NC345683  18.084  30.523   5.237
 3497POPC   PO445684  18.469  30.914   5.558
 3497POPC   GL145685  18.317  30.753   5.938
 3497POPC   GL245686  18.118  30.481   5.790
 3497POPC   C1A45687  18.590  30.643   6.303
 3497POPC   D2A45688  18.567  30.683   6.727
 3497POPC   C3A45689  18.285  30.942   6.897
 3497POPC   C4A45690  18.283  30.807   7.280
 3497POPC   C1B45691  18.205  30.311   6.218
 3497POPC   C2B45692  18.146  30.317   6.680
 3497POPC   C3B45693  18.363  30.338   7.095
 3497POPC   C4B45694  18.216  30.383   7.549
 3498POPC   NC345695  17.024  42.354   5.460
 3498POPC   PO445696  16.449  42.662   5.627
 3498POPC   GL145697  16.747  42.381   5.901
 3498POPC   GL245698  16.625  42.009   6.011
 3498POPC   C1A45699  16.948  42.258   6.293
 3498POPC   D2A45700  16.727  42.103   6.647
 3498POPC   C3A45701  16.782  42.323   7.048
 3498POPC   C4A45702  17.102  42.647   7.141
 3498POPC   C1B45703  16.367  42.209   6.259
 3498POPC   C2B45704  16.204  42.057   6.636
 3498POPC   C3B45705  16.389  41.982   7.024
 3498POPC   C4B45706  16.370  42.192   7.405
 3499POPC   NC345707  40.463  25.519   5.243
 3499POPC   PO445708  40.899  24.990   5.384
 3499POPC   GL145709  40.842  25.236   5.788
 3499POPC   GL245710  40.577  25.524   5.798
 3499POPC   C1A45711  40.929  25.105   6.214
 3499POPC   D2A45712  41.021  25.387   6.542
 3499POPC   C3A45713  40.940  25.262   6.950
 3499POPC   C4A45714  40.923  25.474   7.360
 3499POPC   C1B45715  40.601  25.520   6.270
 3499POPC   C2B45716  40.516  25.287   6.655
 3499POPC   C3B45717  40.404  25.312   7.104
 3499POPC   C4B45718  40.470  25.211   7.574
 3500POPC   NC345719  38.130  24.508   5.602
 3500POPC   PO445720  37.612  24.771   5.477
 3500POPC   GL145721  37.741  24.730   5.846
 3500POPC   GL245722  37.639  24.374   5.863
 3500POPC   C1A45723  37.710  24.752   6.249
 3500POPC   D2A45724  37.818  24.612   6.641
 3500POPC   C3A45725  37.634  24.811   6.992
 3500POPC   C4A45726  37.944  24.656   7.256
 3500POPC   C1B45727  37.550  24.280   6.307
 3500POPC   C2B45728  37.435  24.247   6.698
 3500POPC   C3B45729  37.665  24.277   7.028
 3500POPC   C4B45730  37.466  24.462   7.352
 3501POPC   NC345731  28.365   4.469   5.330
 3501POPC   PO445732  28.139   3.792   5.306
 3501POPC   GL145733  28.282   4.118   5.695
 3501POPC   GL245734  28.192   4.466   5.821
 3501POPC   C1A45735  28.522   4.205   6.111
 3501POPC   D2A45736  28.685   4.030   6.523
 3501POPC   C3A45737  28.431   4.033   6.895
 3501POPC   C4A45738  28.394   4.348   7.215
 3501POPC   C1B45739  28.121   4.529   6.298
 3501POPC   C2B45740  28.103   4.434   6.762
 3501POPC   C3B45741  28.032   4.681   7.153
 3501POPC   C4B45742  28.101   4.543   7.598
 3502POPC   NC345743   8.316  33.175   5.402
 3502POPC   PO445744   8.011  32.562   5.382
 3502POPC   GL145745   8.176  32.735   5.792
 3502POPC   GL245746   8.318  33.049   5.877
 3502POPC   C1A45747   8.154  32.747   6.258
 3502POPC   D2A45748   8.206  32.563   6.667
 3502POPC   C3A45749   7.985  32.841   6.894
 3502POPC   C4A45750   7.798  32.850   7.268
 3502POPC   C1B45751   8.523  33.179   6.229
 3502POPC   C2B45752   8.509  33.021   6.626
 3502POPC   C3B45753   8.484  32.846   7.016
 3502POPC   C4B45754   8.276  32.942   7.376
 3503POPC   NC345755  27.205  28.575   5.500
 3503POPC   PO445756  27.583  28.013   5.300
 3503POPC   GL145757  27.719  28.304   5.723
 3503POPC   GL245758  27.452  28.489   5.949
 3503POPC   C1A45759  27.821  28.222   6.184
 3503POPC   D2A45760  27.538  28.355   6.522
 3503POPC   C3A45761  27.671  28.355   6.947
 3503POPC   C4A45762  27.573  28.393   7.349
 3503POPC   C1B45763  27.190  28.681   6.237
 3503POPC   C2B45764  27.141  28.655   6.677
 3503POPC   C3B45765  27.320  28.764   7.091
 3503POPC   C4B45766  27.193  28.708   7.542
 3504POPC   NC345767  44.949  14.467   5.372
 3504POPC   PO445768   0.522  14.106   5.508
 3504POPC   GL145769   0.386  14.372   5.812
 3504POPC   GL245770   0.069  14.257   5.829
 3504POPC   C1A45771   0.568  14.483   6.214
 3504POPC   D2A45772   0.404  14.296   6.579
 3504POPC   C3A45773   0.582  14.392   6.990
 3504POPC   C4A45774   0.789  14.167   7.346
 3504POPC   C1B45775   0.081  14.658   6.107
 3504POPC   C2B45776   0.106  14.748   6.565
 3504POPC   C3B45777   0.027  14.448   6.898
 3504POPC   C4B45778   0.164  14.368   7.289
 3505POPC   NC345779  35.398  36.901   5.440
 3505POPC   PO445780  34.929  36.592   5.854
 3505POPC   GL145781  35.279  36.847   5.986
 3505POPC   GL245782  35.645  36.827   5.882
 3505POPC   C1A45783  35.287  36.782   6.430
 3505POPC   D2A45784  35.078  36.606   6.740
 3505POPC   C3A45785  35.224  36.778   7.091
 3505POPC   C4A45786  34.909  37.086   7.177
 3505POPC   C1B45787  35.709  37.009   6.320
 3505POPC   C2B45788  35.597  37.033   6.790
 3505POPC   C3B45789  35.651  37.001   7.250
 3505POPC   C4B45790  35.593  36.810   7.660
 3506POPC   NC345791   9.583  42.660   5.187
 3506POPC   PO445792  10.043  42.181   5.373
 3506POPC   GL145793   9.725  42.260   5.721
 3506POPC   GL245794   9.660  42.591   5.873
 3506POPC   C1A45795   9.682  42.103   6.162
 3506POPC   D2A45796   9.941  41.996   6.541
 3506POPC   C3A45797   9.844  42.269   6.896
 3506POPC   C4A45798  10.173  42.527   7.069
 3506POPC   C1B45799   9.348  42.509   6.230
 3506POPC   C2B45800   9.344  42.378   6.656
 3506POPC   C3B45801   9.511  42.714   6.911
 3506POPC   C4B45802   9.710  42.621   7.262
 3507POPC   NC345803  33.352  13.672   5.666
 3507POPC   PO445804  32.914  13.454   5.162
 3507POPC   GL145805  32.861  13.574   5.626
 3507POPC   GL245806  32.783  13.283   5.810
 3507POPC   C1A45807  32.820  13.788   6.053
 3507POPC   D2A45808  33.009  13.918   6.478
 3507POPC   C3A45809  32.811  13.778   6.867
 3507POPC   C4A45810  32.885  13.796   7.296
 3507POPC   C1B45811  33.024  13.356   6.233
 3507POPC   C2B45812  33.334  13.520   6.572
 3507POPC   C3B45813  33.282  13.578   7.007
 3507POPC   C4B45814  33.087  13.292   7.266
 3508POPC   NC345815   3.701  34.333   5.399
 3508POPC   PO445816   3.446  34.942   5.461
 3508POPC   GL145817   3.450  34.699   5.808
 3508POPC   GL245818   3.785  34.674   5.780
 3508POPC   C1A45819   3.544  34.722   6.259
 3508POPC   D2A45820   3.439  34.808   6.698
 3508POPC   C3A45821   3.323  34.464   6.968
 3508POPC   C4A45822   3.456  34.487   7.409
 3508POPC   C1B45823   3.897  34.386   6.094
 3508POPC   C2B45824   3.796  34.340   6.517
 3508POPC   C3B45825   3.826  34.495   6.928
 3508POPC   C4B45826   3.946  34.296   7.281
 3509POPC   NC345827  25.461  25.240   5.196
 3509POPC   PO445828  26.085  25.245   5.383
 3509POPC   GL145829  26.037  25.117   5.814
 3509POPC   GL245830  26.249  24.813   5.862
 3509POPC   C1A45831  25.927  25.396   6.175
 3509POPC   D2A45832  26.086  25.678   6.499
 3509POPC   C3A45833  25.955  25.685   6.919
 3509POPC   C4A45834  26.226  25.537   7.242
 3509POPC   C1B45835  26.211  24.983   6.292
 3509POPC   C2B45836  25.889  25.062   6.599
 3509POPC   C3B45837  25.887  24.845   6.989
 3509POPC   C4B45838  26.237  24.659   7.185
 3510POPC   NC345839   0.937   0.000   5.435
 3510POPC   PO445840   1.030  44.390   5.673
 3510POPC   GL145841   1.129  44.785   5.868
 3510POPC   GL245842   0.900   0.041   5.960
 3510POPC   C1A45843   1.294  44.717   6.262
 3510POPC   D2A45844   1.395  44.348   6.499
 3510POPC   C3A45845   1.399  44.476   6.909
 3510POPC   C4A45846   1.208  44.359   7.276
 3510POPC   C1B45847   0.924   0.037   6.409
 3510POPC   C2B45848   1.202  44.943   6.727
 3510POPC   C3B45849   1.042  44.808   7.097
 3510POPC   C4B45850   0.709  44.991   7.258
 3511POPC   NC345851  10.843  37.550   5.421
 3511POPC   PO445852  10.254  37.413   5.519
 3511POPC   GL145853  10.525  37.703   5.796
 3511POPC   GL245854  10.906  37.798   5.873
 3511POPC   C1A45855  10.518  37.792   6.218
 3511POPC   D2A45856  10.415  37.849   6.646
 3511POPC   C3A45857  10.225  37.526   6.918
 3511POPC   C4A45858  10.199  37.574   7.392
 3511POPC   C1B45859  10.988  37.588   6.303
 3511POPC   C2B45860  10.877  37.681   6.763
 3511POPC   C3B45861  10.636  37.758   7.164
 3511POPC   C4B45862  10.739  37.749   7.624
 3512POPC   NC345863  11.512  16.606   5.473
 3512POPC   PO445864  11.090  17.134   5.248
 3512POPC   GL145865  11.128  16.963   5.720
 3512POPC   GL245866  11.477  16.872   5.890
 3512POPC   C1A45867  11.073  16.793   6.182
 3512POPC   D2A45868  11.335  16.794   6.592
 3512POPC   C3A45869  11.173  16.729   7.041
 3512POPC   C4A45870  10.919  17.037   7.273
 3512POPC   C1B45871  11.650  16.555   6.166
 3512POPC   C2B45872  11.787  16.560   6.586
 3512POPC   C3B45873  11.701  16.750   6.976
 3512POPC   C4B45874  11.591  16.486   7.302
 3513POPC   NC345875  36.593  37.422   5.563
 3513POPC   PO445876  36.836  36.776   5.425
 3513POPC   GL145877  37.036  36.831   5.805
 3513POPC   GL245878  36.950  37.180   5.832
 3513POPC   C1A45879  37.189  36.671   6.191
 3513POPC   D2A45880  37.103  36.799   6.612
 3513POPC   C3A45881  36.884  36.567   6.922
 3513POPC   C4A45882  37.037  36.786   7.267
 3513POPC   C1B45883  36.891  37.437   6.183
 3513POPC   C2B45884  36.855  37.263   6.569
 3513POPC   C3B45885  37.079  37.233   6.921
 3513POPC   C4B45886  36.941  37.350   7.283
 3514POPC   NC345887  28.499  28.881   5.435
 3514POPC   PO445888  28.116  29.387   5.459
 3514POPC   GL145889  28.201  29.160   5.807
 3514POPC   GL245890  27.951  29.220   6.013
 3514POPC   C1A45891  28.472  29.045   6.144
 3514POPC   D2A45892  28.558  28.874   6.542
 3514POPC   C3A45893  28.320  28.860   6.903
 3514POPC   C4A45894  28.432  29.022   7.284
 3514POPC   C1B45895  28.055  29.117   6.423
 3514POPC   C2B45896  28.298  29.309   6.681
 3514POPC   C3B45897  28.205  29.409   7.059
 3514POPC   C4B45898  27.982  29.302   7.439
 3515POPC   NC345899  18.504  40.022   5.532
 3515POPC   PO445900  18.010  40.455   5.417
 3515POPC   GL145901  18.084  40.192   5.800
 3515POPC   GL245902  17.836  40.057   5.991
 3515POPC   C1A45903  18.333  40.052   6.175
 3515POPC   D2A45904  18.623  40.177   6.517
 3515POPC   C3A45905  18.568  39.964   6.920
 3515POPC   C4A45906  18.284  39.733   7.186
 3515POPC   C1B45907  17.892  40.076   6.443
 3515POPC   C2B45908  18.121  40.232   6.797
 3515POPC   C3B45909  18.082  40.222   7.221
 3515POPC   C4B45910  18.183  40.051   7.608
 3516POPC   NC345911   3.988  25.191   5.379
 3516POPC   PO445912   4.492  25.643   5.384
 3516POPC   GL145913   4.373  25.660   5.812
 3516POPC   GL245914   4.033  25.585   5.810
 3516POPC   C1A45915   4.532  25.525   6.227
 3516POPC   D2A45916   4.573  25.552   6.677
 3516POPC   C3A45917   4.506  25.160   6.913
 3516POPC   C4A45918   4.421  25.304   7.302
 3516POPC   C1B45919   4.076  25.287   6.108
 3516POPC   C2B45920   4.138  25.308   6.548
 3516POPC   C3B45921   4.037  25.360   6.987
 3516POPC   C4B45922   3.974  25.021   7.281
 3517POPC   NC345923  18.611   9.244   5.462
 3517POPC   PO445924  18.129   8.678   5.418
 3517POPC   GL145925  18.053   8.758   5.824
 3517POPC   GL245926  18.080   9.114   5.765
 3517POPC   C1A45927  18.309   8.859   6.172
 3517POPC   D2A45928  18.271   8.700   6.550
 3517POPC   C3A45929  18.589   8.715   6.863
 3517POPC   C4A45930  18.423   8.875   7.251
 3517POPC   C1B45931  18.034   9.282   6.183
 3517POPC   C2B45932  18.050   9.160   6.611
 3517POPC   C3B45933  18.212   9.277   6.999
 3517POPC   C4B45934  18.062   9.548   7.278
 3518POPC   NC345935  33.899  39.870   5.392
 3518POPC   PO445936  33.525  40.467   5.508
 3518POPC   GL145937  33.694  40.102   5.783
 3518POPC   GL245938  33.480  39.776   5.837
 3518POPC   C1A45939  33.932  39.785   6.054
 3518POPC   D2A45940  33.899  39.683   6.501
 3518POPC   C3A45941  33.888  39.926   6.893
 3518POPC   C4A45942  33.696  39.813   7.290
 3518POPC   C1B45943  33.526  39.987   6.266
 3518POPC   C2B45944  33.277  40.104   6.603
 3518POPC   C3B45945  33.438  40.130   6.982
 3518POPC   C4B45946  33.419  40.329   7.346
 3519POPC   NC345947  28.040  43.290   5.080
 3519POPC   PO445948  28.320  42.944   5.572
 3519POPC   GL145949  28.278  43.046   5.946
 3519POPC   GL245950  28.078  43.333   5.909
 3519POPC   C1A45951  28.436  43.106   6.339
 3519POPC   D2A45952  28.247  43.205   6.701
 3519POPC   C3A45953  28.378  43.089   7.092
 3519POPC   C4A45954  28.393  43.096   7.540
 3519POPC   C1B45955  27.913  43.308   6.306
 3519POPC   C2B45956  27.795  43.432   6.697
 3519POPC   C3B45957  27.986  43.396   7.093
 3519POPC   C4B45958  27.997  43.419   7.533
 3520POPC   NC345959  22.614  19.195   5.039
 3520POPC   PO445960  23.115  18.772   5.361
 3520POPC   GL145961  22.937  18.910   5.738
 3520POPC   GL245962  22.809  19.278   5.747
 3520POPC   C1A45963  23.070  18.727   6.140
 3520POPC   D2A45964  23.066  18.886   6.547
 3520POPC   C3A45965  23.086  18.633   6.915
 3520POPC   C4A45966  23.072  18.711   7.324
 3520POPC   C1B45967  22.668  19.059   6.148
 3520POPC   C2B45968  22.570  19.148   6.562
 3520POPC   C3B45969  22.779  19.072   6.964
 3520POPC   C4B45970  22.693  19.183   7.377
 3521POPC   NC345971  38.323  40.120   5.488
 3521POPC   PO445972  38.996  40.228   5.498
 3521POPC   GL145973  38.712  40.092   5.885
 3521POPC   GL245974  38.361  39.912   5.953
 3521POPC   C1A45975  38.490  40.255   6.271
 3521POPC   D2A45976  38.293  40.033   6.578
 3521POPC   C3A45977  38.519  39.969   6.933
 3521POPC   C4A45978  38.337  40.041   7.340
 3521POPC   C1B45979  38.561  39.647   6.238
 3521POPC   C2B45980  38.452  39.436   6.605
 3521POPC   C3B45981  38.223  39.578   6.909
 3521POPC   C4B45982  38.416  39.556   7.293
 3522POPC   NC345983  30.433  33.979   5.541
 3522POPC   PO445984  31.077  34.157   5.457
 3522POPC   GL145985  30.860  33.987   5.814
 3522POPC   GL245986  30.813  33.638   5.808
 3522POPC   C1A45987  30.564  33.882   6.188
 3522POPC   D2A45988  30.656  33.561   6.508
 3522POPC   C3A45989  30.616  33.735   6.931
 3522POPC   C4A45990  30.490  33.508   7.304
 3522POPC   C1B45991  31.055  33.744   6.200
 3522POPC   C2B45992  30.998  33.931   6.588
 3522POPC   C3B45993  31.156  33.855   6.971
 3522POPC   C4B45994  30.972  33.675   7.314
 3523POPC   NC345995  19.510  21.811   5.603
 3523POPC   PO445996  19.060  21.365   5.314
 3523POPC   GL145997  18.924  21.313   5.749
 3523POPC   GL245998  19.258  21.398   5.845
 3523POPC   C1A45999  18.909  21.362   6.225
 3523POPC   D2A46000  18.996  21.137   6.639
 3523POPC   C3A46001  18.816  21.235   7.041
 3523POPC   C4A46002  18.728  21.621   7.223
 3523POPC   C1B46003  19.410  21.302   6.270
 3523POPC   C2B46004  19.365  21.476   6.705
 3523POPC   C3B46005  19.378  21.292   7.126
 3523POPC   C4B46006  19.571  21.392   7.535
 3524POPC   NC346007  24.214   3.469   5.531
 3524POPC   PO446008  23.686   3.830   5.367
 3524POPC   GL146009  23.740   3.609   5.727
 3524POPC   GL246010  23.999   3.791   5.891
 3524POPC   C1A46011  23.637   3.450   6.138
 3524POPC   D2A46012  23.698   3.323   6.568
 3524POPC   C3A46013  23.456   3.590   6.865
 3524POPC   C4A46014  23.413   3.449   7.286
 3524POPC   C1B46015  24.092   3.663   6.308
 3524POPC   C2B46016  23.951   3.721   6.726
 3524POPC   C3B46017  23.876   3.661   7.153
 3524POPC   C4B46018  23.744   3.723   7.575
 3525POPC   NC346019  27.490  42.305   5.428
 3525POPC   PO446020  27.256  42.906   5.615
 3525POPC   GL146021  27.514  42.607   5.842
 3525POPC   GL246022  27.219  42.424   5.952
 3525POPC   C1A46023  27.623  42.415   6.271
 3525POPC   D2A46024  27.460  42.293   6.669
 3525POPC   C3A46025  27.679  42.216   7.036
 3525POPC   C4A46026  27.932  42.438   7.318
 3525POPC   C1B46027  27.296  42.813   6.256
 3525POPC   C2B46028  27.494  42.851   6.641
 3525POPC   C3B46029  27.380  42.644   7.033
 3525POPC   C4B46030  27.165  42.225   7.090
 3526POPC   NC346031   6.846  15.196   5.515
 3526POPC   PO446032   6.189  15.372   5.515
 3526POPC   GL146033   6.457  15.296   5.836
 3526POPC   GL246034   6.519  14.928   5.821
 3526POPC   C1A46035   6.597  15.239   6.248
 3526POPC   D2A46036   6.925  15.256   6.547
 3526POPC   C3A46037   6.705  15.322   6.923
 3526POPC   C4A46038   6.802  15.250   7.326
 3526POPC   C1B46039   6.640  14.723   6.215
 3526POPC   C2B46040   6.593  14.869   6.641
 3526POPC   C3B46041   6.717  14.817   7.067
 3526POPC   C4B46042   6.489  14.882   7.494
 3527POPC   NC346043  41.005  23.261   5.417
 3527POPC   PO446044  40.524  22.790   5.458
 3527POPC   GL146045  40.631  23.084   5.771
 3527POPC   GL246046  40.949  22.993   5.863
 3527POPC   C1A46047  40.555  23.108   6.222
 3527POPC   D2A46048  40.613  22.797   6.589
 3527POPC   C3A46049  40.760  22.894   6.990
 3527POPC   C4A46050  40.583  23.021   7.370
 3527POPC   C1B46051  41.018  22.865   6.297
 3527POPC   C2B46052  41.145  23.054   6.703
 3527POPC   C3B46053  41.197  23.092   7.168
 3527POPC   C4B46054  41.466  22.897   7.516
 3528POPC   NC346055  38.159  13.901   5.444
 3528POPC   PO446056  38.738  13.652   5.478
 3528POPC   GL146057  38.458  13.613   5.861
 3528POPC   GL246058  38.158  13.781   5.929
 3528POPC   C1A46059  38.272  13.419   6.260
 3528POPC   D2A46060  38.209  13.120   6.612
 3528POPC   C3A46061  38.213  13.307   6.985
 3528POPC   C4A46062  38.408  13.677   7.144
 3528POPC   C1B46063  38.152  13.932   6.343
 3528POPC   C2B46064  38.131  13.940   6.771
 3528POPC   C3B46065  38.037  14.007   7.184
 3528POPC   C4B46066  38.327  14.005   7.532
 3529POPC   NC346067   8.818  28.949   5.402
 3529POPC   PO446068   9.271  29.366   5.424
 3529POPC   GL146069   9.101  29.301   5.811
 3529POPC   GL246070   9.126  28.964   5.873
 3529POPC   C1A46071   9.051  29.478   6.208
 3529POPC   D2A46072   9.149  29.115   6.474
 3529POPC   C3A46073   8.933  29.104   6.840
 3529POPC   C4A46074   9.078  29.120   7.253
 3529POPC   C1B46075   8.756  29.085   6.147
 3529POPC   C2B46076   8.504  29.118   6.485
 3529POPC   C3B46077   8.477  29.364   6.863
 3529POPC   C4B46078   8.582  29.137   7.257
 3530POPC   NC346079   9.342   2.207   5.389
 3530POPC   PO446080   8.754   2.025   5.390
 3530POPC   GL146081   8.854   2.107   5.779
 3530POPC   GL246082   8.966   1.781   5.901
 3530POPC   C1A46083   8.681   2.100   6.200
 3530POPC   D2A46084   8.747   1.915   6.605
 3530POPC   C3A46085   8.719   2.278   6.863
 3530POPC   C4A46086   8.853   2.329   7.268
 3530POPC   C1B46087   9.220   2.093   6.138
 3530POPC   C2B46088   9.183   2.236   6.555
 3530POPC   C3B46089   9.234   2.146   6.975
 3530POPC   C4B46090   9.371   2.360   7.325
 3531POPC   NC346091  30.186  11.622   5.258
 3531POPC   PO446092  29.702  11.146   5.436
 3531POPC   GL146093  29.987  11.357   5.718
 3531POPC   GL246094  29.782  11.685   5.711
 3531POPC   C1A46095  30.153  11.154   6.138
 3531POPC   D2A46096  29.983  11.057   6.554
 3531POPC   C3A46097  30.249  10.886   6.905
 3531POPC   C4A46098  30.218  11.007   7.343
 3531POPC   C1B46099  29.956  11.631   6.146
 3531POPC   C2B46100  30.146  11.587   6.565
 3531POPC   C3B46101  30.078  11.370   6.938
 3531POPC   C4B46102  29.811  11.468   7.253
 3532POPC   NC346103  20.874   2.904   5.601
 3532POPC   PO446104  21.541   2.705   5.574
 3532POPC   GL146105  21.365   2.516   5.874
 3532POPC   GL246106  21.020   2.428   5.798
 3532POPC   C1A46107  21.500   2.599   6.286
 3532POPC   D2A46108  21.434   2.892   6.628
 3532POPC   C3A46109  21.504   2.759   7.039
 3532POPC   C4A46110  21.591   2.882   7.436
 3532POPC   C1B46111  20.988   2.638   6.199
 3532POPC   C2B46112  21.104   2.489   6.597
 3532POPC   C3B46113  21.023   2.589   7.000
 3532POPC   C4B46114  21.112   2.656   7.423
 3533POPC   NC346115  32.092   6.226   5.279
 3533POPC   PO446116  31.892   5.655   5.338
 3533POPC   GL146117  32.191   5.718   5.662
 3533POPC   GL246118  32.386   6.040   5.659
 3533POPC   C1A46119  32.394   5.681   6.061
 3533POPC   D2A46120  32.489   5.888   6.426
 3533POPC   C3A46121  32.289   5.767   6.804
 3533POPC   C4A46122  32.190   5.638   7.208
 3533POPC   C1B46123  32.345   6.232   6.061
 3533POPC   C2B46124  32.405   6.386   6.472
 3533POPC   C3B46125  32.592   6.220   6.826
 3533POPC   C4B46126  32.451   6.093   7.223
 3534POPC   NC346127  35.908  14.274   5.220
 3534POPC   PO446128  36.297  13.962   5.681
 3534POPC   GL146129  35.932  14.257   5.802
 3534POPC   GL246130  35.801  14.608   5.716
 3534POPC   C1A46131  35.942  14.148   6.220
 3534POPC   D2A46132  36.222  14.226   6.564
 3534POPC   C3A46133  36.026  14.295   6.937
 3534POPC   C4A46134  36.091  14.177   7.363
 3534POPC   C1B46135  36.031  14.651   6.127
 3534POPC   C2B46136  36.118  14.808   6.563
 3534POPC   C3B46137  35.887  14.784   6.950
 3534POPC   C4B46138  36.144  14.679   7.317
 3535POPC   NC346139  43.504  42.775   5.655
 3535POPC   PO446140  43.985  43.170   5.378
 3535POPC   GL146141  44.090  43.194   5.822
 3535POPC   GL246142  43.832  43.023   5.981
 3535POPC   C1A46143  44.319  43.072   6.229
 3535POPC   D2A46144  44.209  43.210   6.650
 3535POPC   C3A46145  44.309  43.025   7.006
 3535POPC   C4A46146  44.034  42.711   7.161
 3535POPC   C1B46147  43.914  43.387   6.263
 3535POPC   C2B46148  44.026  43.700   6.575
 3535POPC   C3B46149  44.084  43.576   7.002
 3535POPC   C4B46150  43.959  43.218   7.300
 3536POPC   NC346151  23.150  25.173   5.319
 3536POPC   PO446152  22.893  25.730   5.367
 3536POPC   GL146153  23.147  25.616   5.793
 3536POPC   GL246154  23.180  25.209   5.844
 3536POPC   C1A46155  23.112  25.481   6.254
 3536POPC   D2A46156  23.142  25.141   6.568
 3536POPC   C3A46157  23.078  25.233   7.001
 3536POPC   C4A46158  23.271  25.448   7.327
 3536POPC   C1B46159  22.853  24.994   6.159
 3536POPC   C2B46160  22.546  25.049   6.511
 3536POPC   C3B46161  22.604  24.995   6.980
 3536POPC   C4B46162  22.703  25.155   7.406
 3537POPC   NC346163  42.841  23.519   5.460
 3537POPC   PO446164  43.266  24.037   5.620
 3537POPC   GL146165  43.172  23.713   5.853
 3537POPC   GL246166  42.859  23.814   5.873
 3537POPC   C1A46167  43.328  23.487   6.210
 3537POPC   D2A46168  43.442  23.302   6.607
 3537POPC   C3A46169  43.421  23.641   6.907
 3537POPC   C4A46170  43.296  23.750   7.288
 3537POPC   C1B46171  42.822  23.618   6.241
 3537POPC   C2B46172  43.006  23.620   6.625
 3537POPC   C3B46173  42.851  23.634   7.044
 3537POPC   C4B46174  42.809  23.905   7.406
 3538POPC   NC346175  31.181  35.894   5.457
 3538POPC   PO446176  31.813  36.114   5.656
 3538POPC   GL146177  31.444  36.065   5.865
 3538POPC   GL246178  31.359  36.364   5.674
 3538POPC   C1A46179  31.401  35.987   6.298
 3538POPC   D2A46180  31.601  36.032   6.686
 3538POPC   C3A46181  31.395  35.893   7.039
 3538POPC   C4A46182  31.028  36.075   7.142
 3538POPC   C1B46183  31.330  36.480   6.138
 3538POPC   C2B46184  31.179  36.361   6.566
 3538POPC   C3B46185  31.349  36.434   6.972
 3538POPC   C4B46186  31.491  36.591   7.353
 3539POPC   NC346187  13.778  34.003   5.639
 3539POPC   PO446188  13.421  33.525   5.376
 3539POPC   GL146189  13.471  33.635   5.837
 3539POPC   GL246190  13.822  33.591   5.948
 3539POPC   C1A46191  13.457  33.805   6.280
 3539POPC   D2A46192  13.250  33.991   6.628
 3539POPC   C3A46193  13.357  34.076   7.023
 3539POPC   C4A46194  13.237  33.704   7.208
 3539POPC   C1B46195  13.967  33.846   6.318
 3539POPC   C2B46196  13.776  33.994   6.705
 3539POPC   C3B46197  13.746  33.760   7.106
 3539POPC   C4B46198  13.946  33.580   7.465
 3540POPC   NC346199  25.047  38.054   5.641
 3540POPC   PO446200  25.335  38.608   5.683
 3540POPC   GL146201  25.054  38.590   6.010
 3540POPC   GL246202  24.859  38.309   6.137
 3540POPC   C1A46203  25.254  38.581   6.417
 3540POPC   D2A46204  25.632  38.670   6.659
 3540POPC   C3A46205  25.520  38.672   7.089
 3540POPC   C4A46206  25.080  38.536   7.217
 3540POPC   C1B46207  25.248  38.068   6.249
 3540POPC   C2B46208  25.581  38.104   6.509
 3540POPC   C3B46209  25.439  38.220   6.874
 3540POPC   C4B46210  25.428  38.157   7.277
 3541POPC   NC346211  12.833   1.436   5.367
 3541POPC   PO446212  13.167   1.815   5.571
 3541POPC   GL146213  12.922   1.512   5.884
 3541POPC   GL246214  12.782   1.167   5.835
 3541POPC   C1A46215  12.844   1.322   6.334
 3541POPC   D2A46216  12.748   1.429   6.780
 3541POPC   C3A46217  12.940   1.384   7.206
 3541POPC   C4A46218  12.747   1.534   7.602
 3541POPC   C1B46219  12.567   0.908   6.208
 3541POPC   C2B46220  12.599   0.902   6.702
 3541POPC   C3B46221  12.545   1.066   7.131
 3541POPC   C4B46222  12.656   1.007   7.585
 3542POPC   NC346223  29.443  28.558   5.505
 3542POPC   PO446224  30.060  28.223   5.396
 3542POPC   GL146225  29.934  28.481   5.772
 3542POPC   GL246226  29.671  28.277   5.856
 3542POPC   C1A46227  29.931  28.450   6.257
 3542POPC   D2A46228  30.165  28.365   6.629
 3542POPC   C3A46229  29.875  28.524   6.910
 3542POPC   C4A46230  29.694  28.473   7.289
 3542POPC   C1B46231  29.469  28.207   6.221
 3542POPC   C2B46232  29.458  28.386   6.624
 3542POPC   C3B46233  29.506  28.116   6.964
 3542POPC   C4B46234  29.594  27.977   7.396
 3543POPC   NC346235  43.316  12.420   5.019
 3543POPC   PO446236  42.873  12.845   5.366
 3543POPC   GL146237  43.003  12.895   5.768
 3543POPC   GL246238  42.939  13.224   5.802
 3543POPC   C1A46239  43.128  12.717   6.130
 3543POPC   D2A46240  43.248  12.751   6.553
 3543POPC   C3A46241  43.096  12.524   6.905
 3543POPC   C4A46242  43.243  12.656   7.316
 3543POPC   C1B46243  43.143  13.212   6.221
 3543POPC   C2B46244  42.965  13.167   6.618
 3543POPC   C3B46245  43.139  13.066   7.014
 3543POPC   C4B46246  43.165  13.206   7.454
 3544POPC   NC346247  31.854  21.001   5.521
 3544POPC   PO446248  32.416  21.457   5.404
 3544POPC   GL146249  32.427  21.283   5.787
 3544POPC   GL246250  32.298  20.945   5.777
 3544POPC   C1A46251  32.256  21.392   6.196
 3544POPC   D2A46252  32.150  21.551   6.610
 3544POPC   C3A46253  32.494  21.436   6.865
 3544POPC   C4A46254  32.493  21.387   7.293
 3544POPC   C1B46255  32.239  20.879   6.199
 3544POPC   C2B46256  32.267  21.053   6.617
 3544POPC   C3B46257  32.117  21.147   7.063
 3544POPC   C4B46258  32.071  21.211   7.555
 3545POPC   NC346259  30.493  30.546   5.236
 3545POPC   PO446260  30.957  30.228   5.642
 3545POPC   GL146261  30.727  30.676   5.737
 3545POPC   GL246262  30.359  30.748   5.824
 3545POPC   C1A46263  30.711  30.884   6.159
 3545POPC   D2A46264  30.712  30.744   6.585
 3545POPC   C3A46265  31.011  30.828   6.865
 3545POPC   C4A46266  31.055  30.856   7.281
 3545POPC   C1B46267  30.337  30.544   6.273
 3545POPC   C2B46268  30.289  30.530   6.761
 3545POPC   C3B46269  30.564  30.583   7.153
 3545POPC   C4B46270  30.384  30.584   7.582
 3546POPC   NC346271  35.759  31.208   5.200
 3546POPC   PO446272  35.316  31.662   5.466
 3546POPC   GL146273  35.308  31.352   5.779
 3546POPC   GL246274  35.640  31.240   5.951
 3546POPC   C1A46275  35.195  31.288   6.202
 3546POPC   D2A46276  35.512  31.150   6.500
 3546POPC   C3A46277  35.326  31.186   6.892
 3546POPC   C4A46278  35.316  31.489   7.189
 3546POPC   C1B46279  35.590  31.613   6.229
 3546POPC   C2B46280  35.493  31.646   6.664
 3546POPC   C3B46281  35.761  31.599   7.011
 3546POPC   C4B46282  35.693  31.725   7.416
 3547POPC   NC346283  26.421  19.912   5.388
 3547POPC   PO446284  25.823  19.491   5.095
 3547POPC   GL146285  25.857  19.570   5.599
 3547POPC   GL246286  26.088  19.824   5.809
 3547POPC   C1A46287  25.758  19.552   6.068
 3547POPC   D2A46288  25.813  19.775   6.461
 3547POPC   C3A46289  26.012  19.682   6.853
 3547POPC   C4A46290  25.875  19.913   7.243
 3547POPC   C1B46291  26.257  19.590   6.246
 3547POPC   C2B46292  26.552  19.760   6.600
 3547POPC   C3B46293  26.442  20.003   6.977
 3547POPC   C4B46294  26.094  20.324   7.004
 3548POPC   NC346295  37.700  42.929   5.438
 3548POPC   PO446296  37.512  43.573   5.372
 3548POPC   GL146297  37.751  43.439   5.769
 3548POPC   GL246298  37.654  43.100   5.888
 3548POPC   C1A46299  37.802  43.367   6.261
 3548POPC   D2A46300  37.880  43.104   6.654
 3548POPC   C3A46301  37.875  43.340   7.018
 3548POPC   C4A46302  37.707  43.209   7.371
 3548POPC   C1B46303  37.678  42.820   6.223
 3548POPC   C2B46304  37.548  42.676   6.609
 3548POPC   C3B46305  37.478  42.848   6.991
 3548POPC   C4B46306  37.182  42.643   7.256
 3549POPC   NC346307  15.275  12.304   5.304
 3549POPC   PO446308  15.197  11.603   5.457
 3549POPC   GL146309  15.260  11.917   5.795
 3549POPC   GL246310  15.386  12.263   5.793
 3549POPC   C1A46311  15.070  11.899   6.201
 3549POPC   D2A46312  14.924  12.029   6.600
 3549POPC   C3A46313  15.108  11.876   7.012
 3549POPC   C4A46314  14.949  11.862   7.432
 3549POPC   C1B46315  15.149  12.406   6.170
 3549POPC   C2B46316  15.202  12.492   6.607
 3549POPC   C3B46317  15.002  12.394   6.979
 3549POPC   C4B46318  15.199  12.313   7.392
 3550POPC   NC346319   6.195  30.690   5.360
 3550POPC   PO446320   5.549  30.395   5.378
 3550POPC   GL146321   5.767  30.558   5.710
 3550POPC   GL246322   5.579  30.855   5.754
 3550POPC   C1A46323   5.890  30.564   6.144
 3550POPC   D2A46324   6.007  30.754   6.536
 3550POPC   C3A46325   5.749  30.610   6.837
 3550POPC   C4A46326   5.802  30.495   7.217
 3550POPC   C1B46327   5.682  31.019   6.176
 3550POPC   C2B46328   5.557  31.075   6.596
 3550POPC   C3B46329   5.712  31.106   6.999
 3550POPC   C4B46330   5.532  30.892   7.325
 3551POPC   NC346331   5.747  13.028   5.378
 3551POPC   PO446332   5.938  12.438   5.303
 3551POPC   GL146333   5.883  12.666   5.729
 3551POPC   GL246334   5.955  13.046   5.841
 3551POPC   C1A46335   5.874  12.569   6.177
 3551POPC   D2A46336   5.658  12.518   6.572
 3551POPC   C3A46337   5.868  12.607   6.962
 3551POPC   C4A46338   5.876  12.424   7.383
 3551POPC   C1B46339   5.605  13.026   6.092
 3551POPC   C2B46340   5.571  13.041   6.526
 3551POPC   C3B46341   5.456  13.003   6.967
 3551POPC   C4B46342   5.721  12.929   7.348
 3552POPC   NC346343  39.824  14.082   5.115
 3552POPC   PO446344  39.686  13.644   5.618
 3552POPC   GL146345  40.030  13.760   5.889
 3552POPC   GL246346  40.357  13.772   5.728
 3552POPC   C1A46347  40.025  13.687   6.328
 3552POPC   D2A46348  39.834  13.858   6.700
 3552POPC   C3A46349  39.955  13.542   6.982
 3552POPC   C4A46350  39.792  13.390   7.361
 3552POPC   C1B46351  40.473  13.527   6.122
 3552POPC   C2B46352  40.424  13.345   6.519
 3552POPC   C3B46353  40.568  13.418   6.911
 3552POPC   C4B46354  40.381  13.593   7.256
 3553POPC   NC346355  21.602  38.948   5.535
 3553POPC   PO446356  21.060  39.397   5.365
 3553POPC   GL146357  21.218  39.247   5.738
 3553POPC   GL246358  21.560  39.408   5.812
 3553POPC   C1A46359  21.171  39.344   6.174
 3553POPC   D2A46360  21.331  39.147   6.557
 3553POPC   C3A46361  21.242  39.349   6.933
 3553POPC   C4A46362  21.220  39.107   7.266
 3553POPC   C1B46363  21.782  39.166   6.153
 3553POPC   C2B46364  21.909  39.006   6.557
 3553POPC   C3B46365  21.737  39.160   6.953
 3553POPC   C4B46366  21.771  39.612   7.108
 3554POPC   NC346367  14.520  18.736   5.312
 3554POPC   PO446368  14.363  19.401   5.184
 3554POPC   GL146369  14.346  19.165   5.649
 3554POPC   GL246370  14.470  19.332   5.924
 3554POPC   C1A46371  14.333  18.872   6.050
 3554POPC   D2A46372  14.087  18.732   6.434
 3554POPC   C3A46373  14.358  18.800   6.804
 3554POPC   C4A46374  14.291  18.964   7.180
 3554POPC   C1B46375  14.789  19.301   6.230
 3554POPC   C2B46376  14.662  19.155   6.593
 3554POPC   C3B46377  14.758  19.205   7.005
 3554POPC   C4B46378  14.695  19.174   7.420
 3555POPC   NC346379   2.778  14.149   5.596
 3555POPC   PO446380   2.651  14.780   5.532
 3555POPC   GL146381   2.783  14.569   5.906
 3555POPC   GL246382   2.849  14.902   6.001
 3555POPC   C1A46383   2.847  14.209   6.253
 3555POPC   D2A46384   3.007  14.224   6.693
 3555POPC   C3A46385   2.743  14.388   7.034
 3555POPC   C4A46386   2.466  14.292   7.412
 3555POPC   C1B46387   2.824  14.692   6.405
 3555POPC   C2B46388   2.516  14.707   6.690
 3555POPC   C3B46389   2.647  14.928   6.992
 3555POPC   C4B46390   2.642  14.765   7.368
 3556POPC   NC346391  34.126  23.893   5.421
 3556POPC   PO446392  34.778  24.116   5.387
 3556POPC   GL146393  34.692  23.977   5.848
 3556POPC   GL246394  34.349  23.874   5.886
 3556POPC   C1A46395  34.694  23.796   6.304
 3556POPC   D2A46396  34.805  23.556   6.678
 3556POPC   C3A46397  34.776  23.729   7.107
 3556POPC   C4A46398  34.389  23.980   7.219
 3556POPC   C1B46399  34.286  23.503   6.152
 3556POPC   C2B46400  34.350  23.383   6.561
 3556POPC   C3B46401  34.341  23.578   6.905
 3556POPC   C4B46402  34.297  23.456   7.305
 3557POPC   NC346403   1.408  11.033   5.465
 3557POPC   PO446404   0.807  11.083   5.626
 3557POPC   GL146405   1.037  11.260   5.947
 3557POPC   GL246406   1.341  11.163   5.936
 3557POPC   C1A46407   1.082  11.212   6.402
 3557POPC   D2A46408   0.851  11.200   6.772
 3557POPC   C3A46409   0.967  11.380   7.121
 3557POPC   C4A46410   1.361  11.509   7.139
 3557POPC   C1B46411   1.560  11.326   6.224
 3557POPC   C2B46412   1.582  11.279   6.630
 3557POPC   C3B46413   1.339  11.062   6.858
 3557POPC   C4B46414   1.581  11.039   7.182
 3558POPC   NC346415  30.133  14.527   5.518
 3558POPC   PO446416  29.674  14.070   5.475
 3558POPC   GL146417  29.769  14.293   5.839
 3558POPC   GL246418  29.792  14.665   5.899
 3558POPC   C1A46419  29.708  14.250   6.256
 3558POPC   D2A46420  30.029  14.142   6.530
 3558POPC   C3A46421  29.991  14.233   6.956
 3558POPC   C4A46422  29.691  14.387   7.227
 3558POPC   C1B46423  30.089  14.711   6.242
 3558POPC   C2B46424  30.243  14.649   6.670
 3558POPC   C3B46425  30.092  14.717   7.094
 3558POPC   C4B46426  30.204  14.452   7.430
 3559POPC   NC346427   9.738  23.196   5.174
 3559POPC   PO446428   9.653  22.678   5.366
 3559POPC   GL146429   9.519  22.801   5.770
 3559POPC   GL246430   9.681  23.139   5.805
 3559POPC   C1A46431   9.666  22.760   6.182
 3559POPC   D2A46432   9.877  22.901   6.532
 3559POPC   C3A46433   9.668  22.771   6.868
 3559POPC   C4A46434   9.473  22.878   7.195
 3559POPC   C1B46435   9.571  23.281   6.236
 3559POPC   C2B46436   9.559  23.278   6.706
 3559POPC   C3B46437   9.855  23.236   7.079
 3559POPC   C4B46438  10.037  23.403   7.477
 3560POPC   NC346439  43.427  14.014   5.093
 3560POPC   PO446440  43.680  13.522   5.481
 3560POPC   GL146441  43.861  13.645   5.879
 3560POPC   GL246442  43.843  13.964   5.767
 3560POPC   C1A46443  44.026  13.752   6.307
 3560POPC   D2A46444  43.892  13.534   6.680
 3560POPC   C3A46445  44.056  13.577   7.073
 3560POPC   C4A46446  44.419  13.314   7.130
 3560POPC   C1B46447  43.603  13.990   6.168
 3560POPC   C2B46448  43.587  13.925   6.568
 3560POPC   C3B46449  43.592  13.860   6.982
 3560POPC   C4B46450  43.660  14.006   7.353
 3561POPC   NC346451  17.831  23.282   5.372
 3561POPC   PO446452  17.218  22.959   5.544
 3561POPC   GL146453  17.555  23.066   5.776
 3561POPC   GL246454  17.701  22.747   5.744
 3561POPC   C1A46455  17.459  23.221   6.195
 3561POPC   D2A46456  17.455  23.407   6.606
 3561POPC   C3A46457  17.314  23.206   6.977
 3561POPC   C4A46458  17.651  23.252   7.232
 3561POPC   C1B46459  17.511  22.711   6.167
 3561POPC   C2B46460  17.407  22.868   6.582
 3561POPC   C3B46461  17.406  22.675   7.007
 3561POPC   C4B46462  17.244  22.644   7.413
 3562POPC   NC346463  18.700  19.318   5.553
 3562POPC   PO446464  18.947  18.675   5.571
 3562POPC   GL146465  19.222  18.894   5.827
 3562POPC   GL246466  19.000  19.129   5.953
 3562POPC   C1A46467  19.341  18.834   6.256
 3562POPC   D2A46468  19.427  19.044   6.687
 3562POPC   C3A46469  19.085  19.036   7.032
 3562POPC   C4A46470  18.734  18.922   7.265
 3562POPC   C1B46471  19.160  19.339   6.306
 3562POPC   C2B46472  18.880  19.203   6.592
 3562POPC   C3B46473  18.670  19.340   6.936
 3562POPC   C4B46474  18.765  19.469   7.314
 3563POPC   NC346475   5.029  39.069   5.294
 3563POPC   PO446476   4.828  39.596   5.658
 3563POPC   GL146477   5.182  39.471   5.901
 3563POPC   GL246478   5.248  39.115   5.774
 3563POPC   C1A46479   5.219  39.446   6.355
 3563POPC   D2A46480   4.948  39.313   6.640
 3563POPC   C3A46481   5.028  39.468   7.016
 3563POPC   C4A46482   4.955  39.330   7.421
 3563POPC   C1B46483   5.406  39.012   6.185
 3563POPC   C2B46484   5.320  38.946   6.648
 3563POPC   C3B46485   5.250  39.003   7.118
 3563POPC   C4B46486   5.517  39.119   7.490
 3564POPC   NC346487   1.706  31.667   5.116
 3564POPC   PO446488   2.285  31.525   5.436
 3564POPC   GL146489   2.085  31.501   5.843
 3564POPC   GL246490   2.363  31.720   5.921
 3564POPC   C1A46491   1.857  31.328   6.280
 3564POPC   D2A46492   1.997  31.020   6.615
 3564POPC   C3A46493   2.033  31.180   7.048
 3564POPC   C4A46494   1.935  31.597   7.213
 3564POPC   C1B46495   2.318  31.488   6.289
 3564POPC   C2B46496   2.221  31.484   6.702
 3564POPC   C3B46497   2.400  31.655   7.061
 3564POPC   C4B46498   2.309  31.777   7.511
 3565POPC   NC346499   4.092   1.610   5.489
 3565POPC   PO446500   4.427   1.117   5.205
 3565POPC   GL146501   4.454   1.133   5.709
 3565POPC   GL246502   4.239   1.371   5.915
 3565POPC   C1A46503   4.498   1.001   6.158
 3565POPC   D2A46504   4.270   1.229   6.493
 3565POPC   C3A46505   4.390   1.092   6.898
 3565POPC   C4A46506   4.170   0.880   7.215
 3565POPC   C1B46507   3.982   1.688   6.133
 3565POPC   C2B46508   3.984   1.715   6.572
 3565POPC   C3B46509   4.280   1.620   6.882
 3565POPC   C4B46510   4.348   1.409   7.275
 3566POPC   NC346511  35.791  38.387   5.660
 3566POPC   PO446512  36.334  38.144   5.311
 3566POPC   GL146513  36.238  38.248   5.817
 3566POPC   GL246514  35.981  37.948   5.872
 3566POPC   C1A46515  36.315  38.467   6.242
 3566POPC   D2A46516  36.489  38.677   6.619
 3566POPC   C3A46517  36.158  38.698   6.933
 3566POPC   C4A46518  35.875  38.536   7.227
 3566POPC   C1B46519  36.113  37.986   6.296
 3566POPC   C2B46520  36.030  38.204   6.691
 3566POPC   C3B46521  35.933  38.027   7.103
 3566POPC   C4B46522  36.076  38.163   7.507
 3567POPC   NC346523  18.540  17.758   5.277
 3567POPC   PO446524  18.339  17.141   5.503
 3567POPC   GL146525  18.243  17.415   5.836
 3567POPC   GL246526  18.326  17.754   5.739
 3567POPC   C1A46527  18.307  17.347   6.270
 3567POPC   D2A46528  18.515  17.205   6.641
 3567POPC   C3A46529  18.284  17.349   6.982
 3567POPC   C4A46530  18.220  17.299   7.401
 3567POPC   C1B46531  18.522  17.796   6.139
 3567POPC   C2B46532  18.479  17.719   6.589
 3567POPC   C3B46533  18.358  17.857   7.002
 3567POPC   C4B46534  18.255  17.869   7.435
 3568POPC   NC346535  11.568  32.832   5.460
 3568POPC   PO446536  11.039  33.295   5.502
 3568POPC   GL146537  11.297  33.134   5.804
 3568POPC   GL246538  11.226  32.795   5.853
 3568POPC   C1A46539  11.223  33.209   6.220
 3568POPC   D2A46540  10.974  33.189   6.563
 3568POPC   C3A46541  11.287  33.191   6.873
 3568POPC   C4A46542  11.235  33.176   7.308
 3568POPC   C1B46543  11.477  32.757   6.216
 3568POPC   C2B46544  11.244  32.746   6.605
 3568POPC   C3B46545  11.268  32.712   7.046
 3568POPC   C4B46546  11.459  32.711   7.451
 3569POPC   NC346547  37.572  26.095   5.247
 3569POPC   PO446548  38.082  25.649   5.386
 3569POPC   GL146549  37.836  25.968   5.696
 3569POPC   GL246550  37.523  26.234   5.731
 3569POPC   C1A46551  37.781  26.090   6.151
 3569POPC   D2A46552  37.639  25.949   6.543
 3569POPC   C3A46553  37.789  26.065   6.938
 3569POPC   C4A46554  37.795  25.862   7.332
 3569POPC   C1B46555  37.394  26.446   6.143
 3569POPC   C2B46556  37.560  26.460   6.577
 3569POPC   C3B46557  37.370  26.336   6.928
 3569POPC   C4B46558  37.329  26.024   7.191
 3570POPC   NC346559  31.621  42.122   5.701
 3570POPC   PO446560  31.241  42.540   5.319
 3570POPC   GL146561  31.316  42.525   5.786
 3570POPC   GL246562  31.124  42.251   5.863
 3570POPC   C1A46563  31.539  42.608   6.206
 3570POPC   D2A46564  31.717  42.515   6.634
 3570POPC   C3A46565  31.609  42.241   6.967
 3570POPC   C4A46566  31.516  42.458   7.329
 3570POPC   C1B46567  31.111  42.322   6.275
 3570POPC   C2B46568  31.162  42.273   6.709
 3570POPC   C3B46569  31.118  42.226   7.148
 3570POPC   C4B46570  31.102  42.301   7.608
 3571POPC   NC346571  27.022  26.371   5.447
 3571POPC   PO446572  26.701  25.780   5.534
 3571POPC   GL146573  26.718  26.152   5.786
 3571POPC   GL246574  27.074  26.079   5.869
 3571POPC   C1A46575  26.768  26.348   6.184
 3571POPC   D2A46576  26.820  26.150   6.585
 3571POPC   C3A46577  26.771  26.250   6.990
 3571POPC   C4A46578  26.787  26.098   7.414
 3571POPC   C1B46579  26.814  25.812   6.189
 3571POPC   C2B46580  26.726  25.647   6.635
 3571POPC   C3B46581  26.708  25.669   7.095
 3571POPC   C4B46582  26.992  25.554   7.438
 3572POPC   NC346583  28.166   1.438   5.043
 3572POPC   PO446584  28.582   0.998   5.398
 3572POPC   GL146585  28.385   1.174   5.741
 3572POPC   GL246586  28.275   0.842   5.786
 3572POPC   C1A46587  28.375   1.474   6.112
 3572POPC   D2A46588  28.449   1.629   6.544
 3572POPC   C3A46589  28.218   1.362   6.830
 3572POPC   C4A46590  28.247   1.315   7.253
 3572POPC   C1B46591  28.152   1.008   6.177
 3572POPC   C2B46592  28.300   0.921   6.588
 3572POPC   C3B46593  28.268   0.836   7.045
 3572POPC   C4B46594  27.993   0.926   7.432
 3573POPC   NC346595  32.481   4.761   5.378
 3573POPC   PO446596  32.101   4.182   5.502
 3573POPC   GL146597  32.080   4.372   5.879
 3573POPC   GL246598  32.027   4.035   5.980
 3573POPC   C1A46599  32.222   4.391   6.285
 3573POPC   D2A46600  32.150   4.054   6.523
 3573POPC   C3A46601  32.105   4.226   6.924
 3573POPC   C4A46602  32.090   4.445   7.290
 3573POPC   C1B46603  32.486   4.021   6.063
 3573POPC   C2B46604  32.670   3.973   6.468
 3573POPC   C3B46605  32.495   3.903   6.868
 3573POPC   C4B46606  32.509   4.133   7.248
 3574POPC   NC346607  23.203  30.428   5.525
 3574POPC   PO446608  22.590  30.333   5.744
 3574POPC   GL146609  22.887  30.585   6.006
 3574POPC   GL246610  23.217  30.514   6.016
 3574POPC   C1A46611  22.946  30.646   6.461
 3574POPC   D2A46612  22.605  30.473   6.707
 3574POPC   C3A46613  22.561  30.688   7.068
 3574POPC   C4A46614  22.749  30.777   7.437
 3574POPC   C1B46615  23.350  30.224   6.316
 3574POPC   C2B46616  23.403  30.432   6.677
 3574POPC   C3B46617  23.117  30.544   6.982
 3574POPC   C4B46618  23.219  30.581   7.420
 3575POPC   NC346619  18.528  18.594   5.434
 3575POPC   PO446620  18.192  18.061   5.282
 3575POPC   GL146621  18.224  18.264   5.697
 3575POPC   GL246622  18.571  18.230   5.802
 3575POPC   C1A46623  18.144  18.219   6.151
 3575POPC   D2A46624  17.945  18.108   6.558
 3575POPC   C3A46625  17.998  18.425   6.840
 3575POPC   C4A46626  18.083  18.302   7.237
 3575POPC   C1B46627  18.644  18.273   6.254
 3575POPC   C2B46628  18.450  18.219   6.643
 3575POPC   C3B46629  18.569  18.325   7.047
 3575POPC   C4B46630  18.523  18.378   7.473
 3576POPC   NC346631  16.280  39.270   5.147
 3576POPC   PO446632  16.138  38.864   5.573
 3576POPC   GL146633  16.289  39.185   5.851
 3576POPC   GL246634  15.952  39.314   5.952
 3576POPC   C1A46635  16.311  39.340   6.291
 3576POPC   D2A46636  16.027  39.409   6.639
 3576POPC   C3A46637  16.184  39.300   7.046
 3576POPC   C4A46638  16.267  39.601   7.359
 3576POPC   C1B46639  15.646  39.162   6.252
 3576POPC   C2B46640  15.512  39.292   6.672
 3576POPC   C3B46641  15.708  39.092   6.997
 3576POPC   C4B46642  15.621  38.887   7.378
 3577POPC   NC346643  42.086  37.037   5.428
 3577POPC   PO446644  41.401  36.881   5.324
 3577POPC   GL146645  41.530  36.877   5.743
 3577POPC   GL246646  41.487  36.509   5.743
 3577POPC   C1A46647  41.415  37.020   6.190
 3577POPC   D2A46648  41.294  37.038   6.596
 3577POPC   C3A46649  41.527  37.167   6.911
 3577POPC   C4A46650  41.337  37.026   7.239
 3577POPC   C1B46651  41.611  36.559   6.136
 3577POPC   C2B46652  41.733  36.662   6.514
 3577POPC   C3B46653  41.521  36.660   6.878
 3577POPC   C4B46654  41.669  36.627   7.275
 3578POPC   NC346655  36.663  14.159   5.467
 3578POPC   PO446656  36.831  14.841   5.519
 3578POPC   GL146657  37.140  14.690   5.813
 3578POPC   GL246658  37.079  14.316   5.809
 3578POPC   C1A46659  37.301  14.537   6.208
 3578POPC   D2A46660  37.239  14.328   6.608
 3578POPC   C3A46661  37.219  14.552   6.988
 3578POPC   C4A46662  36.902  14.562   7.309
 3578POPC   C1B46663  36.807  14.417   6.212
 3578POPC   C2B46664  36.734  14.453   6.689
 3578POPC   C3B46665  36.534  14.269   7.078
 3578POPC   C4B46666  36.565  14.202   7.546
 3579POPC   NC346667  28.594   3.807   5.446
 3579POPC   PO446668  28.921   3.269   5.345
 3579POPC   GL146669  28.979   3.567   5.684
 3579POPC   GL246670  29.303   3.607   5.564
 3579POPC   C1A46671  28.904   3.741   6.130
 3579POPC   D2A46672  29.082   3.586   6.525
 3579POPC   C3A46673  29.049   3.722   6.965
 3579POPC   C4A46674  28.995   3.345   7.212
 3579POPC   C1B46675  29.361   3.455   6.002
 3579POPC   C2B46676  29.566   3.410   6.410
 3579POPC   C3B46677  29.521   3.672   6.756
 3579POPC   C4B46678  29.498   3.529   7.157
 3580POPC   NC346679  24.391  29.250   5.397
 3580POPC   PO446680  24.944  29.388   5.586
 3580POPC   GL146681  24.585  29.289   5.919
 3580POPC   GL246682  24.235  29.151   5.864
 3580POPC   C1A46683  24.536  29.153   6.384
 3580POPC   D2A46684  24.709  28.887   6.761
 3580POPC   C3A46685  24.779  29.133   7.138
 3580POPC   C4A46686  24.518  29.269   7.509
 3580POPC   C1B46687  24.072  28.996   6.244
 3580POPC   C2B46688  24.198  28.850   6.632
 3580POPC   C3B46689  24.286  29.047   7.011
 3580POPC   C4B46690  24.125  28.969   7.402
 3581POPC   NC346691   2.109   4.497   5.321
 3581POPC   PO446692   1.506   4.180   5.489
 3581POPC   GL146693   1.922   4.224   5.741
 3581POPC   GL246694   2.027   4.530   5.822
 3581POPC   C1A46695   2.161   4.103   6.101
 3581POPC   D2A46696   2.048   4.170   6.513
 3581POPC   C3A46697   2.318   4.207   6.848
 3581POPC   C4A46698   2.223   4.171   7.273
 3581POPC   C1B46699   1.907   4.601   6.219
 3581POPC   C2B46700   2.075   4.681   6.617
 3581POPC   C3B46701   1.915   4.537   7.020
 3581POPC   C4B46702   1.929   4.526   7.481
 3582POPC   NC346703  38.286  32.964   5.358
 3582POPC   PO446704  38.418  33.545   5.386
 3582POPC   GL146705  38.439  33.309   5.798
 3582POPC   GL246706  38.214  33.023   5.843
 3582POPC   C1A46707  38.535  33.146   6.240
 3582POPC   D2A46708  38.624  33.246   6.698
 3582POPC   C3A46709  38.566  32.959   7.050
 3582POPC   C4A46710  38.822  32.616   7.207
 3582POPC   C1B46711  38.102  32.822   6.204
 3582POPC   C2B46712  38.244  32.874   6.611
 3582POPC   C3B46713  38.134  32.674   6.957
 3582POPC   C4B46714  38.151  32.906   7.366
 3583POPC   NC346715  39.373  15.066   5.496
 3583POPC   PO446716  38.867  15.372   5.445
 3583POPC   GL146717  38.950  15.224   5.856
 3583POPC   GL246718  39.004  14.869   5.815
 3583POPC   C1A46719  39.037  15.447   6.261
 3583POPC   D2A46720  38.837  15.663   6.640
 3583POPC   C3A46721  39.072  15.472   6.969
 3583POPC   C4A46722  39.430  15.189   7.066
 3583POPC   C1B46723  39.282  14.887   6.166
 3583POPC   C2B46724  39.330  14.919   6.621
 3583POPC   C3B46725  38.975  14.968   6.914
 3583POPC   C4B46726  38.928  15.097   7.335
 3584POPC   NC346727  22.856  14.798   5.647
 3584POPC   PO446728  22.917  14.200   5.418
 3584POPC   GL146729  22.926  14.305   5.867
 3584POPC   GL246730  23.219  14.556   5.949
 3584POPC   C1A46731  22.831  14.150   6.296
 3584POPC   D2A46732  23.079  14.264   6.648
 3584POPC   C3A46733  23.079  14.028   7.018
 3584POPC   C4A46734  22.860  14.196   7.374
 3584POPC   C1B46735  22.912  14.637   6.295
 3584POPC   C2B46736  22.660  14.628   6.647
 3584POPC   C3B46737  22.709  14.705   7.087
 3584POPC   C4B46738  22.966  14.671   7.449
 3585POPC   NC346739  19.821  19.439   5.133
 3585POPC   PO446740  19.912  18.846   5.370
 3585POPC   GL146741  19.743  18.934   5.800
 3585POPC   GL246742  20.040  19.088   5.922
 3585POPC   C1A46743  19.658  19.202   6.232
 3585POPC   D2A46744  19.948  19.172   6.553
 3585POPC   C3A46745  19.848  19.299   6.951
 3585POPC   C4A46746  19.528  19.119   7.217
 3585POPC   C1B46747  19.888  18.750   6.245
 3585POPC   C2B46748  19.915  18.587   6.651
 3585POPC   C3B46749  20.108  18.503   7.044
 3585POPC   C4B46750  19.862  18.741   7.315
 3586POPC   NC346751   3.210   1.203   5.378
 3586POPC   PO446752   2.635   0.847   5.457
 3586POPC   GL146753   2.744   1.211   5.752
 3586POPC   GL246754   3.030   1.076   5.844
 3586POPC   C1A46755   2.541   1.355   6.150
 3586POPC   D2A46756   2.559   1.199   6.597
 3586POPC   C3A46757   2.685   1.526   6.871
 3586POPC   C4A46758   2.739   1.600   7.276
 3586POPC   C1B46759   2.845   0.956   6.245
 3586POPC   C2B46760   2.993   0.781   6.624
 3586POPC   C3B46761   2.830   0.899   6.981
 3586POPC   C4B46762   2.906   1.098   7.338
 3587POPC   NC346763  32.691  11.979   5.441
 3587POPC   PO446764  33.169  12.505   5.346
 3587POPC   GL146765  33.102  12.194   5.689
 3587POPC   GL246766  32.794  12.271   5.846
 3587POPC   C1A46767  33.123  11.997   6.132
 3587POPC   D2A46768  33.328  12.119   6.546
 3587POPC   C3A46769  33.145  11.996   6.970
 3587POPC   C4A46770  33.014  12.003   7.418
 3587POPC   C1B46771  32.868  12.437   6.250
 3587POPC   C2B46772  32.797  12.259   6.654
 3587POPC   C3B46773  32.692  12.267   7.082
 3587POPC   C4B46774  32.668  12.315   7.580
 3588POPC   NC346775  41.005  41.982   5.604
 3588POPC   PO446776  40.439  42.266   5.503
 3588POPC   GL146777  40.707  42.353   5.850
 3588POPC   GL246778  40.658  42.709   5.787
 3588POPC   C1A46779  40.910  42.215   6.263
 3588POPC   D2A46780  40.996  41.985   6.672
 3588POPC   C3A46781  40.923  42.167   7.102
 3588POPC   C4A46782  40.765  42.394   7.455
 3588POPC   C1B46783  40.718  42.707   6.223
 3588POPC   C2B46784  40.731  42.507   6.636
 3588POPC   C3B46785  40.832  42.680   7.028
 3588POPC   C4B46786  40.548  42.832   7.344
 3589POPC   NC346787  31.504  25.690   5.370
 3589POPC   PO446788  31.685  25.025   5.378
 3589POPC   GL146789  31.471  25.274   5.735
 3589POPC   GL246790  31.141  25.457   5.710
 3589POPC   C1A46791  31.547  25.255   6.195
 3589POPC   D2A46792  31.807  25.276   6.573
 3589POPC   C3A46793  31.680  25.089   6.953
 3589POPC   C4A46794  31.675  25.403   7.267
 3589POPC   C1B46795  31.169  25.599   6.130
 3589POPC   C2B46796  31.450  25.686   6.494
 3589POPC   C3B46797  31.340  25.611   6.934
 3589POPC   C4B46798  31.025  25.452   7.247
 3590POPC   NC346799  11.603  20.054   5.392
 3590POPC   PO446800  10.957  19.816   5.441
 3590POPC   GL146801  10.987  19.850   5.844
 3590POPC   GL246802  11.322  19.770   5.871
 3590POPC   C1A46803  10.964  19.730   6.259
 3590POPC   D2A46804  10.807  19.779   6.648
 3590POPC   C3A46805  11.075  19.962   6.931
 3590POPC   C4A46806  11.087  19.608   7.165
 3590POPC   C1B46807  11.491  19.741   6.272
 3590POPC   C2B46808  11.537  19.919   6.688
 3590POPC   C3B46809  11.562  19.792   7.126
 3590POPC   C4B46810  11.720  19.481   7.445
 3591POPC   NC346811  23.056  26.153   5.498
 3591POPC   PO446812  22.642  25.748   5.869
 3591POPC   GL146813  22.897  26.050   5.956
 3591POPC   GL246814  22.637  26.297   5.902
 3591POPC   C1A46815  23.194  25.998   6.283
 3591POPC   D2A46816  23.297  25.710   6.681
 3591POPC   C3A46817  23.140  25.880   7.095
 3591POPC   C4A46818  23.247  25.890   7.557
 3591POPC   C1B46819  22.692  26.270   6.343
 3591POPC   C2B46820  22.921  26.186   6.680
 3591POPC   C3B46821  22.694  26.126   7.015
 3591POPC   C4B46822  22.578  26.400   7.280
 3592POPC   NC346823   6.045   8.367   5.761
 3592POPC   PO446824   5.507   7.931   5.601
 3592POPC   GL146825   5.714   8.013   5.929
 3592POPC   GL246826   5.592   8.349   5.951
 3592POPC   C1A46827   5.899   7.980   6.323
 3592POPC   D2A46828   6.122   8.060   6.699
 3592POPC   C3A46829   5.868   8.166   7.049
 3592POPC   C4A46830   5.952   8.054   7.460
 3592POPC   C1B46831   5.735   8.534   6.332
 3592POPC   C2B46832   5.661   8.736   6.725
 3592POPC   C3B46833   5.674   8.782   7.166
 3592POPC   C4B46834   5.622   8.464   7.445
 3593POPC   NC346835  19.435  41.862   5.571
 3593POPC   PO446836  19.875  41.370   5.567
 3593POPC   GL146837  19.713  41.348   5.908
 3593POPC   GL246838  19.723  41.690   5.949
 3593POPC   C1A46839  19.947  41.384   6.278
 3593POPC   D2A46840  19.880  41.532   6.682
 3593POPC   C3A46841  19.979  41.352   7.058
 3593POPC   C4A46842  19.565  41.392   7.217
 3593POPC   C1B46843  19.543  41.741   6.338
 3593POPC   C2B46844  19.593  42.033   6.672
 3593POPC   C3B46845  19.833  41.926   7.011
 3593POPC   C4B46846  19.736  41.867   7.405
 3594POPC   NC346847  15.708  39.130   5.552
 3594POPC   PO446848  15.042  39.409   5.607
 3594POPC   GL146849  15.332  39.359   5.887
 3594POPC   GL246850  15.299  39.016   5.826
 3594POPC   C1A46851  15.164  39.373   6.292
 3594POPC   D2A46852  14.868  39.254   6.589
 3594POPC   C3A46853  15.007  39.393   6.964
 3594POPC   C4A46854  15.375  39.424   7.175
 3594POPC   C1B46855  15.186  38.852   6.198
 3594POPC   C2B46856  15.294  38.845   6.613
 3594POPC   C3B46857  15.219  38.924   7.059
 3594POPC   C4B46858  14.922  39.082   7.380
 3595POPC   NC346859   7.064  34.531   5.253
 3595POPC   PO446860   7.441  34.986   5.486
 3595POPC   GL146861   7.381  34.731   5.820
 3595POPC   GL246862   7.470  34.383   5.820
 3595POPC   C1A46863   7.253  34.668   6.213
 3595POPC   D2A46864   7.161  34.863   6.581
 3595POPC   C3A46865   7.347  34.662   6.911
 3595POPC   C4A46866   7.131  34.763   7.273
 3595POPC   C1B46867   7.562  34.241   6.264
 3595POPC   C2B46868   7.612  34.186   6.689
 3595POPC   C3B46869   7.733  34.332   7.088
 3595POPC   C4B46870   7.437  34.351   7.407
 3596POPC   NC346871   3.761   9.976   5.291
 3596POPC   PO446872   3.835   9.345   5.465
 3596POPC   GL146873   3.715   9.561   5.832
 3596POPC   GL246874   3.887   9.868   5.774
 3596POPC   C1A46875   3.415   9.561   6.214
 3596POPC   D2A46876   3.189   9.718   6.592
 3596POPC   C3A46877   3.271   9.525   7.008
 3596POPC   C4A46878   3.393   9.778   7.350
 3596POPC   C1B46879   3.820   9.894   6.213
 3596POPC   C2B46880   3.926   9.910   6.618
 3596POPC   C3B46881   3.584   9.958   6.897
 3596POPC   C4B46882   3.536  10.261   7.211
 3597POPC   NC346883  33.317  28.775   5.565
 3597POPC   PO446884  33.980  28.990   5.432
 3597POPC   GL146885  33.886  29.191   5.852
 3597POPC   GL246886  33.555  29.368   5.863
 3597POPC   C1A46887  33.737  29.063   6.251
 3597POPC   D2A46888  33.552  29.180   6.635
 3597POPC   C3A46889  33.739  28.952   7.013
 3597POPC   C4A46890  34.011  28.886   7.405
 3597POPC   C1B46891  33.589  29.606   6.255
 3597POPC   C2B46892  33.493  29.696   6.687
 3597POPC   C3B46893  33.746  29.487   6.998
 3597POPC   C4B46894  33.741  29.322   7.394
 3598POPC   NC346895  29.716   7.661   5.356
 3598POPC   PO446896  30.169   7.157   5.413
 3598POPC   GL146897  29.867   7.148   5.746
 3598POPC   GL246898  29.856   7.475   5.818
 3598POPC   C1A46899  29.735   7.119   6.188
 3598POPC   D2A46900  29.827   7.347   6.566
 3598POPC   C3A46901  29.760   7.159   6.940
 3598POPC   C4A46902  29.630   7.366   7.320
 3598POPC   C1B46903  29.892   7.694   6.181
 3598POPC   C2B46904  30.045   7.807   6.609
 3598POPC   C3B46905  29.929   7.657   7.006
 3598POPC   C4B46906  30.024   7.791   7.447
 3599POPC   NC346907   4.072  40.843   5.514
 3599POPC   PO446908   4.655  40.515   5.304
 3599POPC   GL146909   4.505  40.603   5.726
 3599POPC   GL246910   4.654  40.940   5.768
 3599POPC   C1A46911   4.268  40.610   6.142
 3599POPC   D2A46912   4.170  40.423   6.566
 3599POPC   C3A46913   4.255  40.682   6.894
 3599POPC   C4A46914   4.360  40.670   7.277
 3599POPC   C1B46915   4.590  41.038   6.184
 3599POPC   C2B46916   4.258  41.022   6.510
 3599POPC   C3B46917   4.369  41.206   6.907
 3599POPC   C4B46918   4.648  41.101   7.247
 3600POPC   NC346919  42.688  17.984   5.122
 3600POPC   PO446920  42.353  18.373   5.578
 3600POPC   GL146921  42.441  18.385   5.966
 3600POPC   GL246922  42.522  18.696   5.991
 3600POPC   C1A46923  42.500  18.203   6.353
 3600POPC   D2A46924  42.232  18.205   6.708
 3600POPC   C3A46925  42.408  18.221   7.111
 3600POPC   C4A46926  42.800  18.097   7.217
 3600POPC   C1B46927  42.433  18.699   6.416
 3600POPC   C2B46928  42.668  18.516   6.747
 3600POPC   C3B46929  42.697  18.671   7.148
 3600POPC   C4B46930  42.464  18.826   7.441
 3601POPC   NC346931  24.563  24.166   5.387
 3601POPC   PO446932  24.583  24.797   5.458
 3601POPC   GL146933  24.621  24.633   5.832
 3601POPC   GL246934  24.289  24.658   5.859
 3601POPC   C1A46935  24.742  24.710   6.251
 3601POPC   D2A46936  24.543  24.532   6.577
 3601POPC   C3A46937  24.588  24.712   6.945
 3601POPC   C4A46938  24.548  24.459   7.304
 3601POPC   C1B46939  24.148  24.506   6.217
 3601POPC   C2B46940  24.084  24.315   6.583
 3601POPC   C3B46941  24.146  24.457   6.982
 3601POPC   C4B46942  24.063  24.508   7.406
 3602POPC   NC346943  40.134  37.314   5.520
 3602POPC   PO446944  40.293  37.932   5.693
 3602POPC   GL146945  39.923  37.735   5.897
 3602POPC   GL246946  39.952  37.430   6.031
 3602POPC   C1A46947  39.709  37.736   6.347
 3602POPC   D2A46948  39.800  37.544   6.773
 3602POPC   C3A46949  39.583  37.721   7.150
 3602POPC   C4A46950  39.567  38.055   7.462
 3602POPC   C1B46951  40.214  37.768   6.302
 3602POPC   C2B46952  40.081  37.999   6.661
 3602POPC   C3B46953  40.094  37.880   7.088
 3602POPC   C4B46954  40.050  37.466   7.218
 3603POPC   NC346955  33.869  40.648   5.226
 3603POPC   PO446956  34.134  41.088   5.677
 3603POPC   GL146957  33.943  40.940   5.992
 3603POPC   GL246958  33.814  40.585   5.952
 3603POPC   C1A46959  33.933  40.925   6.373
 3603POPC   D2A46960  33.717  40.979   6.676
 3603POPC   C3A46961  33.954  41.009   7.002
 3603POPC   C4A46962  34.114  41.062   7.379
 3603POPC   C1B46963  33.488  40.529   6.273
 3603POPC   C2B46964  33.390  40.599   6.695
 3603POPC   C3B46965  33.712  40.558   6.989
 3603POPC   C4B46966  33.750  40.736   7.369
 3604POPC   NC346967  33.607   0.526   5.489
 3604POPC   PO446968  34.149   0.077   5.328
 3604POPC   GL146969  33.945   0.232   5.740
 3604POPC   GL246970  34.017   0.567   5.858
 3604POPC   C1A46971  33.721   0.291   6.153
 3604POPC   D2A46972  33.885   0.277   6.570
 3604POPC   C3A46973  33.723   0.502   6.920
 3604POPC   C4A46974  33.636   0.561   7.352
 3604POPC   C1B46975  34.107   0.802   6.213
 3604POPC   C2B46976  34.026   0.836   6.653
 3604POPC   C3B46977  34.064   0.855   7.100
 3604POPC   C4B46978  34.044   0.770   7.589
 3605POPC   NC346979  38.791   5.263   5.601
 3605POPC   PO446980  38.367   4.813   5.539
 3605POPC   GL146981  38.462   5.012   5.924
 3605POPC   GL246982  38.736   4.835   5.952
 3605POPC   C1A46983  38.339   5.218   6.342
 3605POPC   D2A46984  38.197   5.138   6.774
 3605POPC   C3A46985  38.320   5.271   7.184
 3605POPC   C4A46986  38.725   5.391   7.441
 3605POPC   C1B46987  38.830   5.093   6.287
 3605POPC   C2B46988  38.698   5.286   6.678
 3605POPC   C3B46989  38.754   5.102   7.030
 3605POPC   C4B46990  38.658   4.891   7.434
 3606POPC   NC346991  22.642  16.094   5.494
 3606POPC   PO446992  23.058  15.539   5.396
 3606POPC   GL146993  22.911  15.766   5.756
 3606POPC   GL246994  23.199  15.910   5.833
 3606POPC   C1A46995  22.773  15.990   6.143
 3606POPC   D2A46996  22.629  15.844   6.561
 3606POPC   C3A46997  22.689  16.053   6.946
 3606POPC   C4A46998  22.904  15.871   7.282
 3606POPC   C1B46999  23.291  15.942   6.254
 3606POPC   C2B47000  23.045  16.172   6.544
 3606POPC   C3B47001  23.121  16.347   6.912
 3606POPC   C4B47002  23.112  16.332   7.295
 3607POPC   NC347003  17.225  22.511   5.567
 3607POPC   PO447004  17.512  21.999   5.534
 3607POPC   GL147005  17.662  22.238   5.864
 3607POPC   GL247006  17.687  21.941   6.038
 3607POPC   C1A47007  17.901  22.376   6.230
 3607POPC   D2A47008  17.748  22.496   6.629
 3607POPC   C3A47009  17.677  22.196   6.965
 3607POPC   C4A47010  17.617  22.297   7.447
 3607POPC   C1B47011  17.560  22.042   6.450
 3607POPC   C2B47012  17.308  21.867   6.781
 3607POPC   C3B47013  17.235  22.066   7.172
 3607POPC   C4B47014  17.294  21.935   7.621
 3608POPC   NC347015   2.228  35.004   5.619
 3608POPC   PO447016   1.900  35.566   5.459
 3608POPC   GL147017   1.910  35.684   5.841
 3608POPC   GL247018   1.960  35.312   5.932
 3608POPC   C1A47019   1.920  35.712   6.245
 3608POPC   D2A47020   1.899  35.385   6.487
 3608POPC   C3A47021   2.000  35.512   6.891
 3608POPC   C4A47022   2.029  35.491   7.340
 3608POPC   C1B47023   1.700  35.027   6.163
 3608POPC   C2B47024   1.512  35.020   6.557
 3608POPC   C3B47025   1.709  35.092   6.897
 3608POPC   C4B47026   1.924  34.924   7.236
 3609POPC   NC347027  25.594   7.300   5.497
 3609POPC   PO447028  24.943   7.595   5.342
 3609POPC   GL147029  25.171   7.658   5.742
 3609POPC   GL247030  25.213   7.325   5.874
 3609POPC   C1A47031  25.146   7.715   6.213
 3609POPC   D2A47032  25.456   7.711   6.563
 3609POPC   C3A47033  25.373   7.548   6.974
 3609POPC   C4A47034  25.211   7.801   7.302
 3609POPC   C1B47035  25.368   7.268   6.297
 3609POPC   C2B47036  25.193   7.154   6.692
 3609POPC   C3B47037  25.341   7.025   7.091
 3609POPC   C4B47038  25.428   7.228   7.470
 3610POPC   NC347039  38.635  43.283   5.406
 3610POPC   PO447040  38.351  43.931   5.252
 3610POPC   GL147041  38.360  43.775   5.689
 3610POPC   GL247042  38.368  44.061   5.928
 3610POPC   C1A47043  38.256  43.606   6.115
 3610POPC   D2A47044  38.309  43.860   6.504
 3610POPC   C3A47045  38.301  43.604   6.900
 3610POPC   C4A47046  38.475  43.660   7.307
 3610POPC   C1B47047  38.661  44.258   6.226
 3610POPC   C2B47048  38.820  44.116   6.611
 3610POPC   C3B47049  38.592  44.039   6.976
 3610POPC   C4B47050  38.648  44.259   7.339
 3611POPC   NC347051  16.395  13.724   5.467
 3611POPC   PO447052  15.719  13.486   5.493
 3611POPC   GL147053  15.978  13.739   5.810
 3611POPC   GL247054  16.250  13.516   5.907
 3611POPC   C1A47055  15.894  13.679   6.266
 3611POPC   D2A47056  15.736  13.346   6.532
 3611POPC   C3A47057  15.661  13.525   6.941
 3611POPC   C4A47058  15.831  13.936   7.085
 3611POPC   C1B47059  16.220  13.273   6.278
 3611POPC   C2B47060  16.222  13.373   6.697
 3611POPC   C3B47061  16.120  13.393   7.120
 3611POPC   C4B47062  16.140  13.241   7.577
 3612POPC   NC347063  19.715   1.454   5.082
 3612POPC   PO447064  20.078   0.951   5.432
 3612POPC   GL147065  19.879   1.065   5.810
 3612POPC   GL247066  19.741   1.401   5.797
 3612POPC   C1A47067  20.004   1.165   6.228
 3612POPC   D2A47068  20.091   0.970   6.622
 3612POPC   C3A47069  19.889   1.070   6.989
 3612POPC   C4A47070  19.784   1.191   7.418
 3612POPC   C1B47071  19.536   1.358   6.204
 3612POPC   C2B47072  19.715   1.409   6.649
 3612POPC   C3B47073  19.612   1.534   7.110
 3612POPC   C4B47074  19.786   1.680   7.546
 3613POPC   NC347075  30.178  10.922   5.482
 3613POPC   PO447076  30.517  10.396   5.123
 3613POPC   GL147077  30.604  10.589   5.597
 3613POPC   GL247078  30.847  10.404   5.819
 3613POPC   C1A47079  30.529  10.738   6.059
 3613POPC   D2A47080  30.495  10.513   6.480
 3613POPC   C3A47081  30.707  10.632   6.876
 3613POPC   C4A47082  30.526  10.513   7.289
 3613POPC   C1B47083  30.959  10.429   6.238
 3613POPC   C2B47084  30.872  10.175   6.593
 3613POPC   C3B47085  30.883  10.166   7.013
 3613POPC   C4B47086  31.029  10.230   7.427
 3614POPC   NC347087  24.615   7.285   5.479
 3614POPC   PO447088  24.331   7.884   5.370
 3614POPC   GL147089  24.318   7.632   5.726
 3614POPC   GL247090  24.667   7.732   5.752
 3614POPC   C1A47091  24.207   7.367   6.117
 3614POPC   D2A47092  24.051   7.409   6.563
 3614POPC   C3A47093  24.322   7.659   6.837
 3614POPC   C4A47094  24.443   7.484   7.240
 3614POPC   C1B47095  24.713   7.466   6.096
 3614POPC   C2B47096  24.620   7.357   6.519
 3614POPC   C3B47097  24.842   7.541   6.879
 3614POPC   C4B47098  24.955   7.369   7.270
 3615POPC   NC347099  38.208  14.828   5.320
 3615POPC   PO447100  38.522  14.289   5.355
 3615POPC   GL147101  38.513  14.121   5.756
 3615POPC   GL247102  38.189  14.269   5.786
 3615POPC   C1A47103  38.633  14.054   6.206
 3615POPC   D2A47104  38.565  14.259   6.605
 3615POPC   C3A47105  38.502  14.168   7.044
 3615POPC   C4A47106  38.536  14.443   7.433
 3615POPC   C1B47107  38.253  14.410   6.202
 3615POPC   C2B47108  38.072  14.432   6.625
 3615POPC   C3B47109  38.118  14.499   7.088
 3615POPC   C4B47110  37.965  14.373   7.515
 3616POPC   NC347111  32.536  34.976   5.484
 3616POPC   PO447112  31.921  34.690   5.399
 3616POPC   GL147113  32.266  34.642   5.755
 3616POPC   GL247114  32.412  34.889   5.987
 3616POPC   C1A47115  32.355  34.368   6.114
 3616POPC   D2A47116  32.085  34.302   6.489
 3616POPC   C3A47117  32.260  34.444   6.901
 3616POPC   C4A47118  32.314  34.229   7.323
 3616POPC   C1B47119  31.982  34.731   6.163
 3616POPC   C2B47120  31.798  34.737   6.579
 3616POPC   C3B47121  31.783  34.789   7.021
 3616POPC   C4B47122  32.143  34.761   7.297
 3617POPC   NC347123  28.340  32.529   5.566
 3617POPC   PO447124  28.802  33.015   5.337
 3617POPC   GL147125  28.572  32.957   5.772
 3617POPC   GL247126  28.208  33.061   5.725
 3617POPC   C1A47127  28.507  33.035   6.246
 3617POPC   D2A47128  28.639  32.902   6.701
 3617POPC   C3A47129  28.462  32.959   7.135
 3617POPC   C4A47130  28.283  33.202   7.453
 3617POPC   C1B47131  28.038  32.893   6.101
 3617POPC   C2B47132  28.092  32.875   6.545
 3617POPC   C3B47133  28.021  32.784   6.979
 3617POPC   C4B47134  28.081  32.745   7.439
 3618POPC   NC347135   9.206  14.699   5.451
 3618POPC   PO447136   8.546  14.296   5.475
 3618POPC   GL147137   8.949  14.281   5.717
 3618POPC   GL247138   9.133  13.965   5.704
 3618POPC   C1A47139   9.062  14.397   6.153
 3618POPC   D2A47140   8.878  14.677   6.475
 3618POPC   C3A47141   8.902  14.554   6.912
 3618POPC   C4A47142   9.236  14.432   7.185
 3618POPC   C1B47143   8.914  13.914   6.102
 3618POPC   C2B47144   9.011  13.957   6.521
 3618POPC   C3B47145   8.778  14.024   6.901
 3618POPC   C4B47146   8.784  14.197   7.313
 3619POPC   NC347147   6.398  12.376   5.384
 3619POPC   PO447148   6.616  11.703   5.298
 3619POPC   GL147149   6.657  11.941   5.757
 3619POPC   GL247150   6.579  12.302   5.866
 3619POPC   C1A47151   6.958  11.928   6.128
 3619POPC   D2A47152   7.108  12.012   6.565
 3619POPC   C3A47153   6.752  12.124   6.841
 3619POPC   C4A47154   6.604  11.975   7.244
 3619POPC   C1B47155   6.611  12.336   6.339
 3619POPC   C2B47156   6.531  12.590   6.740
 3619POPC   C3B47157   6.329  12.384   7.121
 3619POPC   C4B47158   6.328  12.293   7.570
 3620POPC   NC347159  39.513  21.676   5.452
 3620POPC   PO447160  39.510  21.072   5.474
 3620POPC   GL147161  39.126  21.186   5.735
 3620POPC   GL247162  38.940  21.529   5.784
 3620POPC   C1A47163  39.016  21.179   6.174
 3620POPC   D2A47164  38.870  21.192   6.591
 3620POPC   C3A47165  39.090  21.176   6.982
 3620POPC   C4A47166  39.410  21.350   7.252
 3620POPC   C1B47167  39.247  21.642   6.133
 3620POPC   C2B47168  39.419  21.687   6.573
 3620POPC   C3B47169  39.247  21.757   6.983
 3620POPC   C4B47170  38.970  21.581   7.297
 3621POPC   NC347171   4.668  26.773   5.404
 3621POPC   PO447172   3.959  26.488   5.351
 3621POPC   GL147173   4.219  26.628   5.725
 3621POPC   GL247174   4.561  26.643   5.891
 3621POPC   C1A47175   4.131  26.748   6.147
 3621POPC   D2A47176   4.252  26.924   6.546
 3621POPC   C3A47177   4.142  26.652   6.864
 3621POPC   C4A47178   4.118  26.686   7.297
 3621POPC   C1B47179   4.654  26.733   6.277
 3621POPC   C2B47180   4.624  26.582   6.677
 3621POPC   C3B47181   4.608  26.719   7.071
 3621POPC   C4B47182   4.584  26.547   7.473
 3622POPC   NC347183   7.725   7.945   5.544
 3622POPC   PO447184   8.086   7.284   5.553
 3622POPC   GL147185   8.112   7.403   5.923
 3622POPC   GL247186   8.114   7.752   5.865
 3622POPC   C1A47187   8.211   7.237   6.298
 3622POPC   D2A47188   8.468   7.069   6.605
 3622POPC   C3A47189   8.278   7.219   6.968
 3622POPC   C4A47190   8.413   7.311   7.349
 3622POPC   C1B47191   8.327   7.742   6.251
 3622POPC   C2B47192   8.353   7.606   6.646
 3622POPC   C3B47193   8.410   7.751   7.056
 3622POPC   C4B47194   8.225   7.809   7.457
 3623POPC   NC347195  22.708   7.011   5.249
 3623POPC   PO447196  23.014   6.520   5.498
 3623POPC   GL147197  22.806   6.640   5.857
 3623POPC   GL247198  22.933   6.954   5.741
 3623POPC   C1A47199  22.896   6.564   6.314
 3623POPC   D2A47200  22.919   6.674   6.750
 3623POPC   C3A47201  22.732   6.563   7.121
 3623POPC   C4A47202  22.915   6.459   7.526
 3623POPC   C1B47203  23.199   6.928   6.096
 3623POPC   C2B47204  23.098   7.077   6.472
 3623POPC   C3B47205  23.015   7.161   6.853
 3623POPC   C4B47206  23.080   6.943   7.214
 3624POPC   NC347207  30.220  18.896   5.431
 3624POPC   PO447208  29.567  18.967   5.401
 3624POPC   GL147209  29.883  19.057   5.755
 3624POPC   GL247210  30.164  19.318   5.738
 3624POPC   C1A47211  30.137  18.931   6.124
 3624POPC   D2A47212  30.254  19.096   6.542
 3624POPC   C3A47213  30.123  18.846   6.900
 3624POPC   C4A47214  30.172  18.633   7.294
 3624POPC   C1B47215  30.060  19.426   6.169
 3624POPC   C2B47216  29.953  19.507   6.612
 3624POPC   C3B47217  30.125  19.390   6.968
 3624POPC   C4B47218  30.000  19.155   7.281
 3625POPC   NC347219  19.716  34.380   5.412
 3625POPC   PO447220  20.235  34.911   5.327
 3625POPC   GL147221  20.018  34.637   5.727
 3625POPC   GL247222  20.074  34.296   5.807
 3625POPC   C1A47223  19.751  34.507   6.129
 3625POPC   D2A47224  19.638  34.731   6.522
 3625POPC   C3A47225  19.825  34.594   6.910
 3625POPC   C4A47226  19.637  34.498   7.283
 3625POPC   C1B47227  20.058  34.096   6.187
 3625POPC   C2B47228  19.892  34.248   6.555
 3625POPC   C3B47229  19.706  34.068   6.922
 3625POPC   C4B47230  19.893  34.041   7.289
 3626POPC   NC347231  26.004  35.922   5.333
 3626POPC   PO447232  26.453  36.372   5.248
 3626POPC   GL147233  26.300  36.150   5.685
 3626POPC   GL247234  25.942  36.271   5.780
 3626POPC   C1A47235  26.191  35.997   6.132
 3626POPC   D2A47236  26.286  35.990   6.605
 3626POPC   C3A47237  25.983  35.896   6.937
 3626POPC   C4A47238  25.859  35.994   7.395
 3626POPC   C1B47239  25.929  36.409   6.258
 3626POPC   C2B47240  25.998  36.433   6.745
 3626POPC   C3B47241  25.849  36.458   7.200
 3626POPC   C4B47242  25.738  36.431   7.690
 3627POPC   NC347243  19.691  30.651   5.357
 3627POPC   PO447244  20.099  31.081   5.097
 3627POPC   GL147245  20.124  30.797   5.610
 3627POPC   GL247246  19.823  30.719   5.840
 3627POPC   C1A47247  20.182  30.889   6.131
 3627POPC   D2A47248  20.033  30.714   6.521
 3627POPC   C3A47249  20.018  30.740   6.972
 3627POPC   C4A47250  19.621  30.862   7.214
 3627POPC   C1B47251  19.898  30.367   6.168
 3627POPC   C2B47252  19.674  30.226   6.576
 3627POPC   C3B47253  19.796  30.244   7.049
 3627POPC   C4B47254  19.911  30.509   7.429
 3628POPC   NC347255   6.646  25.544   5.462
 3628POPC   PO447256   6.492  24.933   5.267
 3628POPC   GL147257   6.740  25.134   5.737
 3628POPC   GL247258   6.562  25.445   5.937
 3628POPC   C1A47259   6.983  25.336   6.150
 3628POPC   D2A47260   6.823  25.561   6.571
 3628POPC   C3A47261   6.937  25.455   7.022
 3628POPC   C4A47262   6.672  25.243   7.392
 3628POPC   C1B47263   6.510  25.201   6.296
 3628POPC   C2B47264   6.275  25.332   6.604
 3628POPC   C3B47265   6.433  25.438   6.970
 3628POPC   C4B47266   6.289  25.615   7.310
 3629POPC   NC347267  31.699  19.346   5.441
 3629POPC   PO447268  31.336  18.798   5.480
 3629POPC   GL147269  31.408  19.087   5.800
 3629POPC   GL247270  31.725  19.014   5.861
 3629POPC   C1A47271  31.177  19.330   6.123
 3629POPC   D2A47272  31.305  19.291   6.537
 3629POPC   C3A47273  31.087  19.282   6.900
 3629POPC   C4A47274  31.350  19.151   7.229
 3629POPC   C1B47275  31.667  18.992   6.293
 3629POPC   C2B47276  31.839  19.143   6.687
 3629POPC   C3B47277  31.852  19.065   7.110
 3629POPC   C4B47278  31.650  18.746   7.339
 3630POPC   NC347279  18.882  42.467   5.415
 3630POPC   PO447280  19.521  42.296   5.440
 3630POPC   GL147281  19.192  42.253   5.787
 3630POPC   GL247282  19.392  42.195   6.077
 3630POPC   C1A47283  18.826  42.276   6.099
 3630POPC   D2A47284  18.769  42.494   6.518
 3630POPC   C3A47285  19.067  42.312   6.847
 3630POPC   C4A47286  18.987  42.206   7.291
 3630POPC   C1B47287  19.194  42.611   6.261
 3630POPC   C2B47288  19.137  42.837   6.682
 3630POPC   C3B47289  19.304  42.763   7.108
 3630POPC   C4B47290  19.273  42.536   7.533
 3631POPC   NC347291  28.274   9.854   5.635
 3631POPC   PO447292  28.676   9.584   5.167
 3631POPC   GL147293  28.467   9.417   5.676
 3631POPC   GL247294  28.089   9.341   5.628
 3631POPC   C1A47295  28.499   9.491   6.149
 3631POPC   D2A47296  28.560   9.530   6.604
 3631POPC   C3A47297  28.430   9.888   6.838
 3631POPC   C4A47298  28.397   9.754   7.263
 3631POPC   C1B47299  28.000   9.325   6.081
 3631POPC   C2B47300  28.050   9.531   6.497
 3631POPC   C3B47301  28.004   9.624   6.944
 3631POPC   C4B47302  27.920   9.378   7.301
 3632POPC   NC347303  21.764  44.086   5.494
 3632POPC   PO447304  21.184  43.729   5.342
 3632POPC   GL147305  21.395  43.865   5.811
 3632POPC   GL247306  21.560  44.194   5.951
 3632POPC   C1A47307  21.446  43.809   6.300
 3632POPC   D2A47308  21.168  43.644   6.679
 3632POPC   C3A47309  21.040  43.757   7.138
 3632POPC   C4A47310  20.924  43.862   7.590
 3632POPC   C1B47311  21.840  44.130   6.308
 3632POPC   C2B47312  21.696  44.037   6.720
 3632POPC   C3B47313  21.541  43.856   7.102
 3632POPC   C4B47314  21.430  43.796   7.564
 3633POPC   NC347315   8.041  20.954   5.446
 3633POPC   PO447316   8.521  20.397   5.528
 3633POPC   GL147317   8.276  20.457   5.897
 3633POPC   GL247318   8.040  20.716   5.889
 3633POPC   C1A47319   8.309  20.377   6.339
 3633POPC   D2A47320   8.599  20.315   6.700
 3633POPC   C3A47321   8.386  20.144   7.061
 3633POPC   C4A47322   8.032  20.315   7.271
 3633POPC   C1B47323   8.382  20.897   6.113
 3633POPC   C2B47324   8.299  20.857   6.526
 3633POPC   C3B47325   8.150  20.656   6.873
 3633POPC   C4B47326   8.287  20.942   7.152
 3634POPC   NC347327  40.764  13.969   5.408
 3634POPC   PO447328  40.567  13.334   5.514
 3634POPC   GL147329  40.881  13.546   5.769
 3634POPC   GL247330  40.821  13.875   5.915
 3634POPC   C1A47331  41.060  13.506   6.168
 3634POPC   D2A47332  40.843  13.685   6.511
 3634POPC   C3A47333  41.065  13.605   6.893
 3634POPC   C4A47334  40.911  13.611   7.303
 3634POPC   C1B47335  40.496  14.025   6.197
 3634POPC   C2B47336  40.391  13.905   6.617
 3634POPC   C3B47337  40.654  13.935   6.978
 3634POPC   C4B47338  40.584  14.008   7.425
 3635POPC   NC347339  37.700   2.130   5.456
 3635POPC   PO447340  37.214   1.529   5.287
 3635POPC   GL147341  37.441   1.681   5.676
 3635POPC   GL247342  37.805   1.661   5.758
 3635POPC   C1A47343  37.506   1.760   6.156
 3635POPC   D2A47344  37.732   1.762   6.586
 3635POPC   C3A47345  37.546   2.022   6.949
 3635POPC   C4A47346  37.489   1.985   7.425
 3635POPC   C1B47347  38.014   1.913   6.128
 3635POPC   C2B47348  37.948   2.228   6.493
 3635POPC   C3B47349  38.049   2.126   6.920
 3635POPC   C4B47350  37.968   1.735   7.175
 3636POPC   NC347351  40.555  35.555   5.524
 3636POPC   PO447352  41.108  35.261   5.367
 3636POPC   GL147353  40.905  35.077   5.776
 3636POPC   GL247354  40.573  35.229   5.922
 3636POPC   C1A47355  40.983  35.227   6.214
 3636POPC   D2A47356  40.658  35.163   6.519
 3636POPC   C3A47357  40.836  35.263   6.918
 3636POPC   C4A47358  40.742  35.168   7.340
 3636POPC   C1B47359  40.607  35.608   6.236
 3636POPC   C2B47360  40.515  35.616   6.700
 3636POPC   C3B47361  40.683  35.729   7.086
 3636POPC   C4B47362  40.698  35.644   7.520
 3637POPC   NC347363  26.464  25.390   5.588
 3637POPC   PO447364  27.065  25.084   5.495
 3637POPC   GL147365  26.890  25.305   5.877
 3637POPC   GL247366  26.676  25.063   6.020
 3637POPC   C1A47367  27.057  25.371   6.296
 3637POPC   D2A47368  27.004  25.081   6.626
 3637POPC   C3A47369  26.993  25.188   7.062
 3637POPC   C4A47370  26.863  24.888   7.372
 3637POPC   C1B47371  26.484  25.401   6.272
 3637POPC   C2B47372  26.346  25.303   6.723
 3637POPC   C3B47373  26.471  25.108   7.116
 3637POPC   C4B47374  26.593  25.279   7.528
 3638POPC   NC347375   1.738  14.117   5.416
 3638POPC   PO447376   1.862  14.737   5.261
 3638POPC   GL147377   1.940  14.632   5.715
 3638POPC   GL247378   2.271  14.675   5.859
 3638POPC   C1A47379   1.879  14.594   6.191
 3638POPC   D2A47380   1.930  14.730   6.659
 3638POPC   C3A47381   1.698  14.459   6.943
 3638POPC   C4A47382   1.762  14.036   7.060
 3638POPC   C1B47383   2.392  14.473   6.236
 3638POPC   C2B47384   2.442  14.211   6.615
 3638POPC   C3B47385   2.212  14.357   6.983
 3638POPC   C4B47386   2.160  14.777   7.185
 3639POPC   NC347387  41.337   7.781   5.478
 3639POPC   PO447388  41.569   7.075   5.419
 3639POPC   GL147389  41.615   7.406   5.773
 3639POPC   GL247390  41.351   7.511   5.937
 3639POPC   C1A47391  41.725   7.318   6.212
 3639POPC   D2A47392  41.421   7.296   6.540
 3639POPC   C3A47393  41.588   7.188   6.921
 3639POPC   C4A47394  41.436   6.969   7.228
 3639POPC   C1B47395  41.455   7.743   6.255
 3639POPC   C2B47396  41.723   7.711   6.624
 3639POPC   C3B47397  41.534   7.677   7.030
 3639POPC   C4B47398  41.347   7.448   7.337
 3640POPC   NC347399  30.677   5.304   5.559
 3640POPC   PO447400  30.602   4.675   5.436
 3640POPC   GL147401  30.844   4.812   5.798
 3640POPC   GL247402  30.549   4.947   5.990
 3640POPC   C1A47403  31.014   4.767   6.224
 3640POPC   D2A47404  30.970   4.956   6.645
 3640POPC   C3A47405  30.550   5.035   6.821
 3640POPC   C4A47406  30.393   4.895   7.230
 3640POPC   C1B47407  30.469   5.296   6.309
 3640POPC   C2B47408  30.376   5.522   6.716
 3640POPC   C3B47409  30.313   5.390   7.140
 3640POPC   C4B47410  30.539   5.252   7.535
 3641POPC   NC347411  10.130  31.264   5.392
 3641POPC   PO447412  10.741  31.650   5.453
 3641POPC   GL147413  10.517  31.435   5.737
 3641POPC   GL247414  10.271  31.636   5.899
 3641POPC   C1A47415  10.657  31.401   6.144
 3641POPC   D2A47416  10.811  31.600   6.494
 3641POPC   C3A47417  10.525  31.564   6.820
 3641POPC   C4A47418  10.474  31.391   7.260
 3641POPC   C1B47419  10.323  31.763   6.326
 3641POPC   C2B47420  10.125  31.906   6.710
 3641POPC   C3B47421  10.247  31.830   7.139
 3641POPC   C4B47422  10.080  31.613   7.495
 3642POPC   NC347423  42.624  13.601   5.300
 3642POPC   PO447424  41.983  13.644   5.399
 3642POPC   GL147425  42.225  13.768   5.797
 3642POPC   GL247426  42.556  13.595   5.825
 3642POPC   C1A47427  42.229  13.592   6.250
 3642POPC   D2A47428  41.980  13.387   6.625
 3642POPC   C3A47429  42.168  13.538   6.995
 3642POPC   C4A47430  42.422  13.839   7.225
 3642POPC   C1B47431  42.723  13.491   6.235
 3642POPC   C2B47432  42.702  13.618   6.672
 3642POPC   C3B47433  42.692  13.351   7.024
 3642POPC   C4B47434  42.425  13.261   7.350
 3643POPC   NC347435  17.132  44.968   5.350
 3643POPC   PO447436  17.760  44.661   5.455
 3643POPC   GL147437  17.608  44.779   5.838
 3643POPC   GL247438  17.238  44.774   5.825
 3643POPC   C1A47439  17.529  44.662   6.251
 3643POPC   D2A47440  17.305  44.760   6.594
 3643POPC   C3A47441  17.543  44.750   6.934
 3643POPC   C4A47442  17.842  44.548   7.173
 3643POPC   C1B47443  17.019  44.566   6.187
 3643POPC   C2B47444  17.026  44.285   6.558
 3643POPC   C3B47445  17.092  44.407   6.991
 3643POPC   C4B47446  17.348  44.565   7.358
 3644POPC   NC347447  25.460   2.440   5.367
 3644POPC   PO447448  24.791   2.550   5.446
 3644POPC   GL147449  25.203   2.748   5.716
 3644POPC   GL247450  25.540   2.529   5.854
 3644POPC   C1A47451  25.371   2.918   6.121
 3644POPC   D2A47452  25.310   2.749   6.536
 3644POPC   C3A47453  25.425   2.847   6.954
 3644POPC   C4A47454  25.297   2.759   7.345
 3644POPC   C1B47455  25.663   2.288   6.257
 3644POPC   C2B47456  25.691   2.440   6.712
 3644POPC   C3B47457  25.664   2.387   7.181
 3644POPC   C4B47458  25.553   2.384   7.650
 3645POPC   NC347459  21.975  35.741   5.142
 3645POPC   PO447460  22.270  36.267   5.537
 3645POPC   GL147461  22.251  36.232   5.942
 3645POPC   GL247462  21.895  36.348   5.945
 3645POPC   C1A47463  22.212  36.366   6.354
 3645POPC   D2A47464  22.040  36.098   6.641
 3645POPC   C3A47465  22.207  36.109   7.048
 3645POPC   C4A47466  22.334  36.011   7.453
 3645POPC   C1B47467  21.636  36.304   6.332
 3645POPC   C2B47468  21.596  36.247   6.808
 3645POPC   C3B47469  21.745  35.948   7.065
 3645POPC   C4B47470  21.842  36.156   7.435
 3646POPC   NC347471  37.405  17.738   5.094
 3646POPC   PO447472  37.808  18.120   5.527
 3646POPC   GL147473  37.530  18.268   5.856
 3646POPC   GL247474  37.432  18.616   5.795
 3646POPC   C1A47475  37.599  18.163   6.296
 3646POPC   D2A47476  37.988  18.268   6.530
 3646POPC   C3A47477  37.950  18.270   6.978
 3646POPC   C4A47478  37.874  17.913   7.246
 3646POPC   C1B47479  37.562  18.687   6.241
 3646POPC   C2B47480  37.538  18.514   6.693
 3646POPC   C3B47481  37.432  18.212   7.040
 3646POPC   C4B47482  37.083  18.117   7.353
 3647POPC   NC347483  38.793  42.047   5.519
 3647POPC   PO447484  38.207  42.309   5.467
 3647POPC   GL147485  38.452  42.378   5.861
 3647POPC   GL247486  38.778  42.228   5.993
 3647POPC   C1A47487  38.485  42.573   6.252
 3647POPC   D2A47488  38.555  42.376   6.639
 3647POPC   C3A47489  38.406  42.493   7.007
 3647POPC   C4A47490  38.682  42.353   7.274
 3647POPC   C1B47491  38.569  42.019   6.277
 3647POPC   C2B47492  38.734  41.839   6.638
 3647POPC   C3B47493  38.853  41.894   7.042
 3647POPC   C4B47494  38.562  41.889   7.369
 3648POPC   NC347495  17.728  18.042   5.315
 3648POPC   PO447496  17.394  18.655   5.378
 3648POPC   GL147497  17.549  18.353   5.726
 3648POPC   GL247498  17.359  18.024   5.723
 3648POPC   C1A47499  17.606  18.187   6.184
 3648POPC   D2A47500  17.428  18.258   6.636
 3648POPC   C3A47501  17.583  18.250   7.091
 3648POPC   C4A47502  17.439  18.375   7.507
 3648POPC   C1B47503  17.427  17.719   6.079
 3648POPC   C2B47504  17.504  17.750   6.515
 3648POPC   C3B47505  17.360  17.818   6.942
 3648POPC   C4B47506  17.464  17.796   7.373
 3649POPC   NC347507  44.829  28.322   5.556
 3649POPC   PO447508  44.173  28.542   5.372
 3649POPC   GL147509  44.392  28.474   5.769
 3649POPC   GL247510  44.388  28.099   5.682
 3649POPC   C1A47511  44.577  28.539   6.206
 3649POPC   D2A47512  44.562  28.324   6.617
 3649POPC   C3A47513  44.892  28.425   6.902
 3649POPC   C4A47514  44.786  28.745   7.188
 3649POPC   C1B47515  44.375  28.067   6.136
 3649POPC   C2B47516  44.463  27.824   6.534
 3649POPC   C3B47517  44.343  27.939   6.955
 3649POPC   C4B47518  44.453  28.330   7.150
 3650POPC   NC347519  31.863  22.840   5.568
 3650POPC   PO447520  32.512  23.057   5.463
 3650POPC   GL147521  32.333  22.956   5.822
 3650POPC   GL247522  32.596  22.818   5.972
 3650POPC   C1A47523  32.124  23.071   6.193
 3650POPC   D2A47524  32.249  23.285   6.571
 3650POPC   C3A47525  32.162  23.109   6.977
 3650POPC   C4A47526  31.879  23.003   7.299
 3650POPC   C1B47527  32.551  22.896   6.415
 3650POPC   C2B47528  32.630  23.003   6.837
 3650POPC   C3B47529  32.557  22.829   7.239
 3650POPC   C4B47530  32.646  22.917   7.673
 3651POPC   NC347531  39.216  20.722   5.485
 3651POPC   PO447532  39.373  20.094   5.539
 3651POPC   GL147533  39.122  20.333   5.852
 3651POPC   GL247534  39.400  20.560   5.932
 3651POPC   C1A47535  39.053  20.480   6.291
 3651POPC   D2A47536  39.133  20.744   6.637
 3651POPC   C3A47537  39.152  20.569   7.035
 3651POPC   C4A47538  39.073  20.842   7.370
 3651POPC   C1B47539  39.439  20.899   6.254
 3651POPC   C2B47540  39.508  21.093   6.694
 3651POPC   C3B47541  39.531  20.889   7.113
 3651POPC   C4B47542  39.588  20.998   7.567
 3652POPC   NC347543  37.967  29.394   5.399
 3652POPC   PO447544  37.355  29.262   5.449
 3652POPC   GL147545  37.644  29.302   5.789
 3652POPC   GL247546  37.854  29.629   5.826
 3652POPC   C1A47547  37.516  29.091   6.152
 3652POPC   D2A47548  37.707  28.908   6.484
 3652POPC   C3A47549  37.801  29.120   6.818
 3652POPC   C4A47550  37.784  29.035   7.208
 3652POPC   C1B47551  37.921  29.425   6.246
 3652POPC   C2B47552  38.102  29.506   6.671
 3652POPC   C3B47553  38.058  29.514   7.124
 3652POPC   C4B47554  38.043  29.634   7.581
 3653POPC   NC347555  35.140  16.984   5.104
 3653POPC   PO447556  35.709  16.717   5.328
 3653POPC   GL147557  35.463  16.757   5.721
 3653POPC   GL247558  35.485  16.421   5.881
 3653POPC   C1A47559  35.255  16.799   6.151
 3653POPC   D2A47560  35.419  16.846   6.577
 3653POPC   C3A47561  35.263  16.842   7.001
 3653POPC   C4A47562  35.463  16.852   7.413
 3653POPC   C1B47563  35.605  16.378   6.328
 3653POPC   C2B47564  35.784  16.505   6.685
 3653POPC   C3B47565  35.604  16.474   7.090
 3653POPC   C4B47566  35.480  16.362   7.507
 3654POPC   NC347567  27.370  20.444   5.017
 3654POPC   PO447568  27.740  20.403   5.494
 3654POPC   GL147569  27.483  20.532   5.835
 3654POPC   GL247570  27.769  20.517   6.040
 3654POPC   C1A47571  27.268  20.383   6.232
 3654POPC   D2A47572  27.096  20.514   6.663
 3654POPC   C3A47573  27.326  20.602   7.070
 3654POPC   C4A47574  27.423  21.031   7.280
 3654POPC   C1B47575  27.574  20.797   6.349
 3654POPC   C2B47576  27.572  20.962   6.777
 3654POPC   C3B47577  27.831  20.759   7.095
 3654POPC   C4B47578  27.761  20.334   7.227
 3655POPC   NC347579   7.385  24.089   5.742
 3655POPC   PO447580   7.442  24.627   5.326
 3655POPC   GL147581   7.561  24.584   5.760
 3655POPC   GL247582   7.257  24.585   5.902
 3655POPC   C1A47583   7.656  24.565   6.222
 3655POPC   D2A47584   7.429  24.606   6.599
 3655POPC   C3A47585   7.554  24.283   6.859
 3655POPC   C4A47586   7.526  24.426   7.236
 3655POPC   C1B47587   7.118  24.358   6.271
 3655POPC   C2B47588   7.037  24.254   6.701
 3655POPC   C3B47589   7.070  24.547   7.035
 3655POPC   C4B47590   6.996  24.845   7.374
 3656POPC   NC347591  14.693  17.707   5.467
 3656POPC   PO447592  14.086  17.573   5.417
 3656POPC   GL147593  14.272  17.717   5.783
 3656POPC   GL247594  14.459  17.393   5.818
 3656POPC   C1A47595  14.228  17.612   6.217
 3656POPC   D2A47596  14.101  17.363   6.539
 3656POPC   C3A47597  14.301  17.475   6.914
 3656POPC   C4A47598  14.300  17.524   7.354
 3656POPC   C1B47599  14.363  17.102   6.164
 3656POPC   C2B47600  14.522  17.085   6.591
 3656POPC   C3B47601  14.556  17.059   7.038
 3656POPC   C4B47602  14.517  17.047   7.480
 3657POPC   NC347603   7.614   8.186   5.109
 3657POPC   PO447604   7.111   8.255   5.533
 3657POPC   GL147605   7.240   8.339   5.939
 3657POPC   GL247606   7.564   8.148   5.971
 3657POPC   C1A47607   7.386   8.384   6.376
 3657POPC   D2A47608   7.674   8.331   6.717
 3657POPC   C3A47609   7.456   8.367   7.096
 3657POPC   C4A47610   7.088   8.629   7.147
 3657POPC   C1B47611   7.375   7.869   6.284
 3657POPC   C2B47612   7.474   7.771   6.722
 3657POPC   C3B47613   7.451   7.803   7.183
 3657POPC   C4B47614   7.702   7.842   7.571
 3658POPC   NC347615  27.497  16.419   5.483
 3658POPC   PO447616  27.596  17.051   5.472
 3658POPC   GL147617  27.780  16.856   5.858
 3658POPC   GL247618  27.890  16.481   5.802
 3658POPC   C1A47619  27.558  16.713   6.247
 3658POPC   D2A47620  27.242  16.633   6.573
 3658POPC   C3A47621  27.401  16.766   6.946
 3658POPC   C4A47622  27.573  16.678   7.334
 3658POPC   C1B47623  28.030  16.527   6.209
 3658POPC   C2B47624  27.989  16.707   6.603
 3658POPC   C3B47625  27.979  16.553   7.020
 3658POPC   C4B47626  28.152  16.437   7.411
 3659POPC   NC347627  29.634  43.322   5.341
 3659POPC   PO447628  30.016  42.801   5.427
 3659POPC   GL147629  29.923  43.117   5.731
 3659POPC   GL247630  30.010  43.428   5.688
 3659POPC   C1A47631  29.794  43.253   6.128
 3659POPC   D2A47632  29.781  43.022   6.468
 3659POPC   C3A47633  29.775  43.197   6.863
 3659POPC   C4A47634  30.000  43.074   7.193
 3659POPC   C1B47635  30.285  43.459   6.046
 3659POPC   C2B47636  30.242  43.318   6.493
 3659POPC   C3B47637  30.394  43.287   6.926
 3659POPC   C4B47638  30.316  43.477   7.351
 3660POPC   NC347639  33.977  31.174   5.189
 3660POPC   PO447640  33.734  31.729   5.528
 3660POPC   GL147641  33.953  31.493   5.882
 3660POPC   GL247642  34.047  31.134   5.791
 3660POPC   C1A47643  33.946  31.499   6.364
 3660POPC   D2A47644  34.170  31.399   6.744
 3660POPC   C3A47645  33.993  31.652   7.073
 3660POPC   C4A47646  33.636  31.557   7.340
 3660POPC   C1B47647  33.771  31.079   6.156
 3660POPC   C2B47648  33.479  31.226   6.489
 3660POPC   C3B47649  33.597  31.311   6.898
 3660POPC   C4B47650  33.921  31.144   7.147
 3661POPC   NC347651  22.208  43.682   5.141
 3661POPC   PO447652  21.937  43.077   5.186
 3661POPC   GL147653  21.977  43.085   5.663
 3661POPC   GL247654  22.317  42.961   5.777
 3661POPC   C1A47655  21.979  43.156   6.120
 3661POPC   D2A47656  21.887  43.038   6.548
 3661POPC   C3A47657  22.007  43.226   6.963
 3661POPC   C4A47658  21.880  43.153   7.393
 3661POPC   C1B47659  22.479  43.038   6.186
 3661POPC   C2B47660  22.351  43.243   6.571
 3661POPC   C3B47661  22.508  43.089   6.967
 3661POPC   C4B47662  22.399  43.148   7.370
 3662POPC   NC347663  26.362   4.978   5.190
 3662POPC   PO447664  26.197   5.600   5.353
 3662POPC   GL147665  26.237   5.321   5.759
 3662POPC   GL247666  25.960   5.065   5.791
 3662POPC   C1A47667  26.072   5.373   6.219
 3662POPC   D2A47668  25.860   5.319   6.650
 3662POPC   C3A47669  26.156   5.272   7.029
 3662POPC   C4A47670  26.593   5.443   7.154
 3662POPC   C1B47671  26.097   4.862   6.207
 3662POPC   C2B47672  26.015   4.791   6.668
 3662POPC   C3B47673  26.125   4.703   7.091
 3662POPC   C4B47674  26.037   4.933   7.467
 3663POPC   NC347675  12.743  30.991   5.508
 3663POPC   PO447676  12.975  31.607   5.325
 3663POPC   GL147677  12.909  31.427   5.747
 3663POPC   GL247678  12.793  31.725   5.865
 3663POPC   C1A47679  12.838  31.353   6.224
 3663POPC   D2A47680  12.937  31.212   6.658
 3663POPC   C3A47681  12.675  31.305   6.994
 3663POPC   C4A47682  12.683  31.348   7.439
 3663POPC   C1B47683  12.615  31.832   6.252
 3663POPC   C2B47684  12.729  31.732   6.627
 3663POPC   C3B47685  13.113  31.734   6.809
 3663POPC   C4B47686  12.966  31.694   7.188
 3664POPC   NC347687  15.252   0.306   5.049
 3664POPC   PO447688  15.035   0.658   5.558
 3664POPC   GL147689  15.128   0.388   5.889
 3664POPC   GL247690  15.440   0.253   5.773
 3664POPC   C1A47691  15.142   0.363   6.340
 3664POPC   D2A47692  15.283   0.671   6.611
 3664POPC   C3A47693  15.105   0.579   6.976
 3664POPC   C4A47694  14.950   0.271   7.231
 3664POPC   C1B47695  15.527   0.079   6.179
 3664POPC   C2B47696  15.539   0.218   6.629
 3664POPC   C3B47697  15.500   0.276   7.079
 3664POPC   C4B47698  15.501   0.247   7.551
 3665POPC   NC347699  18.783  36.245   5.486
 3665POPC   PO447700  19.318  35.800   5.549
 3665POPC   GL147701  19.137  36.108   5.836
 3665POPC   GL247702  18.787  35.998   5.915
 3665POPC   C1A47703  19.047  36.280   6.244
 3665POPC   D2A47704  18.920  36.065   6.625
 3665POPC   C3A47705  19.066  36.179   7.021
 3665POPC   C4A47706  19.432  35.995   7.193
 3665POPC   C1B47707  18.552  36.140   6.269
 3665POPC   C2B47708  18.429  36.049   6.689
 3665POPC   C3B47709  18.536  36.154   7.127
 3665POPC   C4B47710  18.559  35.948   7.559
 3666POPC   NC347711   3.401  32.456   5.478
 3666POPC   PO447712   2.705  32.300   5.507
 3666POPC   GL147713   2.966  32.241   5.897
 3666POPC   GL247714   2.684  32.132   5.981
 3666POPC   C1A47715   2.958  32.159   6.401
 3666POPC   D2A47716   2.774  32.436   6.737
 3666POPC   C3A47717   2.702  32.274   7.149
 3666POPC   C4A47718   3.007  32.312   7.434
 3666POPC   C1B47719   2.580  32.479   6.236
 3666POPC   C2B47720   2.288  32.505   6.580
 3666POPC   C3B47721   2.289  32.564   7.050
 3666POPC   C4B47722   2.525  32.638   7.492
 3667POPC   NC347723  29.186  19.180   5.542
 3667POPC   PO447724  28.602  19.172   5.251
 3667POPC   GL147725  28.812  18.825   5.636
 3667POPC   GL247726  29.204  18.798   5.825
 3667POPC   C1A47727  28.827  18.680   6.114
 3667POPC   D2A47728  29.163  18.861   6.361
 3667POPC   C3A47729  29.272  18.801   6.772
 3667POPC   C4A47730  29.073  18.974   7.141
 3667POPC   C1B47731  29.519  19.081   6.086
 3667POPC   C2B47732  29.702  19.097   6.472
 3667POPC   C3B47733  29.627  19.184   6.903
 3667POPC   C4B47734  29.628  18.826   7.140
 3668POPC   NC347735   4.361  39.504   5.533
 3668POPC   PO447736   4.362  38.824   5.327
 3668POPC   GL147737   4.367  39.040   5.766
 3668POPC   GL247738   4.045  39.179   5.865
 3668POPC   C1A47739   4.440  39.291   6.189
 3668POPC   D2A47740   4.448  39.479   6.632
 3668POPC   C3A47741   4.574  39.172   6.962
 3668POPC   C4A47742   4.475  39.146   7.387
 3668POPC   C1B47743   4.018  38.957   6.282
 3668POPC   C2B47744   4.032  38.952   6.753
 3668POPC   C3B47745   4.097  39.336   7.028
 3668POPC   C4B47746   4.112  39.487   7.475
 3669POPC   NC347747   3.982  38.610   5.189
 3669POPC   PO447748   3.411  38.470   5.417
 3669POPC   GL147749   3.514  38.329   5.874
 3669POPC   GL247750   3.756  38.535   6.067
 3669POPC   C1A47751   3.333  38.411   6.318
 3669POPC   D2A47752   3.384  38.729   6.654
 3669POPC   C3A47753   3.291  38.501   7.026
 3669POPC   C4A47754   3.418  38.079   7.181
 3669POPC   C1B47755   3.836  38.488   6.472
 3669POPC   C2B47756   3.737  38.272   6.815
 3669POPC   C3B47757   3.786  38.447   7.197
 3669POPC   C4B47758   3.911  38.593   7.574
 3670POPC   NC347759  10.108  24.728   5.405
 3670POPC   PO447760   9.480  24.350   5.454
 3670POPC   GL147761   9.706  24.494   5.803
 3670POPC   GL247762   9.655  24.840   5.812
 3670POPC   C1A47763   9.654  24.346   6.225
 3670POPC   D2A47764   9.606  24.465   6.654
 3670POPC   C3A47765   9.741  24.201   7.037
 3670POPC   C4A47766   9.978  24.227   7.422
 3670POPC   C1B47767   9.572  24.860   6.283
 3670POPC   C2B47768   9.802  24.938   6.684
 3670POPC   C3B47769   9.757  24.708   7.086
 3670POPC   C4B47770   9.337  24.528   7.085
 3671POPC   NC347771   8.075  30.051   5.260
 3671POPC   PO447772   8.404  29.457   5.413
 3671POPC   GL147773   8.234  29.806   5.730
 3671POPC   GL247774   7.871  29.955   5.736
 3671POPC   C1A47775   8.299  30.065   6.137
 3671POPC   D2A47776   8.312  30.195   6.592
 3671POPC   C3A47777   8.362  29.886   6.930
 3671POPC   C4A47778   8.396  29.947   7.348
 3671POPC   C1B47779   7.761  29.964   6.205
 3671POPC   C2B47780   7.778  30.119   6.654
 3671POPC   C3B47781   7.875  30.046   7.086
 3671POPC   C4B47782   7.913  30.170   7.530
 3672POPC   NC347783  21.544  14.056   5.040
 3672POPC   PO447784  21.600  13.493   5.459
 3672POPC   GL147785  21.268  13.704   5.729
 3672POPC   GL247786  21.548  13.715   5.942
 3672POPC   C1A47787  21.153  13.955   6.153
 3672POPC   D2A47788  21.269  13.985   6.612
 3672POPC   C3A47789  21.135  13.692   6.932
 3672POPC   C4A47790  21.365  13.402   7.181
 3672POPC   C1B47791  21.457  13.578   6.335
 3672POPC   C2B47792  21.613  13.489   6.718
 3672POPC   C3B47793  21.783  13.674   7.040
 3672POPC   C4B47794  21.516  14.012   7.107
 3673POPC   NC347795  30.810  24.277   5.359
 3673POPC   PO447796  30.631  24.904   5.360
 3673POPC   GL147797  30.576  24.596   5.719
 3673POPC   GL247798  30.358  24.800   5.903
 3673POPC   C1A47799  30.738  24.469   6.172
 3673POPC   D2A47800  30.870  24.662   6.621
 3673POPC   C3A47801  30.756  24.432   7.037
 3673POPC   C4A47802  30.426  24.132   7.202
 3673POPC   C1B47803  30.507  24.888   6.274
 3673POPC   C2B47804  30.374  24.544   6.543
 3673POPC   C3B47805  30.269  24.551   6.943
 3673POPC   C4B47806  30.338  24.884   7.218
 3674POPC   NC347807  41.335  18.932   5.430
 3674POPC   PO447808  41.689  19.411   5.569
 3674POPC   GL147809  41.606  18.987   5.864
 3674POPC   GL247810  41.232  18.895   5.953
 3674POPC   C1A47811  41.585  18.739   6.270
 3674POPC   D2A47812  41.544  18.930   6.676
 3674POPC   C3A47813  41.734  18.804   7.104
 3674POPC   C4A47814  41.971  19.009   7.425
 3674POPC   C1B47815  41.311  19.220   6.298
 3674POPC   C2B47816  41.380  19.410   6.753
 3674POPC   C3B47817  41.231  19.540   7.191
 3674POPC   C4B47818  40.980  19.827   7.512
 3675POPC   NC347819   1.299  37.440   5.495
 3675POPC   PO447820   1.003  38.036   5.286
 3675POPC   GL147821   1.071  37.857   5.738
 3675POPC   GL247822   1.061  37.525   5.929
 3675POPC   C1A47823   1.043  37.957   6.192
 3675POPC   D2A47824   1.182  37.909   6.623
 3675POPC   C3A47825   1.524  38.083   6.853
 3675POPC   C4A47826   1.377  37.910   7.243
 3675POPC   C1B47827   1.113  37.475   6.358
 3675POPC   C2B47828   1.055  37.440   6.776
 3675POPC   C3B47829   1.025  37.531   7.177
 3675POPC   C4B47830   1.390  37.412   7.376
 3676POPC   NC347831  13.376  15.465   5.179
 3676POPC   PO447832  13.144  14.933   5.587
 3676POPC   GL147833  12.869  15.203   5.825
 3676POPC   GL247834  13.124  15.261   6.048
 3676POPC   C1A47835  12.712  15.492   6.190
 3676POPC   D2A47836  12.778  15.317   6.580
 3676POPC   C3A47837  12.692  15.511   6.960
 3676POPC   C4A47838  12.871  15.357   7.351
 3676POPC   C1B47839  12.916  14.891   6.232
 3676POPC   C2B47840  12.679  14.801   6.591
 3676POPC   C3B47841  12.865  14.992   6.970
 3676POPC   C4B47842  13.088  14.855   7.325
 3677POPC   NC347843   5.071  32.453   5.539
 3677POPC   PO447844   4.975  31.852   5.511
 3677POPC   GL147845   4.870  32.147   5.896
 3677POPC   GL247846   4.730  32.520   5.925
 3677POPC   C1A47847   5.068  32.346   6.257
 3677POPC   D2A47848   5.251  32.401   6.665
 3677POPC   C3A47849   5.034  32.168   7.006
 3677POPC   C4A47850   5.086  32.169   7.454
 3677POPC   C1B47851   4.584  32.502   6.338
 3677POPC   C2B47852   4.796  32.591   6.744
 3677POPC   C3B47853   4.860  32.581   7.228
 3677POPC   C4B47854   4.798  32.512   7.692
 3678POPC   NC347855  14.331  16.976   5.487
 3678POPC   PO447856  14.767  16.425   5.530
 3678POPC   GL147857  14.595  16.651   5.908
 3678POPC   GL247858  14.216  16.639   5.940
 3678POPC   C1A47859  14.638  16.626   6.383
 3678POPC   D2A47860  14.826  16.700   6.798
 3678POPC   C3A47861  14.602  16.548   7.207
 3678POPC   C4A47862  14.740  16.610   7.651
 3678POPC   C1B47863  14.136  16.689   6.400
 3678POPC   C2B47864  14.280  16.674   6.817
 3678POPC   C3B47865  14.140  16.794   7.228
 3678POPC   C4B47866  13.826  16.658   7.507
 3679POPC   NC347867  10.823  24.415   5.469
 3679POPC   PO447868  10.240  24.286   5.454
 3679POPC   GL147869  10.306  24.568   5.855
 3679POPC   GL247870  10.677  24.668   5.921
 3679POPC   C1A47871  10.082  24.641   6.287
 3679POPC   D2A47872  10.149  24.578   6.760
 3679POPC   C3A47873  10.336  24.309   7.077
 3679POPC   C4A47874  10.488  24.291   7.538
 3679POPC   C1B47875  10.592  24.610   6.411
 3679POPC   C2B47876  10.690  24.765   6.846
 3679POPC   C3B47877  10.917  24.954   7.213
 3679POPC   C4B47878  10.917  24.673   7.568
 3680POPC   NC347879   1.117  19.757   5.451
 3680POPC   PO447880   1.708  19.376   5.517
 3680POPC   GL147881   1.401  19.552   5.817
 3680POPC   GL247882   0.994  19.534   5.911
 3680POPC   C1A47883   1.369  19.771   6.185
 3680POPC   D2A47884   1.100  19.701   6.515
 3680POPC   C3A47885   1.259  19.918   6.872
 3680POPC   C4A47886   1.128  19.930   7.280
 3680POPC   C1B47887   0.881  19.975   6.125
 3680POPC   C2B47888   0.988  20.222   6.535
 3680POPC   C3B47889   0.821  20.210   6.965
 3680POPC   C4B47890   0.775  20.309   7.410
 3681POPC   NC347891  34.844  15.551   5.636
 3681POPC   PO447892  34.789  16.133   5.295
 3681POPC   GL147893  34.574  16.066   5.753
 3681POPC   GL247894  34.630  15.773   6.018
 3681POPC   C1A47895  34.600  16.205   6.224
 3681POPC   D2A47896  34.789  16.090   6.628
 3681POPC   C3A47897  34.545  16.133   7.008
 3681POPC   C4A47898  34.615  16.253   7.429
 3681POPC   C1B47899  34.297  15.698   6.328
 3681POPC   C2B47900  34.231  15.762   6.794
 3681POPC   C3B47901  34.476  15.659   7.180
 3681POPC   C4B47902  34.932  15.770   7.117
 3682POPC   NC347903  26.402   2.614   5.367
 3682POPC   PO447904  25.753   2.823   5.451
 3682POPC   GL147905  25.986   2.785   5.814
 3682POPC   GL247906  26.310   2.923   5.801
 3682POPC   C1A47907  25.845   2.761   6.252
 3682POPC   D2A47908  25.756   3.034   6.602
 3682POPC   C3A47909  25.918   2.859   7.003
 3682POPC   C4A47910  25.828   2.786   7.455
 3682POPC   C1B47911  26.335   2.593   6.127
 3682POPC   C2B47912  26.171   2.419   6.512
 3682POPC   C3B47913  26.311   2.536   6.925
 3682POPC   C4B47914  26.324   2.823   7.307
 3683POPC   NC347915  37.942  33.627   5.288
 3683POPC   PO447916  37.489  34.070   5.546
 3683POPC   GL147917  37.503  33.757   5.847
 3683POPC   GL247918  37.767  33.901   5.970
 3683POPC   C1A47919  37.438  33.499   6.209
 3683POPC   D2A47920  37.375  33.677   6.636
 3683POPC   C3A47921  37.552  33.473   7.006
 3683POPC   C4A47922  37.487  33.722   7.327
 3683POPC   C1B47923  37.821  33.767   6.380
 3683POPC   C2B47924  37.922  33.756   6.809
 3683POPC   C3B47925  37.982  33.783   7.237
 3683POPC   C4B47926  37.867  33.749   7.679
 3684POPC   NC347927   7.188  38.546   5.412
 3684POPC   PO447928   7.636  38.142   5.329
 3684POPC   GL147929   7.487  38.320   5.765
 3684POPC   GL247930   7.502  38.698   5.786
 3684POPC   C1A47931   7.350  38.439   6.201
 3684POPC   D2A47932   7.602  38.311   6.543
 3684POPC   C3A47933   7.586  38.490   6.932
 3684POPC   C4A47934   7.715  38.290   7.328
 3684POPC   C1B47935   7.680  38.825   6.191
 3684POPC   C2B47936   7.504  38.912   6.578
 3684POPC   C3B47937   7.651  39.007   6.960
 3684POPC   C4B47938   7.834  38.774   7.279
 3685POPC   NC347939   2.229  38.796   5.435
 3685POPC   PO447940   1.984  38.216   5.211
 3685POPC   GL147941   1.943  38.283   5.650
 3685POPC   GL247942   2.258  38.188   5.778
 3685POPC   C1A47943   1.864  38.521   6.053
 3685POPC   D2A47944   1.878  38.359   6.512
 3685POPC   C3A47945   1.745  38.591   6.862
 3685POPC   C4A47946   1.905  38.707   7.254
 3685POPC   C1B47947   2.304  38.324   6.221
 3685POPC   C2B47948   2.412  38.222   6.644
 3685POPC   C3B47949   2.179  38.328   7.007
 3685POPC   C4B47950   2.236  38.346   7.436
 3686POPC   NC347951  19.528  41.442   5.255
 3686POPC   PO447952  18.972  41.757   5.518
 3686POPC   GL147953  18.946  41.519   5.871
 3686POPC   GL247954  19.243  41.515   5.948
 3686POPC   C1A47955  18.899  41.308   6.274
 3686POPC   D2A47956  19.222  41.225   6.568
 3686POPC   C3A47957  19.062  41.366   6.955
 3686POPC   C4A47958  19.076  41.419   7.387
 3686POPC   C1B47959  19.052  41.827   6.250
 3686POPC   C2B47960  19.121  41.811   6.685
 3686POPC   C3B47961  19.280  41.817   7.114
 3686POPC   C4B47962  19.267  41.895   7.583
 3687POPC   NC347963  40.999  13.195   5.422
 3687POPC   PO447964  40.403  12.740   5.364
 3687POPC   GL147965  40.702  12.859   5.723
 3687POPC   GL247966  40.985  12.628   5.793
 3687POPC   C1A47967  40.746  13.089   6.143
 3687POPC   D2A47968  40.953  13.177   6.561
 3687POPC   C3A47969  40.970  13.113   7.042
 3687POPC   C4A47970  40.652  13.192   7.384
 3687POPC   C1B47971  40.943  12.636   6.271
 3687POPC   C2B47972  40.986  12.690   6.712
 3687POPC   C3B47973  40.955  12.528   7.091
 3687POPC   C4B47974  40.891  12.750   7.444
 3688POPC   NC347975   5.627  29.176   5.322
 3688POPC   PO447976   6.098  28.735   5.331
 3688POPC   GL147977   5.799  28.837   5.709
 3688POPC   GL247978   5.839  29.181   5.799
 3688POPC   C1A47979   5.729  28.869   6.190
 3688POPC   D2A47980   6.044  28.861   6.567
 3688POPC   C3A47981   5.909  28.918   7.005
 3688POPC   C4A47982   5.899  29.170   7.387
 3688POPC   C1B47983   6.059  29.271   6.209
 3688POPC   C2B47984   5.873  29.343   6.621
 3688POPC   C3B47985   5.615  29.355   6.986
 3688POPC   C4B47986   5.574  29.615   7.313
 3689POPC   NC347987  34.019  23.116   5.617
 3689POPC   PO447988  33.478  22.681   5.491
 3689POPC   GL147989  33.659  22.844   5.843
 3689POPC   GL247990  33.514  23.165   5.832
 3689POPC   C1A47991  33.859  23.001   6.236
 3689POPC   D2A47992  34.079  22.944   6.605
 3689POPC   C3A47993  33.858  22.753   6.937
 3689POPC   C4A47994  34.042  22.547   7.285
 3689POPC   C1B47995  33.370  23.245   6.232
 3689POPC   C2B47996  33.541  23.122   6.656
 3689POPC   C3B47997  33.493  23.058   7.121
 3689POPC   C4B47998  33.487  23.109   7.573
 3690POPC   NC347999  17.674  34.956   5.392
 3690POPC   PO448000  17.194  35.344   5.321
 3690POPC   GL148001  17.478  35.296   5.759
 3690POPC   GL248002  17.852  35.417   5.812
 3690POPC   C1A48003  17.511  35.196   6.251
 3690POPC   D2A48004  17.751  35.080   6.667
 3690POPC   C3A48005  17.575  35.197   7.080
 3690POPC   C4A48006  17.384  35.115   7.504
 3690POPC   C1B48007  17.863  35.550   6.261
 3690POPC   C2B48008  17.599  35.560   6.661
 3690POPC   C3B48009  17.684  35.714   7.095
 3690POPC   C4B48010  17.755  35.488   7.479
 3691POPC   NC348011  44.277   6.940   5.501
 3691POPC   PO448012  43.804   6.411   5.593
 3691POPC   GL148013  43.854   6.437   5.972
 3691POPC   GL248014  43.778   6.803   5.940
 3691POPC   C1A48015  43.668   6.474   6.356
 3691POPC   D2A48016  43.834   6.472   6.742
 3691POPC   C3A48017  43.587   6.407   7.096
 3691POPC   C4A48018  43.884   6.313   7.358
 3691POPC   C1B48019  44.075   6.772   6.285
 3691POPC   C2B48020  44.127   6.896   6.691
 3691POPC   C3B48021  43.988   6.805   7.110
 3691POPC   C4B48022  43.737   6.808   7.452
 3692POPC   NC348023   6.847   1.432   5.386
 3692POPC   PO448024   6.429   0.909   5.240
 3692POPC   GL148025   6.486   1.089   5.672
 3692POPC   GL248026   6.793   1.179   5.807
 3692POPC   C1A48027   6.497   1.000   6.166
 3692POPC   D2A48028   6.448   1.209   6.601
 3692POPC   C3A48029   6.613   1.013   6.998
 3692POPC   C4A48030   6.453   1.041   7.443
 3692POPC   C1B48031   6.748   1.456   6.129
 3692POPC   C2B48032   6.811   1.589   6.531
 3692POPC   C3B48033   6.668   1.604   6.934
 3692POPC   C4B48034   6.772   1.409   7.290
 3693POPC   NC348035  17.453   7.113   5.581
 3693POPC   PO448036  17.735   7.759   5.381
 3693POPC   GL148037  17.697   7.515   5.806
 3693POPC   GL248038  17.474   7.239   6.060
 3693POPC   C1A48039  17.844   7.493   6.241
 3693POPC   D2A48040  17.529   7.458   6.598
 3693POPC   C3A48041  17.725   7.316   7.005
 3693POPC   C4A48042  17.720   7.238   7.476
 3693POPC   C1B48043  17.089   7.095   6.294
 3693POPC   C2B48044  16.903   7.305   6.605
 3693POPC   C3B48045  17.131   7.421   6.964
 3693POPC   C4B48046  17.279   7.146   7.249
 3694POPC   NC348047  10.655  25.557   5.522
 3694POPC   PO448048  10.820  24.867   5.366
 3694POPC   GL148049  10.469  25.093   5.661
 3694POPC   GL248050  10.723  25.206   5.895
 3694POPC   C1A48051  10.291  25.464   6.016
 3694POPC   D2A48052  10.569  25.449   6.409
 3694POPC   C3A48053  10.453  25.501   6.868
 3694POPC   C4A48054  10.581  25.332   7.262
 3694POPC   C1B48055  10.410  25.017   6.181
 3694POPC   C2B48056  10.316  25.043   6.620
 3694POPC   C3B48057  10.220  25.008   7.061
 3694POPC   C4B48058  10.466  24.756   7.333
 3695POPC   NC348059  35.864  24.111   5.499
 3695POPC   PO448060  35.786  24.831   5.510
 3695POPC   GL148061  36.022  24.604   5.827
 3695POPC   GL248062  36.338  24.793   5.886
 3695POPC   C1A48063  35.917  24.339   6.203
 3695POPC   D2A48064  35.880  24.461   6.644
 3695POPC   C3A48065  36.095  24.411   7.022
 3695POPC   C4A48066  35.895  24.740   7.226
 3695POPC   C1B48067  36.407  24.496   6.222
 3695POPC   C2B48068  36.353  24.221   6.593
 3695POPC   C3B48069  36.517  24.087   6.994
 3695POPC   C4B48070  36.433  24.234   7.381
 3696POPC   NC348071  28.093  33.486   5.414
 3696POPC   PO448072  28.573  33.947   5.403
 3696POPC   GL148073  28.391  33.830   5.784
 3696POPC   GL248074  28.519  33.487   5.735
 3696POPC   C1A48075  28.318  33.848   6.243
 3696POPC   D2A48076  28.159  33.783   6.657
 3696POPC   C3A48077  28.348  33.851   7.033
 3696POPC   C4A48078  28.288  34.134   7.403
 3696POPC   C1B48079  28.685  33.515   6.146
 3696POPC   C2B48080  28.535  33.438   6.563
 3696POPC   C3B48081  28.637  33.404   6.984
 3696POPC   C4B48082  28.602  33.590   7.387
 3697POPC   NC348083  11.858   5.075   5.492
 3697POPC   PO448084  12.401   5.352   5.447
 3697POPC   GL148085  12.288   5.104   5.772
 3697POPC   GL248086  12.080   5.409   5.861
 3697POPC   C1A48087  12.069   5.019   6.179
 3697POPC   D2A48088  12.043   5.249   6.561
 3697POPC   C3A48089  12.050   4.997   6.945
 3697POPC   C4A48090  12.429   4.941   7.185
 3697POPC   C1B48091  11.775   5.529   6.189
 3697POPC   C2B48092  11.569   5.447   6.600
 3697POPC   C3B48093  11.781   5.432   6.983
 3697POPC   C4B48094  11.757   5.191   7.334
 3698POPC   NC348095  26.292  33.971   5.215
 3698POPC   PO448096  25.627  33.918   5.316
 3698POPC   GL148097  25.913  34.090   5.668
 3698POPC   GL248098  25.643  34.105   5.903
 3698POPC   C1A48099  26.124  34.116   6.123
 3698POPC   D2A48100  26.185  33.891   6.556
 3698POPC   C3A48101  26.179  34.029   7.006
 3698POPC   C4A48102  26.211  33.876   7.433
 3698POPC   C1B48103  25.689  33.965   6.373
 3698POPC   C2B48104  25.702  33.924   6.853
 3698POPC   C3B48105  25.794  33.638   7.232
 3698POPC   C4B48106  25.901  33.515   7.662
 3699POPC   NC348107   9.184   6.358   5.630
 3699POPC   PO448108   8.978   5.712   5.453
 3699POPC   GL148109   8.874   5.669   5.901
 3699POPC   GL248110   8.762   5.990   6.017
 3699POPC   C1A48111   8.822   5.664   6.386
 3699POPC   D2A48112   8.939   5.945   6.717
 3699POPC   C3A48113   9.031   5.704   7.096
 3699POPC   C4A48114   8.724   5.677   7.447
 3699POPC   C1B48115   9.113   6.166   6.261
 3699POPC   C2B48116   9.406   6.053   6.580
 3699POPC   C3B48117   9.290   6.192   7.008
 3699POPC   C4B48118   8.930   6.165   7.306
 3700POPC   NC348119  34.376  28.758   5.460
 3700POPC   PO448120  34.574  29.404   5.512
 3700POPC   GL148121  34.526  29.095   5.824
 3700POPC   GL248122  34.820  28.879   5.686
 3700POPC   C1A48123  34.284  29.150   6.219
 3700POPC   D2A48124  34.058  29.288   6.608
 3700POPC   C3A48125  34.218  29.276   7.035
 3700POPC   C4A48126  34.470  29.059   7.278
 3700POPC   C1B48127  34.827  28.767   6.117
 3700POPC   C2B48128  34.592  28.843   6.484
 3700POPC   C3B48129  34.720  28.866   6.888
 3700POPC   C4B48130  34.959  28.900   7.250
 3701POPC   NC348131  26.003  18.133   5.590
 3701POPC   PO448132  26.356  18.702   5.400
 3701POPC   GL148133  26.252  18.583   5.805
 3701POPC   GL248134  25.889  18.592   5.843
 3701POPC   C1A48135  26.379  18.440   6.199
 3701POPC   D2A48136  26.256  18.304   6.600
 3701POPC   C3A48137  26.079  18.578   6.891
 3701POPC   C4A48138  26.179  18.371   7.265
 3701POPC   C1B48139  25.852  18.349   6.216
 3701POPC   C2B48140  25.811  18.043   6.516
 3701POPC   C3B48141  25.740  18.177   6.903
 3701POPC   C4B48142  25.751  18.106   7.298
 3702POPC   NC348143   0.113  13.832   5.511
 3702POPC   PO448144   0.308  13.237   5.395
 3702POPC   GL148145   0.490  13.446   5.779
 3702POPC   GL248146   0.208  13.553   5.927
 3702POPC   C1A48147   0.590  13.506   6.261
 3702POPC   D2A48148   0.788  13.869   6.530
 3702POPC   C3A48149   0.748  13.762   6.985
 3702POPC   C4A48150   0.381  13.534   7.189
 3702POPC   C1B48151   0.204  13.891   6.207
 3702POPC   C2B48152   0.286  13.780   6.619
 3702POPC   C3B48153   0.284  13.981   6.968
 3702POPC   C4B48154  44.943  13.923   7.141
 3703POPC   NC348155  37.432  38.670   5.143
 3703POPC   PO448156  37.819  38.176   5.445
 3703POPC   GL148157  37.514  38.327   5.801
 3703POPC   GL248158  37.415  38.691   5.809
 3703POPC   C1A48159  37.522  38.397   6.281
 3703POPC   D2A48160  37.501  38.429   6.731
 3703POPC   C3A48161  37.756  38.215   7.028
 3703POPC   C4A48162  37.373  38.281   7.265
 3703POPC   C1B48163  37.744  38.819   6.118
 3703POPC   C2B48164  37.791  38.807   6.528
 3703POPC   C3B48165  37.926  38.689   6.906
 3703POPC   C4B48166  37.687  38.675   7.246
 3704POPC   NC348167  20.351  35.467   5.653
 3704POPC   PO448168  20.810  35.151   5.258
 3704POPC   GL148169  20.719  35.089   5.733
 3704POPC   GL248170  20.390  35.023   5.916
 3704POPC   C1A48171  20.773  35.170   6.215
 3704POPC   D2A48172  20.645  35.437   6.583
 3704POPC   C3A48173  20.552  35.247   6.967
 3704POPC   C4A48174  20.620  35.581   7.275
 3704POPC   C1B48175  20.247  35.362   6.275
 3704POPC   C2B48176  20.044  35.508   6.683
 3704POPC   C3B48177  20.124  35.467   7.126
 3704POPC   C4B48178  20.232  35.396   7.551
 3705POPC   NC348179  18.979  40.627   5.441
 3705POPC   PO448180  19.498  40.983   5.203
 3705POPC   GL148181  19.284  41.026   5.683
 3705POPC   GL248182  18.936  41.010   5.838
 3705POPC   C1A48183  19.260  40.715   6.100
 3705POPC   D2A48184  19.503  40.497   6.474
 3705POPC   C3A48185  19.369  40.592   6.911
 3705POPC   C4A48186  19.264  40.942   7.197
 3705POPC   C1B48187  18.789  40.784   6.236
 3705POPC   C2B48188  18.969  40.590   6.567
 3705POPC   C3B48189  18.852  40.672   6.975
 3705POPC   C4B48190  18.744  41.031   7.203
 3706POPC   NC348191  18.048  40.802   5.104
 3706POPC   PO448192  18.563  40.844   5.531
 3706POPC   GL148193  18.440  40.873   5.913
 3706POPC   GL248194  18.318  40.594   5.959
 3706POPC   C1A48195  18.336  41.019   6.323
 3706POPC   D2A48196  18.572  41.099   6.702
 3706POPC   C3A48197  18.247  41.163   7.008
 3706POPC   C4A48198  18.078  41.033   7.379
 3706POPC   C1B48199  18.262  40.517   6.375
 3706POPC   C2B48200  18.167  40.742   6.726
 3706POPC   C3B48201  18.326  40.668   7.101
 3706POPC   C4B48202  18.563  40.362   7.260
 3707POPC   NC348203  39.446  43.868   5.460
 3707POPC   PO448204  39.009  43.473   5.604
 3707POPC   GL148205  39.121  43.853   5.834
 3707POPC   GL248206  38.875  44.070   5.816
 3707POPC   C1A48207  39.195  44.055   6.220
 3707POPC   D2A48208  39.229  43.778   6.544
 3707POPC   C3A48209  39.366  43.925   6.906
 3707POPC   C4A48210  39.152  44.160   7.223
 3707POPC   C1B48211  38.761  43.752   6.196
 3707POPC   C2B48212  38.750  43.629   6.658
 3707POPC   C3B48213  38.953  43.667   7.074
 3707POPC   C4B48214  38.924  43.794   7.532
 3708POPC   NC348215  23.278  37.216   5.660
 3708POPC   PO448216  23.162  36.627   5.343
 3708POPC   GL148217  23.022  36.720   5.796
 3708POPC   GL248218  22.700  36.556   5.969
 3708POPC   C1A48219  23.051  36.862   6.249
 3708POPC   D2A48220  22.791  37.110   6.556
 3708POPC   C3A48221  22.946  37.166   6.970
 3708POPC   C4A48222  22.770  37.142   7.374
 3708POPC   C1B48223  23.102  36.347   6.143
 3708POPC   C2B48224  23.289  36.439   6.545
 3708POPC   C3B48225  23.116  36.588   6.935
 3708POPC   C4B48226  23.292  36.858   7.221
 3709POPC   NC348227  40.046   2.664   5.496
 3709POPC   PO448228  39.585   3.235   5.494
 3709POPC   GL148229  39.831   2.984   5.840
 3709POPC   GL248230  39.761   2.597   5.908
 3709POPC   C1A48231  40.188   2.874   6.137
 3709POPC   D2A48232  40.258   2.635   6.551
 3709POPC   C3A48233  40.123   2.845   6.896
 3709POPC   C4A48234  40.202   2.756   7.295
 3709POPC   C1B48235  39.790   2.618   6.349
 3709POPC   C2B48236  39.807   2.404   6.734
 3709POPC   C3B48237  39.781   2.514   7.149
 3709POPC   C4B48238  39.725   2.929   7.238
 3710POPC   NC348239  40.811   2.439   5.453
 3710POPC   PO448240  40.365   3.020   5.427
 3710POPC   GL148241  40.548   2.746   5.772
 3710POPC   GL248242  40.933   2.704   5.854
 3710POPC   C1A48243  40.584   2.553   6.188
 3710POPC   D2A48244  40.837   2.722   6.566
 3710POPC   C3A48245  40.627   2.708   6.948
 3710POPC   C4A48246  40.636   2.978   7.301
 3710POPC   C1B48247  41.190   2.793   6.207
 3710POPC   C2B48248  41.411   2.704   6.575
 3710POPC   C3B48249  41.248   2.811   6.994
 3710POPC   C4B48250  40.998   2.626   7.304
 3711POPC   NC348251  43.374   6.432   5.453
 3711POPC   PO448252  43.033   5.808   5.389
 3711POPC   GL148253  43.168   5.789   5.804
 3711POPC   GL248254  42.888   5.565   5.915
 3711POPC   C1A48255  43.320   6.085   6.151
 3711POPC   D2A48256  43.266   5.868   6.518
 3711POPC   C3A48257  43.432   5.925   6.933
 3711POPC   C4A48258  43.236   6.028   7.334
 3711POPC   C1B48259  42.800   5.953   6.131
 3711POPC   C2B48260  42.833   6.141   6.524
 3711POPC   C3B48261  42.919   5.950   6.900
 3711POPC   C4B48262  42.675   6.056   7.181
 3712POPC   NC348263  37.224  37.072   5.397
 3712POPC   PO448264  37.474  36.537   5.547
 3712POPC   GL148265  37.539  36.933   5.801
 3712POPC   GL248266  37.448  37.319   5.797
 3712POPC   C1A48267  37.820  37.044   6.118
 3712POPC   D2A48268  38.010  36.975   6.504
 3712POPC   C3A48269  37.963  37.024   6.950
 3712POPC   C4A48270  37.813  36.839   7.342
 3712POPC   C1B48271  37.318  37.173   6.209
 3712POPC   C2B48272  37.503  37.131   6.600
 3712POPC   C3B48273  37.465  36.943   7.000
 3712POPC   C4B48274  37.383  37.125   7.406
 3713POPC   NC348275  33.385  24.059   5.428
 3713POPC   PO448276  33.691  23.420   5.444
 3713POPC   GL148277  33.813  23.695   5.772
 3713POPC   GL248278  33.488  23.685   5.913
 3713POPC   C1A48279  33.800  24.003   6.157
 3713POPC   D2A48280  33.508  24.200   6.478
 3713POPC   C3A48281  33.562  24.029   6.896
 3713POPC   C4A48282  33.920  23.822   7.059
 3713POPC   C1B48283  33.784  23.506   6.231
 3713POPC   C2B48284  33.878  23.523   6.634
 3713POPC   C3B48285  33.932  23.280   6.986
 3713POPC   C4B48286  33.788  23.447   7.357
 3714POPC   NC348287  23.864  42.715   5.454
 3714POPC   PO448288  23.313  42.293   5.461
 3714POPC   GL148289  23.540  42.147   5.819
 3714POPC   GL248290  23.590  42.523   5.853
 3714POPC   C1A48291  23.650  42.195   6.263
 3714POPC   D2A48292  23.547  42.368   6.640
 3714POPC   C3A48293  23.648  42.056   6.947
 3714POPC   C4A48294  23.505  42.187   7.332
 3714POPC   C1B48295  23.899  42.618   6.162
 3714POPC   C2B48296  24.028  42.465   6.578
 3714POPC   C3B48297  23.863  42.500   7.036
 3714POPC   C4B48298  24.101  42.393   7.417
 3715POPC   NC348299  22.924   0.068   5.393
 3715POPC   PO448300  23.104   0.724   5.319
 3715POPC   GL148301  23.116   0.571   5.761
 3715POPC   GL248302  23.249   0.221   5.794
 3715POPC   C1A48303  22.945   0.482   6.187
 3715POPC   D2A48304  23.085   0.402   6.617
 3715POPC   C3A48305  22.819   0.542   6.942
 3715POPC   C4A48306  22.885   0.760   7.326
 3715POPC   C1B48307  23.334   0.148   6.239
 3715POPC   C2B48308  23.231  44.924   6.651
 3715POPC   C3B48309  23.225   0.175   7.068
 3715POPC   C4B48310  22.866   0.195   7.339
 3716POPC   NC348311  38.581  12.323   5.517
 3716POPC   PO448312  38.276  11.701   5.491
 3716POPC   GL148313  38.346  11.975   5.837
 3716POPC   GL248314  38.689  11.977   5.938
 3716POPC   C1A48315  38.327  11.940   6.299
 3716POPC   D2A48316  38.083  11.807   6.650
 3716POPC   C3A48317  38.228  11.871   7.068
 3716POPC   C4A48318  38.581  11.819   7.343
 3716POPC   C1B48319  38.826  12.026   6.380
 3716POPC   C2B48320  38.713  12.000   6.830
 3716POPC   C3B48321  38.581  12.317   7.144
 3716POPC   C4B48322  38.615  12.485   7.580
 3717POPC   NC348323  31.986  28.073   5.443
 3717POPC   PO448324  32.615  28.333   5.267
 3717POPC   GL148325  32.391  28.374   5.705
 3717POPC   GL248326  32.120  28.525   5.788
 3717POPC   C1A48327  32.454  28.432   6.194
 3717POPC   D2A48328  32.586  28.221   6.603
 3717POPC   C3A48329  32.540  28.411   7.017
 3717POPC   C4A48330  32.471  28.379   7.479
 3717POPC   C1B48331  31.926  28.470   6.216
 3717POPC   C2B48332  32.134  28.428   6.631
 3717POPC   C3B48333  32.092  28.180   7.041
 3717POPC   C4B48334  31.985  28.435   7.407
 3718POPC   NC348335  21.147   5.475   5.432
 3718POPC   PO448336  21.477   6.104   5.273
 3718POPC   GL148337  21.485   5.980   5.729
 3718POPC   GL248338  21.131   5.838   5.785
 3718POPC   C1A48339  21.652   6.068   6.163
 3718POPC   D2A48340  21.522   5.894   6.568
 3718POPC   C3A48341  21.610   6.077   6.962
 3718POPC   C4A48342  21.530   5.865   7.329
 3718POPC   C1B48343  20.878   5.670   6.135
 3718POPC   C2B48344  20.976   5.773   6.540
 3718POPC   C3B48345  20.808   5.784   6.925
 3718POPC   C4B48346  21.017   5.737   7.300
 3719POPC   NC348347  19.193  29.202   5.686
 3719POPC   PO448348  19.815  29.140   5.423
 3719POPC   GL148349  19.869  29.297   5.813
 3719POPC   GL248350  20.051  28.998   5.897
 3719POPC   C1A48351  19.999  29.388   6.241
 3719POPC   D2A48352  20.141  29.362   6.668
 3719POPC   C3A48353  19.770  29.302   6.869
 3719POPC   C4A48354  19.667  29.270   7.258
 3719POPC   C1B48355  19.807  28.857   6.217
 3719POPC   C2B48356  19.908  28.841   6.635
 3719POPC   C3B48357  19.695  28.802   7.010
 3719POPC   C4B48358  19.820  28.785   7.398
 3720POPC   NC348359  30.613   6.987   5.469
 3720POPC   PO448360  30.422   6.449   5.313
 3720POPC   GL148361  30.595   6.479   5.789
 3720POPC   GL248362  30.691   6.786   5.932
 3720POPC   C1A48363  30.582   6.451   6.292
 3720POPC   D2A48364  30.560   6.643   6.708
 3720POPC   C3A48365  30.632   6.403   7.039
 3720POPC   C4A48366  30.827   6.541   7.339
 3720POPC   C1B48367  30.615   6.991   6.347
 3720POPC   C2B48368  30.770   7.134   6.763
 3720POPC   C3B48369  30.686   7.038   7.190
 3720POPC   C4B48370  30.507   7.109   7.590
 3721POPC   NC348371  17.709  38.524   5.472
 3721POPC   PO448372  17.060  38.618   5.508
 3721POPC   GL148373  17.306  38.720   5.818
 3721POPC   GL248374  17.406  38.395   5.886
 3721POPC   C1A48375  17.543  38.747   6.217
 3721POPC   D2A48376  17.716  38.863   6.604
 3721POPC   C3A48377  17.490  38.736   6.971
 3721POPC   C4A48378  17.738  38.539   7.249
 3721POPC   C1B48379  17.266  38.116   6.203
 3721POPC   C2B48380  17.445  38.024   6.601
 3721POPC   C3B48381  17.468  38.201   7.001
 3721POPC   C4B48382  17.608  38.096   7.441
 3722POPC   NC348383  21.223  20.180   5.627
 3722POPC   PO448384  21.549  20.780   5.436
 3722POPC   GL148385  21.547  20.639   5.846
 3722POPC   GL248386  21.183  20.629   5.895
 3722POPC   C1A48387  21.475  20.593   6.290
 3722POPC   D2A48388  21.451  20.401   6.650
 3722POPC   C3A48389  21.517  20.664   6.984
 3722POPC   C4A48390  21.417  20.647   7.382
 3722POPC   C1B48391  20.976  20.552   6.338
 3722POPC   C2B48392  21.112  20.795   6.692
 3722POPC   C3B48393  21.064  20.948   7.114
 3722POPC   C4B48394  21.074  20.928   7.586
 3723POPC   NC348395  24.845   0.596   5.444
 3723POPC   PO448396  25.422   0.321   5.311
 3723POPC   GL148397  25.253   0.267   5.714
 3723POPC   GL248398  25.200   0.597   5.810
 3723POPC   C1A48399  25.099   0.192   6.136
 3723POPC   D2A48400  25.157   0.415   6.521
 3723POPC   C3A48401  24.980   0.377   6.923
 3723POPC   C4A48402  25.135   0.479   7.333
 3723POPC   C1B48403  25.231   0.814   6.195
 3723POPC   C2B48404  25.447   0.827   6.597
 3723POPC   C3B48405  25.224   0.864   7.000
 3723POPC   C4B48406  25.523   0.845   7.343
 3724POPC   NC348407  30.112  13.407   5.494
 3724POPC   PO448408  29.444  13.455   5.489
 3724POPC   GL148409  29.654  13.675   5.805
 3724POPC   GL248410  29.420  13.905   5.949
 3724POPC   C1A48411  29.986  13.854   6.069
 3724POPC   D2A48412  30.244  13.682   6.448
 3724POPC   C3A48413  30.095  13.740   6.879
 3724POPC   C4A48414  29.850  13.702   7.273
 3724POPC   C1B48415  29.580  13.728   6.330
 3724POPC   C2B48416  29.612  13.852   6.739
 3724POPC   C3B48417  29.418  13.914   7.117
 3724POPC   C4B48418  29.429  13.825   7.570
 3725POPC   NC348419  21.709  14.005   5.569
 3725POPC   PO448420  21.149  14.197   5.242
 3725POPC   GL148421  21.196  14.221   5.713
 3725POPC   GL248422  21.488  14.274   5.946
 3725POPC   C1A48423  21.017  14.448   6.080
 3725POPC   D2A48424  20.901  14.517   6.517
 3725POPC   C3A48425  21.199  14.420   6.862
 3725POPC   C4A48426  21.333  14.440   7.265
 3725POPC   C1B48427  21.680  14.045   6.294
 3725POPC   C2B48428  21.846  14.187   6.676
 3725POPC   C3B48429  21.712  14.526   6.909
 3725POPC   C4B48430  21.846  14.372   7.283
 3726POPC   NC348431  12.649  30.515   5.333
 3726POPC   PO448432  13.226  30.933   5.429
 3726POPC   GL148433  13.030  30.786   5.860
 3726POPC   GL248434  12.724  30.573   5.843
 3726POPC   C1A48435  12.872  30.790   6.286
 3726POPC   D2A48436  13.141  30.732   6.613
 3726POPC   C3A48437  13.008  30.668   7.016
 3726POPC   C4A48438  13.002  31.007   7.299
 3726POPC   C1B48439  12.689  30.298   6.203
 3726POPC   C2B48440  12.779  30.303   6.633
 3726POPC   C3B48441  12.507  30.359   6.971
 3726POPC   C4B48442  12.553  30.659   7.265
 3727POPC   NC348443   7.702  37.769   5.063
 3727POPC   PO448444   7.187  37.276   5.182
 3727POPC   GL148445   7.230  37.401   5.735
 3727POPC   GL248446   7.425  37.779   5.784
 3727POPC   C1A48447   7.547  37.471   6.147
 3727POPC   D2A48448   7.695  37.716   6.520
 3727POPC   C3A48449   7.651  37.568   6.951
 3727POPC   C4A48450   7.577  37.742   7.398
 3727POPC   C1B48451   7.348  37.940   6.185
 3727POPC   C2B48452   7.215  37.965   6.608
 3727POPC   C3B48453   7.385  38.037   7.018
 3727POPC   C4B48454   7.215  38.136   7.432
 3728POPC   NC348455   3.685   4.459   5.270
 3728POPC   PO448456   3.240   3.981   5.519
 3728POPC   GL148457   3.593   4.171   5.755
 3728POPC   GL248458   3.858   3.962   5.966
 3728POPC   C1A48459   3.559   4.319   6.182
 3728POPC   D2A48460   3.783   4.117   6.517
 3728POPC   C3A48461   3.555   4.214   6.868
 3728POPC   C4A48462   3.630   4.412   7.242
 3728POPC   C1B48463   3.443   3.820   6.157
 3728POPC   C2B48464   3.162   3.871   6.518
 3728POPC   C3B48465   3.214   3.869   6.961
 3728POPC   C4B48466   3.236   4.122   7.320
 3729POPC   NC348467  12.265  14.105   5.406
 3729POPC   PO448468  12.161  14.789   5.468
 3729POPC   GL148469  11.936  14.449   5.692
 3729POPC   GL248470  12.218  14.319   5.868
 3729POPC   C1A48471  11.746  14.237   6.078
 3729POPC   D2A48472  11.897  14.251   6.515
 3729POPC   C3A48473  11.745  14.473   6.903
 3729POPC   C4A48474  11.769  14.344   7.353
 3729POPC   C1B48475  12.124  14.639   6.184
 3729POPC   C2B48476  12.105  14.728   6.632
 3729POPC   C3B48477  12.231  14.623   7.067
 3729POPC   C4B48478  12.586  14.737   7.316
 3730POPC   NC348479  43.267  39.990   5.328
 3730POPC   PO448480  43.611  39.450   5.543
 3730POPC   GL148481  43.294  39.727   5.760
 3730POPC   GL248482  43.318  40.156   5.816
 3730POPC   C1A48483  43.057  39.809   6.116
 3730POPC   D2A48484  43.239  39.866   6.492
 3730POPC   C3A48485  43.013  39.845   6.857
 3730POPC   C4A48486  43.112  39.904   7.254
 3730POPC   C1B48487  43.007  40.323   6.140
 3730POPC   C2B48488  42.807  40.185   6.525
 3730POPC   C3B48489  42.797  40.327   6.948
 3730POPC   C4B48490  42.714  40.706   7.191
 3731POPC   NC348491  36.546  34.597   5.365
 3731POPC   PO448492  37.127  34.378   5.227
 3731POPC   GL148493  37.053  34.508   5.670
 3731POPC   GL248494  37.208  34.816   5.778
 3731POPC   C1A48495  36.751  34.662   6.011
 3731POPC   D2A48496  36.684  34.458   6.423
 3731POPC   C3A48497  36.822  34.531   6.854
 3731POPC   C4A48498  36.788  34.697   7.290
 3731POPC   C1B48499  37.206  34.613   6.214
 3731POPC   C2B48500  37.376  34.611   6.658
 3731POPC   C3B48501  37.282  34.551   7.081
 3731POPC   C4B48502  37.238  34.246   7.368
 3732POPC   NC348503  20.583  34.089   5.462
 3732POPC   PO448504  20.706  33.393   5.341
 3732POPC   GL148505  20.846  33.695   5.724
 3732POPC   GL248506  20.753  34.064   5.913
 3732POPC   C1A48507  20.889  33.686   6.185
 3732POPC   D2A48508  20.666  33.609   6.546
 3732POPC   C3A48509  20.750  33.779   6.916
 3732POPC   C4A48510  21.012  33.652   7.226
 3732POPC   C1B48511  20.571  34.126   6.294
 3732POPC   C2B48512  20.336  33.999   6.645
 3732POPC   C3B48513  20.396  34.146   7.052
 3732POPC   C4B48514  20.745  34.091   7.325
 3733POPC   NC348515  27.158  25.569   5.538
 3733POPC   PO448516  27.787  25.421   5.530
 3733POPC   GL148517  27.717  25.234   5.928
 3733POPC   GL248518  27.368  25.111   5.926
 3733POPC   C1A48519  27.597  25.452   6.322
 3733POPC   D2A48520  27.402  25.382   6.722
 3733POPC   C3A48521  27.659  25.610   6.983
 3733POPC   C4A48522  27.593  25.797   7.329
 3733POPC   C1B48523  27.457  24.976   6.358
 3733POPC   C2B48524  27.806  25.105   6.678
 3733POPC   C3B48525  27.696  25.126   7.144
 3733POPC   C4B48526  27.377  24.903   7.370
 3734POPC   NC348527   6.706  18.015   5.349
 3734POPC   PO448528   6.446  18.701   5.317
 3734POPC   GL148529   6.598  18.428   5.634
 3734POPC   GL248530   6.433  18.614   5.828
 3734POPC   C1A48531   6.618  18.168   6.027
 3734POPC   D2A48532   6.511  18.056   6.480
 3734POPC   C3A48533   6.719  18.187   6.873
 3734POPC   C4A48534   6.589  18.056   7.298
 3734POPC   C1B48535   6.730  18.649   6.152
 3734POPC   C2B48536   6.838  18.620   6.582
 3734POPC   C3B48537   6.703  18.699   6.985
 3734POPC   C4B48538   6.771  18.556   7.384
 3735POPC   NC348539  36.125  16.524   5.285
 3735POPC   PO448540  36.277  17.073   5.641
 3735POPC   GL148541  35.979  16.747   5.799
 3735POPC   GL248542  35.989  16.406   5.763
 3735POPC   C1A48543  35.781  16.837   6.193
 3735POPC   D2A48544  35.857  17.112   6.573
 3735POPC   C3A48545  35.840  16.926   6.985
 3735POPC   C4A48546  35.897  17.122   7.379
 3735POPC   C1B48547  36.322  16.561   6.099
 3735POPC   C2B48548  36.202  16.727   6.481
 3735POPC   C3B48549  36.320  16.650   6.888
 3735POPC   C4B48550  36.320  16.887   7.242
 3736POPC   NC348551  37.991   5.696   5.335
 3736POPC   PO448552  38.640   5.716   5.504
 3736POPC   GL148553  38.400   5.889   5.818
 3736POPC   GL248554  38.359   5.563   5.933
 3736POPC   C1A48555  38.474   5.984   6.266
 3736POPC   D2A48556  38.465   6.127   6.715
 3736POPC   C3A48557  38.849   6.062   6.946
 3736POPC   C4A48558  38.843   5.912   7.364
 3736POPC   C1B48559  38.081   5.653   6.283
 3736POPC   C2B48560  38.220   5.648   6.684
 3736POPC   C3B48561  38.516   5.685   7.006
 3736POPC   C4B48562  38.347   5.730   7.434
 3737POPC   NC348563  33.143  26.341   5.415
 3737POPC   PO448564  33.166  25.736   5.090
 3737POPC   GL148565  33.013  25.670   5.590
 3737POPC   GL248566  32.900  25.986   5.744
 3737POPC   C1A48567  33.130  25.657   6.071
 3737POPC   D2A48568  33.243  25.852   6.490
 3737POPC   C3A48569  33.178  25.698   6.910
 3737POPC   C4A48570  32.952  25.827   7.248
 3737POPC   C1B48571  33.076  26.223   6.117
 3737POPC   C2B48572  33.229  26.383   6.538
 3737POPC   C3B48573  33.393  26.321   6.951
 3737POPC   C4B48574  33.261  26.268   7.368
 3738POPC   NC348575   8.465  25.110   5.149
 3738POPC   PO448576   7.904  25.465   5.446
 3738POPC   GL148577   7.955  25.309   5.820
 3738POPC   GL248578   8.284  25.188   5.723
 3738POPC   C1A48579   7.833  25.193   6.258
 3738POPC   D2A48580   7.718  25.024   6.673
 3738POPC   C3A48581   7.938  25.194   7.022
 3738POPC   C4A48582   7.988  25.069   7.461
 3738POPC   C1B48583   8.546  25.032   6.067
 3738POPC   C2B48584   8.628  25.017   6.516
 3738POPC   C3B48585   8.414  24.997   6.914
 3738POPC   C4B48586   8.369  25.332   7.234
 3739POPC   NC348587   9.520  38.180   5.418
 3739POPC   PO448588  10.112  38.398   5.417
 3739POPC   GL148589   9.887  38.340   5.766
 3739POPC   GL248590   9.618  38.570   5.861
 3739POPC   C1A48591  10.020  38.242   6.169
 3739POPC   D2A48592   9.786  38.395   6.500
 3739POPC   C3A48593   9.893  38.415   6.926
 3739POPC   C4A48594   9.634  38.585   7.254
 3739POPC   C1B48595   9.920  38.748   6.141
 3739POPC   C2B48596  10.073  38.819   6.542
 3739POPC   C3B48597   9.927  38.912   6.911
 3739POPC   C4B48598  10.050  38.886   7.284
 3740POPC   NC348599   1.465  21.423   5.138
 3740POPC   PO448600   2.058  21.234   5.453
 3740POPC   GL148601   2.191  21.274   5.897
 3740POPC   GL248602   1.950  21.486   6.014
 3740POPC   C1A48603   2.173  21.275   6.396
 3740POPC   D2A48604   1.879  21.573   6.585
 3740POPC   C3A48605   1.961  21.624   7.015
 3740POPC   C4A48606   2.174  21.346   7.251
 3740POPC   C1B48607   1.667  21.209   6.219
 3740POPC   C2B48608   1.545  20.990   6.584
 3740POPC   C3B48609   1.761  21.161   6.886
 3740POPC   C4B48610   1.670  21.291   7.276
 3741POPC   NC348611  28.865  30.973   5.316
 3741POPC   PO448612  29.347  30.540   5.466
 3741POPC   GL148613  29.168  30.735   5.791
 3741POPC   GL248614  29.409  30.570   5.985
 3741POPC   C1A48615  29.046  30.874   6.191
 3741POPC   D2A48616  29.202  30.880   6.607
 3741POPC   C3A48617  28.950  30.739   6.942
 3741POPC   C4A48618  29.010  30.877   7.357
 3741POPC   C1B48619  29.340  30.342   6.345
 3741POPC   C2B48620  29.272  30.381   6.736
 3741POPC   C3B48621  29.398  30.557   7.059
 3741POPC   C4B48622  29.504  30.310   7.362
 3742POPC   NC348623   5.143  23.840   5.423
 3742POPC   PO448624   4.469  23.782   5.296
 3742POPC   GL148625   4.778  23.707   5.802
 3742POPC   GL248626   5.142  23.598   5.869
 3742POPC   C1A48627   4.922  23.721   6.299
 3742POPC   D2A48628   5.146  23.951   6.653
 3742POPC   C3A48629   4.932  23.896   7.083
 3742POPC   C4A48630   4.934  23.603   7.486
 3742POPC   C1B48631   5.402  23.546   6.258
 3742POPC   C2B48632   5.494  23.514   6.681
 3742POPC   C3B48633   5.393  23.698   7.033
 3742POPC   C4B48634   5.397  23.549   7.394
 3743POPC   NC348635   7.592  28.195   5.498
 3743POPC   PO448636   7.047  28.566   5.668
 3743POPC   GL148637   7.340  28.354   5.921
 3743POPC   GL248638   7.233  28.034   5.839
 3743POPC   C1A48639   7.446  28.169   6.332
 3743POPC   D2A48640   7.632  28.315   6.709
 3743POPC   C3A48641   7.571  28.482   7.103
 3743POPC   C4A48642   7.797  28.203   7.378
 3743POPC   C1B48643   7.183  27.744   6.180
 3743POPC   C2B48644   7.073  27.710   6.590
 3743POPC   C3B48645   7.270  27.996   6.871
 3743POPC   C4B48646   7.290  28.098   7.298
 3744POPC   NC348647   0.687  35.558   5.391
 3744POPC   PO448648   0.130  35.152   5.497
 3744POPC   GL148649   0.252  35.424   5.800
 3744POPC   GL248650   0.610  35.334   5.849
 3744POPC   C1A48651   0.157  35.454   6.269
 3744POPC   D2A48652   0.566  35.370   6.495
 3744POPC   C3A48653   0.595  35.257   6.939
 3744POPC   C4A48654   0.210  35.216   7.154
 3744POPC   C1B48655   0.522  35.738   6.060
 3744POPC   C2B48656   0.432  35.865   6.467
 3744POPC   C3B48657   0.310  35.678   6.846
 3744POPC   C4B48658   0.579  35.706   7.209
 3745POPC   NC348659  13.326  16.736   5.444
 3745POPC   PO448660  13.883  16.877   5.415
 3745POPC   GL148661  13.725  16.810   5.802
 3745POPC   GL248662  13.489  17.066   5.835
 3745POPC   C1A48663  13.716  16.524   6.152
 3745POPC   D2A48664  13.560  16.614   6.556
 3745POPC   C3A48665  13.612  16.584   7.004
 3745POPC   C4A48666  13.325  16.531   7.350
 3745POPC   C1B48667  13.279  16.810   6.139
 3745POPC   C2B48668  13.131  16.879   6.528
 3745POPC   C3B48669  13.289  17.001   6.897
 3745POPC   C4B48670  13.114  17.115   7.262
 3746POPC   NC348671  19.045  27.402   5.248
 3746POPC   PO448672  18.772  27.931   5.474
 3746POPC   GL148673  18.962  27.695   5.816
 3746POPC   GL248674  18.985  27.330   5.749
 3746POPC   C1A48675  18.817  27.703   6.259
 3746POPC   D2A48676  18.674  27.571   6.678
 3746POPC   C3A48677  18.963  27.734   7.002
 3746POPC   C4A48678  18.854  27.581   7.398
 3746POPC   C1B48679  19.165  27.336   6.165
 3746POPC   C2B48680  19.219  27.540   6.563
 3746POPC   C3B48681  19.260  27.345   6.960
 3746POPC   C4B48682  19.230  27.256   7.374
 3747POPC   NC348683  26.807  27.152   5.566
 3747POPC   PO448684  26.533  26.513   5.368
 3747POPC   GL148685  26.590  26.707   5.783
 3747POPC   GL248686  26.944  26.745   5.860
 3747POPC   C1A48687  26.595  26.823   6.240
 3747POPC   D2A48688  26.907  26.673   6.560
 3747POPC   C3A48689  26.794  26.785   6.967
 3747POPC   C4A48690  26.781  26.608   7.347
 3747POPC   C1B48691  27.075  27.036   6.235
 3747POPC   C2B48692  27.201  27.085   6.702
 3747POPC   C3B48693  27.251  26.969   7.152
 3747POPC   C4B48694  26.963  27.035   7.509
 3748POPC   NC348695  23.059  33.316   5.598
 3748POPC   PO448696  22.749  32.687   5.585
 3748POPC   GL148697  22.934  32.931   5.916
 3748POPC   GL248698  22.755  33.264   6.000
 3748POPC   C1A48699  22.871  32.870   6.344
 3748POPC   D2A48700  23.008  32.600   6.637
 3748POPC   C3A48701  23.117  32.814   7.018
 3748POPC   C4A48702  22.931  32.908   7.481
 3748POPC   C1B48703  23.173  33.267   6.247
 3748POPC   C2B48704  23.160  33.221   6.698
 3748POPC   C3B48705  22.909  33.252   7.102
 3748POPC   C4B48706  23.059  33.410   7.511
 3749POPC   NC348707  22.317  39.442   5.359
 3749POPC   PO448708  22.224  38.849   5.231
 3749POPC   GL148709  22.236  39.055   5.698
 3749POPC   GL248710  22.114  39.375   5.835
 3749POPC   C1A48711  22.299  39.020   6.172
 3749POPC   D2A48712  22.489  39.198   6.574
 3749POPC   C3A48713  22.277  39.030   6.934
 3749POPC   C4A48714  22.131  39.228   7.272
 3749POPC   C1B48715  22.240  39.542   6.268
 3749POPC   C2B48716  22.105  39.704   6.709
 3749POPC   C3B48717  22.298  39.703   7.134
 3749POPC   C4B48718  22.591  39.406   7.160
 3750POPC   NC348719  31.616  23.794   5.395
 3750POPC   PO448720  31.559  23.194   5.646
 3750POPC   GL148721  31.487  23.621   5.885
 3750POPC   GL248722  31.563  23.990   5.854
 3750POPC   C1A48723  31.627  23.768   6.312
 3750POPC   D2A48724  31.826  23.599   6.681
 3750POPC   C3A48725  31.487  23.538   6.961
 3750POPC   C4A48726  31.292  23.801   7.273
 3750POPC   C1B48727  31.280  24.128   6.188
 3750POPC   C2B48728  31.278  23.986   6.625
 3750POPC   C3B48729  31.620  24.032   6.913
 3750POPC   C4B48730  31.615  24.265   7.278
 3751POPC   NC348731  31.711  24.628   5.153
 3751POPC   PO448732  31.256  24.123   5.341
 3751POPC   GL148733  31.396  24.420   5.641
 3751POPC   GL248734  31.078  24.379   5.803
 3751POPC   C1A48735  31.659  24.480   6.038
 3751POPC   D2A48736  31.634  24.341   6.490
 3751POPC   C3A48737  31.768  24.552   6.889
 3751POPC   C4A48738  31.907  24.726   7.288
 3751POPC   C1B48739  31.211  24.646   6.181
 3751POPC   C2B48740  31.381  24.778   6.587
 3751POPC   C3B48741  31.268  24.563   6.987
 3751POPC   C4B48742  31.160  24.540   7.428
 3752POPC   NC348743   5.627  26.918   5.646
 3752POPC   PO448744   5.112  26.669   5.243
 3752POPC   GL148745   5.097  26.738   5.724
 3752POPC   GL248746   4.935  26.994   5.893
 3752POPC   C1A48747   5.131  26.566   6.157
 3752POPC   D2A48748   5.096  26.766   6.546
 3752POPC   C3A48749   5.159  26.676   6.940
 3752POPC   C4A48750   5.009  27.029   7.131
 3752POPC   C1B48751   5.328  27.049   6.203
 3752POPC   C2B48752   5.463  27.141   6.653
 3752POPC   C3B48753   5.555  27.005   7.074
 3752POPC   C4B48754   5.443  26.679   7.378
 3753POPC   NC348755  28.677  37.181   5.376
 3753POPC   PO448756  28.427  37.871   5.349
 3753POPC   GL148757  28.302  37.701   5.779
 3753POPC   GL248758  28.074  37.442   5.748
 3753POPC   C1A48759  28.155  37.764   6.222
 3753POPC   D2A48760  28.343  37.696   6.638
 3753POPC   C3A48761  28.300  37.897   7.050
 3753POPC   C4A48762  28.516  38.014   7.447
 3753POPC   C1B48763  28.252  37.270   6.150
 3753POPC   C2B48764  28.195  37.213   6.603
 3753POPC   C3B48765  28.087  37.410   7.034
 3753POPC   C4B48766  28.353  37.515   7.411
 3754POPC   NC348767  39.833  31.000   5.365
 3754POPC   PO448768  40.097  30.351   5.468
 3754POPC   GL148769  40.183  30.601   5.817
 3754POPC   GL248770  40.106  30.937   5.801
 3754POPC   C1A48771  40.069  30.660   6.242
 3754POPC   D2A48772  39.922  30.713   6.646
 3754POPC   C3A48773  40.305  30.814   6.817
 3754POPC   C4A48774  40.455  30.648   7.161
 3754POPC   C1B48775  39.703  30.999   6.078
 3754POPC   C2B48776  39.662  31.150   6.525
 3754POPC   C3B48777  39.697  31.040   6.979
 3754POPC   C4B48778  40.031  30.934   7.239
 3755POPC   NC348779  38.099  20.294   5.463
 3755POPC   PO448780  38.738  20.579   5.465
 3755POPC   GL148781  38.569  20.748   5.857
 3755POPC   GL248782  38.225  20.631   5.836
 3755POPC   C1A48783  38.663  20.827   6.273
 3755POPC   D2A48784  38.651  20.574   6.617
 3755POPC   C3A48785  38.723  20.797   6.960
 3755POPC   C4A48786  38.584  20.655   7.352
 3755POPC   C1B48787  38.258  20.517   6.239
 3755POPC   C2B48788  38.138  20.617   6.618
 3755POPC   C3B48789  38.220  20.389   6.972
 3755POPC   C4B48790  38.118  20.468   7.374
 3756POPC   NC348791  27.958  15.011   5.194
 3756POPC   PO448792  27.384  15.345   5.297
 3756POPC   GL148793  27.564  15.263   5.747
 3756POPC   GL248794  27.902  15.070   5.786
 3756POPC   C1A48795  27.416  15.128   6.191
 3756POPC   D2A48796  27.332  14.896   6.576
 3756POPC   C3A48797  27.376  15.101   6.980
 3756POPC   C4A48798  27.135  15.060   7.332
 3756POPC   C1B48799  27.868  15.363   6.174
 3756POPC   C2B48800  27.680  15.348   6.630
 3756POPC   C3B48801  27.859  15.330   7.090
 3756POPC   C4B48802  27.976  15.485   7.553
 3757POPC   NC348803  43.947  22.143   5.356
 3757POPC   PO448804  44.545  22.157   5.549
 3757POPC   GL148805  44.174  22.162   5.836
 3757POPC   GL248806  43.847  22.372   5.825
 3757POPC   C1A48807  44.052  22.153   6.262
 3757POPC   D2A48808  43.920  21.958   6.632
 3757POPC   C3A48809  44.061  22.145   7.001
 3757POPC   C4A48810  43.900  22.113   7.436
 3757POPC   C1B48811  43.778  22.580   6.226
 3757POPC   C2B48812  43.804  22.477   6.670
 3757POPC   C3B48813  43.670  22.488   7.103
 3757POPC   C4B48814  43.404  22.206   7.378
 3758POPC   NC348815   1.838  28.709   5.428
 3758POPC   PO448816   2.162  28.125   5.496
 3758POPC   GL148817   2.047  28.277   5.899
 3758POPC   GL248818   1.829  28.577   5.925
 3758POPC   C1A48819   2.233  28.301   6.291
 3758POPC   D2A48820   2.458  28.456   6.636
 3758POPC   C3A48821   2.246  28.350   7.025
 3758POPC   C4A48822   2.107  28.091   7.373
 3758POPC   C1B48823   1.704  28.369   6.288
 3758POPC   C2B48824   1.869  28.189   6.659
 3758POPC   C3B48825   1.675  28.118   7.052
 3758POPC   C4B48826   1.475  28.508   7.153
 3759POPC   NC348827  28.151   5.402   5.120
 3759POPC   PO448828  28.337   4.907   5.539
 3759POPC   GL148829  28.301   5.096   5.922
 3759POPC   GL248830  28.605   5.276   5.965
 3759POPC   C1A48831  28.402   5.000   6.346
 3759POPC   D2A48832  28.524   4.685   6.616
 3759POPC   C3A48833  28.511   4.855   7.043
 3759POPC   C4A48834  28.333   4.983   7.448
 3759POPC   C1B48835  28.380   5.507   6.269
 3759POPC   C2B48836  28.465   5.451   6.713
 3759POPC   C3B48837  28.474   5.491   7.161
 3759POPC   C4B48838  28.513   5.452   7.601
 3760POPC   NC348839  38.065  35.494   5.231
 3760POPC   PO448840  37.464  35.142   5.456
 3760POPC   GL148841  37.365  35.394   5.813
 3760POPC   GL248842  37.500  35.161   6.021
 3760POPC   C1A48843  37.342  35.595   6.221
 3760POPC   D2A48844  37.274  35.350   6.603
 3760POPC   C3A48845  37.451  35.508   6.991
 3760POPC   C4A48846  37.406  35.374   7.421
 3760POPC   C1B48847  37.799  35.228   6.330
 3760POPC   C2B48848  37.701  35.020   6.693
 3760POPC   C3B48849  37.511  35.011   7.047
 3760POPC   C4B48850  37.851  35.161   7.259
 3761POPC   NC348851  33.554  30.312   5.470
 3761POPC   PO448852  33.997  30.774   5.391
 3761POPC   GL148853  33.838  30.651   5.836
 3761POPC   GL248854  33.530  30.484   5.939
 3761POPC   C1A48855  33.905  30.615   6.304
 3761POPC   D2A48856  33.930  30.935   6.653
 3761POPC   C3A48857  33.908  30.651   6.996
 3761POPC   C4A48858  34.104  30.271   7.053
 3761POPC   C1B48859  33.396  30.768   6.255
 3761POPC   C2B48860  33.476  30.717   6.655
 3761POPC   C3B48861  33.445  30.850   7.045
 3761POPC   C4B48862  33.387  30.502   7.267
 3762POPC   NC348863  25.589  40.212   5.436
 3762POPC   PO448864  25.336  39.605   5.615
 3762POPC   GL148865  25.310  39.851   5.969
 3762POPC   GL248866  25.263  40.168   5.821
 3762POPC   C1A48867  25.006  40.030   6.270
 3762POPC   D2A48868  24.789  40.000   6.670
 3762POPC   C3A48869  25.091  39.913   6.975
 3762POPC   C4A48870  25.486  40.052   6.983
 3762POPC   C1B48871  25.300  40.448   6.160
 3762POPC   C2B48872  25.361  40.323   6.561
 3762POPC   C3B48873  25.393  40.572   6.920
 3762POPC   C4B48874  25.396  40.418   7.348
 3763POPC   NC348875  19.519  21.434   5.141
 3763POPC   PO448876  20.033  21.162   5.426
 3763POPC   GL148877  19.821  21.383   5.733
 3763POPC   GL248878  19.646  21.076   5.845
 3763POPC   C1A48879  19.866  21.519   6.166
 3763POPC   D2A48880  19.819  21.267   6.577
 3763POPC   C3A48881  19.839  21.575   6.892
 3763POPC   C4A48882  19.951  21.712   7.282
 3763POPC   C1B48883  19.997  21.039   6.130
 3763POPC   C2B48884  20.176  20.893   6.512
 3763POPC   C3B48885  20.142  20.850   6.967
 3763POPC   C4B48886  19.900  21.148   7.227
 3764POPC   NC348887   6.794  39.600   5.104
 3764POPC   PO448888   6.771  40.224   5.441
 3764POPC   GL148889   6.713  39.986   5.809
 3764POPC   GL248890   6.502  39.717   5.764
 3764POPC   C1A48891   6.687  40.061   6.239
 3764POPC   D2A48892   6.844  40.126   6.647
 3764POPC   C3A48893   6.603  40.425   6.858
 3764POPC   C4A48894   6.673  40.359   7.302
 3764POPC   C1B48895   6.258  39.804   6.165
 3764POPC   C2B48896   6.309  40.031   6.612
 3764POPC   C3B48897   6.475  39.940   7.047
 3764POPC   C4B48898   6.302  39.701   7.415
 3765POPC   NC348899  34.862  43.078   5.406
 3765POPC   PO448900  34.305  42.843   5.537
 3765POPC   GL148901  34.561  43.112   5.832
 3765POPC   GL248902  34.838  42.886   5.882
 3765POPC   C1A48903  34.905  43.347   6.085
 3765POPC   D2A48904  34.913  43.527   6.515
 3765POPC   C3A48905  34.809  43.224   6.855
 3765POPC   C4A48906  34.499  43.254   7.213
 3765POPC   C1B48907  34.719  42.924   6.327
 3765POPC   C2B48908  34.554  42.713   6.693
 3765POPC   C3B48909  34.734  42.614   7.085
 3765POPC   C4B48910  34.557  42.791   7.441
 3766POPC   NC348911  24.842  28.369   5.533
 3766POPC   PO448912  25.424  28.307   5.420
 3766POPC   GL148913  25.272  28.161   5.824
 3766POPC   GL248914  25.523  27.917   5.896
 3766POPC   C1A48915  25.119  28.375   6.227
 3766POPC   D2A48916  25.128  28.255   6.687
 3766POPC   C3A48917  25.077  28.560   7.000
 3766POPC   C4A48918  25.117  28.488   7.444
 3766POPC   C1B48919  25.476  28.048   6.339
 3766POPC   C2B48920  25.583  28.019   6.780
 3766POPC   C3B48921  25.504  28.283   7.126
 3766POPC   C4B48922  25.651  28.380   7.544
 3767POPC   NC348923  20.707  39.664   5.557
 3767POPC   PO448924  20.435  40.293   5.651
 3767POPC   GL148925  20.515  39.943   5.933
 3767POPC   GL248926  20.345  39.583   5.919
 3767POPC   C1A48927  20.551  40.086   6.317
 3767POPC   D2A48928  20.554  40.374   6.620
 3767POPC   C3A48929  20.634  40.100   6.996
 3767POPC   C4A48930  20.365  39.852   7.256
 3767POPC   C1B48931  20.651  39.558   6.253
 3767POPC   C2B48932  20.698  39.726   6.645
 3767POPC   C3B48933  20.774  39.560   7.020
 3767POPC   C4B48934  20.823  39.631   7.409
 3768POPC   NC348935  38.522  34.800   5.461
 3768POPC   PO448936  38.864  34.308   5.177
 3768POPC   GL148937  38.509  34.324   5.638
 3768POPC   GL248938  38.393  34.604   5.899
 3768POPC   C1A48939  38.509  34.230   6.180
 3768POPC   D2A48940  38.474  34.513   6.557
 3768POPC   C3A48941  38.655  34.399   6.978
 3768POPC   C4A48942  38.693  34.734   7.291
 3768POPC   C1B48943  38.185  34.865   6.234
 3768POPC   C2B48944  38.235  35.035   6.629
 3768POPC   C3B48945  38.277  34.772   6.974
 3768POPC   C4B48946  38.224  34.519   7.335
 3769POPC   NC348947  41.044  43.340   5.471
 3769POPC   PO448948  40.431  43.228   5.522
 3769POPC   GL148949  40.707  43.208   5.884
 3769POPC   GL248950  40.925  43.479   5.946
 3769POPC   C1A48951  40.613  43.219   6.312
 3769POPC   D2A48952  40.477  42.945   6.602
 3769POPC   C3A48953  40.569  43.104   6.933
 3769POPC   C4A48954  40.657  43.342   7.243
 3769POPC   C1B48955  40.902  43.638   6.359
 3769POPC   C2B48956  40.864  43.485   6.758
 3769POPC   C3B48957  41.121  43.445   7.089
 3769POPC   C4B48958  41.093  43.391   7.530
 3770POPC   NC348959   4.940   9.822   5.312
 3770POPC   PO448960   5.550   9.528   5.255
 3770POPC   GL148961   5.255   9.547   5.644
 3770POPC   GL248962   4.918   9.398   5.674
 3770POPC   C1A48963   5.120   9.737   6.034
 3770POPC   D2A48964   5.217   9.834   6.472
 3770POPC   C3A48965   4.931   9.881   6.824
 3770POPC   C4A48966   4.992   9.815   7.251
 3770POPC   C1B48967   4.760   9.377   6.118
 3770POPC   C2B48968   4.885   9.418   6.582
 3770POPC   C3B48969   4.672   9.475   7.022
 3770POPC   C4B48970   4.649   9.502   7.492
 3771POPC   NC348971   8.338  41.423   5.475
 3771POPC   PO448972   8.115  42.123   5.517
 3771POPC   GL148973   7.987  41.822   5.842
 3771POPC   GL248974   7.913  41.479   5.759
 3771POPC   C1A48975   8.188  41.543   6.185
 3771POPC   D2A48976   8.361  41.602   6.598
 3771POPC   C3A48977   8.252  41.477   7.024
 3771POPC   C4A48978   8.315  41.624   7.475
 3771POPC   C1B48979   7.744  41.270   6.161
 3771POPC   C2B48980   7.955  41.232   6.569
 3771POPC   C3B48981   7.924  41.086   7.005
 3771POPC   C4B48982   7.801  41.342   7.319
 3772POPC   NC348983  26.391  22.317   5.455
 3772POPC   PO448984  25.738  22.020   5.440
 3772POPC   GL148985  25.942  22.200   5.794
 3772POPC   GL248986  26.189  21.923   5.790
 3772POPC   C1A48987  25.943  22.472   6.191
 3772POPC   D2A48988  25.978  22.314   6.627
 3772POPC   C3A48989  26.228  22.383   7.000
 3772POPC   C4A48990  26.100  22.500   7.418
 3772POPC   C1B48991  26.011  21.936   6.216
 3772POPC   C2B48992  25.967  21.787   6.616
 3772POPC   C3B48993  26.116  21.898   7.002
 3772POPC   C4B48994  26.479  21.930   7.263
 3773POPC   NC348995   6.306   4.464   5.358
 3773POPC   PO448996   6.544   3.873   5.583
 3773POPC   GL148997   6.551   4.116   5.926
 3773POPC   GL248998   6.515   4.444   5.817
 3773POPC   C1A48999   6.552   4.059   6.353
 3773POPC   D2A49000   6.499   3.861   6.733
 3773POPC   C3A49001   6.640   4.181   7.012
 3773POPC   C4A49002   6.576   4.227   7.459
 3773POPC   C1B49003   6.614   4.610   6.202
 3773POPC   C2B49004   6.524   4.529   6.618
 3773POPC   C3B49005   6.398   4.643   7.021
 3773POPC   C4B49006   6.806   4.785   7.152
 3774POPC   NC349007  27.766  13.334   5.413
 3774POPC   PO449008  27.419  13.864   5.525
 3774POPC   GL149009  27.746  13.646   5.837
 3774POPC   GL249010  27.879  13.292   5.917
 3774POPC   C1A49011  27.983  13.703   6.248
 3774POPC   D2A49012  27.719  13.823   6.627
 3774POPC   C3A49013  27.680  13.753   7.088
 3774POPC   C4A49014  27.345  14.025   7.288
 3774POPC   C1B49015  27.686  13.310   6.350
 3774POPC   C2B49016  27.614  13.306   6.796
 3774POPC   C3B49017  27.739  13.216   7.204
 3774POPC   C4B49018  27.602  13.368   7.607
 3775POPC   NC349019  27.907  44.877   5.393
 3775POPC   PO449020  27.465  44.406   5.416
 3775POPC   GL149021  27.668  44.580   5.766
 3775POPC   GL249022  27.886  44.317   5.794
 3775POPC   C1A49023  27.632  44.819   6.168
 3775POPC   D2A49024  27.762  44.734   6.607
 3775POPC   C3A49025  27.533  44.804   7.026
 3775POPC   C4A49026  27.699  44.807   7.505
 3775POPC   C1B49027  27.752  44.316   6.214
 3775POPC   C2B49028  27.997  44.273   6.590
 3775POPC   C3B49029  27.793  44.367   7.001
 3775POPC   C4B49030  27.790  44.311   7.452
 3776POPC   NC349031  26.010   3.238   5.500
 3776POPC   PO449032  26.477   3.714   5.653
 3776POPC   GL149033  26.187   3.427   5.943
 3776POPC   GL249034  25.826   3.260   5.972
 3776POPC   C1A49035  26.217   3.098   6.275
 3776POPC   D2A49036  26.260   3.156   6.707
 3776POPC   C3A49037  26.309   3.575   6.735
 3776POPC   C4A49038  26.223   3.754   7.120
 3776POPC   C1B49039  25.781   3.620   6.271
 3776POPC   C2B49040  25.836   3.750   6.722
 3776POPC   C3B49041  25.885   3.380   6.991
 3776POPC   C4B49042  25.600   3.216   7.281
 3777POPC   NC349043  15.062   7.471   5.109
 3777POPC   PO449044  15.060   7.864   5.632
 3777POPC   GL149045  15.057   7.477   5.809
 3777POPC   GL249046  15.377   7.282   5.845
 3777POPC   C1A49047  15.082   7.436   6.244
 3777POPC   D2A49048  15.279   7.343   6.628
 3777POPC   C3A49049  14.962   7.402   6.894
 3777POPC   C4A49050  14.983   7.524   7.272
 3777POPC   C1B49051  15.609   7.467   6.233
 3777POPC   C2B49052  15.520   7.784   6.533
 3777POPC   C3B49053  15.350   7.779   6.967
 3777POPC   C4B49054  15.512   7.484   7.249
 3778POPC   NC349055  22.832  31.360   5.334
 3778POPC   PO449056  23.054  30.854   5.593
 3778POPC   GL149057  22.848  31.204   5.826
 3778POPC   GL249058  22.860  31.578   5.814
 3778POPC   C1A49059  22.674  31.296   6.202
 3778POPC   D2A49060  22.777  31.479   6.567
 3778POPC   C3A49061  22.696  31.177   6.857
 3778POPC   C4A49062  22.781  31.252   7.279
 3778POPC   C1B49063  23.156  31.506   6.153
 3778POPC   C2B49064  23.278  31.630   6.595
 3778POPC   C3B49065  23.127  31.531   6.994
 3778POPC   C4B49066  23.292  31.604   7.423
 3779POPC   NC349067  37.881  30.305   5.514
 3779POPC   PO449068  37.234  30.121   5.302
 3779POPC   GL149069  37.482  30.006   5.684
 3779POPC   GL249070  37.324  29.703   5.730
 3779POPC   C1A49071  37.701  30.014   6.108
 3779POPC   D2A49072  37.868  29.937   6.507
 3779POPC   C3A49073  37.666  30.121   6.868
 3779POPC   C4A49074  37.757  29.967   7.256
 3779POPC   C1B49075  37.424  29.597   6.136
 3779POPC   C2B49076  37.506  29.443   6.531
 3779POPC   C3B49077  37.620  29.605   6.896
 3779POPC   C4B49078  37.602  29.483   7.331
 3780POPC   NC349079  22.736  25.363   5.644
 3780POPC   PO449080  22.152  25.512   5.350
 3780POPC   GL149081  22.233  25.449   5.825
 3780POPC   GL249082  22.314  25.084   5.937
 3780POPC   C1A49083  22.151  25.437   6.304
 3780POPC   D2A49084  22.330  25.463   6.751
 3780POPC   C3A49085  22.168  25.421   7.187
 3780POPC   C4A49086  21.843  25.409   7.516
 3780POPC   C1B49087  22.067  24.925   6.330
 3780POPC   C2B49088  22.113  24.974   6.809
 3780POPC   C3B49089  22.015  24.929   7.239
 3780POPC   C4B49090  22.233  25.091   7.620
 3781POPC   NC349091   0.744  40.257   5.433
 3781POPC   PO449092   1.237  39.808   5.463
 3781POPC   GL149093   1.050  40.036   5.790
 3781POPC   GL249094   0.714  39.912   5.868
 3781POPC   C1A49095   1.097  40.191   6.228
 3781POPC   D2A49096   1.281  39.962   6.593
 3781POPC   C3A49097   1.244  40.238   6.990
 3781POPC   C4A49098   1.263  40.096   7.421
 3781POPC   C1B49099   0.810  39.788   6.299
 3781POPC   C2B49100   0.813  40.042   6.714
 3781POPC   C3B49101   0.961  39.827   7.097
 3781POPC   C4B49102   0.761  39.767   7.499
 3782POPC   NC349103   2.370  19.102   5.380
 3782POPC   PO449104   2.026  18.559   5.376
 3782POPC   GL149105   2.054  18.901   5.772
 3782POPC   GL249106   2.236  19.276   5.846
 3782POPC   C1A49107   1.788  18.939   6.185
 3782POPC   D2A49108   1.787  18.779   6.615
 3782POPC   C3A49109   2.156  18.893   6.848
 3782POPC   C4A49110   2.085  18.802   7.254
 3782POPC   C1B49111   2.188  19.223   6.324
 3782POPC   C2B49112   1.862  19.275   6.673
 3782POPC   C3B49113   1.739  19.150   7.101
 3782POPC   C4B49114   2.014  19.225   7.498
 3783POPC   NC349115  18.667  10.183   5.542
 3783POPC   PO449116  18.234  10.668   5.507
 3783POPC   GL149117  18.104  10.472   5.868
 3783POPC   GL249118  18.030  10.135   5.824
 3783POPC   C1A49119  18.283  10.511   6.281
 3783POPC   D2A49120  18.467  10.845   6.547
 3783POPC   C3A49121  18.553  10.675   6.959
 3783POPC   C4A49122  18.377  10.270   7.188
 3783POPC   C1B49123  17.824  10.244   6.232
 3783POPC   C2B49124  17.859  10.536   6.562
 3783POPC   C3B49125  18.044  10.587   6.947
 3783POPC   C4B49126  17.886  10.435   7.331
 3784POPC   NC349127  12.293  36.900   5.297
 3784POPC   PO449128  11.644  36.624   5.539
 3784POPC   GL149129  12.006  36.831   5.798
 3784POPC   GL249130  12.393  36.967   5.804
 3784POPC   C1A49131  12.159  36.873   6.243
 3784POPC   D2A49132  12.026  36.961   6.653
 3784POPC   C3A49133  12.169  36.686   6.962
 3784POPC   C4A49134  12.171  36.913   7.349
 3784POPC   C1B49135  12.514  37.241   6.169
 3784POPC   C2B49136  12.448  37.232   6.613
 3784POPC   C3B49137  12.555  36.985   6.979
 3784POPC   C4B49138  12.569  37.268   7.291
 3785POPC   NC349139   0.159  42.555   5.307
 3785POPC   PO449140  44.548  42.340   5.383
 3785POPC   GL149141  44.819  42.267   5.732
 3785POPC   GL249142  44.876  42.601   5.729
 3785POPC   C1A49143  44.880  42.104   6.163
 3785POPC   D2A49144  44.711  41.904   6.563
 3785POPC   C3A49145  44.643  42.108   6.975
 3785POPC   C4A49146  44.541  42.079   7.423
 3785POPC   C1B49147  44.636  42.584   6.093
 3785POPC   C2B49148  44.692  42.465   6.514
 3785POPC   C3B49149  44.452  42.571   6.852
 3785POPC   C4B49150  44.514  42.546   7.273
 3786POPC   NC349151   8.699  27.301   5.357
 3786POPC   PO449152   9.272  26.853   5.447
 3786POPC   GL149153   9.053  26.834   5.815
 3786POPC   GL249154   8.805  27.087   5.800
 3786POPC   C1A49155   8.811  26.722   6.165
 3786POPC   D2A49156   8.659  26.443   6.481
 3786POPC   C3A49157   8.595  26.714   6.825
 3786POPC   C4A49158   8.587  26.683   7.264
 3786POPC   C1B49159   8.998  27.242   6.161
 3786POPC   C2B49160   8.905  27.161   6.611
 3786POPC   C3B49161   9.150  27.049   7.008
 3786POPC   C4B49162   9.145  27.116   7.470
 3787POPC   NC349163  39.324  28.356   5.447
 3787POPC   PO449164  38.687  28.282   5.572
 3787POPC   GL149165  38.981  28.564   5.809
 3787POPC   GL249166  39.272  28.373   5.953
 3787POPC   C1A49167  38.944  28.753   6.237
 3787POPC   D2A49168  38.852  28.859   6.707
 3787POPC   C3A49169  39.075  28.668   7.063
 3787POPC   C4A49170  39.215  28.243   7.156
 3787POPC   C1B49171  39.402  28.052   6.255
 3787POPC   C2B49172  39.302  27.895   6.650
 3787POPC   C3B49173  39.584  27.931   6.977
 3787POPC   C4B49174  39.868  27.984   7.304
 3788POPC   NC349175  27.672   2.355   5.336
 3788POPC   PO449176  27.490   3.044   5.446
 3788POPC   GL149177  27.646   2.729   5.749
 3788POPC   GL249178  27.605   2.946   6.031
 3788POPC   C1A49179  27.795   2.508   6.153
 3788POPC   D2A49180  27.588   2.650   6.535
 3788POPC   C3A49181  27.722   3.005   6.713
 3788POPC   C4A49182  27.700   2.871   7.132
 3788POPC   C1B49183  27.238   2.848   6.244
 3788POPC   C2B49184  27.049   2.808   6.610
 3788POPC   C3B49185  27.190   2.858   7.014
 3788POPC   C4B49186  27.307   2.833   7.442
 3789POPC   NC349187  34.710  27.829   5.579
 3789POPC   PO449188  34.655  28.446   5.235
 3789POPC   GL149189  34.773  28.353   5.674
 3789POPC   GL249190  34.425  28.317   5.748
 3789POPC   C1A49191  34.698  28.264   6.162
 3789POPC   D2A49192  34.444  28.351   6.547
 3789POPC   C3A49193  34.640  28.149   6.895
 3789POPC   C4A49194  34.859  28.419   7.118
 3789POPC   C1B49195  34.291  28.614   6.106
 3789POPC   C2B49196  34.078  28.745   6.502
 3789POPC   C3B49197  34.209  28.758   6.921
 3789POPC   C4B49198  34.396  28.559   7.276
 3790POPC   NC349199  41.742  42.689   5.372
 3790POPC   PO449200  41.455  42.076   5.571
 3790POPC   GL149201  41.299  42.256   5.941
 3790POPC   GL249202  41.163  42.615   5.905
 3790POPC   C1A49203  41.462  42.184   6.347
 3790POPC   D2A49204  41.658  42.214   6.747
 3790POPC   C3A49205  41.407  42.032   7.038
 3790POPC   C4A49206  41.452  42.125   7.468
 3790POPC   C1B49207  41.210  42.623   6.359
 3790POPC   C2B49208  41.210  42.458   6.767
 3790POPC   C3B49209  41.365  42.526   7.167
 3790POPC   C4B49210  41.823  42.514   7.179
 3791POPC   NC349211  28.023  28.002   5.443
 3791POPC   PO449212  28.446  28.462   5.237
 3791POPC   GL149213  28.524  28.448   5.710
 3791POPC   GL249214  28.235  28.637   5.889
 3791POPC   C1A49215  28.522  28.178   6.089
 3791POPC   D2A49216  28.605  28.073   6.533
 3791POPC   C3A49217  28.563  28.417   6.792
 3791POPC   C4A49218  28.610  28.547   7.209
 3791POPC   C1B49219  28.239  28.524   6.345
 3791POPC   C2B49220  28.100  28.214   6.655
 3791POPC   C3B49221  28.172  28.246   7.099
 3791POPC   C4B49222  28.054  28.628   7.287
 3792POPC   NC349223  22.453  25.882   5.456
 3792POPC   PO449224  21.826  26.213   5.526
 3792POPC   GL149225  22.089  26.356   5.861
 3792POPC   GL249226  22.207  26.021   5.879
 3792POPC   C1A49227  22.185  26.418   6.288
 3792POPC   D2A49228  22.284  26.135   6.614
 3792POPC   C3A49229  22.182  26.277   7.004
 3792POPC   C4A49230  22.274  25.964   7.312
 3792POPC   C1B49231  21.958  25.927   6.207
 3792POPC   C2B49232  21.790  25.742   6.547
 3792POPC   C3B49233  21.969  25.820   6.905
 3792POPC   C4B49234  21.787  25.829   7.273
 3793POPC   NC349235   6.610  19.759   5.471
 3793POPC   PO449236   7.251  19.924   5.354
 3793POPC   GL149237   7.011  20.132   5.765
 3793POPC   GL249238   6.634  20.089   5.857
 3793POPC   C1A49239   6.977  19.953   6.197
 3793POPC   D2A49240   7.065  19.861   6.630
 3793POPC   C3A49241   6.741  19.797   6.951
 3793POPC   C4A49242   6.648  19.921   7.382
 3793POPC   C1B49243   6.500  19.741   6.188
 3793POPC   C2B49244   6.298  19.703   6.628
 3793POPC   C3B49245   6.259  19.707   7.066
 3793POPC   C4B49246   6.338  20.150   7.044
 3794POPC   NC349247   3.924  35.051   5.390
 3794POPC   PO449248   4.498  35.500   5.400
 3794POPC   GL149249   4.334  35.276   5.732
 3794POPC   GL249250   4.618  35.066   5.836
 3794POPC   C1A49251   4.087  35.441   6.061
 3794POPC   D2A49252   4.062  35.370   6.476
 3794POPC   C3A49253   4.095  35.676   6.788
 3794POPC   C4A49254   4.203  35.438   7.129
 3794POPC   C1B49255   4.521  35.181   6.266
 3794POPC   C2B49256   4.544  35.338   6.701
 3794POPC   C3B49257   4.655  35.201   7.120
 3794POPC   C4B49258   4.689  35.280   7.564
 3795POPC   NC349259   5.197  30.752   5.341
 3795POPC   PO449260   5.103  30.141   5.505
 3795POPC   GL149261   5.189  30.505   5.785
 3795POPC   GL249262   4.920  30.770   5.798
 3795POPC   C1A49263   5.252  30.760   6.169
 3795POPC   D2A49264   5.061  30.897   6.550
 3795POPC   C3A49265   5.247  30.756   6.930
 3795POPC   C4A49266   5.295  30.438   7.260
 3795POPC   C1B49267   4.762  31.043   6.138
 3795POPC   C2B49268   4.583  31.117   6.564
 3795POPC   C3B49269   4.780  31.013   6.957
 3795POPC   C4B49270   4.849  30.669   7.251
 3796POPC   NC349271  40.282  29.923   5.447
 3796POPC   PO449272  39.748  29.522   5.501
 3796POPC   GL149273  39.881  29.770   5.896
 3796POPC   GL249274  40.013  30.113   5.924
 3796POPC   C1A49275  40.259  29.742   6.201
 3796POPC   D2A49276  40.433  29.853   6.636
 3796POPC   C3A49277  40.257  29.642   6.978
 3796POPC   C4A49278  39.830  29.763   7.102
 3796POPC   C1B49279  39.772  30.225   6.335
 3796POPC   C2B49280  39.794  30.238   6.820
 3796POPC   C3B49281  40.196  30.208   7.048
 3796POPC   C4B49282  40.360  30.279   7.486
 3797POPC   NC349283  14.839  16.125   5.185
 3797POPC   PO449284  15.395  15.997   5.550
 3797POPC   GL149285  15.295  16.171   5.912
 3797POPC   GL249286  15.249  15.916   6.102
 3797POPC   C1A49287  15.488  16.341   6.282
 3797POPC   D2A49288  15.507  16.012   6.556
 3797POPC   C3A49289  15.273  16.018   6.907
 3797POPC   C4A49290  15.400  16.011   7.315
 3797POPC   C1B49291  14.950  15.672   6.345
 3797POPC   C2B49292  14.893  15.712   6.785
 3797POPC   C3B49293  14.912  15.615   7.222
 3797POPC   C4B49294  14.623  15.599   7.625
 3798POPC   NC349295  31.747  37.251   5.301
 3798POPC   PO449296  31.546  37.918   5.352
 3798POPC   GL149297  31.362  37.700   5.703
 3798POPC   GL249298  31.670  37.499   5.756
 3798POPC   C1A49299  31.308  37.528   6.135
 3798POPC   D2A49300  31.176  37.340   6.524
 3798POPC   C3A49301  31.387  37.385   6.900
 3798POPC   C4A49302  31.306  37.720   7.171
 3798POPC   C1B49303  31.801  37.420   6.193
 3798POPC   C2B49304  31.626  37.672   6.539
 3798POPC   C3B49305  31.778  37.835   6.958
 3798POPC   C4B49306  31.968  37.709   7.362
 3799POPC   NC349307  15.416  37.509   5.503
 3799POPC   PO449308  14.898  37.946   5.457
 3799POPC   GL149309  15.213  37.895   5.803
 3799POPC   GL249310  15.104  37.555   5.912
 3799POPC   C1A49311  15.357  37.829   6.267
 3799POPC   D2A49312  15.162  37.816   6.675
 3799POPC   C3A49313  15.360  37.750   7.036
 3799POPC   C4A49314  15.578  37.997   7.325
 3799POPC   C1B49315  14.865  37.572   6.301
 3799POPC   C2B49316  14.841  37.388   6.717
 3799POPC   C3B49317  14.886  37.506   7.153
 3799POPC   C4B49318  15.055  37.259   7.530
 3800POPC   NC349319  39.971  40.982   5.059
 3800POPC   PO449320  40.171  40.758   5.664
 3800POPC   GL149321  39.816  40.876   5.876
 3800POPC   GL249322  39.783  41.241   5.865
 3800POPC   C1A49323  39.831  40.668   6.248
 3800POPC   D2A49324  39.902  40.879   6.593
 3800POPC   C3A49325  39.842  40.681   6.920
 3800POPC   C4A49326  40.097  40.692   7.218
 3800POPC   C1B49327  40.085  41.164   6.212
 3800POPC   C2B49328  40.199  41.295   6.598
 3800POPC   C3B49329  40.147  41.156   7.005
 3800POPC   C4B49330  40.230  41.118   7.435
 3801POPC   NC349331  23.285   8.341   5.402
 3801POPC   PO449332  22.621   8.198   5.339
 3801POPC   GL149333  22.725   8.295   5.774
 3801POPC   GL249334  23.053   8.144   5.847
 3801POPC   C1A49335  22.702   8.260   6.242
 3801POPC   D2A49336  22.756   8.019   6.635
 3801POPC   C3A49337  22.923   8.298   6.993
 3801POPC   C4A49338  22.887   8.680   7.332
 3801POPC   C1B49339  23.158   7.976   6.264
 3801POPC   C2B49340  23.339   8.068   6.691
 3801POPC   C3B49341  23.355   8.043   7.141
 3801POPC   C4B49342  23.098   8.200   7.455
 3802POPC   NC349343  18.128  15.513   5.649
 3802POPC   PO449344  18.313  14.909   5.466
 3802POPC   GL149345  18.358  15.126   5.874
 3802POPC   GL249346  18.627  15.066   6.010
 3802POPC   C1A49347  18.380  15.372   6.298
 3802POPC   D2A49348  18.226  15.339   6.706
 3802POPC   C3A49349  18.471  15.479   7.048
 3802POPC   C4A49350  18.478  15.520   7.503
 3802POPC   C1B49351  18.334  14.813   6.290
 3802POPC   C2B49352  18.295  14.819   6.752
 3802POPC   C3B49353  18.191  15.053   7.141
 3802POPC   C4B49354  18.021  14.824   7.480
 3803POPC   NC349355  13.210  44.004   5.467
 3803POPC   PO449356  13.850  44.272   5.353
 3803POPC   GL149357  13.831  44.079   5.760
 3803POPC   GL249358  13.515  43.901   5.879
 3803POPC   C1A49359  13.860  44.161   6.204
 3803POPC   D2A49360  13.758  43.922   6.571
 3803POPC   C3A49361  13.725  44.166   6.955
 3803POPC   C4A49362  13.774  43.986   7.389
 3803POPC   C1B49363  13.264  43.908   6.276
 3803POPC   C2B49364  13.269  43.844   6.729
 3803POPC   C3B49365  13.577  43.682   7.025
 3803POPC   C4B49366  13.418  43.634   7.430
 3804POPC   NC349367  10.717   2.386   5.478
 3804POPC   PO449368  10.820   3.051   5.403
 3804POPC   GL149369  10.616   2.828   5.747
 3804POPC   GL249370  10.280   2.784   5.765
 3804POPC   C1A49371  10.671   2.781   6.198
 3804POPC   D2A49372  10.708   3.040   6.568
 3804POPC   C3A49373  10.752   2.892   6.990
 3804POPC   C4A49374  10.771   2.773   7.412
 3804POPC   C1B49375  10.176   2.668   6.196
 3804POPC   C2B49376  10.309   2.694   6.659
 3804POPC   C3B49377  10.315   2.600   7.121
 3804POPC   C4B49378  10.264   2.695   7.570
 3805POPC   NC349379  41.124  30.536   5.652
 3805POPC   PO449380  41.736  30.657   5.392
 3805POPC   GL149381  41.633  30.407   5.770
 3805POPC   GL249382  41.525  30.681   5.949
 3805POPC   C1A49383  41.656  30.303   6.246
 3805POPC   D2A49384  41.681  30.571   6.609
 3805POPC   C3A49385  41.702  30.452   7.044
 3805POPC   C4A49386  41.672  30.901   7.149
 3805POPC   C1B49387  41.263  30.657   6.302
 3805POPC   C2B49388  41.256  30.905   6.613
 3805POPC   C3B49389  41.255  30.679   6.923
 3805POPC   C4B49390  41.267  30.621   7.298
 3806POPC   NC349391   0.686  44.181   5.450
 3806POPC   PO449392   0.422  44.828   5.294
 3806POPC   GL149393   0.334  44.569   5.606
 3806POPC   GL249394   0.613  44.635   5.791
 3806POPC   C1A49395   0.195  44.537   6.040
 3806POPC   D2A49396   0.333  44.527   6.458
 3806POPC   C3A49397   0.066  44.533   6.781
 3806POPC   C4A49398   0.173  44.525   7.186
 3806POPC   C1B49399   0.782  44.588   6.217
 3806POPC   C2B49400   0.905  44.532   6.615
 3806POPC   C3B49401   0.623  44.510   6.923
 3806POPC   C4B49402   0.722  44.472   7.320
 3807POPC   NC349403   0.609  41.708   5.480
 3807POPC   PO449404   0.290  41.233   5.247
 3807POPC   GL149405   0.314  41.430   5.760
 3807POPC   GL249406   0.093  41.733   5.783
 3807POPC   C1A49407   0.669  41.607   6.109
 3807POPC   D2A49408   0.751  41.814   6.524
 3807POPC   C3A49409   0.535  41.684   6.896
 3807POPC   C4A49410   0.431  41.842   7.319
 3807POPC   C1B49411   0.199  41.715   6.217
 3807POPC   C2B49412   0.268  42.026   6.529
 3807POPC   C3B49413   0.149  42.043   6.946
 3807POPC   C4B49414  44.929  41.795   7.271
 3808POPC   NC349415  14.378  13.532   5.312
 3808POPC   PO449416  14.280  14.188   5.449
 3808POPC   GL149417  14.376  13.825   5.765
 3808POPC   GL249418  14.370  13.427   5.812
 3808POPC   C1A49419  14.461  13.770   6.221
 3808POPC   D2A49420  14.545  13.931   6.629
 3808POPC   C3A49421  14.370  13.757   7.009
 3808POPC   C4A49422  14.326  13.554   7.377
 3808POPC   C1B49423  14.315  13.250   6.227
 3808POPC   C2B49424  14.349  13.421   6.627
 3808POPC   C3B49425  14.536  13.257   7.002
 3808POPC   C4B49426  14.401  13.055   7.381
 3809POPC   NC349427   2.876  13.389   5.299
 3809POPC   PO449428   2.443  13.802   5.555
 3809POPC   GL149429   2.752  13.658   5.814
 3809POPC   GL249430   2.788  13.320   5.817
 3809POPC   C1A49431   2.708  13.677   6.259
 3809POPC   D2A49432   2.923  13.701   6.636
 3809POPC   C3A49433   2.655  13.852   6.925
 3809POPC   C4A49434   2.801  13.947   7.278
 3809POPC   C1B49435   2.527  13.206   6.204
 3809POPC   C2B49436   2.570  13.237   6.631
 3809POPC   C3B49437   2.761  13.351   7.003
 3809POPC   C4B49438   2.628  13.485   7.386
 3810POPC   NC349439  16.101  43.717   5.413
 3810POPC   PO449440  15.504  44.124   5.405
 3810POPC   GL149441  15.651  44.023   5.830
 3810POPC   GL249442  16.022  43.889   5.897
 3810POPC   C1A49443  15.677  43.949   6.260
 3810POPC   D2A49444  15.916  43.946   6.593
 3810POPC   C3A49445  15.675  43.861   6.905
 3810POPC   C4A49446  15.732  43.993   7.295
 3810POPC   C1B49447  16.288  43.788   6.285
 3810POPC   C2B49448  16.289  43.645   6.757
 3810POPC   C3B49449  16.150  43.681   7.206
 3810POPC   C4B49450  16.072  43.439   7.597
 3811POPC   NC349451   4.922  14.753   5.679
 3811POPC   PO449452   5.014  14.157   5.452
 3811POPC   GL149453   5.065  14.306   5.901
 3811POPC   GL249454   5.317  14.537   5.976
 3811POPC   C1A49455   4.882  14.515   6.284
 3811POPC   D2A49456   4.801  14.311   6.647
 3811POPC   C3A49457   4.928  14.389   7.059
 3811POPC   C4A49458   4.876  14.591   7.397
 3811POPC   C1B49459   5.378  14.375   6.345
 3811POPC   C2B49460   5.312  14.421   6.752
 3811POPC   C3B49461   5.411  14.139   7.098
 3811POPC   C4B49462   5.237  14.235   7.482
 3812POPC   NC349463   3.256  25.585   5.391
 3812POPC   PO449464   3.569  24.985   5.377
 3812POPC   GL149465   3.603  25.256   5.745
 3812POPC   GL249466   3.259  25.318   5.833
 3812POPC   C1A49467   3.579  25.317   6.212
 3812POPC   D2A49468   3.642  25.423   6.619
 3812POPC   C3A49469   3.618  25.109   6.905
 3812POPC   C4A49470   3.584  25.362   7.253
 3812POPC   C1B49471   3.127  25.563   6.188
 3812POPC   C2B49472   3.084  25.421   6.612
 3812POPC   C3B49473   3.130  25.208   7.013
 3812POPC   C4B49474   3.140  25.270   7.484
 3813POPC   NC349475  31.405  41.228   5.407
 3813POPC   PO449476  31.283  41.832   5.565
 3813POPC   GL149477  31.610  41.573   5.770
 3813POPC   GL249478  31.552  41.217   5.899
 3813POPC   C1A49479  31.649  41.662   6.223
 3813POPC   D2A49480  31.302  41.811   6.513
 3813POPC   C3A49481  31.404  41.772   6.956
 3813POPC   C4A49482  31.832  41.768   7.160
 3813POPC   C1B49483  31.794  41.184   6.307
 3813POPC   C2B49484  31.763  41.413   6.732
 3813POPC   C3B49485  31.556  41.303   7.146
 3813POPC   C4B49486  31.709  41.273   7.571
 3814POPC   NC349487  10.473  44.275   5.414
 3814POPC   PO449488  10.676  44.806   5.217
 3814POPC   GL149489  10.677  44.619   5.715
 3814POPC   GL249490  10.945  44.777   5.888
 3814POPC   C1A49491  10.564  44.553   6.167
 3814POPC   D2A49492  10.409  44.748   6.564
 3814POPC   C3A49493  10.332  44.574   7.008
 3814POPC   C4A49494  10.378  44.624   7.474
 3814POPC   C1B49495  10.802   0.026   6.199
 3814POPC   C2B49496  10.735   0.180   6.587
 3814POPC   C3B49497  10.703  44.946   6.938
 3814POPC   C4B49498  10.815  44.833   7.335
 3815POPC   NC349499  10.705  41.183   5.492
 3815POPC   PO449500  10.190  41.563   5.295
 3815POPC   GL149501  10.340  41.493   5.677
 3815POPC   GL249502  10.457  41.824   5.754
 3815POPC   C1A49503  10.364  41.468   6.125
 3815POPC   D2A49504  10.168  41.322   6.496
 3815POPC   C3A49505  10.414  41.218   6.863
 3815POPC   C4A49506  10.203  41.255   7.252
 3815POPC   C1B49507  10.648  41.903   6.179
 3815POPC   C2B49508  10.569  41.708   6.603
 3815POPC   C3B49509  10.746  41.764   7.035
 3815POPC   C4B49510  10.747  41.361   7.246
 3816POPC   NC349511  39.328  41.390   5.352
 3816POPC   PO449512  39.206  42.069   5.304
 3816POPC   GL149513  39.192  41.843   5.757
 3816POPC   GL249514  39.331  41.514   5.839
 3816POPC   C1A49515  39.071  41.781   6.218
 3816POPC   D2A49516  39.269  41.873   6.644
 3816POPC   C3A49517  39.300  41.589   7.004
 3816POPC   C4A49518  39.049  41.536   7.373
 3816POPC   C1B49519  39.296  41.292   6.221
 3816POPC   C2B49520  39.030  41.387   6.576
 3816POPC   C3B49521  38.940  41.207   6.961
 3816POPC   C4B49522  39.249  41.077   7.257
 3817POPC   NC349523  24.241   8.634   5.417
 3817POPC   PO449524  24.152   9.282   5.230
 3817POPC   GL149525  24.460   9.156   5.584
 3817POPC   GL249526  24.513   8.843   5.786
 3817POPC   C1A49527  24.401   9.273   6.049
 3817POPC   D2A49528  24.329   9.374   6.499
 3817POPC   C3A49529  24.261   9.157   6.906
 3817POPC   C4A49530  24.464   8.981   7.263
 3817POPC   C1B49531  24.239   8.815   6.156
 3817POPC   C2B49532  24.383   8.811   6.534
 3817POPC   C3B49533  24.455   8.609   6.882
 3817POPC   C4B49534  24.055   8.708   7.064
 3818POPC   NC349535  25.857  41.733   5.469
 3818POPC   PO449536  26.407  41.399   5.619
 3818POPC   GL149537  26.155  41.617   5.872
 3818POPC   GL249538  26.245  41.946   5.771
 3818POPC   C1A49539  25.917  41.769   6.219
 3818POPC   D2A49540  25.799  41.586   6.607
 3818POPC   C3A49541  25.924  41.709   7.028
 3818POPC   C4A49542  25.875  41.347   7.295
 3818POPC   C1B49543  26.402  41.949   6.190
 3818POPC   C2B49544  26.232  41.919   6.578
 3818POPC   C3B49545  26.407  41.886   6.946
 3818POPC   C4B49546  26.369  41.731   7.332
 3819POPC   NC349547   8.543  30.539   5.547
 3819POPC   PO449548   9.047  30.898   5.293
 3819POPC   GL149549   9.212  30.897   5.718
 3819POPC   GL249550   8.972  30.686   5.802
 3819POPC   C1A49551   9.147  30.983   6.168
 3819POPC   D2A49552   9.220  30.741   6.535
 3819POPC   C3A49553   9.040  30.851   6.911
 3819POPC   C4A49554   9.024  30.860   7.362
 3819POPC   C1B49555   9.005  30.470   6.160
 3819POPC   C2B49556   8.802  30.425   6.550
 3819POPC   C3B49557   8.721  30.240   6.914
 3819POPC   C4B49558   8.836  30.347   7.284
 3820POPC   NC349559   5.637   4.600   5.131
 3820POPC   PO449560   6.027   4.135   5.176
 3820POPC   GL149561   6.061   4.171   5.707
 3820POPC   GL249562   5.731   4.272   5.885
 3820POPC   C1A49563   6.155   4.350   6.175
 3820POPC   D2A49564   6.138   4.209   6.641
 3820POPC   C3A49565   5.821   4.290   6.946
 3820POPC   C4A49566   5.601   4.388   7.297
 3820POPC   C1B49567   5.699   4.568   6.238
 3820POPC   C2B49568   5.922   4.684   6.602
 3820POPC   C3B49569   5.841   4.798   7.016
 3820POPC   C4B49570   5.444   4.840   7.198
 3821POPC   NC349571  31.184  32.905   5.209
 3821POPC   PO449572  30.567  32.790   5.401
 3821POPC   GL149573  30.654  33.150   5.663
 3821POPC   GL249574  31.004  33.218   5.590
 3821POPC   C1A49575  30.577  33.258   6.099
 3821POPC   D2A49576  30.470  33.037   6.489
 3821POPC   C3A49577  30.518  33.214   6.876
 3821POPC   C4A49578  30.432  32.962   7.225
 3821POPC   C1B49579  31.082  33.099   6.033
 3821POPC   C2B49580  30.974  33.118   6.491
 3821POPC   C3B49581  30.929  32.905   6.912
 3821POPC   C4B49582  30.883  33.171   7.271
 3822POPC   NC349583   5.511  12.199   5.476
 3822POPC   PO449584   6.174  12.036   5.607
 3822POPC   GL149585   5.999  11.830   5.916
 3822POPC   GL249586   5.670  11.806   5.792
 3822POPC   C1A49587   6.133  12.076   6.263
 3822POPC   D2A49588   6.154  12.276   6.644
 3822POPC   C3A49589   6.138  11.934   6.934
 3822POPC   C4A49590   6.069  11.926   7.357
 3822POPC   C1B49591   5.594  12.096   6.159
 3822POPC   C2B49592   5.741  12.014   6.574
 3822POPC   C3B49593   5.652  12.119   7.000
 3822POPC   C4B49594   5.284  11.903   7.141
 3823POPC   NC349595   7.429  32.782   5.361
 3823POPC   PO449596   7.793  33.330   5.467
 3823POPC   GL149597   7.690  33.002   5.776
 3823POPC   GL249598   7.307  33.003   5.822
 3823POPC   C1A49599   7.624  33.003   6.229
 3823POPC   D2A49600   7.470  33.321   6.507
 3823POPC   C3A49601   7.617  33.191   6.902
 3823POPC   C4A49602   7.461  33.198   7.327
 3823POPC   C1B49603   7.184  32.763   6.215
 3823POPC   C2B49604   7.199  32.915   6.650
 3823POPC   C3B49605   7.321  32.758   7.069
 3823POPC   C4B49606   7.118  32.729   7.483
 3824POPC   NC349607  41.628   2.274   5.373
 3824POPC   PO449608  41.025   1.985   5.453
 3824POPC   GL149609  41.276   2.212   5.770
 3824POPC   GL249610  41.590   2.014   5.791
 3824POPC   C1A49611  41.460   2.336   6.168
 3824POPC   D2A49612  41.377   2.125   6.551
 3824POPC   C3A49613  41.470   2.325   6.913
 3824POPC   C4A49614  41.314   2.193   7.288
 3824POPC   C1B49615  41.889   1.817   6.074
 3824POPC   C2B49616  41.915   1.781   6.510
 3824POPC   C3B49617  41.726   1.885   6.892
 3824POPC   C4B49618  41.682   1.784   7.318
 3825POPC   NC349619  22.173  19.769   5.364
 3825POPC   PO449620  21.561  19.785   5.540
 3825POPC   GL149621  21.902  19.737   5.830
 3825POPC   GL249622  22.214  19.529   5.814
 3825POPC   C1A49623  22.172  19.952   6.135
 3825POPC   D2A49624  22.294  20.142   6.526
 3825POPC   C3A49625  22.174  19.895   6.837
 3825POPC   C4A49626  22.048  19.874   7.217
 3825POPC   C1B49627  22.498  19.540   6.197
 3825POPC   C2B49628  22.592  19.669   6.643
 3825POPC   C3B49629  22.488  19.564   7.096
 3825POPC   C4B49630  22.429  19.595   7.570
 3826POPC   NC349631  37.874   9.694   5.367
 3826POPC   PO449632  37.356  10.044   5.448
 3826POPC   GL149633  37.617   9.876   5.783
 3826POPC   GL249634  37.436   9.641   5.954
 3826POPC   C1A49635  37.779   9.911   6.227
 3826POPC   D2A49636  37.564   9.928   6.655
 3826POPC   C3A49637  37.745   9.916   7.076
 3826POPC   C4A49638  37.850   9.717   7.489
 3826POPC   C1B49639  37.497   9.496   6.368
 3826POPC   C2B49640  37.774   9.426   6.724
 3826POPC   C3B49641  37.622   9.415   7.138
 3826POPC   C4B49642  37.280   9.685   7.318
 3827POPC   NC349643  25.171   6.488   5.637
 3827POPC   PO449644  25.378   5.898   5.379
 3827POPC   GL149645  25.179   5.846   5.791
 3827POPC   GL249646  25.031   6.127   5.969
 3827POPC   C1A49647  25.150   5.685   6.216
 3827POPC   D2A49648  24.992   5.624   6.629
 3827POPC   C3A49649  25.326   5.506   6.928
 3827POPC   C4A49650  25.319   5.524   7.366
 3827POPC   C1B49651  25.260   6.162   6.335
 3827POPC   C2B49652  25.193   6.077   6.741
 3827POPC   C3B49653  25.353   5.968   7.131
 3827POPC   C4B49654  25.229   6.070   7.568
 3828POPC   NC349655  11.721  14.946   5.426
 3828POPC   PO449656  11.138  15.321   5.303
 3828POPC   GL149657  11.244  15.162   5.703
 3828POPC   GL249658  10.940  15.009   5.811
 3828POPC   C1A49659  11.425  14.935   6.059
 3828POPC   D2A49660  11.437  15.165   6.440
 3828POPC   C3A49661  11.424  15.095   6.858
 3828POPC   C4A49662  11.574  15.278   7.276
 3828POPC   C1B49663  10.968  15.081   6.219
 3828POPC   C2B49664  10.808  14.899   6.563
 3828POPC   C3B49665  10.896  15.164   6.850
 3828POPC   C4B49666  11.093  15.114   7.231
 3829POPC   NC349667  30.981  36.613   5.222
 3829POPC   PO449668  30.651  37.104   5.527
 3829POPC   GL149669  30.635  36.978   5.931
 3829POPC   GL249670  30.526  36.637   5.797
 3829POPC   C1A49671  30.676  36.974   6.386
 3829POPC   D2A49672  30.718  36.976   6.793
 3829POPC   C3A49673  30.458  37.191   7.046
 3829POPC   C4A49674  30.787  37.175   7.324
 3829POPC   C1B49675  30.324  36.687   6.208
 3829POPC   C2B49676  30.232  36.855   6.629
 3829POPC   C3B49677  30.350  36.661   6.991
 3829POPC   C4B49678  30.546  36.739   7.366
 3830POPC   NC349679  18.804  33.769   5.467
 3830POPC   PO449680  19.299  34.186   5.288
 3830POPC   GL149681  19.191  34.010   5.708
 3830POPC   GL249682  18.873  34.005   5.914
 3830POPC   C1A49683  19.342  33.965   6.143
 3830POPC   D2A49684  19.322  34.086   6.573
 3830POPC   C3A49685  19.220  33.836   6.929
 3830POPC   C4A49686  19.284  34.116   7.266
 3830POPC   C1B49687  18.848  34.191   6.329
 3830POPC   C2B49688  18.854  34.185   6.800
 3830POPC   C3B49689  18.774  33.982   7.194
 3830POPC   C4B49690  18.530  33.845   7.560
 3831POPC   NC349691  16.376  19.365   5.110
 3831POPC   PO449692  16.907  19.765   5.410
 3831POPC   GL149693  16.552  19.640   5.667
 3831POPC   GL249694  16.634  19.332   5.656
 3831POPC   C1A49695  16.459  19.648   6.126
 3831POPC   D2A49696  16.495  19.954   6.492
 3831POPC   C3A49697  16.723  19.957   6.873
 3831POPC   C4A49698  16.657  19.782   7.262
 3831POPC   C1B49699  16.923  19.475   6.016
 3831POPC   C2B49700  16.875  19.593   6.476
 3831POPC   C3B49701  17.081  19.580   6.909
 3831POPC   C4B49702  17.313  19.584   7.310
 3832POPC   NC349703  30.431   9.230   5.488
 3832POPC   PO449704  30.979   8.840   5.493
 3832POPC   GL149705  30.851   9.084   5.852
 3832POPC   GL249706  30.492   9.025   5.945
 3832POPC   C1A49707  30.886   9.145   6.308
 3832POPC   D2A49708  31.022   9.197   6.732
 3832POPC   C3A49709  30.925   8.840   7.008
 3832POPC   C4A49710  30.500   8.636   7.054
 3832POPC   C1B49711  30.366   9.277   6.260
 3832POPC   C2B49712  30.568   9.448   6.606
 3832POPC   C3B49713  30.578   9.236   7.002
 3832POPC   C4B49714  30.558   9.040   7.366
 3833POPC   NC349715   8.454  39.037   5.643
 3833POPC   PO449716   8.035  39.456   5.324
 3833POPC   GL149717   8.133  39.426   5.753
 3833POPC   GL249718   7.943  39.100   5.779
 3833POPC   C1A49719   8.408  39.445   6.157
 3833POPC   D2A49720   8.733  39.377   6.476
 3833POPC   C3A49721   8.494  39.451   6.832
 3833POPC   C4A49722   8.371  39.469   7.251
 3833POPC   C1B49723   7.905  39.285   6.177
 3833POPC   C2B49724   7.965  39.179   6.570
 3833POPC   C3B49725   7.992  39.391   6.922
 3833POPC   C4B49726   7.897  39.297   7.302
 3834POPC   NC349727  37.396   5.840   5.624
 3834POPC   PO449728  37.828   6.152   5.239
 3834POPC   GL149729  37.862   6.056   5.735
 3834POPC   GL249730  37.862   5.711   5.841
 3834POPC   C1A49731  37.687   6.001   6.225
 3834POPC   D2A49732  37.540   5.748   6.639
 3834POPC   C3A49733  37.653   5.899   7.070
 3834POPC   C4A49734  38.102   6.005   7.085
 3834POPC   C1B49735  37.605   5.486   6.182
 3834POPC   C2B49736  37.782   5.291   6.551
 3834POPC   C3B49737  37.873   5.443   7.014
 3834POPC   C4B49738  37.895   5.521   7.495
 3835POPC   NC349739   3.580  30.162   5.370
 3835POPC   PO449740   3.886  29.660   5.692
 3835POPC   GL149741   3.740  30.088   5.872
 3835POPC   GL249742   3.376  30.148   5.828
 3835POPC   C1A49743   3.645  30.134   6.329
 3835POPC   D2A49744   3.434  29.713   6.519
 3835POPC   C3A49745   3.541  29.549   6.914
 3835POPC   C4A49746   3.751  29.792   7.212
 3835POPC   C1B49747   3.183  30.003   6.173
 3835POPC   C2B49748   3.220  30.162   6.623
 3835POPC   C3B49749   3.135  29.903   6.955
 3835POPC   C4B49750   3.241  29.727   7.305
 3836POPC   NC349751   4.605  41.905   5.314
 3836POPC   PO449752   4.340  41.251   5.473
 3836POPC   GL149753   4.435  41.439   5.823
 3836POPC   GL249754   4.391  41.789   5.786
 3836POPC   C1A49755   4.297  41.453   6.242
 3836POPC   D2A49756   3.978  41.595   6.530
 3836POPC   C3A49757   3.936  41.485   6.972
 3836POPC   C4A49758   4.218  41.454   7.339
 3836POPC   C1B49759   4.460  41.931   6.217
 3836POPC   C2B49760   4.507  41.718   6.627
 3836POPC   C3B49761   4.451  41.795   7.049
 3836POPC   C4B49762   4.448  42.054   7.430
 3837POPC   NC349763  32.090  30.395   5.428
 3837POPC   PO449764  32.378  30.960   5.453
 3837POPC   GL149765  32.387  30.648   5.775
 3837POPC   GL249766  32.059  30.629   5.867
 3837POPC   C1A49767  32.421  30.480   6.200
 3837POPC   D2A49768  32.607  30.442   6.609
 3837POPC   C3A49769  32.439  30.611   6.960
 3837POPC   C4A49770  32.351  30.471   7.338
 3837POPC   C1B49771  32.083  30.883   6.197
 3837POPC   C2B49772  31.928  30.963   6.572
 3837POPC   C3B49773  31.860  31.113   6.964
 3837POPC   C4B49774  32.139  30.941   7.220
 3838POPC   NC349775   1.236  15.712   5.443
 3838POPC   PO449776   1.573  16.353   5.531
 3838POPC   GL149777   1.219  16.131   5.756
 3838POPC   GL249778   0.902  16.288   5.784
 3838POPC   C1A49779   1.165  15.916   6.172
 3838POPC   D2A49780   1.300  15.748   6.576
 3838POPC   C3A49781   1.180  15.856   7.028
 3838POPC   C4A49782   1.564  15.909   7.317
 3838POPC   C1B49783   0.720  16.169   6.185
 3838POPC   C2B49784   0.756  16.015   6.623
 3838POPC   C3B49785   0.886  16.285   6.979
 3838POPC   C4B49786   1.158  16.311   7.333
 3839POPC   NC349787  30.337  35.523   5.068
 3839POPC   PO449788  30.534  35.214   5.647
 3839POPC   GL149789  30.623  35.540   5.949
 3839POPC   GL249790  30.904  35.697   5.828
 3839POPC   C1A49791  30.745  35.481   6.392
 3839POPC   D2A49792  30.972  35.170   6.631
 3839POPC   C3A49793  30.753  35.114   7.012
 3839POPC   C4A49794  30.929  35.211   7.397
 3839POPC   C1B49795  30.905  35.940   6.219
 3839POPC   C2B49796  31.002  35.893   6.649
 3839POPC   C3B49797  30.973  35.588   6.973
 3839POPC   C4B49798  30.692  35.736   7.276
 3840POPC   NC349799  18.820  32.110   5.397
 3840POPC   PO449800  19.254  31.472   5.462
 3840POPC   GL149801  19.045  31.564   5.843
 3840POPC   GL249802  18.777  31.788   5.802
 3840POPC   C1A49803  19.132  31.405   6.253
 3840POPC   D2A49804  19.316  31.156   6.570
 3840POPC   C3A49805  19.329  31.377   6.948
 3840POPC   C4A49806  19.054  31.400   7.279
 3840POPC   C1B49807  18.680  31.639   6.227
 3840POPC   C2B49808  18.852  31.643   6.657
 3840POPC   C3B49809  18.729  31.712   7.087
 3840POPC   C4B49810  18.770  31.756   7.534
 3841POPC   NC349811  40.969  34.002   5.459
 3841POPC   PO449812  40.551  33.431   5.368
 3841POPC   GL149813  40.683  33.656   5.795
 3841POPC   GL249814  40.874  33.976   5.945
 3841POPC   C1A49815  40.798  33.570   6.232
 3841POPC   D2A49816  40.610  33.808   6.563
 3841POPC   C3A49817  40.813  33.815   6.959
 3841POPC   C4A49818  40.593  33.886   7.336
 3841POPC   C1B49819  41.171  34.247   6.186
 3841POPC   C2B49820  41.050  34.398   6.587
 3841POPC   C3B49821  40.792  34.337   6.929
 3841POPC   C4B49822  41.003  34.179   7.290
 3842POPC   NC349823  38.731   4.507   5.521
 3842POPC   PO449824  38.156   4.104   5.414
 3842POPC   GL149825  38.425   4.142   5.749
 3842POPC   GL249826  38.390   4.462   5.908
 3842POPC   C1A49827  38.501   4.019   6.156
 3842POPC   D2A49828  38.544   3.933   6.550
 3842POPC   C3A49829  38.563   4.229   6.840
 3842POPC   C4A49830  38.724   4.165   7.247
 3842POPC   C1B49831  38.557   4.511   6.318
 3842POPC   C2B49832  38.431   4.717   6.663
 3842POPC   C3B49833  38.318   4.761   7.090
 3842POPC   C4B49834  38.315   4.511   7.460
 3843POPC   NC349835  26.014  19.066   5.353
 3843POPC   PO449836  26.600  19.415   5.439
 3843POPC   GL149837  26.361  19.103   5.786
 3843POPC   GL249838  25.968  19.115   5.849
 3843POPC   C1A49839  26.209  18.958   6.246
 3843POPC   D2A49840  25.983  19.226   6.557
 3843POPC   C3A49841  26.107  19.137   6.964
 3843POPC   C4A49842  26.318  18.878   7.242
 3843POPC   C1B49843  25.649  19.087   6.186
 3843POPC   C2B49844  25.482  19.342   6.524
 3843POPC   C3B49845  25.550  19.201   6.933
 3843POPC   C4B49846  25.760  19.418   7.222
 3844POPC   NC349847  27.400   4.208   5.310
 3844POPC   PO449848  27.886   4.670   5.250
 3844POPC   GL149849  27.697   4.399   5.678
 3844POPC   GL249850  27.434   4.104   5.793
 3844POPC   C1A49851  27.599   4.433   6.153
 3844POPC   D2A49852  27.642   4.624   6.570
 3844POPC   C3A49853  27.631   4.419   6.963
 3844POPC   C4A49854  27.615   4.530   7.379
 3844POPC   C1B49855  27.509   3.901   6.185
 3844POPC   C2B49856  27.463   4.131   6.559
 3844POPC   C3B49857  27.182   4.215   6.886
 3844POPC   C4B49858  27.380   4.083   7.288
 3845POPC   NC349859  24.670  16.937   5.515
 3845POPC   PO449860  24.675  17.577   5.555
 3845POPC   GL149861  24.322  17.479   5.818
 3845POPC   GL249862  24.340  17.121   5.898
 3845POPC   C1A49863  24.309  17.539   6.251
 3845POPC   D2A49864  24.389  17.740   6.659
 3845POPC   C3A49865  24.704  17.821   6.976
 3845POPC   C4A49866  24.585  17.680   7.395
 3845POPC   C1B49867  24.671  17.135   6.211
 3845POPC   C2B49868  24.794  17.315   6.620
 3845POPC   C3B49869  24.626  17.320   7.010
 3845POPC   C4B49870  24.408  17.227   7.373
 3846POPC   NC349871  32.091  25.005   5.592
 3846POPC   PO449872  32.620  25.365   5.497
 3846POPC   GL149873  32.312  25.373   5.869
 3846POPC   GL249874  31.949  25.452   5.845
 3846POPC   C1A49875  32.237  25.207   6.282
 3846POPC   D2A49876  32.451  25.126   6.685
 3846POPC   C3A49877  32.197  25.145   7.061
 3846POPC   C4A49878  32.299  25.002   7.475
 3846POPC   C1B49879  31.987  25.665   6.257
 3846POPC   C2B49880  32.222  25.599   6.654
 3846POPC   C3B49881  32.129  25.657   7.093
 3846POPC   C4B49882  32.096  25.486   7.521
 3847POPC   NC349883  30.161  24.821   5.440
 3847POPC   PO449884  30.101  24.153   5.355
 3847POPC   GL149885  30.072  24.369   5.771
 3847POPC   GL249886  29.867  24.687   5.845
 3847POPC   C1A49887  30.042  24.286   6.245
 3847POPC   D2A49888  29.845  24.447   6.660
 3847POPC   C3A49889  29.848  24.287   7.082
 3847POPC   C4A49890  30.091  24.454   7.436
 3847POPC   C1B49891  29.948  24.785   6.284
 3847POPC   C2B49892  29.770  24.967   6.679
 3847POPC   C3B49893  29.857  24.810   7.101
 3847POPC   C4B49894  29.641  24.750   7.481
 3848POPC   NC349895  17.112  21.750   5.516
 3848POPC   PO449896  16.540  22.184   5.537
 3848POPC   GL149897  16.788  22.170   5.917
 3848POPC   GL249898  17.160  22.081   5.901
 3848POPC   C1A49899  16.658  22.352   6.313
 3848POPC   D2A49900  16.548  22.397   6.744
 3848POPC   C3A49901  16.700  22.012   6.968
 3848POPC   C4A49902  16.834  21.735   7.289
 3848POPC   C1B49903  17.177  22.339   6.249
 3848POPC   C2B49904  17.127  22.374   6.680
 3848POPC   C3B49905  16.942  22.453   7.058
 3848POPC   C4B49906  16.855  22.260   7.425
 3849POPC   NC349907  20.632  17.731   5.320
 3849POPC   PO449908  20.228  17.226   5.583
 3849POPC   GL149909  20.556  17.426   5.880
 3849POPC   GL249910  20.855  17.680   5.873
 3849POPC   C1A49911  20.658  17.519   6.323
 3849POPC   D2A49912  20.720  17.642   6.769
 3849POPC   C3A49913  20.851  17.298   7.023
 3849POPC   C4A49914  21.051  17.007   7.315
 3849POPC   C1B49915  20.911  17.955   6.278
 3849POPC   C2B49916  20.882  18.152   6.689
 3849POPC   C3B49917  20.895  18.077   7.120
 3849POPC   C4B49918  20.692  17.741   7.278
 3850POPC   NC349919  44.159  42.122   5.387
 3850POPC   PO449920  43.566  42.323   5.570
 3850POPC   GL149921  43.927  42.393   5.862
 3850POPC   GL249922  44.290  42.327   5.824
 3850POPC   C1A49923  44.089  42.585   6.243
 3850POPC   D2A49924  43.969  42.635   6.667
 3850POPC   C3A49925  43.650  42.384   6.903
 3850POPC   C4A49926  43.632  42.441   7.330
 3850POPC   C1B49927  44.380  42.171   6.202
 3850POPC   C2B49928  44.264  42.172   6.608
 3850POPC   C3B49929  44.140  42.224   7.030
 3850POPC   C4B49930  43.884  41.996   7.242
 3851POPC   NC349931   8.386  28.351   5.496
 3851POPC   PO449932   7.755  28.697   5.423
 3851POPC   GL149933   7.878  28.499   5.839
 3851POPC   GL249934   8.248  28.385   5.968
 3851POPC   C1A49935   7.885  28.443   6.287
 3851POPC   D2A49936   8.190  28.492   6.584
 3851POPC   C3A49937   8.102  28.464   7.024
 3851POPC   C4A49938   8.437  28.570   7.313
 3851POPC   C1B49939   8.163  28.011   6.274
 3851POPC   C2B49940   8.019  27.996   6.708
 3851POPC   C3B49941   8.184  27.968   7.125
 3851POPC   C4B49942   8.287  28.147   7.549
 3852POPC   NC349943  33.903  41.715   5.384
 3852POPC   PO449944  33.776  41.093   5.243
 3852POPC   GL149945  33.724  41.381   5.705
 3852POPC   GL249946  34.021  41.569   5.861
 3852POPC   C1A49947  33.686  41.354   6.168
 3852POPC   D2A49948  33.616  41.599   6.520
 3852POPC   C3A49949  33.839  41.451   6.796
 3852POPC   C4A49950  34.030  41.499   7.151
 3852POPC   C1B49951  34.113  41.743   6.298
 3852POPC   C2B49952  34.229  41.779   6.759
 3852POPC   C3B49953  34.347  41.872   7.207
 3852POPC   C4B49954  34.096  41.990   7.584
 3853POPC   NC349955  28.420   6.865   5.469
 3853POPC   PO449956  27.998   6.374   5.507
 3853POPC   GL149957  28.218   6.558   5.842
 3853POPC   GL249958  28.150   6.921   5.905
 3853POPC   C1A49959  28.275   6.421   6.251
 3853POPC   D2A49960  28.451   6.480   6.615
 3853POPC   C3A49961  28.186   6.573   6.895
 3853POPC   C4A49962  28.288   6.457   7.272
 3853POPC   C1B49963  28.391   6.965   6.315
 3853POPC   C2B49964  28.489   6.985   6.765
 3853POPC   C3B49965  28.339   6.988   7.203
 3853POPC   C4B49966  28.516   6.821   7.583
 3854POPC   NC349967   9.997  10.347   5.471
 3854POPC   PO449968   9.506  10.740   5.369
 3854POPC   GL149969   9.505  10.584   5.765
 3854POPC   GL249970   9.416  10.906   5.891
 3854POPC   C1A49971   9.643  10.427   6.188
 3854POPC   D2A49972   9.383  10.411   6.582
 3854POPC   C3A49973   9.464  10.291   7.013
 3854POPC   C4A49974   9.843  10.310   7.235
 3854POPC   C1B49975   9.878  10.872   5.992
 3854POPC   C2B49976   9.958  10.786   6.428
 3854POPC   C3B49977  10.001  10.640   6.855
 3854POPC   C4B49978  10.011  10.826   7.258
 3855POPC   NC349979  29.261  26.105   5.238
 3855POPC   PO449980  29.084  25.526   5.435
 3855POPC   GL149981  29.109  25.877   5.758
 3855POPC   GL249982  29.471  25.931   5.870
 3855POPC   C1A49983  29.048  26.037   6.200
 3855POPC   D2A49984  29.316  25.965   6.558
 3855POPC   C3A49985  29.139  25.986   6.982
 3855POPC   C4A49986  29.313  26.001   7.404
 3855POPC   C1B49987  29.439  26.344   6.131
 3855POPC   C2B49988  29.192  26.462   6.520
 3855POPC   C3B49989  29.323  26.457   6.959
 3855POPC   C4B49990  29.398  26.531   7.402
 3856POPC   NC349991   0.779  39.718   5.401
 3856POPC   PO449992   0.297  40.149   5.498
 3856POPC   GL149993   0.287  40.191   5.900
 3856POPC   GL249994   0.047  39.993   6.008
 3856POPC   C1A49995   0.417  40.110   6.345
 3856POPC   D2A49996   0.427  39.735   6.631
 3856POPC   C3A49997   0.461  39.832   7.026
 3856POPC   C4A49998   0.598  40.175   7.230
 3856POPC   C1B49999  44.983  40.392   6.258
 3856POPC   C2B50000   0.068  40.512   6.675
 3856POPC   C3B50001   0.149  40.212   7.004
 3856POPC   C4B50002   0.129  40.200   7.470
 3857POPC   NC350003  27.748  17.813   5.409
 3857POPC   PO450004  27.197  18.211   5.627
 3857POPC   GL150005  27.462  18.354   5.899
 3857POPC   GL250006  27.743  18.203   5.762
 3857POPC   C1A50007  27.406  18.506   6.306
 3857POPC   D2A50008  27.247  18.186   6.547
 3857POPC   C3A50009  27.325  18.288   6.950
 3857POPC   C4A50010  27.486  17.999   7.217
 3857POPC   C1B50011  27.880  18.361   6.179
 3857POPC   C2B50012  27.789  18.334   6.628
 3857POPC   C3B50013  27.871  18.390   7.056
 3857POPC   C4B50014  28.013  18.007   7.248
 3858POPC   NC350015   1.217  42.675   5.458
 3858POPC   PO450016   0.944  42.050   5.389
 3858POPC   GL150017   1.004  42.322   5.741
 3858POPC   GL250018   1.377  42.268   5.750
 3858POPC   C1A50019   1.090  42.526   6.126
 3858POPC   D2A50020   1.155  42.460   6.535
 3858POPC   C3A50021   0.954  42.606   6.922
 3858POPC   C4A50022   1.149  42.332   7.193
 3858POPC   C1B50023   1.559  42.315   6.147
 3858POPC   C2B50024   1.653  42.308   6.559
 3858POPC   C3B50025   1.663  42.312   6.983
 3858POPC   C4B50026   1.748  42.450   7.389
 3859POPC   NC350027   2.629   0.358   5.505
 3859POPC   PO450028   3.291   0.509   5.326
 3859POPC   GL150029   3.099   0.553   5.756
 3859POPC   GL250030   2.762   0.643   5.876
 3859POPC   C1A50031   3.055   0.479   6.224
 3859POPC   D2A50032   2.888   0.243   6.577
 3859POPC   C3A50033   3.008   0.369   7.009
 3859POPC   C4A50034   2.847   0.204   7.400
 3859POPC   C1B50035   2.489   0.558   6.160
 3859POPC   C2B50036   2.502   0.665   6.556
 3859POPC   C3B50037   2.526   0.465   6.926
 3859POPC   C4B50038   2.537   0.644   7.315
 3860POPC   NC350039   0.485  43.264   5.677
 3860POPC   PO450040   0.841  42.849   5.263
 3860POPC   GL150041   0.547  42.740   5.663
 3860POPC   GL250042   0.237  42.894   5.913
 3860POPC   C1A50043   0.633  42.725   6.130
 3860POPC   D2A50044   0.871  42.888   6.491
 3860POPC   C3A50045   0.639  43.037   6.852
 3860POPC   C4A50046   0.312  42.816   7.100
 3860POPC   C1B50047   0.302  43.198   6.277
 3860POPC   C2B50048   0.181  43.198   6.685
 3860POPC   C3B50049   0.206  43.302   7.093
 3860POPC   C4B50050   0.162  43.139   7.511
 3861POPC   NC350051  40.342  19.032   5.499
 3861POPC   PO450052  40.928  18.762   5.561
 3861POPC   GL150053  40.663  18.926   5.894
 3861POPC   GL250054  40.579  18.602   5.985
 3861POPC   C1A50055  40.383  18.972   6.295
 3861POPC   D2A50056  40.442  19.265   6.697
 3861POPC   C3A50057  40.802  19.246   7.039
 3861POPC   C4A50058  40.959  19.012   7.470
 3861POPC   C1B50059  40.865  18.750   6.329
 3861POPC   C2B50060  41.035  18.994   6.666
 3861POPC   C3B50061  41.252  18.993   7.070
 3861POPC   C4B50062  41.496  19.181   7.401
 3862POPC   NC350063   5.662  40.410   5.485
 3862POPC   PO450064   5.458  41.084   5.484
 3862POPC   GL150065   5.621  41.056   5.937
 3862POPC   GL250066   5.712  40.711   5.893
 3862POPC   C1A50067   5.848  40.925   6.330
 3862POPC   D2A50068   5.724  40.823   6.745
 3862POPC   C3A50069   5.882  40.953   7.133
 3862POPC   C4A50070   6.197  41.227   7.290
 3862POPC   C1B50071   5.651  40.401   6.218
 3862POPC   C2B50072   5.520  40.352   6.628
 3862POPC   C3B50073   5.522  40.262   7.067
 3862POPC   C4B50074   5.745  40.506   7.345
 3863POPC   NC350075  19.838  29.633   5.349
 3863POPC   PO450076  19.958  30.308   5.510
 3863POPC   GL150077  19.882  29.976   5.782
 3863POPC   GL250078  20.133  29.739   5.892
 3863POPC   C1A50079  19.607  29.902   6.107
 3863POPC   D2A50080  19.594  29.654   6.478
 3863POPC   C3A50081  19.849  29.799   6.803
 3863POPC   C4A50082  19.709  29.768   7.240
 3863POPC   C1B50083  20.063  29.912   6.337
 3863POPC   C2B50084  20.184  30.241   6.688
 3863POPC   C3B50085  20.280  30.280   7.152
 3863POPC   C4B50086  20.075  30.020   7.492
 3864POPC   NC350087   5.380   0.435   5.554
 3864POPC   PO450088   4.812   0.802   5.555
 3864POPC   GL150089   5.047   0.693   5.917
 3864POPC   GL250090   5.065   0.342   5.964
 3864POPC   C1A50091   5.129   0.656   6.364
 3864POPC   D2A50092   4.947   0.393   6.680
 3864POPC   C3A50093   5.112   0.578   7.049
 3864POPC   C4A50094   5.086   0.507   7.472
 3864POPC   C1B50095   5.281   0.156   6.327
 3864POPC   C2B50096   5.416   0.231   6.761
 3864POPC   C3B50097   5.337   0.142   7.207
 3864POPC   C4B50098   5.346   0.079   7.689
 3865POPC   NC350099  12.507  38.005   5.598
 3865POPC   PO450100  12.333  37.350   5.478
 3865POPC   GL150101  12.258  37.548   5.843
 3865POPC   GL250102  12.037  37.320   5.960
 3865POPC   C1A50103  12.379  37.750   6.237
 3865POPC   D2A50104  12.135  37.880   6.598
 3865POPC   C3A50105  12.258  38.094   6.974
 3865POPC   C4A50106  12.065  37.865   7.319
 3865POPC   C1B50107  12.022  37.416   6.354
 3865POPC   C2B50108  11.881  37.454   6.730
 3865POPC   C3B50109  12.098  37.372   7.083
 3865POPC   C4B50110  11.931  37.399   7.489
 3866POPC   NC350111  11.730  42.358   5.268
 3866POPC   PO450112  12.159  41.916   5.149
 3866POPC   GL150113  11.877  42.026   5.603
 3866POPC   GL250114  11.916  42.368   5.777
 3866POPC   C1A50115  11.891  41.981   6.086
 3866POPC   D2A50116  11.807  42.138   6.508
 3866POPC   C3A50117  12.128  42.025   6.803
 3866POPC   C4A50118  12.177  42.124   7.223
 3866POPC   C1B50119  12.005  42.535   6.194
 3866POPC   C2B50120  12.242  42.739   6.540
 3866POPC   C3B50121  12.163  42.542   6.941
 3866POPC   C4B50122  11.742  42.306   7.007
 3867POPC   NC350123  26.650  18.294   5.353
 3867POPC   PO450124  27.058  18.669   5.273
 3867POPC   GL150125  26.848  18.570   5.744
 3867POPC   GL250126  26.717  18.240   5.853
 3867POPC   C1A50127  26.884  18.586   6.227
 3867POPC   D2A50128  26.597  18.728   6.585
 3867POPC   C3A50129  26.595  18.553   6.985
 3867POPC   C4A50130  26.650  18.511   7.425
 3867POPC   C1B50131  26.767  18.060   6.265
 3867POPC   C2B50132  26.760  18.179   6.700
 3867POPC   C3B50133  26.610  18.052   7.113
 3867POPC   C4B50134  26.809  17.895   7.486
 3868POPC   NC350135  18.062  28.820   5.369
 3868POPC   PO450136  18.205  28.140   5.378
 3868POPC   GL150137  18.310  28.252   5.793
 3868POPC   GL250138  18.298  28.597   5.770
 3868POPC   C1A50139  18.105  28.226   6.212
 3868POPC   D2A50140  18.293  28.195   6.633
 3868POPC   C3A50141  18.082  28.171   7.024
 3868POPC   C4A50142  18.367  28.240   7.372
 3868POPC   C1B50143  18.373  28.657   6.222
 3868POPC   C2B50144  18.131  28.678   6.606
 3868POPC   C3B50145  18.212  28.668   7.051
 3868POPC   C4B50146  17.952  28.946   7.250
 3869POPC   NC350147  20.343  15.102   5.371
 3869POPC   PO450148  20.953  15.025   5.421
 3869POPC   GL150149  20.740  15.202   5.801
 3869POPC   GL250150  20.421  15.415   5.777
 3869POPC   C1A50151  20.822  15.061   6.253
 3869POPC   D2A50152  20.730  14.972   6.715
 3869POPC   C3A50153  20.897  15.297   7.013
 3869POPC   C4A50154  20.699  15.608   7.287
 3869POPC   C1B50155  20.327  15.134   6.116
 3869POPC   C2B50156  20.194  15.069   6.509
 3869POPC   C3B50157  20.211  15.010   6.917
 3869POPC   C4B50158  20.342  15.221   7.289
 3870POPC   NC350159   5.932  41.061   5.547
 3870POPC   PO450160   5.945  41.778   5.445
 3870POPC   GL150161   5.843  41.523   5.802
 3870POPC   GL250162   5.495  41.559   5.900
 3870POPC   C1A50163   5.894  41.429   6.218
 3870POPC   D2A50164   6.109  41.304   6.581
 3870POPC   C3A50165   5.919  41.449   6.923
 3870POPC   C4A50166   5.988  41.686   7.289
 3870POPC   C1B50167   5.393  41.754   6.282
 3870POPC   C2B50168   5.391  41.957   6.692
 3870POPC   C3B50169   5.536  41.764   7.062
 3870POPC   C4B50170   5.537  41.769   7.533
 3871POPC   NC350171  33.373  42.166   5.393
 3871POPC   PO450172  32.886  42.555   5.298
 3871POPC   GL150173  33.130  42.507   5.737
 3871POPC   GL250174  33.364  42.297   5.908
 3871POPC   C1A50175  33.104  42.646   6.185
 3871POPC   D2A50176  33.041  42.468   6.609
 3871POPC   C3A50177  32.921  42.697   6.959
 3871POPC   C4A50178  32.942  42.616   7.362
 3871POPC   C1B50179  33.179  42.090   6.276
 3871POPC   C2B50180  33.329  42.050   6.699
 3871POPC   C3B50181  33.227  42.151   7.120
 3871POPC   C4B50182  33.153  41.788   7.363
 3872POPC   NC350183   4.957  40.950   5.355
 3872POPC   PO450184   5.230  40.285   5.321
 3872POPC   GL150185   5.022  40.574   5.676
 3872POPC   GL250186   5.184  40.822   5.828
 3872POPC   C1A50187   4.843  40.583   6.125
 3872POPC   D2A50188   4.632  40.639   6.542
 3872POPC   C3A50189   4.800  40.645   6.989
 3872POPC   C4A50190   5.040  40.359   7.246
 3872POPC   C1B50191   5.328  40.776   6.268
 3872POPC   C2B50192   5.216  40.786   6.693
 3872POPC   C3B50193   5.359  40.771   7.112
 3872POPC   C4B50194   5.164  41.023   7.401
 3873POPC   NC350195  30.945  20.704   5.588
 3873POPC   PO450196  30.446  21.049   5.504
 3873POPC   GL150197  30.503  20.731   5.877
 3873POPC   GL250198  30.566  20.371   5.778
 3873POPC   C1A50199  30.728  20.635   6.303
 3873POPC   D2A50200  30.986  20.541   6.706
 3873POPC   C3A50201  30.927  20.837   7.059
 3873POPC   C4A50202  30.831  20.925   7.480
 3873POPC   C1B50203  30.529  20.181   6.201
 3873POPC   C2B50204  30.632  20.171   6.644
 3873POPC   C3B50205  30.439  20.295   7.033
 3873POPC   C4B50206  30.393  20.706   7.206
 3874POPC   NC350207  34.631  36.758   5.551
 3874POPC   PO450208  34.694  37.447   5.521
 3874POPC   GL150209  34.771  37.134   5.884
 3874POPC   GL250210  34.460  36.880   6.003
 3874POPC   C1A50211  34.773  37.102   6.333
 3874POPC   D2A50212  34.444  37.022   6.630
 3874POPC   C3A50213  34.565  36.663   6.830
 3874POPC   C4A50214  34.771  36.582   7.189
 3874POPC   C1B50215  34.261  37.262   6.159
 3874POPC   C2B50216  34.096  37.410   6.561
 3874POPC   C3B50217  34.327  37.386   7.002
 3874POPC   C4B50218  34.394  36.956   7.210
 3875POPC   NC350219  22.360  14.407   5.292
 3875POPC   PO450220  21.683  14.487   5.526
 3875POPC   GL150221  21.993  14.383   5.821
 3875POPC   GL250222  22.376  14.412   5.787
 3875POPC   C1A50223  21.921  14.489   6.251
 3875POPC   D2A50224  22.124  14.728   6.568
 3875POPC   C3A50225  22.225  14.535   6.922
 3875POPC   C4A50226  22.250  14.667   7.316
 3875POPC   C1B50227  22.427  14.472   6.204
 3875POPC   C2B50228  22.377  14.198   6.550
 3875POPC   C3B50229  22.602  14.182   6.905
 3875POPC   C4B50230  22.357  14.171   7.261
 3876POPC   NC350231  33.679  23.008   5.222
 3876POPC   PO450232  32.992  23.141   5.266
 3876POPC   GL150233  32.966  23.118   5.744
 3876POPC   GL250234  33.135  22.821   5.895
 3876POPC   C1A50235  32.877  23.194   6.170
 3876POPC   D2A50236  33.043  23.023   6.547
 3876POPC   C3A50237  33.063  23.242   6.928
 3876POPC   C4A50238  33.001  23.078   7.334
 3876POPC   C1B50239  33.418  22.741   6.273
 3876POPC   C2B50240  33.335  22.622   6.686
 3876POPC   C3B50241  33.044  22.700   6.981
 3876POPC   C4B50242  33.301  22.639   7.311
 3877POPC   NC350243  11.448  39.012   5.456
 3877POPC   PO450244  10.952  39.378   5.544
 3877POPC   GL150245  11.261  39.247   5.873
 3877POPC   GL250246  11.309  38.875   5.920
 3877POPC   C1A50247  11.614  39.270   6.184
 3877POPC   D2A50248  11.738  39.343   6.633
 3877POPC   C3A50249  11.340  39.371   6.866
 3877POPC   C4A50250  11.140  39.746   6.992
 3877POPC   C1B50251  11.395  38.820   6.337
 3877POPC   C2B50252  11.159  38.887   6.701
 3877POPC   C3B50253  11.388  38.896   7.071
 3877POPC   C4B50254  11.333  39.055   7.462
 3878POPC   NC350255   8.163  39.826   5.102
 3878POPC   PO450256   8.504  40.286   5.405
 3878POPC   GL150257   8.316  40.234   5.811
 3878POPC   GL250258   8.621  40.390   5.916
 3878POPC   C1A50259   8.069  40.048   6.186
 3878POPC   D2A50260   8.079  39.716   6.525
 3878POPC   C3A50261   8.139  39.890   6.957
 3878POPC   C4A50262   8.014  39.843   7.380
 3878POPC   C1B50263   8.352  40.475   6.271
 3878POPC   C2B50264   8.323  40.317   6.707
 3878POPC   C3B50265   8.563  40.460   7.080
 3878POPC   C4B50266   8.401  40.182   7.354
 3879POPC   NC350267   0.489  15.430   5.489
 3879POPC   PO450268   0.292  14.772   5.459
 3879POPC   GL150269   0.474  15.012   5.839
 3879POPC   GL250270   0.365  15.380   5.973
 3879POPC   C1A50271   0.477  14.985   6.286
 3879POPC   D2A50272   0.381  15.224   6.628
 3879POPC   C3A50273   0.450  15.182   7.032
 3879POPC   C4A50274   0.281  14.834   7.125
 3879POPC   C1B50275   0.378  15.649   6.373
 3879POPC   C2B50276   0.149  15.637   6.799
 3879POPC   C3B50277   0.219  15.621   7.261
 3879POPC   C4B50278   0.318  15.801   7.695
 3880POPC   NC350279   8.218  16.114   5.075
 3880POPC   PO450280   8.591  15.913   5.564
 3880POPC   GL150281   8.292  16.131   5.841
 3880POPC   GL250282   7.963  16.026   5.891
 3880POPC   C1A50283   8.302  16.249   6.238
 3880POPC   D2A50284   8.357  16.077   6.600
 3880POPC   C3A50285   8.108  16.157   6.925
 3880POPC   C4A50286   8.283  16.088   7.350
 3880POPC   C1B50287   8.038  15.786   6.278
 3880POPC   C2B50288   8.043  15.677   6.714
 3880POPC   C3B50289   7.942  15.747   7.146
 3880POPC   C4B50290   7.930  15.733   7.581
 3881POPC   NC350291  24.918  13.718   5.458
 3881POPC   PO450292  24.477  13.181   5.474
 3881POPC   GL150293  24.685  13.375   5.876
 3881POPC   GL250294  24.696  13.702   5.904
 3881POPC   C1A50295  24.667  13.508   6.362
 3881POPC   D2A50296  24.281  13.558   6.647
 3881POPC   C3A50297  24.328  13.421   7.059
 3881POPC   C4A50298  24.705  13.548   7.233
 3881POPC   C1B50299  24.652  14.012   6.185
 3881POPC   C2B50300  24.541  14.046   6.589
 3881POPC   C3B50301  24.625  14.224   6.964
 3881POPC   C4B50302  24.456  14.006   7.252
 3882POPC   NC350303  26.109  17.293   5.432
 3882POPC   PO450304  26.460  17.911   5.532
 3882POPC   GL150305  26.131  17.661   5.786
 3882POPC   GL250306  25.860  17.858   5.986
 3882POPC   C1A50307  25.980  17.377   6.112
 3882POPC   D2A50308  25.990  17.550   6.521
 3882POPC   C3A50309  25.978  17.353   6.919
 3882POPC   C4A50310  26.189  17.384   7.292
 3882POPC   C1B50311  26.247  17.926   6.219
 3882POPC   C2B50312  26.414  17.814   6.616
 3882POPC   C3B50313  26.149  17.849   6.971
 3882POPC   C4B50314  26.208  17.884   7.407
 3883POPC   NC350315  26.971  13.936   5.479
 3883POPC   PO450316  26.309  13.799   5.587
 3883POPC   GL150317  26.651  13.508   5.803
 3883POPC   GL250318  27.029  13.559   5.837
 3883POPC   C1A50319  26.767  13.358   6.239
 3883POPC   D2A50320  26.601  13.283   6.658
 3883POPC   C3A50321  26.774  13.454   7.007
 3883POPC   C4A50322  26.878  13.816   7.242
 3883POPC   C1B50323  27.205  13.691   6.277
 3883POPC   C2B50324  27.205  13.597   6.746
 3883POPC   C3B50325  27.263  13.464   7.196
 3883POPC   C4B50326  27.173  13.649   7.622
 3884POPC   NC350327  42.884  38.376   5.550
 3884POPC   PO450328  43.531  38.455   5.481
 3884POPC   GL150329  43.268  38.656   5.829
 3884POPC   GL250330  42.917  38.577   6.005
 3884POPC   C1A50331  43.326  38.583   6.282
 3884POPC   D2A50332  43.075  38.526   6.670
 3884POPC   C3A50333  43.049  38.494   7.143
 3884POPC   C4A50334  43.317  38.534   7.522
 3884POPC   C1B50335  42.745  38.273   6.325
 3884POPC   C2B50336  42.801  38.022   6.702
 3884POPC   C3B50337  42.743  38.043   7.149
 3884POPC   C4B50338  42.743  37.968   7.604
 3885POPC   NC350339  11.228  38.014   5.474
 3885POPC   PO450340  11.553  38.574   5.483
 3885POPC   GL150341  11.320  38.372   5.822
 3885POPC   GL250342  10.950  38.418   5.826
 3885POPC   C1A50343  11.272  38.227   6.223
 3885POPC   D2A50344  11.352  38.391   6.632
 3885POPC   C3A50345  11.226  38.075   6.913
 3885POPC   C4A50346  11.410  38.131   7.305
 3885POPC   C1B50347  10.931  38.610   6.267
 3885POPC   C2B50348  10.838  38.474   6.711
 3885POPC   C3B50349  11.056  38.514   7.140
 3885POPC   C4B50350  11.034  38.584   7.631
 3886POPC   NC350351  22.537  22.669   5.343
 3886POPC   PO450352  22.304  22.009   5.419
 3886POPC   GL150353  22.270  22.159   5.838
 3886POPC   GL250354  22.014  21.941   5.991
 3886POPC   C1A50355  22.446  22.125   6.264
 3886POPC   D2A50356  22.421  22.064   6.719
 3886POPC   C3A50357  22.278  22.345   7.023
 3886POPC   C4A50358  22.212  22.372   7.494
 3886POPC   C1B50359  21.948  22.164   6.403
 3886POPC   C2B50360  21.814  22.288   6.822
 3886POPC   C3B50361  21.867  22.024   7.165
 3886POPC   C4B50362  22.281  21.890   7.294
 3887POPC   NC350363   0.939  13.881   5.487
 3887POPC   PO450364   0.998  13.229   5.438
 3887POPC   GL150365   1.000  13.404   5.869
 3887POPC   GL250366   0.917  13.760   5.978
 3887POPC   C1A50367   1.120  13.406   6.306
 3887POPC   D2A50368   1.190  13.596   6.699
 3887POPC   C3A50369   1.101  13.344   7.022
 3887POPC   C4A50370   1.022  13.241   7.436
 3887POPC   C1B50371   1.254  13.907   6.273
 3887POPC   C2B50372   1.342  14.094   6.700
 3887POPC   C3B50373   1.242  13.920   7.119
 3887POPC   C4B50374   1.385  13.591   7.400
 3888POPC   NC350375  33.692  35.554   5.453
 3888POPC   PO450376  34.136  35.083   5.551
 3888POPC   GL150377  33.917  35.308   5.865
 3888POPC   GL250378  34.050  35.637   5.885
 3888POPC   C1A50379  33.609  35.329   6.218
 3888POPC   D2A50380  33.396  35.533   6.602
 3888POPC   C3A50381  33.433  35.308   6.987
 3888POPC   C4A50382  33.548  35.380   7.403
 3888POPC   C1B50383  34.091  35.525   6.310
 3888POPC   C2B50384  33.890  35.390   6.691
 3888POPC   C3B50385  33.827  35.642   7.061
 3888POPC   C4B50386  33.937  35.664   7.544
 3889POPC   NC350387   9.158  13.035   5.499
 3889POPC   PO450388   8.546  12.746   5.386
 3889POPC   GL150389   8.749  12.888   5.783
 3889POPC   GL250390   8.996  12.612   5.844
 3889POPC   C1A50391   9.004  13.037   6.169
 3889POPC   D2A50392   9.108  12.757   6.542
 3889POPC   C3A50393   9.024  12.959   6.953
 3889POPC   C4A50394   8.976  13.303   7.249
 3889POPC   C1B50395   8.712  12.625   6.216
 3889POPC   C2B50396   8.699  12.458   6.647
 3889POPC   C3B50397   8.916  12.456   7.048
 3889POPC   C4B50398   9.346  12.599   7.177
 3890POPC   NC350399  31.340  22.189   5.088
 3890POPC   PO450400  30.873  21.953   5.484
 3890POPC   GL150401  31.167  22.054   5.884
 3890POPC   GL250402  31.525  22.184   5.847
 3890POPC   C1A50403  31.278  22.114   6.363
 3890POPC   D2A50404  31.476  22.328   6.755
 3890POPC   C3A50405  31.323  22.266   7.198
 3890POPC   C4A50406  31.083  22.117   7.567
 3890POPC   C1B50407  31.774  22.163   6.257
 3890POPC   C2B50408  31.796  21.938   6.678
 3890POPC   C3B50409  31.803  22.082   7.122
 3890POPC   C4B50410  31.615  22.050   7.573
 3891POPC   NC350411  31.491  16.132   5.434
 3891POPC   PO450412  31.773  15.561   5.604
 3891POPC   GL150413  31.459  15.718   5.906
 3891POPC   GL250414  31.379  16.106   5.953
 3891POPC   C1A50415  31.555  15.748   6.346
 3891POPC   D2A50416  31.748  15.676   6.749
 3891POPC   C3A50417  31.518  15.912   7.087
 3891POPC   C4A50418  31.729  16.247   7.313
 3891POPC   C1B50419  31.209  16.283   6.377
 3891POPC   C2B50420  31.251  16.328   6.859
 3891POPC   C3B50421  31.224  16.299   7.329
 3891POPC   C4B50422  31.177  16.317   7.809
 3892POPC   NC350423  14.454  28.108   5.561
 3892POPC   PO450424  14.235  28.790   5.486
 3892POPC   GL150425  14.299  28.556   5.848
 3892POPC   GL250426  14.637  28.426   5.929
 3892POPC   C1A50427  14.312  28.586   6.292
 3892POPC   D2A50428  14.731  28.526   6.456
 3892POPC   C3A50429  14.720  28.426   6.877
 3892POPC   C4A50430  14.308  28.561   7.067
 3892POPC   C1B50431  14.495  28.107   6.258
 3892POPC   C2B50432  14.290  28.201   6.659
 3892POPC   C3B50433  14.393  28.036   7.059
 3892POPC   C4B50434  14.583  28.085   7.468
 3893POPC   NC350435  17.611  41.547   5.394
 3893POPC   PO450436  18.152  41.740   5.697
 3893POPC   GL150437  17.749  41.600   5.907
 3893POPC   GL250438  17.624  41.303   5.849
 3893POPC   C1A50439  17.577  41.555   6.342
 3893POPC   D2A50440  17.777  41.549   6.738
 3893POPC   C3A50441  17.698  41.309   7.129
 3893POPC   C4A50442  17.817  41.447   7.565
 3893POPC   C1B50443  17.218  41.282   6.105
 3893POPC   C2B50444  17.214  41.242   6.562
 3893POPC   C3B50445  17.166  41.358   7.007
 3893POPC   C4B50446  17.317  41.499   7.424
 3894POPC   NC350447  10.970  10.994   5.657
 3894POPC   PO450448  10.492  10.609   5.261
 3894POPC   GL150449  10.391  10.553   5.718
 3894POPC   GL250450  10.697  10.569   5.893
 3894POPC   C1A50451  10.223  10.409   6.117
 3894POPC   D2A50452  10.392  10.466   6.529
 3894POPC   C3A50453  10.264  10.195   6.861
 3894POPC   C4A50454  10.338  10.417   7.249
 3894POPC   C1B50455  10.823  10.294   6.256
 3894POPC   C2B50456  10.758   9.996   6.619
 3894POPC   C3B50457  10.735  10.118   7.060
 3894POPC   C4B50458  10.827  10.525   7.283
 3895POPC   NC350459  10.173   9.462   5.599
 3895POPC   PO450460   9.722   8.962   5.305
 3895POPC   GL150461   9.692   8.825   5.708
 3895POPC   GL250462   9.959   9.025   5.875
 3895POPC   C1A50463   9.525   8.831   6.125
 3895POPC   D2A50464   9.793   8.917   6.454
 3895POPC   C3A50465   9.644   8.969   6.841
 3895POPC   C4A50466   9.674   8.924   7.275
 3895POPC   C1B50467  10.087   9.290   6.269
 3895POPC   C2B50468  10.159   9.200   6.713
 3895POPC   C3B50469   9.979   9.290   7.102
 3895POPC   C4B50470  10.088   9.436   7.487
 3896POPC   NC350471   9.236  28.053   5.254
 3896POPC   PO450472   8.757  28.531   5.230
 3896POPC   GL150473   8.914  28.475   5.709
 3896POPC   GL250474   8.806  28.128   5.802
 3896POPC   C1A50475   8.961  28.611   6.202
 3896POPC   D2A50476   8.714  28.634   6.630
 3896POPC   C3A50477   8.905  28.648   7.069
 3896POPC   C4A50478   8.851  28.767   7.515
 3896POPC   C1B50479   8.643  28.206   6.247
 3896POPC   C2B50480   8.516  28.096   6.683
 3896POPC   C3B50481   8.667  28.163   7.096
 3896POPC   C4B50482   9.124  28.203   7.211
 3897POPC   NC350483  33.123   2.492   5.703
 3897POPC   PO450484  32.985   3.017   5.266
 3897POPC   GL150485  32.787   2.931   5.731
 3897POPC   GL250486  32.623   2.621   5.854
 3897POPC   C1A50487  32.800   2.900   6.233
 3897POPC   D2A50488  33.155   2.914   6.534
 3897POPC   C3A50489  33.289   2.651   6.880
 3897POPC   C4A50490  33.130   2.802   7.270
 3897POPC   C1B50491  32.682   2.405   6.309
 3897POPC   C2B50492  32.762   2.606   6.714
 3897POPC   C3B50493  32.749   2.502   7.140
 3897POPC   C4B50494  32.810   2.559   7.604
 3898POPC   NC350495  42.402   0.637   5.258
 3898POPC   PO450496  41.920   0.922   5.605
 3898POPC   GL150497  42.161   0.552   5.708
 3898POPC   GL250498  42.493   0.724   5.790
 3898POPC   C1A50499  42.410   0.277   5.992
 3898POPC   D2A50500  42.598   0.406   6.398
 3898POPC   C3A50501  42.404   0.530   6.793
 3898POPC   C4A50502  42.542   0.269   7.121
 3898POPC   C1B50503  42.204   0.692   6.199
 3898POPC   C2B50504  42.061   0.870   6.584
 3898POPC   C3B50505  41.993   0.885   7.029
 3898POPC   C4B50506  42.137   0.533   7.262
 3899POPC   NC350507  15.904  40.148   5.444
 3899POPC   PO450508  16.125  39.517   5.494
 3899POPC   GL150509  16.033  39.820   5.828
 3899POPC   GL250510  15.693  39.953   5.864
 3899POPC   C1A50511  16.022  39.787   6.261
 3899POPC   D2A50512  16.082  40.076   6.589
 3899POPC   C3A50513  15.971  39.890   6.973
 3899POPC   C4A50514  16.136  40.099   7.306
 3899POPC   C1B50515  15.727  40.222   6.230
 3899POPC   C2B50516  15.586  40.140   6.655
 3899POPC   C3B50517  15.664  40.329   7.014
 3899POPC   C4B50518  15.658  40.179   7.424
 3900POPC   NC350519  34.867  10.843   5.497
 3900POPC   PO450520  34.418  10.475   5.356
 3900POPC   GL150521  34.623  10.458   5.768
 3900POPC   GL250522  34.478  10.795   5.821
 3900POPC   C1A50523  34.816  10.605   6.161
 3900POPC   D2A50524  34.566  10.564   6.538
 3900POPC   C3A50525  34.592  10.320   6.913
 3900POPC   C4A50526  34.656  10.637   7.183
 3900POPC   C1B50527  34.220  10.703   6.171
 3900POPC   C2B50528  34.050  10.537   6.544
 3900POPC   C3B50529  34.200  10.696   6.908
 3900POPC   C4B50530  34.135  10.639   7.303
 3901POPC   NC350531   9.852   4.603   5.097
 3901POPC   PO450532   9.743   5.235   5.259
 3901POPC   GL150533   9.607   5.101   5.748
 3901POPC   GL250534   9.910   5.052   5.990
 3901POPC   C1A50535   9.475   5.178   6.205
 3901POPC   D2A50536   9.461   4.923   6.587
 3901POPC   C3A50537   9.581   4.985   6.976
 3901POPC   C4A50538   9.515   5.360   7.172
 3901POPC   C1B50539   9.938   5.038   6.408
 3901POPC   C2B50540   9.969   4.698   6.669
 3901POPC   C3B50541  10.097   4.954   6.975
 3901POPC   C4B50542   9.977   5.120   7.329
 3902POPC   NC350543   3.765   3.694   5.539
 3902POPC   PO450544   3.738   3.167   5.218
 3902POPC   GL150545   3.583   3.198   5.675
 3902POPC   GL250546   3.316   3.471   5.718
 3902POPC   C1A50547   3.610   3.318   6.143
 3902POPC   D2A50548   3.860   3.613   6.387
 3902POPC   C3A50549   3.726   3.690   6.816
 3902POPC   C4A50550   3.732   3.884   7.226
 3902POPC   C1B50551   3.124   3.398   6.151
 3902POPC   C2B50552   3.331   3.389   6.612
 3902POPC   C3B50553   3.387   3.418   7.109
 3902POPC   C4B50554   3.210   3.269   7.515
 3903POPC   NC350555   3.016  39.410   5.374
 3903POPC   PO450556   2.540  39.046   5.178
 3903POPC   GL150557   2.660  39.427   5.732
 3903POPC   GL250558   2.875  39.601   5.908
 3903POPC   C1A50559   2.742  39.222   6.228
 3903POPC   D2A50560   2.541  39.136   6.633
 3903POPC   C3A50561   2.534  39.386   7.056
 3903POPC   C4A50562   2.701  39.228   7.449
 3903POPC   C1B50563   2.546  39.671   6.253
 3903POPC   C2B50564   2.759  39.613   6.653
 3903POPC   C3B50565   2.995  39.618   7.059
 3903POPC   C4B50566   2.863  39.724   7.491
 3904POPC   NC350567   8.525  12.289   5.299
 3904POPC   PO450568   9.119  11.938   5.524
 3904POPC   GL150569   8.960  12.048   5.908
 3904POPC   GL250570   8.667  11.827   5.946
 3904POPC   C1A50571   9.077  12.271   6.279
 3904POPC   D2A50572   9.086  12.123   6.693
 3904POPC   C3A50573   9.141  11.858   7.023
 3904POPC   C4A50574   9.129  12.116   7.397
 3904POPC   C1B50575   8.731  11.880   6.391
 3904POPC   C2B50576   8.490  11.981   6.776
 3904POPC   C3B50577   8.647  12.015   7.198
 3904POPC   C4B50578   8.664  12.336   7.503
 3905POPC   NC350579  41.360   1.664   5.374
 3905POPC   PO450580  41.587   1.073   5.167
 3905POPC   GL150581  41.484   1.180   5.614
 3905POPC   GL250582  41.633   1.486   5.763
 3905POPC   C1A50583  41.407   1.166   6.097
 3905POPC   D2A50584  41.192   1.110   6.531
 3905POPC   C3A50585  41.390   1.212   6.926
 3905POPC   C4A50586  41.644   1.162   7.299
 3905POPC   C1B50587  41.402   1.692   6.120
 3905POPC   C2B50588  41.396   1.607   6.566
 3905POPC   C3B50589  41.258   1.725   6.992
 3905POPC   C4B50590  41.253   1.466   7.346
 3906POPC   NC350591  21.266  21.164   5.453
 3906POPC   PO450592  21.674  21.718   5.376
 3906POPC   GL150593  21.642  21.430   5.745
 3906POPC   GL250594  21.811  21.110   5.736
 3906POPC   C1A50595  21.455  21.278   6.160
 3906POPC   D2A50596  21.283  21.400   6.582
 3906POPC   C3A50597  21.458  21.244   6.961
 3906POPC   C4A50598  21.317  21.324   7.375
 3906POPC   C1B50599  21.837  20.943   6.169
 3906POPC   C2B50600  21.667  20.956   6.581
 3906POPC   C3B50601  21.907  21.001   6.950
 3906POPC   C4B50602  21.744  21.023   7.358
 3907POPC   NC350603  19.532  12.613   5.429
 3907POPC   PO450604  19.665  13.231   5.655
 3907POPC   GL150605  20.020  13.079   5.863
 3907POPC   GL250606  19.935  12.776   5.791
 3907POPC   C1A50607  19.989  12.963   6.327
 3907POPC   D2A50608  19.671  12.950   6.676
 3907POPC   C3A50609  19.810  12.973   7.114
 3907POPC   C4A50610  19.868  13.276   7.440
 3907POPC   C1B50611  19.745  12.562   6.128
 3907POPC   C2B50612  19.829  12.461   6.560
 3907POPC   C3B50613  19.685  12.495   6.972
 3907POPC   C4B50614  19.904  12.530   7.382
 3908POPC   NC350615  44.767   4.621   5.521
 3908POPC   PO450616  44.785   5.250   5.366
 3908POPC   GL150617  44.831   5.096   5.773
 3908POPC   GL250618  44.494   5.002   5.778
 3908POPC   C1A50619  44.805   4.889   6.194
 3908POPC   D2A50620  44.997   5.024   6.589
 3908POPC   C3A50621  44.790   5.107   6.958
 3908POPC   C4A50622  44.865   5.117   7.357
 3908POPC   C1B50623  44.508   5.298   6.149
 3908POPC   C2B50624  44.438   5.114   6.581
 3908POPC   C3B50625  44.352   4.852   6.955
 3908POPC   C4B50626  44.417   4.880   7.392
 3909POPC   NC350627  17.764  29.757   5.547
 3909POPC   PO450628  17.108  29.969   5.427
 3909POPC   GL150629  17.354  29.999   5.799
 3909POPC   GL250630  17.698  30.182   5.790
 3909POPC   C1A50631  17.238  30.108   6.185
 3909POPC   D2A50632  17.359  29.790   6.449
 3909POPC   C3A50633  17.257  29.838   6.876
 3909POPC   C4A50634  17.086  30.221   7.030
 3909POPC   C1B50635  17.734  30.126   6.240
 3909POPC   C2B50636  17.817  29.915   6.629
 3909POPC   C3B50637  17.727  29.992   7.053
 3909POPC   C4B50638  17.711  29.671   7.333
 3910POPC   NC350639  19.314  18.396   5.574
 3910POPC   PO450640  18.906  17.880   5.522
 3910POPC   GL150641  19.056  18.086   5.901
 3910POPC   GL250642  19.063  18.438   6.022
 3910POPC   C1A50643  19.074  17.980   6.320
 3910POPC   D2A50644  18.960  18.205   6.676
 3910POPC   C3A50645  18.968  18.005   7.054
 3910POPC   C4A50646  18.750  17.832   7.369
 3910POPC   C1B50647  18.850  18.738   6.313
 3910POPC   C2B50648  18.819  18.699   6.760
 3910POPC   C3B50649  19.046  18.521   7.100
 3910POPC   C4B50650  19.314  18.641   7.430
 3911POPC   NC350651  30.660   1.405   5.541
 3911POPC   PO450652  30.880   0.802   5.383
 3911POPC   GL150653  30.953   0.986   5.765
 3911POPC   GL250654  31.129   1.311   5.684
 3911POPC   C1A50655  30.705   1.050   6.140
 3911POPC   D2A50656  30.860   1.056   6.562
 3911POPC   C3A50657  30.655   1.160   6.947
 3911POPC   C4A50658  30.377   0.844   7.127
 3911POPC   C1B50659  31.128   1.350   6.151
 3911POPC   C2B50660  31.250   1.366   6.617
 3911POPC   C3B50661  31.087   1.511   7.032
 3911POPC   C4B50662  30.881   1.265   7.399
 3912POPC   NC350663  16.040  38.289   5.467
 3912POPC   PO450664  15.532  38.715   5.416
 3912POPC   GL150665  15.713  38.711   5.870
 3912POPC   GL250666  16.021  38.497   5.945
 3912POPC   C1A50667  15.709  38.660   6.340
 3912POPC   D2A50668  16.037  38.449   6.600
 3912POPC   C3A50669  15.942  38.224   7.002
 3912POPC   C4A50670  15.896  38.428   7.394
 3912POPC   C1B50671  16.164  38.846   6.223
 3912POPC   C2B50672  16.238  38.931   6.650
 3912POPC   C3B50673  16.087  38.773   7.058
 3912POPC   C4B50674  16.108  38.903   7.505
 3913POPC   NC350675  39.426   9.923   5.398
 3913POPC   PO450676  38.924   9.432   5.417
 3913POPC   GL150677  39.157   9.610   5.799
 3913POPC   GL250678  39.522   9.715   5.841
 3913POPC   C1A50679  39.282   9.528   6.249
 3913POPC   D2A50680  39.124   9.743   6.605
 3913POPC   C3A50681  39.185   9.488   6.941
 3913POPC   C4A50682  39.072   9.425   7.344
 3913POPC   C1B50683  39.347  10.025   6.177
 3913POPC   C2B50684  39.357  10.207   6.608
 3913POPC   C3B50685  39.377   9.983   7.004
 3913POPC   C4B50686  39.724   9.959   7.274
 3914POPC   NC350687  35.602  35.974   5.486
 3914POPC   PO450688  35.124  36.521   5.369
 3914POPC   GL150689  35.371  36.354   5.807
 3914POPC   GL250690  35.590  36.086   5.977
 3914POPC   C1A50691  35.251  36.282   6.295
 3914POPC   D2A50692  35.448  36.269   6.684
 3914POPC   C3A50693  35.167  36.204   7.051
 3914POPC   C4A50694  35.238  35.860   7.370
 3914POPC   C1B50695  35.708  36.477   6.226
 3914POPC   C2B50696  35.829  36.613   6.631
 3914POPC   C3B50697  35.691  36.512   7.051
 3914POPC   C4B50698  35.644  36.028   7.109
 3915POPC   NC350699   6.952  17.256   5.398
 3915POPC   PO450700   7.622  17.225   5.349
 3915POPC   GL150701   7.411  17.472   5.668
 3915POPC   GL250702   7.639  17.348   5.885
 3915POPC   C1A50703   7.391  17.768   6.075
 3915POPC   D2A50704   7.445  17.933   6.527
 3915POPC   C3A50705   7.136  17.846   6.850
 3915POPC   C4A50706   7.238  17.697   7.257
 3915POPC   C1B50707   7.895  17.599   6.141
 3915POPC   C2B50708   7.881  17.622   6.567
 3915POPC   C3B50709   7.591  17.562   6.917
 3915POPC   C4B50710   7.611  17.341   7.326
 3916POPC   NC350711  37.130  24.802   5.457
 3916POPC   PO450712  37.132  24.100   5.152
 3916POPC   GL150713  37.115  24.344   5.636
 3916POPC   GL250714  36.808  24.556   5.784
 3916POPC   C1A50715  37.219  24.600   6.086
 3916POPC   D2A50716  37.299  24.758   6.556
 3916POPC   C3A50717  37.124  24.603   6.966
 3916POPC   C4A50718  36.943  24.330   7.298
 3916POPC   C1B50719  36.775  24.869   6.150
 3916POPC   C2B50720  36.734  24.705   6.577
 3916POPC   C3B50721  36.590  24.591   6.980
 3916POPC   C4B50722  36.732  24.801   7.317
 3917POPC   NC350723  33.304   7.158   5.666
 3917POPC   PO450724  32.820   7.406   5.250
 3917POPC   GL150725  32.884   7.736   5.617
 3917POPC   GL250726  33.143   7.776   5.876
 3917POPC   C1A50727  32.694   7.639   6.050
 3917POPC   D2A50728  32.680   7.420   6.476
 3917POPC   C3A50729  32.551   7.705   6.823
 3917POPC   C4A50730  32.696   7.774   7.244
 3917POPC   C1B50731  33.148   7.477   6.233
 3917POPC   C2B50732  33.201   7.326   6.654
 3917POPC   C3B50733  33.000   7.384   7.042
 3917POPC   C4B50734  33.089   7.511   7.473
 3918POPC   NC350735  21.130  33.264   5.604
 3918POPC   PO450736  21.790  32.957   5.496
 3918POPC   GL150737  21.491  32.764   5.843
 3918POPC   GL250738  21.114  32.666   5.758
 3918POPC   C1A50739  21.462  32.914   6.285
 3918POPC   D2A50740  21.475  33.067   6.744
 3918POPC   C3A50741  21.578  32.823   7.163
 3918POPC   C4A50742  21.591  33.100   7.571
 3918POPC   C1B50743  20.969  32.878   6.147
 3918POPC   C2B50744  21.051  33.226   6.435
 3918POPC   C3B50745  20.991  33.278   6.865
 3918POPC   C4B50746  21.213  33.177   7.235
 3919POPC   NC350747  20.922  28.853   5.632
 3919POPC   PO450748  21.499  29.272   5.507
 3919POPC   GL150749  21.331  29.114   5.884
 3919POPC   GL250750  21.390  28.752   5.842
 3919POPC   C1A50751  21.126  28.951   6.268
 3919POPC   D2A50752  20.934  28.895   6.662
 3919POPC   C3A50753  21.205  28.997   6.986
 3919POPC   C4A50754  21.395  29.064   7.366
 3919POPC   C1B50755  21.632  28.826   6.234
 3919POPC   C2B50756  21.680  28.989   6.663
 3919POPC   C3B50757  21.683  28.759   7.074
 3919POPC   C4B50758  21.750  28.785   7.581
 3920POPC   NC350759   6.028   6.507   5.083
 3920POPC   PO450760   5.909   7.035   5.521
 3920POPC   GL150761   6.002   6.664   5.833
 3920POPC   GL250762   5.738   6.458   6.030
 3920POPC   C1A50763   6.240   6.466   6.205
 3920POPC   D2A50764   6.415   6.355   6.623
 3920POPC   C3A50765   6.255   6.487   7.034
 3920POPC   C4A50766   6.251   6.921   7.151
 3920POPC   C1B50767   5.829   6.868   6.298
 3920POPC   C2B50768   5.884   7.078   6.720
 3920POPC   C3B50769   5.755   6.921   7.111
 3920POPC   C4B50770   5.749   6.483   7.235
 3921POPC   NC350771  16.232  12.132   5.174
 3921POPC   PO450772  15.614  11.985   5.344
 3921POPC   GL150773  15.881  12.093   5.714
 3921POPC   GL250774  15.921  11.819   5.967
 3921POPC   C1A50775  16.030  12.268   6.141
 3921POPC   D2A50776  15.992  11.938   6.461
 3921POPC   C3A50777  15.903  11.909   6.884
 3921POPC   C4A50778  16.032  12.192   7.174
 3921POPC   C1B50779  15.572  12.034   6.198
 3921POPC   C2B50780  15.432  12.011   6.605
 3921POPC   C3B50781  15.494  12.227   6.980
 3921POPC   C4B50782  15.596  11.996   7.324
 3922POPC   NC350783  34.431  30.773   5.527
 3922POPC   PO450784  34.869  30.316   5.562
 3922POPC   GL150785  34.680  30.549   5.934
 3922POPC   GL250786  34.322  30.639   5.990
 3922POPC   C1A50787  34.774  30.891   6.203
 3922POPC   D2A50788  35.048  30.935   6.540
 3922POPC   C3A50789  34.880  30.930   6.945
 3922POPC   C4A50790  34.797  30.636   7.236
 3922POPC   C1B50791  34.278  31.008   6.249
 3922POPC   C2B50792  34.461  30.964   6.642
 3922POPC   C3B50793  34.369  30.892   7.057
 3922POPC   C4B50794  34.320  30.601   7.363
 3923POPC   NC350795  21.093  41.381   5.487
 3923POPC   PO450796  21.484  41.893   5.475
 3923POPC   GL150797  21.396  41.669   5.853
 3923POPC   GL250798  21.443  41.292   5.864
 3923POPC   C1A50799  21.414  41.591   6.290
 3923POPC   D2A50800  21.714  41.482   6.586
 3923POPC   C3A50801  21.494  41.427   6.946
 3923POPC   C4A50802  21.326  41.710   7.238
 3923POPC   C1B50803  21.206  41.117   6.221
 3923POPC   C2B50804  21.083  41.196   6.655
 3923POPC   C3B50805  21.018  41.326   7.078
 3923POPC   C4B50806  21.250  41.101   7.298
 3924POPC   NC350807  19.061  25.648   5.645
 3924POPC   PO450808  18.826  24.970   5.503
 3924POPC   GL150809  18.915  25.192   5.867
 3924POPC   GL250810  18.686  25.457   5.950
 3924POPC   C1A50811  19.177  25.240   6.218
 3924POPC   D2A50812  19.258  25.445   6.622
 3924POPC   C3A50813  19.328  25.153   6.960
 3924POPC   C4A50814  19.202  25.098   7.380
 3924POPC   C1B50815  18.710  25.338   6.376
 3924POPC   C2B50816  18.853  25.137   6.726
 3924POPC   C3B50817  18.793  25.204   7.147
 3924POPC   C4B50818  18.968  25.551   7.371
 3925POPC   NC350819  17.153  40.588   5.494
 3925POPC   PO450820  16.724  41.000   5.300
 3925POPC   GL150821  16.876  41.017   5.734
 3925POPC   GL250822  16.723  40.689   5.793
 3925POPC   C1A50823  16.804  40.999   6.215
 3925POPC   D2A50824  16.996  40.773   6.582
 3925POPC   C3A50825  16.888  40.902   7.003
 3925POPC   C4A50826  16.486  40.893   7.165
 3925POPC   C1B50827  16.782  40.466   6.186
 3925POPC   C2B50828  16.627  40.382   6.597
 3925POPC   C3B50829  16.781  40.392   7.005
 3925POPC   C4B50830  16.550  40.432   7.361
 3926POPC   NC350831  37.015  20.836   5.183
 3926POPC   PO450832  36.627  20.456   5.559
 3926POPC   GL150833  36.844  20.693   5.797
 3926POPC   GL250834  37.169  20.721   5.664
 3926POPC   C1A50835  36.795  20.653   6.216
 3926POPC   D2A50836  36.770  20.767   6.634
 3926POPC   C3A50837  36.870  20.419   6.927
 3926POPC   C4A50838  36.739  20.720   7.230
 3926POPC   C1B50839  37.293  20.618   6.089
 3926POPC   C2B50840  37.187  20.485   6.506
 3926POPC   C3B50841  37.274  20.710   6.912
 3926POPC   C4B50842  37.202  20.500   7.315
 3927POPC   NC350843  12.025  15.972   5.298
 3927POPC   PO450844  12.586  16.363   5.471
 3927POPC   GL150845  12.254  16.155   5.752
 3927POPC   GL250846  12.108  15.822   5.778
 3927POPC   C1A50847  11.990  16.154   6.140
 3927POPC   D2A50848  11.960  15.971   6.556
 3927POPC   C3A50849  11.986  16.227   6.931
 3927POPC   C4A50850  11.848  16.033   7.276
 3927POPC   C1B50851  12.183  15.642   6.189
 3927POPC   C2B50852  12.394  15.681   6.570
 3927POPC   C3B50853  12.189  15.627   6.962
 3927POPC   C4B50854  12.385  15.689   7.338
 3928POPC   NC350855  27.237  11.866   5.504
 3928POPC   PO450856  26.585  12.214   5.533
 3928POPC   GL150857  26.878  12.127   5.831
 3928POPC   GL250858  26.647  12.306   6.041
 3928POPC   C1A50859  26.921  11.955   6.254
 3928POPC   D2A50860  26.788  11.762   6.642
 3928POPC   C3A50861  27.106  11.875   6.933
 3928POPC   C4A50862  26.881  12.075   7.244
 3928POPC   C1B50863  26.416  12.432   6.360
 3928POPC   C2B50864  26.546  12.257   6.743
 3928POPC   C3B50865  26.577  12.449   7.117
 3928POPC   C4B50866  26.588  12.388   7.577
 3929POPC   NC350867   5.365  16.128   5.533
 3929POPC   PO450868   4.730  15.791   5.539
 3929POPC   GL150869   4.951  16.024   5.868
 3929POPC   GL250870   5.199  15.790   5.891
 3929POPC   C1A50871   5.022  16.067   6.349
 3929POPC   D2A50872   4.786  15.783   6.667
 3929POPC   C3A50873   4.877  15.802   7.114
 3929POPC   C4A50874   4.922  16.125   7.408
 3929POPC   C1B50875   4.952  15.594   6.201
 3929POPC   C2B50876   5.130  15.394   6.534
 3929POPC   C3B50877   5.341  15.600   6.838
 3929POPC   C4B50878   5.312  15.527   7.258
 3930POPC   NC350879   5.163  17.102   5.629
 3930POPC   PO450880   5.478  17.691   5.375
 3930POPC   GL150881   5.139  17.625   5.734
 3930POPC   GL250882   4.781  17.730   5.682
 3930POPC   C1A50883   5.027  17.439   6.176
 3930POPC   D2A50884   5.218  17.274   6.566
 3930POPC   C3A50885   5.126  17.481   6.974
 3930POPC   C4A50886   5.247  17.459   7.442
 3930POPC   C1B50887   4.910  17.919   6.112
 3930POPC   C2B50888   5.096  17.838   6.533
 3930POPC   C3B50889   5.158  18.004   6.935
 3930POPC   C4B50890   4.828  17.935   7.203
 3931POPC   NC350891   0.239  16.072   5.402
 3931POPC   PO450892   0.787  15.779   5.416
 3931POPC   GL150893   0.565  15.861   5.772
 3931POPC   GL250894   0.808  15.655   5.913
 3931POPC   C1A50895   0.240  16.012   6.056
 3931POPC   D2A50896   0.259  16.180   6.443
 3931POPC   C3A50897   0.217  16.122   6.842
 3931POPC   C4A50898   0.487  16.048   7.177
 3931POPC   C1B50899   0.819  15.378   6.240
 3931POPC   C2B50900   0.839  15.480   6.641
 3931POPC   C3B50901   0.680  15.634   6.988
 3931POPC   C4B50902   0.722  15.625   7.437
 3932POPC   NC350903  43.237   1.912   5.361
 3932POPC   PO450904  42.796   2.264   5.571
 3932POPC   GL150905  42.959   1.947   5.876
 3932POPC   GL250906  43.342   1.845   5.841
 3932POPC   C1A50907  42.871   1.939   6.340
 3932POPC   D2A50908  42.804   2.083   6.762
 3932POPC   C3A50909  43.041   2.168   7.096
 3932POPC   C4A50910  42.820   1.874   7.327
 3932POPC   C1B50911  43.275   1.677   6.224
 3932POPC   C2B50912  43.278   1.844   6.658
 3932POPC   C3B50913  43.212   1.677   7.069
 3932POPC   C4B50914  43.273   1.743   7.540
 3933POPC   NC350915   7.631   7.201   5.614
 3933POPC   PO450916   7.448   7.745   5.227
 3933POPC   GL150917   7.352   7.643   5.739
 3933POPC   GL250918   7.635   7.621   5.915
 3933POPC   C1A50919   7.340   7.330   6.175
 3933POPC   D2A50920   7.445   7.111   6.579
 3933POPC   C3A50921   7.422   7.319   6.970
 3933POPC   C4A50922   7.185   7.271   7.355
 3933POPC   C1B50923   7.824   7.605   6.300
 3933POPC   C2B50924   7.869   7.409   6.672
 3933POPC   C3B50925   7.904   7.575   7.062
 3933POPC   C4B50926   7.925   7.414   7.417
 3934POPC   NC350927  40.625   4.231   5.535
 3934POPC   PO450928  41.284   4.235   5.616
 3934POPC   GL150929  40.955   4.215   5.922
 3934POPC   GL250930  40.693   3.916   5.921
 3934POPC   C1A50931  40.824   4.498   6.226
 3934POPC   D2A50932  40.998   4.666   6.619
 3934POPC   C3A50933  40.763   4.560   6.998
 3934POPC   C4A50934  40.768   4.283   7.353
 3934POPC   C1B50935  40.890   3.915   6.329
 3934POPC   C2B50936  40.779   4.199   6.633
 3934POPC   C3B50937  40.491   4.117   6.923
 3934POPC   C4B50938  40.573   3.819   7.281
 3935POPC   NC350939  14.312   8.921   5.376
 3935POPC   PO450940  14.940   8.738   5.440
 3935POPC   GL150941  14.759   9.011   5.817
 3935POPC   GL250942  14.378   9.085   5.868
 3935POPC   C1A50943  14.719   8.994   6.275
 3935POPC   D2A50944  14.390   9.173   6.564
 3935POPC   C3A50945  14.524   9.065   6.990
 3935POPC   C4A50946  14.502   9.035   7.422
 3935POPC   C1B50947  14.308   8.737   6.191
 3935POPC   C2B50948  14.464   8.684   6.632
 3935POPC   C3B50949  14.218   8.636   7.015
 3935POPC   C4B50950  14.024   8.856   7.364
 3936POPC   NC350951  38.863  18.398   5.317
 3936POPC   PO450952  39.540  18.259   5.551
 3936POPC   GL150953  39.326  18.351   5.927
 3936POPC   GL250954  38.990  18.312   5.819
 3936POPC   C1A50955  39.271  18.371   6.386
 3936POPC   D2A50956  39.363  18.552   6.810
 3936POPC   C3A50957  39.421  18.217   7.144
 3936POPC   C4A50958  39.428  18.138   7.589
 3936POPC   C1B50959  39.027  17.973   6.112
 3936POPC   C2B50960  38.965  17.922   6.525
 3936POPC   C3B50961  38.787  17.777   6.888
 3936POPC   C4B50962  39.001  17.925   7.253
 3937POPC   NC350963   1.385  36.557   4.974
 3937POPC   PO450964   1.264  36.151   5.504
 3937POPC   GL150965   1.283  36.052   5.913
 3937POPC   GL250966   0.982  35.877   5.916
 3937POPC   C1A50967   1.185  36.130   6.326
 3937POPC   D2A50968   1.261  35.993   6.711
 3937POPC   C3A50969   1.039  36.190   7.009
 3937POPC   C4A50970   1.341  36.142   7.299
 3937POPC   C1B50971   0.928  35.699   6.349
 3937POPC   C2B50972   0.837  35.743   6.783
 3937POPC   C3B50973   1.084  35.703   7.191
 3937POPC   C4B50974   0.956  35.700   7.667
 3938POPC   NC350975  28.616  25.395   5.425
 3938POPC   PO450976  28.183  24.949   5.607
 3938POPC   GL150977  28.400  25.218   5.891
 3938POPC   GL250978  28.288  25.553   5.804
 3938POPC   C1A50979  28.565  25.272   6.335
 3938POPC   D2A50980  28.364  25.250   6.764
 3938POPC   C3A50981  28.470  25.158   7.196
 3938POPC   C4A50982  28.284  25.065   7.609
 3938POPC   C1B50983  28.104  25.517   6.215
 3938POPC   C2B50984  28.062  25.650   6.648
 3938POPC   C3B50985  28.196  25.626   7.092
 3938POPC   C4B50986  28.433  25.553   7.519
 3939POPC   NC350987  25.298  26.932   5.518
 3939POPC   PO450988  24.980  26.330   5.486
 3939POPC   GL150989  25.014  26.628   5.879
 3939POPC   GL250990  25.164  26.969   5.992
 3939POPC   C1A50991  25.061  26.657   6.354
 3939POPC   D2A50992  24.788  26.652   6.658
 3939POPC   C3A50993  24.972  26.895   6.926
 3939POPC   C4A50994  25.157  26.814   7.289
 3939POPC   C1B50995  25.210  27.167   6.402
 3939POPC   C2B50996  25.443  27.017   6.780
 3939POPC   C3B50997  25.585  27.192   7.162
 3939POPC   C4B50998  25.399  27.162   7.580
 3940POPC   NC350999  35.767  31.590   5.592
 3940POPC   PO451000  36.206  31.356   5.129
 3940POPC   GL151001  36.294  31.540   5.647
 3940POPC   GL251002  36.308  31.885   5.780
 3940POPC   C1A51003  36.126  31.514   6.130
 3940POPC   D2A51004  35.989  31.505   6.558
 3940POPC   C3A51005  36.078  31.215   6.904
 3940POPC   C4A51006  36.059  31.367   7.357
 3940POPC   C1B51007  36.564  31.759   6.185
 3940POPC   C2B51008  36.524  31.537   6.618
 3940POPC   C3B51009  36.386  31.638   7.064
 3940POPC   C4B51010  36.352  31.727   7.538
 3941POPC   NC351011  16.206  20.746   5.075
 3941POPC   PO451012  15.658  20.441   5.318
 3941POPC   GL151013  15.866  20.569   5.674
 3941POPC   GL251014  15.998  20.251   5.715
 3941POPC   C1A51015  16.093  20.656   6.077
 3941POPC   D2A51016  16.058  20.920   6.465
 3941POPC   C3A51017  16.155  20.839   6.899
 3941POPC   C4A51018  16.133  20.564   7.249
 3941POPC   C1B51019  15.720  20.295   6.078
 3941POPC   C2B51020  15.757  20.494   6.437
 3941POPC   C3B51021  15.847  20.424   6.832
 3941POPC   C4B51022  15.761  20.187   7.164
 3942POPC   NC351023  42.534  14.593   5.393
 3942POPC   PO451024  41.893  14.371   5.338
 3942POPC   GL151025  42.130  14.300   5.747
 3942POPC   GL251026  42.437  14.467   5.878
 3942POPC   C1A51027  42.191  14.136   6.182
 3942POPC   D2A51028  42.143  14.388   6.581
 3942POPC   C3A51029  42.446  14.242   6.881
 3942POPC   C4A51030  42.561  14.374   7.286
 3942POPC   C1B51031  42.239  14.731   6.184
 3942POPC   C2B51032  42.249  14.919   6.589
 3942POPC   C3B51033  42.368  14.766   7.012
 3942POPC   C4B51034  42.250  14.736   7.463
 3943POPC   NC351035  21.171   0.682   5.617
 3943POPC   PO451036  21.731   0.270   5.456
 3943POPC   GL151037  21.575   0.435   5.846
 3943POPC   GL251038  21.317   0.168   5.818
 3943POPC   C1A51039  21.419   0.512   6.299
 3943POPC   D2A51040  21.560   0.405   6.753
 3943POPC   C3A51041  21.473   0.637   7.146
 3943POPC   C4A51042  21.674   0.672   7.573
 3943POPC   C1B51043  21.082   0.125   6.193
 3943POPC   C2B51044  21.096   0.139   6.619
 3943POPC   C3B51045  21.107   0.260   7.039
 3943POPC   C4B51046  21.001   0.054   7.397
 3944POPC   NC351047  27.380  33.996   5.554
 3944POPC   PO451048  26.742  34.022   5.300
 3944POPC   GL151049  26.894  33.861   5.688
 3944POPC   GL251050  26.950  34.172   5.768
 3944POPC   C1A51051  27.094  33.846   6.133
 3944POPC   D2A51052  27.018  34.006   6.544
 3944POPC   C3A51053  26.663  33.882   6.835
 3944POPC   C4A51054  26.590  33.594   7.216
 3944POPC   C1B51055  26.647  34.230   6.095
 3944POPC   C2B51056  26.525  34.284   6.536
 3944POPC   C3B51057  26.503  34.414   6.963
 3944POPC   C4B51058  26.644  34.132   7.297
 3945POPC   NC351059  37.895  36.343   5.548
 3945POPC   PO451060  37.689  35.693   5.452
 3945POPC   GL151061  37.818  35.848   5.824
 3945POPC   GL251062  37.585  36.137   5.912
 3945POPC   C1A51063  37.929  35.949   6.253
 3945POPC   D2A51064  37.668  36.136   6.580
 3945POPC   C3A51065  37.635  36.001   6.997
 3945POPC   C4A51066  37.358  35.886   7.334
 3945POPC   C1B51067  37.727  36.491   6.196
 3945POPC   C2B51068  37.600  36.635   6.600
 3945POPC   C3B51069  37.397  36.460   6.968
 3945POPC   C4B51070  37.558  36.364   7.357
 3946POPC   NC351071  14.739   4.946   5.463
 3946POPC   PO451072  14.235   5.421   5.407
 3946POPC   GL151073  14.160   5.339   5.868
 3946POPC   GL251074  14.375   5.060   5.856
 3946POPC   C1A51075  14.224   5.246   6.339
 3946POPC   D2A51076  14.087   5.168   6.771
 3946POPC   C3A51077  14.252   5.198   7.183
 3946POPC   C4A51078  14.298   4.838   7.508
 3946POPC   C1B51079  14.633   5.411   6.079
 3946POPC   C2B51080  14.725   5.404   6.546
 3946POPC   C3B51081  14.651   5.085   6.889
 3946POPC   C4B51082  14.753   4.966   7.330
 3947POPC   NC351083  28.334   0.567   5.348
 3947POPC   PO451084  28.632   0.003   5.481
 3947POPC   GL151085  28.556   0.343   5.763
 3947POPC   GL251086  28.227   0.260   5.751
 3947POPC   C1A51087  28.408   0.535   6.164
 3947POPC   D2A51088  28.560   0.488   6.585
 3947POPC   C3A51089  28.435   0.286   6.959
 3947POPC   C4A51090  28.374   0.390   7.364
 3947POPC   C1B51091  28.065   0.139   6.120
 3947POPC   C2B51092  28.174   0.095   6.542
 3947POPC   C3B51093  27.967   0.062   6.949
 3947POPC   C4B51094  28.143  44.936   7.318
 3948POPC   NC351095  44.890  19.426   5.515
 3948POPC   PO451096   0.659  19.634   5.509
 3948POPC   GL151097   0.435  19.546   5.845
 3948POPC   GL251098   0.193  19.820   5.801
 3948POPC   C1A51099   0.576  19.562   6.262
 3948POPC   D2A51100   0.625  19.864   6.593
 3948POPC   C3A51101   0.792  19.680   6.972
 3948POPC   C4A51102   0.536  19.880   7.277
 3948POPC   C1B51103   0.301  20.061   6.196
 3948POPC   C2B51104   0.132  20.041   6.629
 3948POPC   C3B51105   0.062  19.989   7.087
 3948POPC   C4B51106  44.912  19.676   7.406
 3949POPC   NC351107   2.767  26.479   5.382
 3949POPC   PO451108   3.241  26.987   5.264
 3949POPC   GL151109   2.876  26.975   5.674
 3949POPC   GL251110   2.843  26.689   5.841
 3949POPC   C1A51111   2.628  27.006   6.136
 3949POPC   D2A51112   2.805  26.937   6.550
 3949POPC   C3A51113   2.588  26.981   6.910
 3949POPC   C4A51114   2.686  26.995   7.319
 3949POPC   C1B51115   3.004  26.587   6.228
 3949POPC   C2B51116   2.820  26.407   6.606
 3949POPC   C3B51117   2.800  26.543   7.026
 3949POPC   C4B51118   3.109  26.647   7.312
 3950POPC   NC351119   8.255  10.238   5.556
 3950POPC   PO451120   7.875  10.729   5.556
 3950POPC   GL151121   8.072  10.539   5.915
 3950POPC   GL251122   7.927  10.190   5.953
 3950POPC   C1A51123   8.456  10.523   6.189
 3950POPC   D2A51124   8.443  10.709   6.610
 3950POPC   C3A51125   8.613  10.518   6.979
 3950POPC   C4A51126   8.512  10.510   7.423
 3950POPC   C1B51127   8.003  10.407   6.393
 3950POPC   C2B51128   8.070  10.439   6.838
 3950POPC   C3B51129   8.008  10.268   7.237
 3950POPC   C4B51130   8.123  10.222   7.666
 3951POPC   NC351131  39.660  30.021   5.478
 3951POPC   PO451132  38.960  29.769   5.297
 3951POPC   GL151133  39.130  29.920   5.714
 3951POPC   GL251134  39.360  29.694   5.806
 3951POPC   C1A51135  39.249  30.079   6.173
 3951POPC   D2A51136  39.424  29.929   6.608
 3951POPC   C3A51137  39.250  30.163   6.978
 3951POPC   C4A51138  39.356  30.160   7.425
 3951POPC   C1B51139  39.334  29.563   6.224
 3951POPC   C2B51140  39.585  29.342   6.537
 3951POPC   C3B51141  39.474  29.443   6.936
 3951POPC   C4B51142  39.295  29.716   7.202
 3952POPC   NC351143  44.666   7.779   5.416
 3952POPC   PO451144  44.552   8.404   5.518
 3952POPC   GL151145  44.725   8.145   5.833
 3952POPC   GL251146  44.937   7.859   5.884
 3952POPC   C1A51147  44.542   8.169   6.219
 3952POPC   D2A51148  44.650   8.143   6.642
 3952POPC   C3A51149  44.451   8.413   6.931
 3952POPC   C4A51150  44.453   8.343   7.362
 3952POPC   C1B51151  44.806   7.749   6.326
 3952POPC   C2B51152  44.918   7.717   6.758
 3952POPC   C3B51153  44.931   7.787   7.213
 3952POPC   C4B51154  44.837   8.079   7.558
 3953POPC   NC351155   2.515  11.603   5.540
 3953POPC   PO451156   2.966  11.133   5.376
 3953POPC   GL151157   2.842  11.185   5.831
 3953POPC   GL251158   2.927  11.506   5.898
 3953POPC   C1A51159   2.913  11.141   6.295
 3953POPC   D2A51160   3.089  11.376   6.678
 3953POPC   C3A51161   2.954  11.133   7.038
 3953POPC   C4A51162   2.851  10.904   7.408
 3953POPC   C1B51163   2.602  11.540   6.233
 3953POPC   C2B51164   2.585  11.322   6.647
 3953POPC   C3B51165   2.534  11.444   7.065
 3953POPC   C4B51166   2.328  11.626   7.396
 3954POPC   NC351167  38.207  37.928   5.415
 3954POPC   PO451168  38.752  37.552   5.528
 3954POPC   GL151169  38.411  37.653   5.815
 3954POPC   GL251170  38.532  38.013   5.838
 3954POPC   C1A51171  38.240  37.485   6.226
 3954POPC   D2A51172  38.561  37.385   6.532
 3954POPC   C3A51173  38.448  37.528   6.921
 3954POPC   C4A51174  38.090  37.592   7.119
 3954POPC   C1B51175  38.324  37.981   6.235
 3954POPC   C2B51176  38.148  37.902   6.669
 3954POPC   C3B51177  38.257  38.082   7.088
 3954POPC   C4B51178  38.541  37.881   7.362
 3955POPC   NC351179  38.700   2.154   5.481
 3955POPC   PO451180  38.115   1.884   5.431
 3955POPC   GL151181  38.426   1.836   5.805
 3955POPC   GL251182  38.641   2.111   5.969
 3955POPC   C1A51183  38.519   1.715   6.250
 3955POPC   D2A51184  38.284   1.796   6.617
 3955POPC   C3A51185  38.483   1.821   7.052
 3955POPC   C4A51186  38.497   1.854   7.538
 3955POPC   C1B51187  38.411   2.218   6.303
 3955POPC   C2B51188  38.427   2.429   6.696
 3955POPC   C3B51189  38.512   2.343   7.133
 3955POPC   C4B51190  38.636   2.337   7.579
 3956POPC   NC351191  41.044  36.354   5.530
 3956POPC   PO451192  40.418  36.012   5.539
 3956POPC   GL151193  40.752  36.058   5.815
 3956POPC   GL251194  40.670  36.416   5.908
 3956POPC   C1A51195  40.975  36.153   6.201
 3956POPC   D2A51196  40.784  36.046   6.579
 3956POPC   C3A51197  40.986  36.189   6.897
 3956POPC   C4A51198  41.031  36.038   7.277
 3956POPC   C1B51199  40.446  36.173   6.205
 3956POPC   C2B51200  40.272  36.024   6.555
 3956POPC   C3B51201  40.389  36.134   6.939
 3956POPC   C4B51202  40.619  36.324   7.250
 3957POPC   NC351203  21.794  25.662   5.593
 3957POPC   PO451204  21.172  25.705   5.312
 3957POPC   GL151205  21.306  25.797   5.742
 3957POPC   GL251206  21.297  26.174   5.836
 3957POPC   C1A51207  21.453  25.836   6.169
 3957POPC   D2A51208  21.318  26.045   6.528
 3957POPC   C3A51209  21.457  25.912   6.913
 3957POPC   C4A51210  21.369  26.122   7.341
 3957POPC   C1B51211  21.628  26.329   6.168
 3957POPC   C2B51212  21.787  26.260   6.602
 3957POPC   C3B51213  21.687  26.365   7.025
 3957POPC   C4B51214  21.859  26.294   7.435
 3958POPC   NC351215  19.864  26.145   5.314
 3958POPC   PO451216  19.338  25.723   5.275
 3958POPC   GL151217  19.605  25.873   5.683
 3958POPC   GL251218  19.917  25.670   5.750
 3958POPC   C1A51219  19.855  26.059   6.084
 3958POPC   D2A51220  20.033  26.091   6.532
 3958POPC   C3A51221  19.718  26.198   6.854
 3958POPC   C4A51222  19.771  26.386   7.261
 3958POPC   C1B51223  20.046  25.574   6.197
 3958POPC   C2B51224  20.296  25.587   6.576
 3958POPC   C3B51225  20.164  25.547   6.952
 3958POPC   C4B51226  19.972  25.876   7.162
 3959POPC   NC351227  24.925  16.260   5.543
 3959POPC   PO451228  25.377  15.788   5.433
 3959POPC   GL151229  25.226  15.875   5.802
 3959POPC   GL251230  25.507  16.002   5.899
 3959POPC   C1A51231  25.106  15.901   6.222
 3959POPC   D2A51232  25.135  16.167   6.596
 3959POPC   C3A51233  24.952  16.042   6.961
 3959POPC   C4A51234  25.221  15.865   7.261
 3959POPC   C1B51235  25.711  15.884   6.233
 3959POPC   C2B51236  25.804  16.021   6.625
 3959POPC   C3B51237  25.549  16.178   6.923
 3959POPC   C4B51238  25.722  16.417   7.287
 3960POPC   NC351239   3.011  34.788   5.379
 3960POPC   PO451240   2.840  34.147   5.431
 3960POPC   GL151241   2.998  34.436   5.797
 3960POPC   GL251242   2.676  34.615   5.751
 3960POPC   C1A51243   3.059  34.524   6.317
 3960POPC   D2A51244   2.917  34.724   6.764
 3960POPC   C3A51245   3.003  34.736   7.244
 3960POPC   C4A51246   3.018  34.585   7.669
 3960POPC   C1B51247   2.629  34.322   6.109
 3960POPC   C2B51248   2.547  34.448   6.530
 3960POPC   C3B51249   2.611  34.336   6.961
 3960POPC   C4B51250   2.549  34.395   7.367
 3961POPC   NC351251  29.244  13.072   5.321
 3961POPC   PO451252  29.080  12.446   5.269
 3961POPC   GL151253  29.002  12.722   5.669
 3961POPC   GL251254  29.294  12.900   5.784
 3961POPC   C1A51255  28.897  12.974   6.096
 3961POPC   D2A51256  29.018  12.867   6.532
 3961POPC   C3A51257  29.000  13.105   6.938
 3961POPC   C4A51258  29.037  12.898   7.343
 3961POPC   C1B51259  29.404  12.813   6.196
 3961POPC   C2B51260  29.408  12.540   6.557
 3961POPC   C3B51261  29.309  12.692   6.948
 3961POPC   C4B51262  29.548  12.899   7.250
 3962POPC   NC351263  17.109   2.814   5.159
 3962POPC   PO451264  16.656   2.435   5.532
 3962POPC   GL151265  16.694   2.542   5.931
 3962POPC   GL251266  16.536   2.852   5.880
 3962POPC   C1A51267  16.902   2.516   6.357
 3962POPC   D2A51268  17.101   2.697   6.752
 3962POPC   C3A51269  16.832   2.770   7.111
 3962POPC   C4A51270  16.516   2.431   7.215
 3962POPC   C1B51271  16.425   2.726   6.310
 3962POPC   C2B51272  16.520   2.619   6.740
 3962POPC   C3B51273  16.331   2.884   7.121
 3962POPC   C4B51274  16.572   3.083   7.474
 3963POPC   NC351275   1.529  43.214   5.506
 3963POPC   PO451276   0.923  43.383   5.638
 3963POPC   GL151277   1.223  43.173   5.919
 3963POPC   GL251278   1.429  42.859   5.898
 3963POPC   C1A51279   1.245  43.204   6.347
 3963POPC   D2A51280   1.327  43.382   6.732
 3963POPC   C3A51281   1.118  43.193   7.085
 3963POPC   C4A51282   0.927  43.468   7.375
 3963POPC   C1B51283   1.531  42.785   6.327
 3963POPC   C2B51284   1.366  42.864   6.737
 3963POPC   C3B51285   1.428  42.762   7.142
 3963POPC   C4B51286   1.351  42.687   7.573
 3964POPC   NC351287  13.842  32.339   5.333
 3964POPC   PO451288  13.173  32.561   5.287
 3964POPC   GL151289  13.461  32.471   5.687
 3964POPC   GL251290  13.628  32.127   5.757
 3964POPC   C1A51291  13.439  32.378   6.171
 3964POPC   D2A51292  13.528  32.429   6.635
 3964POPC   C3A51293  13.739  32.122   6.912
 3964POPC   C4A51294  13.795  31.977   7.353
 3964POPC   C1B51295  13.922  32.210   6.135
 3964POPC   C2B51296  14.031  32.371   6.563
 3964POPC   C3B51297  14.237  32.234   6.942
 3964POPC   C4B51298  14.219  32.259   7.398
 3965POPC   NC351299   0.448   9.347   5.166
 3965POPC   PO451300   0.171   9.797   5.602
 3965POPC   GL151301   0.546   9.810   5.838
 3965POPC   GL251302   0.629  10.158   5.906
 3965POPC   C1A51303   0.583   9.639   6.256
 3965POPC   D2A51304   0.679   9.915   6.593
 3965POPC   C3A51305   0.594   9.836   7.039
 3965POPC   C4A51306   0.523   9.601   7.431
 3965POPC   C1B51307   0.287  10.047   6.236
 3965POPC   C2B51308   0.165   9.956   6.687
 3965POPC   C3B51309   0.104  10.026   7.150
 3965POPC   C4B51310  44.799   9.917   7.504
 3966POPC   NC351311  24.446  23.783   4.757
 3966POPC   PO451312  24.155  23.917   5.365
 3966POPC   GL151313  24.433  23.789   5.737
 3966POPC   GL251314  24.787  23.712   5.620
 3966POPC   C1A51315  24.418  23.933   6.183
 3966POPC   D2A51316  24.706  23.984   6.541
 3966POPC   C3A51317  24.554  23.867   6.948
 3966POPC   C4A51318  24.215  24.012   7.221
 3966POPC   C1B51319  24.896  23.714   6.070
 3966POPC   C2B51320  24.959  23.474   6.449
 3966POPC   C3B51321  24.862  23.378   6.882
 3966POPC   C4B51322  24.722  23.501   7.277
 3967POPC   NC351323   6.068  44.888   5.078
 3967POPC   PO451324   6.083  44.290   5.460
 3967POPC   GL151325   5.834  44.515   5.800
 3967POPC   GL251326   6.003  44.815   5.973
 3967POPC   C1A51327   5.691  44.546   6.244
 3967POPC   D2A51328   5.735  44.950   6.458
 3967POPC   C3A51329   5.803  44.954   6.932
 3967POPC   C4A51330   5.701  44.839   7.373
 3967POPC   C1B51331   6.206  44.573   6.287
 3967POPC   C2B51332   6.107  44.607   6.715
 3967POPC   C3B51333   6.056  44.522   7.147
 3967POPC   C4B51334   6.246  44.172   7.334
 3968POPC   NC351335  24.194   5.345   5.487
 3968POPC   PO451336  24.255   4.627   5.520
 3968POPC   GL151337  24.273   4.974   5.843
 3968POPC   GL251338  24.573   5.165   5.829
 3968POPC   C1A51339  24.238   5.305   6.208
 3968POPC   D2A51340  24.477   5.469   6.587
 3968POPC   C3A51341  24.408   5.294   7.014
 3968POPC   C4A51342  24.252   4.904   7.213
 3968POPC   C1B51343  24.544   4.896   6.265
 3968POPC   C2B51344  24.495   4.849   6.749
 3968POPC   C3B51345  24.736   4.795   7.170
 3968POPC   C4B51346  24.866   4.799   7.634
 3969POPC   NC351347   7.905  35.007   5.507
 3969POPC   PO451348   8.362  34.504   5.512
 3969POPC   GL151349   8.307  34.308   5.941
 3969POPC   GL251350   7.946  34.195   5.922
 3969POPC   C1A51351   8.128  34.286   6.377
 3969POPC   D2A51352   8.099  34.106   6.780
 3969POPC   C3A51353   8.273  34.375   7.114
 3969POPC   C4A51354   8.538  34.756   7.189
 3969POPC   C1B51355   7.842  34.622   6.085
 3969POPC   C2B51356   7.701  34.685   6.514
 3969POPC   C3B51357   7.850  34.825   6.924
 3969POPC   C4B51358   7.640  34.799   7.305
 3970POPC   NC351359  28.715  17.603   5.007
 3970POPC   PO451360  29.148  17.465   5.516
 3970POPC   GL151361  28.978  17.739   5.821
 3970POPC   GL251362  29.274  17.858   5.916
 3970POPC   C1A51363  28.852  17.566   6.207
 3970POPC   D2A51364  28.873  17.691   6.630
 3970POPC   C3A51365  28.808  17.410   6.970
 3970POPC   C4A51366  28.886  17.532   7.408
 3970POPC   C1B51367  29.341  17.691   6.313
 3970POPC   C2B51368  29.349  17.458   6.691
 3970POPC   C3B51369  29.298  17.520   7.113
 3970POPC   C4B51370  29.361  17.293   7.514
 3971POPC   NC351371  20.367   0.562   5.327
 3971POPC   PO451372  20.844   0.146   5.558
 3971POPC   GL151373  20.700   0.539   5.778
 3971POPC   GL251374  20.416   0.795   5.801
 3971POPC   C1A51375  20.770   0.613   6.195
 3971POPC   D2A51376  20.612   0.255   6.403
 3971POPC   C3A51377  20.639   0.274   6.836
 3971POPC   C4A51378  20.541   0.193   7.284
 3971POPC   C1B51379  20.262   0.693   6.217
 3971POPC   C2B51380  20.183   0.465   6.599
 3971POPC   C3B51381  20.305   0.591   7.019
 3971POPC   C4B51382  20.750   0.657   7.200
 3972POPC   NC351383  13.633  26.472   5.233
 3972POPC   PO451384  13.619  27.111   5.494
 3972POPC   GL151385  13.452  26.863   5.868
 3972POPC   GL251386  13.535  26.479   5.845
 3972POPC   C1A51387  13.467  26.876   6.351
 3972POPC   D2A51388  13.478  26.681   6.781
 3972POPC   C3A51389  13.238  26.884   7.145
 3972POPC   C4A51390  13.186  27.093   7.551
 3972POPC   C1B51391  13.681  26.406   6.297
 3972POPC   C2B51392  13.973  26.652   6.558
 3972POPC   C3B51393  13.938  26.955   6.876
 3972POPC   C4B51394  13.744  26.818   7.222
 3973POPC   NC351395  10.868   9.168   5.500
 3973POPC   PO451396  10.270   9.042   5.435
 3973POPC   GL151397  10.533   8.917   5.786
 3973POPC   GL251398  10.450   9.208   5.941
 3973POPC   C1A51399  10.786   8.987   6.214
 3973POPC   D2A51400  10.555   8.909   6.594
 3973POPC   C3A51401  10.609   8.997   7.013
 3973POPC   C4A51402  10.965   9.183   7.204
 3973POPC   C1B51403  10.267   8.799   6.194
 3973POPC   C2B51404  10.159   8.592   6.597
 3973POPC   C3B51405  10.087   8.751   7.000
 3973POPC   C4B51406  10.161   8.876   7.419
 3974POPC   NC351407  28.962  30.168   5.401
 3974POPC   PO451408  29.530  29.746   5.325
 3974POPC   GL151409  29.294  29.729   5.734
 3974POPC   GL251410  29.226  30.085   5.832
 3974POPC   C1A51411  29.280  29.705   6.200
 3974POPC   D2A51412  29.097  29.932   6.551
 3974POPC   C3A51413  29.021  29.734   6.956
 3974POPC   C4A51414  28.881  29.878   7.348
 3974POPC   C1B51415  28.928  30.363   6.058
 3974POPC   C2B51416  28.843  30.467   6.496
 3974POPC   C3B51417  28.829  30.230   6.910
 3974POPC   C4B51418  28.984  30.371   7.306
 3975POPC   NC351419  30.403  27.076   5.423
 3975POPC   PO451420  30.992  26.737   5.384
 3975POPC   GL151421  30.700  26.768   5.742
 3975POPC   GL251422  30.604  27.099   5.893
 3975POPC   C1A51423  30.621  26.636   6.163
 3975POPC   D2A51424  30.414  26.605   6.570
 3975POPC   C3A51425  30.683  26.405   6.908
 3975POPC   C4A51426  30.742  26.546   7.324
 3975POPC   C1B51427  30.396  27.080   6.298
 3975POPC   C2B51428  30.527  27.140   6.727
 3975POPC   C3B51429  30.756  26.972   7.069
 3975POPC   C4B51430  30.841  27.141   7.487
 3976POPC   NC351431  26.430   1.076   5.501
 3976POPC   PO451432  25.785   1.235   5.294
 3976POPC   GL151433  25.955   1.337   5.736
 3976POPC   GL251434  26.065   1.019   5.831
 3976POPC   C1A51435  26.148   1.457   6.170
 3976POPC   D2A51436  26.348   1.385   6.587
 3976POPC   C3A51437  26.071   1.372   6.926
 3976POPC   C4A51438  25.956   1.173   7.362
 3976POPC   C1B51439  26.225   0.966   6.239
 3976POPC   C2B51440  26.110   0.931   6.661
 3976POPC   C3B51441  26.402   0.989   7.010
 3976POPC   C4B51442  26.373   0.864   7.424
 3977POPC   NC351443  38.857  16.356   5.508
 3977POPC   PO451444  38.411  16.810   5.246
 3977POPC   GL151445  38.533  16.928   5.707
 3977POPC   GL251446  38.249  17.130   5.902
 3977POPC   C1A51447  38.596  16.781   6.137
 3977POPC   D2A51448  38.440  16.942   6.532
 3977POPC   C3A51449  38.433  16.668   6.898
 3977POPC   C4A51450  38.741  16.563   7.200
 3977POPC   C1B51451  38.019  17.175   6.332
 3977POPC   C2B51452  38.053  17.106   6.831
 3977POPC   C3B51453  38.193  16.948   7.261
 3977POPC   C4B51454  38.309  17.138   7.674
 3978POPC   NC351455  17.833  21.671   5.596
 3978POPC   PO451456  17.653  21.031   5.482
 3978POPC   GL151457  17.634  21.238   5.879
 3978POPC   GL251458  17.424  21.518   5.848
 3978POPC   C1A51459  17.689  21.117   6.310
 3978POPC   D2A51460  18.001  21.256   6.670
 3978POPC   C3A51461  17.870  21.044   7.050
 3978POPC   C4A51462  17.421  21.104   7.163
 3978POPC   C1B51463  17.421  21.574   6.297
 3978POPC   C2B51464  17.520  21.392   6.693
 3978POPC   C3B51465  17.690  21.532   7.054
 3978POPC   C4B51466  17.326  21.592   7.256
 3979POPC   NC351467   1.895  26.935   5.562
 3979POPC   PO451468   2.470  26.832   5.295
 3979POPC   GL151469   2.357  26.777   5.736
 3979POPC   GL251470   2.369  26.434   5.724
 3979POPC   C1A51471   2.082  26.680   6.133
 3979POPC   D2A51472   1.888  26.604   6.566
 3979POPC   C3A51473   1.980  26.978   6.795
 3979POPC   C4A51474   1.888  27.156   7.166
 3979POPC   C1B51475   2.526  26.443   6.164
 3979POPC   C2B51476   2.390  26.663   6.550
 3979POPC   C3B51477   2.266  26.580   6.980
 3979POPC   C4B51478   1.851  26.616   7.156
 3980POPC   NC351479  42.790   7.772   5.493
 3980POPC   PO451480  43.426   7.623   5.546
 3980POPC   GL151481  43.133   7.544   5.843
 3980POPC   GL251482  42.913   7.265   5.824
 3980POPC   C1A51483  43.177   7.490   6.280
 3980POPC   D2A51484  43.111   7.125   6.546
 3980POPC   C3A51485  43.186   7.273   6.949
 3980POPC   C4A51486  43.160   7.656   7.172
 3980POPC   C1B51487  42.679   7.561   6.138
 3980POPC   C2B51488  42.761   7.700   6.562
 3980POPC   C3B51489  42.709   7.511   6.956
 3980POPC   C4B51490  42.654   7.695   7.359
 3981POPC   NC351491  10.512  39.581   5.524
 3981POPC   PO451492  10.283  38.968   5.579
 3981POPC   GL151493  10.546  39.175   5.864
 3981POPC   GL251494  10.802  38.926   5.844
 3981POPC   C1A51495  10.480  39.344   6.296
 3981POPC   D2A51496  10.230  39.298   6.671
 3981POPC   C3A51497  10.379  39.217   7.080
 3981POPC   C4A51498  10.595  39.439   7.393
 3981POPC   C1B51499  10.947  39.125   6.246
 3981POPC   C2B51500  10.945  39.527   6.488
 3981POPC   C3B51501  10.728  39.500   6.863
 3981POPC   C4B51502  10.917  39.149   7.118
 3982POPC   NC351503   0.120  12.232   5.394
 3982POPC   PO451504   0.727  11.941   5.364
 3982POPC   GL151505   0.517  12.128   5.701
 3982POPC   GL251506   0.747  12.395   5.782
 3982POPC   C1A51507   0.485  12.075   6.155
 3982POPC   D2A51508   0.381  12.359   6.519
 3982POPC   C3A51509   0.496  12.205   6.915
 3982POPC   C4A51510   0.264  12.055   7.259
 3982POPC   C1B51511   0.801  12.465   6.234
 3982POPC   C2B51512   0.927  12.300   6.641
 3982POPC   C3B51513   0.932  12.342   7.111
 3982POPC   C4B51514   0.697  12.219   7.479
 3983POPC   NC351515  18.223  13.714   5.358
 3983POPC   PO451516  18.556  14.191   5.593
 3983POPC   GL151517  18.361  13.866   5.889
 3983POPC   GL251518  18.338  13.497   5.812
 3983POPC   C1A51519  18.401  13.784   6.352
 3983POPC   D2A51520  18.618  13.883   6.745
 3983POPC   C3A51521  18.359  13.758   7.075
 3983POPC   C4A51522  18.088  13.647   7.404
 3983POPC   C1B51523  18.110  13.383   6.201
 3983POPC   C2B51524  18.059  13.521   6.658
 3983POPC   C3B51525  18.077  13.274   7.043
 3983POPC   C4B51526  17.811  13.188   7.414
 3984POPC   NC351527  42.048  30.161   5.579
 3984POPC   PO451528  42.506  29.620   5.402
 3984POPC   GL151529  42.354  29.812   5.803
 3984POPC   GL251530  42.012  29.647   5.802
 3984POPC   C1A51531  42.349  30.043   6.250
 3984POPC   D2A51532  42.401  30.039   6.732
 3984POPC   C3A51533  42.164  30.176   7.111
 3984POPC   C4A51534  42.400  30.296   7.471
 3984POPC   C1B51535  42.235  29.520   6.202
 3984POPC   C2B51536  42.184  29.583   6.640
 3984POPC   C3B51537  42.317  29.659   7.080
 3984POPC   C4B51538  42.226  29.818   7.522
 3985POPC   NC351539   4.738  21.175   5.437
 3985POPC   PO451540   5.277  21.551   5.225
 3985POPC   GL151541   5.062  21.567   5.628
 3985POPC   GL251542   5.235  21.265   5.706
 3985POPC   C1A51543   4.887  21.401   6.059
 3985POPC   D2A51544   5.050  21.178   6.439
 3985POPC   C3A51545   4.992  21.340   6.835
 3985POPC   C4A51546   4.890  21.121   7.148
 3985POPC   C1B51547   5.458  21.240   6.108
 3985POPC   C2B51548   5.483  21.454   6.523
 3985POPC   C3B51549   5.450  21.525   6.960
 3985POPC   C4B51550   5.269  21.391   7.329
 3986POPC   NC351551  19.047   6.988   5.416
 3986POPC   PO451552  18.846   6.470   5.513
 3986POPC   GL151553  18.913   6.731   5.848
 3986POPC   GL251554  18.580   6.846   5.933
 3986POPC   C1A51555  19.216   6.674   6.166
 3986POPC   D2A51556  19.372   6.804   6.559
 3986POPC   C3A51557  19.094   6.855   6.887
 3986POPC   C4A51558  19.140   6.740   7.288
 3986POPC   C1B51559  18.744   6.822   6.358
 3986POPC   C2B51560  18.880   6.477   6.627
 3986POPC   C3B51561  18.878   6.318   7.064
 3986POPC   C4B51562  18.838   6.381   7.526
 3987POPC   NC351563  18.692  16.833   5.414
 3987POPC   PO451564  18.051  16.574   5.450
 3987POPC   GL151565  18.273  16.716   5.809
 3987POPC   GL251566  18.588  16.576   5.887
 3987POPC   C1A51567  18.144  16.867   6.212
 3987POPC   D2A51568  17.983  17.076   6.579
 3987POPC   C3A51569  18.141  16.867   6.921
 3987POPC   C4A51570  17.959  16.846   7.292
 3987POPC   C1B51571  18.689  16.873   6.195
 3987POPC   C2B51572  18.599  16.705   6.591
 3987POPC   C3B51573  18.350  16.409   6.804
 3987POPC   C4B51574  18.336  16.459   7.243
 3988POPC   NC351575  26.618  37.256   5.418
 3988POPC   PO451576  26.452  36.625   5.717
 3988POPC   GL151577  26.733  36.949   5.839
 3988POPC   GL251578  27.036  36.750   5.856
 3988POPC   C1A51579  26.786  37.163   6.244
 3988POPC   D2A51580  26.895  37.011   6.678
 3988POPC   C3A51581  26.674  37.085   7.077
 3988POPC   C4A51582  26.537  36.701   7.270
 3988POPC   C1B51583  26.940  36.657   6.276
 3988POPC   C2B51584  27.049  36.468   6.652
 3988POPC   C3B51585  26.985  36.604   7.041
 3988POPC   C4B51586  27.134  36.964   7.215
 3989POPC   NC351587  41.545  39.456   5.464
 3989POPC   PO451588  42.091  39.143   5.418
 3989POPC   GL151589  41.807  39.154   5.798
 3989POPC   GL251590  41.397  39.130   5.820
 3989POPC   C1A51591  41.765  39.263   6.237
 3989POPC   D2A51592  41.542  39.299   6.620
 3989POPC   C3A51593  41.697  39.053   6.946
 3989POPC   C4A51594  41.495  39.101   7.299
 3989POPC   C1B51595  41.275  39.423   6.170
 3989POPC   C2B51596  41.126  39.616   6.571
 3989POPC   C3B51597  41.212  39.482   7.019
 3989POPC   C4B51598  41.172  39.541   7.489
 3990POPC   NC351599  20.380  30.187   5.656
 3990POPC   PO451600  20.303  29.644   5.378
 3990POPC   GL151601  20.628  29.773   5.785
 3990POPC   GL251602  20.926  29.999   5.780
 3990POPC   C1A51603  20.569  29.951   6.237
 3990POPC   D2A51604  20.433  29.802   6.662
 3990POPC   C3A51605  20.613  29.951   7.004
 3990POPC   C4A51606  20.545  29.847   7.412
 3990POPC   C1B51607  21.062  30.066   6.204
 3990POPC   C2B51608  20.955  29.844   6.582
 3990POPC   C3B51609  21.090  30.051   6.937
 3990POPC   C4B51610  21.030  29.931   7.322
 3991POPC   NC351611  41.944   1.326   5.376
 3991POPC   PO451612  42.540   1.072   5.223
 3991POPC   GL151613  42.388   1.209   5.646
 3991POPC   GL251614  42.161   1.475   5.795
 3991POPC   C1A51615  42.429   1.141   6.102
 3991POPC   D2A51616  42.574   0.952   6.506
 3991POPC   C3A51617  42.437   1.108   6.914
 3991POPC   C4A51618  42.461   1.087   7.382
 3991POPC   C1B51619  41.933   1.309   6.190
 3991POPC   C2B51620  41.810   1.300   6.641
 3991POPC   C3B51621  42.005   1.444   7.021
 3991POPC   C4B51622  42.048   1.382   7.475
 3992POPC   NC351623  23.078  42.739   5.543
 3992POPC   PO451624  22.403  42.377   5.568
 3992POPC   GL151625  22.655  42.123   5.899
 3992POPC   GL251626  23.024  42.118   5.865
 3992POPC   C1A51627  22.799  42.104   6.348
 3992POPC   D2A51628  23.038  42.434   6.618
 3992POPC   C3A51629  22.902  42.474   7.058
 3992POPC   C4A51630  22.525  42.663   7.250
 3992POPC   C1B51631  23.249  41.905   6.237
 3992POPC   C2B51632  23.238  41.961   6.665
 3992POPC   C3B51633  23.183  41.842   7.079
 3992POPC   C4B51634  23.007  42.073   7.411
 3993POPC   NC351635  19.307  10.911   5.506
 3993POPC   PO451636  18.843  11.349   5.566
 3993POPC   GL151637  19.142  11.257   5.888
 3993POPC   GL251638  19.378  11.515   5.732
 3993POPC   C1A51639  18.981  11.122   6.312
 3993POPC   D2A51640  18.846  11.172   6.758
 3993POPC   C3A51641  18.975  10.955   7.168
 3993POPC   C4A51642  18.859  10.971   7.662
 3993POPC   C1B51643  19.430  11.591   6.176
 3993POPC   C2B51644  19.380  11.361   6.585
 3993POPC   C3B51645  19.223  11.415   7.020
 3993POPC   C4B51646  19.466  11.596   7.357
 3994POPC   NC351647  14.947  35.908   5.476
 3994POPC   PO451648  15.326  36.395   5.121
 3994POPC   GL151649  15.277  36.273   5.629
 3994POPC   GL251650  15.463  36.029   5.791
 3994POPC   C1A51651  15.046  36.183   6.072
 3994POPC   D2A51652  14.786  36.245   6.467
 3994POPC   C3A51653  14.940  36.209   6.871
 3994POPC   C4A51654  14.869  36.323   7.286
 3994POPC   C1B51655  15.558  36.190   6.234
 3994POPC   C2B51656  15.417  36.165   6.692
 3994POPC   C3B51657  15.374  36.065   7.163
 3994POPC   C4B51658  15.500  35.762   7.533
 3995POPC   NC351659  42.727  41.705   5.213
 3995POPC   PO451660  43.296  41.380   5.375
 3995POPC   GL151661  43.316  41.380   5.852
 3995POPC   GL251662  43.523  41.671   6.029
 3995POPC   C1A51663  43.208  41.177   6.235
 3995POPC   D2A51664  42.951  41.193   6.605
 3995POPC   C3A51665  43.014  41.568   6.850
 3995POPC   C4A51666  42.963  41.738   7.222
 3995POPC   C1B51667  43.344  41.618   6.468
 3995POPC   C2B51668  43.434  41.276   6.814
 3995POPC   C3B51669  43.485  41.289   7.290
 3995POPC   C4B51670  43.485  41.466   7.762
 3996POPC   NC351671  12.565  39.238   5.074
 3996POPC   PO451672  12.979  39.340   5.586
 3996POPC   GL151673  12.974  39.309   5.983
 3996POPC   GL251674  12.770  39.573   5.992
 3996POPC   C1A51675  12.721  39.155   6.322
 3996POPC   D2A51676  12.777  38.891   6.685
 3996POPC   C3A51677  12.703  39.035   7.100
 3996POPC   C4A51678  12.794  39.157   7.534
 3996POPC   C1B51679  12.939  39.614   6.395
 3996POPC   C2B51680  12.713  39.619   6.748
 3996POPC   C3B51681  12.783  39.546   7.154
 3996POPC   C4B51682  12.469  39.543   7.436
 3997POPC   NC351683  41.925  10.107   5.460
 3997POPC   PO451684  41.542   9.503   5.439
 3997POPC   GL151685  41.658   9.457   5.890
 3997POPC   GL251686  41.847   9.762   5.844
 3997POPC   C1A51687  41.585   9.488   6.364
 3997POPC   D2A51688  41.349   9.879   6.557
 3997POPC   C3A51689  41.221   9.813   6.970
 3997POPC   C4A51690  41.376   9.632   7.349
 3997POPC   C1B51691  41.734   9.948   6.237
 3997POPC   C2B51692  41.885   9.803   6.645
 3997POPC   C3B51693  41.781   9.820   7.081
 3997POPC   C4B51694  41.520  10.132   7.258
 3998POPC   NC351695  19.895   3.104   5.556
 3998POPC   PO451696  19.663   2.483   5.544
 3998POPC   GL151697  19.703   2.724   5.858
 3998POPC   GL251698  20.037   2.693   5.865
 3998POPC   C1A51699  19.547   2.929   6.200
 3998POPC   D2A51700  19.747   3.034   6.580
 3998POPC   C3A51701  19.699   2.868   6.972
 3998POPC   C4A51702  19.836   2.990   7.395
 3998POPC   C1B51703  19.975   2.653   6.297
 3998POPC   C2B51704  20.105   2.663   6.733
 3998POPC   C3B51705  20.118   2.584   7.196
 3998POPC   C4B51706  20.230   2.624   7.655
 3999POPC   NC351707  23.718  21.710   5.635
 3999POPC   PO451708  23.899  21.092   5.662
 3999POPC   GL151709  23.952  21.347   6.019
 3999POPC   GL251710  23.857  21.702   6.141
 3999POPC   C1A51711  24.009  21.270   6.429
 3999POPC   D2A51712  23.757  21.507   6.672
 3999POPC   C3A51713  23.731  21.361   7.081
 3999POPC   C4A51714  23.938  21.571   7.403
 3999POPC   C1B51715  23.467  21.457   6.206
 3999POPC   C2B51716  23.252  21.389   6.568
 3999POPC   C3B51717  23.325  21.637   6.905
 3999POPC   C4B51718  23.504  21.793   7.263
 4000POPC   NC351719  40.819   3.272   5.328
 4000POPC   PO451720  40.408   3.798   5.414
 4000POPC   GL151721  40.540   3.436   5.735
 4000POPC   GL251722  40.883   3.244   5.825
 4000POPC   C1A51723  40.551   3.505   6.194
 4000POPC   D2A51724  40.855   3.410   6.539
 4000POPC   C3A51725  40.828   3.735   6.824
 4000POPC   C4A51726  41.059   3.892   7.162
 4000POPC   C1B51727  40.713   3.038   6.183
 4000POPC   C2B51728  40.435   3.114   6.549
 4000POPC   C3B51729  40.482   3.322   6.950
 4000POPC   C4B51730  40.915   3.345   7.122
 4001POPC   NC351731  37.420  31.263   5.557
 4001POPC   PO451732  37.884  30.738   5.701
 4001POPC   GL151733  37.845  30.482   6.013
 4001POPC   GL251734  37.475  30.450   5.972
 4001POPC   C1A51735  37.989  30.582   6.426
 4001POPC   D2A51736  37.925  30.979   6.670
 4001POPC   C3A51737  37.876  30.842   7.076
 4001POPC   C4A51738  38.025  30.417   7.177
 4001POPC   C1B51739  37.528  30.804   6.275
 4001POPC   C2B51740  37.387  30.909   6.676
 4001POPC   C3B51741  37.459  31.141   7.042
 4001POPC   C4B51742  37.446  30.994   7.497
 4002POPC   NC351743   3.172  41.278   5.545
 4002POPC   PO451744   2.966  40.555   5.458
 4002POPC   GL151745   2.941  40.621   5.860
 4002POPC   GL251746   2.796  40.951   5.913
 4002POPC   C1A51747   2.814  40.508   6.263
 4002POPC   D2A51748   2.525  40.592   6.603
 4002POPC   C3A51749   2.736  40.863   6.905
 4002POPC   C4A51750   2.897  40.739   7.308
 4002POPC   C1B51751   2.810  41.022   6.381
 4002POPC   C2B51752   3.010  41.275   6.712
 4002POPC   C3B51753   3.004  41.281   7.160
 4002POPC   C4B51754   2.614  41.159   7.355
 4003POPC   NC351755   0.648   2.399   5.498
 4003POPC   PO451756   0.323   1.814   5.384
 4003POPC   GL151757   0.430   1.999   5.783
 4003POPC   GL251758   0.231   2.293   5.864
 4003POPC   C1A51759   0.292   1.935   6.229
 4003POPC   D2A51760   0.207   2.094   6.658
 4003POPC   C3A51761   0.369   1.858   6.995
 4003POPC   C4A51762   0.247   1.647   7.342
 4003POPC   C1B51763   0.627   2.352   6.148
 4003POPC   C2B51764   0.757   2.462   6.585
 4003POPC   C3B51765   0.698   2.345   7.050
 4003POPC   C4B51766   0.864   2.422   7.464
 4004POPC   NC351767  31.616  13.508   5.441
 4004POPC   PO451768  31.154  14.016   5.294
 4004POPC   GL151769  31.274  13.788   5.709
 4004POPC   GL251770  31.145  13.421   5.710
 4004POPC   C1A51771  31.520  13.661   6.079
 4004POPC   D2A51772  31.432  13.706   6.511
 4004POPC   C3A51773  31.649  13.792   6.910
 4004POPC   C4A51774  31.641  13.953   7.327
 4004POPC   C1B51775  31.075  13.383   6.166
 4004POPC   C2B51776  31.218  13.249   6.580
 4004POPC   C3B51777  31.129  13.562   6.888
 4004POPC   C4B51778  31.276  13.584   7.275
 4005POPC   NC351779   9.134  16.383   5.374
 4005POPC   PO451780   8.611  16.821   5.453
 4005POPC   GL151781   8.852  16.628   5.799
 4005POPC   GL251782   9.206  16.672   5.819
 4005POPC   C1A51783   8.879  16.667   6.280
 4005POPC   D2A51784   8.894  16.666   6.749
 4005POPC   C3A51785   9.105  16.974   6.982
 4005POPC   C4A51786   9.310  17.275   7.192
 4005POPC   C1B51787   9.387  16.522   6.224
 4005POPC   C2B51788   9.393  16.665   6.668
 4005POPC   C3B51789   9.265  16.479   7.071
 4005POPC   C4B51790   8.921  16.599   7.359
 4006POPC   NC351791  43.466  39.003   5.449
 4006POPC   PO451792  42.961  39.226   5.195
 4006POPC   GL151793  43.019  39.112   5.705
 4006POPC   GL251794  43.332  39.206   5.885
 4006POPC   C1A51795  43.021  39.025   6.221
 4006POPC   D2A51796  43.089  39.237   6.652
 4006POPC   C3A51797  43.143  38.995   7.056
 4006POPC   C4A51798  42.833  38.878   7.391
 4006POPC   C1B51799  43.401  39.428   6.259
 4006POPC   C2B51800  43.554  39.469   6.672
 4006POPC   C3B51801  43.360  39.486   7.069
 4006POPC   C4B51802  43.037  39.421   7.395
 4007POPC   NC351803  31.963  12.603   5.687
 4007POPC   PO451804  32.323  13.033   5.267
 4007POPC   GL151805  32.331  12.992   5.749
 4007POPC   GL251806  32.444  12.653   5.829
 4007POPC   C1A51807  32.131  12.974   6.202
 4007POPC   D2A51808  32.278  13.139   6.608
 4007POPC   C3A51809  32.069  13.060   7.001
 4007POPC   C4A51810  32.019  12.804   7.338
 4007POPC   C1B51811  32.326  12.503   6.239
 4007POPC   C2B51812  32.045  12.587   6.577
 4007POPC   C3B51813  32.235  12.540   6.951
 4007POPC   C4B51814  32.244  12.354   7.326
 4008POPC   NC351815   7.031  11.818   5.448
 4008POPC   PO451816   6.950  12.557   5.394
 4008POPC   GL151817   7.090  12.281   5.766
 4008POPC   GL251818   7.369  12.045   5.767
 4008POPC   C1A51819   7.309  12.323   6.190
 4008POPC   D2A51820   7.605  12.290   6.529
 4008POPC   C3A51821   7.382  12.283   6.929
 4008POPC   C4A51822   7.122  12.044   7.209
 4008POPC   C1B51823   7.548  11.854   6.147
 4008POPC   C2B51824   7.561  11.767   6.557
 4008POPC   C3B51825   7.473  11.740   6.939
 4008POPC   C4B51826   7.608  11.900   7.288
 4009POPC   NC351827  11.375  21.662   5.335
 4009POPC   PO451828  11.693  21.152   5.459
 4009POPC   GL151829  11.363  21.337   5.779
 4009POPC   GL251830  11.201  21.039   5.976
 4009POPC   C1A51831  11.155  21.502   6.172
 4009POPC   D2A51832  11.119  21.344   6.619
 4009POPC   C3A51833  10.966  21.582   6.988
 4009POPC   C4A51834  11.148  21.504   7.405
 4009POPC   C1B51835  11.583  21.143   6.229
 4009POPC   C2B51836  11.687  21.140   6.701
 4009POPC   C3B51837  11.540  21.225   7.150
 4009POPC   C4B51838  11.557  21.260   7.605
 4010POPC   NC351839  39.216  40.419   5.153
 4010POPC   PO451840  39.599  39.962   5.463
 4010POPC   GL151841  39.560  40.189   5.858
 4010POPC   GL251842  39.241  40.091   5.967
 4010POPC   C1A51843  39.592  40.197   6.325
 4010POPC   D2A51844  39.278  39.964   6.581
 4010POPC   C3A51845  39.224  40.102   7.006
 4010POPC   C4A51846  39.484  40.039   7.367
 4010POPC   C1B51847  39.081  39.704   6.173
 4010POPC   C2B51848  38.985  39.488   6.538
 4010POPC   C3B51849  38.941  39.653   6.945
 4010POPC   C4B51850  38.841  39.878   7.311
 4011POPC   NC351851  18.859  43.878   5.232
 4011POPC   PO451852  19.432  43.699   5.270
 4011POPC   GL151853  19.203  43.863   5.665
 4011POPC   GL251854  19.407  44.066   5.865
 4011POPC   C1A51855  18.955  43.925   6.096
 4011POPC   D2A51856  18.812  44.056   6.551
 4011POPC   C3A51857  18.821  43.784   6.991
 4011POPC   C4A51858  18.519  43.806   7.362
 4011POPC   C1B51859  19.422  43.687   6.138
 4011POPC   C2B51860  19.182  43.710   6.527
 4011POPC   C3B51861  19.299  43.943   6.895
 4011POPC   C4B51862  19.246  43.774   7.305
 4012POPC   NC351863  13.972  43.077   5.594
 4012POPC   PO451864  13.370  42.795   5.523
 4012POPC   GL151865  13.558  42.931   5.878
 4012POPC   GL251866  13.452  43.265   5.802
 4012POPC   C1A51867  13.760  43.123   6.247
 4012POPC   D2A51868  13.954  43.252   6.666
 4012POPC   C3A51869  13.748  43.060   7.008
 4012POPC   C4A51870  13.710  43.222   7.395
 4012POPC   C1B51871  13.329  43.406   6.199
 4012POPC   C2B51872  13.453  43.362   6.623
 4012POPC   C3B51873  13.269  43.290   7.020
 4012POPC   C4B51874  13.055  43.285   7.375
 4013POPC   NC351875  27.089  44.301   5.642
 4013POPC   PO451876  26.543  44.702   5.696
 4013POPC   GL151877  26.914  44.676   5.925
 4013POPC   GL251878  27.190  44.798   5.694
 4013POPC   C1A51879  27.000  44.661   6.373
 4013POPC   D2A51880  26.694  44.754   6.729
 4013POPC   C3A51881  26.779  44.526   7.112
 4013POPC   C4A51882  26.760  44.642   7.547
 4013POPC   C1B51883  27.195   0.076   6.056
 4013POPC   C2B51884  27.292   0.088   6.502
 4013POPC   C3B51885  27.016   0.139   6.854
 4013POPC   C4B51886  27.034  44.951   7.245
 4014POPC   NC351887  19.639   5.478   5.364
 4014POPC   PO451888  19.860   6.185   5.441
 4014POPC   GL151889  19.889   6.038   5.863
 4014POPC   GL251890  19.706   5.735   5.805
 4014POPC   C1A51891  19.933   5.829   6.269
 4014POPC   D2A51892  19.819   5.596   6.645
 4014POPC   C3A51893  19.891   5.783   7.075
 4014POPC   C4A51894  20.058   5.642   7.476
 4014POPC   C1B51895  19.397   5.902   6.082
 4014POPC   C2B51896  19.284   5.742   6.478
 4014POPC   C3B51897  19.453   5.909   6.834
 4014POPC   C4B51898  19.377   5.822   7.235
 4015POPC   NC351899  44.492  29.260   5.459
 4015POPC   PO451900  44.879  28.775   5.644
 4015POPC   GL151901  44.656  29.016   5.889
 4015POPC   GL251902  44.888  29.295   5.799
 4015POPC   C1A51903  44.689  29.043   6.305
 4015POPC   D2A51904  44.762  28.894   6.692
 4015POPC   C3A51905  44.605  29.176   7.002
 4015POPC   C4A51906  44.405  29.044   7.371
 4015POPC   C1B51907  44.821  29.519   6.159
 4015POPC   C2B51908  44.699  29.479   6.568
 4015POPC   C3B51909  44.827  29.634   6.925
 4015POPC   C4B51910  44.902  29.470   7.277
 4016POPC   NC351911  25.232   8.699   5.427
 4016POPC   PO451912  25.653   9.166   5.314
 4016POPC   GL151913  25.340   9.154   5.697
 4016POPC   GL251914  24.954   9.133   5.805
 4016POPC   C1A51915  25.296   8.969   6.141
 4016POPC   D2A51916  25.222   9.167   6.534
 4016POPC   C3A51917  25.415   8.984   6.895
 4016POPC   C4A51918  25.357   8.800   7.293
 4016POPC   C1B51919  24.787   9.012   6.256
 4016POPC   C2B51920  24.743   9.106   6.722
 4016POPC   C3B51921  24.953   9.007   7.101
 4016POPC   C4B51922  25.306   9.306   7.335
 4017POPC   NC351923  35.409  25.649   5.176
 4017POPC   PO451924  35.279  26.332   5.403
 4017POPC   GL151925  35.207  26.050   5.811
 4017POPC   GL251926  35.449  26.237   5.971
 4017POPC   C1A51927  35.426  25.785   6.167
 4017POPC   D2A51928  35.613  25.884   6.589
 4017POPC   C3A51929  35.474  25.699   6.999
 4017POPC   C4A51930  35.728  25.617   7.369
 4017POPC   C1B51931  35.105  26.147   6.307
 4017POPC   C2B51932  35.092  25.949   6.721
 4017POPC   C3B51933  35.208  26.136   7.112
 4017POPC   C4B51934  35.576  26.114   7.365
 4018POPC   NC351935   6.451  21.527   5.455
 4018POPC   PO451936   6.824  20.947   5.514
 4018POPC   GL151937   6.595  21.174   5.836
 4018POPC   GL251938   6.726  21.539   5.874
 4018POPC   C1A51939   6.735  21.220   6.272
 4018POPC   D2A51940   7.075  21.164   6.532
 4018POPC   C3A51941   6.889  21.304   6.908
 4018POPC   C4A51942   6.557  21.185   7.167
 4018POPC   C1B51943   6.593  21.729   6.253
 4018POPC   C2B51944   6.474  21.597   6.689
 4018POPC   C3B51945   6.436  21.706   7.149
 4018POPC   C4B51946   6.230  21.767   7.567
 4019POPC   NC351947  11.159  10.831   5.064
 4019POPC   PO451948  11.176  10.314   5.511
 4019POPC   GL151949  11.211  10.522   5.877
 4019POPC   GL251950  11.433  10.776   5.811
 4019POPC   C1A51951  11.388  10.387   6.255
 4019POPC   D2A51952  11.265  10.206   6.635
 4019POPC   C3A51953  11.490  10.338   6.963
 4019POPC   C4A51954  11.302  10.337   7.330
 4019POPC   C1B51955  11.519  10.911   6.214
 4019POPC   C2B51956  11.407  10.742   6.634
 4019POPC   C3B51957  11.238  10.785   7.046
 4019POPC   C4B51958  10.987  11.010   7.296
 4020POPC   NC351959  35.636  21.135   5.392
 4020POPC   PO451960  35.048  21.531   5.429
 4020POPC   GL151961  35.224  21.263   5.804
 4020POPC   GL251962  35.607  21.284   5.885
 4020POPC   C1A51963  35.281  21.275   6.290
 4020POPC   D2A51964  35.474  21.458   6.689
 4020POPC   C3A51965  35.204  21.379   7.059
 4020POPC   C4A51966  35.228  21.446   7.522
 4020POPC   C1B51967  35.794  21.093   6.279
 4020POPC   C2B51968  35.649  20.961   6.689
 4020POPC   C3B51969  35.596  21.055   7.129
 4020POPC   C4B51970  35.671  21.149   7.577
 4021POPC   NC351971  42.581  26.078   5.150
 4021POPC   PO451972  43.149  26.111   5.544
 4021POPC   GL151973  43.084  26.052   5.947
 4021POPC   GL251974  42.963  25.760   5.882
 4021POPC   C1A51975  43.109  26.031   6.380
 4021POPC   D2A51976  43.354  26.224   6.681
 4021POPC   C3A51977  43.257  26.104   7.095
 4021POPC   C4A51978  43.437  25.971   7.491
 4021POPC   C1B51979  42.842  25.554   6.226
 4021POPC   C2B51980  42.608  25.676   6.554
 4021POPC   C3B51981  42.694  25.702   6.972
 4021POPC   C4B51982  42.907  25.763   7.344
 4022POPC   NC351983   8.241  37.502   5.189
 4022POPC   PO451984   7.582  37.489   5.408
 4022POPC   GL151985   7.911  37.551   5.769
 4022POPC   GL251986   8.144  37.865   5.850
 4022POPC   C1A51987   8.101  37.518   6.219
 4022POPC   D2A51988   8.433  37.454   6.551
 4022POPC   C3A51989   8.238  37.539   6.958
 4022POPC   C4A51990   8.013  37.897   7.151
 4022POPC   C1B51991   8.402  37.972   6.248
 4022POPC   C2B51992   8.343  38.039   6.720
 4022POPC   C3B51993   8.531  37.933   7.142
 4022POPC   C4B51994   8.585  37.992   7.601
 4023POPC   NC351995  23.304   5.343   5.156
 4023POPC   PO451996  22.799   4.985   5.392
 4023POPC   GL151997  22.926   5.033   5.814
 4023POPC   GL251998  23.091   5.361   5.863
 4023POPC   C1A51999  22.745   5.099   6.225
 4023POPC   D2A52000  22.684   5.278   6.656
 4023POPC   C3A52001  22.727   5.106   7.091
 4023POPC   C4A52002  22.562   5.359   7.490
 4023POPC   C1B52003  23.236   5.204   6.283
 4023POPC   C2B52004  23.194   5.164   6.748
 4023POPC   C3B52005  23.271   4.971   7.147
 4023POPC   C4B52006  23.401   4.788   7.581
 4024POPC   NC352007   8.679  13.850   5.477
 4024POPC   PO452008   9.211  13.493   5.397
 4024POPC   GL152009   9.104  13.461   5.823
 4024POPC   GL252010   8.768  13.470   5.915
 4024POPC   C1A52011   9.245  13.506   6.239
 4024POPC   D2A52012   9.181  13.318   6.626
 4024POPC   C3A52013   9.158  13.655   6.906
 4024POPC   C4A52014   9.226  13.904   7.250
 4024POPC   C1B52015   8.744  13.509   6.385
 4024POPC   C2B52016   8.708  13.439   6.826
 4024POPC   C3B52017   8.626  13.646   7.231
 4024POPC   C4B52018   8.615  13.399   7.655
 4025POPC   NC352019   0.617  19.160   5.503
 4025POPC   PO452020  44.972  18.913   5.524
 4025POPC   GL152021   0.229  19.053   5.896
 4025POPC   GL252022   0.585  18.927   5.949
 4025POPC   C1A52023   0.342  19.080   6.365
 4025POPC   D2A52024   0.477  18.949   6.785
 4025POPC   C3A52025   0.302  19.163   7.163
 4025POPC   C4A52026   0.120  19.060   7.567
 4025POPC   C1B52027   0.856  19.070   6.309
 4025POPC   C2B52028   0.982  18.970   6.756
 4025POPC   C3B52029   0.821  19.131   7.168
 4025POPC   C4B52030   0.609  19.039   7.584
 4026POPC   NC352031  32.582  31.624   5.393
 4026POPC   PO452032  31.962  31.589   5.704
 4026POPC   GL152033  32.200  31.322   5.961
 4026POPC   GL252034  32.539  31.424   5.878
 4026POPC   C1A52035  32.245  31.374   6.436
 4026POPC   D2A52036  32.488  31.582   6.801
 4026POPC   C3A52037  32.392  31.418   7.215
 4026POPC   C4A52038  31.996  31.498   7.301
 4026POPC   C1B52039  32.374  31.773   6.150
 4026POPC   C2B52040  32.508  32.016   6.464
 4026POPC   C3B52041  32.364  32.096   6.859
 4026POPC   C4B52042  32.380  31.913   7.256
 4027POPC   NC352043   6.138  34.279   5.242
 4027POPC   PO452044   5.983  33.526   5.348
 4027POPC   GL152045   5.935  33.779   5.709
 4027POPC   GL252046   5.596  33.770   5.695
 4027POPC   C1A52047   5.829  33.957   6.133
 4027POPC   D2A52048   5.586  34.090   6.485
 4027POPC   C3A52049   5.626  33.927   6.897
 4027POPC   C4A52050   5.953  33.829   7.219
 4027POPC   C1B52051   5.664  33.478   6.053
 4027POPC   C2B52052   5.693  33.559   6.501
 4027POPC   C3B52053   5.805  33.449   6.930
 4027POPC   C4B52054   5.758  33.373   7.397
 4028POPC   NC352055   5.728  19.639   5.205
 4028POPC   PO452056   5.766  18.980   5.391
 4028POPC   GL152057   5.848  19.032   5.809
 4028POPC   GL252058   5.911  18.684   5.828
 4028POPC   C1A52059   5.860  19.249   6.204
 4028POPC   D2A52060   6.148  19.237   6.537
 4028POPC   C3A52061   5.949  19.339   6.892
 4028POPC   C4A52062   5.842  19.169   7.259
 4028POPC   C1B52063   5.758  18.729   6.266
 4028POPC   C2B52064   5.826  18.833   6.717
 4028POPC   C3B52065   5.852  18.670   7.146
 4028POPC   C4B52066   5.978  18.813   7.594
 4029POPC   NC352067   1.735  27.984   5.622
 4029POPC   PO452068   1.664  27.320   5.632
 4029POPC   GL152069   1.860  27.596   5.917
 4029POPC   GL252070   2.185  27.742   5.823
 4029POPC   C1A52071   1.933  27.873   6.246
 4029POPC   D2A52072   2.118  27.684   6.568
 4029POPC   C3A52073   2.135  27.858   6.922
 4029POPC   C4A52074   1.908  27.657   7.206
 4029POPC   C1B52075   2.324  27.443   6.136
 4029POPC   C2B52076   2.504  27.352   6.556
 4029POPC   C3B52077   2.324  27.396   6.981
 4029POPC   C4B52078   2.295  27.342   7.422
 4030POPC   NC352079  25.102  41.077   5.448
 4030POPC   PO452080  24.956  40.316   5.438
 4030POPC   GL152081  25.017  40.641   5.738
 4030POPC   GL252082  25.389  40.701   5.716
 4030POPC   C1A52083  24.998  40.905   6.122
 4030POPC   D2A52084  25.210  40.887   6.514
 4030POPC   C3A52085  25.010  40.976   6.881
 4030POPC   C4A52086  25.134  40.842   7.266
 4030POPC   C1B52087  25.514  40.941   6.109
 4030POPC   C2B52088  25.676  41.060   6.593
 4030POPC   C3B52089  25.467  41.178   7.019
 4030POPC   C4B52090  25.401  41.219   7.499
 4031POPC   NC352091  22.774   4.529   5.439
 4031POPC   PO452092  22.766   3.842   5.440
 4031POPC   GL152093  22.824   4.025   5.839
 4031POPC   GL252094  22.607   4.316   5.871
 4031POPC   C1A52095  22.849   4.130   6.288
 4031POPC   D2A52096  23.176   4.215   6.605
 4031POPC   C3A52097  23.106   4.020   7.011
 4031POPC   C4A52098  22.809   4.089   7.324
 4031POPC   C1B52099  22.936   4.596   6.081
 4031POPC   C2B52100  23.038   4.725   6.493
 4031POPC   C3B52101  22.867   4.550   6.868
 4031POPC   C4B52102  22.919   4.619   7.262
 4032POPC   NC352103  11.623   4.158   5.423
 4032POPC   PO452104  10.945   4.264   5.480
 4032POPC   GL152105  11.084   4.255   5.883
 4032POPC   GL252106  11.364   4.441   5.857
 4032POPC   C1A52107  11.185   4.182   6.315
 4032POPC   D2A52108  11.269   3.897   6.653
 4032POPC   C3A52109  11.241   4.115   7.041
 4032POPC   C4A52110  11.367   4.365   7.395
 4032POPC   C1B52111  11.190   4.686   6.225
 4032POPC   C2B52112  11.225   4.609   6.685
 4032POPC   C3B52113  11.590   4.511   6.965
 4032POPC   C4B52114  11.869   4.444   7.330
 4033POPC   NC352115  25.842   5.870   5.308
 4033POPC   PO452116  26.324   6.075   5.701
 4033POPC   GL152117  26.087   5.795   5.916
 4033POPC   GL252118  25.799   5.601   5.748
 4033POPC   C1A52119  26.046   5.856   6.382
 4033POPC   D2A52120  26.281   5.650   6.700
 4033POPC   C3A52121  26.320   5.872   7.088
 4033POPC   C4A52122  26.175   5.971   7.472
 4033POPC   C1B52123  25.613   5.850   6.088
 4033POPC   C2B52124  25.557   5.766   6.533
 4033POPC   C3B52125  25.804   5.785   6.905
 4033POPC   C4B52126  25.774   5.711   7.335
 4034POPC   NC352127   7.726   9.526   5.264
 4034POPC   PO452128   7.159   9.988   5.416
 4034POPC   GL152129   7.434   9.787   5.733
 4034POPC   GL252130   7.491   9.422   5.743
 4034POPC   C1A52131   7.472   9.767   6.182
 4034POPC   D2A52132   7.240   9.898   6.552
 4034POPC   C3A52133   7.417   9.771   6.909
 4034POPC   C4A52134   7.241   9.851   7.277
 4034POPC   C1B52135   7.643   9.294   6.175
 4034POPC   C2B52136   7.776   9.515   6.551
 4034POPC   C3B52137   7.761   9.354   6.938
 4034POPC   C4B52138   7.621   9.516   7.296
 4035POPC   NC352139  17.217  20.903   5.416
 4035POPC   PO452140  17.661  20.330   5.456
 4035POPC   GL152141  17.698  20.625   5.840
 4035POPC   GL252142  17.356  20.799   5.901
 4035POPC   C1A52143  17.585  20.613   6.315
 4035POPC   D2A52144  17.490  20.829   6.723
 4035POPC   C3A52145  17.592  20.601   7.112
 4035POPC   C4A52146  17.848  20.433   7.442
 4035POPC   C1B52147  17.020  20.674   6.228
 4035POPC   C2B52148  16.882  20.374   6.576
 4035POPC   C3B52149  17.075  20.341   6.981
 4035POPC   C4B52150  17.104  20.712   7.214
 4036POPC   NC352151  33.598  40.913   5.626
 4036POPC   PO452152  32.943  40.805   5.456
 4036POPC   GL152153  32.810  40.673   5.847
 4036POPC   GL252154  33.160  40.729   5.955
 4036POPC   C1A52155  32.754  40.790   6.259
 4036POPC   D2A52156  32.800  41.023   6.596
 4036POPC   C3A52157  32.830  40.883   7.004
 4036POPC   C4A52158  32.854  40.755   7.440
 4036POPC   C1B52159  33.274  41.029   6.335
 4036POPC   C2B52160  33.256  41.109   6.808
 4036POPC   C3B52161  33.302  40.839   7.179
 4036POPC   C4B52162  33.350  40.918   7.641
 4037POPC   NC352163  33.033  40.355   5.515
 4037POPC   PO452164  32.877  39.706   5.548
 4037POPC   GL152165  32.980  39.942   5.886
 4037POPC   GL252166  33.225  40.213   5.943
 4037POPC   C1A52167  33.075  39.767   6.278
 4037POPC   D2A52168  32.910  39.677   6.677
 4037POPC   C3A52169  32.984  39.928   6.991
 4037POPC   C4A52170  33.184  39.865   7.349
 4037POPC   C1B52171  32.942  40.311   6.254
 4037POPC   C2B52172  32.904  40.492   6.646
 4037POPC   C3B52173  33.033  40.428   7.037
 4037POPC   C4B52174  32.852  40.255   7.376
 4038POPC   NC352175   6.736   9.617   5.369
 4038POPC   PO452176   6.348  10.162   5.462
 4038POPC   GL152177   6.670   9.949   5.761
 4038POPC   GL252178   6.662   9.577   5.856
 4038POPC   C1A52179   6.955   9.858   6.137
 4038POPC   D2A52180   6.820   9.589   6.520
 4038POPC   C3A52181   6.894   9.678   6.954
 4038POPC   C4A52182   6.762   9.917   7.392
 4038POPC   C1B52183   6.447   9.785   6.216
 4038POPC   C2B52184   6.268   9.608   6.624
 4038POPC   C3B52185   6.400   9.720   7.054
 4038POPC   C4B52186   6.491   9.488   7.433
 4039POPC   NC352187  34.333  38.985   5.559
 4039POPC   PO452188  34.604  39.545   5.373
 4039POPC   GL152189  34.616  39.376   5.796
 4039POPC   GL252190  34.770  39.695   5.909
 4039POPC   C1A52191  34.554  39.067   6.200
 4039POPC   D2A52192  34.444  38.900   6.632
 4039POPC   C3A52193  34.331  39.175   6.995
 4039POPC   C4A52194  34.326  38.994   7.416
 4039POPC   C1B52195  34.524  39.574   6.261
 4039POPC   C2B52196  34.653  39.405   6.646
 4039POPC   C3B52197  34.836  39.485   7.046
 4039POPC   C4B52198  34.558  39.463   7.413
 4040POPC   NC352199  44.804  36.506   5.338
 4040POPC   PO452200  44.485  35.911   5.402
 4040POPC   GL152201  44.649  36.140   5.755
 4040POPC   GL252202  44.889  35.885   5.811
 4040POPC   C1A52203  44.598  36.183   6.221
 4040POPC   D2A52204  44.415  35.966   6.601
 4040POPC   C3A52205  44.547  36.247   6.891
 4040POPC   C4A52206  44.683  36.400   7.285
 4040POPC   C1B52207   0.061  35.969   6.158
 4040POPC   C2B52208  44.926  35.979   6.582
 4040POPC   C3B52209  44.894  35.917   7.007
 4040POPC   C4B52210   0.177  36.004   7.248
 4041POPC   NC352211  25.189  12.137   5.369
 4041POPC   PO452212  25.838  11.940   5.213
 4041POPC   GL152213  25.613  11.886   5.633
 4041POPC   GL252214  25.549  12.231   5.763
 4041POPC   C1A52215  25.499  11.866   6.118
 4041POPC   D2A52216  25.335  11.752   6.548
 4041POPC   C3A52217  25.421  11.905   6.998
 4041POPC   C4A52218  25.106  11.959   7.300
 4041POPC   C1B52219  25.375  12.368   6.185
 4041POPC   C2B52220  25.453  12.239   6.616
 4041POPC   C3B52221  25.187  12.368   6.991
 4041POPC   C4B52222  25.242  12.447   7.432
 4042POPC   NC352223  24.701  20.020   5.142
 4042POPC   PO452224  24.769  20.615   5.535
 4042POPC   GL152225  24.464  20.498   5.833
 4042POPC   GL252226  24.723  20.385   6.063
 4042POPC   C1A52227  24.283  20.608   6.220
 4042POPC   D2A52228  24.306  20.849   6.597
 4042POPC   C3A52229  24.328  20.593   6.961
 4042POPC   C4A52230  24.412  20.653   7.392
 4042POPC   C1B52231  24.780  20.692   6.366
 4042POPC   C2B52232  24.813  20.657   6.809
 4042POPC   C3B52233  24.800  20.416   7.180
 4042POPC   C4B52234  24.873  20.595   7.665
 4043POPC   NC352235  30.283   4.320   5.472
 4043POPC   PO452236  29.549   4.044   5.419
 4043POPC   GL152237  29.801   4.087   5.766
 4043POPC   GL252238  29.929   4.359   5.807
 4043POPC   C1A52239  29.822   4.183   6.247
 4043POPC   D2A52240  29.683   4.147   6.658
 4043POPC   C3A52241  29.733   4.467   6.950
 4043POPC   C4A52242  29.739   4.461   7.410
 4043POPC   C1B52243  30.117   4.597   6.093
 4043POPC   C2B52244  29.977   4.640   6.488
 4043POPC   C3B52245  30.176   4.684   6.839
 4043POPC   C4B52246  30.187   4.407   7.180
 4044POPC   NC352247   4.533  22.626   5.667
 4044POPC   PO452248   4.134  23.167   5.449
 4044POPC   GL152249   4.210  22.988   5.837
 4044POPC   GL252250   4.491  23.079   5.917
 4044POPC   C1A52251   4.121  23.091   6.272
 4044POPC   D2A52252   4.119  22.901   6.669
 4044POPC   C3A52253   4.447  22.893   6.959
 4044POPC   C4A52254   4.155  23.015   7.262
 4044POPC   C1B52255   4.540  23.393   6.183
 4044POPC   C2B52256   4.551  23.247   6.574
 4044POPC   C3B52257   4.503  23.401   6.959
 4044POPC   C4B52258   4.568  23.269   7.361
 4045POPC   NC352259  13.335  36.775   5.556
 4045POPC   PO452260  12.734  36.884   5.416
 4045POPC   GL152261  12.940  36.980   5.820
 4045POPC   GL252262  12.913  36.672   5.878
 4045POPC   C1A52263  13.025  37.184   6.191
 4045POPC   D2A52264  12.915  37.028   6.595
 4045POPC   C3A52265  12.954  37.276   6.966
 4045POPC   C4A52266  13.163  37.164   7.362
 4045POPC   C1B52267  13.162  36.707   6.237
 4045POPC   C2B52268  13.320  36.693   6.613
 4045POPC   C3B52269  13.290  36.873   6.971
 4045POPC   C4B52270  12.958  36.731   7.220
 4046POPC   NC352271  44.024  39.453   5.349
 4046POPC   PO452272  43.719  40.158   5.289
 4046POPC   GL152273  43.761  39.923   5.670
 4046POPC   GL252274  44.058  39.800   5.750
 4046POPC   C1A52275  43.627  39.871   6.116
 4046POPC   D2A52276  43.742  39.951   6.535
 4046POPC   C3A52277  43.537  39.951   6.911
 4046POPC   C4A52278  43.742  40.190   7.221
 4046POPC   C1B52279  44.119  40.014   6.171
 4046POPC   C2B52280  44.212  40.121   6.624
 4046POPC   C3B52281  44.226  40.029   7.089
 4046POPC   C4B52282  44.305  39.877   7.520
 4047POPC   NC352283  12.289  19.878   5.608
 4047POPC   PO452284  11.666  19.528   5.547
 4047POPC   GL152285  11.811  19.913   5.850
 4047POPC   GL252286  12.103  19.879   6.073
 4047POPC   C1A52287  11.742  20.175   6.270
 4047POPC   D2A52288  12.037  20.087   6.590
 4047POPC   C3A52289  12.011  19.753   6.883
 4047POPC   C4A52290  12.114  19.775   7.297
 4047POPC   C1B52291  12.172  19.597   6.406
 4047POPC   C2B52292  12.372  19.403   6.762
 4047POPC   C3B52293  12.542  19.557   7.146
 4047POPC   C4B52294  12.513  19.637   7.622
 4048POPC   NC352295   6.875   8.645   5.581
 4048POPC   PO452296   6.714   9.163   5.397
 4048POPC   GL152297   6.563   9.014   5.818
 4048POPC   GL252298   6.304   9.237   5.888
 4048POPC   C1A52299   6.720   8.849   6.194
 4048POPC   D2A52300   6.906   9.085   6.513
 4048POPC   C3A52301   6.829   9.038   6.958
 4048POPC   C4A52302   6.578   8.754   7.195
 4048POPC   C1B52303   6.492   9.286   6.262
 4048POPC   C2B52304   6.421   9.073   6.624
 4048POPC   C3B52305   6.358   9.211   7.014
 4048POPC   C4B52306   6.198   9.069   7.388
 4049POPC   NC352307  24.063  35.341   5.124
 4049POPC   PO452308  24.756  35.301   5.337
 4049POPC   GL152309  24.639  35.317   5.779
 4049POPC   GL252310  24.555  35.648   5.854
 4049POPC   C1A52311  24.415  35.259   6.152
 4049POPC   D2A52312  24.522  35.192   6.551
 4049POPC   C3A52313  24.249  35.315   6.830
 4049POPC   C4A52314  24.350  35.290   7.255
 4049POPC   C1B52315  24.762  35.607   6.254
 4049POPC   C2B52316  24.606  35.684   6.650
 4049POPC   C3B52317  24.758  35.436   6.981
 4049POPC   C4B52318  25.004  35.541   7.326
 4050POPC   NC352319  27.718   9.093   5.300
 4050POPC   PO452320  27.228   8.654   5.510
 4050POPC   GL152321  27.472   8.894   5.783
 4050POPC   GL252322  27.577   9.234   5.791
 4050POPC   C1A52323  27.742   8.858   6.141
 4050POPC   D2A52324  27.998   9.009   6.489
 4050POPC   C3A52325  28.039   8.705   6.797
 4050POPC   C4A52326  27.950   8.866   7.184
 4050POPC   C1B52327  27.321   9.151   6.170
 4050POPC   C2B52328  27.491   9.022   6.594
 4050POPC   C3B52329  27.458   8.934   7.041
 4050POPC   C4B52330  27.568   9.044   7.478
 4051POPC   NC352331  21.665  42.268   5.272
 4051POPC   PO452332  21.381  42.743   5.497
 4051POPC   GL152333  21.407  42.346   5.734
 4051POPC   GL252334  21.138  42.140   5.838
 4051POPC   C1A52335  21.605  42.190   6.117
 4051POPC   D2A52336  21.438  42.051   6.518
 4051POPC   C3A52337  21.591  42.338   6.838
 4051POPC   C4A52338  21.600  42.344   7.267
 4051POPC   C1B52339  21.156  42.452   6.195
 4051POPC   C2B52340  21.104  42.404   6.638
 4051POPC   C3B52341  21.157  42.624   6.995
 4051POPC   C4B52342  20.960  42.649   7.361
 4052POPC   NC352343  34.725   2.420   5.413
 4052POPC   PO452344  34.510   1.876   5.371
 4052POPC   GL152345  34.489   2.087   5.741
 4052POPC   GL252346  34.829   2.155   5.841
 4052POPC   C1A52347  34.397   2.119   6.176
 4052POPC   D2A52348  34.686   1.932   6.464
 4052POPC   C3A52349  34.457   1.762   6.799
 4052POPC   C4A52350  34.450   1.829   7.241
 4052POPC   C1B52351  34.805   2.411   6.235
 4052POPC   C2B52352  34.558   2.403   6.619
 4052POPC   C3B52353  34.715   2.179   6.954
 4052POPC   C4B52354  35.091   2.286   7.145
 4053POPC   NC352355  33.498  16.790   5.565
 4053POPC   PO452356  33.925  16.348   5.251
 4053POPC   GL152357  33.895  16.407   5.702
 4053POPC   GL252358  33.961  16.756   5.817
 4053POPC   C1A52359  33.719  16.384   6.137
 4053POPC   D2A52360  33.658  16.496   6.575
 4053POPC   C3A52361  33.906  16.728   6.915
 4053POPC   C4A52362  34.304  16.576   7.140
 4053POPC   C1B52363  33.727  16.934   6.182
 4053POPC   C2B52364  33.812  17.115   6.574
 4053POPC   C3B52365  33.574  17.266   6.920
 4053POPC   C4B52366  33.473  17.038   7.239
 4054POPC   NC352367  21.795  14.950   5.610
 4054POPC   PO452368  22.445  14.869   5.438
 4054POPC   GL152369  22.372  15.133   5.821
 4054POPC   GL252370  22.076  15.379   5.713
 4054POPC   C1A52371  22.444  15.044   6.308
 4054POPC   D2A52372  22.626  15.130   6.753
 4054POPC   C3A52373  22.359  15.140   7.111
 4054POPC   C4A52374  21.953  14.999   7.003
 4054POPC   C1B52375  22.110  15.442   6.156
 4054POPC   C2B52376  22.273  15.471   6.570
 4054POPC   C3B52377  22.041  15.514   6.926
 4054POPC   C4B52378  21.908  15.448   7.305
 4055POPC   NC352379   8.069  43.620   5.259
 4055POPC   PO452380   8.431  44.117   5.498
 4055POPC   GL152381   8.161  43.873   5.804
 4055POPC   GL252382   8.001  43.561   5.781
 4055POPC   C1A52383   8.019  43.932   6.250
 4055POPC   D2A52384   8.124  44.269   6.530
 4055POPC   C3A52385   8.184  44.271   6.969
 4055POPC   C4A52386   8.087  44.037   7.337
 4055POPC   C1B52387   8.325  43.537   6.140
 4055POPC   C2B52388   8.472  43.721   6.529
 4055POPC   C3B52389   8.285  43.773   6.915
 4055POPC   C4B52390   8.266  43.545   7.277
 4056POPC   NC352391  13.310  29.997   5.593
 4056POPC   PO452392  12.873  29.621   5.093
 4056POPC   GL152393  12.797  29.650   5.610
 4056POPC   GL252394  13.057  29.517   5.831
 4056POPC   C1A52395  12.730  29.763   6.113
 4056POPC   D2A52396  13.038  29.859   6.472
 4056POPC   C3A52397  12.951  29.896   6.917
 4056POPC   C4A52398  12.914  30.221   7.255
 4056POPC   C1B52399  13.358  29.587   6.170
 4056POPC   C2B52400  13.304  29.411   6.600
 4056POPC   C3B52401  13.358  29.580   7.001
 4056POPC   C4B52402  13.206  29.798   7.330
 4057POPC   NC352403  43.236  24.464   5.451
 4057POPC   PO452404  42.788  24.913   5.688
 4057POPC   GL152405  43.066  24.679   5.890
 4057POPC   GL252406  42.928  24.332   5.879
 4057POPC   C1A52407  43.147  24.560   6.302
 4057POPC   D2A52408  42.897  24.453   6.654
 4057POPC   C3A52409  43.011  24.669   7.042
 4057POPC   C4A52410  42.842  24.746   7.454
 4057POPC   C1B52411  43.090  24.063   6.240
 4057POPC   C2B52412  43.316  24.047   6.581
 4057POPC   C3B52413  43.093  24.067   6.936
 4057POPC   C4B52414  43.219  24.257   7.271
 4058POPC   NC352415  43.422  18.386   5.375
 4058POPC   PO452416  44.130  18.486   5.195
 4058POPC   GL152417  43.922  18.495   5.661
 4058POPC   GL252418  44.230  18.441   5.858
 4058POPC   C1A52419  43.841  18.213   6.088
 4058POPC   D2A52420  43.557  18.159   6.453
 4058POPC   C3A52421  43.743  18.182   6.858
 4058POPC   C4A52422  43.794  18.253   7.270
 4058POPC   C1B52423  44.313  18.375   6.319
 4058POPC   C2B52424  44.261  18.338   6.805
 4058POPC   C3B52425  44.276  18.468   7.249
 4058POPC   C4B52426  44.081  18.410   7.663
 4059POPC   NC352427   6.951  30.556   5.422
 4059POPC   PO452428   6.478  31.064   5.383
 4059POPC   GL152429   6.576  30.734   5.744
 4059POPC   GL252430   6.286  30.501   5.827
 4059POPC   C1A52431   6.881  30.579   6.110
 4059POPC   D2A52432   7.070  30.747   6.527
 4059POPC   C3A52433   6.955  30.552   6.938
 4059POPC   C4A52434   6.661  30.554   7.287
 4059POPC   C1B52435   6.392  30.640   6.219
 4059POPC   C2B52436   6.582  30.507   6.579
 4059POPC   C3B52437   6.295  30.535   6.934
 4059POPC   C4B52438   6.129  30.873   7.152
 4060POPC   NC352439   2.384  34.021   5.332
 4060POPC   PO452440   2.658  33.455   5.514
 4060POPC   GL152441   2.667  33.830   5.790
 4060POPC   GL252442   2.998  33.940   5.918
 4060POPC   C1A52443   2.544  33.786   6.195
 4060POPC   D2A52444   2.692  33.449   6.491
 4060POPC   C3A52445   2.680  33.547   6.950
 4060POPC   C4A52446   2.645  33.895   7.260
 4060POPC   C1B52447   2.967  34.008   6.328
 4060POPC   C2B52448   3.001  34.141   6.690
 4060POPC   C3B52449   3.090  33.964   7.035
 4060POPC   C4B52450   3.033  34.220   7.321
 4061POPC   NC352451  30.762  26.337   5.446
 4061POPC   PO452452  31.044  25.753   5.285
 4061POPC   GL152453  30.836  25.909   5.738
 4061POPC   GL252454  30.543  26.194   5.848
 4061POPC   C1A52455  30.741  25.895   6.203
 4061POPC   D2A52456  30.929  25.751   6.599
 4061POPC   C3A52457  30.694  25.854   6.976
 4061POPC   C4A52458  30.731  26.040   7.366
 4061POPC   C1B52459  30.324  26.227   6.215
 4061POPC   C2B52460  30.403  26.071   6.598
 4061POPC   C3B52461  30.177  26.218   6.902
 4061POPC   C4B52462  30.270  26.255   7.301
 4062POPC   NC352463  39.067  44.809   5.108
 4062POPC   PO452464  39.265  44.288   5.444
 4062POPC   GL152465  39.218  44.511   5.817
 4062POPC   GL252466  39.014  44.762   5.665
 4062POPC   C1A52467  39.336  44.562   6.256
 4062POPC   D2A52468  39.300  44.352   6.649
 4062POPC   C3A52469  39.256  44.627   6.981
 4062POPC   C4A52470  39.024  44.645   7.349
 4062POPC   C1B52471  39.010  44.933   6.101
 4062POPC   C2B52472  39.079   0.051   6.557
 4062POPC   C3B52473  38.957   0.049   7.005
 4062POPC   C4B52474  39.277   0.121   7.341
 4063POPC   NC352475  21.071  15.470   5.469
 4063POPC   PO452476  21.388  16.094   5.450
 4063POPC   GL152477  21.211  16.047   5.860
 4063POPC   GL252478  21.367  15.725   5.882
 4063POPC   C1A52479  21.228  15.971   6.334
 4063POPC   D2A52480  21.261  15.658   6.683
 4063POPC   C3A52481  21.123  15.801   7.057
 4063POPC   C4A52482  21.236  16.227   7.113
 4063POPC   C1B52483  21.633  15.652   6.262
 4063POPC   C2B52484  21.751  15.830   6.666
 4063POPC   C3B52485  21.651  15.859   7.126
 4063POPC   C4B52486  21.561  15.717   7.572
 4064POPC   NC352487   7.367  20.350   5.236
 4064POPC   PO452488   6.735  20.391   5.432
 4064POPC   GL152489   6.608  20.621   5.837
 4064POPC   GL252490   6.893  20.757   6.046
 4064POPC   C1A52491   6.426  20.827   6.216
 4064POPC   D2A52492   6.654  20.811   6.604
 4064POPC   C3A52493   6.423  20.677   6.961
 4064POPC   C4A52494   6.119  20.928   7.161
 4064POPC   C1B52495   6.694  20.393   6.266
 4064POPC   C2B52496   6.692  20.209   6.637
 4064POPC   C3B52497   6.955  20.261   6.983
 4064POPC   C4B52498   6.715  20.408   7.308
 4065POPC   NC352499  33.463  12.159   5.229
 4065POPC   PO452500  33.976  12.464   5.571
 4065POPC   GL152501  33.880  12.411   5.972
 4065POPC   GL252502  33.524  12.300   5.969
 4065POPC   C1A52503  33.848  12.131   6.346
 4065POPC   D2A52504  34.037  11.986   6.741
 4065POPC   C3A52505  34.123  12.235   7.125
 4065POPC   C4A52506  33.927  12.121   7.505
 4065POPC   C1B52507  33.563  12.586   6.313
 4065POPC   C2B52508  33.744  12.491   6.694
 4065POPC   C3B52509  33.632  12.196   6.996
 4065POPC   C4B52510  33.386  12.329   7.309
 4066POPC   NC352511  34.875  21.058   5.459
 4066POPC   PO452512  34.462  20.348   5.546
 4066POPC   GL152513  34.581  20.479   5.924
 4066POPC   GL252514  34.744  20.763   5.848
 4066POPC   C1A52515  34.446  20.666   6.292
 4066POPC   D2A52516  34.596  20.620   6.683
 4066POPC   C3A52517  34.237  20.574   6.923
 4066POPC   C4A52518  34.154  20.652   7.339
 4066POPC   C1B52519  34.820  21.050   6.175
 4066POPC   C2B52520  34.686  21.131   6.595
 4066POPC   C3B52521  34.518  20.988   7.033
 4066POPC   C4B52522  34.644  20.836   7.444
 4067POPC   NC352523  17.332  15.760   5.703
 4067POPC   PO452524  17.982  15.970   5.638
 4067POPC   GL152525  17.711  15.932   5.976
 4067POPC   GL252526  17.471  16.189   6.011
 4067POPC   C1A52527  17.476  15.794   6.345
 4067POPC   D2A52528  17.629  16.094   6.663
 4067POPC   C3A52529  17.537  16.024   7.074
 4067POPC   C4A52530  17.519  15.629   7.139
 4067POPC   C1B52531  17.203  16.202   6.380
 4067POPC   C2B52532  17.093  15.908   6.718
 4067POPC   C3B52533  17.020  15.986   7.151
 4067POPC   C4B52534  17.232  16.144   7.519
 4068POPC   NC352535  44.540  24.602   5.501
 4068POPC   PO452536  44.229  23.998   5.566
 4068POPC   GL152537  44.439  24.259   5.885
 4068POPC   GL252538  44.828  24.366   5.870
 4068POPC   C1A52539  44.524  24.347   6.306
 4068POPC   D2A52540  44.332  24.360   6.706
 4068POPC   C3A52541  44.418  24.721   6.945
 4068POPC   C4A52542  44.783  24.873   7.123
 4068POPC   C1B52543   0.076  24.220   6.240
 4068POPC   C2B52544   0.104  24.387   6.665
 4068POPC   C3B52545  44.831  24.351   7.003
 4068POPC   C4B52546  44.952  24.177   7.372
 4069POPC   NC352547  14.948  18.507   5.553
 4069POPC   PO452548  14.846  19.203   5.589
 4069POPC   GL152549  15.106  19.042   5.920
 4069POPC   GL252550  15.087  18.732   5.969
 4069POPC   C1A52551  15.240  19.053   6.343
 4069POPC   D2A52552  15.134  19.362   6.652
 4069POPC   C3A52553  15.400  19.264   6.965
 4069POPC   C4A52554  15.212  19.029   7.265
 4069POPC   C1B52555  14.817  18.753   6.302
 4069POPC   C2B52556  14.872  18.710   6.746
 4069POPC   C3B52557  14.782  18.715   7.197
 4069POPC   C4B52558  15.003  18.750   7.618
 4070POPC   NC352559   9.492  26.534   5.707
 4070POPC   PO452560  10.017  26.908   5.466
 4070POPC   GL152561   9.887  26.793   5.887
 4070POPC   GL252562   9.554  26.980   5.935
 4070POPC   C1A52563   9.767  26.700   6.314
 4070POPC   D2A52564   9.746  26.862   6.699
 4070POPC   C3A52565  10.078  26.744   6.983
 4070POPC   C4A52566  10.180  26.335   7.203
 4070POPC   C1B52567   9.295  26.866   6.278
 4070POPC   C2B52568   9.117  26.686   6.611
 4070POPC   C3B52569   9.393  26.564   6.899
 4070POPC   C4B52570   9.595  26.754   7.189
 4071POPC   NC352571  43.895  36.663   5.318
 4071POPC   PO452572  43.802  37.340   5.385
 4071POPC   GL152573  43.917  37.093   5.727
 4071POPC   GL252574  43.580  37.002   5.816
 4071POPC   C1A52575  44.018  36.822   6.082
 4071POPC   D2A52576  43.994  36.908   6.526
 4071POPC   C3A52577  43.702  36.786   6.856
 4071POPC   C4A52578  43.910  36.850   7.268
 4071POPC   C1B52579  43.696  37.217   6.214
 4071POPC   C2B52580  43.633  37.273   6.670
 4071POPC   C3B52581  43.518  37.195   7.121
 4071POPC   C4B52582  43.727  37.367   7.517
 4072POPC   NC352583  31.662   5.259   5.393
 4072POPC   PO452584  31.306   4.781   5.526
 4072POPC   GL152585  31.430   4.959   5.881
 4072POPC   GL252586  31.755   5.111   5.872
 4072POPC   C1A52587  31.550   4.856   6.290
 4072POPC   D2A52588  31.677   4.911   6.724
 4072POPC   C3A52589  31.310   4.840   7.012
 4072POPC   C4A52590  30.909   5.003   7.191
 4072POPC   C1B52591  31.970   5.380   6.174
 4072POPC   C2B52592  32.055   5.335   6.635
 4072POPC   C3B52593  31.842   5.289   7.047
 4072POPC   C4B52594  31.384   5.320   7.182
 4073POPC   NC352595  16.907  23.295   5.449
 4073POPC   PO452596  16.326  22.993   5.317
 4073POPC   GL152597  16.672  22.794   5.628
 4073POPC   GL252598  16.466  22.604   5.887
 4073POPC   C1A52599  16.899  22.771   6.081
 4073POPC   D2A52600  16.681  22.836   6.466
 4073POPC   C3A52601  16.941  22.875   6.794
 4073POPC   C4A52602  16.890  22.955   7.203
 4073POPC   C1B52603  16.495  23.072   6.023
 4073POPC   C2B52604  16.448  23.297   6.411
 4073POPC   C3B52605  16.308  23.315   6.835
 4073POPC   C4B52606  16.378  23.101   7.212
 4074POPC   NC352607  21.673  37.370   5.257
 4074POPC   PO452608  21.338  37.883   5.429
 4074POPC   GL152609  21.464  37.890   5.836
 4074POPC   GL252610  21.125  37.762   5.888
 4074POPC   C1A52611  21.590  37.741   6.257
 4074POPC   D2A52612  21.435  37.610   6.666
 4074POPC   C3A52613  21.655  37.669   7.084
 4074POPC   C4A52614  21.562  37.456   7.509
 4074POPC   C1B52615  21.131  37.979   6.243
 4074POPC   C2B52616  20.989  37.918   6.642
 4074POPC   C3B52617  21.192  37.898   7.054
 4074POPC   C4B52618  21.341  37.925   7.494
 4075POPC   NC352619   2.939  16.831   5.463
 4075POPC   PO452620   2.331  16.997   5.430
 4075POPC   GL152621   2.522  16.754   5.782
 4075POPC   GL252622   2.805  16.487   5.834
 4075POPC   C1A52623   2.710  16.931   6.157
 4075POPC   D2A52624   2.516  16.871   6.561
 4075POPC   C3A52625   2.610  16.555   6.848
 4075POPC   C4A52626   2.625  16.835   7.198
 4075POPC   C1B52627   2.792  16.459   6.304
 4075POPC   C2B52628   3.037  16.715   6.592
 4075POPC   C3B52629   3.093  16.862   6.988
 4075POPC   C4B52630   2.978  16.469   7.211
 4076POPC   NC352631   1.574  18.874   5.563
 4076POPC   PO452632   0.836  18.751   5.489
 4076POPC   GL152633   1.067  19.011   5.767
 4076POPC   GL252634   1.113  18.694   5.926
 4076POPC   C1A52635   1.316  19.165   6.119
 4076POPC   D2A52636   1.413  19.111   6.536
 4076POPC   C3A52637   1.307  19.379   6.854
 4076POPC   C4A52638   1.254  19.408   7.260
 4076POPC   C1B52639   1.224  18.683   6.337
 4076POPC   C2B52640   1.356  18.518   6.706
 4076POPC   C3B52641   1.561  18.612   7.081
 4076POPC   C4B52642   1.285  18.908   7.181
 4077POPC   NC352643  21.981   0.673   5.508
 4077POPC   PO452644  22.410   0.107   5.688
 4077POPC   GL152645  22.112   0.353   5.869
 4077POPC   GL252646  22.342   0.651   5.872
 4077POPC   C1A52647  21.905   0.350   6.241
 4077POPC   D2A52648  22.037   0.218   6.634
 4077POPC   C3A52649  22.114   0.545   6.886
 4077POPC   C4A52650  21.937   0.413   7.238
 4077POPC   C1B52651  22.424   0.468   6.301
 4077POPC   C2B52652  22.588   0.160   6.615
 4077POPC   C3B52653  22.431   0.150   7.033
 4077POPC   C4B52654  22.441   0.491   7.305
 4078POPC   NC352655  26.120  36.654   5.409
 4078POPC   PO452656  26.113  37.299   5.180
 4078POPC   GL152657  26.165  37.177   5.638
 4078POPC   GL252658  25.883  37.003   5.761
 4078POPC   C1A52659  26.264  37.105   6.096
 4078POPC   D2A52660  26.235  36.794   6.426
 4078POPC   C3A52661  26.263  36.881   6.845
 4078POPC   C4A52662  26.093  36.907   7.227
 4078POPC   C1B52663  25.768  36.899   6.187
 4078POPC   C2B52664  25.582  36.731   6.569
 4078POPC   C3B52665  25.647  36.958   6.972
 4078POPC   C4B52666  25.636  36.858   7.410
 4079POPC   NC352667  16.196  17.961   5.477
 4079POPC   PO452668  15.828  18.501   5.572
 4079POPC   GL152669  16.033  18.227   5.874
 4079POPC   GL252670  15.886  17.875   5.900
 4079POPC   C1A52671  16.315  18.279   6.213
 4079POPC   D2A52672  16.327  18.128   6.617
 4079POPC   C3A52673  16.137  18.211   6.985
 4079POPC   C4A52674  16.039  18.567   7.185
 4079POPC   C1B52675  15.894  18.002   6.337
 4079POPC   C2B52676  15.744  17.922   6.757
 4079POPC   C3B52677  15.625  18.178   7.125
 4079POPC   C4B52678  15.721  18.216   7.592
 4080POPC   NC352679  33.911  24.829   5.477
 4080POPC   PO452680  33.791  24.169   5.239
 4080POPC   GL152681  33.632  24.430   5.707
 4080POPC   GL252682  33.581  24.809   5.854
 4080POPC   C1A52683  33.813  24.512   6.172
 4080POPC   D2A52684  34.043  24.394   6.524
 4080POPC   C3A52685  33.831  24.462   6.892
 4080POPC   C4A52686  33.936  24.272   7.284
 4080POPC   C1B52687  33.752  25.022   6.215
 4080POPC   C2B52688  33.687  24.919   6.633
 4080POPC   C3B52689  33.826  24.945   7.042
 4080POPC   C4B52690  33.605  24.968   7.436
 4081POPC   NC352691   1.309  41.760   5.423
 4081POPC   PO452692   0.865  41.307   5.520
 4081POPC   GL152693   1.114  41.493   5.831
 4081POPC   GL252694   1.052  41.839   5.873
 4081POPC   C1A52695   1.339  41.507   6.227
 4081POPC   D2A52696   1.168  41.545   6.638
 4081POPC   C3A52697   1.390  41.512   7.029
 4081POPC   C4A52698   1.269  41.225   7.364
 4081POPC   C1B52699   1.183  42.001   6.293
 4081POPC   C2B52700   1.237  42.023   6.764
 4081POPC   C3B52701   0.984  41.854   7.090
 4081POPC   C4B52702   0.854  42.043   7.498
 4082POPC   NC352703   7.670   1.217   5.400
 4082POPC   PO452704   7.060   0.892   5.473
 4082POPC   GL152705   7.293   1.142   5.745
 4082POPC   GL252706   7.608   1.068   5.880
 4082POPC   C1A52707   7.248   1.326   6.151
 4082POPC   D2A52708   7.223   1.117   6.533
 4082POPC   C3A52709   7.115   1.338   6.883
 4082POPC   C4A52710   7.222   1.163   7.254
 4082POPC   C1B52711   7.778   1.316   6.197
 4082POPC   C2B52712   7.603   1.450   6.570
 4082POPC   C3B52713   7.621   1.298   6.975
 4082POPC   C4B52714   7.638   1.447   7.389
 4083POPC   NC352715   5.320  24.592   5.398
 4083POPC   PO452716   4.883  24.164   5.620
 4083POPC   GL152717   5.069  24.410   5.960
 4083POPC   GL252718   5.365  24.598   5.893
 4083POPC   C1A52719   5.100  24.454   6.422
 4083POPC   D2A52720   4.839  24.357   6.800
 4083POPC   C3A52721   4.870  24.676   7.115
 4083POPC   C4A52722   4.861  24.604   7.580
 4083POPC   C1B52723   5.541  24.281   6.169
 4083POPC   C2B52724   5.573  24.327   6.609
 4083POPC   C3B52725   5.336  24.450   6.946
 4083POPC   C4B52726   5.172  24.294   7.301
 4084POPC   NC352727   1.633  23.067   5.591
 4084POPC   PO452728   2.226  22.683   5.351
 4084POPC   GL152729   2.087  22.885   5.728
 4084POPC   GL252730   1.826  22.685   5.870
 4084POPC   C1A52731   1.991  23.078   6.144
 4084POPC   D2A52732   2.072  23.130   6.576
 4084POPC   C3A52733   1.829  22.938   6.896
 4084POPC   C4A52734   2.097  23.084   7.227
 4084POPC   C1B52735   2.151  22.569   6.170
 4084POPC   C2B52736   2.079  22.585   6.608
 4084POPC   C3B52737   2.146  22.570   7.050
 4084POPC   C4B52738   2.296  22.689   7.477
 4085POPC   NC352739  14.355  35.729   5.365
 4085POPC   PO452740  14.618  36.333   5.450
 4085POPC   GL152741  14.350  36.160   5.724
 4085POPC   GL252742  14.615  35.953   5.841
 4085POPC   C1A52743  14.349  36.224   6.173
 4085POPC   D2A52744  14.341  36.512   6.533
 4085POPC   C3A52745  14.424  36.263   6.927
 4085POPC   C4A52746  14.300  36.095   7.316
 4085POPC   C1B52747  14.633  35.812   6.256
 4085POPC   C2B52748  14.566  35.824   6.700
 4085POPC   C3B52749  14.721  35.827   7.132
 4085POPC   C4B52750  14.678  35.924   7.583
 4086POPC   NC352751  13.014  40.071   5.398
 4086POPC   PO452752  12.555  39.611   5.362
 4086POPC   GL152753  12.637  39.995   5.746
 4086POPC   GL252754  12.920  40.263   5.835
 4086POPC   C1A52755  12.710  40.081   6.249
 4086POPC   D2A52756  12.475  40.091   6.660
 4086POPC   C3A52757  12.695  40.052   7.054
 4086POPC   C4A52758  12.869  40.011   7.459
 4086POPC   C1B52759  13.180  40.398   6.146
 4086POPC   C2B52760  13.070  40.509   6.559
 4086POPC   C3B52761  13.123  40.316   6.952
 4086POPC   C4B52762  13.357  40.223   7.309
 4087POPC   NC352763  38.842  24.360   5.199
 4087POPC   PO452764  39.298  24.724   5.539
 4087POPC   GL152765  39.113  24.645   5.898
 4087POPC   GL252766  39.072  24.283   5.874
 4087POPC   C1A52767  39.313  24.584   6.255
 4087POPC   D2A52768  39.193  24.425   6.634
 4087POPC   C3A52769  39.218  24.658   7.005
 4087POPC   C4A52770  38.818  24.661   7.198
 4087POPC   C1B52771  39.297  24.058   6.208
 4087POPC   C2B52772  39.485  24.014   6.608
 4087POPC   C3B52773  39.488  24.180   6.978
 4087POPC   C4B52774  39.034  24.153   7.064
 4088POPC   NC352775   8.189  26.450   5.538
 4088POPC   PO452776   8.292  27.088   5.458
 4088POPC   GL152777   8.373  26.820   5.866
 4088POPC   GL252778   8.412  26.441   5.979
 4088POPC   C1A52779   8.345  26.856   6.317
 4088POPC   D2A52780   8.032  26.976   6.574
 4088POPC   C3A52781   8.303  27.144   6.838
 4088POPC   C4A52782   8.396  27.141   7.237
 4088POPC   C1B52783   8.011  26.508   6.210
 4088POPC   C2B52784   8.124  26.484   6.646
 4088POPC   C3B52785   8.107  26.698   7.040
 4088POPC   C4B52786   7.895  26.536   7.373
 4089POPC   NC352787   3.750   8.895   5.422
 4089POPC   PO452788   3.131   8.834   5.451
 4089POPC   GL152789   3.428   8.850   5.832
 4089POPC   GL252790   3.789   9.022   5.913
 4089POPC   C1A52791   3.425   9.016   6.263
 4089POPC   D2A52792   3.631   8.950   6.638
 4089POPC   C3A52793   3.363   8.927   6.986
 4089POPC   C4A52794   3.422   8.973   7.413
 4089POPC   C1B52795   3.874   9.336   6.259
 4089POPC   C2B52796   3.702   9.453   6.677
 4089POPC   C3B52797   3.759   9.239   7.088
 4089POPC   C4B52798   3.727   9.371   7.536
 4090POPC   NC352799   7.430   0.654   5.613
 4090POPC   PO452800   7.498   0.039   5.395
 4090POPC   GL152801   7.715   0.210   5.817
 4090POPC   GL252802   7.694   0.535   6.014
 4090POPC   C1A52803   7.521   0.132   6.258
 4090POPC   D2A52804   7.205   0.385   6.516
 4090POPC   C3A52805   7.057   0.164   6.876
 4090POPC   C4A52806   7.214   0.282   7.226
 4090POPC   C1B52807   7.645   0.840   6.323
 4090POPC   C2B52808   7.891   1.000   6.634
 4090POPC   C3B52809   7.640   0.791   6.901
 4090POPC   C4B52810   7.458   0.713   7.270
 4091POPC   NC352811   9.842  28.949   5.388
 4091POPC   PO452812  10.061  29.663   5.469
 4091POPC   GL152813   9.759  29.351   5.740
 4091POPC   GL252814   9.877  29.047   5.897
 4091POPC   C1A52815   9.510  29.296   6.128
 4091POPC   D2A52816   9.657  29.146   6.541
 4091POPC   C3A52817   9.453  29.015   6.917
 4091POPC   C4A52818   9.553  29.111   7.360
 4091POPC   C1B52819  10.024  28.851   6.248
 4091POPC   C2B52820   9.894  28.687   6.647
 4091POPC   C3B52821   9.905  28.828   7.080
 4091POPC   C4B52822   9.938  28.853   7.549
 4092POPC   NC352823  16.839  12.422   5.554
 4092POPC   PO452824  16.648  11.976   5.125
 4092POPC   GL152825  16.612  11.961   5.650
 4092POPC   GL252826  16.940  11.999   5.869
 4092POPC   C1A52827  16.476  11.963   6.135
 4092POPC   D2A52828  16.441  11.745   6.564
 4092POPC   C3A52829  16.431  11.966   6.934
 4092POPC   C4A52830  16.502  12.070   7.368
 4092POPC   C1B52831  16.938  12.267   6.214
 4092POPC   C2B52832  16.765  12.227   6.626
 4092POPC   C3B52833  16.940  12.191   7.047
 4092POPC   C4B52834  17.000  12.080   7.482
 4093POPC   NC352835  43.828   1.340   5.342
 4093POPC   PO452836  43.804   0.678   5.441
 4093POPC   GL152837  43.766   1.058   5.786
 4093POPC   GL252838  43.703   1.455   5.813
 4093POPC   C1A52839  43.928   1.215   6.203
 4093POPC   D2A52840  44.116   1.100   6.591
 4093POPC   C3A52841  43.870   0.921   6.925
 4093POPC   C4A52842  43.899   1.083   7.341
 4093POPC   C1B52843  43.776   1.719   6.154
 4093POPC   C2B52844  43.824   1.631   6.558
 4093POPC   C3B52845  43.910   1.438   6.916
 4093POPC   C4B52846  43.665   1.539   7.221
 4094POPC   NC352847  10.571  19.703   5.194
 4094POPC   PO452848  10.678  18.995   5.295
 4094POPC   GL152849  10.697  19.263   5.686
 4094POPC   GL252850  10.555  18.965   5.858
 4094POPC   C1A52851  10.660  19.351   6.148
 4094POPC   D2A52852  10.497  19.170   6.530
 4094POPC   C3A52853  10.710  19.244   6.936
 4094POPC   C4A52854  10.434  19.238   7.296
 4094POPC   C1B52855  10.197  18.871   6.111
 4094POPC   C2B52856  10.025  18.801   6.519
 4094POPC   C3B52857  10.182  18.960   6.923
 4094POPC   C4B52858  10.071  18.781   7.295
 4095POPC   NC352859  13.875  14.680   5.546
 4095POPC   PO452860  14.475  14.804   5.311
 4095POPC   GL152861  14.436  14.570   5.752
 4095POPC   GL252862  14.136  14.380   5.890
 4095POPC   C1A52863  14.543  14.373   6.179
 4095POPC   D2A52864  14.371  14.407   6.589
 4095POPC   C3A52865  14.592  14.475   6.946
 4095POPC   C4A52866  14.446  14.643   7.316
 4095POPC   C1B52867  14.082  14.117   6.283
 4095POPC   C2B52868  14.038  14.031   6.745
 4095POPC   C3B52869  14.171  14.224   7.166
 4095POPC   C4B52870  14.272  14.116   7.636
 4096POPC   NC352871   4.091   5.233   5.516
 4096POPC   PO452872   4.668   4.869   5.500
 4096POPC   GL152873   4.496   5.032   5.841
 4096POPC   GL252874   4.157   4.885   5.893
 4096POPC   C1A52875   4.729   5.161   6.183
 4096POPC   D2A52876   4.829   5.153   6.596
 4096POPC   C3A52877   4.496   5.112   6.936
 4096POPC   C4A52878   4.241   5.051   7.333
 4096POPC   C1B52879   4.348   4.829   6.308
 4096POPC   C2B52880   4.144   4.821   6.707
 4096POPC   C3B52881   3.860   4.836   7.087
 4096POPC   C4B52882   3.859   4.718   7.567
 4097POPC   NC352883  15.987  36.693   5.410
 4097POPC   PO452884  15.861  37.362   5.529
 4097POPC   GL152885  15.799  37.009   5.876
 4097POPC   GL252886  15.818  36.604   5.891
 4097POPC   C1A52887  15.759  37.062   6.331
 4097POPC   D2A52888  15.967  37.280   6.682
 4097POPC   C3A52889  15.933  37.000   7.044
 4097POPC   C4A52890  15.715  36.542   7.046
 4097POPC   C1B52891  16.110  36.688   6.224
 4097POPC   C2B52892  16.060  36.653   6.674
 4097POPC   C3B52893  16.218  36.578   7.106
 4097POPC   C4B52894  16.362  36.592   7.535
 4098POPC   NC352895  44.024  28.103   5.297
 4098POPC   PO452896  43.366  28.206   5.361
 4098POPC   GL152897  43.559  28.394   5.738
 4098POPC   GL252898  43.899  28.331   5.747
 4098POPC   C1A52899  43.692  28.619   6.137
 4098POPC   D2A52900  43.960  28.729   6.495
 4098POPC   C3A52901  43.711  28.758   6.881
 4098POPC   C4A52902  43.579  28.533   7.266
 4098POPC   C1B52903  43.862  28.132   6.130
 4098POPC   C2B52904  44.061  28.165   6.522
 4098POPC   C3B52905  44.017  28.351   6.876
 4098POPC   C4B52906  43.949  28.172   7.240
 4099POPC   NC352907   8.798  21.607   5.409
 4099POPC   PO452908   9.243  21.089   5.524
 4099POPC   GL152909   9.059  21.376   5.801
 4099POPC   GL252910   8.781  21.148   5.898
 4099POPC   C1A52911   8.865  21.574   6.167
 4099POPC   D2A52912   8.739  21.573   6.601
 4099POPC   C3A52913   8.667  21.263   6.944
 4099POPC   C4A52914   8.634  21.467   7.342
 4099POPC   C1B52915   9.000  21.083   6.288
 4099POPC   C2B52916   9.141  21.260   6.686
 4099POPC   C3B52917   9.059  21.573   7.014
 4099POPC   C4B52918   9.091  21.690   7.461
 4100POPC   NC352919  18.614  37.810   5.170
 4100POPC   PO452920  18.141  37.502   5.533
 4100POPC   GL152921  18.294  37.605   5.921
 4100POPC   GL252922  18.489  37.913   5.828
 4100POPC   C1A52923  18.208  37.553   6.370
 4100POPC   D2A52924  18.200  37.331   6.782
 4100POPC   C3A52925  18.067  37.531   7.175
 4100POPC   C4A52926  18.330  37.449   7.523
 4100POPC   C1B52927  18.291  38.071   6.217
 4100POPC   C2B52928  18.240  37.984   6.618
 4100POPC   C3B52929  18.427  37.773   6.923
 4100POPC   C4B52930  18.432  37.913   7.340
 4101POPC   NC352931   1.657   7.026   5.605
 4101POPC   PO452932   1.247   7.384   5.230
 4101POPC   GL152933   1.168   7.373   5.697
 4101POPC   GL252934   1.484   7.491   5.824
 4101POPC   C1A52935   1.160   7.341   6.168
 4101POPC   D2A52936   1.255   7.485   6.565
 4101POPC   C3A52937   1.098   7.274   6.889
 4101POPC   C4A52938   1.138   7.472   7.257
 4101POPC   C1B52939   1.495   7.773   6.189
 4101POPC   C2B52940   1.671   7.783   6.619
 4101POPC   C3B52941   1.586   7.525   6.979
 4101POPC   C4B52942   1.618   7.506   7.456
 4102POPC   NC352943  10.523  38.618   5.428
 4102POPC   PO452944  10.738  37.997   5.425
 4102POPC   GL152945  10.471  38.210   5.789
 4102POPC   GL252946  10.335  38.555   5.882
 4102POPC   C1A52947  10.540  38.290   6.248
 4102POPC   D2A52948  10.304  38.361   6.599
 4102POPC   C3A52949  10.456  38.233   6.989
 4102POPC   C4A52950  10.251  38.424   7.302
 4102POPC   C1B52951  10.459  38.817   6.215
 4102POPC   C2B52952  10.601  38.933   6.604
 4102POPC   C3B52953  10.434  38.742   6.936
 4102POPC   C4B52954  10.641  38.757   7.303
 4103POPC   NC352955   3.998  12.198   5.571
 4103POPC   PO452956   4.371  11.861   5.216
 4103POPC   GL152957   4.480  11.983   5.691
 4103POPC   GL252958   4.305  12.216   5.956
 4103POPC   C1A52959   4.608  11.877   6.149
 4103POPC   D2A52960   4.312  12.080   6.459
 4103POPC   C3A52961   4.383  12.074   6.880
 4103POPC   C4A52962   4.334  12.094   7.337
 4103POPC   C1B52963   3.919  12.316   6.247
 4103POPC   C2B52964   3.914  12.629   6.556
 4103POPC   C3B52965   4.001  12.420   6.928
 4103POPC   C4B52966   3.941  12.405   7.337
 4104POPC   NC352967   4.795  43.688   5.432
 4104POPC   PO452968   5.261  44.157   5.341
 4104POPC   GL152969   4.974  44.093   5.711
 4104POPC   GL252970   5.091  44.402   5.791
 4104POPC   C1A52971   4.882  43.968   6.167
 4104POPC   D2A52972   4.933  43.728   6.582
 4104POPC   C3A52973   4.887  43.920   7.012
 4104POPC   C4A52974   4.958  43.881   7.488
 4104POPC   C1B52975   5.355  44.186   6.070
 4104POPC   C2B52976   5.245  44.169   6.496
 4104POPC   C3B52977   5.419  44.092   6.875
 4104POPC   C4B52978   5.355  43.745   7.163
 4105POPC   NC352979  42.681  36.491   5.408
 4105POPC   PO452980  42.581  37.140   5.559
 4105POPC   GL152981  42.366  36.790   5.772
 4105POPC   GL252982  42.005  36.674   5.800
 4105POPC   C1A52983  42.336  36.754   6.200
 4105POPC   D2A52984  42.366  36.971   6.573
 4105POPC   C3A52985  42.639  36.798   6.871
 4105POPC   C4A52986  42.366  36.658   7.207
 4105POPC   C1B52987  41.915  37.019   6.083
 4105POPC   C2B52988  41.840  37.142   6.510
 4105POPC   C3B52989  41.990  36.960   6.920
 4105POPC   C4B52990  42.363  37.161   7.085
 4106POPC   NC352991   6.920  34.922   5.651
 4106POPC   PO452992   6.627  34.356   5.311
 4106POPC   GL152993   6.657  34.358   5.781
 4106POPC   GL252994   6.965  34.409   5.800
 4106POPC   C1A52995   6.685  34.488   6.271
 4106POPC   D2A52996   6.630  34.914   6.505
 4106POPC   C3A52997   6.364  34.896   6.896
 4106POPC   C4A52998   6.531  34.708   7.273
 4106POPC   C1B52999   7.070  34.180   6.174
 4106POPC   C2B53000   7.118  34.333   6.578
 4106POPC   C3B53001   6.856  34.510   6.887
 4106POPC   C4B53002   6.946  34.295   7.271
 4107POPC   NC353003  20.425  14.403   4.990
 4107POPC   PO453004  20.410  14.055   5.570
 4107POPC   GL153005  20.580  14.365   5.818
 4107POPC   GL253006  20.388  14.707   5.774
 4107POPC   C1A53007  20.563  14.233   6.242
 4107POPC   D2A53008  20.479  14.036   6.619
 4107POPC   C3A53009  20.723  14.229   6.903
 4107POPC   C4A53010  20.960  14.090   7.210
 4107POPC   C1B53011  20.234  14.626   6.219
 4107POPC   C2B53012  20.367  14.578   6.666
 4107POPC   C3B53013  20.433  14.608   7.122
 4107POPC   C4B53014  20.861  14.609   7.249
 4108POPC   NC353015  40.384  17.434   5.473
 4108POPC   PO453016  39.646  17.439   5.478
 4108POPC   GL153017  39.936  17.316   5.813
 4108POPC   GL253018  40.080  17.655   5.866
 4108POPC   C1A53019  39.858  17.313   6.274
 4108POPC   D2A53020  39.891  17.147   6.699
 4108POPC   C3A53021  39.779  17.462   6.965
 4108POPC   C4A53022  40.053  17.709   7.193
 4108POPC   C1B53023  40.320  17.506   6.226
 4108POPC   C2B53024  40.246  17.517   6.700
 4108POPC   C3B53025  40.522  17.552   7.060
 4108POPC   C4B53026  40.508  17.719   7.458
 4109POPC   NC353027  41.883  15.651   5.423
 4109POPC   PO453028  41.545  16.168   5.257
 4109POPC   GL153029  41.596  16.025   5.668
 4109POPC   GL253030  41.423  15.734   5.754
 4109POPC   C1A53031  41.738  16.000   6.095
 4109POPC   D2A53032  41.582  16.172   6.469
 4109POPC   C3A53033  41.676  16.030   6.901
 4109POPC   C4A53034  41.490  16.124   7.308
 4109POPC   C1B53035  41.269  15.809   6.166
 4109POPC   C2B53036  41.354  15.689   6.587
 4109POPC   C3B53037  41.229  15.792   7.005
 4109POPC   C4B53038  41.490  15.611   7.328
 4110POPC   NC353039  36.014  42.125   5.432
 4110POPC   PO453040  36.377  42.630   5.500
 4110POPC   GL153041  36.238  42.525   5.893
 4110POPC   GL253042  36.175  42.220   5.892
 4110POPC   C1A53043  36.283  42.380   6.338
 4110POPC   D2A53044  36.499  42.252   6.689
 4110POPC   C3A53045  36.209  42.348   7.002
 4110POPC   C4A53046  36.057  42.724   7.157
 4110POPC   C1B53047  35.872  42.066   6.131
 4110POPC   C2B53048  35.958  41.882   6.516
 4110POPC   C3B53049  35.813  41.907   6.913
 4110POPC   C4B53050  35.951  42.016   7.299
 4111POPC   NC353051  32.357  25.732   5.520
 4111POPC   PO453052  32.485  26.358   5.477
 4111POPC   GL153053  32.413  26.142   5.846
 4111POPC   GL253054  32.086  26.071   5.939
 4111POPC   C1A53055  32.450  25.949   6.246
 4111POPC   D2A53056  32.322  26.099   6.629
 4111POPC   C3A53057  32.523  25.990   7.003
 4111POPC   C4A53058  32.439  25.900   7.430
 4111POPC   C1B53059  32.176  26.411   6.242
 4111POPC   C2B53060  31.999  26.500   6.622
 4111POPC   C3B53061  32.136  26.347   7.041
 4111POPC   C4B53062  32.028  26.231   7.470
 4112POPC   NC353063   9.346  35.222   5.513
 4112POPC   PO453064   8.650  35.453   5.476
 4112POPC   GL153065   8.936  35.322   5.797
 4112POPC   GL253066   9.228  35.539   5.914
 4112POPC   C1A53067   8.949  35.104   6.171
 4112POPC   D2A53068   9.102  35.101   6.597
 4112POPC   C3A53069   8.790  35.158   6.918
 4112POPC   C4A53070   8.896  35.240   7.336
 4112POPC   C1B53071   9.088  35.584   6.358
 4112POPC   C2B53072   9.036  35.601   6.825
 4112POPC   C3B53073   9.331  35.402   7.139
 4112POPC   C4B53074   9.391  35.458   7.605
 4113POPC   NC353075  24.985  37.056   5.651
 4113POPC   PO453076  25.216  37.639   5.464
 4113POPC   GL153077  25.358  37.415   5.836
 4113POPC   GL253078  25.039  37.465   5.964
 4113POPC   C1A53079  25.407  37.541   6.304
 4113POPC   D2A53080  25.273  37.731   6.721
 4113POPC   C3A53081  25.598  37.730   7.067
 4113POPC   C4A53082  25.638  37.771   7.558
 4113POPC   C1B53083  24.812  37.797   6.197
 4113POPC   C2B53084  24.766  38.011   6.601
 4113POPC   C3B53085  24.974  38.034   7.010
 4113POPC   C4B53086  25.136  37.719   7.272
 4114POPC   NC353087  12.573  28.340   5.613
 4114POPC   PO453088  11.903  28.508   5.568
 4114POPC   GL153089  12.166  28.416   5.952
 4114POPC   GL253090  12.487  28.629   6.042
 4114POPC   C1A53091  12.214  28.202   6.349
 4114POPC   D2A53092  12.325  28.118   6.772
 4114POPC   C3A53093  12.265  28.400   7.111
 4114POPC   C4A53094  12.269  28.346   7.537
 4114POPC   C1B53095  12.192  28.749   6.344
 4114POPC   C2B53096  12.115  28.663   6.713
 4114POPC   C3B53097  11.872  28.743   7.077
 4114POPC   C4B53098  12.131  28.840   7.417
 4115POPC   NC353099  14.878   1.003   5.280
 4115POPC   PO453100  15.481   1.425   5.370
 4115POPC   GL153101  15.401   1.381   5.800
 4115POPC   GL253102  15.223   1.052   5.821
 4115POPC   C1A53103  15.182   1.372   6.219
 4115POPC   D2A53104  15.051   1.175   6.602
 4115POPC   C3A53105  14.991   1.412   6.948
 4115POPC   C4A53106  15.126   1.206   7.307
 4115POPC   C1B53107  15.026   0.843   6.200
 4115POPC   C2B53108  14.777   0.758   6.618
 4115POPC   C3B53109  14.769   0.954   7.018
 4115POPC   C4B53110  14.840   0.763   7.382
 4116POPC   NC353111   9.103  19.206   5.301
 4116POPC   PO453112   8.423  19.021   5.126
 4116POPC   GL153113   8.672  19.082   5.524
 4116POPC   GL253114   8.398  19.207   5.730
 4116POPC   C1A53115   8.989  18.897   5.929
 4116POPC   D2A53116   8.963  18.722   6.395
 4116POPC   C3A53117   9.145  18.921   6.787
 4116POPC   C4A53118   9.075  18.920   7.248
 4116POPC   C1B53119   8.572  19.074   6.197
 4116POPC   C2B53120   8.664  19.056   6.667
 4116POPC   C3B53121   8.741  19.240   7.082
 4116POPC   C4B53122   8.819  19.283   7.552
 4117POPC   NC353123  34.901  31.516   5.360
 4117POPC   PO453124  34.374  31.214   5.407
 4117POPC   GL153125  34.473  31.510   5.730
 4117POPC   GL253126  34.775  31.333   5.857
 4117POPC   C1A53127  34.439  31.540   6.188
 4117POPC   D2A53128  34.749  31.370   6.471
 4117POPC   C3A53129  34.658  31.380   6.905
 4117POPC   C4A53130  34.375  31.360   7.257
 4117POPC   C1B53131  34.917  31.731   6.045
 4117POPC   C2B53132  35.053  31.840   6.463
 4117POPC   C3B53133  35.015  31.773   6.912
 4117POPC   C4B53134  34.844  31.577   7.330
 4118POPC   NC353135  29.529  30.981   5.539
 4118POPC   PO453136  30.048  30.593   5.439
 4118POPC   GL153137  29.905  30.470   5.847
 4118POPC   GL253138  29.849  30.817   5.916
 4118POPC   C1A53139  29.826  30.508   6.327
 4118POPC   D2A53140  29.769  30.352   6.775
 4118POPC   C3A53141  29.984  30.458   7.179
 4118POPC   C4A53142  30.146  30.872   7.231
 4118POPC   C1B53143  29.566  31.017   6.230
 4118POPC   C2B53144  29.558  31.263   6.626
 4118POPC   C3B53145  29.494  31.119   7.057
 4118POPC   C4B53146  29.648  30.822   7.386
 4119POPC   NC353147  41.220  38.761   5.303
 4119POPC   PO453148  41.753  38.413   5.466
 4119POPC   GL153149  41.537  38.362   5.850
 4119POPC   GL253150  41.260  38.616   5.787
 4119POPC   C1A53151  41.603  38.336   6.312
 4119POPC   D2A53152  41.648  38.632   6.660
 4119POPC   C3A53153  41.619  38.458   7.078
 4119POPC   C4A53154  41.717  38.016   7.239
 4119POPC   C1B53155  41.347  38.760   6.178
 4119POPC   C2B53156  41.154  38.646   6.522
 4119POPC   C3B53157  41.234  38.821   6.934
 4119POPC   C4B53158  41.233  38.676   7.371
 4120POPC   NC353159  16.843  24.878   5.202
 4120POPC   PO453160  16.438  24.426   5.454
 4120POPC   GL153161  16.659  24.474   5.855
 4120POPC   GL253162  16.760  24.824   5.904
 4120POPC   C1A53163  16.861  24.230   6.174
 4120POPC   D2A53164  16.950  23.991   6.548
 4120POPC   C3A53165  17.097  24.241   6.844
 4120POPC   C4A53166  16.808  24.486   7.090
 4120POPC   C1B53167  17.038  24.765   6.266
 4120POPC   C2B53168  17.087  24.740   6.718
 4120POPC   C3B53169  17.071  24.938   7.118
 4120POPC   C4B53170  17.187  24.901   7.551
 4121POPC   NC353171  26.017  10.495   5.242
 4121POPC   PO453172  25.386  10.415   5.595
 4121POPC   GL153173  25.372  10.623   5.988
 4121POPC   GL253174  25.581  10.917   5.973
 4121POPC   C1A53175  25.220  10.474   6.391
 4121POPC   D2A53176  25.336  10.155   6.603
 4121POPC   C3A53177  25.334  10.247   7.015
 4121POPC   C4A53178  25.254  10.606   7.296
 4121POPC   C1B53179  25.554  10.846   6.411
 4121POPC   C2B53180  25.411  10.784   6.832
 4121POPC   C3B53181  25.503  11.075   7.163
 4121POPC   C4B53182  25.365  11.097   7.584
 4122POPC   NC353183  40.516  40.488   5.478
 4122POPC   PO453184  41.108  40.793   5.454
 4122POPC   GL153185  40.955  40.907   5.893
 4122POPC   GL253186  40.597  40.862   5.913
 4122POPC   C1A53187  40.883  40.667   6.298
 4122POPC   D2A53188  40.995  40.781   6.707
 4122POPC   C3A53189  40.986  40.500   7.048
 4122POPC   C4A53190  40.981  40.654   7.498
 4122POPC   C1B53191  40.361  40.712   6.292
 4122POPC   C2B53192  40.405  40.812   6.712
 4122POPC   C3B53193  40.568  40.841   7.110
 4122POPC   C4B53194  40.551  40.479   7.295
 4123POPC   NC353195   7.735  13.572   5.299
 4123POPC   PO453196   7.158  13.237   5.610
 4123POPC   GL153197   7.345  13.383   6.004
 4123POPC   GL253198   7.607  13.660   5.961
 4123POPC   C1A53199   7.436  13.557   6.424
 4123POPC   D2A53200   7.801  13.471   6.645
 4123POPC   C3A53201   7.675  13.450   7.060
 4123POPC   C4A53202   7.245  13.328   7.109
 4123POPC   C1B53203   7.353  14.011   6.177
 4123POPC   C2B53204   7.129  13.954   6.551
 4123POPC   C3B53205   7.355  13.860   6.916
 4123POPC   C4B53206   7.288  14.130   7.246
 4124POPC   NC353207  25.577  13.045   5.120
 4124POPC   PO453208  25.300  12.599   5.512
 4124POPC   GL153209  25.145  12.733   5.870
 4124POPC   GL253210  25.013  13.013   5.742
 4124POPC   C1A53211  25.339  12.900   6.255
 4124POPC   D2A53212  25.381  12.724   6.666
 4124POPC   C3A53213  25.235  12.884   7.052
 4124POPC   C4A53214  25.432  12.909   7.431
 4124POPC   C1B53215  24.845  13.002   6.207
 4124POPC   C2B53216  25.030  13.130   6.601
 4124POPC   C3B53217  25.134  13.375   6.942
 4124POPC   C4B53218  25.105  13.289   7.387
 4125POPC   NC353219  36.364  23.251   5.610
 4125POPC   PO453220  35.824  23.006   5.434
 4125POPC   GL153221  36.013  22.936   5.814
 4125POPC   GL253222  36.254  22.657   5.736
 4125POPC   C1A53223  36.032  23.128   6.219
 4125POPC   D2A53224  36.037  22.954   6.609
 4125POPC   C3A53225  36.211  23.260   6.874
 4125POPC   C4A53226  36.470  23.076   7.196
 4125POPC   C1B53227  36.111  22.595   6.173
 4125POPC   C2B53228  36.219  22.440   6.575
 4125POPC   C3B53229  36.417  22.613   6.929
 4125POPC   C4B53230  36.252  22.446   7.278
 4126POPC   NC353231  12.472  44.001   5.598
 4126POPC   PO453232  11.833  43.688   5.490
 4126POPC   GL153233  12.039  43.794   5.828
 4126POPC   GL253234  12.013  44.138   5.837
 4126POPC   C1A53235  12.208  43.671   6.206
 4126POPC   D2A53236  12.086  43.775   6.618
 4126POPC   C3A53237  12.253  43.583   6.965
 4126POPC   C4A53238  12.196  43.737   7.350
 4126POPC   C1B53239  12.175  44.187   6.262
 4126POPC   C2B53240  11.967  44.301   6.625
 4126POPC   C3B53241  12.060  44.209   7.051
 4126POPC   C4B53242  11.794  44.225   7.415
 4127POPC   NC353243   8.564  30.781   5.104
 4127POPC   PO453244   8.103  30.397   5.575
 4127POPC   GL153245   8.021  30.755   5.835
 4127POPC   GL253246   8.320  30.877   5.844
 4127POPC   C1A53247   8.024  30.922   6.260
 4127POPC   D2A53248   8.010  30.594   6.509
 4127POPC   C3A53249   8.059  30.646   6.915
 4127POPC   C4A53250   8.252  30.380   7.173
 4127POPC   C1B53251   8.457  30.632   6.205
 4127POPC   C2B53252   8.469  30.807   6.613
 4127POPC   C3B53253   8.577  30.718   7.016
 4127POPC   C4B53254   8.529  30.772   7.431
 4128POPC   NC353255   4.878   6.839   5.384
 4128POPC   PO453256   4.237   6.750   5.392
 4128POPC   GL153257   4.172   6.832   5.819
 4128POPC   GL253258   4.022   7.130   5.834
 4128POPC   C1A53259   4.281   6.764   6.253
 4128POPC   D2A53260   4.233   6.414   6.555
 4128POPC   C3A53261   4.483   6.369   6.932
 4128POPC   C4A53262   4.563   6.690   7.263
 4128POPC   C1B53263   3.815   7.004   6.200
 4128POPC   C2B53264   4.018   7.060   6.579
 4128POPC   C3B53265   4.232   6.828   6.891
 4128POPC   C4B53266   4.157   6.984   7.309
 4129POPC   NC353267  39.785  29.055   5.426
 4129POPC   PO453268  40.156  29.559   5.143
 4129POPC   GL153269  40.207  29.437   5.693
 4129POPC   GL253270  40.152  29.071   5.768
 4129POPC   C1A53271  39.959  29.323   6.145
 4129POPC   D2A53272  40.132  29.361   6.573
 4129POPC   C3A53273  39.920  29.245   6.971
 4129POPC   C4A53274  39.957  29.338   7.414
 4129POPC   C1B53275  40.095  28.799   6.122
 4129POPC   C2B53276  39.910  28.890   6.510
 4129POPC   C3B53277  40.026  28.758   6.906
 4129POPC   C4B53278  39.973  28.834   7.325
 4130POPC   NC353279  14.523   6.695   5.437
 4130POPC   PO453280  14.538   6.028   5.229
 4130POPC   GL153281  14.319   6.284   5.638
 4130POPC   GL253282  14.577   6.452   5.868
 4130POPC   C1A53283  14.224   6.244   6.134
 4130POPC   D2A53284  14.073   6.336   6.575
 4130POPC   C3A53285  14.323   6.510   6.928
 4130POPC   C4A53286  14.448   6.321   7.341
 4130POPC   C1B53287  14.572   6.749   6.166
 4130POPC   C2B53288  14.628   6.761   6.577
 4130POPC   C3B53289  14.634   6.990   6.920
 4130POPC   C4B53290  14.570   6.818   7.286
 4131POPC   NC353291   5.677  21.517   5.480
 4131POPC   PO453292   6.184  21.162   5.386
 4131POPC   GL153293   6.092  21.389   5.790
 4131POPC   GL253294   6.203  21.731   5.899
 4131POPC   C1A53295   6.243  21.326   6.209
 4131POPC   D2A53296   6.234  21.119   6.602
 4131POPC   C3A53297   5.876  21.241   6.834
 4131POPC   C4A53298   6.003  21.450   7.214
 4131POPC   C1B53299   5.838  21.648   6.184
 4131POPC   C2B53300   5.903  21.760   6.629
 4131POPC   C3B53301   5.779  21.901   7.036
 4131POPC   C4B53302   5.638  21.737   7.432
 4132POPC   NC353303  23.731  18.526   5.144
 4132POPC   PO453304  23.909  18.012   5.566
 4132POPC   GL153305  23.905  18.280   5.909
 4132POPC   GL253306  24.062  18.628   5.811
 4132POPC   C1A53307  23.600  18.237   6.261
 4132POPC   D2A53308  23.413  18.420   6.607
 4132POPC   C3A53309  23.402  18.135   6.960
 4132POPC   C4A53310  23.707  17.908   7.219
 4132POPC   C1B53311  23.865  18.673   6.221
 4132POPC   C2B53312  23.930  18.467   6.599
 4132POPC   C3B53313  23.846  18.390   7.004
 4132POPC   C4B53314  23.956  18.380   7.393
 4133POPC   NC353315   6.215   3.707   5.305
 4133POPC   PO453316   5.572   3.267   5.373
 4133POPC   GL153317   5.684   3.390   5.804
 4133POPC   GL253318   5.750   3.761   5.845
 4133POPC   C1A53319   5.793   3.462   6.250
 4133POPC   D2A53320   6.157   3.542   6.500
 4133POPC   C3A53321   6.120   3.409   6.915
 4133POPC   C4A53322   5.763   3.429   7.195
 4133POPC   C1B53323   5.849   3.957   6.288
 4133POPC   C2B53324   5.809   3.818   6.743
 4133POPC   C3B53325   6.123   3.897   7.099
 4133POPC   C4B53326   6.208   3.904   7.562
 4134POPC   NC353327  20.344  19.003   5.473
 4134POPC   PO453328  21.028  18.970   5.332
 4134POPC   GL153329  20.764  18.947   5.769
 4134POPC   GL253330  20.571  19.181   5.904
 4134POPC   C1A53331  20.899  18.937   6.225
 4134POPC   D2A53332  20.903  19.143   6.642
 4134POPC   C3A53333  20.889  18.934   7.047
 4134POPC   C4A53334  20.832  19.232   7.358
 4134POPC   C1B53335  20.401  18.842   6.172
 4134POPC   C2B53336  20.406  18.962   6.605
 4134POPC   C3B53337  20.404  19.231   6.962
 4134POPC   C4B53338  20.374  18.948   7.283
 4135POPC   NC353339  26.171   6.500   5.664
 4135POPC   PO453340  25.621   6.580   5.201
 4135POPC   GL153341  25.681   6.537   5.680
 4135POPC   GL253342  25.855   6.884   5.731
 4135POPC   C1A53343  25.685   6.414   6.150
 4135POPC   D2A53344  25.652   6.314   6.621
 4135POPC   C3A53345  26.022   6.268   6.865
 4135POPC   C4A53346  26.065   6.408   7.273
 4135POPC   C1B53347  25.935   6.939   6.189
 4135POPC   C2B53348  26.005   6.782   6.618
 4135POPC   C3B53349  25.757   6.731   6.981
 4135POPC   C4B53350  25.724   6.827   7.431
 4136POPC   NC353351  42.601  34.151   5.268
 4136POPC   PO453352  42.042  33.917   5.510
 4136POPC   GL153353  42.376  34.045   5.788
 4136POPC   GL253354  42.404  33.672   5.869
 4136POPC   C1A53355  42.405  34.212   6.226
 4136POPC   D2A53356  42.055  34.183   6.560
 4136POPC   C3A53357  42.128  34.084   7.009
 4136POPC   C4A53358  42.301  34.130   7.443
 4136POPC   C1B53359  42.158  33.775   6.231
 4136POPC   C2B53360  42.169  33.682   6.656
 4136POPC   C3B53361  41.947  33.578   7.021
 4136POPC   C4B53362  42.019  33.664   7.459
 4137POPC   NC353363  19.945  24.181   5.280
 4137POPC   PO453364  19.665  24.779   5.226
 4137POPC   GL153365  19.715  24.428   5.658
 4137POPC   GL253366  20.042  24.370   5.766
 4137POPC   C1A53367  19.639  24.437   6.153
 4137POPC   D2A53368  19.754  24.677   6.566
 4137POPC   C3A53369  19.548  24.594   7.014
 4137POPC   C4A53370  19.758  24.550   7.467
 4137POPC   C1B53371  20.194  24.542   6.156
 4137POPC   C2B53372  20.281  24.440   6.578
 4137POPC   C3B53373  20.040  24.471   6.952
 4137POPC   C4B53374  20.193  24.373   7.332
 4138POPC   NC353375  24.058   2.482   5.490
 4138POPC   PO453376  24.186   3.076   5.794
 4138POPC   GL153377  24.344   2.675   5.906
 4138POPC   GL253378  24.701   2.640   5.919
 4138POPC   C1A53379  24.409   2.400   6.272
 4138POPC   D2A53380  24.366   2.386   6.711
 4138POPC   C3A53381  24.386   2.787   6.889
 4138POPC   C4A53382  24.376   2.846   7.305
 4138POPC   C1B53383  24.856   2.781   6.259
 4138POPC   C2B53384  24.826   2.584   6.605
 4138POPC   C3B53385  24.899   2.808   6.939
 4138POPC   C4B53386  24.809   2.584   7.261
 4139POPC   NC353387  37.506   1.199   5.431
 4139POPC   PO453388  38.110   1.091   5.361
 4139POPC   GL153389  37.885   1.158   5.785
 4139POPC   GL253390  37.505   1.238   5.922
 4139POPC   C1A53391  37.880   1.386   6.209
 4139POPC   D2A53392  37.847   1.168   6.577
 4139POPC   C3A53393  37.750   1.352   6.911
 4139POPC   C4A53394  37.956   1.162   7.199
 4139POPC   C1B53395  37.399   1.214   6.364
 4139POPC   C2B53396  37.319   1.079   6.773
 4139POPC   C3B53397  37.325   1.195   7.164
 4139POPC   C4B53398  37.361   1.600   7.145
 4140POPC   NC353399  13.349  12.238   5.467
 4140POPC   PO453400  12.664  12.177   5.486
 4140POPC   GL153401  12.822  11.951   5.860
 4140POPC   GL253402  13.183  11.996   5.881
 4140POPC   C1A53403  12.658  11.900   6.303
 4140POPC   D2A53404  12.774  11.896   6.785
 4140POPC   C3A53405  12.847  12.090   7.164
 4140POPC   C4A53406  12.641  12.384   7.373
 4140POPC   C1B53407  13.113  11.692   6.226
 4140POPC   C2B53408  13.235  11.687   6.662
 4140POPC   C3B53409  13.156  11.677   7.116
 4140POPC   C4B53410  13.316  11.943   7.457
 4141POPC   NC353411   8.016  21.691   5.577
 4141POPC   PO453412   8.523  21.213   5.434
 4141POPC   GL153413   8.460  21.520   5.782
 4141POPC   GL253414   8.203  21.294   5.863
 4141POPC   C1A53415   8.350  21.630   6.225
 4141POPC   D2A53416   8.280  21.361   6.611
 4141POPC   C3A53417   8.193  21.483   7.036
 4141POPC   C4A53418   7.874  21.784   7.156
 4141POPC   C1B53419   7.973  21.178   6.237
 4141POPC   C2B53420   7.824  21.108   6.677
 4141POPC   C3B53421   7.814  21.172   7.123
 4141POPC   C4B53422   8.004  21.155   7.515
 4142POPC   NC353423  31.320  27.097   5.370
 4142POPC   PO453424  31.977  26.899   5.437
 4142POPC   GL153425  31.728  26.828   5.838
 4142POPC   GL253426  31.353  26.816   5.814
 4142POPC   C1A53427  31.607  26.641   6.251
 4142POPC   D2A53428  31.551  26.770   6.668
 4142POPC   C3A53429  31.643  26.482   6.996
 4142POPC   C4A53430  31.640  26.796   7.306
 4142POPC   C1B53431  31.086  26.867   6.190
 4142POPC   C2B53432  30.995  26.772   6.641
 4142POPC   C3B53433  31.173  26.667   7.057
 4142POPC   C4B53434  31.183  26.759   7.508
 4143POPC   NC353435   4.644  30.152   5.467
 4143POPC   PO453436   4.032  30.221   5.347
 4143POPC   GL153437   4.239  30.023   5.744
 4143POPC   GL253438   4.412  29.699   5.739
 4143POPC   C1A53439   4.148  30.002   6.197
 4143POPC   D2A53440   3.961  29.787   6.552
 4143POPC   C3A53441   4.108  29.997   6.894
 4143POPC   C4A53442   4.246  29.904   7.280
 4143POPC   C1B53443   4.637  29.862   6.118
 4143POPC   C2B53444   4.549  30.034   6.552
 4143POPC   C3B53445   4.633  29.878   6.960
 4143POPC   C4B53446   4.684  29.653   7.305
 4144POPC   NC353447  39.833   5.839   5.565
 4144POPC   PO453448  40.266   6.277   5.423
 4144POPC   GL153449  40.210   6.044   5.836
 4144POPC   GL253450  40.271   5.652   5.767
 4144POPC   C1A53451  39.970   6.078   6.245
 4144POPC   D2A53452  39.780   6.040   6.674
 4144POPC   C3A53453  39.962   6.197   7.073
 4144POPC   C4A53454  39.813   6.271   7.503
 4144POPC   C1B53455  40.106   5.577   6.166
 4144POPC   C2B53456  40.038   5.594   6.581
 4144POPC   C3B53457  39.997   5.482   7.006
 4144POPC   C4B53458  39.778   5.767   7.283
 4145POPC   NC353459  44.882  22.698   5.413
 4145POPC   PO453460  44.408  23.137   5.407
 4145POPC   GL153461  44.615  22.983   5.778
 4145POPC   GL253462  44.963  23.077   5.812
 4145POPC   C1A53463  44.700  22.852   6.209
 4145POPC   D2A53464  44.521  23.013   6.579
 4145POPC   C3A53465  44.676  22.829   6.936
 4145POPC   C4A53466  44.460  22.975   7.278
 4145POPC   C1B53467   0.148  23.185   6.207
 4145POPC   C2B53468   0.033  23.078   6.587
 4145POPC   C3B53469  44.874  23.292   6.925
 4145POPC   C4B53470  44.860  23.308   7.329
 4146POPC   NC353471  31.986   1.695   5.489
 4146POPC   PO453472  32.506   2.139   5.257
 4146POPC   GL153473  32.338   1.973   5.769
 4146POPC   GL253474  32.283   2.260   5.967
 4146POPC   C1A53475  32.318   1.804   6.215
 4146POPC   D2A53476  31.989   1.787   6.543
 4146POPC   C3A53477  32.117   1.771   6.986
 4146POPC   C4A53478  32.052   1.901   7.409
 4146POPC   C1B53479  32.117   2.264   6.362
 4146POPC   C2B53480  32.365   2.220   6.719
 4146POPC   C3B53481  32.546   2.041   7.075
 4146POPC   C4B53482  32.434   2.253   7.474
 4147POPC   NC353483  29.357   3.183   5.294
 4147POPC   PO453484  28.987   2.604   5.474
 4147POPC   GL153485  29.089   2.672   5.874
 4147POPC   GL253486  29.210   3.018   5.769
 4147POPC   C1A53487  28.983   2.465   6.278
 4147POPC   D2A53488  29.134   2.622   6.675
 4147POPC   C3A53489  29.044   2.580   7.098
 4147POPC   C4A53490  29.051   2.899   7.448
 4147POPC   C1B53491  29.477   2.964   6.148
 4147POPC   C2B53492  29.569   2.896   6.587
 4147POPC   C3B53493  29.395   3.013   7.000
 4147POPC   C4B53494  29.625   3.096   7.360
 4148POPC   NC353495   6.965  42.539   5.632
 4148POPC   PO453496   6.245  42.647   5.545
 4148POPC   GL153497   6.517  42.629   5.882
 4148POPC   GL253498   6.671  42.269   5.957
 4148POPC   C1A53499   6.500  42.621   6.324
 4148POPC   D2A53500   6.816  42.536   6.638
 4148POPC   C3A53501   6.671  42.300   6.994
 4148POPC   C4A53502   6.749  42.432   7.386
 4148POPC   C1B53503   6.387  42.024   6.240
 4148POPC   C2B53504   6.406  41.752   6.618
 4148POPC   C3B53505   6.455  41.820   7.067
 4148POPC   C4B53506   6.311  42.128   7.365
 4149POPC   NC353507  23.665  12.779   5.516
 4149POPC   PO453508  24.041  12.337   5.785
 4149POPC   GL153509  23.806  12.723   6.005
 4149POPC   GL253510  23.824  13.106   5.865
 4149POPC   C1A53511  23.893  12.995   6.363
 4149POPC   D2A53512  24.026  13.099   6.771
 4149POPC   C3A53513  23.966  12.813   7.088
 4149POPC   C4A53514  23.773  12.755   7.473
 4149POPC   C1B53515  23.495  13.253   6.155
 4149POPC   C2B53516  23.441  13.118   6.603
 4149POPC   C3B53517  23.494  13.084   7.043
 4149POPC   C4B53518  23.300  12.913   7.395
 4150POPC   NC353519  37.940  28.588   5.301
 4150POPC   PO453520  37.330  28.263   5.402
 4150POPC   GL153521  37.636  28.396   5.719
 4150POPC   GL253522  37.885  28.152   5.782
 4150POPC   C1A53523  37.545  28.556   6.140
 4150POPC   D2A53524  37.602  28.406   6.582
 4150POPC   C3A53525  37.449  28.692   6.896
 4150POPC   C4A53526  37.495  28.576   7.297
 4150POPC   C1B53527  38.007  28.370   6.204
 4150POPC   C2B53528  38.091  28.589   6.586
 4150POPC   C3B53529  37.951  28.616   6.992
 4150POPC   C4B53530  37.930  28.323   7.328
 4151POPC   NC353531  30.471  42.775   5.331
 4151POPC   PO453532  30.734  43.401   5.375
 4151POPC   GL153533  30.771  43.187   5.755
 4151POPC   GL253534  30.445  43.048   5.760
 4151POPC   C1A53535  30.680  43.185   6.205
 4151POPC   D2A53536  30.685  43.000   6.592
 4151POPC   C3A53537  30.940  43.123   6.927
 4151POPC   C4A53538  30.738  43.178   7.300
 4151POPC   C1B53539  30.211  42.933   6.124
 4151POPC   C2B53540  30.243  42.775   6.524
 4151POPC   C3B53541  30.333  42.756   6.966
 4151POPC   C4B53542  30.390  42.835   7.393
 4152POPC   NC353543  22.021  35.131   5.495
 4152POPC   PO453544  21.584  34.640   5.325
 4152POPC   GL153545  21.356  34.612   5.738
 4152POPC   GL253546  21.574  34.361   5.918
 4152POPC   C1A53547  21.269  34.672   6.179
 4152POPC   D2A53548  21.507  34.498   6.519
 4152POPC   C3A53549  21.306  34.540   6.903
 4152POPC   C4A53550  21.307  34.854   7.190
 4152POPC   C1B53551  21.644  34.045   6.211
 4152POPC   C2B53552  21.574  34.002   6.641
 4152POPC   C3B53553  21.728  34.233   6.966
 4152POPC   C4B53554  21.607  34.433   7.306
 4153POPC   NC353555  18.677  28.381   5.438
 4153POPC   PO453556  19.243  28.788   5.469
 4153POPC   GL153557  19.099  28.479   5.788
 4153POPC   GL253558  18.776  28.528   5.920
 4153POPC   C1A53559  19.156  28.438   6.261
 4153POPC   D2A53560  19.414  28.629   6.612
 4153POPC   C3A53561  19.268  28.492   7.033
 4153POPC   C4A53562  19.267  28.075   7.266
 4153POPC   C1B53563  18.643  28.196   6.213
 4153POPC   C2B53564  18.790  28.081   6.645
 4153POPC   C3B53565  18.804  28.243   7.086
 4153POPC   C4B53566  18.821  28.078   7.522
 4154POPC   NC353567  32.469  13.515   5.310
 4154POPC   PO453568  31.892  13.873   5.497
 4154POPC   GL153569  32.138  13.516   5.717
 4154POPC   GL253570  32.385  13.735   5.788
 4154POPC   C1A53571  32.406  13.395   6.139
 4154POPC   D2A53572  32.463  13.649   6.524
 4154POPC   C3A53573  32.336  13.535   6.981
 4154POPC   C4A53574  31.986  13.543   7.298
 4154POPC   C1B53575  32.032  13.749   6.174
 4154POPC   C2B53576  32.050  13.973   6.609
 4154POPC   C3B53577  32.098  14.009   7.086
 4154POPC   C4B53578  32.064  14.093   7.570
 4155POPC   NC353579  41.512  31.019   5.575
 4155POPC   PO453580  41.688  31.563   5.202
 4155POPC   GL153581  41.644  31.591   5.703
 4155POPC   GL253582  41.331  31.460   5.809
 4155POPC   C1A53583  41.678  31.523   6.200
 4155POPC   D2A53584  41.627  31.298   6.654
 4155POPC   C3A53585  41.634  31.485   7.097
 4155POPC   C4A53586  41.371  31.552   7.451
 4155POPC   C1B53587  41.223  31.352   6.293
 4155POPC   C2B53588  41.084  31.361   6.733
 4155POPC   C3B53589  41.247  31.155   7.105
 4155POPC   C4B53590  41.266  31.069   7.576
 4156POPC   NC353591  10.009  13.146   5.630
 4156POPC   PO453592   9.524  12.730   5.595
 4156POPC   GL153593   9.833  12.661   5.955
 4156POPC   GL253594  10.014  12.337   6.042
 4156POPC   C1A53595   9.819  12.761   6.419
 4156POPC   D2A53596   9.522  12.926   6.776
 4156POPC   C3A53597   9.725  12.983   7.158
 4156POPC   C4A53598  10.085  13.242   7.122
 4156POPC   C1B53599   9.607  12.271   6.241
 4156POPC   C2B53600   9.497  12.428   6.642
 4156POPC   C3B53601   9.838  12.537   6.904
 4156POPC   C4B53602   9.977  12.456   7.317
 4157POPC   NC353603   7.147   7.305   5.037
 4157POPC   PO453604   6.547   7.456   5.324
 4157POPC   GL153605   6.532   7.514   5.725
 4157POPC   GL253606   6.864   7.491   5.752
 4157POPC   C1A53607   6.462   7.347   6.110
 4157POPC   D2A53608   6.549   7.333   6.544
 4157POPC   C3A53609   6.260   7.399   6.886
 4157POPC   C4A53610   6.485   7.358   7.257
 4157POPC   C1B53611   6.916   7.617   6.161
 4157POPC   C2B53612   7.052   7.503   6.557
 4157POPC   C3B53613   6.906   7.386   6.925
 4157POPC   C4B53614   6.902   7.670   7.224
 4158POPC   NC353615  23.316  19.282   5.487
 4158POPC   PO453616  23.944  18.996   5.390
 4158POPC   GL153617  23.732  19.064   5.779
 4158POPC   GL253618  23.915  19.337   5.877
 4158POPC   C1A53619  23.500  19.081   6.180
 4158POPC   D2A53620  23.609  18.950   6.606
 4158POPC   C3A53621  23.341  19.072   6.951
 4158POPC   C4A53622  23.554  18.763   7.184
 4158POPC   C1B53623  24.022  19.137   6.293
 4158POPC   C2B53624  24.228  18.877   6.614
 4158POPC   C3B53625  24.047  18.878   7.015
 4158POPC   C4B53626  23.787  19.228   7.146
 4159POPC   NC353627  41.116  37.164   5.633
 4159POPC   PO453628  40.649  37.480   5.247
 4159POPC   GL153629  40.718  37.469   5.734
 4159POPC   GL253630  40.444  37.472   5.918
 4159POPC   C1A53631  40.870  37.711   6.136
 4159POPC   D2A53632  40.685  37.839   6.555
 4159POPC   C3A53633  40.921  37.887   6.934
 4159POPC   C4A53634  40.992  37.721   7.346
 4159POPC   C1B53635  40.386  37.287   6.323
 4159POPC   C2B53636  40.312  37.510   6.725
 4159POPC   C3B53637  40.543  37.582   7.050
 4159POPC   C4B53638  40.493  37.546   7.485
 4160POPC   NC353639  24.966  39.830   5.487
 4160POPC   PO453640  24.301  39.891   5.367
 4160POPC   GL153641  24.329  40.018   5.821
 4160POPC   GL253642  24.018  40.010   6.037
 4160POPC   C1A53643  24.502  39.850   6.218
 4160POPC   D2A53644  24.474  39.597   6.589
 4160POPC   C3A53645  24.343  39.831   6.939
 4160POPC   C4A53646  24.658  39.980   7.213
 4160POPC   C1B53647  24.254  40.325   6.257
 4160POPC   C2B53648  24.412  40.352   6.679
 4160POPC   C3B53649  24.323  40.336   7.125
 4160POPC   C4B53650  24.172  40.002   7.403
 4161POPC   NC353651  21.840  31.345   5.459
 4161POPC   PO453652  22.423  31.291   5.519
 4161POPC   GL153653  22.350  31.523   5.871
 4161POPC   GL253654  22.068  31.686   5.823
 4161POPC   C1A53655  22.231  31.521   6.311
 4161POPC   D2A53656  22.212  31.421   6.721
 4161POPC   C3A53657  22.449  31.581   7.028
 4161POPC   C4A53658  22.424  31.563   7.476
 4161POPC   C1B53659  21.945  31.911   6.165
 4161POPC   C2B53660  21.769  31.701   6.504
 4161POPC   C3B53661  21.902  31.779   6.891
 4161POPC   C4B53662  21.980  31.535   7.221
 4162POPC   NC353663  32.216   9.389   5.405
 4162POPC   PO453664  32.610   8.853   5.617
 4162POPC   GL153665  32.408   9.154   5.881
 4162POPC   GL253666  32.071   9.120   5.830
 4162POPC   C1A53667  32.320   9.004   6.322
 4162POPC   D2A53668  32.351   8.674   6.648
 4162POPC   C3A53669  32.541   8.776   7.047
 4162POPC   C4A53670  32.443   9.183   7.240
 4162POPC   C1B53671  31.810   9.014   6.195
 4162POPC   C2B53672  31.909   9.094   6.627
 4162POPC   C3B53673  32.037   8.924   7.007
 4162POPC   C4B53674  31.863   8.969   7.384
 4163POPC   NC353675  17.437  25.486   5.415
 4163POPC   PO453676  17.138  24.876   5.563
 4163POPC   GL153677  17.365  25.121   5.825
 4163POPC   GL253678  17.682  25.247   5.810
 4163POPC   C1A53679  17.313  25.408   6.135
 4163POPC   D2A53680  17.291  25.185   6.502
 4163POPC   C3A53681  17.295  25.400   6.879
 4163POPC   C4A53682  17.401  25.313   7.282
 4163POPC   C1B53683  17.748  25.159   6.254
 4163POPC   C2B53684  17.936  25.112   6.660
 4163POPC   C3B53685  17.863  25.317   7.083
 4163POPC   C4B53686  17.841  25.531   7.498
 4164POPC   NC353687  25.693  39.441   5.372
 4164POPC   PO453688  26.154  39.003   5.596
 4164POPC   GL153689  26.035  39.118   6.004
 4164POPC   GL253690  25.757  39.308   5.855
 4164POPC   C1A53691  26.245  39.082   6.427
 4164POPC   D2A53692  26.289  39.398   6.771
 4164POPC   C3A53693  26.365  39.165   7.119
 4164POPC   C4A53694  26.112  38.780   7.154
 4164POPC   C1B53695  25.618  39.473   6.216
 4164POPC   C2B53696  25.750  39.168   6.499
 4164POPC   C3B53697  25.792  39.110   6.909
 4164POPC   C4B53698  25.927  39.420   7.178
 4165POPC   NC353699  39.380   1.938   5.325
 4165POPC   PO453700  38.802   1.700   5.465
 4165POPC   GL153701  39.078   1.950   5.758
 4165POPC   GL253702  39.423   1.956   5.835
 4165POPC   C1A53703  39.050   1.943   6.216
 4165POPC   D2A53704  38.791   1.990   6.593
 4165POPC   C3A53705  38.996   1.828   6.944
 4165POPC   C4A53706  38.902   2.018   7.293
 4165POPC   C1B53707  39.515   2.178   6.241
 4165POPC   C2B53708  39.320   2.232   6.676
 4165POPC   C3B53709  39.385   2.196   7.142
 4165POPC   C4B53710  39.647   2.193   7.543
 4166POPC   NC353711  17.400  24.040   4.883
 4166POPC   PO453712  17.551  23.674   5.368
 4166POPC   GL153713  17.485  23.583   5.793
 4166POPC   GL253714  17.817  23.520   5.843
 4166POPC   C1A53715  17.351  23.736   6.210
 4166POPC   D2A53716  17.429  23.917   6.603
 4166POPC   C3A53717  17.235  23.728   6.942
 4166POPC   C4A53718  17.373  23.664   7.391
 4166POPC   C1B53719  17.840  23.553   6.274
 4166POPC   C2B53720  17.898  23.774   6.653
 4166POPC   C3B53721  17.715  23.894   7.031
 4166POPC   C4B53722  17.873  23.690   7.356
 4167POPC   NC353723  35.214  32.114   5.422
 4167POPC   PO453724  35.370  32.767   5.334
 4167POPC   GL153725  35.441  32.457   5.725
 4167POPC   GL253726  35.395  32.591   6.027
 4167POPC   C1A53727  35.436  32.111   6.125
 4167POPC   D2A53728  35.372  32.257   6.573
 4167POPC   C3A53729  35.561  32.076   6.941
 4167POPC   C4A53730  35.577  32.204   7.352
 4167POPC   C1B53731  35.736  32.510   6.269
 4167POPC   C2B53732  35.690  32.677   6.637
 4167POPC   C3B53733  35.485  32.588   7.008
 4167POPC   C4B53734  35.490  32.790   7.382
 4168POPC   NC353735  18.079  20.236   5.661
 4168POPC   PO453736  18.503  19.729   5.384
 4168POPC   GL153737  18.393  19.787   5.782
 4168POPC   GL253738  18.597  20.048   5.926
 4168POPC   C1A53739  18.457  19.564   6.170
 4168POPC   D2A53740  18.459  19.704   6.607
 4168POPC   C3A53741  18.014  19.703   6.774
 4168POPC   C4A53742  17.870  19.602   7.213
 4168POPC   C1B53743  18.301  20.068   6.245
 4168POPC   C2B53744  18.188  20.165   6.628
 4168POPC   C3B53745  18.449  20.093   6.942
 4168POPC   C4B53746  18.371  19.725   7.137
 4169POPC   NC353747  34.839  17.244   5.595
 4169POPC   PO453748  34.562  17.880   5.443
 4169POPC   GL153749  34.389  17.678   5.846
 4169POPC   GL253750  34.136  17.408   5.742
 4169POPC   C1A53751  34.537  17.673   6.270
 4169POPC   D2A53752  34.779  17.543   6.618
 4169POPC   C3A53753  34.558  17.528   7.020
 4169POPC   C4A53754  34.857  17.692   7.338
 4169POPC   C1B53755  34.108  17.364   6.182
 4169POPC   C2B53756  34.257  17.380   6.599
 4169POPC   C3B53757  34.105  17.226   6.969
 4169POPC   C4B53758  33.909  17.336   7.332
 4170POPC   NC353759  27.673  35.941   5.203
 4170POPC   PO453760  27.418  36.382   5.629
 4170POPC   GL153761  27.316  36.337   6.066
 4170POPC   GL253762  27.233  36.009   6.030
 4170POPC   C1A53763  27.480  36.111   6.459
 4170POPC   D2A53764  27.751  35.978   6.808
 4170POPC   C3A53765  27.618  36.245   7.151
 4170POPC   C4A53766  27.574  36.161   7.616
 4170POPC   C1B53767  27.129  35.721   6.367
 4170POPC   C2B53768  27.215  35.771   6.830
 4170POPC   C3B53769  27.215  35.961   7.267
 4170POPC   C4B53770  27.244  35.774   7.702
 4171POPC   NC353771  29.451  15.075   5.501
 4171POPC   PO453772  29.272  15.719   5.445
 4171POPC   GL153773  29.210  15.455   5.856
 4171POPC   GL253774  29.216  15.065   5.937
 4171POPC   C1A53775  29.242  15.394   6.317
 4171POPC   D2A53776  29.305  15.041   6.587
 4171POPC   C3A53777  29.228  15.128   7.029
 4171POPC   C4A53778  29.312  15.272   7.436
 4171POPC   C1B53779  28.915  14.896   6.218
 4171POPC   C2B53780  28.930  14.642   6.578
 4171POPC   C3B53781  28.836  14.799   6.972
 4171POPC   C4B53782  28.878  14.968   7.395
 4172POPC   NC353783  39.100  26.332   5.480
 4172POPC   PO453784  39.371  26.970   5.592
 4172POPC   GL153785  39.148  26.713   5.858
 4172POPC   GL253786  39.401  26.475   5.861
 4172POPC   C1A53787  39.041  26.646   6.309
 4172POPC   D2A53788  39.214  26.520   6.703
 4172POPC   C3A53789  39.115  26.615   7.149
 4172POPC   C4A53790  38.787  26.861   7.338
 4172POPC   C1B53791  39.544  26.634   6.249
 4172POPC   C2B53792  39.700  26.427   6.618
 4172POPC   C3B53793  39.554  26.360   7.071
 4172POPC   C4B53794  39.445  26.403   7.536
 4173POPC   NC353795  26.531  16.674   5.460
 4173POPC   PO453796  25.971  16.817   5.330
 4173POPC   GL153797  25.874  16.966   5.745
 4173POPC   GL253798  26.243  16.961   5.801
 4173POPC   C1A53799  25.912  16.836   6.190
 4173POPC   D2A53800  26.185  16.552   6.442
 4173POPC   C3A53801  26.064  16.527   6.879
 4173POPC   C4A53802  26.227  16.428   7.309
 4173POPC   C1B53803  26.396  17.076   6.181
 4173POPC   C2B53804  26.202  17.050   6.573
 4173POPC   C3B53805  26.352  16.984   6.989
 4173POPC   C4B53806  25.996  16.883   7.255
 4174POPC   NC353807  41.693  13.249   5.400
 4174POPC   PO453808  41.217  12.806   5.261
 4174POPC   GL153809  41.373  12.941   5.666
 4174POPC   GL253810  41.524  12.658   5.853
 4174POPC   C1A53811  41.241  13.006   6.082
 4174POPC   D2A53812  41.421  12.764   6.429
 4174POPC   C3A53813  41.810  12.874   6.642
 4174POPC   C4A53814  41.803  13.033   7.074
 4174POPC   C1B53815  41.809  12.473   6.142
 4174POPC   C2B53816  41.710  12.336   6.551
 4174POPC   C3B53817  41.490  12.519   6.889
 4174POPC   C4B53818  41.780  12.536   7.200
 4175POPC   NC353819  27.552  32.466   5.410
 4175POPC   PO453820  28.063  32.128   5.559
 4175POPC   GL153821  27.976  32.408   5.906
 4175POPC   GL253822  27.626  32.366   5.927
 4175POPC   C1A53823  27.890  32.447   6.356
 4175POPC   D2A53824  27.777  32.211   6.756
 4175POPC   C3A53825  27.966  32.320   7.166
 4175POPC   C4A53826  27.809  32.320   7.597
 4175POPC   C1B53827  27.454  32.192   6.315
 4175POPC   C2B53828  27.155  32.148   6.652
 4175POPC   C3B53829  27.005  32.211   7.077
 4175POPC   C4B53830  27.305  32.317   7.392
 4176POPC   NC353831  28.259  12.918   5.397
 4176POPC   PO453832  28.543  12.423   5.485
 4176POPC   GL153833  28.513  12.729   5.830
 4176POPC   GL253834  28.371  13.070   5.884
 4176POPC   C1A53835  28.514  12.681   6.275
 4176POPC   D2A53836  28.531  12.904   6.651
 4176POPC   C3A53837  28.750  12.652   6.930
 4176POPC   C4A53838  28.597  12.547   7.293
 4176POPC   C1B53839  28.126  13.029   6.286
 4176POPC   C2B53840  28.091  13.147   6.721
 4176POPC   C3B53841  28.280  12.994   7.117
 4176POPC   C4B53842  28.171  13.184   7.507
 4177POPC   NC353843   9.419  11.197   5.426
 4177POPC   PO453844   9.986  11.466   5.366
 4177POPC   GL153845   9.999  11.364   5.788
 4177POPC   GL253846   9.669  11.356   5.867
 4177POPC   C1A53847  10.093  11.297   6.225
 4177POPC   D2A53848  10.048  11.473   6.655
 4177POPC   C3A53849   9.828  11.125   6.871
 4177POPC   C4A53850   9.517  10.885   7.113
 4177POPC   C1B53851   9.591  11.208   6.278
 4177POPC   C2B53852   9.528  11.445   6.614
 4177POPC   C3B53853   9.575  11.552   7.032
 4177POPC   C4B53854   9.501  11.758   7.406
 4178POPC   NC353855  44.997  26.193   5.362
 4178POPC   PO453856   0.625  26.353   5.322
 4178POPC   GL153857   0.672  26.051   5.680
 4178POPC   GL253858   0.310  25.999   5.739
 4178POPC   C1A53859   0.648  25.954   6.140
 4178POPC   D2A53860   0.462  26.081   6.540
 4178POPC   C3A53861   0.505  25.788   6.871
 4178POPC   C4A53862   0.424  25.966   7.261
 4178POPC   C1B53863   0.133  25.954   6.157
 4178POPC   C2B53864  44.935  26.166   6.487
 4178POPC   C3B53865   0.055  26.138   6.915
 4178POPC   C4B53866  44.935  26.087   7.352
 4179POPC   NC353867  16.247   2.633   5.459
 4179POPC   PO453868  15.829   2.973   5.287
 4179POPC   GL153869  15.900   2.810   5.783
 4179POPC   GL253870  16.131   2.502   5.924
 4179POPC   C1A53871  15.904   2.819   6.251
 4179POPC   D2A53872  16.052   2.773   6.677
 4179POPC   C3A53873  15.822   2.794   7.058
 4179POPC   C4A53874  15.649   2.803   7.453
 4179POPC   C1B53875  15.936   2.283   6.276
 4179POPC   C2B53876  15.905   2.279   6.721
 4179POPC   C3B53877  16.015   2.307   7.158
 4179POPC   C4B53878  15.972   2.131   7.587
 4180POPC   NC353879  40.084  12.416   5.442
 4180POPC   PO453880  40.056  11.733   5.434
 4180POPC   GL153881  39.989  12.036   5.766
 4180POPC   GL253882  39.637  12.171   5.735
 4180POPC   C1A53883  40.191  12.090   6.154
 4180POPC   D2A53884  40.112  12.247   6.558
 4180POPC   C3A53885  40.241  11.981   6.854
 4180POPC   C4A53886  40.099  12.072   7.245
 4180POPC   C1B53887  39.689  12.180   6.168
 4180POPC   C2B53888  39.825  11.838   6.447
 4180POPC   C3B53889  39.733  11.948   6.845
 4180POPC   C4B53890  39.534  12.078   7.209
 4181POPC   NC353891  29.225  29.370   5.350
 4181POPC   PO453892  28.950  28.766   5.490
 4181POPC   GL153893  29.008  29.130   5.779
 4181POPC   GL253894  29.361  29.188   5.839
 4181POPC   C1A53895  28.873  29.373   6.168
 4181POPC   D2A53896  28.930  29.225   6.604
 4181POPC   C3A53897  28.717  29.318   6.971
 4181POPC   C4A53898  28.865  29.366   7.376
 4181POPC   C1B53899  29.359  29.198   6.303
 4181POPC   C2B53900  29.371  29.467   6.691
 4181POPC   C3B53901  29.305  29.328   7.122
 4181POPC   C4B53902  29.364  29.349   7.603
 4182POPC   NC353903  10.151  18.198   5.136
 4182POPC   PO453904  10.801  18.092   5.240
 4182POPC   GL153905  10.685  18.171   5.705
 4182POPC   GL253906  10.435  18.442   5.827
 4182POPC   C1A53907  10.599  18.080   6.151
 4182POPC   D2A53908  10.600  18.324   6.522
 4182POPC   C3A53909  10.601  18.036   6.856
 4182POPC   C4A53910  10.758  17.966   7.241
 4182POPC   C1B53911  10.158  18.360   6.211
 4182POPC   C2B53912  10.094  18.298   6.646
 4182POPC   C3B53913  10.307  18.454   6.959
 4182POPC   C4B53914  10.376  18.285   7.331
 4183POPC   NC353915  11.308  36.750   5.205
 4183POPC   PO453916  11.861  36.911   5.141
 4183POPC   GL153917  11.430  37.063   5.563
 4183POPC   GL253918  11.548  37.233   5.848
 4183POPC   C1A53919  11.285  36.862   6.031
 4183POPC   D2A53920  11.289  36.647   6.456
 4183POPC   C3A53921  11.047  36.887   6.762
 4183POPC   C4A53922  10.932  36.910   7.196
 4183POPC   C1B53923  11.682  37.047   6.261
 4183POPC   C2B53924  11.526  37.066   6.687
 4183POPC   C3B53925  11.655  37.090   7.119
 4183POPC   C4B53926  11.446  37.271   7.485
 4184POPC   NC353927   4.547  10.344   5.397
 4184POPC   PO453928   3.936  10.349   5.489
 4184POPC   GL153929   4.220  10.527   5.743
 4184POPC   GL253930   4.289  10.169   5.804
 4184POPC   C1A53931   4.279  10.705   6.138
 4184POPC   D2A53932   4.549  10.694   6.497
 4184POPC   C3A53933   4.326  10.707   6.905
 4184POPC   C4A53934   4.429  10.453   7.241
 4184POPC   C1B53935   4.261  10.188   6.212
 4184POPC   C2B53936   4.101  10.402   6.548
 4184POPC   C3B53937   4.013  10.294   6.952
 4184POPC   C4B53938   4.038  10.158   7.336
 4185POPC   NC353939  22.456  16.892   5.152
 4185POPC   PO453940  21.791  16.987   5.307
 4185POPC   GL153941  22.012  16.785   5.673
 4185POPC   GL253942  22.369  16.856   5.659
 4185POPC   C1A53943  22.075  16.673   6.129
 4185POPC   D2A53944  21.965  16.717   6.570
 4185POPC   C3A53945  22.192  16.639   6.954
 4185POPC   C4A53946  21.942  16.787   7.275
 4185POPC   C1B53947  22.460  17.041   6.033
 4185POPC   C2B53948  22.495  16.931   6.456
 4185POPC   C3B53949  22.427  17.080   6.860
 4185POPC   C4B53950  22.432  16.989   7.286
 4186POPC   NC353951  24.926  25.040   5.711
 4186POPC   PO453952  25.155  25.592   5.259
 4186POPC   GL153953  25.359  25.357   5.687
 4186POPC   GL253954  25.424  24.986   5.828
 4186POPC   C1A53955  25.391  25.385   6.168
 4186POPC   D2A53956  25.603  25.540   6.553
 4186POPC   C3A53957  25.583  25.310   6.947
 4186POPC   C4A53958  25.303  25.373   7.270
 4186POPC   C1B53959  25.237  24.888   6.295
 4186POPC   C2B53960  25.014  24.911   6.734
 4186POPC   C3B53961  25.043  24.902   7.214
 4186POPC   C4B53962  25.466  24.938   7.479
 4187POPC   NC353963  22.448  37.518   5.482
 4187POPC   PO453964  22.152  38.085   5.319
 4187POPC   GL153965  22.008  37.904   5.745
 4187POPC   GL253966  21.883  37.561   5.709
 4187POPC   C1A53967  22.037  37.995   6.224
 4187POPC   D2A53968  21.898  37.874   6.664
 4187POPC   C3A53969  22.222  37.826   6.984
 4187POPC   C4A53970  22.548  37.541   7.162
 4187POPC   C1B53971  21.848  37.320   6.103
 4187POPC   C2B53972  21.977  37.388   6.529
 4187POPC   C3B53973  22.118  37.320   6.941
 4187POPC   C4B53974  22.052  37.482   7.355
 4188POPC   NC353975  41.155  23.853   5.424
 4188POPC   PO453976  40.584  23.484   5.378
 4188POPC   GL153977  40.604  23.600   5.818
 4188POPC   GL253978  40.946  23.542   5.837
 4188POPC   C1A53979  40.767  23.838   6.213
 4188POPC   D2A53980  40.941  23.773   6.662
 4188POPC   C3A53981  40.681  23.939   7.002
 4188POPC   C4A53982  40.791  23.928   7.396
 4188POPC   C1B53983  40.977  23.383   6.273
 4188POPC   C2B53984  40.709  23.319   6.659
 4188POPC   C3B53985  40.801  23.433   7.082
 4188POPC   C4B53986  41.080  23.502   7.444
 4189POPC   NC353987  18.061  19.659   5.295
 4189POPC   PO453988  18.324  19.015   5.429
 4189POPC   GL153989  18.168  19.057   5.814
 4189POPC   GL253990  17.982  18.721   5.834
 4189POPC   C1A53991  18.103  19.111   6.228
 4189POPC   D2A53992  18.348  19.202   6.567
 4189POPC   C3A53993  18.114  19.232   6.934
 4189POPC   C4A53994  18.303  19.239   7.294
 4189POPC   C1B53995  18.371  18.678   6.082
 4189POPC   C2B53996  18.368  18.694   6.524
 4189POPC   C3B53997  18.345  18.781   6.973
 4189POPC   C4B53998  17.998  18.799   7.257
 4190POPC   NC353999  33.036  41.229   5.272
 4190POPC   PO454000  33.366  41.709   5.528
 4190POPC   GL154001  33.010  41.456   5.730
 4190POPC   GL254002  33.232  41.221   5.840
 4190POPC   C1A54003  32.788  41.297   6.139
 4190POPC   D2A54004  32.601  41.481   6.534
 4190POPC   C3A54005  32.783  41.397   6.949
 4190POPC   C4A54006  33.070  41.285   7.280
 4190POPC   C1B54007  33.221  41.562   6.181
 4190POPC   C2B54008  33.114  41.589   6.611
 4190POPC   C3B54009  33.386  41.571   6.987
 4190POPC   C4B54010  33.595  41.247   7.282
 4191POPC   NC354011  29.575   5.939   5.691
 4191POPC   PO454012  29.942   5.630   5.191
 4191POPC   GL154013  30.069   5.861   5.631
 4191POPC   GL254014  30.076   6.230   5.648
 4191POPC   C1A54015  30.069   5.771   6.132
 4191POPC   D2A54016  30.069   5.911   6.573
 4191POPC   C3A54017  29.763   5.938   6.918
 4191POPC   C4A54018  29.812   6.012   7.370
 4191POPC   C1B54019  30.130   6.285   6.120
 4191POPC   C2B54020  30.131   6.410   6.596
 4191POPC   C3B54021  30.154   6.243   7.036
 4191POPC   C4B54022  30.303   6.225   7.485
 4192POPC   NC354023  21.781   6.383   5.063
 4192POPC   PO454024  21.392   6.869   5.278
 4192POPC   GL154025  21.409   6.633   5.710
 4192POPC   GL254026  21.146   6.358   5.798
 4192POPC   C1A54027  21.359   6.609   6.179
 4192POPC   D2A54028  21.496   6.414   6.538
 4192POPC   C3A54029  21.451   6.594   6.916
 4192POPC   C4A54030  21.648   6.484   7.303
 4192POPC   C1B54031  21.150   6.138   6.209
 4192POPC   C2B54032  21.019   6.272   6.620
 4192POPC   C3B54033  21.107   6.197   7.037
 4192POPC   C4B54034  21.024   6.527   7.277
 4193POPC   NC354035   4.691  32.902   5.366
 4193POPC   PO454036   4.298  33.411   5.434
 4193POPC   GL154037   4.274  33.248   5.816
 4193POPC   GL254038   4.338  32.862   5.787
 4193POPC   C1A54039   4.116  33.389   6.205
 4193POPC   D2A54040   4.014  33.207   6.596
 4193POPC   C3A54041   4.235  33.378   6.972
 4193POPC   C4A54042   4.214  33.273   7.389
 4193POPC   C1B54043   4.425  32.973   6.227
 4193POPC   C2B54044   4.362  32.847   6.650
 4193POPC   C3B54045   4.563  32.969   7.013
 4193POPC   C4B54046   4.516  32.870   7.409
 4194POPC   NC354047   7.729  23.453   5.601
 4194POPC   PO454048   7.839  24.153   5.657
 4194POPC   GL154049   7.754  24.070   6.086
 4194POPC   GL254050   7.634  23.731   6.013
 4194POPC   C1A54051   7.455  23.975   6.434
 4194POPC   D2A54052   7.274  23.573   6.579
 4194POPC   C3A54053   7.214  23.584   7.037
 4194POPC   C4A54054   7.174  24.020   7.197
 4194POPC   C1B54055   7.809  23.558   6.374
 4194POPC   C2B54056   7.724  23.609   6.802
 4194POPC   C3B54057   7.655  23.851   7.164
 4194POPC   C4B54058   7.437  23.680   7.532
 4195POPC   NC354059  10.454  12.467   5.482
 4195POPC   PO454060  10.452  13.106   5.486
 4195POPC   GL154061  10.773  12.889   5.740
 4195POPC   GL254062  10.888  12.541   5.799
 4195POPC   C1A54063  10.855  12.868   6.191
 4195POPC   D2A54064  10.847  12.585   6.548
 4195POPC   C3A54065  10.734  12.900   6.844
 4195POPC   C4A54066  10.553  13.050   7.229
 4195POPC   C1B54067  10.549  12.469   6.132
 4195POPC   C2B54068  10.316  12.573   6.544
 4195POPC   C3B54069  10.343  12.630   7.007
 4195POPC   C4B54070  10.751  12.571   7.251
 4196POPC   NC354071  34.050  28.430   4.978
 4196POPC   PO454072  33.441  28.237   5.354
 4196POPC   GL154073  33.685  28.268   5.775
 4196POPC   GL254074  33.978  28.081   5.830
 4196POPC   C1A54075  33.741  28.518   6.170
 4196POPC   D2A54076  33.539  28.679   6.567
 4196POPC   C3A54077  33.497  28.414   6.904
 4196POPC   C4A54078  33.793  28.453   7.244
 4196POPC   C1B54079  34.090  28.145   6.232
 4196POPC   C2B54080  33.916  28.254   6.614
 4196POPC   C3B54081  34.145  28.237   6.967
 4196POPC   C4B54082  34.211  27.995   7.334
 4197POPC   NC354083  34.892   6.090   5.509
 4197POPC   PO454084  34.480   5.742   5.229
 4197POPC   GL154085  34.497   5.716   5.709
 4197POPC   GL254086  34.160   5.660   5.826
 4197POPC   C1A54087  34.541   5.828   6.187
 4197POPC   D2A54088  34.630   5.729   6.647
 4197POPC   C3A54089  34.830   6.088   6.943
 4197POPC   C4A54090  34.956   6.144   7.399
 4197POPC   C1B54091  34.055   5.988   6.163
 4197POPC   C2B54092  34.276   6.123   6.564
 4197POPC   C3B54093  34.349   5.959   6.987
 4197POPC   C4B54094  34.427   6.139   7.366
 4198POPC   NC354095  14.339  15.279   5.374
 4198POPC   PO454096  13.842  15.623   5.644
 4198POPC   GL154097  14.182  15.305   5.867
 4198POPC   GL254098  14.487  15.081   5.806
 4198POPC   C1A54099  14.195  14.948   6.215
 4198POPC   D2A54100  14.172  14.873   6.686
 4198POPC   C3A54101  14.106  15.257   6.991
 4198POPC   C4A54102  14.164  15.528   7.370
 4198POPC   C1B54103  14.607  15.265   6.198
 4198POPC   C2B54104  14.465  15.289   6.599
 4198POPC   C3B54105  14.563  15.021   6.952
 4198POPC   C4B54106  14.616  15.215   7.301
 4199POPC   NC354107   7.031  41.551   5.491
 4199POPC   PO454108   7.640  41.668   5.207
 4199POPC   GL154109   7.478  41.693   5.650
 4199POPC   GL254110   7.415  41.337   5.754
 4199POPC   C1A54111   7.523  41.759   6.087
 4199POPC   D2A54112   7.367  41.731   6.513
 4199POPC   C3A54113   7.674  41.603   6.845
 4199POPC   C4A54114   7.540  41.803   7.217
 4199POPC   C1B54115   7.189  41.377   6.157
 4199POPC   C2B54116   7.285  41.212   6.567
 4199POPC   C3B54117   7.420  41.184   6.984
 4199POPC   C4B54118   7.241  41.403   7.303
 4200POPC   NC354119   3.052  15.005   5.508
 4200POPC   PO454120   2.525  15.467   5.422
 4200POPC   GL154121   2.856  15.408   5.763
 4200POPC   GL254122   3.211  15.358   5.847
 4200POPC   C1A54123   2.841  15.411   6.211
 4200POPC   D2A54124   2.665  15.425   6.628
 4200POPC   C3A54125   2.878  15.475   7.013
 4200POPC   C4A54126   2.809  15.248   7.359
 4200POPC   C1B54127   3.283  15.052   6.167
 4200POPC   C2B54128   3.070  15.110   6.563
 4200POPC   C3B54129   3.154  15.037   6.975
 4200POPC   C4B54130   3.146  14.868   7.406
 4201POPC   NC354131   5.369  42.231   5.055
 4201POPC   PO454132   5.123  42.600   5.521
 4201POPC   GL154133   4.958  42.463   5.872
 4201POPC   GL254134   4.757  42.180   5.745
 4201POPC   C1A54135   5.098  42.528   6.287
 4201POPC   D2A54136   4.904  42.603   6.651
 4201POPC   C3A54137   5.153  42.566   6.938
 4201POPC   C4A54138   5.255  42.674   7.323
 4201POPC   C1B54139   4.963  42.048   6.152
 4201POPC   C2B54140   4.864  42.084   6.591
 4201POPC   C3B54141   4.971  41.978   7.017
 4201POPC   C4B54142   5.311  42.177   7.216
 4202POPC   NC354143   2.318   6.777   5.254
 4202POPC   PO454144   1.646   6.640   5.324
 4202POPC   GL154145   1.920   6.596   5.711
 4202POPC   GL254146   2.270   6.535   5.746
 4202POPC   C1A54147   1.880   6.558   6.164
 4202POPC   D2A54148   1.713   6.286   6.496
 4202POPC   C3A54149   1.728   6.546   6.848
 4202POPC   C4A54150   1.864   6.746   7.222
 4202POPC   C1B54151   2.407   6.510   6.190
 4202POPC   C2B54152   2.221   6.536   6.613
 4202POPC   C3B54153   2.279   6.482   7.056
 4202POPC   C4B54154   2.446   6.417   7.467
 4203POPC   NC354155  15.809   1.739   5.368
 4203POPC   PO454156  16.100   2.304   5.156
 4203POPC   GL154157  16.115   2.099   5.609
 4203POPC   GL254158  15.805   2.094   5.754
 4203POPC   C1A54159  16.112   1.850   6.063
 4203POPC   D2A54160  15.823   1.769   6.494
 4203POPC   C3A54161  15.939   1.808   6.946
 4203POPC   C4A54162  16.040   1.493   7.245
 4203POPC   C1B54163  15.574   1.907   6.074
 4203POPC   C2B54164  15.443   2.097   6.480
 4203POPC   C3B54165  15.494   2.063   6.933
 4203POPC   C4B54166  15.533   2.256   7.339
 4204POPC   NC354167   1.522  20.574   5.321
 4204POPC   PO454168   1.008  20.195   5.390
 4204POPC   GL154169   1.021  20.567   5.655
 4204POPC   GL254170   1.291  20.751   5.758
 4204POPC   C1A54171   1.018  20.543   6.133
 4204POPC   D2A54172   1.059  20.758   6.535
 4204POPC   C3A54173   1.231  20.550   6.908
 4204POPC   C4A54174   1.474  20.820   7.162
 4204POPC   C1B54175   1.499  20.717   6.165
 4204POPC   C2B54176   1.568  20.473   6.540
 4204POPC   C3B54177   1.782  20.487   6.955
 4204POPC   C4B54178   1.774  20.490   7.453
 4205POPC   NC354179  14.700  11.506   5.481
 4205POPC   PO454180  14.446  12.094   5.336
 4205POPC   GL154181  14.303  12.059   5.796
 4205POPC   GL254182  14.142  11.692   5.837
 4205POPC   C1A54183  14.502  12.184   6.222
 4205POPC   D2A54184  14.528  12.357   6.645
 4205POPC   C3A54185  14.604  12.061   6.995
 4205POPC   C4A54186  14.657  12.278   7.339
 4205POPC   C1B54187  14.086  11.889   6.236
 4205POPC   C2B54188  14.258  11.900   6.635
 4205POPC   C3B54189  14.100  12.064   7.015
 4205POPC   C4B54190  14.222  11.964   7.431
 4206POPC   NC354191  29.340  11.466   5.454
 4206POPC   PO454192  28.647  11.423   5.426
 4206POPC   GL154193  28.961  11.171   5.734
 4206POPC   GL254194  29.369  11.158   5.862
 4206POPC   C1A54195  28.993  11.239   6.175
 4206POPC   D2A54196  29.080  11.392   6.562
 4206POPC   C3A54197  29.079  11.117   6.906
 4206POPC   C4A54198  29.277  10.987   7.272
 4206POPC   C1B54199  29.525  11.376   6.301
 4206POPC   C2B54200  29.552  11.353   6.794
 4206POPC   C3B54201  29.322  11.487   7.194
 4206POPC   C4B54202  29.454  11.659   7.613
 4207POPC   NC354203  29.022  33.434   5.438
 4207POPC   PO454204  29.343  34.140   5.445
 4207POPC   GL154205  29.255  33.825   5.744
 4207POPC   GL254206  28.913  33.844   5.775
 4207POPC   C1A54207  29.201  33.621   6.163
 4207POPC   D2A54208  29.034  33.518   6.587
 4207POPC   C3A54209  29.300  33.636   6.935
 4207POPC   C4A54210  29.169  33.605   7.334
 4207POPC   C1B54211  28.828  34.012   6.185
 4207POPC   C2B54212  28.691  33.929   6.613
 4207POPC   C3B54213  28.848  33.866   7.021
 4207POPC   C4B54214  28.780  34.061   7.441
 4208POPC   NC354215   7.483  25.745   5.476
 4208POPC   PO454216   6.920  26.242   5.427
 4208POPC   GL154217   7.259  26.231   5.788
 4208POPC   GL254218   7.426  25.955   5.928
 4208POPC   C1A54219   7.502  26.409   6.140
 4208POPC   D2A54220   7.385  26.290   6.557
 4208POPC   C3A54221   7.581  26.434   6.953
 4208POPC   C4A54222   7.450  26.316   7.406
 4208POPC   C1B54223   7.213  25.779   6.285
 4208POPC   C2B54224   7.310  25.792   6.711
 4208POPC   C3B54225   7.534  25.933   7.074
 4208POPC   C4B54226   7.322  25.817   7.421
 4209POPC   NC354227   5.659  35.609   5.251
 4209POPC   PO454228   6.060  35.178   5.335
 4209POPC   GL154229   5.924  35.426   5.744
 4209POPC   GL254230   5.566  35.598   5.770
 4209POPC   C1A54231   5.998  35.378   6.223
 4209POPC   D2A54232   5.990  35.229   6.684
 4209POPC   C3A54233   5.959  35.509   7.062
 4209POPC   C4A54234   5.945  35.515   7.539
 4209POPC   C1B54235   5.485  35.397   6.160
 4209POPC   C2B54236   5.562  35.489   6.573
 4209POPC   C3B54237   5.493  35.246   6.923
 4209POPC   C4B54238   5.663  35.161   7.299
 4210POPC   NC354239   9.271  32.923   5.562
 4210POPC   PO454240   8.626  32.812   5.510
 4210POPC   GL154241   8.834  33.044   5.814
 4210POPC   GL254242   8.718  33.390   5.755
 4210POPC   C1A54243   9.075  32.957   6.190
 4210POPC   D2A54244   9.020  33.147   6.565
 4210POPC   C3A54245   9.162  32.957   6.924
 4210POPC   C4A54246   8.880  33.048   7.271
 4210POPC   C1B54247   8.954  33.463   6.146
 4210POPC   C2B54248   8.914  33.648   6.567
 4210POPC   C3B54249   8.745  33.408   6.928
 4210POPC   C4B54250   8.490  33.382   7.304
 4211POPC   NC354251  42.963  26.947   5.435
 4211POPC   PO454252  43.617  26.712   5.334
 4211POPC   GL154253  43.316  26.576   5.700
 4211POPC   GL254254  42.986  26.559   5.757
 4211POPC   C1A54255  43.297  26.466   6.157
 4211POPC   D2A54256  43.128  26.655   6.518
 4211POPC   C3A54257  43.243  26.640   6.947
 4211POPC   C4A54258  43.112  26.950   7.182
 4211POPC   C1B54259  42.875  26.844   6.080
 4211POPC   C2B54260  42.700  26.909   6.462
 4211POPC   C3B54261  42.746  26.801   6.879
 4211POPC   C4B54262  42.716  26.672   7.320
 4212POPC   NC354263  17.445  44.350   5.597
 4212POPC   PO454264  17.545  43.715   5.303
 4212POPC   GL154265  17.631  43.899   5.736
 4212POPC   GL254266  17.898  44.181   5.779
 4212POPC   C1A54267  17.411  43.969   6.150
 4212POPC   D2A54268  17.439  43.743   6.528
 4212POPC   C3A54269  17.308  43.956   6.859
 4212POPC   C4A54270  17.301  44.062   7.294
 4212POPC   C1B54271  17.846  44.264   6.235
 4212POPC   C2B54272  17.620  44.289   6.642
 4212POPC   C3B54273  17.743  44.083   7.054
 4212POPC   C4B54274  17.743  44.182   7.544
 4213POPC   NC354275  16.337  30.932   5.505
 4213POPC   PO454276  16.986  30.737   5.449
 4213POPC   GL154277  16.889  30.506   5.854
 4213POPC   GL254278  16.519  30.572   5.848
 4213POPC   C1A54279  16.943  30.520   6.323
 4213POPC   D2A54280  17.024  30.789   6.696
 4213POPC   C3A54281  16.885  30.688   7.109
 4213POPC   C4A54282  16.798  31.045   7.328
 4213POPC   C1B54283  16.456  30.707   6.272
 4213POPC   C2B54284  16.533  30.658   6.704
 4213POPC   C3B54285  16.380  30.791   7.091
 4213POPC   C4B54286  16.462  30.621   7.475
 4214POPC   NC354287  43.253  10.760   5.482
 4214POPC   PO454288  43.098  10.163   5.330
 4214POPC   GL154289  43.124  10.356   5.773
 4214POPC   GL254290  43.415  10.250   5.947
 4214POPC   C1A54291  42.994  10.474   6.225
 4214POPC   D2A54292  43.148  10.331   6.642
 4214POPC   C3A54293  42.975  10.482   7.054
 4214POPC   C4A54294  42.881  10.586   7.465
 4214POPC   C1B54295  43.522  10.559   6.221
 4214POPC   C2B54296  43.536  10.681   6.617
 4214POPC   C3B54297  43.443  10.597   7.003
 4214POPC   C4B54298  43.390  10.321   7.303
 4215POPC   NC354299  14.675  37.544   5.555
 4215POPC   PO454300  14.047  37.886   5.388
 4215POPC   GL154301  14.080  37.691   5.766
 4215POPC   GL254302  14.374  37.798   5.854
 4215POPC   C1A54303  14.119  37.546   6.199
 4215POPC   D2A54304  14.380  37.565   6.557
 4215POPC   C3A54305  14.200  37.484   6.968
 4215POPC   C4A54306  14.165  37.542   7.430
 4215POPC   C1B54307  14.050  38.048   6.114
 4215POPC   C2B54308  13.977  37.946   6.538
 4215POPC   C3B54309  14.214  38.034   6.898
 4215POPC   C4B54310  14.486  37.850   7.219
 4216POPC   NC354311  34.425  14.796   5.331
 4216POPC   PO454312  34.537  14.150   5.367
 4216POPC   GL154313  34.562  14.438   5.738
 4216POPC   GL254314  34.214  14.545   5.806
 4216POPC   C1A54315  34.483  14.334   6.187
 4216POPC   D2A54316  34.544  14.046   6.526
 4216POPC   C3A54317  34.489  14.274   6.881
 4216POPC   C4A54318  34.664  14.354   7.260
 4216POPC   C1B54319  34.236  14.800   6.203
 4216POPC   C2B54320  34.435  14.722   6.607
 4216POPC   C3B54321  34.358  14.748   7.079
 4216POPC   C4B54322  34.410  14.686   7.552
 4217POPC   NC354323  38.670  10.562   5.250
 4217POPC   PO454324  38.165  10.084   5.413
 4217POPC   GL154325  38.388  10.237   5.768
 4217POPC   GL254326  38.674  10.491   5.748
 4217POPC   C1A54327  38.377  10.404   6.198
 4217POPC   D2A54328  38.409  10.247   6.608
 4217POPC   C3A54329  38.468  10.528   6.918
 4217POPC   C4A54330  38.343  10.560   7.337
 4217POPC   C1B54331  38.841  10.179   6.006
 4217POPC   C2B54332  38.888  10.176   6.426
 4217POPC   C3B54333  38.897  10.138   6.864
 4217POPC   C4B54334  38.669  10.166   7.200
 4218POPC   NC354335  16.522  16.188   5.525
 4218POPC   PO454336  17.147  16.178   5.612
 4218POPC   GL154337  16.875  15.929   5.886
 4218POPC   GL254338  16.682  15.715   5.635
 4218POPC   C1A54339  16.718  16.054   6.309
 4218POPC   D2A54340  16.441  16.360   6.498
 4218POPC   C3A54341  16.357  16.393   6.954
 4218POPC   C4A54342  16.529  16.175   7.344
 4218POPC   C1B54343  16.413  15.703   6.022
 4218POPC   C2B54344  16.351  15.722   6.462
 4218POPC   C3B54345  16.559  15.918   6.844
 4218POPC   C4B54346  16.634  15.667   7.248
 4219POPC   NC354347  29.312   8.412   5.375
 4219POPC   PO454348  28.691   8.040   5.497
 4219POPC   GL154349  28.986   8.249   5.767
 4219POPC   GL254350  29.287   8.018   5.757
 4219POPC   C1A54351  29.100   8.324   6.190
 4219POPC   D2A54352  29.140   8.114   6.596
 4219POPC   C3A54353  29.180   8.286   7.019
 4219POPC   C4A54354  28.847   8.395   7.267
 4219POPC   C1B54355  29.488   8.010   6.174
 4219POPC   C2B54356  29.528   7.774   6.535
 4219POPC   C3B54357  29.464   7.853   6.941
 4219POPC   C4B54358  29.518   7.859   7.381
 4220POPC   NC354359  18.555  12.808   5.345
 4220POPC   PO454360  19.235  12.967   5.285
 4220POPC   GL154361  19.147  13.053   5.720
 4220POPC   GL254362  18.777  13.175   5.778
 4220POPC   C1A54363  19.330  12.873   6.123
 4220POPC   D2A54364  19.337  12.584   6.513
 4220POPC   C3A54365  19.244  12.769   6.944
 4220POPC   C4A54366  18.842  12.854   7.161
 4220POPC   C1B54367  18.652  13.365   6.201
 4220POPC   C2B54368  18.653  13.296   6.652
 4220POPC   C3B54369  18.584  13.301   7.092
 4220POPC   C4B54370  18.783  13.257   7.476
 4221POPC   NC354371  31.844  38.792   5.494
 4221POPC   PO454372  32.317  38.366   5.204
 4221POPC   GL154373  32.348  38.330   5.666
 4221POPC   GL254374  32.050  38.419   5.762
 4221POPC   C1A54375  32.318  38.229   6.136
 4221POPC   D2A54376  32.358  38.498   6.487
 4221POPC   C3A54377  32.325  38.408   6.903
 4221POPC   C4A54378  32.165  38.515   7.297
 4221POPC   C1B54379  32.181  38.752   6.083
 4221POPC   C2B54380  32.175  38.966   6.516
 4221POPC   C3B54381  32.112  38.909   6.955
 4221POPC   C4B54382  32.308  38.985   7.352
 4222POPC   NC354383  31.805  40.313   5.375
 4222POPC   PO454384  31.402  39.804   5.310
 4222POPC   GL154385  31.320  39.876   5.769
 4222POPC   GL254386  31.609  40.064   5.851
 4222POPC   C1A54387  31.162  39.931   6.226
 4222POPC   D2A54388  31.299  39.759   6.667
 4222POPC   C3A54389  31.181  39.933   7.098
 4222POPC   C4A54390  31.028  39.985   7.548
 4222POPC   C1B54391  31.649  39.828   6.266
 4222POPC   C2B54392  31.720  40.055   6.658
 4222POPC   C3B54393  31.652  40.198   7.092
 4222POPC   C4B54394  31.534  40.017   7.468
 4223POPC   NC354395   0.314  28.895   5.575
 4223POPC   PO454396   0.688  29.505   5.442
 4223POPC   GL154397   0.578  29.275   5.826
 4223POPC   GL254398   0.801  28.970   5.797
 4223POPC   C1A54399   0.223  29.172   6.164
 4223POPC   D2A54400   0.312  29.216   6.594
 4223POPC   C3A54401   0.123  29.128   6.971
 4223POPC   C4A54402   0.331  29.208   7.345
 4223POPC   C1B54403   0.656  28.923   6.209
 4223POPC   C2B54404   0.807  29.083   6.568
 4223POPC   C3B54405   0.660  28.981   6.975
 4223POPC   C4B54406   0.710  28.896   7.438
 4224POPC   NC354407   2.395  23.125   5.161
 4224POPC   PO454408   2.603  23.391   5.771
 4224POPC   GL154409   2.878  23.143   6.029
 4224POPC   GL254410   2.954  22.785   5.960
 4224POPC   C1A54411   2.803  22.926   6.422
 4224POPC   D2A54412   2.587  22.616   6.630
 4224POPC   C3A54413   2.506  22.890   6.956
 4224POPC   C4A54414   2.727  22.917   7.329
 4224POPC   C1B54415   3.120  22.465   6.239
 4224POPC   C2B54416   3.015  22.315   6.629
 4224POPC   C3B54417   2.931  22.546   7.025
 4224POPC   C4B54418   3.207  22.431   7.343
 4225POPC   NC354419   4.516   2.238   5.343
 4225POPC   PO454420   3.898   2.024   5.493
 4225POPC   GL154421   4.277   1.961   5.811
 4225POPC   GL254422   4.521   2.221   5.867
 4225POPC   C1A54423   4.402   1.925   6.274
 4225POPC   D2A54424   4.229   2.200   6.594
 4225POPC   C3A54425   3.993   2.084   6.944
 4225POPC   C4A54426   4.108   1.846   7.307
 4225POPC   C1B54427   4.692   2.374   6.286
 4225POPC   C2B54428   4.680   2.379   6.736
 4225POPC   C3B54429   4.491   2.091   7.030
 4225POPC   C4B54430   4.645   1.821   7.323
 4226POPC   NC354431  14.148  42.294   5.258
 4226POPC   PO454432  14.629  41.901   5.570
 4226POPC   GL154433  14.462  42.299   5.708
 4226POPC   GL254434  14.659  42.627   5.741
 4226POPC   C1A54435  14.385  42.418   6.120
 4226POPC   D2A54436  14.306  42.665   6.478
 4226POPC   C3A54437  14.133  42.414   6.821
 4226POPC   C4A54438  14.249  42.341   7.232
 4226POPC   C1B54439  14.733  42.786   6.214
 4226POPC   C2B54440  14.814  42.492   6.545
 4226POPC   C3B54441  14.632  42.536   6.926
 4226POPC   C4B54442  14.608  42.687   7.334
 4227POPC   NC354443  22.165  42.718   5.364
 4227POPC   PO454444  22.084  42.088   5.219
 4227POPC   GL154445  21.947  42.215   5.709
 4227POPC   GL254446  21.849  42.574   5.718
 4227POPC   C1A54447  22.164  42.184   6.169
 4227POPC   D2A54448  22.364  42.180   6.607
 4227POPC   C3A54449  22.120  42.228   7.000
 4227POPC   C4A54450  22.309  42.238   7.420
 4227POPC   C1B54451  22.021  42.656   6.106
 4227POPC   C2B54452  21.964  42.521   6.527
 4227POPC   C3B54453  22.126  42.724   6.894
 4227POPC   C4B54454  21.997  42.668   7.305
 4228POPC   NC354455  40.398   1.092   5.464
 4228POPC   PO454456  41.049   1.309   5.302
 4228POPC   GL154457  41.074   1.422   5.749
 4228POPC   GL254458  40.962   1.105   5.809
 4228POPC   C1A54459  40.986   1.438   6.208
 4228POPC   D2A54460  40.703   1.310   6.511
 4228POPC   C3A54461  40.883   1.302   6.921
 4228POPC   C4A54462  40.611   1.168   7.220
 4228POPC   C1B54463  40.874   0.881   6.199
 4228POPC   C2B54464  40.999   0.610   6.537
 4228POPC   C3B54465  41.011   0.781   6.920
 4228POPC   C4B54466  41.066   0.940   7.309
 4229POPC   NC354467  19.572   8.445   5.306
 4229POPC   PO454468  19.869   8.994   5.196
 4229POPC   GL154469  19.775   8.752   5.635
 4229POPC   GL254470  20.074   8.622   5.823
 4229POPC   C1A54471  19.574   8.646   6.030
 4229POPC   D2A54472  19.627   8.515   6.483
 4229POPC   C3A54473  19.545   8.807   6.810
 4229POPC   C4A54474  19.754   8.890   7.207
 4229POPC   C1B54475  19.989   8.818   6.258
 4229POPC   C2B54476  19.977   9.034   6.683
 4229POPC   C3B54477  20.225   9.005   7.058
 4229POPC   C4B54478  20.219   8.848   7.480
 4230POPC   NC354479  22.154  26.577   5.412
 4230POPC   PO454480  22.282  27.273   5.399
 4230POPC   GL154481  22.201  26.997   5.694
 4230POPC   GL254482  22.481  26.768   5.763
 4230POPC   C1A54483  22.105  26.892   6.079
 4230POPC   D2A54484  22.210  26.985   6.476
 4230POPC   C3A54485  22.003  26.732   6.784
 4230POPC   C4A54486  21.991  26.747   7.232
 4230POPC   C1B54487  22.598  26.752   6.219
 4230POPC   C2B54488  22.517  26.619   6.680
 4230POPC   C3B54489  22.472  26.865   7.059
 4230POPC   C4B54490  22.406  26.792   7.530
 4231POPC   NC354491  33.998  26.324   5.515
 4231POPC   PO454492  33.408  25.979   5.542
 4231POPC   GL154493  33.567  25.831   5.839
 4231POPC   GL254494  33.907  25.880   5.828
 4231POPC   C1A54495  33.568  26.082   6.187
 4231POPC   D2A54496  33.721  26.217   6.567
 4231POPC   C3A54497  33.667  25.868   6.811
 4231POPC   C4A54498  33.579  25.913   7.216
 4231POPC   C1B54499  34.065  26.108   6.205
 4231POPC   C2B54500  34.146  25.935   6.648
 4231POPC   C3B54501  34.054  26.061   7.109
 4231POPC   C4B54502  34.269  26.195   7.511
 4232POPC   NC354503  43.442  17.497   5.561
 4232POPC   PO454504  42.837  17.663   5.422
 4232POPC   GL154505  42.779  17.528   5.848
 4232POPC   GL254506  42.841  17.177   5.809
 4232POPC   C1A54507  42.629  17.397   6.266
 4232POPC   D2A54508  42.831  17.303   6.673
 4232POPC   C3A54509  42.808  17.622   6.999
 4232POPC   C4A54510  43.027  17.679   7.379
 4232POPC   C1B54511  43.111  17.218   6.215
 4232POPC   C2B54512  43.327  17.167   6.638
 4232POPC   C3B54513  43.264  17.377   7.037
 4232POPC   C4B54514  43.545  17.644   7.310
 4233POPC   NC354515  42.746  30.090   5.309
 4233POPC   PO454516  43.235  29.714   5.318
 4233POPC   GL154517  43.156  29.800   5.752
 4233POPC   GL254518  42.853  29.988   5.794
 4233POPC   C1A54519  42.924  29.620   6.125
 4233POPC   D2A54520  42.698  29.717   6.477
 4233POPC   C3A54521  42.837  29.683   6.912
 4233POPC   C4A54522  42.712  30.011   7.188
 4233POPC   C1B54523  42.926  30.147   6.214
 4233POPC   C2B54524  43.156  30.248   6.586
 4233POPC   C3B54525  43.209  30.055   6.962
 4233POPC   C4B54526  43.556  29.979   7.202
 4234POPC   NC354527   7.820  17.751   5.446
 4234POPC   PO454528   8.492  17.699   5.486
 4234POPC   GL154529   8.382  17.549   5.889
 4234POPC   GL254530   8.128  17.365   5.722
 4234POPC   C1A54531   8.414  17.494   6.358
 4234POPC   D2A54532   8.262  17.297   6.687
 4234POPC   C3A54533   8.127  17.536   7.022
 4234POPC   C4A54534   8.406  17.471   7.310
 4234POPC   C1B54535   8.127  17.138   6.120
 4234POPC   C2B54536   7.872  17.045   6.475
 4234POPC   C3B54537   7.835  17.124   6.900
 4234POPC   C4B54538   8.099  17.070   7.263
 4235POPC   NC354539  44.285  14.392   5.476
 4235POPC   PO454540  44.660  14.766   5.185
 4235POPC   GL154541  44.674  14.608   5.753
 4235POPC   GL254542  44.372  14.647   5.987
 4235POPC   C1A54543  44.700  14.295   6.154
 4235POPC   D2A54544  44.823  14.083   6.562
 4235POPC   C3A54545  44.547  14.267   6.889
 4235POPC   C4A54546  44.653  14.315   7.296
 4235POPC   C1B54547  44.626  14.799   6.340
 4235POPC   C2B54548  44.633  14.785   6.804
 4235POPC   C3B54549  44.784  14.791   7.229
 4235POPC   C4B54550  44.674  14.706   7.661
 4236POPC   NC354551  19.616   0.750   5.496
 4236POPC   PO454552  20.038   0.250   5.463
 4236POPC   GL154553  19.999   0.514   5.790
 4236POPC   GL254554  20.276   0.290   5.928
 4236POPC   C1A54555  19.760   0.689   6.149
 4236POPC   D2A54556  19.638   0.695   6.570
 4236POPC   C3A54557  19.808   0.577   6.937
 4236POPC   C4A54558  19.830   0.709   7.341
 4236POPC   C1B54559  19.900   0.194   6.188
 4236POPC   C2B54560  19.758   0.175   6.609
 4236POPC   C3B54561  19.779   0.086   7.053
 4236POPC   C4B54562  20.044   0.273   7.313
 4237POPC   NC354563  21.737  38.261   5.481
 4237POPC   PO454564  21.199  38.745   5.400
 4237POPC   GL154565  21.183  38.725   5.817
 4237POPC   GL254566  21.402  38.432   5.828
 4237POPC   C1A54567  21.423  38.801   6.188
 4237POPC   D2A54568  21.569  38.624   6.563
 4237POPC   C3A54569  21.406  38.752   6.937
 4237POPC   C4A54570  21.174  38.609   7.267
 4237POPC   C1B54571  21.576  38.261   6.195
 4237POPC   C2B54572  21.459  38.131   6.618
 4237POPC   C3B54573  21.646  38.190   7.010
 4237POPC   C4B54574  21.618  38.369   7.390
 4238POPC   NC354575  25.585  13.004   5.637
 4238POPC   PO454576  26.261  12.808   5.461
 4238POPC   GL154577  26.145  12.866   5.897
 4238POPC   GL254578  26.447  13.050   5.949
 4238POPC   C1A54579  25.852  12.952   6.296
 4238POPC   D2A54580  25.600  13.171   6.668
 4238POPC   C3A54581  25.780  12.916   7.025
 4238POPC   C4A54582  26.113  12.636   7.242
 4238POPC   C1B54583  26.360  12.944   6.371
 4238POPC   C2B54584  26.300  12.878   6.822
 4238POPC   C3B54585  26.228  13.182   7.156
 4238POPC   C4B54586  26.366  13.248   7.642
 4239POPC   NC354587  18.961  30.046   5.264
 4239POPC   PO454588  19.368  29.509   5.391
 4239POPC   GL154589  19.183  29.769   5.766
 4239POPC   GL254590  18.969  30.086   5.786
 4239POPC   C1A54591  19.121  29.845   6.238
 4239POPC   D2A54592  19.106  29.685   6.648
 4239POPC   C3A54593  19.350  29.911   6.923
 4239POPC   C4A54594  19.144  30.044   7.275
 4239POPC   C1B54595  19.025  30.340   6.197
 4239POPC   C2B54596  19.104  30.224   6.628
 4239POPC   C3B54597  18.869  30.404   7.020
 4239POPC   C4B54598  18.724  30.386   7.474
 4240POPC   NC354599   1.309   2.453   5.087
 4240POPC   PO454600   1.351   1.842   5.402
 4240POPC   GL154601   1.116   2.000   5.796
 4240POPC   GL254602   1.120   2.356   5.744
 4240POPC   C1A54603   1.085   1.958   6.270
 4240POPC   D2A54604   1.476   1.903   6.521
 4240POPC   C3A54605   1.423   1.738   6.913
 4240POPC   C4A54606   1.064   1.769   7.198
 4240POPC   C1B54607   1.397   2.323   6.129
 4240POPC   C2B54608   1.282   2.390   6.530
 4240POPC   C3B54609   1.157   2.176   6.869
 4240POPC   C4B54610   1.307   2.208   7.271
 4241POPC   NC354611   0.680  43.489   5.239
 4241POPC   PO454612   0.237  44.036   5.327
 4241POPC   GL154613   0.299  44.091   5.756
 4241POPC   GL254614   0.469  43.773   5.771
 4241POPC   C1A54615   0.536  44.160   6.107
 4241POPC   D2A54616   0.622  44.108   6.518
 4241POPC   C3A54617   0.335  44.090   6.816
 4241POPC   C4A54618   0.402  44.081   7.257
 4241POPC   C1B54619   0.677  43.665   6.185
 4241POPC   C2B54620   0.532  43.573   6.607
 4241POPC   C3B54621   0.580  43.653   7.041
 4241POPC   C4B54622   0.438  43.575   7.490
 4242POPC   NC354623  27.293  38.607   5.515
 4242POPC   PO454624  27.538  38.018   5.456
 4242POPC   GL154625  27.356  38.210   5.830
 4242POPC   GL254626  27.682  38.371   5.875
 4242POPC   C1A54627  27.383  38.438   6.263
 4242POPC   D2A54628  27.557  38.481   6.648
 4242POPC   C3A54629  27.405  38.596   7.004
 4242POPC   C4A54630  27.539  38.939   7.230
 4242POPC   C1B54631  27.842  38.176   6.282
 4242POPC   C2B54632  27.966  38.166   6.727
 4242POPC   C3B54633  27.942  38.437   7.109
 4242POPC   C4B54634  28.058  38.310   7.548
 4243POPC   NC354635  12.035  20.813   5.452
 4243POPC   PO454636  12.057  20.125   5.314
 4243POPC   GL154637  12.146  20.348   5.726
 4243POPC   GL254638  11.861  20.439   5.872
 4243POPC   C1A54639  12.259  20.347   6.192
 4243POPC   D2A54640  12.206  20.581   6.612
 4243POPC   C3A54641  12.111  20.380   7.005
 4243POPC   C4A54642  12.496  20.434   7.191
 4243POPC   C1B54643  11.891  20.703   6.232
 4243POPC   C2B54644  11.702  20.624   6.639
 4243POPC   C3B54645  11.786  20.779   7.064
 4243POPC   C4B54646  11.950  21.007   7.444
 4244POPC   NC354647  25.966   8.742   5.384
 4244POPC   PO454648  26.296   9.346   5.294
 4244POPC   GL154649  26.089   9.147   5.657
 4244POPC   GL254650  26.319   8.912   5.777
 4244POPC   C1A54651  25.770   9.115   6.013
 4244POPC   D2A54652  25.706   8.984   6.469
 4244POPC   C3A54653  25.950   9.063   6.864
 4244POPC   C4A54654  25.783   9.097   7.285
 4244POPC   C1B54655  26.144   8.807   6.189
 4244POPC   C2B54656  26.037   8.599   6.595
 4244POPC   C3B54657  26.237   8.600   7.000
 4244POPC   C4B54658  26.197   8.834   7.405
 4245POPC   NC354659  19.309   2.189   5.403
 4245POPC   PO454660  18.689   1.773   5.501
 4245POPC   GL154661  19.003   1.928   5.751
 4245POPC   GL254662  19.301   1.719   5.661
 4245POPC   C1A54663  18.951   2.070   6.186
 4245POPC   D2A54664  19.158   2.238   6.557
 4245POPC   C3A54665  18.936   2.139   6.945
 4245POPC   C4A54666  18.912   1.804   7.248
 4245POPC   C1B54667  19.417   1.887   6.057
 4245POPC   C2B54668  19.397   1.774   6.478
 4245POPC   C3B54669  19.389   1.925   6.882
 4245POPC   C4B54670  19.490   2.028   7.283
 4246POPC   NC354671   5.302  11.426   5.575
 4246POPC   PO454672   4.807  11.033   5.228
 4246POPC   GL154673   4.913  11.105   5.723
 4246POPC   GL254674   5.256  10.989   5.840
 4246POPC   C1A54675   4.966  11.334   6.165
 4246POPC   D2A54676   5.005  11.675   6.511
 4246POPC   C3A54677   4.962  11.517   6.949
 4246POPC   C4A54678   4.914  11.105   7.204
 4246POPC   C1B54679   5.399  11.062   6.259
 4246POPC   C2B54680   5.231  11.182   6.650
 4246POPC   C3B54681   5.392  11.237   7.060
 4246POPC   C4B54682   5.438  10.990   7.377
 4247POPC   NC354683  25.607   4.698   5.492
 4247POPC   PO454684  25.135   4.271   5.430
 4247POPC   GL154685  25.161   4.505   5.816
 4247POPC   GL254686  24.944   4.802   5.887
 4247POPC   C1A54687  25.233   4.303   6.207
 4247POPC   D2A54688  25.028   4.112   6.556
 4247POPC   C3A54689  25.336   4.120   6.887
 4247POPC   C4A54690  25.384   4.107   7.313
 4247POPC   C1B54691  25.141   4.804   6.292
 4247POPC   C2B54692  24.998   4.632   6.700
 4247POPC   C3B54693  24.908   4.333   7.045
 4247POPC   C4B54694  25.175   4.559   7.309
 4248POPC   NC354695   5.915  18.533   5.316
 4248POPC   PO454696   6.169  17.945   5.443
 4248POPC   GL154697   6.124  18.206   5.834
 4248POPC   GL254698   5.773  18.225   6.037
 4248POPC   C1A54699   6.194  18.405   6.234
 4248POPC   D2A54700   5.950  18.349   6.611
 4248POPC   C3A54701   6.243  18.380   6.940
 4248POPC   C4A54702   6.264  18.462   7.366
 4248POPC   C1B54703   6.029  17.926   6.308
 4248POPC   C2B54704   6.104  17.870   6.775
 4248POPC   C3B54705   5.861  18.084   7.138
 4248POPC   C4B54706   5.592  17.900   7.513
 4249POPC   NC354707  11.832  30.530   5.588
 4249POPC   PO454708  12.329  30.850   5.212
 4249POPC   GL154709  12.275  30.747   5.664
 4249POPC   GL254710  11.983  30.969   5.805
 4249POPC   C1A54711  12.320  30.724   6.136
 4249POPC   D2A54712  12.427  30.682   6.564
 4249POPC   C3A54713  12.269  31.015   6.813
 4249POPC   C4A54714  12.255  31.083   7.241
 4249POPC   C1B54715  11.792  30.836   6.196
 4249POPC   C2B54716  11.910  30.561   6.531
 4249POPC   C3B54717  11.957  30.623   6.976
 4249POPC   C4B54718  11.723  30.978   7.151
 4250POPC   NC354719  19.086  39.634   5.395
 4250POPC   PO454720  18.727  39.096   5.358
 4250POPC   GL154721  18.990  39.126   5.754
 4250POPC   GL254722  19.197  38.811   5.825
 4250POPC   C1A54723  19.118  39.256   6.204
 4250POPC   D2A54724  19.364  39.366   6.581
 4250POPC   C3A54725  19.141  39.227   6.961
 4250POPC   C4A54726  19.358  39.249   7.353
 4250POPC   C1B54727  18.853  38.821   6.136
 4250POPC   C2B54728  18.766  39.013   6.523
 4250POPC   C3B54729  18.628  38.877   6.893
 4250POPC   C4B54730  18.746  38.957   7.271
 4251POPC   NC354731   7.591  41.212   5.153
 4251POPC   PO454732   7.205  40.752   5.310
 4251POPC   GL154733   7.250  40.661   5.800
 4251POPC   GL254734   7.040  40.376   5.865
 4251POPC   C1A54735   7.393  40.816   6.251
 4251POPC   D2A54736   7.626  40.826   6.671
 4251POPC   C3A54737   7.563  40.688   7.111
 4251POPC   C4A54738   7.418  40.942   7.443
 4251POPC   C1B54739   7.080  40.422   6.293
 4251POPC   C2B54740   7.279  40.453   6.682
 4251POPC   C3B54741   7.074  40.559   7.046
 4251POPC   C4B54742   7.101  40.538   7.465
 4252POPC   NC354743  15.287  38.298   5.313
 4252POPC   PO454744  14.654  38.640   5.099
 4252POPC   GL154745  14.822  38.514   5.589
 4252POPC   GL254746  15.178  38.526   5.748
 4252POPC   C1A54747  14.836  38.478   6.102
 4252POPC   D2A54748  14.987  38.251   6.464
 4252POPC   C3A54749  15.076  38.449   6.854
 4252POPC   C4A54750  14.890  38.557   7.249
 4252POPC   C1B54751  15.369  38.331   6.119
 4252POPC   C2B54752  15.506  38.262   6.575
 4252POPC   C3B54753  15.599  38.572   6.908
 4252POPC   C4B54754  15.391  38.461   7.263
 4253POPC   NC354755   0.101  24.289   5.375
 4253POPC   PO454756   0.390  24.883   5.494
 4253POPC   GL154757   0.576  24.653   5.878
 4253POPC   GL254758   0.549  24.262   5.831
 4253POPC   C1A54759   0.844  24.827   6.245
 4253POPC   D2A54760   0.813  24.911   6.691
 4253POPC   C3A54761   0.563  24.666   6.972
 4253POPC   C4A54762   0.201  24.630   7.262
 4253POPC   C1B54763   0.568  24.028   6.240
 4253POPC   C2B54764   0.408  23.969   6.653
 4253POPC   C3B54765   0.388  24.180   7.083
 4253POPC   C4B54766   0.431  24.095   7.551
 4254POPC   NC354767  19.010  29.092   5.203
 4254POPC   PO454768  18.768  29.667   5.444
 4254POPC   GL154769  18.710  29.324   5.776
 4254POPC   GL254770  18.872  29.462   6.053
 4254POPC   C1A54771  18.766  28.988   6.163
 4254POPC   D2A54772  18.938  28.836   6.594
 4254POPC   C3A54773  18.838  28.895   7.061
 4254POPC   C4A54774  18.907  28.623   7.455
 4254POPC   C1B54775  19.173  29.261   6.380
 4254POPC   C2B54776  19.229  29.224   6.861
 4254POPC   C3B54777  19.217  29.513   7.234
 4254POPC   C4B54778  19.438  29.597   7.651
 4255POPC   NC354779  17.983  12.349   5.443
 4255POPC   PO454780  18.104  12.983   5.355
 4255POPC   GL154781  18.254  12.971   5.763
 4255POPC   GL254782  18.221  12.627   5.801
 4255POPC   C1A54783  18.389  12.922   6.189
 4255POPC   D2A54784  18.228  13.035   6.571
 4255POPC   C3A54785  18.127  12.757   6.859
 4255POPC   C4A54786  18.316  12.877   7.254
 4255POPC   C1B54787  18.193  12.432   6.212
 4255POPC   C2B54788  18.410  12.352   6.618
 4255POPC   C3B54789  18.487  12.446   7.065
 4255POPC   C4B54790  18.383  12.401   7.521
 4256POPC   NC354791  20.270  21.607   5.398
 4256POPC   PO454792  20.807  21.221   5.409
 4256POPC   GL154793  20.708  21.248   5.831
 4256POPC   GL254794  20.350  21.244   5.815
 4256POPC   C1A54795  20.898  21.430   6.219
 4256POPC   D2A54796  20.726  21.457   6.646
 4256POPC   C3A54797  20.892  21.459   7.072
 4256POPC   C4A54798  20.976  21.788   7.371
 4256POPC   C1B54799  20.377  21.393   6.205
 4256POPC   C2B54800  20.234  21.525   6.540
 4256POPC   C3B54801  20.274  21.326   6.884
 4256POPC   C4B54802  20.406  21.289   7.254
 4257POPC   NC354803  38.029  11.269   5.549
 4257POPC   PO454804  37.454  11.618   5.466
 4257POPC   GL154805  37.714  11.593   5.834
 4257POPC   GL254806  37.625  11.261   5.934
 4257POPC   C1A54807  37.854  11.578   6.252
 4257POPC   D2A54808  37.676  11.345   6.585
 4257POPC   C3A54809  37.716  11.546   6.927
 4257POPC   C4A54810  37.344  11.527   7.185
 4257POPC   C1B54811  37.833  11.011   6.249
 4257POPC   C2B54812  37.727  10.823   6.670
 4257POPC   C3B54813  37.647  11.041   7.046
 4257POPC   C4B54814  37.810  11.320   7.352
 4258POPC   NC354815  41.041  18.266   5.505
 4258POPC   PO454816  40.464  17.879   5.591
 4258POPC   GL154817  40.720  18.109   5.871
 4258POPC   GL254818  41.091  18.030   5.950
 4258POPC   C1A54819  40.721  18.204   6.288
 4258POPC   D2A54820  41.002  18.078   6.582
 4258POPC   C3A54821  40.900  18.221   7.004
 4258POPC   C4A54822  40.831  18.118   7.437
 4258POPC   C1B54823  41.191  18.400   6.176
 4258POPC   C2B54824  41.262  18.514   6.615
 4258POPC   C3B54825  41.362  18.471   7.055
 4258POPC   C4B54826  41.164  18.503   7.455
 4259POPC   NC354827  22.774  35.478   5.268
 4259POPC   PO454828  23.237  35.133   5.564
 4259POPC   GL154829  23.161  35.421   5.860
 4259POPC   GL254830  22.865  35.551   5.757
 4259POPC   C1A54831  23.111  35.216   6.254
 4259POPC   D2A54832  23.241  35.292   6.682
 4259POPC   C3A54833  23.321  35.111   7.070
 4259POPC   C4A54834  22.947  35.227   7.301
 4259POPC   C1B54835  22.662  35.467   6.135
 4259POPC   C2B54836  22.816  35.526   6.535
 4259POPC   C3B54837  22.935  35.630   6.950
 4259POPC   C4B54838  22.630  35.662   7.241
 4260POPC   NC354839  35.247  24.206   5.337
 4260POPC   PO454840  35.009  24.836   5.365
 4260POPC   GL154841  35.234  24.662   5.708
 4260POPC   GL254842  35.041  24.359   5.784
 4260POPC   C1A54843  35.417  24.530   6.124
 4260POPC   D2A54844  35.428  24.266   6.517
 4260POPC   C3A54845  35.361  24.460   6.923
 4260POPC   C4A54846  35.548  24.407   7.359
 4260POPC   C1B54847  35.059  24.139   6.178
 4260POPC   C2B54848  34.924  24.217   6.605
 4260POPC   C3B54849  34.837  24.265   7.027
 4260POPC   C4B54850  35.044  24.474   7.352
 4261POPC   NC354851  23.708  33.602   5.479
 4261POPC   PO454852  23.983  34.257   5.663
 4261POPC   GL154853  23.632  33.963   5.803
 4261POPC   GL254854  23.329  34.091   5.938
 4261POPC   C1A54855  23.490  33.666   6.180
 4261POPC   D2A54856  23.699  33.729   6.634
 4261POPC   C3A54857  23.669  33.699   7.110
 4261POPC   C4A54858  23.575  33.477   7.532
 4261POPC   C1B54859  23.712  34.103   6.260
 4261POPC   C2B54860  24.080  34.054   6.511
 4261POPC   C3B54861  23.978  34.109   6.933
 4261POPC   C4B54862  23.619  34.196   7.188
 4262POPC   NC354863   1.300  27.267   5.364
 4262POPC   PO454864   0.807  27.756   5.466
 4262POPC   GL154865   1.158  27.686   5.755
 4262POPC   GL254866   1.142  27.340   5.841
 4262POPC   C1A54867   1.390  27.662   6.164
 4262POPC   D2A54868   1.539  27.806   6.581
 4262POPC   C3A54869   1.531  27.498   6.910
 4262POPC   C4A54870   1.287  27.614   7.253
 4262POPC   C1B54871   1.009  27.191   6.233
 4262POPC   C2B54872   1.099  27.319   6.677
 4262POPC   C3B54873   0.892  27.293   7.083
 4262POPC   C4B54874   0.973  27.315   7.535
 4263POPC   NC354875  23.531  22.569   5.318
 4263POPC   PO454876  24.003  22.152   5.578
 4263POPC   GL154877  23.789  22.201   5.896
 4263POPC   GL254878  23.467  22.336   5.841
 4263POPC   C1A54879  23.901  22.217   6.298
 4263POPC   D2A54880  24.034  21.944   6.594
 4263POPC   C3A54881  23.957  22.208   6.922
 4263POPC   C4A54882  23.927  22.066   7.297
 4263POPC   C1B54883  23.438  22.020   6.216
 4263POPC   C2B54884  23.499  22.026   6.646
 4263POPC   C3B54885  23.369  22.226   7.027
 4263POPC   C4B54886  23.608  22.540   7.207
 4264POPC   NC354887  22.276   1.642   5.660
 4264POPC   PO454888  22.339   1.061   5.398
 4264POPC   GL154889  22.016   1.146   5.753
 4264POPC   GL254890  21.892   0.868   5.996
 4264POPC   C1A54891  21.916   1.388   6.133
 4264POPC   D2A54892  22.191   1.452   6.509
 4264POPC   C3A54893  22.072   1.474   6.963
 4264POPC   C4A54894  21.885   1.516   7.377
 4264POPC   C1B54895  22.294   1.038   6.194
 4264POPC   C2B54896  22.523   1.028   6.598
 4264POPC   C3B54897  22.461   0.929   7.034
 4264POPC   C4B54898  22.080   0.880   7.295
 4265POPC   NC354899  28.742   9.150   5.393
 4265POPC   PO454900  28.084   8.815   5.409
 4265POPC   GL154901  28.383   8.895   5.745
 4265POPC   GL254902  28.683   8.698   5.836
 4265POPC   C1A54903  28.419   8.991   6.179
 4265POPC   D2A54904  28.494   8.921   6.619
 4265POPC   C3A54905  28.306   9.174   6.933
 4265POPC   C4A54906  28.636   9.288   7.201
 4265POPC   C1B54907  28.645   8.534   6.304
 4265POPC   C2B54908  28.672   8.464   6.765
 4265POPC   C3B54909  28.448   8.686   7.136
 4265POPC   C4B54910  28.391   8.575   7.622
 4266POPC   NC354911  21.902   5.889   5.406
 4266POPC   PO454912  22.457   5.800   5.724
 4266POPC   GL154913  22.141   6.037   5.849
 4266POPC   GL254914  21.940   5.746   5.882
 4266POPC   C1A54915  22.151   6.171   6.260
 4266POPC   D2A54916  21.967   6.254   6.639
 4266POPC   C3A54917  22.133   6.030   6.984
 4266POPC   C4A54918  21.988   6.097   7.378
 4266POPC   C1B54919  21.891   5.590   6.261
 4266POPC   C2B54920  21.976   5.633   6.667
 4266POPC   C3B54921  21.832   5.574   7.049
 4266POPC   C4B54922  22.094   5.586   7.362
 4267POPC   NC354923  29.521  12.368   5.392
 4267POPC   PO454924  30.083  12.065   5.330
 4267POPC   GL154925  30.169  12.028   5.760
 4267POPC   GL254926  29.878  12.248   5.793
 4267POPC   C1A54927  30.155  12.082   6.235
 4267POPC   D2A54928  29.830  11.991   6.568
 4267POPC   C3A54929  29.988  11.887   7.006
 4267POPC   C4A54930  30.303  11.634   7.299
 4267POPC   C1B54931  29.761  12.397   6.207
 4267POPC   C2B54932  29.941  12.475   6.637
 4267POPC   C3B54933  29.690  12.341   7.003
 4267POPC   C4B54934  29.451  11.988   7.193
 4268POPC   NC354935   1.562  15.098   5.333
 4268POPC   PO454936   0.848  15.080   5.471
 4268POPC   GL154937   1.147  15.272   5.746
 4268POPC   GL254938   1.018  15.010   5.953
 4268POPC   C1A54939   1.331  15.394   6.164
 4268POPC   D2A54940   1.263  15.213   6.580
 4268POPC   C3A54941   1.405  15.413   6.945
 4268POPC   C4A54942   1.318  15.416   7.361
 4268POPC   C1B54943   0.957  14.861   6.344
 4268POPC   C2B54944   0.830  14.933   6.743
 4268POPC   C3B54945   0.956  15.193   7.060
 4268POPC   C4B54946   0.874  15.148   7.468
 4269POPC   NC354947  19.532  23.275   5.369
 4269POPC   PO454948  20.016  23.724   5.349
 4269POPC   GL154949  19.806  23.902   5.723
 4269POPC   GL254950  19.555  23.642   5.749
 4269POPC   C1A54951  19.935  23.998   6.161
 4269POPC   D2A54952  20.170  23.675   6.444
 4269POPC   C3A54953  20.085  23.640   6.903
 4269POPC   C4A54954  19.866  24.009   7.104
 4269POPC   C1B54955  19.604  23.618   6.206
 4269POPC   C2B54956  19.617  23.764   6.649
 4269POPC   C3B54957  19.608  23.542   7.054
 4269POPC   C4B54958  19.673  23.700   7.450
 4270POPC   NC354959  26.708   8.953   5.341
 4270POPC   PO454960  27.279   9.176   5.362
 4270POPC   GL154961  26.984   9.080   5.750
 4270POPC   GL254962  26.799   8.731   5.772
 4270POPC   C1A54963  26.718   9.069   6.139
 4270POPC   D2A54964  26.965   9.032   6.513
 4270POPC   C3A54965  27.046   9.233   6.914
 4270POPC   C4A54966  27.029   9.069   7.303
 4270POPC   C1B54967  26.622   8.562   6.140
 4270POPC   C2B54968  26.526   8.752   6.533
 4270POPC   C3B54969  26.582   8.984   6.890
 4270POPC   C4B54970  26.654   8.745   7.252
 4271POPC   NC354971  24.722   4.496   5.478
 4271POPC   PO454972  24.320   3.921   5.516
 4271POPC   GL154973  24.492   4.212   5.818
 4271POPC   GL254974  24.831   4.053   5.850
 4271POPC   C1A54975  24.728   4.431   6.192
 4271POPC   D2A54976  24.583   4.334   6.633
 4271POPC   C3A54977  24.400   4.438   7.040
 4271POPC   C4A54978  24.444   4.504   7.499
 4271POPC   C1B54979  24.552   3.963   6.242
 4271POPC   C2B54980  24.468   3.811   6.647
 4271POPC   C3B54981  24.386   3.775   7.032
 4271POPC   C4B54982  24.485   4.025   7.337
 4272POPC   NC354983  21.615  17.417   5.279
 4272POPC   PO454984  21.080  17.685   5.389
 4272POPC   GL154985  21.380  17.719   5.729
 4272POPC   GL254986  21.628  17.472   5.775
 4272POPC   C1A54987  21.326  17.683   6.177
 4272POPC   D2A54988  21.157  17.517   6.553
 4272POPC   C3A54989  21.197  17.686   6.969
 4272POPC   C4A54990  21.161  17.510   7.372
 4272POPC   C1B54991  21.835  17.676   6.096
 4272POPC   C2B54992  21.736  17.755   6.498
 4272POPC   C3B54993  21.801  17.608   6.883
 4272POPC   C4B54994  21.639  17.643   7.270
 4273POPC   NC354995  39.876  38.160   5.627
 4273POPC   PO454996  39.994  38.796   5.396
 4273POPC   GL154997  39.968  38.627   5.818
 4273POPC   GL254998  40.296  38.466   5.796
 4273POPC   C1A54999  39.777  38.501   6.239
 4273POPC   D2A55000  39.627  38.434   6.690
 4273POPC   C3A55001  39.886  38.356   7.058
 4273POPC   C4A55002  40.277  38.537   7.212
 4273POPC   C1B55003  40.264  38.349   6.244
 4273POPC   C2B55004  40.256  38.480   6.677
 4273POPC   C3B55005  40.491  38.179   6.922
 4273POPC   C4B55006  40.563  38.013   7.302
 4274POPC   NC355007  41.257  32.921   5.200
 4274POPC   PO455008  41.540  33.483   5.232
 4274POPC   GL155009  41.520  33.264   5.723
 4274POPC   GL255010  41.322  32.994   5.759
 4274POPC   C1A55011  41.649  32.985   6.139
 4274POPC   D2A55012  41.679  32.703   6.530
 4274POPC   C3A55013  41.498  32.845   6.922
 4274POPC   C4A55014  41.651  33.164   7.207
 4274POPC   C1B55015  41.147  32.813   6.128
 4274POPC   C2B55016  41.138  32.755   6.561
 4274POPC   C3B55017  40.975  32.967   6.923
 4274POPC   C4B55018  41.162  32.947   7.299
 4275POPC   NC355019  14.710  39.076   5.560
 4275POPC   PO455020  14.585  39.655   5.255
 4275POPC   GL155021  14.555  39.541   5.738
 4275POPC   GL255022  14.336  39.228   5.892
 4275POPC   C1A55023  14.637  39.472   6.186
 4275POPC   D2A55024  14.329  39.257   6.461
 4275POPC   C3A55025  14.295  39.234   6.906
 4275POPC   C4A55026  14.556  39.363   7.192
 4275POPC   C1B55027  14.645  38.957   6.207
 4275POPC   C2B55028  14.798  38.746   6.548
 4275POPC   C3B55029  14.720  38.925   6.944
 4275POPC   C4B55030  14.395  38.863   7.255
 4276POPC   NC355031  33.217  18.148   5.436
 4276POPC   PO455032  32.866  18.582   5.366
 4276POPC   GL155033  32.981  18.449   5.776
 4276POPC   GL255034  33.255  18.669   5.781
 4276POPC   C1A55035  32.904  18.131   6.114
 4276POPC   D2A55036  33.052  18.059   6.541
 4276POPC   C3A55037  32.770  18.059   6.892
 4276POPC   C4A55038  32.890  18.324   7.211
 4276POPC   C1B55039  33.287  18.482   6.205
 4276POPC   C2B55040  33.409  18.451   6.634
 4276POPC   C3B55041  33.380  18.301   7.051
 4276POPC   C4B55042  33.291  18.606   7.389
 4277POPC   NC355043   8.011  20.264   5.500
 4277POPC   PO455044   8.028  19.538   5.393
 4277POPC   GL155045   7.970  19.788   5.768
 4277POPC   GL255046   8.304  19.948   5.800
 4277POPC   C1A55047   7.966  19.776   6.244
 4277POPC   D2A55048   8.159  19.946   6.635
 4277POPC   C3A55049   7.944  19.825   7.037
 4277POPC   C4A55050   8.012  19.821   7.493
 4277POPC   C1B55051   8.404  19.589   6.063
 4277POPC   C2B55052   8.572  19.517   6.463
 4277POPC   C3B55053   8.594  19.698   6.848
 4277POPC   C4B55054   8.392  19.606   7.214
 4278POPC   NC355055  16.897  14.928   5.318
 4278POPC   PO455056  16.188  14.969   5.350
 4278POPC   GL155057  16.520  15.204   5.585
 4278POPC   GL255058  16.621  14.921   5.749
 4278POPC   C1A55059  16.791  15.355   5.959
 4278POPC   D2A55060  16.826  15.551   6.395
 4278POPC   C3A55061  16.620  15.413   6.803
 4278POPC   C4A55062  16.709  15.113   7.172
 4278POPC   C1B55063  16.793  14.875   6.153
 4278POPC   C2B55064  16.768  14.990   6.583
 4278POPC   C3B55065  17.058  14.862   6.915
 4278POPC   C4B55066  17.006  14.626   7.315
 4279POPC   NC355067  34.099  42.439   5.550
 4279POPC   PO455068  33.761  42.090   5.166
 4279POPC   GL155069  33.771  42.062   5.701
 4279POPC   GL255070  34.080  42.089   5.917
 4279POPC   C1A55071  33.650  41.915   6.128
 4279POPC   D2A55072  33.831  42.071   6.549
 4279POPC   C3A55073  33.763  41.930   6.952
 4279POPC   C4A55074  33.751  42.192   7.272
 4279POPC   C1B55075  33.830  42.396   6.146
 4279POPC   C2B55076  33.529  42.459   6.437
 4279POPC   C3B55077  33.592  42.497   6.894
 4279POPC   C4B55078  33.943  42.649   7.218
 4280POPC   NC355079   2.898  10.240   5.371
 4280POPC   PO455080   2.574   9.587   5.430
 4280POPC   GL155081   2.673   9.847   5.806
 4280POPC   GL255082   3.011   9.982   5.839
 4280POPC   C1A55083   2.700   9.688   6.247
 4280POPC   D2A55084   2.683   9.855   6.673
 4280POPC   C3A55085   2.436   9.629   6.974
 4280POPC   C4A55086   2.773   9.527   7.253
 4280POPC   C1B55087   2.974  10.121   6.285
 4280POPC   C2B55088   3.102  10.239   6.703
 4280POPC   C3B55089   3.029  10.045   7.092
 4280POPC   C4B55090   2.593  10.045   7.226
 4281POPC   NC355091   1.395  23.125   5.148
 4281POPC   PO455092   1.271  22.824   5.745
 4281POPC   GL155093   1.474  23.040   6.064
 4281POPC   GL255094   1.360  23.343   5.941
 4281POPC   C1A55095   1.610  22.844   6.406
 4281POPC   D2A55096   1.228  22.770   6.600
 4281POPC   C3A55097   1.280  22.990   6.954
 4281POPC   C4A55098   1.333  22.796   7.353
 4281POPC   C1B55099   1.169  23.393   6.342
 4281POPC   C2B55100   0.959  23.497   6.703
 4281POPC   C3B55101   0.822  23.264   7.047
 4281POPC   C4B55102   1.037  23.187   7.356
 4282POPC   NC355103  23.953  16.420   5.589
 4282POPC   PO455104  23.597  17.024   5.594
 4282POPC   GL155105  23.634  16.765   5.922
 4282POPC   GL255106  23.948  16.786   5.943
 4282POPC   C1A55107  23.538  16.946   6.285
 4282POPC   D2A55108  23.549  17.129   6.638
 4282POPC   C3A55109  23.869  16.948   6.829
 4282POPC   C4A55110  23.730  16.765   7.179
 4282POPC   C1B55111  23.908  16.584   6.340
 4282POPC   C2B55112  24.107  16.461   6.723
 4282POPC   C3B55113  24.113  16.464   7.181
 4282POPC   C4B55114  23.897  16.577   7.614
 4283POPC   NC355115  21.844  22.126   5.530
 4283POPC   PO455116  21.216  22.482   5.492
 4283POPC   GL155117  21.471  22.318   5.841
 4283POPC   GL255118  21.487  21.940   5.838
 4283POPC   C1A55119  21.458  22.282   6.298
 4283POPC   D2A55120  21.329  22.445   6.684
 4283POPC   C3A55121  21.373  22.244   7.078
 4283POPC   C4A55122  21.199  22.269   7.479
 4283POPC   C1B55123  21.590  21.778   6.238
 4283POPC   C2B55124  21.554  21.872   6.681
 4283POPC   C3B55125  21.423  21.737   7.082
 4283POPC   C4B55126  21.455  21.800   7.519
 4284POPC   NC355127  11.807  31.340   5.477
 4284POPC   PO455128  12.414  31.223   5.720
 4284POPC   GL155129  12.323  31.502   5.998
 4284POPC   GL255130  12.316  31.908   5.870
 4284POPC   C1A55131  12.110  31.230   6.322
 4284POPC   D2A55132  11.792  31.155   6.638
 4284POPC   C3A55133  11.958  31.451   6.931
 4284POPC   C4A55134  12.303  31.588   7.226
 4284POPC   C1B55135  12.003  31.840   6.162
 4284POPC   C2B55136  12.191  31.701   6.527
 4284POPC   C3B55137  12.229  31.926   6.875
 4284POPC   C4B55138  11.925  31.919   7.262
 4285POPC   NC355139  28.440  16.389   5.463
 4285POPC   PO455140  28.472  17.027   5.502
 4285POPC   GL155141  28.314  16.775   5.840
 4285POPC   GL255142  28.488  16.495   5.940
 4285POPC   C1A55143  28.402  16.873   6.278
 4285POPC   D2A55144  28.650  17.038   6.590
 4285POPC   C3A55145  28.433  16.791   6.860
 4285POPC   C4A55146  28.455  16.798   7.258
 4285POPC   C1B55147  28.490  16.318   6.304
 4285POPC   C2B55148  28.331  16.311   6.689
 4285POPC   C3B55149  28.514  16.300   7.097
 4285POPC   C4B55150  28.578  16.200   7.563
 4286POPC   NC355151  25.200  19.366   5.496
 4286POPC   PO455152  25.613  18.897   5.520
 4286POPC   GL155153  25.405  18.792   5.864
 4286POPC   GL255154  25.174  19.023   5.885
 4286POPC   C1A55155  25.393  18.659   6.266
 4286POPC   D2A55156  25.680  18.759   6.600
 4286POPC   C3A55157  25.536  18.650   7.005
 4286POPC   C4A55158  25.325  18.780   7.351
 4286POPC   C1B55159  25.111  19.082   6.297
 4286POPC   C2B55160  25.170  18.908   6.695
 4286POPC   C3B55161  25.053  19.111   7.068
 4286POPC   C4B55162  25.191  19.509   7.188
 4287POPC   NC355163   2.979  37.398   5.394
 4287POPC   PO455164   2.607  38.011   5.374
 4287POPC   GL155165   2.578  37.773   5.741
 4287POPC   GL255166   2.491  37.452   5.648
 4287POPC   C1A55167   2.807  37.605   6.086
 4287POPC   D2A55168   2.951  37.727   6.481
 4287POPC   C3A55169   2.659  37.771   6.810
 4287POPC   C4A55170   2.884  37.609   7.186
 4287POPC   C1B55171   2.379  37.326   6.053
 4287POPC   C2B55172   2.521  37.404   6.482
 4287POPC   C3B55173   2.569  37.280   6.923
 4287POPC   C4B55174   2.718  37.158   7.335
 4288POPC   NC355175  21.643  24.247   5.381
 4288POPC   PO455176  21.283  24.765   5.316
 4288POPC   GL155177  21.403  24.762   5.766
 4288POPC   GL255178  21.084  24.692   5.917
 4288POPC   C1A55179  21.520  24.575   6.210
 4288POPC   D2A55180  21.707  24.664   6.646
 4288POPC   C3A55181  21.441  24.568   7.033
 4288POPC   C4A55182  21.168  24.296   7.305
 4288POPC   C1B55183  21.226  24.990   6.224
 4288POPC   C2B55184  21.305  24.997   6.639
 4288POPC   C3B55185  21.044  24.923   6.948
 4288POPC   C4B55186  20.925  24.728   7.269
 4289POPC   NC355187   7.234  13.697   5.625
 4289POPC   PO455188   6.624  13.793   5.388
 4289POPC   GL155189   6.741  13.572   5.790
 4289POPC   GL255190   6.423  13.366   5.842
 4289POPC   C1A55191   6.917  13.598   6.230
 4289POPC   D2A55192   6.965  13.470   6.684
 4289POPC   C3A55193   6.876  13.720   7.079
 4289POPC   C4A55194   6.936  13.877   7.503
 4289POPC   C1B55195   6.411  13.743   6.130
 4289POPC   C2B55196   6.582  13.843   6.542
 4289POPC   C3B55197   6.426  13.596   6.862
 4289POPC   C4B55198   6.357  13.592   7.288
 4290POPC   NC355199   0.336  26.700   5.223
 4290POPC   PO455200   0.132  27.285   5.429
 4290POPC   GL155201   0.306  27.003   5.772
 4290POPC   GL255202   0.371  26.609   5.742
 4290POPC   C1A55203   0.418  27.077   6.213
 4290POPC   D2A55204   0.670  27.040   6.593
 4290POPC   C3A55205   0.530  26.917   6.978
 4290POPC   C4A55206   0.478  27.079   7.400
 4290POPC   C1B55207   0.293  26.445   6.174
 4290POPC   C2B55208   0.224  26.571   6.623
 4290POPC   C3B55209   0.455  26.416   6.996
 4290POPC   C4B55210   0.532  26.580   7.373
 4291POPC   NC355211  14.755  41.419   5.382
 4291POPC   PO455212  15.337  41.797   5.532
 4291POPC   GL155213  15.021  41.617   5.816
 4291POPC   GL255214  14.955  41.276   5.844
 4291POPC   C1A55215  15.165  41.617   6.228
 4291POPC   D2A55216  15.471  41.564   6.528
 4291POPC   C3A55217  15.356  41.752   6.903
 4291POPC   C4A55218  14.987  41.735   7.148
 4291POPC   C1B55219  14.873  41.201   6.284
 4291POPC   C2B55220  14.933  41.434   6.679
 4291POPC   C3B55221  15.177  41.286   7.024
 4291POPC   C4B55222  15.110  40.945   7.263
 4292POPC   NC355223   0.822  11.538   5.556
 4292POPC   PO455224   0.082  11.460   5.426
 4292POPC   GL155225   0.345  11.605   5.790
 4292POPC   GL255226   0.505  11.311   5.948
 4292POPC   C1A55227   0.254  11.619   6.245
 4292POPC   D2A55228   0.418  11.408   6.624
 4292POPC   C3A55229   0.421  11.267   7.055
 4292POPC   C4A55230   0.163  11.295   7.430
 4292POPC   C1B55231   0.741  11.550   6.243
 4292POPC   C2B55232   0.708  11.831   6.574
 4292POPC   C3B55233   0.599  11.731   7.004
 4292POPC   C4B55234   0.559  11.653   7.440
 4293POPC   NC355235   7.053  22.313   5.513
 4293POPC   PO455236   7.638  22.074   5.605
 4293POPC   GL155237   7.334  22.103   5.930
 4293POPC   GL255238   7.007  22.012   5.966
 4293POPC   C1A55239   7.371  22.017   6.351
 4293POPC   D2A55240   7.667  21.991   6.659
 4293POPC   C3A55241   7.408  21.945   6.989
 4293POPC   C4A55242   7.495  22.150   7.326
 4293POPC   C1B55243   6.873  22.165   6.351
 4293POPC   C2B55244   7.087  22.290   6.733
 4293POPC   C3B55245   7.031  22.264   7.184
 4293POPC   C4B55246   7.121  22.347   7.614
 4294POPC   NC355247  16.234  22.556   5.444
 4294POPC   PO455248  15.753  23.086   5.560
 4294POPC   GL155249  16.061  22.938   5.785
 4294POPC   GL255250  15.895  22.648   5.855
 4294POPC   C1A55251  16.015  23.062   6.229
 4294POPC   D2A55252  15.827  22.915   6.621
 4294POPC   C3A55253  15.894  23.122   7.036
 4294POPC   C4A55254  15.859  22.916   7.433
 4294POPC   C1B55255  16.099  22.552   6.239
 4294POPC   C2B55256  16.030  22.422   6.659
 4294POPC   C3B55257  16.146  22.671   7.015
 4294POPC   C4B55258  16.507  22.594   7.262
 4295POPC   NC355259  39.491  37.062   5.558
 4295POPC   PO455260  39.028  36.592   5.478
 4295POPC   GL155261  39.163  36.816   5.835
 4295POPC   GL255262  39.476  36.612   5.866
 4295POPC   C1A55263  39.417  36.977   6.236
 4295POPC   D2A55264  39.532  37.121   6.671
 4295POPC   C3A55265  39.334  36.870   6.981
 4295POPC   C4A55266  39.080  36.966   7.332
 4295POPC   C1B55267  39.127  36.542   6.225
 4295POPC   C2B55268  38.983  36.645   6.660
 4295POPC   C3B55269  39.003  36.489   7.081
 4295POPC   C4B55270  38.779  36.561   7.449
 4296POPC   NC355271  23.320  37.985   5.341
 4296POPC   PO455272  22.926  37.500   5.560
 4296POPC   GL155273  23.093  37.748   5.886
 4296POPC   GL255274  22.891  38.031   5.795
 4296POPC   C1A55275  23.039  37.655   6.340
 4296POPC   D2A55276  22.811  37.666   6.738
 4296POPC   C3A55277  23.064  37.657   7.118
 4296POPC   C4A55278  23.237  37.334   7.364
 4296POPC   C1B55279  22.755  38.078   6.225
 4296POPC   C2B55280  22.581  38.148   6.654
 4296POPC   C3B55281  22.689  38.064   7.099
 4296POPC   C4B55282  22.867  37.947   7.504
 4297POPC   NC355283  19.201   9.970   5.187
 4297POPC   PO455284  19.078   9.371   5.465
 4297POPC   GL155285  19.003   9.567   5.865
 4297POPC   GL255286  18.786   9.850   5.919
 4297POPC   C1A55287  19.031   9.477   6.312
 4297POPC   D2A55288  18.817   9.588   6.704
 4297POPC   C3A55289  19.126   9.547   7.031
 4297POPC   C4A55290  19.470   9.808   7.155
 4297POPC   C1B55291  18.515  10.047   6.253
 4297POPC   C2B55292  18.587  10.225   6.679
 4297POPC   C3B55293  18.817  10.059   7.046
 4297POPC   C4B55294  18.778  10.068   7.539
 4298POPC   NC355295  14.018   9.419   5.572
 4298POPC   PO455296  13.819   9.929   5.156
 4298POPC   GL155297  13.708   9.899   5.648
 4298POPC   GL255298  13.331   9.949   5.719
 4298POPC   C1A55299  13.703   9.776   6.130
 4298POPC   D2A55300  13.686   9.908   6.607
 4298POPC   C3A55301  13.761   9.678   7.014
 4298POPC   C4A55302  14.135   9.481   7.216
 4298POPC   C1B55303  13.161   9.823   6.131
 4298POPC   C2B55304  13.230   9.616   6.535
 4298POPC   C3B55305  13.278   9.445   6.942
 4298POPC   C4B55306  13.318   9.584   7.351
 4299POPC   NC355307   2.960  19.461   5.105
 4299POPC   PO455308   2.754  18.853   5.323
 4299POPC   GL155309   2.735  19.016   5.729
 4299POPC   GL255310   3.027  19.198   5.647
 4299POPC   C1A55311   2.700  18.848   6.148
 4299POPC   D2A55312   2.656  19.109   6.513
 4299POPC   C3A55313   2.837  19.034   6.904
 4299POPC   C4A55314   2.550  18.988   7.219
 4299POPC   C1B55315   3.042  19.231   6.121
 4299POPC   C2B55316   3.148  19.267   6.558
 4299POPC   C3B55317   3.148  19.439   6.992
 4299POPC   C4B55318   3.182  19.131   7.288
 4300POPC   NC355319   1.034  30.043   5.508
 4300POPC   PO455320   1.687  29.879   5.355
 4300POPC   GL155321   1.437  29.693   5.740
 4300POPC   GL255322   1.061  29.585   5.798
 4300POPC   C1A55323   1.332  29.765   6.194
 4300POPC   D2A55324   1.176  29.806   6.604
 4300POPC   C3A55325   1.334  30.078   6.907
 4300POPC   C4A55326   1.417  29.824   7.245
 4300POPC   C1B55327   0.817  29.577   6.212
 4300POPC   C2B55328   0.710  29.606   6.657
 4300POPC   C3B55329   0.903  29.801   7.064
 4300POPC   C4B55330   1.001  29.738   7.531
 4301POPC   NC355331  21.345  43.212   5.375
 4301POPC   PO455332  21.922  43.584   5.502
 4301POPC   GL155333  21.613  43.404   5.857
 4301POPC   GL255334  21.351  43.124   5.865
 4301POPC   C1A55335  21.511  43.310   6.322
 4301POPC   D2A55336  21.661  43.503   6.715
 4301POPC   C3A55337  21.487  43.350   7.130
 4301POPC   C4A55338  21.442  43.294   7.612
 4301POPC   C1B55339  21.537  42.818   6.138
 4301POPC   C2B55340  21.468  42.754   6.560
 4301POPC   C3B55341  21.624  42.857   6.967
 4301POPC   C4B55342  21.448  42.852   7.355
 4302POPC   NC355343   2.130  20.747   5.454
 4302POPC   PO455344   1.524  21.029   5.392
 4302POPC   GL155345   1.770  20.937   5.769
 4302POPC   GL255346   1.775  20.566   5.779
 4302POPC   C1A55347   2.032  20.861   6.134
 4302POPC   D2A55348   2.000  20.768   6.568
 4302POPC   C3A55349   2.230  20.930   6.904
 4302POPC   C4A55350   1.987  20.887   7.250
 4302POPC   C1B55351   1.912  20.379   6.156
 4302POPC   C2B55352   2.315  20.444   6.354
 4302POPC   C3B55353   2.311  20.378   6.790
 4302POPC   C4B55354   2.230  20.463   7.202
 4303POPC   NC355355  37.931  43.763   5.365
 4303POPC   PO455356  38.081  44.368   5.581
 4303POPC   GL155357  37.867  44.016   5.807
 4303POPC   GL255358  37.514  43.936   5.744
 4303POPC   C1A55359  37.822  43.893   6.236
 4303POPC   D2A55360  37.834  43.699   6.643
 4303POPC   C3A55361  37.975  43.994   6.946
 4303POPC   C4A55362  38.118  44.021   7.375
 4303POPC   C1B55363  37.394  43.662   6.062
 4303POPC   C2B55364  37.324  43.663   6.489
 4303POPC   C3B55365  37.421  43.865   6.878
 4303POPC   C4B55366  37.622  43.731   7.236
 4304POPC   NC355367  43.352  36.153   5.368
 4304POPC   PO455368  42.755  36.027   5.408
 4304POPC   GL155369  42.954  36.211   5.753
 4304POPC   GL255370  43.174  35.928   5.795
 4304POPC   C1A55371  43.119  36.312   6.174
 4304POPC   D2A55372  42.941  36.563   6.510
 4304POPC   C3A55373  42.896  36.340   6.898
 4304POPC   C4A55374  43.190  36.272   7.223
 4304POPC   C1B55375  42.852  35.853   6.114
 4304POPC   C2B55376  42.910  35.977   6.542
 4304POPC   C3B55377  43.064  35.852   6.975
 4304POPC   C4B55378  43.096  35.811   7.456
 4305POPC   NC355379  23.495   4.849   5.264
 4305POPC   PO455380  23.701   5.408   5.427
 4305POPC   GL155381  23.788   5.013   5.660
 4305POPC   GL255382  23.458   4.989   5.818
 4305POPC   C1A55383  23.849   4.804   6.084
 4305POPC   D2A55384  23.634   4.939   6.474
 4305POPC   C3A55385  23.888   4.948   6.842
 4305POPC   C4A55386  23.762   4.966   7.270
 4305POPC   C1B55387  23.711   5.304   6.105
 4305POPC   C2B55388  23.828   5.420   6.560
 4305POPC   C3B55389  23.623   5.374   6.989
 4305POPC   C4B55390  23.496   5.348   7.438
 4306POPC   NC355391  30.324  12.443   5.427
 4306POPC   PO455392  29.726  12.814   5.385
 4306POPC   GL155393  29.793  12.788   5.839
 4306POPC   GL255394  29.737  13.154   5.832
 4306POPC   C1A55395  29.885  12.882   6.310
 4306POPC   D2A55396  29.724  12.918   6.753
 4306POPC   C3A55397  30.008  12.750   7.089
 4306POPC   C4A55398  29.944  12.710   7.539
 4306POPC   C1B55399  29.915  13.366   6.177
 4306POPC   C2B55400  29.854  13.382   6.620
 4306POPC   C3B55401  30.019  13.261   7.042
 4306POPC   C4B55402  30.301  13.473   7.342
 4307POPC   NC355403  27.974  37.880   5.420
 4307POPC   PO455404  27.589  37.341   5.341
 4307POPC   GL155405  27.575  37.588   5.766
 4307POPC   GL255406  27.764  37.856   5.886
 4307POPC   C1A55407  27.700  37.479   6.209
 4307POPC   D2A55408  27.837  37.610   6.609
 4307POPC   C3A55409  27.622  37.632   7.009
 4307POPC   C4A55410  27.873  37.824   7.348
 4307POPC   C1B55411  27.425  37.911   6.214
 4307POPC   C2B55412  27.497  37.988   6.638
 4307POPC   C3B55413  27.543  38.122   7.068
 4307POPC   C4B55414  27.336  37.966   7.431
 4308POPC   NC355415  12.973  17.674   5.446
 4308POPC   PO455416  12.395  17.235   5.341
 4308POPC   GL155417  12.685  17.365   5.742
 4308POPC   GL255418  13.116  17.430   5.870
 4308POPC   C1A55419  12.747  17.518   6.160
 4308POPC   D2A55420  12.990  17.358   6.490
 4308POPC   C3A55421  12.876  17.472   6.873
 4308POPC   C4A55422  12.739  17.461   7.253
 4308POPC   C1B55423  13.239  17.714   6.231
 4308POPC   C2B55424  13.258  17.782   6.710
 4308POPC   C3B55425  13.309  17.557   7.131
 4308POPC   C4B55426  13.108  17.523   7.575
 4309POPC   NC355427  29.130   9.473   5.163
 4309POPC   PO455428  29.082   8.824   5.373
 4309POPC   GL155429  29.195   8.752   5.815
 4309POPC   GL255430  29.056   9.070   5.866
 4309POPC   C1A55431  29.058   8.816   6.279
 4309POPC   D2A55432  29.139   8.635   6.643
 4309POPC   C3A55433  28.981   8.826   7.013
 4309POPC   C4A55434  29.215   8.742   7.370
 4309POPC   C1B55435  29.009   9.323   6.262
 4309POPC   C2B55436  28.940   9.221   6.695
 4309POPC   C3B55437  29.206   9.312   7.037
 4309POPC   C4B55438  29.088   9.250   7.446
 4310POPC   NC355439   3.721  38.101   5.424
 4310POPC   PO455440   3.451  37.479   5.433
 4310POPC   GL155441   3.572  37.661   5.856
 4310POPC   GL255442   3.850  37.906   5.885
 4310POPC   C1A55443   3.443  37.904   6.229
 4310POPC   D2A55444   3.362  37.985   6.654
 4310POPC   C3A55445   3.281  37.624   6.863
 4310POPC   C4A55446   3.426  37.568   7.242
 4310POPC   C1B55447   3.907  37.684   6.286
 4310POPC   C2B55448   3.775  37.672   6.712
 4310POPC   C3B55449   3.853  37.841   7.100
 4310POPC   C4B55450   4.048  37.687   7.449
 4311POPC   NC355451  23.674  23.949   5.371
 4311POPC   PO455452  23.300  23.506   5.679
 4311POPC   GL155453  23.607  23.712   5.851
 4311POPC   GL255454  23.937  23.627   5.747
 4311POPC   C1A55455  23.525  23.704   6.253
 4311POPC   D2A55456  23.585  23.541   6.586
 4311POPC   C3A55457  23.396  23.769   6.888
 4311POPC   C4A55458  23.441  23.633   7.267
 4311POPC   C1B55459  24.026  23.580   6.198
 4311POPC   C2B55460  24.031  23.792   6.604
 4311POPC   C3B55461  23.899  23.639   7.003
 4311POPC   C4B55462  23.921  23.349   7.322
 4312POPC   NC355463   6.665  23.799   5.482
 4312POPC   PO455464   7.305  23.667   5.570
 4312POPC   GL155465   6.998  23.766   5.870
 4312POPC   GL255466   6.742  23.486   5.872
 4312POPC   C1A55467   6.840  23.866   6.252
 4312POPC   D2A55468   6.768  23.580   6.572
 4312POPC   C3A55469   6.779  23.827   6.895
 4312POPC   C4A55470   6.747  23.745   7.306
 4312POPC   C1B55471   6.436  23.491   6.201
 4312POPC   C2B55472   6.272  23.673   6.606
 4312POPC   C3B55473   6.322  23.634   7.051
 4312POPC   C4B55474   6.340  23.363   7.389
 4313POPC   NC355475  40.061   3.407   5.486
 4313POPC   PO455476  39.758   3.967   5.345
 4313POPC   GL155477  39.847   3.869   5.799
 4313POPC   GL255478  40.184   3.766   5.882
 4313POPC   C1A55479  39.920   3.865   6.291
 4313POPC   D2A55480  40.212   3.615   6.585
 4313POPC   C3A55481  40.147   3.726   7.019
 4313POPC   C4A55482  39.746   3.762   7.203
 4313POPC   C1B55483  40.041   3.379   6.137
 4313POPC   C2B55484  39.924   3.130   6.504
 4313POPC   C3B55485  39.877   3.298   6.914
 4313POPC   C4B55486  39.998   3.336   7.345
 4314POPC   NC355487  44.642  21.719   5.449
 4314POPC   PO455488  44.978  22.289   5.224
 4314POPC   GL155489  44.966  22.293   5.767
 4314POPC   GL255490  44.854  21.943   5.880
 4314POPC   C1A55491  44.648  22.323   6.180
 4314POPC   D2A55492  44.444  22.169   6.596
 4314POPC   C3A55493  44.580  22.311   7.012
 4314POPC   C4A55494  44.895  22.052   7.237
 4314POPC   C1B55495  44.474  21.820   6.142
 4314POPC   C2B55496  44.363  21.669   6.570
 4314POPC   C3B55497  44.461  21.813   6.982
 4314POPC   C4B55498  44.400  21.988   7.383
 4315POPC   NC355499  30.782  10.769   5.150
 4315POPC   PO455500  30.467  11.310   5.470
 4315POPC   GL155501  30.575  11.294   5.847
 4315POPC   GL255502  30.937  11.360   5.826
 4315POPC   C1A55503  30.528  11.493   6.237
 4315POPC   D2A55504  30.502  11.211   6.576
 4315POPC   C3A55505  30.611  11.328   6.985
 4315POPC   C4A55506  30.706  11.008   7.265
 4315POPC   C1B55507  30.900  11.127   6.207
 4315POPC   C2B55508  31.055  11.238   6.590
 4315POPC   C3B55509  31.117  10.998   6.927
 4315POPC   C4B55510  31.195  11.063   7.348
 4316POPC   NC355511   7.725  32.192   5.387
 4316POPC   PO455512   8.275  31.846   5.481
 4316POPC   GL155513   8.340  32.067   5.863
 4316POPC   GL255514   8.058  32.238   5.798
 4316POPC   C1A55515   8.318  32.221   6.303
 4316POPC   D2A55516   8.598  32.178   6.686
 4316POPC   C3A55517   8.487  32.300   7.081
 4316POPC   C4A55518   8.140  32.475   7.205
 4316POPC   C1B55519   7.929  31.926   6.120
 4316POPC   C2B55520   7.840  32.093   6.513
 4316POPC   C3B55521   8.082  32.057   6.868
 4316POPC   C4B55522   8.024  31.976   7.291
 4317POPC   NC355523  30.516   5.975   5.356
 4317POPC   PO455524  30.226   5.390   5.629
 4317POPC   GL155525  30.513   5.651   5.896
 4317POPC   GL255526  30.497   5.995   5.870
 4317POPC   C1A55527  30.571   5.810   6.333
 4317POPC   D2A55528  30.529   6.085   6.675
 4317POPC   C3A55529  30.525   5.874   7.088
 4317POPC   C4A55530  30.833   5.537   7.196
 4317POPC   C1B55531  30.889   6.102   6.063
 4317POPC   C2B55532  31.013   6.188   6.518
 4317POPC   C3B55533  31.109   6.311   6.954
 4317POPC   C4B55534  30.929   6.051   7.349
 4318POPC   NC355535  22.338  38.433   5.095
 4318POPC   PO455536  21.944  38.650   5.638
 4318POPC   GL155537  22.063  38.401   5.906
 4318POPC   GL255538  22.384  38.271   5.784
 4318POPC   C1A55539  22.024  38.524   6.317
 4318POPC   D2A55540  22.062  38.350   6.692
 4318POPC   C3A55541  21.922  38.644   6.933
 4318POPC   C4A55542  21.906  38.778   7.293
 4318POPC   C1B55543  22.510  38.524   6.157
 4318POPC   C2B55544  22.469  38.683   6.581
 4318POPC   C3B55545  22.450  38.525   6.998
 4318POPC   C4B55546  22.145  38.276   7.215
 4319POPC   NC355547  37.043  19.715   5.463
 4319POPC   PO455548  37.029  20.374   5.219
 4319POPC   GL155549  37.008  20.175   5.694
 4319POPC   GL255550  37.249  20.132   5.959
 4319POPC   C1A55551  36.764  20.075   6.098
 4319POPC   D2A55552  36.882  20.015   6.543
 4319POPC   C3A55553  36.573  20.002   6.892
 4319POPC   C4A55554  36.583  19.808   7.275
 4319POPC   C1B55555  37.194  19.722   6.197
 4319POPC   C2B55556  37.177  19.509   6.617
 4319POPC   C3B55557  37.011  19.746   6.970
 4319POPC   C4B55558  37.079  19.868   7.402
 4320POPC   NC355559  19.338  16.497   5.458
 4320POPC   PO455560  19.059  17.108   5.318
 4320POPC   GL155561  19.050  16.940   5.781
 4320POPC   GL255562  19.102  16.593   5.886
 4320POPC   C1A55563  19.222  16.925   6.225
 4320POPC   D2A55564  19.142  16.777   6.617
 4320POPC   C3A55565  19.171  17.130   6.859
 4320POPC   C4A55566  19.015  16.962   7.214
 4320POPC   C1B55567  18.956  16.419   6.286
 4320POPC   C2B55568  18.830  16.252   6.693
 4320POPC   C3B55569  18.828  16.519   7.049
 4320POPC   C4B55570  19.175  16.496   7.367
 4321POPC   NC355571  40.965  27.880   5.440
 4321POPC   PO455572  41.613  27.592   5.198
 4321POPC   GL155573  41.541  27.578   5.677
 4321POPC   GL255574  41.206  27.607   5.805
 4321POPC   C1A55575  41.640  27.592   6.130
 4321POPC   D2A55576  41.843  27.281   6.382
 4321POPC   C3A55577  41.882  27.335   6.819
 4321POPC   C4A55578  41.764  27.667   7.074
 4321POPC   C1B55579  41.160  27.776   6.230
 4321POPC   C2B55580  41.410  27.624   6.598
 4321POPC   C3B55581  41.256  27.580   6.999
 4321POPC   C4B55582  41.377  27.706   7.410
 4322POPC   NC355583  43.416   7.148   5.513
 4322POPC   PO455584  42.970   6.703   5.368
 4322POPC   GL155585  43.179   6.789   5.824
 4322POPC   GL255586  43.355   7.082   6.013
 4322POPC   C1A55587  43.202   6.661   6.293
 4322POPC   D2A55588  43.272   6.377   6.687
 4322POPC   C3A55589  43.011   6.432   7.096
 4322POPC   C4A55590  42.888   6.327   7.564
 4322POPC   C1B55591  43.615   7.020   6.392
 4322POPC   C2B55592  43.511   6.858   6.805
 4322POPC   C3B55593  43.293   6.840   7.202
 4322POPC   C4B55594  43.300   7.015   7.617
 4323POPC   NC355595  39.290  17.781   5.532
 4323POPC   PO455596  39.038  17.155   5.402
 4323POPC   GL155597  39.148  17.396   5.821
 4323POPC   GL255598  39.500  17.585   5.956
 4323POPC   C1A55599  39.122  17.484   6.259
 4323POPC   D2A55600  39.417  17.334   6.551
 4323POPC   C3A55601  39.286  17.316   6.971
 4323POPC   C4A55602  38.975  17.428   7.216
 4323POPC   C1B55603  39.476  17.845   6.368
 4323POPC   C2B55604  39.373  17.808   6.839
 4323POPC   C3B55605  39.485  17.715   7.308
 4323POPC   C4B55606  39.585  17.691   7.799
 4324POPC   NC355607  24.800  43.992   5.497
 4324POPC   PO455608  24.301  44.244   5.687
 4324POPC   GL155609  24.444  43.803   5.837
 4324POPC   GL255610  24.246  43.540   6.022
 4324POPC   C1A55611  24.691  43.716   6.219
 4324POPC   D2A55612  24.521  43.706   6.659
 4324POPC   C3A55613  24.582  43.917   7.041
 4324POPC   C4A55614  24.345  44.190   7.281
 4324POPC   C1B55615  24.086  43.753   6.335
 4324POPC   C2B55616  23.921  43.927   6.669
 4324POPC   C3B55617  24.056  43.826   7.039
 4324POPC   C4B55618  24.235  43.712   7.409
 4325POPC   NC355619  27.868  43.049   5.547
 4325POPC   PO455620  27.623  43.514   5.111
 4325POPC   GL155621  27.565  43.441   5.689
 4325POPC   GL255622  27.575  43.132   5.938
 4325POPC   C1A55623  27.449  43.545   6.172
 4325POPC   D2A55624  27.289  43.449   6.649
 4325POPC   C3A55625  27.499  43.188   7.023
 4325POPC   C4A55626  27.526  43.247   7.462
 4325POPC   C1B55627  27.869  42.829   6.141
 4325POPC   C2B55628  28.026  42.730   6.516
 4325POPC   C3B55629  27.927  42.818   6.940
 4325POPC   C4B55630  27.937  42.959   7.341
 4326POPC   NC355631  12.051  32.302   5.222
 4326POPC   PO455632  12.003  31.748   5.508
 4326POPC   GL155633  11.911  32.174   5.696
 4326POPC   GL255634  12.228  32.389   5.700
 4326POPC   C1A55635  11.791  32.326   6.102
 4326POPC   D2A55636  12.025  32.221   6.492
 4326POPC   C3A55637  11.860  32.261   6.890
 4326POPC   C4A55638  11.860  32.537   7.201
 4326POPC   C1B55639  12.274  32.528   6.128
 4326POPC   C2B55640  12.256  32.681   6.551
 4326POPC   C3B55641  12.327  32.483   6.953
 4326POPC   C4B55642  12.333  32.602   7.385
 4327POPC   NC355643  17.970  20.719   5.369
 4327POPC   PO455644  18.506  20.342   5.538
 4327POPC   GL155645  18.382  20.616   5.861
 4327POPC   GL255646  18.594  20.918   5.902
 4327POPC   C1A55647  18.118  20.565   6.230
 4327POPC   D2A55648  17.992  20.750   6.610
 4327POPC   C3A55649  18.113  20.564   6.977
 4327POPC   C4A55650  18.348  20.403   7.312
 4327POPC   C1B55651  18.641  20.942   6.342
 4327POPC   C2B55652  18.443  21.018   6.752
 4327POPC   C3B55653  18.405  20.922   7.209
 4327POPC   C4B55654  18.535  21.129   7.595
 4328POPC   NC355655  41.046   9.641   5.437
 4328POPC   PO455656  41.514  10.146   5.674
 4328POPC   GL155657  41.218   9.781   5.916
 4328POPC   GL255658  40.824   9.573   5.868
 4328POPC   C1A55659  40.913   9.799   6.287
 4328POPC   D2A55660  40.703   9.971   6.614
 4328POPC   C3A55661  40.708   9.841   7.013
 4328POPC   C4A55662  40.871   9.688   7.372
 4328POPC   C1B55663  40.661   9.343   6.238
 4328POPC   C2B55664  40.585   9.447   6.680
 4328POPC   C3B55665  40.472   9.421   7.135
 4328POPC   C4B55666  40.492   9.448   7.599
 4329POPC   NC355667  34.262  20.764   5.635
 4329POPC   PO455668  33.634  20.904   5.472
 4329POPC   GL155669  33.788  20.563   5.740
 4329POPC   GL255670  33.892  20.829   5.965
 4329POPC   C1A55671  33.956  20.343   6.106
 4329POPC   D2A55672  33.930  20.567   6.501
 4329POPC   C3A55673  33.632  20.379   6.814
 4329POPC   C4A55674  33.682  20.433   7.268
 4329POPC   C1B55675  33.623  20.981   6.239
 4329POPC   C2B55676  33.534  20.867   6.654
 4329POPC   C3B55677  33.804  20.838   6.963
 4329POPC   C4B55678  33.714  20.954   7.341
 4330POPC   NC355679   8.749  38.255   5.427
 4330POPC   PO455680   9.346  38.658   5.418
 4330POPC   GL155681   9.133  38.441   5.768
 4330POPC   GL255682   8.800  38.416   5.926
 4330POPC   C1A55683   9.199  38.513   6.221
 4330POPC   D2A55684   9.298  38.297   6.604
 4330POPC   C3A55685   9.155  38.538   6.939
 4330POPC   C4A55686   9.154  38.713   7.347
 4330POPC   C1B55687   8.607  38.509   6.359
 4330POPC   C2B55688   8.610  38.532   6.844
 4330POPC   C3B55689   8.792  38.351   7.233
 4330POPC   C4B55690   8.860  38.417   7.677
 4331POPC   NC355691  32.245  21.927   5.423
 4331POPC   PO455692  31.770  22.389   5.410
 4331POPC   GL155693  32.046  22.220   5.799
 4331POPC   GL255694  32.183  22.485   5.987
 4331POPC   C1A55695  32.231  21.953   6.194
 4331POPC   D2A55696  32.305  22.046   6.680
 4331POPC   C3A55697  32.285  21.860   7.117
 4331POPC   C4A55698  32.118  22.060   7.518
 4331POPC   C1B55699  32.466  22.398   6.328
 4331POPC   C2B55700  32.474  22.523   6.773
 4331POPC   C3B55701  32.300  22.386   7.167
 4331POPC   C4B55702  32.386  22.470   7.603
 4332POPC   NC355703  37.467  13.524   5.391
 4332POPC   PO455704  37.740  14.107   5.482
 4332POPC   GL155705  37.665  13.772   5.792
 4332POPC   GL255706  37.348  13.563   5.880
 4332POPC   C1A55707  37.754  13.615   6.196
 4332POPC   D2A55708  37.887  13.524   6.592
 4332POPC   C3A55709  37.691  13.714   6.927
 4332POPC   C4A55710  37.860  13.542   7.267
 4332POPC   C1B55711  37.362  13.279   6.226
 4332POPC   C2B55712  37.412  13.326   6.667
 4332POPC   C3B55713  37.204  13.567   6.961
 4332POPC   C4B55714  37.350  13.669   7.377
 4333POPC   NC355715  24.624  16.474   5.036
 4333POPC   PO455716  24.231  16.798   5.485
 4333POPC   GL155717  24.403  16.602   5.839
 4333POPC   GL255718  24.737  16.586   5.880
 4333POPC   C1A55719  24.408  16.689   6.287
 4333POPC   D2A55720  24.571  16.852   6.668
 4333POPC   C3A55721  24.333  16.879   7.033
 4333POPC   C4A55722  24.350  16.753   7.500
 4333POPC   C1B55723  24.784  16.319   6.238
 4333POPC   C2B55724  24.620  16.322   6.663
 4333POPC   C3B55725  24.711  16.530   7.072
 4333POPC   C4B55726  24.823  16.587   7.544
 4334POPC   NC355727  20.656  17.055   5.516
 4334POPC   PO455728  20.507  16.473   5.224
 4334POPC   GL155729  20.413  16.506   5.721
 4334POPC   GL255730  20.414  16.839   5.880
 4334POPC   C1A55731  20.572  16.513   6.209
 4334POPC   D2A55732  20.824  16.783   6.528
 4334POPC   C3A55733  20.937  16.623   6.970
 4334POPC   C4A55734  20.690  16.630   7.335
 4334POPC   C1B55735  20.323  17.108   6.233
 4334POPC   C2B55736  20.449  17.178   6.639
 4334POPC   C3B55737  20.532  16.919   6.926
 4334POPC   C4B55738  20.431  17.060   7.249
 4335POPC   NC355739  17.329  14.098   5.589
 4335POPC   PO455740  17.623  14.524   5.159
 4335POPC   GL155741  17.658  14.539   5.673
 4335POPC   GL255742  17.381  14.505   5.932
 4335POPC   C1A55743  17.824  14.593   6.155
 4335POPC   D2A55744  17.718  14.477   6.600
 4335POPC   C3A55745  17.891  14.566   7.018
 4335POPC   C4A55746  17.493  14.713   7.178
 4335POPC   C1B55747  17.459  14.148   6.237
 4335POPC   C2B55748  17.543  13.982   6.652
 4335POPC   C3B55749  17.459  14.215   7.035
 4335POPC   C4B55750  17.228  14.171   7.426
 4336POPC   NC355751   2.652   6.935   5.654
 4336POPC   PO455752   2.687   7.510   5.375
 4336POPC   GL155753   2.782   7.448   5.804
 4336POPC   GL255754   2.442   7.401   5.866
 4336POPC   C1A55755   2.853   7.400   6.263
 4336POPC   D2A55756   2.660   7.367   6.695
 4336POPC   C3A55757   2.880   7.278   7.098
 4336POPC   C4A55758   3.064   7.509   7.425
 4336POPC   C1B55759   2.529   7.795   6.095
 4336POPC   C2B55760   2.688   7.867   6.516
 4336POPC   C3B55761   2.614   7.797   6.974
 4336POPC   C4B55762   2.399   7.457   7.148
 4337POPC   NC355763  43.703  29.827   5.432
 4337POPC   PO455764  44.229  30.360   5.399
 4337POPC   GL155765  43.995  30.058   5.798
 4337POPC   GL255766  43.620  30.007   5.920
 4337POPC   C1A55767  43.917  29.813   6.253
 4337POPC   D2A55768  43.734  29.874   6.686
 4337POPC   C3A55769  43.948  29.680   7.039
 4337POPC   C4A55770  43.972  29.765   7.473
 4337POPC   C1B55771  43.595  30.241   6.310
 4337POPC   C2B55772  43.820  30.393   6.683
 4337POPC   C3B55773  43.984  30.211   7.063
 4337POPC   C4B55774  43.919  30.255   7.517
 4338POPC   NC355775  42.839   9.470   5.441
 4338POPC   PO455776  42.285   9.788   5.448
 4338POPC   GL155777  42.346   9.634   5.841
 4338POPC   GL255778  42.174   9.347   5.979
 4338POPC   C1A55779  42.217   9.818   6.229
 4338POPC   D2A55780  42.377  10.074   6.525
 4338POPC   C3A55781  42.248  10.009   6.927
 4338POPC   C4A55782  42.444   9.868   7.250
 4338POPC   C1B55783  42.508   9.426   6.295
 4338POPC   C2B55784  42.445   9.594   6.704
 4338POPC   C3B55785  42.171   9.463   7.013
 4338POPC   C4B55786  42.349   9.373   7.399
 4339POPC   NC355787   3.631  20.976   5.500
 4339POPC   PO455788   3.249  20.270   5.453
 4339POPC   GL155789   3.468  20.520   5.762
 4339POPC   GL255790   3.313  20.839   5.893
 4339POPC   C1A55791   3.651  20.535   6.163
 4339POPC   D2A55792   3.522  20.690   6.570
 4339POPC   C3A55793   3.694  20.476   6.942
 4339POPC   C4A55794   3.562  20.380   7.357
 4339POPC   C1B55795   3.607  21.044   6.173
 4339POPC   C2B55796   3.664  21.188   6.604
 4339POPC   C3B55797   3.595  20.996   7.020
 4339POPC   C4B55798   3.313  20.815   7.286
 4340POPC   NC355799  31.886  38.139   5.153
 4340POPC   PO455800  31.533  38.758   5.132
 4340POPC   GL155801  31.444  38.473   5.623
 4340POPC   GL255802  31.609  38.175   5.790
 4340POPC   C1A55803  31.299  38.338   6.139
 4340POPC   D2A55804  31.471  38.150   6.591
 4340POPC   C3A55805  31.388  38.221   7.074
 4340POPC   C4A55806  31.186  38.582   7.271
 4340POPC   C1B55807  31.809  38.389   6.207
 4340POPC   C2B55808  31.874  38.513   6.648
 4340POPC   C3B55809  31.703  38.621   7.046
 4340POPC   C4B55810  31.652  38.659   7.469
 4341POPC   NC355811  29.663  13.710   5.185
 4341POPC   PO455812  28.978  13.434   5.148
 4341POPC   GL155813  29.004  13.636   5.615
 4341POPC   GL255814  29.013  13.331   5.761
 4341POPC   C1A55815  28.937  13.722   6.086
 4341POPC   D2A55816  29.114  13.808   6.487
 4341POPC   C3A55817  29.055  13.621   6.856
 4341POPC   C4A55818  28.990  13.621   7.265
 4341POPC   C1B55819  29.302  13.329   6.130
 4341POPC   C2B55820  29.350  13.281   6.580
 4341POPC   C3B55821  29.487  13.371   7.020
 4341POPC   C4B55822  29.351  13.322   7.466
 4342POPC   NC355823  12.003  38.723   5.471
 4342POPC   PO455824  12.526  38.454   5.678
 4342POPC   GL155825  12.166  38.379   5.902
 4342POPC   GL255826  11.839  38.279   5.794
 4342POPC   C1A55827  12.241  38.270   6.302
 4342POPC   D2A55828  12.470  38.487   6.599
 4342POPC   C3A55829  12.306  38.730   6.916
 4342POPC   C4A55830  12.344  38.526   7.282
 4342POPC   C1B55831  11.753  38.429   6.239
 4342POPC   C2B55832  11.917  38.379   6.694
 4342POPC   C3B55833  11.863  38.356   7.168
 4342POPC   C4B55834  11.814  38.199   7.619
 4343POPC   NC355835   7.619  16.521   5.530
 4343POPC   PO455836   8.180  16.564   5.154
 4343POPC   GL155837   8.125  16.656   5.637
 4343POPC   GL255838   7.875  16.913   5.726
 4343POPC   C1A55839   8.396  16.705   6.044
 4343POPC   D2A55840   8.377  16.833   6.474
 4343POPC   C3A55841   8.424  16.551   6.828
 4343POPC   C4A55842   8.391  16.638   7.276
 4343POPC   C1B55843   7.899  16.659   6.123
 4343POPC   C2B55844   7.987  16.515   6.538
 4343POPC   C3B55845   7.951  16.646   6.952
 4343POPC   C4B55846   7.910  16.414   7.317
 4344POPC   NC355847  11.193  19.404   5.539
 4344POPC   PO455848  11.509  18.788   5.359
 4344POPC   GL155849  11.432  19.013   5.789
 4344POPC   GL255850  11.076  18.945   5.815
 4344POPC   C1A55851  11.258  19.282   6.199
 4344POPC   D2A55852  11.225  19.492   6.652
 4344POPC   C3A55853  11.428  19.279   7.029
 4344POPC   C4A55854  11.264  19.248   7.491
 4344POPC   C1B55855  10.919  18.892   6.252
 4344POPC   C2B55856  11.119  18.993   6.671
 4344POPC   C3B55857  11.094  18.876   7.114
 4344POPC   C4B55858  10.716  18.655   7.205
 4345POPC   NC355859  44.816   1.189   5.308
 4345POPC   PO455860  44.289   1.474   5.361
 4345POPC   GL155861  44.541   1.406   5.766
 4345POPC   GL255862  44.692   1.049   5.810
 4345POPC   C1A55863  44.460   1.287   6.218
 4345POPC   D2A55864  44.621   1.060   6.599
 4345POPC   C3A55865  44.450   1.219   6.995
 4345POPC   C4A55866  44.414   1.124   7.437
 4345POPC   C1B55867  44.960   1.107   6.197
 4345POPC   C2B55868   0.109   0.934   6.604
 4345POPC   C3B55869  44.972   1.117   7.005
 4345POPC   C4B55870   0.173   1.119   7.395
 4346POPC   NC355871   8.164  13.033   5.349
 4346POPC   PO455872   7.644  12.491   5.529
 4346POPC   GL155873   8.080  12.630   5.798
 4346POPC   GL255874   8.228  12.978   5.838
 4346POPC   C1A55875   8.196  12.728   6.269
 4346POPC   D2A55876   8.169  13.119   6.564
 4346POPC   C3A55877   7.999  13.057   6.986
 4346POPC   C4A55878   8.031  12.789   7.340
 4346POPC   C1B55879   8.490  13.128   6.160
 4346POPC   C2B55880   8.659  12.993   6.564
 4346POPC   C3B55881   8.500  12.836   6.950
 4346POPC   C4B55882   8.451  13.142   7.247
 4347POPC   NC355883  44.198  24.078   5.114
 4347POPC   PO455884  43.712  24.509   5.405
 4347POPC   GL155885  43.574  24.648   5.803
 4347POPC   GL255886  43.460  24.353   5.962
 4347POPC   C1A55887  43.618  24.788   6.242
 4347POPC   D2A55888  43.909  24.928   6.587
 4347POPC   C3A55889  43.891  24.667   6.965
 4347POPC   C4A55890  44.123  24.324   7.164
 4347POPC   C1B55891  43.765  24.248   6.283
 4347POPC   C2B55892  43.820  24.199   6.724
 4347POPC   C3B55893  43.663  24.065   7.117
 4347POPC   C4B55894  43.642  24.189   7.572
 4348POPC   NC355895   1.589  40.105   5.458
 4348POPC   PO455896   2.236  39.872   5.432
 4348POPC   GL155897   1.982  39.925   5.795
 4348POPC   GL255898   1.644  39.755   5.838
 4348POPC   C1A55899   2.043  39.849   6.211
 4348POPC   D2A55900   2.095  39.808   6.633
 4348POPC   C3A55901   2.113  40.153   6.929
 4348POPC   C4A55902   2.077  39.766   7.188
 4348POPC   C1B55903   1.597  40.090   6.149
 4348POPC   C2B55904   1.722  40.189   6.581
 4348POPC   C3B55905   1.654  39.956   6.965
 4348POPC   C4B55906   1.760  40.218   7.324
 4349POPC   NC355907  36.922  40.815   5.208
 4349POPC   PO455908  36.523  40.324   5.463
 4349POPC   GL155909  36.641  40.699   5.727
 4349POPC   GL255910  36.990  40.781   5.731
 4349POPC   C1A55911  36.719  40.898   6.170
 4349POPC   D2A55912  37.052  40.986   6.511
 4349POPC   C3A55913  36.912  40.992   6.926
 4349POPC   C4A55914  36.757  40.684   7.177
 4349POPC   C1B55915  37.159  40.650   6.142
 4349POPC   C2B55916  37.303  40.499   6.539
 4349POPC   C3B55917  37.237  40.548   6.973
 4349POPC   C4B55918  37.355  40.893   7.186
 4350POPC   NC355919  39.494  25.510   5.492
 4350POPC   PO455920  38.918  25.217   5.318
 4350POPC   GL155921  39.149  25.183   5.727
 4350POPC   GL255922  39.508  25.099   5.810
 4350POPC   C1A55923  39.115  25.137   6.160
 4350POPC   D2A55924  39.076  24.931   6.532
 4350POPC   C3A55925  38.923  25.078   6.897
 4350POPC   C4A55926  39.092  25.086   7.300
 4350POPC   C1B55927  39.597  25.410   6.125
 4350POPC   C2B55928  39.536  25.424   6.549
 4350POPC   C3B55929  39.389  25.324   6.945
 4350POPC   C4B55930  39.531  25.361   7.351
 4351POPC   NC355931   6.934  31.326   5.583
 4351POPC   PO455932   7.498  31.768   5.515
 4351POPC   GL155933   7.569  31.624   5.882
 4351POPC   GL255934   7.347  31.367   5.933
 4351POPC   C1A55935   7.458  31.775   6.287
 4351POPC   D2A55936   7.372  31.957   6.662
 4351POPC   C3A55937   7.583  31.855   7.021
 4351POPC   C4A55938   7.528  31.416   7.093
 4351POPC   C1B55939   7.083  31.399   6.310
 4351POPC   C2B55940   6.941  31.235   6.720
 4351POPC   C3B55941   7.030  31.298   7.161
 4351POPC   C4B55942   7.175  31.690   7.312
 4352POPC   NC355943  24.775  25.899   5.469
 4352POPC   PO455944  24.174  26.172   5.461
 4352POPC   GL155945  24.391  25.922   5.782
 4352POPC   GL255946  24.578  26.236   5.815
 4352POPC   C1A55947  24.607  25.880   6.186
 4352POPC   D2A55948  24.377  26.020   6.541
 4352POPC   C3A55949  24.415  25.830   6.944
 4352POPC   C4A55950  24.231  25.930   7.358
 4352POPC   C1B55951  24.682  26.374   6.211
 4352POPC   C2B55952  24.890  26.165   6.566
 4352POPC   C3B55953  24.760  26.237   6.995
 4352POPC   C4B55954  24.679  26.195   7.467
 4353POPC   NC355955   0.765  10.266   5.400
 4353POPC   PO455956   1.441  10.574   5.364
 4353POPC   GL155957   1.374  10.659   5.815
 4353POPC   GL255958   1.041  10.687   5.827
 4353POPC   C1A55959   1.273  10.774   6.276
 4353POPC   D2A55960   0.997  10.690   6.658
 4353POPC   C3A55961   1.182  10.643   7.102
 4353POPC   C4A55962   1.136  10.968   7.435
 4353POPC   C1B55963   1.088  10.328   6.085
 4353POPC   C2B55964   1.121  10.196   6.491
 4353POPC   C3B55965   0.950  10.220   6.908
 4353POPC   C4B55966   1.036  10.041   7.294
 4354POPC   NC355967  44.172  13.491   5.508
 4354POPC   PO455968  44.664  13.996   5.503
 4354POPC   GL155969  44.739  13.730   5.877
 4354POPC   GL255970  44.697  13.341   5.833
 4354POPC   C1A55971  44.777  13.580   6.310
 4354POPC   D2A55972  44.417  13.520   6.576
 4354POPC   C3A55973  44.500  13.769   6.889
 4354POPC   C4A55974  44.494  13.795   7.294
 4354POPC   C1B55975  44.576  13.099   6.222
 4354POPC   C2B55976  44.696  13.106   6.656
 4354POPC   C3B55977  44.887  13.426   6.921
 4354POPC   C4B55978  44.871  13.430   7.354
 4355POPC   NC355979  21.704  15.747   5.474
 4355POPC   PO455980  22.354  15.732   5.476
 4355POPC   GL155981  22.305  15.840   5.894
 4355POPC   GL255982  21.924  15.885   5.913
 4355POPC   C1A55983  22.183  15.933   6.336
 4355POPC   D2A55984  22.096  16.214   6.676
 4355POPC   C3A55985  22.170  16.011   7.073
 4355POPC   C4A55986  22.433  15.675   7.213
 4355POPC   C1B55987  21.721  16.177   6.246
 4355POPC   C2B55988  21.575  16.318   6.673
 4355POPC   C3B55989  21.774  16.348   7.073
 4355POPC   C4B55990  22.031  16.335   7.462
 4356POPC   NC355991  35.218  21.991   5.346
 4356POPC   PO455992  34.994  22.501   5.667
 4356POPC   GL155993  35.329  22.201   5.816
 4356POPC   GL255994  35.300  21.800   5.829
 4356POPC   C1A55995  35.515  22.283   6.214
 4356POPC   D2A55996  35.714  22.411   6.590
 4356POPC   C3A55997  35.453  22.433   6.959
 4356POPC   C4A55998  35.092  22.289   7.187
 4356POPC   C1B55999  35.423  21.780   6.270
 4356POPC   C2B56000  35.324  22.016   6.655
 4356POPC   C3B56001  35.384  21.871   7.067
 4356POPC   C4B56002  35.651  21.563   7.264
 4357POPC   NC356003  23.734   0.743   5.186
 4357POPC   PO456004  23.682   0.183   5.510
 4357POPC   GL156005  23.756   0.317   5.926
 4357POPC   GL256006  23.668   0.635   5.850
 4357POPC   C1A56007  23.865   0.279   6.353
 4357POPC   D2A56008  23.615   0.263   6.734
 4357POPC   C3A56009  23.796   0.197   7.148
 4357POPC   C4A56010  23.698   0.263   7.589
 4357POPC   C1B56011  23.712   0.775   6.265
 4357POPC   C2B56012  23.544   0.781   6.693
 4357POPC   C3B56013  23.508   0.657   7.160
 4357POPC   C4B56014  23.671   0.772   7.614
 4358POPC   NC356015  44.921  15.141   5.290
 4358POPC   PO456016  44.303  14.884   5.557
 4358POPC   GL156017  44.587  15.108   5.853
 4358POPC   GL256018  44.952  15.062   5.795
 4358POPC   C1A56019  44.490  15.289   6.253
 4358POPC   D2A56020  44.245  15.137   6.600
 4358POPC   C3A56021  44.416  15.206   7.021
 4358POPC   C4A56022  44.389  15.042   7.435
 4358POPC   C1B56023  44.996  15.162   6.237
 4358POPC   C2B56024  44.843  15.220   6.637
 4358POPC   C3B56025  44.928  15.248   7.056
 4358POPC   C4B56026  44.702  15.572   7.271
 4359POPC   NC356027  25.006  35.009   5.606
 4359POPC   PO456028  25.672  34.910   5.428
 4359POPC   GL156029  25.479  34.801   5.807
 4359POPC   GL256030  25.268  34.480   5.870
 4359POPC   C1A56031  25.391  34.820   6.233
 4359POPC   D2A56032  25.427  34.496   6.547
 4359POPC   C3A56033  25.346  34.722   6.913
 4359POPC   C4A56034  25.372  34.556   7.299
 4359POPC   C1B56035  25.006  34.468   6.250
 4359POPC   C2B56036  24.961  34.253   6.615
 4359POPC   C3B56037  25.212  34.201   6.970
 4359POPC   C4B56038  25.167  34.088   7.383
 4360POPC   NC356039  28.228  34.250   5.473
 4360POPC   PO456040  28.506  34.865   5.471
 4360POPC   GL156041  28.364  34.631   5.820
 4360POPC   GL256042  28.600  34.317   5.823
 4360POPC   C1A56043  28.227  34.799   6.226
 4360POPC   D2A56044  28.466  34.772   6.609
 4360POPC   C3A56045  28.262  34.756   6.992
 4360POPC   C4A56046  28.051  34.810   7.379
 4360POPC   C1B56047  28.439  34.342   6.246
 4360POPC   C2B56048  28.312  34.275   6.672
 4360POPC   C3B56049  28.582  34.317   7.015
 4360POPC   C4B56050  28.570  34.600   7.368
 4361POPC   NC356051  42.470  12.620   5.415
 4361POPC   PO456052  41.814  12.782   5.440
 4361POPC   GL156053  42.101  12.836   5.818
 4361POPC   GL256054  42.455  13.001   5.778
 4361POPC   C1A56055  42.144  13.087   6.214
 4361POPC   D2A56056  42.439  13.176   6.564
 4361POPC   C3A56057  42.274  13.031   6.922
 4361POPC   C4A56058  42.228  12.772   7.298
 4361POPC   C1B56059  42.683  12.977   6.171
 4361POPC   C2B56060  42.730  12.723   6.539
 4361POPC   C3B56061  42.629  12.681   6.964
 4361POPC   C4B56062  42.758  12.887   7.332
 4362POPC   NC356063  35.563  42.852   5.355
 4362POPC   PO456064  35.173  43.271   5.143
 4362POPC   GL156065  35.285  43.170   5.647
 4362POPC   GL256066  35.342  42.826   5.796
 4362POPC   C1A56067  35.442  43.204   6.095
 4362POPC   D2A56068  35.224  43.116   6.474
 4362POPC   C3A56069  35.391  43.284   6.819
 4362POPC   C4A56070  35.183  43.265   7.218
 4362POPC   C1B56071  35.195  42.694   6.193
 4362POPC   C2B56072  35.342  42.623   6.629
 4362POPC   C3B56073  35.277  42.808   7.008
 4362POPC   C4B56074  35.115  42.783   7.412
 4363POPC   NC356075  33.054   2.192   5.146
 4363POPC   PO456076  32.799   2.156   5.740
 4363POPC   GL156077  33.163   2.061   5.942
 4363POPC   GL256078  33.206   1.742   5.883
 4363POPC   C1A56079  33.186   2.246   6.324
 4363POPC   D2A56080  32.946   2.127   6.685
 4363POPC   C3A56081  33.144   2.184   7.045
 4363POPC   C4A56082  32.945   2.122   7.418
 4363POPC   C1B56083  33.011   1.762   6.323
 4363POPC   C2B56084  32.927   1.599   6.744
 4363POPC   C3B56085  33.054   1.687   7.164
 4363POPC   C4B56086  33.403   1.926   7.406
 4364POPC   NC356087  31.682  16.969   5.380
 4364POPC   PO456088  31.154  16.480   5.346
 4364POPC   GL156089  31.360  16.693   5.729
 4364POPC   GL256090  31.730  16.739   5.824
 4364POPC   C1A56091  31.423  16.738   6.212
 4364POPC   D2A56092  31.594  16.833   6.626
 4364POPC   C3A56093  31.340  16.995   6.986
 4364POPC   C4A56094  31.125  16.797   7.329
 4364POPC   C1B56095  31.879  17.026   6.178
 4364POPC   C2B56096  31.898  17.239   6.578
 4364POPC   C3B56097  31.852  17.089   6.996
 4364POPC   C4B56098  31.665  17.101   7.402
 4365POPC   NC356099  34.894  36.192   5.624
 4365POPC   PO456100  34.271  35.917   5.520
 4365POPC   GL156101  34.437  36.095   5.889
 4365POPC   GL256102  34.570  35.771   5.960
 4365POPC   C1A56103  34.537  36.314   6.301
 4365POPC   D2A56104  34.762  36.205   6.691
 4365POPC   C3A56105  34.515  36.157   7.045
 4365POPC   C4A56106  34.140  36.020   7.227
 4365POPC   C1B56107  34.880  35.947   6.243
 4365POPC   C2B56108  35.134  35.864   6.619
 4365POPC   C3B56109  34.898  35.762   6.985
 4365POPC   C4B56110  34.687  35.787   7.362
 4366POPC   NC356111   7.222  15.928   5.230
 4366POPC   PO456112   7.870  16.152   5.393
 4366POPC   GL156113   7.484  16.041   5.685
 4366POPC   GL256114   7.092  16.067   5.704
 4366POPC   C1A56115   7.507  15.944   6.144
 4366POPC   D2A56116   7.696  16.091   6.550
 4366POPC   C3A56117   7.514  15.951   6.940
 4366POPC   C4A56118   7.563  16.060   7.385
 4366POPC   C1B56119   7.024  16.161   6.149
 4366POPC   C2B56120   7.126  16.282   6.583
 4366POPC   C3B56121   6.916  16.301   6.975
 4366POPC   C4B56122   6.991  16.014   7.310
 4367POPC   NC356123  13.964   7.780   5.324
 4367POPC   PO456124  13.419   7.361   5.388
 4367POPC   GL156125  13.390   7.277   5.820
 4367POPC   GL256126  13.736   7.168   5.866
 4367POPC   C1A56127  13.490   7.525   6.202
 4367POPC   D2A56128  13.816   7.493   6.527
 4367POPC   C3A56129  13.622   7.549   6.940
 4367POPC   C4A56130  13.613   7.630   7.382
 4367POPC   C1B56131  13.629   7.048   6.303
 4367POPC   C2B56132  13.664   7.062   6.756
 4367POPC   C3B56133  13.683   7.055   7.202
 4367POPC   C4B56134  13.366   7.150   7.463
 4368POPC   NC356135   0.064   6.423   5.478
 4368POPC   PO456136  44.756   6.973   5.493
 4368POPC   GL156137  44.716   6.691   5.820
 4368POPC   GL256138  44.867   6.381   5.972
 4368POPC   C1A56139  44.573   6.789   6.211
 4368POPC   D2A56140  44.568   6.617   6.603
 4368POPC   C3A56141  44.691   6.900   6.911
 4368POPC   C4A56142  44.673   6.800   7.341
 4368POPC   C1B56143  44.437   6.301   6.181
 4368POPC   C2B56144  44.268   6.198   6.600
 4368POPC   C3B56145  44.294   6.398   7.033
 4368POPC   C4B56146  44.393   6.331   7.501
 4369POPC   NC356147  31.296   7.629   5.529
 4369POPC   PO456148  31.667   7.177   5.175
 4369POPC   GL156149  31.439   7.172   5.666
 4369POPC   GL256150  31.169   6.967   5.812
 4369POPC   C1A56151  31.457   7.375   6.111
 4369POPC   D2A56152  31.664   7.544   6.497
 4369POPC   C3A56153  31.518   7.687   6.888
 4369POPC   C4A56154  31.673   7.541   7.291
 4369POPC   C1B56155  31.093   7.068   6.237
 4369POPC   C2B56156  31.268   7.216   6.625
 4369POPC   C3B56157  31.253   7.299   7.062
 4369POPC   C4B56158  31.368   7.140   7.429
 4370POPC   NC356159  37.876  25.168   5.468
 4370POPC   PO456160  37.224  25.254   5.404
 4370POPC   GL156161  37.461  25.168   5.791
 4370POPC   GL256162  37.731  25.456   5.856
 4370POPC   C1A56163  37.379  25.167   6.235
 4370POPC   D2A56164  37.319  25.538   6.504
 4370POPC   C3A56165  37.539  25.602   6.901
 4370POPC   C4A56166  37.511  25.422   7.287
 4370POPC   C1B56167  37.926  25.195   6.166
 4370POPC   C2B56168  37.760  25.136   6.594
 4370POPC   C3B56169  37.915  25.265   6.980
 4370POPC   C4B56170  37.935  25.142   7.387
 4371POPC   NC356171  24.704  12.789   5.365
 4371POPC   PO456172  24.043  12.784   5.270
 4371POPC   GL156173  24.225  12.809   5.735
 4371POPC   GL256174  24.538  12.846   5.845
 4371POPC   C1A56175  24.318  12.669   6.248
 4371POPC   D2A56176  24.634  12.609   6.590
 4371POPC   C3A56177  24.476  12.634   7.020
 4371POPC   C4A56178  24.776  12.633   7.353
 4371POPC   C1B56179  24.345  13.159   6.181
 4371POPC   C2B56180  24.513  13.101   6.636
 4371POPC   C3B56181  24.731  13.070   7.053
 4371POPC   C4B56182  24.622  13.119   7.510
 4372POPC   NC356183  20.001  22.429   5.334
 4372POPC   PO456184  19.833  21.742   5.288
 4372POPC   GL156185  19.969  21.885   5.778
 4372POPC   GL256186  19.893  22.257   5.797
 4372POPC   C1A56187  19.726  22.018   6.195
 4372POPC   D2A56188  19.821  22.339   6.475
 4372POPC   C3A56189  19.895  22.164   6.888
 4372POPC   C4A56190  19.645  22.271   7.254
 4372POPC   C1B56191  20.217  22.410   6.085
 4372POPC   C2B56192  20.340  22.391   6.518
 4372POPC   C3B56193  20.402  22.329   6.962
 4372POPC   C4B56194  20.176  22.205   7.307
 4373POPC   NC356195  16.054  15.446   5.465
 4373POPC   PO456196  15.634  14.999   5.226
 4373POPC   GL156197  15.725  15.122   5.702
 4373POPC   GL256198  16.076  15.065   5.832
 4373POPC   C1A56199  15.687  15.070   6.171
 4373POPC   D2A56200  15.489  15.039   6.577
 4373POPC   C3A56201  15.737  15.188   6.883
 4373POPC   C4A56202  15.815  15.176   7.319
 4373POPC   C1B56203  16.351  15.183   6.173
 4373POPC   C2B56204  16.199  15.220   6.585
 4373POPC   C3B56205  16.232  15.132   7.020
 4373POPC   C4B56206  16.315  15.311   7.424
 4374POPC   NC356207  38.763  11.649   5.503
 4374POPC   PO456208  38.643  10.966   5.491
 4374POPC   GL156209  38.569  11.348   5.865
 4374POPC   GL256210  38.244  11.475   5.961
 4374POPC   C1A56211  38.509  11.479   6.385
 4374POPC   D2A56212  38.212  11.330   6.738
 4374POPC   C3A56213  38.361  11.365   7.189
 4374POPC   C4A56214  38.577  11.368   7.638
 4374POPC   C1B56215  38.329  11.045   6.187
 4374POPC   C2B56216  38.223  10.818   6.582
 4374POPC   C3B56217  38.140  10.924   7.049
 4374POPC   C4B56218  38.194  11.026   7.527
 4375POPC   NC356219   6.301  40.150   5.529
 4375POPC   PO456220   5.690  39.953   5.550
 4375POPC   GL156221   5.811  39.987   5.942
 4375POPC   GL256222   5.967  40.249   5.875
 4375POPC   C1A56223   5.833  39.955   6.400
 4375POPC   D2A56224   5.929  39.671   6.731
 4375POPC   C3A56225   5.952  39.923   7.091
 4375POPC   C4A56226   5.929  40.060   7.497
 4375POPC   C1B56227   6.179  40.306   6.187
 4375POPC   C2B56228   6.096  40.512   6.514
 4375POPC   C3B56229   5.984  40.398   6.877
 4375POPC   C4B56230   6.201  40.392   7.202
 4376POPC   NC356231  23.599  14.848   5.512
 4376POPC   PO456232  24.032  15.362   5.537
 4376POPC   GL156233  23.822  15.168   5.873
 4376POPC   GL256234  24.001  14.830   5.902
 4376POPC   C1A56235  23.634  15.330   6.268
 4376POPC   D2A56236  23.409  15.411   6.677
 4376POPC   C3A56237  23.623  15.327   7.061
 4376POPC   C4A56238  23.548  15.211   7.472
 4376POPC   C1B56239  23.714  14.821   6.257
 4376POPC   C2B56240  23.639  14.925   6.710
 4376POPC   C3B56241  23.871  14.882   7.108
 4376POPC   C4B56242  23.931  14.757   7.541
 4377POPC   NC356243  21.452   3.748   5.250
 4377POPC   PO456244  20.946   3.323   5.391
 4377POPC   GL156245  21.272   3.244   5.725
 4377POPC   GL256246  21.511   3.546   5.776
 4377POPC   C1A56247  21.243   3.135   6.177
 4377POPC   D2A56248  21.279   3.384   6.562
 4377POPC   C3A56249  21.498   3.316   6.948
 4377POPC   C4A56250  21.303   3.383   7.326
 4377POPC   C1B56251  21.426   3.736   6.195
 4377POPC   C2B56252  21.290   3.893   6.615
 4377POPC   C3B56253  21.455   3.858   7.051
 4377POPC   C4B56254  21.673   3.709   7.430
 4378POPC   NC356255   7.629   5.504   5.512
 4378POPC   PO456256   7.033   5.879   5.461
 4378POPC   GL156257   7.273   5.741   5.823
 4378POPC   GL256258   7.573   5.954   5.817
 4378POPC   C1A56259   7.472   5.541   6.189
 4378POPC   D2A56260   7.390   5.377   6.591
 4378POPC   C3A56261   7.483   5.608   6.968
 4378POPC   C4A56262   7.378   5.733   7.373
 4378POPC   C1B56263   7.490   6.065   6.250
 4378POPC   C2B56264   7.415   6.056   6.687
 4378POPC   C3B56265   7.294   6.300   7.020
 4378POPC   C4B56266   7.480   6.223   7.392
 4379POPC   NC356267  31.226   9.278   5.482
 4379POPC   PO456268  31.855   8.933   5.375
 4379POPC   GL156269  31.573   8.931   5.718
 4379POPC   GL256270  31.592   9.286   5.818
 4379POPC   C1A56271  31.313   8.869   6.083
 4379POPC   D2A56272  31.229   8.782   6.524
 4379POPC   C3A56273  31.457   8.960   6.886
 4379POPC   C4A56274  31.394   8.756   7.268
 4379POPC   C1B56275  31.338   9.378   6.168
 4379POPC   C2B56276  31.477   9.382   6.563
 4379POPC   C3B56277  31.394   9.502   6.962
 4379POPC   C4B56278  31.492   9.280   7.306
 4380POPC   NC356279  43.626  24.942   5.272
 4380POPC   PO456280  43.821  25.557   5.437
 4380POPC   GL156281  43.837  25.302   5.807
 4380POPC   GL256282  44.136  25.404   5.933
 4380POPC   C1A56283  43.734  25.302   6.264
 4380POPC   D2A56284  43.585  25.322   6.701
 4380POPC   C3A56285  43.878  25.210   7.032
 4380POPC   C4A56286  43.676  25.011   7.357
 4380POPC   C1B56287  44.110  25.654   6.270
 4380POPC   C2B56288  44.066  25.501   6.645
 4380POPC   C3B56289  44.168  25.672   7.002
 4380POPC   C4B56290  44.207  25.526   7.339
 4381POPC   NC356291  27.152   1.738   5.337
 4381POPC   PO456292  27.902   1.914   5.369
 4381POPC   GL156293  27.689   1.878   5.764
 4381POPC   GL256294  27.559   2.215   5.813
 4381POPC   C1A56295  27.614   1.901   6.216
 4381POPC   D2A56296  27.696   2.156   6.581
 4381POPC   C3A56297  27.631   1.960   6.979
 4381POPC   C4A56298  27.704   1.748   7.361
 4381POPC   C1B56299  27.340   2.325   6.206
 4381POPC   C2B56300  27.206   2.321   6.618
 4381POPC   C3B56301  27.340   2.366   7.055
 4381POPC   C4B56302  27.269   2.028   7.381
 4382POPC   NC356303  35.859  18.081   5.345
 4382POPC   PO456304  36.312  18.555   5.341
 4382POPC   GL156305  36.289  18.355   5.779
 4382POPC   GL256306  36.037  18.085   5.826
 4382POPC   C1A56307  36.110  18.458   6.196
 4382POPC   D2A56308  35.971  18.229   6.581
 4382POPC   C3A56309  36.133  18.375   6.973
 4382POPC   C4A56310  35.983  18.286   7.368
 4382POPC   C1B56311  36.235  17.948   6.218
 4382POPC   C2B56312  36.244  17.796   6.653
 4382POPC   C3B56313  36.231  17.889   7.104
 4382POPC   C4B56314  36.237  17.894   7.572
 4383POPC   NC356315  14.204  14.496   5.110
 4383POPC   PO456316  13.604  14.320   5.401
 4383POPC   GL156317  13.621  14.352   5.842
 4383POPC   GL256318  13.737  14.025   5.909
 4383POPC   C1A56319  13.798  14.584   6.207
 4383POPC   D2A56320  13.862  14.482   6.621
 4383POPC   C3A56321  13.635  14.591   6.986
 4383POPC   C4A56322  13.938  14.821   7.170
 4383POPC   C1B56323  13.572  14.145   6.321
 4383POPC   C2B56324  13.498  14.166   6.733
 4383POPC   C3B56325  13.677  14.098   7.113
 4383POPC   C4B56326  13.904  13.828   7.371
 4384POPC   NC356327  26.668  34.491   5.435
 4384POPC   PO456328  27.350  34.466   5.429
 4384POPC   GL156329  27.231  34.573   5.820
 4384POPC   GL256330  26.878  34.670   5.863
 4384POPC   C1A56331  27.113  34.401   6.216
 4384POPC   D2A56332  26.958  34.558   6.595
 4384POPC   C3A56333  26.992  34.315   6.927
 4384POPC   C4A56334  27.091  34.389   7.316
 4384POPC   C1B56335  26.732  34.849   6.242
 4384POPC   C2B56336  26.734  35.014   6.679
 4384POPC   C3B56337  26.856  34.792   7.062
 4384POPC   C4B56338  26.657  34.647   7.450
 4385POPC   NC356339  13.074   9.957   5.143
 4385POPC   PO456340  12.988   9.363   5.485
 4385POPC   GL156341  12.676   9.548   5.783
 4385POPC   GL256342  12.690   9.943   5.774
 4385POPC   C1A56343  12.604   9.675   6.206
 4385POPC   D2A56344  12.793   9.939   6.481
 4385POPC   C3A56345  12.841   9.876   6.906
 4385POPC   C4A56346  12.903   9.864   7.348
 4385POPC   C1B56347  12.485  10.182   6.134
 4385POPC   C2B56348  12.347  10.186   6.575
 4385POPC   C3B56349  12.531  10.288   7.007
 4385POPC   C4B56350  12.586  10.237   7.468
 4386POPC   NC356351   2.309  39.390   5.401
 4386POPC   PO456352   1.793  38.977   5.486
 4386POPC   GL156353   1.899  39.308   5.756
 4386POPC   GL256354   2.214  39.227   5.922
 4386POPC   C1A56355   1.809  39.383   6.200
 4386POPC   D2A56356   2.027  39.227   6.565
 4386POPC   C3A56357   1.762  39.103   6.892
 4386POPC   C4A56358   1.791  39.299   7.247
 4386POPC   C1B56359   2.239  38.864   6.232
 4386POPC   C2B56360   2.244  38.713   6.658
 4386POPC   C3B56361   2.259  38.958   7.018
 4386POPC   C4B56362   2.213  39.118   7.435
 4387POPC   NC356363   5.326  36.647   5.467
 4387POPC   PO456364   5.379  37.286   5.409
 4387POPC   GL156365   5.112  37.247   5.783
 4387POPC   GL256366   4.960  36.897   5.751
 4387POPC   C1A56367   5.237  37.128   6.213
 4387POPC   D2A56368   5.449  36.813   6.488
 4387POPC   C3A56369   5.257  36.771   6.893
 4387POPC   C4A56370   5.048  37.141   7.038
 4387POPC   C1B56371   4.916  36.675   6.153
 4387POPC   C2B56372   4.891  36.862   6.565
 4387POPC   C3B56373   4.727  36.749   6.981
 4387POPC   C4B56374   4.614  36.987   7.338
 4388POPC   NC356375   5.890  10.103   5.447
 4388POPC   PO456376   5.659  10.856   5.537
 4388POPC   GL156377   5.599  10.589   5.908
 4388POPC   GL256378   5.811  10.263   5.939
 4388POPC   C1A56379   5.807  10.654   6.299
 4388POPC   D2A56380   6.008  10.801   6.656
 4388POPC   C3A56381   5.702  10.821   6.948
 4388POPC   C4A56382   5.823  10.681   7.319
 4388POPC   C1B56383   5.567  10.197   6.339
 4388POPC   C2B56384   5.655  10.332   6.778
 4388POPC   C3B56385   6.067  10.393   6.989
 4388POPC   C4B56386   6.294  10.181   7.331
 4389POPC   NC356387   6.816  10.329   5.444
 4389POPC   PO456388   6.355  10.756   5.108
 4389POPC   GL156389   6.461  10.623   5.650
 4389POPC   GL256390   6.793  10.702   5.831
 4389POPC   C1A56391   6.396  10.701   6.145
 4389POPC   D2A56392   6.715  10.671   6.499
 4389POPC   C3A56393   6.562  10.681   6.915
 4389POPC   C4A56394   6.331  10.698   7.313
 4389POPC   C1B56395   6.759  10.325   6.120
 4389POPC   C2B56396   6.750  10.110   6.554
 4389POPC   C3B56397   6.922  10.189   6.987
 4389POPC   C4B56398   6.788  10.467   7.318
 4390POPC   NC356399  23.963   8.115   5.551
 4390POPC   PO456400  23.350   7.882   5.484
 4390POPC   GL156401  23.569   8.027   5.891
 4390POPC   GL256402  23.538   8.356   5.869
 4390POPC   C1A56403  23.898   8.252   6.214
 4390POPC   D2A56404  23.916   8.489   6.605
 4390POPC   C3A56405  23.751   8.307   6.979
 4390POPC   C4A56406  23.830   8.013   7.337
 4390POPC   C1B56407  23.408   8.416   6.298
 4390POPC   C2B56408  23.366   8.586   6.712
 4390POPC   C3B56409  23.354   8.581   7.154
 4390POPC   C4B56410  23.571   8.397   7.506
 4391POPC   NC356411   9.024  43.767   5.516
 4391POPC   PO456412   9.124  44.382   5.675
 4391POPC   GL156413   8.842  44.149   5.867
 4391POPC   GL256414   8.664  43.807   5.868
 4391POPC   C1A56415   8.948  43.942   6.265
 4391POPC   D2A56416   9.231  43.745   6.466
 4391POPC   C3A56417   9.110  43.655   6.856
 4391POPC   C4A56418   9.284  43.710   7.268
 4391POPC   C1B56419   8.486  44.104   6.199
 4391POPC   C2B56420   8.612  44.257   6.620
 4391POPC   C3B56421   8.698  44.102   7.024
 4391POPC   C4B56422   8.779  43.719   7.233
 4392POPC   NC356423  18.525  25.287   5.356
 4392POPC   PO456424  17.919  25.430   5.403
 4392POPC   GL156425  18.203  25.364   5.764
 4392POPC   GL256426  18.405  25.047   5.780
 4392POPC   C1A56427  18.234  25.284   6.208
 4392POPC   D2A56428  18.260  25.502   6.607
 4392POPC   C3A56429  18.346  25.270   6.935
 4392POPC   C4A56430  18.334  25.414   7.329
 4392POPC   C1B56431  18.580  24.900   6.154
 4392POPC   C2B56432  18.426  24.931   6.554
 4392POPC   C3B56433  18.527  24.800   6.957
 4392POPC   C4B56434  18.438  24.922   7.393
 4393POPC   NC356435  32.262  28.585   5.116
 4393POPC   PO456436  32.182  29.222   5.414
 4393POPC   GL156437  32.091  29.298   5.828
 4393POPC   GL256438  31.913  28.978   5.822
 4393POPC   C1A56439  32.215  29.425   6.272
 4393POPC   D2A56440  32.454  29.351   6.675
 4393POPC   C3A56441  32.185  29.265   7.069
 4393POPC   C4A56442  31.898  29.433   7.416
 4393POPC   C1B56443  32.152  28.919   6.180
 4393POPC   C2B56444  32.078  28.967   6.617
 4393POPC   C3B56445  32.093  28.759   7.014
 4393POPC   C4B56446  32.392  28.840   7.319
 4394POPC   NC356447  17.796   9.823   5.424
 4394POPC   PO456448  18.509   9.746   5.452
 4394POPC   GL156449  18.385   9.551   5.819
 4394POPC   GL256450  18.070   9.625   5.803
 4394POPC   C1A56451  18.513   9.522   6.230
 4394POPC   D2A56452  18.300   9.593   6.601
 4394POPC   C3A56453  18.399   9.783   6.963
 4394POPC   C4A56454  18.667   9.651   7.269
 4394POPC   C1B56455  18.058   9.801   6.211
 4394POPC   C2B56456  18.090  10.062   6.626
 4394POPC   C3B56457  17.937  10.004   7.056
 4394POPC   C4B56458  17.860   9.966   7.529
 4395POPC   NC356459   3.569   0.210   5.577
 4395POPC   PO456460   4.000   0.536   5.203
 4395POPC   GL156461   3.882   0.597   5.702
 4395POPC   GL256462   4.004   0.916   5.757
 4395POPC   C1A56463   3.698   0.426   6.176
 4395POPC   D2A56464   3.418   0.457   6.590
 4395POPC   C3A56465   3.502   0.294   7.022
 4395POPC   C4A56466   3.368   0.238   7.490
 4395POPC   C1B56467   4.036   0.808   6.201
 4395POPC   C2B56468   4.029   0.774   6.660
 4395POPC   C3B56469   3.724   0.758   6.998
 4395POPC   C4B56470   3.729   0.571   7.372
 4396POPC   NC356471  36.560  39.556   5.547
 4396POPC   PO456472  36.070  39.992   5.331
 4396POPC   GL156473  36.056  39.937   5.790
 4396POPC   GL256474  36.398  39.968   5.835
 4396POPC   C1A56475  35.883  39.808   6.211
 4396POPC   D2A56476  35.903  39.985   6.647
 4396POPC   C3A56477  35.818  39.768   7.023
 4396POPC   C4A56478  36.049  39.849   7.361
 4396POPC   C1B56479  36.309  40.095   6.255
 4396POPC   C2B56480  36.356  40.241   6.658
 4396POPC   C3B56481  36.395  40.055   7.046
 4396POPC   C4B56482  36.362  40.357   7.388
 4397POPC   NC356483  23.850  44.321   5.593
 4397POPC   PO456484  23.617  43.609   5.451
 4397POPC   GL156485  23.700  43.681   5.901
 4397POPC   GL256486  23.921  43.945   5.913
 4397POPC   C1A56487  23.539  43.904   6.278
 4397POPC   D2A56488  23.417  44.070   6.686
 4397POPC   C3A56489  23.534  43.831   7.009
 4397POPC   C4A56490  23.696  43.875   7.408
 4397POPC   C1B56491  23.922  44.284   6.263
 4397POPC   C2B56492  24.077  44.411   6.682
 4397POPC   C3B56493  23.853  44.296   7.074
 4397POPC   C4B56494  23.444  44.287   7.225
 4398POPC   NC356495   3.023  23.386   5.590
 4398POPC   PO456496   2.634  23.570   5.134
 4398POPC   GL156497   2.712  23.851   5.629
 4398POPC   GL256498   2.505  23.953   5.926
 4398POPC   C1A56499   3.017  23.926   6.025
 4398POPC   D2A56500   3.140  23.965   6.505
 4398POPC   C3A56501   2.883  23.814   6.871
 4398POPC   C4A56502   2.839  23.751   7.348
 4398POPC   C1B56503   2.619  23.827   6.357
 4398POPC   C2B56504   2.634  23.431   6.598
 4398POPC   C3B56505   2.715  23.349   7.033
 4398POPC   C4B56506   2.503  23.373   7.427
 4399POPC   NC356507  35.235  38.831   5.546
 4399POPC   PO456508  35.376  38.175   5.594
 4399POPC   GL156509  35.364  38.456   5.974
 4399POPC   GL256510  35.112  38.719   6.025
 4399POPC   C1A56511  35.406  38.510   6.450
 4399POPC   D2A56512  35.558  38.323   6.854
 4399POPC   C3A56513  35.387  38.378   7.269
 4399POPC   C4A56514  35.600  38.429   7.674
 4399POPC   C1B56515  35.525  38.916   6.150
 4399POPC   C2B56516  35.636  38.997   6.578
 4399POPC   C3B56517  35.544  38.866   6.994
 4399POPC   C4B56518  35.217  38.851   7.281
 4400POPC   NC356519  21.874   4.096   5.491
 4400POPC   PO456520  22.278   4.616   5.484
 4400POPC   GL156521  22.097   4.408   5.824
 4400POPC   GL256522  21.741   4.526   5.774
 4400POPC   C1A56523  22.239   4.233   6.233
 4400POPC   D2A56524  22.479   4.273   6.637
 4400POPC   C3A56525  22.274   4.167   7.036
 4400POPC   C4A56526  22.358   4.091   7.522
 4400POPC   C1B56527  21.917   4.709   6.168
 4400POPC   C2B56528  22.044   4.581   6.574
 4400POPC   C3B56529  21.875   4.648   6.983
 4400POPC   C4B56530  21.922   4.639   7.418
 4401POPC   NC356531  24.778  37.541   5.309
 4401POPC   PO456532  24.366  38.017   5.175
 4401POPC   GL156533  24.474  37.935   5.662
 4401POPC   GL256534  24.540  37.606   5.783
 4401POPC   C1A56535  24.313  37.895   6.138
 4401POPC   D2A56536  24.382  37.623   6.527
 4401POPC   C3A56537  24.350  37.874   6.900
 4401POPC   C4A56538  24.541  37.974   7.286
 4401POPC   C1B56539  24.599  37.331   6.155
 4401POPC   C2B56540  24.919  37.412   6.509
 4401POPC   C3B56541  24.783  37.555   6.910
 4401POPC   C4B56542  24.488  37.479   7.225
 4402POPC   NC356543  15.509   7.707   5.570
 4402POPC   PO456544  16.179   7.476   5.431
 4402POPC   GL156545  16.255   7.273   5.828
 4402POPC   GL256546  15.898   7.318   5.846
 4402POPC   C1A56547  16.127   7.183   6.284
 4402POPC   D2A56548  15.970   6.953   6.631
 4402POPC   C3A56549  16.104   7.125   7.029
 4402POPC   C4A56550  15.980   7.171   7.451
 4402POPC   C1B56551  16.081   7.652   6.125
 4402POPC   C2B56552  16.025   7.778   6.527
 4402POPC   C3B56553  15.874   7.571   6.877
 4402POPC   C4B56554  16.008   7.641   7.286
 4403POPC   NC356555  42.711  16.258   5.411
 4403POPC   PO456556  42.187  16.807   5.388
 4403POPC   GL156557  42.410  16.774   5.747
 4403POPC   GL256558  42.481  16.458   5.809
 4403POPC   C1A56559  42.326  16.814   6.169
 4403POPC   D2A56560  42.499  16.938   6.544
 4403POPC   C3A56561  42.324  16.734   6.926
 4403POPC   C4A56562  42.461  16.837   7.327
 4403POPC   C1B56563  42.587  16.332   6.194
 4403POPC   C2B56564  42.534  16.429   6.586
 4403POPC   C3B56565  42.673  16.325   6.985
 4403POPC   C4B56566  42.537  16.129   7.356
 4404POPC   NC356567   9.627  39.877   5.351
 4404POPC   PO456568  10.239  39.965   5.641
 4404POPC   GL156569   9.866  39.844   5.835
 4404POPC   GL256570   9.597  40.134   5.799
 4404POPC   C1A56571   9.804  39.696   6.267
 4404POPC   D2A56572   9.568  39.669   6.636
 4404POPC   C3A56573   9.724  39.878   6.976
 4404POPC   C4A56574   9.912  39.970   7.308
 4404POPC   C1B56575   9.819  40.220   6.163
 4404POPC   C2B56576   9.705  40.144   6.541
 4404POPC   C3B56577   9.544  40.340   6.893
 4404POPC   C4B56578   9.752  40.435   7.251
 4405POPC   NC356579   0.823  28.236   5.492
 4405POPC   PO456580   1.508  28.381   5.563
 4405POPC   GL156581   1.244  28.195   5.835
 4405POPC   GL256582   1.027  28.454   5.902
 4405POPC   C1A56583   1.228  28.139   6.268
 4405POPC   D2A56584   1.332  28.328   6.658
 4405POPC   C3A56585   1.144  28.080   6.958
 4405POPC   C4A56586   1.203  28.130   7.360
 4405POPC   C1B56587   1.067  28.640   6.288
 4405POPC   C2B56588   0.855  28.587   6.669
 4405POPC   C3B56589   0.965  28.572   7.078
 4405POPC   C4B56590   0.731  28.304   7.310
 4406POPC   NC356591  39.560  15.976   5.521
 4406POPC   PO456592  38.924  15.953   5.288
 4406POPC   GL156593  39.045  15.919   5.740
 4406POPC   GL256594  39.246  15.647   5.810
 4406POPC   C1A56595  38.974  15.972   6.221
 4406POPC   D2A56596  38.851  16.173   6.665
 4406POPC   C3A56597  39.041  15.986   7.033
 4406POPC   C4A56598  39.381  16.123   7.254
 4406POPC   C1B56599  39.460  15.781   6.208
 4406POPC   C2B56600  39.331  15.799   6.623
 4406POPC   C3B56601  39.525  15.707   7.005
 4406POPC   C4B56602  39.306  15.628   7.399
 4407POPC   NC356603   8.659   8.177   5.273
 4407POPC   PO456604   8.019   8.282   5.359
 4407POPC   GL156605   8.114   8.257   5.822
 4407POPC   GL256606   8.473   8.120   5.822
 4407POPC   C1A56607   7.987   8.138   6.282
 4407POPC   D2A56608   7.964   7.920   6.701
 4407POPC   C3A56609   7.915   8.103   7.138
 4407POPC   C4A56610   8.159   8.296   7.491
 4407POPC   C1B56611   8.651   8.127   6.264
 4407POPC   C2B56612   8.404   8.139   6.613
 4407POPC   C3B56613   8.399   8.264   7.024
 4407POPC   C4B56614   8.639   8.109   7.399
 4408POPC   NC356615   0.848  24.932   5.545
 4408POPC   PO456616   1.257  24.515   5.189
 4408POPC   GL156617   1.346  24.452   5.656
 4408POPC   GL256618   1.068  24.220   5.751
 4408POPC   C1A56619   1.362  24.662   6.086
 4408POPC   D2A56620   1.360  24.480   6.518
 4408POPC   C3A56621   1.181  24.584   6.930
 4408POPC   C4A56622   1.219  24.527   7.416
 4408POPC   C1B56623   0.975  24.334   6.187
 4408POPC   C2B56624   0.817  24.341   6.629
 4408POPC   C3B56625   0.926  24.154   7.045
 4408POPC   C4B56626   0.943  24.087   7.489
 4409POPC   NC356627  36.420  43.106   5.444
 4409POPC   PO456628  35.723  43.287   5.400
 4409POPC   GL156629  35.943  43.333   5.783
 4409POPC   GL256630  35.942  42.964   5.826
 4409POPC   C1A56631  36.112  43.420   6.222
 4409POPC   D2A56632  35.972  43.350   6.678
 4409POPC   C3A56633  36.207  43.217   7.062
 4409POPC   C4A56634  36.024  43.371   7.460
 4409POPC   C1B56635  36.232  42.910   6.208
 4409POPC   C2B56636  36.129  42.784   6.626
 4409POPC   C3B56637  35.748  42.878   6.792
 4409POPC   C4B56638  35.710  43.096   7.154
 4410POPC   NC356639  16.427  43.146   5.589
 4410POPC   PO456640  16.812  42.704   5.210
 4410POPC   GL156641  16.919  42.868   5.680
 4410POPC   GL256642  16.864  43.242   5.830
 4410POPC   C1A56643  16.914  42.803   6.173
 4410POPC   D2A56644  16.909  42.622   6.634
 4410POPC   C3A56645  16.640  42.811   6.946
 4410POPC   C4A56646  16.850  43.157   7.135
 4410POPC   C1B56647  16.608  43.352   6.231
 4410POPC   C2B56648  16.621  43.275   6.694
 4410POPC   C3B56649  16.346  43.218   7.084
 4410POPC   C4B56650  16.486  43.175   7.527
 4411POPC   NC356651  37.200  11.147   5.406
 4411POPC   PO456652  36.516  11.411   5.425
 4411POPC   GL156653  36.724  11.244   5.868
 4411POPC   GL256654  37.102  11.215   5.904
 4411POPC   C1A56655  36.857  11.263   6.350
 4411POPC   D2A56656  37.122  11.456   6.682
 4411POPC   C3A56657  36.827  11.400   7.001
 4411POPC   C4A56658  36.534  11.219   7.239
 4411POPC   C1B56659  37.310  11.017   6.280
 4411POPC   C2B56660  37.230  10.940   6.705
 4411POPC   C3B56661  37.156  11.055   7.113
 4411POPC   C4B56662  37.327  11.025   7.487
 4412POPC   NC356663  35.424  22.627   5.514
 4412POPC   PO456664  35.008  23.143   5.354
 4412POPC   GL156665  35.081  22.985   5.786
 4412POPC   GL256666  35.447  23.010   5.827
 4412POPC   C1A56667  35.128  22.891   6.238
 4412POPC   D2A56668  35.087  22.628   6.619
 4412POPC   C3A56669  35.147  22.880   6.983
 4412POPC   C4A56670  35.433  22.800   7.316
 4412POPC   C1B56671  35.633  22.794   6.170
 4412POPC   C2B56672  35.527  22.893   6.580
 4412POPC   C3B56673  35.651  23.053   6.947
 4412POPC   C4B56674  35.980  22.875   7.166
 4413POPC   NC356675  34.347  33.371   5.437
 4413POPC   PO456676  34.594  32.741   5.292
 4413POPC   GL156677  34.510  32.921   5.714
 4413POPC   GL256678  34.717  32.663   5.824
 4413POPC   C1A56679  34.540  33.119   6.164
 4413POPC   D2A56680  34.792  33.199   6.582
 4413POPC   C3A56681  34.618  33.062   6.996
 4413POPC   C4A56682  34.735  33.064   7.439
 4413POPC   C1B56683  34.495  32.602   6.201
 4413POPC   C2B56684  34.599  32.696   6.624
 4413POPC   C3B56685  34.558  32.534   7.052
 4413POPC   C4B56686  34.720  32.433   7.468
 4414POPC   NC356687  27.137  35.374   5.433
 4414POPC   PO456688  26.668  34.967   5.498
 4414POPC   GL156689  26.885  35.185   5.850
 4414POPC   GL256690  27.226  35.069   5.825
 4414POPC   C1A56691  26.777  35.355   6.265
 4414POPC   D2A56692  26.585  35.554   6.628
 4414POPC   C3A56693  26.781  35.433   7.008
 4414POPC   C4A56694  26.805  35.181   7.378
 4414POPC   C1B56695  27.276  35.192   6.232
 4414POPC   C2B56696  27.163  35.288   6.638
 4414POPC   C3B56697  27.232  35.145   7.033
 4414POPC   C4B56698  27.226  35.457   7.318
 4415POPC   NC356699  42.093   5.011   5.440
 4415POPC   PO456700  42.583   5.421   5.499
 4415POPC   GL156701  42.309   5.207   5.852
 4415POPC   GL256702  41.964   5.363   5.799
 4415POPC   C1A56703  42.193   4.882   6.182
 4415POPC   D2A56704  42.061   4.787   6.640
 4415POPC   C3A56705  42.393   4.818   6.921
 4415POPC   C4A56706  42.407   5.084   7.257
 4415POPC   C1B56707  42.010   5.517   6.209
 4415POPC   C2B56708  42.119   5.325   6.608
 4415POPC   C3B56709  42.050   5.443   7.035
 4415POPC   C4B56710  42.104   5.432   7.491
 4416POPC   NC356711  36.472  13.485   5.484
 4416POPC   PO456712  37.043  13.945   5.291
 4416POPC   GL156713  36.888  13.704   5.712
 4416POPC   GL256714  36.761  13.942   5.935
 4416POPC   C1A56715  36.906  13.518   6.187
 4416POPC   D2A56716  36.902  13.160   6.491
 4416POPC   C3A56717  36.744  13.272   6.916
 4416POPC   C4A56718  36.967  13.326   7.333
 4416POPC   C1B56719  37.086  13.983   6.263
 4416POPC   C2B56720  36.915  13.928   6.712
 4416POPC   C3B56721  36.751  13.778   7.136
 4416POPC   C4B56722  36.688  13.693   7.594
 4417POPC   NC356723  16.778   3.832   5.450
 4417POPC   PO456724  16.937   3.217   5.291
 4417POPC   GL156725  16.684   3.330   5.715
 4417POPC   GL256726  16.511   3.637   5.821
 4417POPC   C1A56727  16.632   3.267   6.189
 4417POPC   D2A56728  16.745   3.059   6.594
 4417POPC   C3A56729  16.640   3.261   6.967
 4417POPC   C4A56730  16.930   3.419   7.207
 4417POPC   C1B56731  16.638   3.826   6.211
 4417POPC   C2B56732  16.705   3.657   6.619
 4417POPC   C3B56733  16.795   3.871   7.000
 4417POPC   C4B56734  16.782   4.125   7.349
 4418POPC   NC356735  40.945  33.269   5.589
 4418POPC   PO456736  40.806  32.806   5.185
 4418POPC   GL156737  40.727  32.808   5.678
 4418POPC   GL256738  40.456  32.554   5.751
 4418POPC   C1A56739  40.685  33.051   6.121
 4418POPC   D2A56740  40.448  33.255   6.449
 4418POPC   C3A56741  40.470  33.169   6.904
 4418POPC   C4A56742  40.716  33.379   7.204
 4418POPC   C1B56743  40.696  32.553   6.160
 4418POPC   C2B56744  40.622  32.762   6.591
 4418POPC   C3B56745  40.621  32.615   7.046
 4418POPC   C4B56746  40.783  32.671   7.473
 4419POPC   NC356747  30.318  18.009   5.569
 4419POPC   PO456748  29.669  17.910   5.576
 4419POPC   GL156749  29.919  18.149   5.878
 4419POPC   GL256750  29.982  18.494   5.702
 4419POPC   C1A56751  30.243  18.130   6.243
 4419POPC   D2A56752  30.446  18.125   6.680
 4419POPC   C3A56753  30.151  18.082   7.047
 4419POPC   C4A56754  30.172  18.161   7.491
 4419POPC   C1B56755  29.742  18.610   6.076
 4419POPC   C2B56756  29.878  18.603   6.517
 4419POPC   C3B56757  29.767  18.397   6.922
 4419POPC   C4B56758  29.723  18.383   7.394
 4420POPC   NC356759   9.153  23.950   5.472
 4420POPC   PO456760   8.916  23.353   5.329
 4420POPC   GL156761   8.851  23.599   5.738
 4420POPC   GL256762   9.169  23.716   5.931
 4420POPC   C1A56763   8.697  23.646   6.193
 4420POPC   D2A56764   8.743  23.418   6.607
 4420POPC   C3A56765   8.688  23.586   7.027
 4420POPC   C4A56766   9.064  23.582   7.272
 4420POPC   C1B56767   9.190  23.595   6.387
 4420POPC   C2B56768   9.120  23.759   6.798
 4420POPC   C3B56769   9.254  24.039   7.179
 4420POPC   C4B56770   9.093  24.257   7.545
 4421POPC   NC356771   1.395  44.128   5.608
 4421POPC   PO456772   0.959  43.840   5.303
 4421POPC   GL156773   0.966  43.888   5.775
 4421POPC   GL256774   1.249  43.697   5.876
 4421POPC   C1A56775   1.038  44.032   6.220
 4421POPC   D2A56776   0.994  43.783   6.600
 4421POPC   C3A56777   0.943  44.071   6.932
 4421POPC   C4A56778   0.880  43.969   7.347
 4421POPC   C1B56779   1.416  43.685   6.296
 4421POPC   C2B56780   1.465  43.878   6.712
 4421POPC   C3B56781   1.305  43.721   7.119
 4421POPC   C4B56782   1.330  43.865   7.550
 4422POPC   NC356783   1.335   9.479   5.376
 4422POPC   PO456784   0.775   9.851   5.180
 4422POPC   GL156785   1.018   9.858   5.593
 4422POPC   GL256786   1.269  10.151   5.631
 4422POPC   C1A56787   1.016   9.810   6.055
 4422POPC   D2A56788   1.240   9.693   6.439
 4422POPC   C3A56789   1.054   9.665   6.849
 4422POPC   C4A56790   1.179   9.431   7.189
 4422POPC   C1B56791   1.498   9.998   6.017
 4422POPC   C2B56792   1.635  10.026   6.478
 4422POPC   C3B56793   1.432  10.022   6.868
 4422POPC   C4B56794   1.513   9.838   7.236
 4423POPC   NC356795  15.178  29.638   5.603
 4423POPC   PO456796  15.149  29.011   5.562
 4423POPC   GL156797  15.269  29.206   5.919
 4423POPC   GL256798  15.577  29.419   5.879
 4423POPC   C1A56799  15.037  29.353   6.279
 4423POPC   D2A56800  14.877  29.562   6.647
 4423POPC   C3A56801  14.996  29.317   6.999
 4423POPC   C4A56802  15.354  29.292   7.216
 4423POPC   C1B56803  15.546  29.323   6.325
 4423POPC   C2B56804  15.386  29.120   6.688
 4423POPC   C3B56805  15.623  28.923   7.027
 4423POPC   C4B56806  15.483  28.877   7.459
 4424POPC   NC356807   8.069  14.146   5.439
 4424POPC   PO456808   8.213  13.526   5.349
 4424POPC   GL156809   8.258  13.499   5.781
 4424POPC   GL256810   8.069  13.795   5.797
 4424POPC   C1A56811   8.206  13.587   6.241
 4424POPC   D2A56812   8.350  13.790   6.616
 4424POPC   C3A56813   8.226  13.520   6.919
 4424POPC   C4A56814   8.129  13.552   7.292
 4424POPC   C1B56815   7.889  14.055   6.121
 4424POPC   C2B56816   7.743  13.998   6.516
 4424POPC   C3B56817   7.892  13.906   6.877
 4424POPC   C4B56818   7.801  13.942   7.260
 4425POPC   NC356819  20.184   4.555   5.551
 4425POPC   PO456820  19.692   4.196   5.291
 4425POPC   GL156821  19.867   4.079   5.751
 4425POPC   GL256822  20.200   4.010   5.870
 4425POPC   C1A56823  19.834   3.953   6.220
 4425POPC   D2A56824  19.676   4.294   6.507
 4425POPC   C3A56825  19.689   4.222   6.948
 4425POPC   C4A56826  19.516   4.289   7.353
 4425POPC   C1B56827  20.141   4.354   6.218
 4425POPC   C2B56828  20.261   4.322   6.664
 4425POPC   C3B56829  20.191   4.228   7.097
 4425POPC   C4B56830  19.978   4.468   7.337
 4426POPC   NC356831   9.907  41.796   5.570
 4426POPC   PO456832   9.520  41.313   5.397
 4426POPC   GL156833   9.723  41.374   5.805
 4426POPC   GL256834   9.996  41.162   5.894
 4426POPC   C1A56835   9.818  41.585   6.214
 4426POPC   D2A56836   9.602  41.618   6.622
 4426POPC   C3A56837   9.795  41.762   7.012
 4426POPC   C4A56838   9.521  42.013   7.250
 4426POPC   C1B56839   9.709  41.086   6.244
 4426POPC   C2B56840   9.727  41.132   6.677
 4426POPC   C3B56841   9.664  41.265   7.104
 4426POPC   C4B56842   9.721  41.238   7.550
 4427POPC   NC356843   9.922   7.004   5.438
 4427POPC   PO456844   9.694   6.398   5.587
 4427POPC   GL156845   9.672   6.707   5.839
 4427POPC   GL256846  10.026   6.772   5.867
 4427POPC   C1A56847   9.442   6.627   6.219
 4427POPC   D2A56848   9.630   6.487   6.587
 4427POPC   C3A56849   9.563   6.622   6.971
 4427POPC   C4A56850   9.702   6.345   7.298
 4427POPC   C1B56851   9.979   6.690   6.292
 4427POPC   C2B56852   9.989   6.816   6.722
 4427POPC   C3B56853  10.048   6.708   7.119
 4427POPC   C4B56854   9.764   6.842   7.401
 4428POPC   NC356855  26.247  20.758   5.380
 4428POPC   PO456856  25.800  20.318   5.656
 4428POPC   GL156857  25.926  20.710   5.791
 4428POPC   GL256858  25.581  20.811   5.841
 4428POPC   C1A56859  26.169  20.843   6.145
 4428POPC   D2A56860  26.241  20.651   6.558
 4428POPC   C3A56861  26.198  20.874   6.945
 4428POPC   C4A56862  26.196  20.699   7.342
 4428POPC   C1B56863  25.675  20.654   6.250
 4428POPC   C2B56864  25.745  20.801   6.661
 4428POPC   C3B56865  25.714  20.700   7.083
 4428POPC   C4B56866  25.769  20.416   7.401
 4429POPC   NC356867  42.538  40.439   5.356
 4429POPC   PO456868  42.418  39.776   5.320
 4429POPC   GL156869  42.441  40.025   5.712
 4429POPC   GL256870  42.139  40.167   5.819
 4429POPC   C1A56871  42.528  39.946   6.172
 4429POPC   D2A56872  42.346  39.967   6.630
 4429POPC   C3A56873  42.499  39.934   7.080
 4429POPC   C4A56874  42.306  40.129   7.473
 4429POPC   C1B56875  42.018  40.144   6.256
 4429POPC   C2B56876  41.877  40.182   6.701
 4429POPC   C3B56877  41.954  39.970   7.122
 4429POPC   C4B56878  41.823  39.980   7.615
 4430POPC   NC356879  20.876  44.084   5.236
 4430POPC   PO456880  20.317  43.742   5.169
 4430POPC   GL156881  20.491  43.842   5.628
 4430POPC   GL256882  20.860  43.845   5.720
 4430POPC   C1A56883  20.519  43.863   6.102
 4430POPC   D2A56884  20.751  44.051   6.466
 4430POPC   C3A56885  20.589  43.944   6.866
 4430POPC   C4A56886  20.673  44.129   7.245
 4430POPC   C1B56887  20.988  43.689   6.143
 4430POPC   C2B56888  20.706  43.533   6.482
 4430POPC   C3B56889  20.694  43.420   6.927
 4430POPC   C4B56890  20.550  43.617   7.323
 4431POPC   NC356891  34.735  18.357   5.677
 4431POPC   PO456892  35.386  18.187   5.256
 4431POPC   GL156893  35.534  18.269   5.703
 4431POPC   GL256894  35.324  18.519   5.875
 4431POPC   C1A56895  35.648  18.233   6.157
 4431POPC   D2A56896  35.594  18.564   6.449
 4431POPC   C3A56897  35.636  18.525   6.890
 4431POPC   C4A56898  35.468  18.244   7.198
 4431POPC   C1B56899  35.144  18.321   6.256
 4431POPC   C2B56900  35.192  18.286   6.698
 4431POPC   C3B56901  35.111  18.597   6.957
 4431POPC   C4B56902  35.215  18.640   7.400
 4432POPC   NC356903  31.352   0.110   5.539
 4432POPC   PO456904  31.660   0.622   5.323
 4432POPC   GL156905  31.639   0.499   5.785
 4432POPC   GL256906  31.278   0.496   5.865
 4432POPC   C1A56907  31.704   0.644   6.247
 4432POPC   D2A56908  31.883   0.818   6.654
 4432POPC   C3A56909  31.789   0.612   7.075
 4432POPC   C4A56910  31.581   0.227   7.270
 4432POPC   C1B56911  31.302   0.324   6.304
 4432POPC   C2B56912  31.434   0.334   6.761
 4432POPC   C3B56913  31.271   0.562   7.129
 4432POPC   C4B56914  31.069   0.765   7.481
 4433POPC   NC356915  21.181  29.610   5.548
 4433POPC   PO456916  21.495  30.212   5.386
 4433POPC   GL156917  21.421  30.215   5.820
 4433POPC   GL256918  21.443  29.857   5.914
 4433POPC   C1A56919  21.552  30.254   6.254
 4433POPC   D2A56920  21.448  29.925   6.561
 4433POPC   C3A56921  21.557  29.863   6.997
 4433POPC   C4A56922  21.529  30.043   7.404
 4433POPC   C1B56923  21.243  29.573   6.221
 4433POPC   C2B56924  21.251  29.361   6.605
 4433POPC   C3B56925  21.139  29.542   6.997
 4433POPC   C4B56926  21.346  29.565   7.437
 4434POPC   NC356927  43.072  28.578   5.425
 4434POPC   PO456928  42.657  28.136   5.549
 4434POPC   GL156929  42.769  28.478   5.822
 4434POPC   GL256930  43.069  28.256   5.836
 4434POPC   C1A56931  43.030  28.624   6.175
 4434POPC   D2A56932  43.066  28.412   6.538
 4434POPC   C3A56933  43.211  28.605   6.895
 4434POPC   C4A56934  43.097  28.342   7.237
 4434POPC   C1B56935  43.355  28.188   6.168
 4434POPC   C2B56936  43.572  28.330   6.538
 4434POPC   C3B56937  43.527  28.177   6.906
 4434POPC   C4B56938  43.473  28.010   7.275
 4435POPC   NC356939  20.011  13.437   5.442
 4435POPC   PO456940  19.459  13.891   5.416
 4435POPC   GL156941  19.817  13.798   5.748
 4435POPC   GL256942  19.584  13.642   5.967
 4435POPC   C1A56943  20.024  13.506   6.115
 4435POPC   D2A56944  20.043  13.409   6.560
 4435POPC   C3A56945  20.118  13.735   6.823
 4435POPC   C4A56946  20.038  13.697   7.238
 4435POPC   C1B56947  19.597  13.315   6.296
 4435POPC   C2B56948  19.504  13.433   6.665
 4435POPC   C3B56949  19.653  13.454   7.008
 4435POPC   C4B56950  19.447  13.663   7.334
 4436POPC   NC356951  36.626  31.336   5.309
 4436POPC   PO456952  37.170  31.665   5.463
 4436POPC   GL156953  37.092  31.575   5.869
 4436POPC   GL256954  36.789  31.387   5.816
 4436POPC   C1A56955  37.143  31.410   6.299
 4436POPC   D2A56956  37.027  31.283   6.747
 4436POPC   C3A56957  36.885  31.548   7.106
 4436POPC   C4A56958  36.829  31.561   7.566
 4436POPC   C1B56959  36.555  31.213   6.169
 4436POPC   C2B56960  36.483  31.016   6.575
 4436POPC   C3B56961  36.573  31.141   6.984
 4436POPC   C4B56962  36.533  31.195   7.397
 4437POPC   NC356963  22.906  28.776   5.499
 4437POPC   PO456964  22.680  28.134   5.407
 4437POPC   GL156965  22.852  28.100   5.779
 4437POPC   GL256966  23.010  28.405   5.833
 4437POPC   C1A56967  22.902  28.005   6.198
 4437POPC   D2A56968  22.843  28.236   6.563
 4437POPC   C3A56969  22.779  28.017   6.941
 4437POPC   C4A56970  23.001  28.219   7.273
 4437POPC   C1B56971  22.817  28.615   6.188
 4437POPC   C2B56972  22.645  28.700   6.641
 4437POPC   C3B56973  22.767  28.643   7.085
 4437POPC   C4B56974  23.075  28.856   7.354
 4438POPC   NC356975  37.739  10.312   5.516
 4438POPC   PO456976  37.645  10.994   5.504
 4438POPC   GL156977  37.416  10.752   5.846
 4438POPC   GL256978  37.261  10.382   5.836
 4438POPC   C1A56979  37.609  10.565   6.231
 4438POPC   D2A56980  37.898  10.331   6.538
 4438POPC   C3A56981  37.948  10.443   6.995
 4438POPC   C4A56982  37.810  10.690   7.391
 4438POPC   C1B56983  37.325  10.162   6.239
 4438POPC   C2B56984  37.372  10.405   6.668
 4438POPC   C3B56985  37.456  10.372   7.128
 4438POPC   C4B56986  37.534  10.095   7.515
 4439POPC   NC356987  26.609  11.769   5.533
 4439POPC   PO456988  27.042  11.347   5.473
 4439POPC   GL156989  26.955  11.590   5.852
 4439POPC   GL256990  26.693  11.354   5.865
 4439POPC   C1A56991  26.989  11.454   6.289
 4439POPC   D2A56992  26.858  11.238   6.671
 4439POPC   C3A56993  26.931  11.403   7.062
 4439POPC   C4A56994  27.326  11.520   7.258
 4439POPC   C1B56995  26.473  11.386   6.244
 4439POPC   C2B56996  26.369  11.105   6.566
 4439POPC   C3B56997  26.438  11.143   6.975
 4439POPC   C4B56998  26.483  11.362   7.352
 4440POPC   NC356999   6.830  37.120   5.420
 4440POPC   PO457000   6.196  36.844   5.387
 4440POPC   GL157001   6.374  36.977   5.816
 4440POPC   GL257002   6.654  37.234   5.887
 4440POPC   C1A57003   6.368  36.825   6.250
 4440POPC   D2A57004   6.422  37.034   6.670
 4440POPC   C3A57005   6.551  36.840   7.075
 4440POPC   C4A57006   6.349  36.566   7.356
 4440POPC   C1B57007   6.782  37.086   6.266
 4440POPC   C2B57008   6.950  36.965   6.650
 4440POPC   C3B57009   6.927  37.158   7.039
 4440POPC   C4B57010   6.934  37.135   7.496
 4441POPC   NC357011  18.115   7.495   5.311
 4441POPC   PO457012  18.589   7.096   5.458
 4441POPC   GL157013  18.365   7.313   5.779
 4441POPC   GL257014  18.449   7.664   5.871
 4441POPC   C1A57015  18.453   7.258   6.224
 4441POPC   D2A57016  18.178   7.321   6.577
 4441POPC   C3A57017  18.254   7.153   6.955
 4441POPC   C4A57018  18.190   7.417   7.290
 4441POPC   C1B57019  18.355   7.753   6.322
 4441POPC   C2B57020  18.418   7.747   6.798
 4441POPC   C3B57021  18.433   7.868   7.254
 4441POPC   C4B57022  18.389   7.737   7.688
 4442POPC   NC357023  38.108   6.503   5.384
 4442POPC   PO457024  38.756   6.585   5.527
 4442POPC   GL157025  38.595   6.390   5.915
 4442POPC   GL257026  38.234   6.379   5.913
 4442POPC   C1A57027  38.545   6.496   6.360
 4442POPC   D2A57028  38.304   6.628   6.724
 4442POPC   C3A57029  38.506   6.611   7.111
 4442POPC   C4A57030  38.892   6.463   7.232
 4442POPC   C1B57031  38.006   6.565   6.286
 4442POPC   C2B57032  37.780   6.632   6.701
 4442POPC   C3B57033  37.908   6.487   7.116
 4442POPC   C4B57034  38.138   6.629   7.469
 4443POPC   NC357035  12.289  42.447   5.457
 4443POPC   PO457036  12.947  42.266   5.246
 4443POPC   GL157037  12.968  42.497   5.668
 4443POPC   GL257038  12.689  42.418   5.771
 4443POPC   C1A57039  13.034  42.475   6.165
 4443POPC   D2A57040  12.954  42.506   6.662
 4443POPC   C3A57041  13.095  42.301   7.113
 4443POPC   C4A57042  13.265  42.451   7.544
 4443POPC   C1B57043  12.525  42.536   6.156
 4443POPC   C2B57044  12.473  42.288   6.522
 4443POPC   C3B57045  12.601  42.249   6.951
 4443POPC   C4B57046  12.661  42.019   7.318
 4444POPC   NC357047  14.709  30.320   5.513
 4444POPC   PO457048  15.287  30.705   5.447
 4444POPC   GL157049  15.105  30.597   5.819
 4444POPC   GL257050  15.090  30.946   5.877
 4444POPC   C1A57051  14.940  30.629   6.229
 4444POPC   D2A57052  15.171  30.532   6.578
 4444POPC   C3A57053  15.054  30.567   6.976
 4444POPC   C4A57054  15.192  30.257   7.245
 4444POPC   C1B57055  15.030  31.133   6.292
 4444POPC   C2B57056  15.191  31.033   6.687
 4444POPC   C3B57057  15.366  30.964   7.105
 4444POPC   C4B57058  15.449  31.012   7.583
 4445POPC   NC357059  38.964   1.190   5.502
 4445POPC   PO457060  39.570   1.558   5.520
 4445POPC   GL157061  39.394   1.274   5.832
 4445POPC   GL257062  39.096   1.462   5.916
 4445POPC   C1A57063  39.288   1.015   6.226
 4445POPC   D2A57064  39.047   0.917   6.623
 4445POPC   C3A57065  39.230   1.005   7.008
 4445POPC   C4A57066  39.309   1.443   7.110
 4445POPC   C1B57067  38.840   1.304   6.251
 4445POPC   C2B57068  38.744   1.446   6.655
 4445POPC   C3B57069  38.793   1.310   7.060
 4445POPC   C4B57070  38.883   1.526   7.408
 4446POPC   NC357071  10.131  30.491   5.130
 4446POPC   PO457072  10.707  30.725   5.393
 4446POPC   GL157073  10.524  30.637   5.785
 4446POPC   GL257074  10.615  30.270   5.803
 4446POPC   C1A57075  10.519  30.896   6.190
 4446POPC   D2A57076  10.720  31.099   6.554
 4446POPC   C3A57077  10.465  31.048   6.891
 4446POPC   C4A57078  10.480  30.875   7.298
 4446POPC   C1B57079  10.410  30.390   6.215
 4446POPC   C2B57080  10.401  30.588   6.638
 4446POPC   C3B57081  10.416  30.382   7.068
 4446POPC   C4B57082  10.451  30.360   7.584
 4447POPC   NC357083  32.414   7.672   5.399
 4447POPC   PO457084  31.934   7.319   5.619
 4447POPC   GL157085  32.125   7.696   5.833
 4447POPC   GL257086  31.940   7.533   6.079
 4447POPC   C1A57087  32.283   7.814   6.274
 4447POPC   D2A57088  32.178   7.447   6.538
 4447POPC   C3A57089  32.016   7.486   6.914
 4447POPC   C4A57090  32.203   7.707   7.226
 4447POPC   C1B57091  31.873   7.121   6.274
 4447POPC   C2B57092  31.754   7.044   6.684
 4447POPC   C3B57093  31.761   7.047   7.113
 4447POPC   C4B57094  32.081   7.238   7.391
 4448POPC   NC357095   2.172  23.908   5.549
 4448POPC   PO457096   1.707  23.442   5.329
 4448POPC   GL157097   1.823  23.547   5.827
 4448POPC   GL257098   1.874  23.905   5.966
 4448POPC   C1A57099   2.115  23.562   6.223
 4448POPC   D2A57100   1.974  23.652   6.630
 4448POPC   C3A57101   2.217  23.492   6.943
 4448POPC   C4A57102   2.407  23.811   7.120
 4448POPC   C1B57103   1.594  23.660   6.275
 4448POPC   C2B57104   1.579  23.321   6.622
 4448POPC   C3B57105   1.707  23.409   7.035
 4448POPC   C4B57106   1.835  23.833   7.091
 4449POPC   NC357107  16.508  14.314   5.414
 4449POPC   PO457108  17.092  14.567   5.521
 4449POPC   GL157109  16.788  14.440   5.810
 4449POPC   GL257110  16.961  14.203   5.934
 4449POPC   C1A57111  16.569  14.409   6.209
 4449POPC   D2A57112  16.849  14.484   6.568
 4449POPC   C3A57113  16.616  14.564   6.955
 4449POPC   C4A57114  16.539  14.410   7.366
 4449POPC   C1B57115  16.863  13.993   6.305
 4449POPC   C2B57116  16.650  14.045   6.714
 4449POPC   C3B57117  16.832  14.069   7.122
 4449POPC   C4B57118  16.772  13.973   7.575
 4450POPC   NC357119  37.358  14.345   5.363
 4450POPC   PO457120  37.748  14.913   5.252
 4450POPC   GL157121  37.737  14.613   5.650
 4450POPC   GL257122  37.993  14.723   5.844
 4450POPC   C1A57123  37.751  14.310   6.084
 4450POPC   D2A57124  37.674  14.062   6.482
 4450POPC   C3A57125  37.673  14.249   6.899
 4450POPC   C4A57126  37.552  14.127   7.307
 4450POPC   C1B57127  37.870  14.762   6.263
 4450POPC   C2B57128  37.615  14.673   6.571
 4450POPC   C3B57129  37.736  14.767   6.911
 4450POPC   C4B57130  37.624  14.648   7.278
 4451POPC   NC357131  39.855   1.158   5.550
 4451POPC   PO457132  40.490   1.329   5.839
 4451POPC   GL157133  40.096   1.197   6.028
 4451POPC   GL257134  39.977   0.858   5.953
 4451POPC   C1A57135  39.921   1.044   6.437
 4451POPC   D2A57136  39.605   1.227   6.728
 4451POPC   C3A57137  39.805   1.503   7.020
 4451POPC   C4A57138  40.150   1.377   7.218
 4451POPC   C1B57139  40.360   0.759   6.185
 4451POPC   C2B57140  40.521   0.820   6.603
 4451POPC   C3B57141  40.235   0.940   6.912
 4451POPC   C4B57142  40.131   0.859   7.318
 4452POPC   NC357143  38.598   9.827   5.442
 4452POPC   PO457144  38.195   9.373   5.422
 4452POPC   GL157145  38.284   9.616   5.796
 4452POPC   GL257146  38.629   9.498   5.833
 4452POPC   C1A57147  38.300   9.875   6.201
 4452POPC   D2A57148  38.085   9.836   6.636
 4452POPC   C3A57149  38.236  10.002   7.028
 4452POPC   C4A57150  38.346   9.882   7.463
 4452POPC   C1B57151  38.790   9.704   6.195
 4452POPC   C2B57152  38.611   9.778   6.615
 4452POPC   C3B57153  38.663   9.690   7.049
 4452POPC   C4B57154  38.573   9.432   7.404
 4453POPC   NC357155  37.772  27.018   5.335
 4453POPC   PO457156  37.915  26.402   5.404
 4453POPC   GL157157  37.859  26.652   5.771
 4453POPC   GL257158  38.061  26.972   5.759
 4453POPC   C1A57159  37.905  26.597   6.232
 4453POPC   D2A57160  38.122  26.619   6.647
 4453POPC   C3A57161  37.824  26.573   7.050
 4453POPC   C4A57162  37.417  26.829   7.048
 4453POPC   C1B57163  37.720  27.051   6.087
 4453POPC   C2B57164  37.622  26.987   6.525
 4453POPC   C3B57165  37.892  27.026   6.857
 4453POPC   C4B57166  37.814  27.089   7.272
 4454POPC   NC357167   3.418  11.176   5.501
 4454POPC   PO457168   3.640  11.868   5.451
 4454POPC   GL157169   3.438  11.628   5.808
 4454POPC   GL257170   3.721  11.418   5.826
 4454POPC   C1A57171   3.367  11.345   6.200
 4454POPC   D2A57172   3.386  10.977   6.522
 4454POPC   C3A57173   3.493  11.148   6.937
 4454POPC   C4A57174   3.536  11.597   7.061
 4454POPC   C1B57175   3.866  11.207   6.171
 4454POPC   C2B57176   3.800  11.354   6.569
 4454POPC   C3B57177   4.049  11.366   6.899
 4454POPC   C4B57178   3.892  11.267   7.261
 4455POPC   NC357179  26.167  12.260   5.310
 4455POPC   PO457180  26.251  11.546   5.370
 4455POPC   GL157181  26.142  11.900   5.691
 4455POPC   GL257182  26.085  12.280   5.804
 4455POPC   C1A57183  26.271  11.951   6.139
 4455POPC   D2A57184  26.096  12.074   6.546
 4455POPC   C3A57185  26.238  11.857   6.913
 4455POPC   C4A57186  25.906  11.934   7.183
 4455POPC   C1B57187  25.902  12.433   6.215
 4455POPC   C2B57188  25.881  12.532   6.692
 4455POPC   C3B57189  25.674  12.413   7.128
 4455POPC   C4B57190  25.716  12.529   7.604
 4456POPC   NC357191   7.970   6.827   5.346
 4456POPC   PO457192   8.458   6.476   5.206
 4456POPC   GL157193   8.339   6.700   5.690
 4456POPC   GL257194   8.020   6.873   5.849
 4456POPC   C1A57195   8.366   6.708   6.194
 4456POPC   D2A57196   8.479   6.426   6.574
 4456POPC   C3A57197   8.122   6.221   6.809
 4456POPC   C4A57198   7.937   6.364   7.199
 4456POPC   C1B57199   7.773   6.995   6.204
 4456POPC   C2B57200   7.939   6.905   6.586
 4456POPC   C3B57201   8.172   6.723   6.885
 4456POPC   C4B57202   8.109   6.841   7.286
 4457POPC   NC357203  33.050  34.171   5.506
 4457POPC   PO457204  33.126  33.528   5.482
 4457POPC   GL157205  33.079  33.731   5.872
 4457POPC   GL257206  33.337  33.955   5.895
 4457POPC   C1A57207  33.083  33.786   6.325
 4457POPC   D2A57208  32.958  33.870   6.731
 4457POPC   C3A57209  32.883  33.642   7.086
 4457POPC   C4A57210  33.168  33.683   7.426
 4457POPC   C1B57211  33.535  34.104   6.256
 4457POPC   C2B57212  33.380  34.157   6.660
 4457POPC   C3B57213  33.294  34.051   7.101
 4457POPC   C4B57214  33.181  34.187   7.561
 4458POPC   NC357215   8.456  23.254   5.297
 4458POPC   PO457216   7.794  22.841   5.296
 4458POPC   GL157217   8.219  22.890   5.649
 4458POPC   GL257218   8.505  23.130   5.786
 4458POPC   C1A57219   8.287  22.794   6.134
 4458POPC   D2A57220   8.051  22.937   6.516
 4458POPC   C3A57221   8.103  22.800   6.947
 4458POPC   C4A57222   7.868  22.936   7.329
 4458POPC   C1B57223   8.707  23.106   6.193
 4458POPC   C2B57224   8.563  22.927   6.605
 4458POPC   C3B57225   8.533  23.093   7.032
 4458POPC   C4B57226   8.580  23.274   7.458
 4459POPC   NC357227  37.543  34.526   5.392
 4459POPC   PO457228  38.092  34.899   5.619
 4459POPC   GL157229  37.739  34.751   5.835
 4459POPC   GL257230  37.550  34.434   5.888
 4459POPC   C1A57231  37.696  34.721   6.273
 4459POPC   D2A57232  37.958  34.580   6.597
 4459POPC   C3A57233  37.802  34.572   6.980
 4459POPC   C4A57234  37.713  34.683   7.362
 4459POPC   C1B57235  37.520  34.213   6.262
 4459POPC   C2B57236  37.648  34.170   6.649
 4459POPC   C3B57237  37.604  34.110   7.039
 4459POPC   C4B57238  37.767  34.194   7.437
 4460POPC   NC357239  32.181  35.910   5.461
 4460POPC   PO457240  32.575  36.447   5.396
 4460POPC   GL157241  32.339  36.285   5.804
 4460POPC   GL257242  32.581  35.992   5.810
 4460POPC   C1A57243  32.080  36.215   6.252
 4460POPC   D2A57244  32.108  36.076   6.724
 4460POPC   C3A57245  31.824  36.266   7.101
 4460POPC   C4A57246  31.865  36.355   7.593
 4460POPC   C1B57247  32.590  36.127   6.247
 4460POPC   C2B57248  32.813  36.234   6.620
 4460POPC   C3B57249  32.625  36.112   6.999
 4460POPC   C4B57250  32.262  36.050   7.215
 4461POPC   NC357251  34.833  23.650   5.470
 4461POPC   PO457252  35.462  23.916   5.637
 4461POPC   GL157253  35.364  23.724   5.975
 4461POPC   GL257254  35.218  23.472   5.789
 4461POPC   C1A57255  35.370  23.759   6.421
 4461POPC   D2A57256  35.179  23.846   6.803
 4461POPC   C3A57257  35.300  24.001   7.149
 4461POPC   C4A57258  35.710  24.077   7.023
 4461POPC   C1B57259  35.036  23.397   6.213
 4461POPC   C2B57260  35.232  23.299   6.621
 4461POPC   C3B57261  35.214  23.400   7.038
 4461POPC   C4B57262  35.451  23.311   7.385
 4462POPC   NC357263  18.261  39.072   5.333
 4462POPC   PO457264  18.167  39.718   5.593
 4462POPC   GL157265  18.177  39.256   5.802
 4462POPC   GL257266  18.470  38.965   5.796
 4462POPC   C1A57267  18.089  38.957   6.150
 4462POPC   D2A57268  18.229  38.925   6.577
 4462POPC   C3A57269  18.125  39.206   6.898
 4462POPC   C4A57270  18.285  39.226   7.295
 4462POPC   C1B57271  18.589  39.286   6.110
 4462POPC   C2B57272  18.440  39.425   6.527
 4462POPC   C3B57273  18.627  39.396   6.939
 4462POPC   C4B57274  18.778  39.441   7.359
 4463POPC   NC357275  24.785  42.859   5.282
 4463POPC   PO457276  24.453  43.285   5.637
 4463POPC   GL157277  24.556  43.122   6.013
 4463POPC   GL257278  24.658  42.788   5.845
 4463POPC   C1A57279  24.509  43.266   6.399
 4463POPC   D2A57280  24.144  43.358   6.666
 4463POPC   C3A57281  24.301  43.382   7.033
 4463POPC   C4A57282  24.738  43.420   7.051
 4463POPC   C1B57283  24.387  42.732   6.234
 4463POPC   C2B57284  24.322  42.860   6.624
 4463POPC   C3B57285  24.358  42.643   6.967
 4463POPC   C4B57286  24.517  42.962   7.174
 4464POPC   NC357287  21.233  35.042   5.451
 4464POPC   PO457288  21.729  35.526   5.485
 4464POPC   GL157289  21.640  35.277   5.821
 4464POPC   GL257290  21.650  35.605   5.999
 4464POPC   C1A57291  21.307  35.199   6.123
 4464POPC   D2A57292  21.156  35.446   6.467
 4464POPC   C3A57293  21.064  35.196   6.823
 4464POPC   C4A57294  20.994  35.248   7.231
 4464POPC   C1B57295  21.754  35.346   6.332
 4464POPC   C2B57296  21.565  35.207   6.703
 4464POPC   C3B57297  21.515  35.312   7.124
 4464POPC   C4B57298  21.623  35.604   7.422
 4465POPC   NC357299  38.300  17.954   5.486
 4465POPC   PO457300  38.441  18.471   5.156
 4465POPC   GL157301  38.492  18.367   5.680
 4465POPC   GL257302  38.534  18.567   5.962
 4465POPC   C1A57303  38.278  18.160   6.095
 4465POPC   D2A57304  38.451  17.970   6.482
 4465POPC   C3A57305  38.449  18.178   6.859
 4465POPC   C4A57306  38.341  18.108   7.278
 4465POPC   C1B57307  38.720  18.358   6.256
 4465POPC   C2B57308  38.817  18.454   6.607
 4465POPC   C3B57309  38.956  18.279   6.911
 4465POPC   C4B57310  38.766  18.373   7.259
 4466POPC   NC357311  29.936  25.775   5.492
 4466POPC   PO457312  29.777  25.092   5.472
 4466POPC   GL157313  30.047  25.235   5.821
 4466POPC   GL257314  29.815  25.506   5.947
 4466POPC   C1A57315  30.136  25.239   6.290
 4466POPC   D2A57316  30.268  25.033   6.692
 4466POPC   C3A57317  30.061  25.276   6.967
 4466POPC   C4A57318  30.093  25.319   7.380
 4466POPC   C1B57319  29.589  25.568   6.343
 4466POPC   C2B57320  29.576  25.466   6.783
 4466POPC   C3B57321  29.586  25.233   7.154
 4466POPC   C4B57322  29.680  25.628   7.328
 4467POPC   NC357323  29.006  32.610   5.240
 4467POPC   PO457324  29.401  33.175   5.453
 4467POPC   GL157325  29.103  33.008   5.777
 4467POPC   GL257326  29.077  32.684   5.987
 4467POPC   C1A57327  29.025  33.134   6.207
 4467POPC   D2A57328  29.248  33.048   6.565
 4467POPC   C3A57329  29.086  33.128   6.978
 4467POPC   C4A57330  28.925  32.743   7.150
 4467POPC   C1B57331  29.481  32.748   6.180
 4467POPC   C2B57332  29.671  32.746   6.562
 4467POPC   C3B57333  29.400  32.682   6.911
 4467POPC   C4B57334  29.417  32.856   7.287
 4468POPC   NC357335  24.904  43.206   5.691
 4468POPC   PO457336  25.529  43.126   5.576
 4468POPC   GL157337  25.326  43.116   5.974
 4468POPC   GL257338  25.183  42.807   5.859
 4468POPC   C1A57339  25.068  43.336   6.304
 4468POPC   D2A57340  25.135  43.453   6.722
 4468POPC   C3A57341  25.438  43.150   6.863
 4468POPC   C4A57342  25.482  42.916   7.232
 4468POPC   C1B57343  24.948  42.825   6.251
 4468POPC   C2B57344  24.872  42.996   6.665
 4468POPC   C3B57345  25.003  42.994   7.079
 4468POPC   C4B57346  24.887  42.700   7.376
 4469POPC   NC357347  10.034   6.071   5.611
 4469POPC   PO457348   9.986   5.447   5.693
 4469POPC   GL157349   9.846   5.796   6.014
 4469POPC   GL257350   9.542   6.037   5.949
 4469POPC   C1A57351   9.909   6.109   6.381
 4469POPC   D2A57352   9.997   6.250   6.855
 4469POPC   C3A57353  10.074   5.968   7.230
 4469POPC   C4A57354   9.864   5.603   7.460
 4469POPC   C1B57355   9.330   5.685   6.197
 4469POPC   C2B57356   9.433   5.532   6.635
 4469POPC   C3B57357   9.649   5.803   6.965
 4469POPC   C4B57358   9.465   5.885   7.373
 4470POPC   NC357359  25.454  43.964   5.340
 4470POPC   PO457360  25.025  43.588   5.472
 4470POPC   GL157361  25.147  43.669   5.905
 4470POPC   GL257362  25.214  44.015   5.871
 4470POPC   C1A57363  25.179  43.849   6.362
 4470POPC   D2A57364  25.070  44.096   6.752
 4470POPC   C3A57365  25.080  43.824   7.119
 4470POPC   C4A57366  25.218  43.411   7.270
 4470POPC   C1B57367  25.558  44.153   6.190
 4470POPC   C2B57368  25.605  44.380   6.606
 4470POPC   C3B57369  25.694  44.275   7.056
 4470POPC   C4B57370  25.357  44.195   7.345
 4471POPC   NC357371   1.763  29.559   5.024
 4471POPC   PO457372   2.224  29.802   5.423
 4471POPC   GL157373   2.021  29.839   5.845
 4471POPC   GL257374   2.205  29.547   5.933
 4471POPC   C1A57375   1.823  29.979   6.237
 4471POPC   D2A57376   1.824  29.950   6.696
 4471POPC   C3A57377   1.823  30.197   7.053
 4471POPC   C4A57378   1.748  30.111   7.477
 4471POPC   C1B57379   2.226  29.634   6.359
 4471POPC   C2B57380   2.147  29.495   6.761
 4471POPC   C3B57381   1.978  29.696   7.114
 4471POPC   C4B57382   2.223  29.962   7.332
 4472POPC   NC357383  33.976  10.312   5.298
 4472POPC   PO457384  33.595  10.956   5.383
 4472POPC   GL157385  33.762  10.650   5.711
 4472POPC   GL257386  34.086  10.435   5.770
 4472POPC   C1A57387  33.716  10.526   6.147
 4472POPC   D2A57388  33.503  10.520   6.542
 4472POPC   C3A57389  33.701  10.549   6.955
 4472POPC   C4A57390  33.759  10.326   7.353
 4472POPC   C1B57391  34.108  10.180   6.154
 4472POPC   C2B57392  34.234  10.070   6.592
 4472POPC   C3B57393  34.090  10.198   6.985
 4472POPC   C4B57394  34.228  10.108   7.396
 4473POPC   NC357395  40.808  12.621   5.196
 4473POPC   PO457396  41.118  12.041   5.407
 4473POPC   GL157397  40.842  12.134   5.738
 4473POPC   GL257398  40.542  12.350   5.679
 4473POPC   C1A57399  40.848  12.065   6.161
 4473POPC   D2A57400  40.881  11.796   6.513
 4473POPC   C3A57401  40.762  11.976   6.902
 4473POPC   C4A57402  40.818  12.014   7.329
 4473POPC   C1B57403  40.498  12.483   6.114
 4473POPC   C2B57404  40.619  12.319   6.534
 4473POPC   C3B57405  40.487  12.403   6.937
 4473POPC   C4B57406  40.510  12.400   7.380
 4474POPC   NC357407  19.440   4.750   5.449
 4474POPC   PO457408  19.979   5.148   5.394
 4474POPC   GL157409  19.857   5.239   5.798
 4474POPC   GL257410  19.730   4.910   5.892
 4474POPC   C1A57411  19.906   5.265   6.242
 4474POPC   D2A57412  19.802   4.975   6.555
 4474POPC   C3A57413  19.914   5.178   6.931
 4474POPC   C4A57414  20.172   5.164   7.301
 4474POPC   C1B57415  19.375   4.848   6.198
 4474POPC   C2B57416  19.344   4.719   6.656
 4474POPC   C3B57417  19.655   4.723   6.993
 4474POPC   C4B57418  19.711   4.880   7.398
 4475POPC   NC357419  14.864   8.212   5.374
 4475POPC   PO457420  14.217   8.066   5.601
 4475POPC   GL157421  14.542   8.187   5.821
 4475POPC   GL257422  14.516   8.552   5.721
 4475POPC   C1A57423  14.509   8.166   6.279
 4475POPC   D2A57424  14.222   8.257   6.612
 4475POPC   C3A57425  14.407   8.154   7.005
 4475POPC   C4A57426  14.425   7.949   7.400
 4475POPC   C1B57427  14.826   8.530   6.064
 4475POPC   C2B57428  14.901   8.477   6.494
 4475POPC   C3B57429  14.829   8.465   6.950
 4475POPC   C4B57430  14.577   8.497   7.362
 4476POPC   NC357431  12.615  41.944   5.268
 4476POPC   PO457432  12.623  41.292   5.275
 4476POPC   GL157433  12.699  41.532   5.683
 4476POPC   GL257434  12.869  41.861   5.716
 4476POPC   C1A57435  12.666  41.520   6.151
 4476POPC   D2A57436  12.578  41.572   6.616
 4476POPC   C3A57437  12.763  41.319   6.976
 4476POPC   C4A57438  13.040  41.155   7.352
 4476POPC   C1B57439  12.792  42.028   6.136
 4476POPC   C2B57440  12.900  41.999   6.556
 4476POPC   C3B57441  12.921  41.814   6.940
 4476POPC   C4B57442  12.988  41.652   7.349
 4477POPC   NC357443  44.907  21.056   5.537
 4477POPC   PO457444  44.267  21.433   5.456
 4477POPC   GL157445  44.515  21.272   5.795
 4477POPC   GL257446  44.836  21.430   5.901
 4477POPC   C1A57447  44.510  21.289   6.250
 4477POPC   D2A57448  44.712  21.291   6.663
 4477POPC   C3A57449  44.390  21.299   6.965
 4477POPC   C4A57450  44.383  21.433   7.388
 4477POPC   C1B57451  44.921  21.624   6.306
 4477POPC   C2B57452  44.920  21.760   6.748
 4477POPC   C3B57453  44.840  21.531   7.155
 4477POPC   C4B57454  44.796  21.640   7.580
 4478POPC   NC357455   3.590   5.807   5.191
 4478POPC   PO457456   3.685   6.441   5.446
 4478POPC   GL157457   3.481   6.034   5.630
 4478POPC   GL257458   3.739   5.757   5.708
 4478POPC   C1A57459   3.379   5.912   6.073
 4478POPC   D2A57460   3.377   5.697   6.487
 4478POPC   C3A57461   3.358   5.914   6.870
 4478POPC   C4A57462   3.319   5.906   7.285
 4478POPC   C1B57463   3.891   5.977   6.111
 4478POPC   C2B57464   3.757   6.081   6.562
 4478POPC   C3B57465   3.856   6.075   7.025
 4478POPC   C4B57466   4.076   6.417   7.237
 4479POPC   NC357467  17.378  28.947   5.133
 4479POPC   PO457468  17.879  29.332   5.395
 4479POPC   GL157469  17.611  29.290   5.765
 4479POPC   GL257470  17.341  29.024   5.698
 4479POPC   C1A57471  17.696  29.445   6.195
 4479POPC   D2A57472  17.486  29.320   6.586
 4479POPC   C3A57473  17.709  29.311   6.964
 4479POPC   C4A57474  17.521  29.193   7.364
 4479POPC   C1B57475  17.488  28.940   6.141
 4479POPC   C2B57476  17.607  28.825   6.574
 4479POPC   C3B57477  17.359  28.933   6.940
 4479POPC   C4B57478  17.065  28.941   7.284
 4480POPC   NC357479  10.759  15.949   5.509
 4480POPC   PO457480  10.246  16.269   5.784
 4480POPC   GL157481  10.510  15.873   5.956
 4480POPC   GL257482  10.821  15.628   5.891
 4480POPC   C1A57483  10.455  15.902   6.382
 4480POPC   D2A57484  10.282  16.213   6.588
 4480POPC   C3A57485  10.428  16.252   6.977
 4480POPC   C4A57486  10.295  16.205   7.394
 4480POPC   C1B57487  10.959  15.941   6.214
 4480POPC   C2B57488  10.822  16.233   6.550
 4480POPC   C3B57489  10.944  16.264   6.966
 4480POPC   C4B57490  10.800  15.998   7.273
 4481POPC   NC357491   1.627   2.202   5.553
 4481POPC   PO457492   2.031   1.643   5.481
 4481POPC   GL157493   2.084   1.869   5.851
 4481POPC   GL257494   2.137   2.213   5.782
 4481POPC   C1A57495   1.849   2.031   6.192
 4481POPC   D2A57496   1.804   2.344   6.509
 4481POPC   C3A57497   1.696   2.212   6.919
 4481POPC   C4A57498   1.836   1.872   7.194
 4481POPC   C1B57499   2.323   2.254   6.213
 4481POPC   C2B57500   2.261   2.205   6.692
 4481POPC   C3B57501   2.160   2.423   7.082
 4481POPC   C4B57502   2.292   2.361   7.533
 4482POPC   NC357503  30.728  16.252   5.433
 4482POPC   PO457504  31.172  15.792   5.473
 4482POPC   GL157505  30.923  15.920   5.832
 4482POPC   GL257506  30.564  15.925   5.815
 4482POPC   C1A57507  31.057  15.799   6.264
 4482POPC   D2A57508  31.172  15.645   6.692
 4482POPC   C3A57509  30.998  15.897   7.032
 4482POPC   C4A57510  30.875  15.963   7.477
 4482POPC   C1B57511  30.272  15.909   6.171
 4482POPC   C2B57512  30.308  16.055   6.563
 4482POPC   C3B57513  30.435  15.941   6.979
 4482POPC   C4B57514  30.392  16.111   7.413
 4483POPC   NC357515  15.456  40.706   5.337
 4483POPC   PO457516  14.870  40.998   5.213
 4483POPC   GL157517  15.047  40.813   5.638
 4483POPC   GL257518  15.377  40.994   5.748
 4483POPC   C1A57519  15.186  40.654   6.081
 4483POPC   D2A57520  15.378  40.583   6.507
 4483POPC   C3A57521  15.102  40.643   6.848
 4483POPC   C4A57522  15.137  40.427   7.226
 4483POPC   C1B57523  15.400  41.162   6.160
 4483POPC   C2B57524  15.300  41.073   6.585
 4483POPC   C3B57525  15.552  40.870   6.927
 4483POPC   C4B57526  15.550  40.700   7.335
 4484POPC   NC357527  37.871  21.286   5.436
 4484POPC   PO457528  37.515  21.700   4.980
 4484POPC   GL157529  37.471  21.578   5.508
 4484POPC   GL257530  37.763  21.695   5.752
 4484POPC   C1A57531  37.370  21.469   6.004
 4484POPC   D2A57532  37.252  21.488   6.487
 4484POPC   C3A57533  37.534  21.528   6.869
 4484POPC   C4A57534  37.690  21.372   7.283
 4484POPC   C1B57535  37.949  21.497   6.160
 4484POPC   C2B57536  37.949  21.351   6.615
 4484POPC   C3B57537  38.128  21.408   7.039
 4484POPC   C4B57538  38.151  21.448   7.512
 4485POPC   NC357539  36.366  19.127   5.331
 4485POPC   PO457540  35.678  19.094   5.364
 4485POPC   GL157541  36.005  19.102   5.754
 4485POPC   GL257542  36.317  18.876   5.766
 4485POPC   C1A57543  36.129  18.995   6.225
 4485POPC   D2A57544  36.080  18.760   6.621
 4485POPC   C3A57545  36.165  19.030   6.963
 4485POPC   C4A57546  36.068  19.191   7.378
 4485POPC   C1B57547  36.567  18.700   6.100
 4485POPC   C2B57548  36.596  18.819   6.523
 4485POPC   C3B57549  36.535  18.685   6.942
 4485POPC   C4B57550  36.319  18.741   7.360
 4486POPC   NC357551  18.332  11.126   5.558
 4486POPC   PO457552  18.383  11.770   5.345
 4486POPC   GL157553  18.450  11.603   5.794
 4486POPC   GL257554  18.131  11.469   5.874
 4486POPC   C1A57555  18.506  11.347   6.208
 4486POPC   D2A57556  18.298  11.336   6.650
 4486POPC   C3A57557  18.543  11.486   7.007
 4486POPC   C4A57558  18.554  11.163   7.309
 4486POPC   C1B57559  17.975  11.439   6.266
 4486POPC   C2B57560  17.775  11.697   6.565
 4486POPC   C3B57561  17.768  11.588   6.978
 4486POPC   C4B57562  18.083  11.324   7.129
 4487POPC   NC357563  43.368   2.637   5.427
 4487POPC   PO457564  42.726   2.636   5.145
 4487POPC   GL157565  42.832   2.817   5.623
 4487POPC   GL257566  43.002   2.615   5.864
 4487POPC   C1A57567  42.811   3.043   6.093
 4487POPC   D2A57568  42.930   3.166   6.580
 4487POPC   C3A57569  43.272   3.003   6.888
 4487POPC   C4A57570  43.391   2.610   7.102
 4487POPC   C1B57571  43.194   2.314   6.160
 4487POPC   C2B57572  43.200   2.371   6.613
 4487POPC   C3B57573  42.910   2.618   6.875
 4487POPC   C4B57574  42.879   2.657   7.322
 4488POPC   NC357575  19.887  17.054   5.338
 4488POPC   PO457576  19.758  16.398   5.243
 4488POPC   GL157577  19.789  16.520   5.707
 4488POPC   GL257578  19.913  16.838   5.809
 4488POPC   C1A57579  19.563  16.526   6.147
 4488POPC   D2A57580  19.668  16.782   6.564
 4488POPC   C3A57581  19.509  16.755   7.031
 4488POPC   C4A57582  19.581  16.778   7.510
 4488POPC   C1B57583  20.058  16.640   6.180
 4488POPC   C2B57584  20.213  16.713   6.572
 4488POPC   C3B57585  20.030  16.862   6.948
 4488POPC   C4B57586  20.058  16.644   7.304
 4489POPC   NC357587  17.849  17.061   5.468
 4489POPC   PO457588  17.470  17.658   5.377
 4489POPC   GL157589  17.771  17.591   5.713
 4489POPC   GL257590  17.854  17.923   5.811
 4489POPC   C1A57591  17.798  17.292   6.095
 4489POPC   D2A57592  17.498  17.184   6.409
 4489POPC   C3A57593  17.500  17.335   6.827
 4489POPC   C4A57594  17.248  17.294   7.216
 4489POPC   C1B57595  17.980  17.745   6.199
 4489POPC   C2B57596  17.981  17.595   6.630
 4489POPC   C3B57597  17.870  17.666   7.064
 4489POPC   C4B57598  17.738  17.307   7.283
 4490POPC   NC357599  25.134  17.821   5.575
 4490POPC   PO457600  25.648  17.378   5.439
 4490POPC   GL157601  25.462  17.514   5.851
 4490POPC   GL257602  25.090  17.375   5.843
 4490POPC   C1A57603  25.524  17.663   6.301
 4490POPC   D2A57604  25.535  17.615   6.766
 4490POPC   C3A57605  25.152  17.514   7.004
 4490POPC   C4A57606  25.103  17.761   7.393
 4490POPC   C1B57607  25.177  17.294   6.279
 4490POPC   C2B57608  25.363  17.093   6.641
 4490POPC   C3B57609  25.529  17.143   7.059
 4490POPC   C4B57610  25.435  17.338   7.428
 4491POPC   NC357611   5.402  22.853   5.227
 4491POPC   PO457612   5.379  23.445   5.448
 4491POPC   GL157613   5.249  23.086   5.695
 4491POPC   GL257614   4.936  23.146   5.711
 4491POPC   C1A57615   5.229  22.723   6.036
 4491POPC   D2A57616   5.383  22.598   6.482
 4491POPC   C3A57617   5.212  22.743   6.888
 4491POPC   C4A57618   5.388  22.719   7.299
 4491POPC   C1B57619   5.018  23.195   6.158
 4491POPC   C2B57620   5.090  23.221   6.594
 4491POPC   C3B57621   5.009  23.364   7.009
 4491POPC   C4B57622   5.058  23.105   7.357
 4492POPC   NC357623  15.202  20.368   5.263
 4492POPC   PO457624  14.952  20.993   5.381
 4492POPC   GL157625  15.057  20.657   5.723
 4492POPC   GL257626  15.353  20.396   5.746
 4492POPC   C1A57627  15.016  20.564   6.197
 4492POPC   D2A57628  14.904  20.693   6.644
 4492POPC   C3A57629  15.198  20.663   6.974
 4492POPC   C4A57630  15.266  20.283   7.156
 4492POPC   C1B57631  15.476  20.743   6.024
 4492POPC   C2B57632  15.403  20.829   6.453
 4492POPC   C3B57633  15.651  20.905   6.802
 4492POPC   C4B57634  15.655  20.697   7.206
 4493POPC   NC357635  20.716  25.626   5.367
 4493POPC   PO457636  20.259  26.056   5.522
 4493POPC   GL157637  20.535  26.044   5.831
 4493POPC   GL257638  20.797  25.807   5.819
 4493POPC   C1A57639  20.442  25.958   6.251
 4493POPC   D2A57640  20.542  26.155   6.656
 4493POPC   C3A57641  20.471  25.927   7.028
 4493POPC   C4A57642  20.463  25.641   7.375
 4493POPC   C1B57643  20.945  25.968   6.170
 4493POPC   C2B57644  20.844  25.769   6.537
 4493POPC   C3B57645  20.962  25.873   6.923
 4493POPC   C4B57646  20.898  25.923   7.339
 4494POPC   NC357647  12.868   0.459   5.342
 4494POPC   PO457648  12.595   1.038   5.369
 4494POPC   GL157649  12.640   0.672   5.746
 4494POPC   GL257650  12.723   0.276   5.800
 4494POPC   C1A57651  12.920   0.563   6.144
 4494POPC   D2A57652  12.749   0.445   6.550
 4494POPC   C3A57653  12.918   0.496   6.993
 4494POPC   C4A57654  13.029   0.823   7.288
 4494POPC   C1B57655  12.425   0.360   6.144
 4494POPC   C2B57656  12.248   0.243   6.549
 4494POPC   C3B57657  12.395   0.436   6.925
 4494POPC   C4B57658  12.499   0.589   7.303
 4495POPC   NC357659   0.643  38.872   5.351
 4495POPC   PO457660   0.372  39.578   5.208
 4495POPC   GL157661   0.391  39.517   5.704
 4495POPC   GL257662   0.416  39.136   5.776
 4495POPC   C1A57663   0.380  39.513   6.158
 4495POPC   D2A57664   0.581  39.265   6.504
 4495POPC   C3A57665   0.793  39.393   6.850
 4495POPC   C4A57666   0.548  39.391   7.207
 4495POPC   C1B57667   0.408  38.956   6.168
 4495POPC   C2B57668   0.214  38.881   6.578
 4495POPC   C3B57669   0.261  39.064   6.961
 4495POPC   C4B57670   0.292  38.995   7.400
 4496POPC   NC357671  35.900  26.923   5.567
 4496POPC   PO457672  36.392  26.528   5.440
 4496POPC   GL157673  36.219  26.650   5.850
 4496POPC   GL257674  35.910  26.444   5.830
 4496POPC   C1A57675  36.365  26.822   6.259
 4496POPC   D2A57676  36.301  26.671   6.696
 4496POPC   C3A57677  36.447  26.857   7.105
 4496POPC   C4A57678  36.163  26.840   7.508
 4496POPC   C1B57679  35.940  26.540   6.281
 4496POPC   C2B57680  35.857  26.912   6.566
 4496POPC   C3B57681  35.927  26.865   7.012
 4496POPC   C4B57682  35.854  26.511   7.241
 4497POPC   NC357683  35.989  12.751   5.465
 4497POPC   PO457684  36.623  13.050   5.438
 4497POPC   GL157685  36.337  12.905   5.822
 4497POPC   GL257686  36.281  12.557   5.860
 4497POPC   C1A57687  36.003  13.013   6.146
 4497POPC   D2A57688  35.763  13.015   6.529
 4497POPC   C3A57689  36.022  12.761   6.770
 4497POPC   C4A57690  36.173  12.798   7.193
 4497POPC   C1B57691  36.267  12.457   6.309
 4497POPC   C2B57692  36.036  12.238   6.640
 4497POPC   C3B57693  35.877  12.377   7.054
 4497POPC   C4B57694  36.014  12.451   7.515
 4498POPC   NC357695  32.640  37.443   5.629
 4498POPC   PO457696  32.924  37.980   5.275
 4498POPC   GL157697  32.930  37.865   5.756
 4498POPC   GL257698  32.597  37.914   5.855
 4498POPC   C1A57699  32.898  37.630   6.216
 4498POPC   D2A57700  32.700  37.543   6.656
 4498POPC   C3A57701  33.024  37.475   7.021
 4498POPC   C4A57702  33.412  37.268   7.224
 4498POPC   C1B57703  32.814  38.120   6.217
 4498POPC   C2B57704  32.771  38.267   6.638
 4498POPC   C3B57705  32.818  38.160   7.048
 4498POPC   C4B57706  32.812  37.808   7.328
 4499POPC   NC357707  28.127  20.213   5.627
 4499POPC   PO457708  28.718  20.141   5.469
 4499POPC   GL157709  28.608  20.316   5.930
 4499POPC   GL257710  28.318  20.559   5.955
 4499POPC   C1A57711  28.660  20.446   6.424
 4499POPC   D2A57712  28.746  20.394   6.930
 4499POPC   C3A57713  28.656  20.743   7.253
 4499POPC   C4A57714  28.641  21.213   7.251
 4499POPC   C1B57715  28.152  20.502   6.367
 4499POPC   C2B57716  28.266  20.617   6.780
 4499POPC   C3B57717  28.258  20.433   7.161
 4499POPC   C4B57718  28.140  20.553   7.577
 4500POPC   NC357719  25.347   1.371   5.400
 4500POPC   PO457720  25.270   2.004   5.342
 4500POPC   GL157721  25.307   2.086   5.748
 4500POPC   GL257722  25.052   2.276   5.797
 4500POPC   C1A57723  25.266   1.901   6.143
 4500POPC   D2A57724  25.105   1.716   6.498
 4500POPC   C3A57725  25.186   1.882   6.896
 4500POPC   C4A57726  25.044   1.747   7.268
 4500POPC   C1B57727  25.169   2.411   6.166
 4500POPC   C2B57728  25.214   2.238   6.537
 4500POPC   C3B57729  25.210   2.397   6.925
 4500POPC   C4B57730  25.186   2.244   7.302
 4501POPC   NC357731  37.897  22.306   5.377
 4501POPC   PO457732  37.278  22.036   5.608
 4501POPC   GL157733  37.618  22.273   5.828
 4501POPC   GL257734  37.964  22.152   5.883
 4501POPC   C1A57735  37.733  22.494   6.218
 4501POPC   D2A57736  37.978  22.439   6.603
 4501POPC   C3A57737  37.694  22.469   6.939
 4501POPC   C4A57738  37.650  22.342   7.371
 4501POPC   C1B57739  37.779  21.981   6.273
 4501POPC   C2B57740  37.893  21.887   6.718
 4501POPC   C3B57741  37.903  21.858   7.174
 4501POPC   C4B57742  37.790  21.892   7.612
 4502POPC   NC357743  17.481  11.658   5.490
 4502POPC   PO457744  17.858  11.153   5.563
 4502POPC   GL157745  17.597  11.344   5.880
 4502POPC   GL257746  17.664  11.693   5.959
 4502POPC   C1A57747  17.501  11.221   6.275
 4502POPC   D2A57748  17.747  11.175   6.648
 4502POPC   C3A57749  17.520  11.110   7.007
 4502POPC   C4A57750  17.783  10.958   7.295
 4502POPC   C1B57751  17.351  11.709   6.254
 4502POPC   C2B57752  17.319  11.503   6.658
 4502POPC   C3B57753  17.253  11.534   7.083
 4502POPC   C4B57754  17.040  11.234   7.252
 4503POPC   NC357755   6.353  22.236   5.320
 4503POPC   PO457756   6.874  21.876   5.505
 4503POPC   GL157757   6.558  22.096   5.754
 4503POPC   GL257758   6.611  22.483   5.725
 4503POPC   C1A57759   6.406  22.258   6.130
 4503POPC   D2A57760   6.316  22.074   6.498
 4503POPC   C3A57761   6.613  22.094   6.809
 4503POPC   C4A57762   6.507  22.214   7.183
 4503POPC   C1B57763   6.764  22.630   6.141
 4503POPC   C2B57764   6.630  22.575   6.581
 4503POPC   C3B57765   6.790  22.659   7.000
 4503POPC   C4B57766   6.700  22.552   7.473
 4504POPC   NC357767  16.141  23.385   5.475
 4504POPC   PO457768  15.687  23.934   5.333
 4504POPC   GL157769  15.787  23.929   5.793
 4504POPC   GL257770  16.143  23.824   5.796
 4504POPC   C1A57771  15.660  23.698   6.208
 4504POPC   D2A57772  15.863  23.442   6.572
 4504POPC   C3A57773  15.730  23.593   6.996
 4504POPC   C4A57774  15.693  24.033   7.127
 4504POPC   C1B57775  16.158  23.706   6.243
 4504POPC   C2B57776  16.031  23.920   6.658
 4504POPC   C3B57777  16.187  23.772   7.067
 4504POPC   C4B57778  16.420  23.578   7.390
 4505POPC   NC357779   8.686  36.653   5.464
 4505POPC   PO457780   8.155  37.030   5.203
 4505POPC   GL157781   7.971  37.019   5.636
 4505POPC   GL257782   8.150  36.728   5.839
 4505POPC   C1A57783   7.861  37.079   6.074
 4505POPC   D2A57784   8.074  37.057   6.465
 4505POPC   C3A57785   7.947  37.097   6.880
 4505POPC   C4A57786   8.190  37.119   7.264
 4505POPC   C1B57787   8.138  36.567   6.293
 4505POPC   C2B57788   8.079  36.595   6.768
 4505POPC   C3B57789   8.115  36.607   7.248
 4505POPC   C4B57790   8.180  36.402   7.663
 4506POPC   NC357791   8.097  38.126   5.408
 4506POPC   PO457792   8.492  38.600   5.568
 4506POPC   GL157793   8.284  38.373   5.896
 4506POPC   GL257794   8.002  38.581   5.874
 4506POPC   C1A57795   8.084  38.380   6.334
 4506POPC   D2A57796   8.003  38.663   6.688
 4506POPC   C3A57797   8.142  38.427   7.055
 4506POPC   C4A57798   8.344  38.428   7.454
 4506POPC   C1B57799   8.216  38.860   6.220
 4506POPC   C2B57800   8.430  38.965   6.623
 4506POPC   C3B57801   8.271  38.970   7.066
 4506POPC   C4B57802   8.199  38.974   7.549
 4507POPC   NC357803  34.017   5.644   5.322
 4507POPC   PO457804  33.595   6.103   5.520
 4507POPC   GL157805  33.623   5.853   5.893
 4507POPC   GL257806  33.594   5.507   5.824
 4507POPC   C1A57807  33.476   5.746   6.318
 4507POPC   D2A57808  33.371   5.727   6.790
 4507POPC   C3A57809  33.769   5.782   7.075
 4507POPC   C4A57810  33.907   5.992   7.485
 4507POPC   C1B57811  33.884   5.478   6.188
 4507POPC   C2B57812  34.148   5.624   6.519
 4507POPC   C3B57813  34.182   5.496   6.944
 4507POPC   C4B57814  34.280   5.643   7.386
 4508POPC   NC357815  41.376  44.970   5.208
 4508POPC   PO457816  41.660  44.460   5.533
 4508POPC   GL157817  41.402  44.705   5.805
 4508POPC   GL257818  41.514  44.437   6.033
 4508POPC   C1A57819  41.139  44.694   6.205
 4508POPC   D2A57820  41.357  44.459   6.551
 4508POPC   C3A57821  41.271  44.588   6.957
 4508POPC   C4A57822  41.357  44.877   7.316
 4508POPC   C1B57823  41.610  44.831   6.315
 4508POPC   C2B57824  41.628  44.930   6.784
 4508POPC   C3B57825  41.763  44.644   7.099
 4508POPC   C4B57826  41.638  44.466   7.507
 4509POPC   NC357827   7.382  33.488   5.573
 4509POPC   PO457828   7.203  34.136   5.438
 4509POPC   GL157829   7.128  33.867   5.799
 4509POPC   GL257830   7.453  33.883   5.917
 4509POPC   C1A57831   7.119  33.662   6.220
 4509POPC   D2A57832   7.258  33.823   6.602
 4509POPC   C3A57833   7.289  33.566   6.959
 4509POPC   C4A57834   7.239  33.662   7.356
 4509POPC   C1B57835   7.676  33.737   6.286
 4509POPC   C2B57836   7.808  33.663   6.724
 4509POPC   C3B57837   7.705  33.812   7.143
 4509POPC   C4B57838   7.864  34.029   7.517
 4510POPC   NC357839  28.289   2.248   5.397
 4510POPC   PO457840  28.418   1.591   5.415
 4510POPC   GL157841  28.242   1.872   5.790
 4510POPC   GL257842  28.088   2.218   5.850
 4510POPC   C1A57843  28.126   1.909   6.249
 4510POPC   D2A57844  28.186   2.068   6.688
 4510POPC   C3A57845  28.132   1.811   7.067
 4510POPC   C4A57846  28.354   1.748   7.487
 4510POPC   C1B57847  28.275   2.397   6.257
 4510POPC   C2B57848  28.078   2.585   6.624
 4510POPC   C3B57849  27.960   2.409   7.004
 4510POPC   C4B57850  28.391   2.348   7.153
 4511POPC   NC357851  18.664   0.446   5.497
 4511POPC   PO457852  19.333   0.371   5.513
 4511POPC   GL157853  19.244   0.432   5.896
 4511POPC   GL257854  18.892   0.402   5.960
 4511POPC   C1A57855  19.360   0.342   6.281
 4511POPC   D2A57856  19.153   0.522   6.609
 4511POPC   C3A57857  19.361   0.349   6.903
 4511POPC   C4A57858  19.420   0.395   7.304
 4511POPC   C1B57859  18.858   0.166   6.341
 4511POPC   C2B57860  19.017  44.998   6.728
 4511POPC   C3B57861  18.931   0.216   7.130
 4511POPC   C4B57862  18.604   0.550   7.186
 4512POPC   NC357863  19.678  17.542   5.555
 4512POPC   PO457864  20.212  17.624   5.189
 4512POPC   GL157865  20.123  17.671   5.749
 4512POPC   GL257866  19.937  17.895   5.922
 4512POPC   C1A57867  19.869  17.329   6.119
 4512POPC   D2A57868  19.534  17.294   6.460
 4512POPC   C3A57869  19.686  17.247   6.877
 4512POPC   C4A57870  19.830  17.542   7.191
 4512POPC   C1B57871  20.071  17.729   6.293
 4512POPC   C2B57872  20.068  17.545   6.677
 4512POPC   C3B57873  20.310  17.504   7.036
 4512POPC   C4B57874  20.264  17.483   7.484
 4513POPC   NC357875  37.473   0.412   5.392
 4513POPC   PO457876  38.108   0.301   5.394
 4513POPC   GL157877  37.847   0.607   5.716
 4513POPC   GL257878  37.525   0.465   5.889
 4513POPC   C1A57879  37.727   0.842   6.145
 4513POPC   D2A57880  37.567   0.695   6.522
 4513POPC   C3A57881  37.705   0.800   6.930
 4513POPC   C4A57882  37.349   0.676   7.166
 4513POPC   C1B57883  37.786   0.322   6.230
 4513POPC   C2B57884  37.683   0.139   6.619
 4513POPC   C3B57885  37.699   0.298   7.028
 4513POPC   C4B57886  37.672   0.336   7.452
 4514POPC   NC357887  15.451  18.315   5.405
 4514POPC   PO457888  14.936  18.053   5.635
 4514POPC   GL157889  15.167  18.235   5.931
 4514POPC   GL257890  15.514  18.299   5.915
 4514POPC   C1A57891  14.980  18.233   6.353
 4514POPC   D2A57892  14.830  18.194   6.768
 4514POPC   C3A57893  15.101  18.077   7.079
 4514POPC   C4A57894  15.218  18.236   7.498
 4514POPC   C1B57895  15.402  18.506   6.302
 4514POPC   C2B57896  15.343  18.346   6.702
 4514POPC   C3B57897  15.249  18.552   7.066
 4514POPC   C4B57898  15.525  18.633   7.350
 4515POPC   NC357899  44.909  17.015   5.441
 4515POPC   PO457900  44.597  16.477   5.489
 4515POPC   GL157901  44.470  16.648   5.902
 4515POPC   GL257902  44.655  16.932   5.864
 4515POPC   C1A57903  44.635  16.636   6.324
 4515POPC   D2A57904   0.004  16.601   6.597
 4515POPC   C3A57905  44.876  16.504   7.004
 4515POPC   C4A57906   0.071  16.626   7.348
 4515POPC   C1B57907  44.939  17.030   6.195
 4515POPC   C2B57908  44.778  17.079   6.629
 4515POPC   C3B57909  44.857  17.032   7.067
 4515POPC   C4B57910  44.628  16.891   7.449
 4516POPC   NC357911  30.090   3.784   5.439
 4516POPC   PO457912  30.457   3.163   5.344
 4516POPC   GL157913  30.150   3.313   5.679
 4516POPC   GL257914  29.783   3.449   5.666
 4516POPC   C1A57915  29.976   3.221   6.103
 4516POPC   D2A57916  30.059   3.070   6.522
 4516POPC   C3A57917  29.853   3.282   6.858
 4516POPC   C4A57918  30.050   3.380   7.255
 4516POPC   C1B57919  29.802   3.696   6.061
 4516POPC   C2B57920  29.975   3.742   6.475
 4516POPC   C3B57921  29.985   3.780   6.916
 4516POPC   C4B57922  30.014   3.933   7.285
 4517POPC   NC357923   9.125  26.438   5.234
 4517POPC   PO457924   8.581  26.131   5.494
 4517POPC   GL157925   8.897  26.321   5.791
 4517POPC   GL257926   8.774  26.061   6.013
 4517POPC   C1A57927   9.148  26.342   6.217
 4517POPC   D2A57928   9.242  26.159   6.647
 4517POPC   C3A57929   8.939  26.341   6.951
 4517POPC   C4A57930   9.092  26.628   7.296
 4517POPC   C1B57931   9.052  25.844   6.297
 4517POPC   C2B57932   8.837  25.848   6.707
 4517POPC   C3B57933   8.793  25.848   7.136
 4517POPC   C4B57934   8.472  25.828   7.450
 4518POPC   NC357935  28.035   7.634   5.544
 4518POPC   PO457936  28.556   7.230   5.706
 4518POPC   GL157937  28.347   7.418   5.982
 4518POPC   GL257938  28.347   7.752   5.951
 4518POPC   C1A57939  28.549   7.487   6.377
 4518POPC   D2A57940  28.349   7.499   6.774
 4518POPC   C3A57941  28.680   7.373   7.048
 4518POPC   C4A57942  28.727   7.430   7.510
 4518POPC   C1B57943  28.118   7.747   6.350
 4518POPC   C2B57944  27.919   7.851   6.736
 4518POPC   C3B57945  28.072   7.844   7.145
 4518POPC   C4B57946  28.269   7.502   7.288
 4519POPC   NC357947   5.429  29.971   5.204
 4519POPC   PO457948   4.857  29.667   5.457
 4519POPC   GL157949   5.152  29.688   5.792
 4519POPC   GL257950   5.500  29.562   5.731
 4519POPC   C1A57951   5.183  29.812   6.238
 4519POPC   D2A57952   5.058  29.872   6.664
 4519POPC   C3A57953   4.966  30.256   6.917
 4519POPC   C4A57954   4.843  30.178   7.372
 4519POPC   C1B57955   5.686  29.622   6.177
 4519POPC   C2B57956   5.666  29.827   6.598
 4519POPC   C3B57957   5.470  30.017   6.982
 4519POPC   C4B57958   5.131  29.826   7.168
 4520POPC   NC357959  28.039  19.281   5.324
 4520POPC   PO457960  27.949  18.599   5.493
 4520POPC   GL157961  28.192  18.786   5.804
 4520POPC   GL257962  28.367  19.079   5.700
 4520POPC   C1A57963  28.227  19.000   6.200
 4520POPC   D2A57964  28.150  19.210   6.588
 4520POPC   C3A57965  27.997  19.001   6.937
 4520POPC   C4A57966  28.185  19.086   7.295
 4520POPC   C1B57967  28.707  19.164   6.026
 4520POPC   C2B57968  28.679  19.087   6.464
 4520POPC   C3B57969  28.587  19.090   6.903
 4520POPC   C4B57970  28.684  19.314   7.284
 4521POPC   NC357971  12.211  40.467   5.353
 4521POPC   PO457972  11.766  41.023   5.366
 4521POPC   GL157973  12.020  41.045   5.777
 4521POPC   GL257974  12.367  41.146   5.747
 4521POPC   C1A57975  11.981  40.966   6.252
 4521POPC   D2A57976  12.007  40.607   6.529
 4521POPC   C3A57977  12.157  40.683   6.945
 4521POPC   C4A57978  11.881  40.718   7.280
 4521POPC   C1B57979  12.476  41.055   6.200
 4521POPC   C2B57980  12.341  41.086   6.649
 4521POPC   C3B57981  12.284  41.154   7.107
 4521POPC   C4B57982  12.281  40.916   7.525
 4522POPC   NC357983  36.013  34.948   5.316
 4522POPC   PO457984  35.937  35.616   5.362
 4522POPC   GL157985  35.902  35.431   5.754
 4522POPC   GL257986  36.128  35.137   5.813
 4522POPC   C1A57987  36.038  35.512   6.161
 4522POPC   D2A57988  36.081  35.254   6.492
 4522POPC   C3A57989  35.948  35.424   6.853
 4522POPC   C4A57990  36.075  35.263   7.228
 4522POPC   C1B57991  36.421  35.032   6.171
 4522POPC   C2B57992  36.480  34.911   6.626
 4522POPC   C3B57993  36.498  35.052   7.070
 4522POPC   C4B57994  36.356  34.938   7.528
 4523POPC   NC357995  26.805   4.721   5.550
 4523POPC   PO457996  26.937   4.121   5.346
 4523POPC   GL157997  26.935   4.268   5.787
 4523POPC   GL257998  27.146   4.544   5.929
 4523POPC   C1A57999  26.645   4.415   6.134
 4523POPC   D2A58000  26.534   4.628   6.548
 4523POPC   C3A58001  26.712   4.472   6.964
 4523POPC   C4A58002  26.550   4.599   7.373
 4523POPC   C1B58003  27.101   4.463   6.384
 4523POPC   C2B58004  26.789   4.170   6.559
 4523POPC   C3B58005  26.696   3.909   6.897
 4523POPC   C4B58006  26.890   4.024   7.268
 4524POPC   NC358007  26.468  43.497   5.396
 4524POPC   PO458008  27.045  43.873   5.472
 4524POPC   GL158009  26.898  43.845   5.890
 4524POPC   GL258010  26.536  43.783   5.841
 4524POPC   C1A58011  26.776  44.113   6.243
 4524POPC   D2A58012  26.842  44.259   6.675
 4524POPC   C3A58013  26.800  43.980   7.029
 4524POPC   C4A58014  27.093  43.649   7.122
 4524POPC   C1B58015  26.575  43.620   6.267
 4524POPC   C2B58016  26.737  43.533   6.705
 4524POPC   C3B58017  26.548  43.539   7.136
 4524POPC   C4B58018  26.436  43.705   7.564
 4525POPC   NC358019  33.962  11.270   5.507
 4525POPC   PO458020  33.388  11.698   5.313
 4525POPC   GL158021  33.485  11.412   5.697
 4525POPC   GL258022  33.439  11.066   5.852
 4525POPC   C1A58023  33.503  11.469   6.166
 4525POPC   D2A58024  33.833  11.501   6.502
 4525POPC   C3A58025  33.691  11.624   6.918
 4525POPC   C4A58026  33.959  11.632   7.269
 4525POPC   C1B58027  33.792  11.029   6.144
 4525POPC   C2B58028  33.814  10.978   6.590
 4525POPC   C3B58029  34.008  11.189   6.928
 4525POPC   C4B58030  33.925  11.109   7.332
 4526POPC   NC358031  24.893  14.438   5.329
 4526POPC   PO458032  24.500  13.919   5.490
 4526POPC   GL158033  24.361  14.230   5.805
 4526POPC   GL258034  24.552  14.543   5.826
 4526POPC   C1A58035  24.294  14.381   6.239
 4526POPC   D2A58036  24.428  14.567   6.624
 4526POPC   C3A58037  24.208  14.499   7.011
 4526POPC   C4A58038  24.356  14.478   7.427
 4526POPC   C1B58039  24.625  14.852   6.201
 4526POPC   C2B58040  24.840  14.847   6.619
 4526POPC   C3B58041  24.858  14.686   7.043
 4526POPC   C4B58042  24.817  14.868   7.470
 4527POPC   NC358043  38.814  24.828   5.536
 4527POPC   PO458044  38.444  24.221   5.406
 4527POPC   GL158045  38.591  24.425   5.831
 4527POPC   GL258046  38.560  24.778   5.977
 4527POPC   C1A58047  38.797  24.450   6.278
 4527POPC   D2A58048  38.680  24.653   6.678
 4527POPC   C3A58049  38.358  24.478   6.951
 4527POPC   C4A58050  38.410  24.444   7.389
 4527POPC   C1B58051  38.259  24.767   6.330
 4527POPC   C2B58052  38.242  24.946   6.754
 4527POPC   C3B58053  38.366  24.935   7.211
 4527POPC   C4B58054  38.237  24.823   7.669
 4528POPC   NC358055  24.508   9.588   5.282
 4528POPC   PO458056  24.427  10.207   5.492
 4528POPC   GL158057  24.658   9.964   5.822
 4528POPC   GL258058  24.613   9.623   5.766
 4528POPC   C1A58059  24.482   9.840   6.226
 4528POPC   D2A58060  24.345   9.871   6.647
 4528POPC   C3A58061  24.554   9.608   6.911
 4528POPC   C4A58062  24.609   9.885   7.223
 4528POPC   C1B58063  24.846   9.509   6.120
 4528POPC   C2B58064  24.880   9.575   6.517
 4528POPC   C3B58065  25.059   9.473   6.916
 4528POPC   C4B58066  24.815   9.430   7.312
 4529POPC   NC358067  42.114  35.102   5.618
 4529POPC   PO458068  42.349  34.547   5.331
 4529POPC   GL158069  42.346  34.651   5.819
 4529POPC   GL258070  42.438  34.984   5.976
 4529POPC   C1A58071  42.183  34.654   6.290
 4529POPC   D2A58072  42.461  34.478   6.672
 4529POPC   C3A58073  42.389  34.531   7.112
 4529POPC   C4A58074  41.987  34.512   7.339
 4529POPC   C1B58075  42.446  35.087   6.412
 4529POPC   C2B58076  42.200  34.932   6.731
 4529POPC   C3B58077  42.065  34.948   7.119
 4529POPC   C4B58078  42.295  34.896   7.495
 4530POPC   NC358079  27.012  20.491   5.448
 4530POPC   PO458080  26.263  20.331   5.221
 4530POPC   GL158081  26.320  20.338   5.705
 4530POPC   GL258082  26.568  20.601   5.770
 4530POPC   C1A58083  26.367  20.284   6.184
 4530POPC   D2A58084  26.626  20.313   6.599
 4530POPC   C3A58085  26.568  20.510   6.991
 4530POPC   C4A58086  26.518  20.314   7.382
 4530POPC   C1B58087  26.748  20.631   6.196
 4530POPC   C2B58088  26.714  20.865   6.586
 4530POPC   C3B58089  26.902  20.877   6.994
 4530POPC   C4B58090  26.593  20.994   7.284
 4531POPC   NC358091  39.379  42.715   5.552
 4531POPC   PO458092  38.848  42.910   5.218
 4531POPC   GL158093  39.002  42.999   5.753
 4531POPC   GL258094  39.393  43.158   5.789
 4531POPC   C1A58095  39.139  43.285   6.198
 4531POPC   D2A58096  39.370  43.290   6.595
 4531POPC   C3A58097  39.166  43.168   6.972
 4531POPC   C4A58098  39.309  43.270   7.346
 4531POPC   C1B58099  39.643  43.080   6.177
 4531POPC   C2B58100  39.577  42.827   6.569
 4531POPC   C3B58101  39.647  42.980   7.009
 4531POPC   C4B58102  39.557  42.818   7.417
 4532POPC   NC358103  36.936   4.536   5.455
 4532POPC   PO458104  36.484   4.137   5.227
 4532POPC   GL158105  36.885   4.061   5.634
 4532POPC   GL258106  36.767   3.947   6.016
 4532POPC   C1A58107  37.118   4.274   6.037
 4532POPC   D2A58108  37.162   4.086   6.464
 4532POPC   C3A58109  36.998   4.246   6.866
 4532POPC   C4A58110  36.999   4.470   7.289
 4532POPC   C1B58111  36.638   3.863   6.449
 4532POPC   C2B58112  36.416   3.878   6.848
 4532POPC   C3B58113  36.644   4.026   7.223
 4532POPC   C4B58114  37.100   3.971   7.276
 4533POPC   NC358115  41.712  26.311   5.287
 4533POPC   PO458116  41.289  25.795   5.398
 4533POPC   GL158117  41.414  25.867   5.788
 4533POPC   GL258118  41.746  25.887   5.768
 4533POPC   C1A58119  41.448  25.835   6.222
 4533POPC   D2A58120  41.645  25.899   6.598
 4533POPC   C3A58121  41.311  25.957   6.881
 4533POPC   C4A58122  41.314  26.182   7.236
 4533POPC   C1B58123  41.812  26.162   6.119
 4533POPC   C2B58124  41.903  26.328   6.558
 4533POPC   C3B58125  41.887  26.268   7.000
 4533POPC   C4B58126  41.778  25.852   7.106
 4534POPC   NC358127  17.535   3.361   5.325
 4534POPC   PO458128  17.285   4.008   5.515
 4534POPC   GL158129  17.416   3.634   5.769
 4534POPC   GL258130  17.162   3.482   5.665
 4534POPC   C1A58131  17.543   3.411   6.186
 4534POPC   D2A58132  17.716   3.571   6.600
 4534POPC   C3A58133  17.675   3.356   7.010
 4534POPC   C4A58134  17.904   3.392   7.408
 4534POPC   C1B58135  17.054   3.556   6.109
 4534POPC   C2B58136  17.206   3.647   6.534
 4534POPC   C3B58137  17.300   3.716   6.989
 4534POPC   C4B58138  17.385   3.499   7.421
 4535POPC   NC358139  26.601  39.043   5.502
 4535POPC   PO458140  27.153  39.379   5.547
 4535POPC   GL158141  26.935  39.113   5.890
 4535POPC   GL258142  26.562  39.153   5.983
 4535POPC   C1A58143  27.059  39.019   6.317
 4535POPC   D2A58144  27.283  39.012   6.732
 4535POPC   C3A58145  27.026  38.907   7.087
 4535POPC   C4A58146  26.821  39.185   7.346
 4535POPC   C1B58147  26.661  39.348   6.336
 4535POPC   C2B58148  26.734  39.128   6.711
 4535POPC   C3B58149  26.569  38.758   6.875
 4535POPC   C4B58150  26.614  38.715   7.308
 4536POPC   NC358151   8.704  17.283   5.447
 4536POPC   PO458152   9.361  17.479   5.512
 4536POPC   GL158153   9.041  17.486   5.779
 4536POPC   GL258154   9.005  17.144   5.835
 4536POPC   C1A58155   8.822  17.694   6.106
 4536POPC   D2A58156   8.795  17.819   6.528
 4536POPC   C3A58157   8.685  17.569   6.870
 4536POPC   C4A58158   8.905  17.604   7.242
 4536POPC   C1B58159   8.700  17.138   6.139
 4536POPC   C2B58160   8.756  17.143   6.586
 4536POPC   C3B58161   8.587  17.053   7.002
 4536POPC   C4B58162   8.795  17.119   7.390
 4537POPC   NC358163  24.477  33.483   5.220
 4537POPC   PO458164  24.353  32.905   5.392
 4537POPC   GL158165  24.399  33.059   5.832
 4537POPC   GL258166  24.729  32.919   5.915
 4537POPC   C1A58167  24.537  33.352   6.202
 4537POPC   D2A58168  24.583  33.300   6.664
 4537POPC   C3A58169  24.302  33.220   7.024
 4537POPC   C4A58170  24.345  33.091   7.483
 4537POPC   C1B58171  24.737  32.874   6.376
 4537POPC   C2B58172  24.812  32.894   6.812
 4537POPC   C3B58173  24.578  32.814   7.140
 4537POPC   C4B58174  24.716  32.710   7.570
 4538POPC   NC358175  20.713   3.770   5.488
 4538POPC   PO458176  20.313   3.259   5.421
 4538POPC   GL158177  20.499   3.470   5.819
 4538POPC   GL258178  20.831   3.445   5.863
 4538POPC   C1A58179  20.400   3.566   6.256
 4538POPC   D2A58180  20.254   3.820   6.602
 4538POPC   C3A58181  20.226   3.696   7.048
 4538POPC   C4A58182  20.366   3.875   7.480
 4538POPC   C1B58183  20.919   3.608   6.238
 4538POPC   C2B58184  20.777   3.462   6.620
 4538POPC   C3B58185  20.991   3.603   6.950
 4538POPC   C4B58186  20.696   3.574   7.239
 4539POPC   NC358187  18.568  26.737   5.491
 4539POPC   PO458188  19.238  26.485   5.432
 4539POPC   GL158189  19.067  26.765   5.746
 4539POPC   GL258190  18.833  26.555   5.913
 4539POPC   C1A58191  19.211  26.822   6.186
 4539POPC   D2A58192  19.190  26.596   6.582
 4539POPC   C3A58193  19.200  26.835   6.945
 4539POPC   C4A58194  19.473  26.808   7.236
 4539POPC   C1B58195  18.735  26.717   6.313
 4539POPC   C2B58196  18.713  26.693   6.792
 4539POPC   C3B58197  18.818  26.597   7.201
 4539POPC   C4B58198  18.813  26.523   7.626
 4540POPC   NC358199   1.282   7.828   5.518
 4540POPC   PO458200   1.413   8.368   5.164
 4540POPC   GL158201   1.253   8.336   5.660
 4540POPC   GL258202   1.106   8.054   5.913
 4540POPC   C1A58203   1.309   8.439   6.151
 4540POPC   D2A58204   1.524   8.471   6.581
 4540POPC   C3A58205   1.291   8.478   6.975
 4540POPC   C4A58206   1.451   8.543   7.394
 4540POPC   C1B58207   0.980   7.840   6.297
 4540POPC   C2B58208   1.215   8.020   6.645
 4540POPC   C3B58209   1.392   7.983   7.061
 4540POPC   C4B58210   1.131   8.124   7.363
 4541POPC   NC358211  17.826  19.035   5.453
 4541POPC   PO458212  17.537  19.549   5.119
 4541POPC   GL158213  17.400  19.254   5.636
 4541POPC   GL258214  17.463  18.904   5.803
 4541POPC   C1A58215  17.422  19.298   6.114
 4541POPC   D2A58216  17.270  19.281   6.528
 4541POPC   C3A58217  17.541  19.306   6.906
 4541POPC   C4A58218  17.662  19.166   7.319
 4541POPC   C1B58219  17.332  18.616   6.134
 4541POPC   C2B58220  17.294  18.753   6.551
 4541POPC   C3B58221  17.525  18.767   6.945
 4541POPC   C4B58222  17.300  18.829   7.316
 4542POPC   NC358223  24.904  35.718   5.512
 4542POPC   PO458224  25.559  35.981   5.468
 4542POPC   GL158225  25.297  35.897   5.854
 4542POPC   GL258226  24.944  36.012   5.928
 4542POPC   C1A58227  25.340  36.011   6.267
 4542POPC   D2A58228  25.580  36.201   6.571
 4542POPC   C3A58229  25.535  36.114   6.980
 4542POPC   C4A58230  25.392  36.224   7.391
 4542POPC   C1B58231  24.824  36.091   6.361
 4542POPC   C2B58232  25.082  35.861   6.684
 4542POPC   C3B58233  25.057  35.997   7.072
 4542POPC   C4B58234  24.912  36.406   7.249
 4543POPC   NC358235  42.902  44.979   5.564
 4543POPC   PO458236  43.394  44.691   5.281
 4543POPC   GL158237  43.117  44.577   5.764
 4543POPC   GL258238  42.945  44.332   5.831
 4543POPC   C1A58239  43.190  44.681   6.253
 4543POPC   D2A58240  43.318  44.530   6.648
 4543POPC   C3A58241  43.347  44.789   6.992
 4543POPC   C4A58242  42.994  44.996   7.141
 4543POPC   C1B58243  42.734  44.502   6.195
 4543POPC   C2B58244  42.810  44.402   6.622
 4543POPC   C3B58245  42.916  44.502   7.038
 4543POPC   C4B58246  42.925  44.544   7.496
 4544POPC   NC358247  37.893  39.624   5.612
 4544POPC   PO458248  37.603  39.005   5.417
 4544POPC   GL158249  37.578  39.197   5.828
 4544POPC   GL258250  37.404  39.477   5.847
 4544POPC   C1A58251  37.648  39.277   6.292
 4544POPC   D2A58252  37.876  39.290   6.669
 4544POPC   C3A58253  37.622  39.104   6.963
 4544POPC   C4A58254  37.538  39.127   7.408
 4544POPC   C1B58255  37.444  39.721   6.228
 4544POPC   C2B58256  37.374  39.575   6.665
 4544POPC   C3B58257  37.593  39.605   7.059
 4544POPC   C4B58258  37.936  39.404   7.279
 4545POPC   NC358259   8.611  42.202   5.392
 4545POPC   PO458260   9.136  42.607   5.355
 4545POPC   GL158261   9.183  42.358   5.763
 4545POPC   GL258262   8.895  42.461   5.950
 4545POPC   C1A58263   9.101  42.060   6.167
 4545POPC   D2A58264   8.822  42.077   6.552
 4545POPC   C3A58265   9.027  42.056   6.969
 4545POPC   C4A58266   9.204  42.417   7.182
 4545POPC   C1B58267   8.580  42.571   6.275
 4545POPC   C2B58268   8.550  42.491   6.702
 4545POPC   C3B58269   8.682  42.401   7.107
 4545POPC   C4B58270   8.550  42.088   7.450
 4546POPC   NC358271   8.027  19.058   5.375
 4546POPC   PO458272   8.442  18.677   5.689
 4546POPC   GL158273   8.150  18.855   5.993
 4546POPC   GL258274   7.824  18.873   5.910
 4546POPC   C1A58275   8.090  19.223   6.279
 4546POPC   D2A58276   8.109  19.434   6.696
 4546POPC   C3A58277   8.263  19.143   6.991
 4546POPC   C4A58278   8.492  18.810   7.210
 4546POPC   C1B58279   7.796  18.693   6.348
 4546POPC   C2B58280   7.811  18.629   6.824
 4546POPC   C3B58281   7.823  18.949   7.121
 4546POPC   C4B58282   7.932  19.354   7.320
 4547POPC   NC358283   7.237  40.306   5.383
 4547POPC   PO458284   7.225  39.654   5.292
 4547POPC   GL158285   7.220  39.906   5.695
 4547POPC   GL258286   7.511  40.105   5.788
 4547POPC   C1A58287   7.177  39.935   6.150
 4547POPC   D2A58288   7.356  39.963   6.569
 4547POPC   C3A58289   7.126  39.733   6.887
 4547POPC   C4A58290   7.034  40.037   7.187
 4547POPC   C1B58291   7.581  40.313   6.197
 4547POPC   C2B58292   7.804  40.333   6.593
 4547POPC   C3B58293   7.685  40.183   6.992
 4547POPC   C4B58294   7.506  40.081   7.379
 4548POPC   NC358295  25.739  21.561   5.395
 4548POPC   PO458296  26.311  21.210   5.313
 4548POPC   GL158297  26.138  21.391   5.691
 4548POPC   GL258298  25.869  21.226   5.762
 4548POPC   C1A58299  26.157  21.427   6.162
 4548POPC   D2A58300  26.259  21.176   6.536
 4548POPC   C3A58301  26.132  21.390   6.919
 4548POPC   C4A58302  26.238  21.505   7.324
 4548POPC   C1B58303  25.730  21.161   6.177
 4548POPC   C2B58304  25.779  21.298   6.566
 4548POPC   C3B58305  25.654  21.206   6.974
 4548POPC   C4B58306  25.898  21.125   7.307
 4549POPC   NC358307   8.577  34.984   5.455
 4549POPC   PO458308   8.004  35.405   5.307
 4549POPC   GL158309   8.139  35.450   5.729
 4549POPC   GL258310   7.785  35.488   5.772
 4549POPC   C1A58311   8.284  35.634   6.148
 4549POPC   D2A58312   8.584  35.727   6.513
 4549POPC   C3A58313   8.488  35.614   6.950
 4549POPC   C4A58314   8.352  35.241   7.210
 4549POPC   C1B58315   7.846  35.326   6.160
 4549POPC   C2B58316   7.915  35.573   6.508
 4549POPC   C3B58317   8.014  35.369   6.865
 4549POPC   C4B58318   7.794  35.256   7.225
 4550POPC   NC358319  32.906  25.373   5.145
 4550POPC   PO458320  33.346  24.984   5.458
 4550POPC   GL158321  33.195  25.215   5.789
 4550POPC   GL258322  32.841  25.180   5.911
 4550POPC   C1A58323  33.237  25.160   6.223
 4550POPC   D2A58324  32.964  25.254   6.557
 4550POPC   C3A58325  33.120  25.188   6.946
 4550POPC   C4A58326  33.050  25.328   7.310
 4550POPC   C1B58327  32.670  25.491   6.205
 4550POPC   C2B58328  32.739  25.712   6.594
 4550POPC   C3B58329  32.684  25.493   6.956
 4550POPC   C4B58330  32.553  25.418   7.337
 4551POPC   NC358331  19.990  27.728   5.229
 4551POPC   PO458332  19.498  27.334   5.342
 4551POPC   GL158333  19.739  27.557   5.713
 4551POPC   GL258334  20.109  27.707   5.737
 4551POPC   C1A58335  19.604  27.648   6.153
 4551POPC   D2A58336  19.748  27.527   6.564
 4551POPC   C3A58337  19.571  27.763   6.900
 4551POPC   C4A58338  19.555  27.644   7.296
 4551POPC   C1B58339  20.114  27.581   6.186
 4551POPC   C2B58340  20.268  27.466   6.610
 4551POPC   C3B58341  20.165  27.520   7.076
 4551POPC   C4B58342  20.013  27.862   7.350
 4552POPC   NC358343  41.513  40.549   5.418
 4552POPC   PO458344  41.675  41.118   5.752
 4552POPC   GL158345  41.477  40.764   5.909
 4552POPC   GL258346  41.737  40.487   5.862
 4552POPC   C1A58347  41.350  40.896   6.319
 4552POPC   D2A58348  41.504  41.235   6.593
 4552POPC   C3A58349  41.534  41.090   7.000
 4552POPC   C4A58350  41.403  40.731   7.221
 4552POPC   C1B58351  41.855  40.637   6.258
 4552POPC   C2B58352  41.897  40.862   6.614
 4552POPC   C3B58353  41.858  40.679   6.988
 4552POPC   C4B58354  41.804  40.402   7.325
 4553POPC   NC358355  17.764   3.941   5.575
 4553POPC   PO458356  18.326   4.362   5.384
 4553POPC   GL158357  18.386   4.551   5.791
 4553POPC   GL258358  18.251   4.217   5.907
 4553POPC   C1A58359  18.502   4.506   6.249
 4553POPC   D2A58360  18.435   4.300   6.638
 4553POPC   C3A58361  18.263   4.610   6.927
 4553POPC   C4A58362  18.256   4.584   7.352
 4553POPC   C1B58363  18.013   4.167   6.306
 4553POPC   C2B58364  18.048   3.961   6.694
 4553POPC   C3B58365  18.191   4.115   7.103
 4553POPC   C4B58366  17.922   4.220   7.453
 4554POPC   NC358367  20.377  35.330   5.144
 4554POPC   PO458368  19.894  35.597   5.569
 4554POPC   GL158369  19.884  35.410   5.918
 4554POPC   GL258370  19.916  35.119   5.738
 4554POPC   C1A58371  19.681  35.384   6.332
 4554POPC   D2A58372  19.524  35.675   6.670
 4554POPC   C3A58373  19.627  35.542   7.101
 4554POPC   C4A58374  19.741  35.361   7.522
 4554POPC   C1B58375  19.946  34.965   6.156
 4554POPC   C2B58376  20.081  34.980   6.579
 4554POPC   C3B58377  19.818  35.097   6.916
 4554POPC   C4B58378  19.960  34.970   7.301
 4555POPC   NC358379  36.989   1.148   5.157
 4555POPC   PO458380  36.575   1.520   5.464
 4555POPC   GL158381  36.934   1.497   5.715
 4555POPC   GL258382  37.046   1.152   5.677
 4555POPC   C1A58383  36.986   1.391   6.134
 4555POPC   D2A58384  36.762   1.400   6.514
 4555POPC   C3A58385  36.926   1.509   6.898
 4555POPC   C4A58386  36.746   1.403   7.294
 4555POPC   C1B58387  37.149   0.887   6.057
 4555POPC   C2B58388  36.984   0.846   6.478
 4555POPC   C3B58389  36.823   1.006   6.879
 4555POPC   C4B58390  36.912   0.907   7.306
 4556POPC   NC358391  28.875   5.300   5.541
 4556POPC   PO458392  29.237   4.797   5.378
 4556POPC   GL158393  29.111   4.894   5.820
 4556POPC   GL258394  29.142   5.234   5.985
 4556POPC   C1A58395  28.873   4.864   6.213
 4556POPC   D2A58396  28.839   5.092   6.619
 4556POPC   C3A58397  29.027   4.901   6.992
 4556POPC   C4A58398  29.368   4.740   7.203
 4556POPC   C1B58399  29.331   5.097   6.384
 4556POPC   C2B58400  29.298   5.301   6.770
 4556POPC   C3B58401  28.956   5.409   7.017
 4556POPC   C4B58402  28.950   5.580   7.405
 4557POPC   NC358403  13.371  39.563   5.570
 4557POPC   PO458404  13.983  39.319   5.448
 4557POPC   GL158405  13.830  39.309   5.870
 4557POPC   GL258406  13.496  39.240   5.956
 4557POPC   C1A58407  13.842  39.441   6.299
 4557POPC   D2A58408  13.575  39.506   6.682
 4557POPC   C3A58409  13.809  39.420   7.061
 4557POPC   C4A58410  14.099  39.345   7.419
 4557POPC   C1B58411  13.300  39.174   6.368
 4557POPC   C2B58412  13.109  39.280   6.781
 4557POPC   C3B58413  13.264  39.251   7.209
 4557POPC   C4B58414  13.659  39.089   7.415
 4558POPC   NC358415  20.767  13.771   5.471
 4558POPC   PO458416  20.177  13.750   5.155
 4558POPC   GL158417  20.379  13.599   5.752
 4558POPC   GL258418  20.700  13.823   5.946
 4558POPC   C1A58419  20.455  13.621   6.300
 4558POPC   D2A58420  20.565  13.469   6.714
 4558POPC   C3A58421  20.581  13.742   7.086
 4558POPC   C4A58422  20.314  14.106   7.161
 4558POPC   C1B58423  20.951  13.502   6.227
 4558POPC   C2B58424  21.048  13.273   6.630
 4558POPC   C3B58425  20.873  13.263   7.061
 4558POPC   C4B58426  20.914  13.409   7.466
 4559POPC   NC358427  42.948  11.611   5.115
 4559POPC   PO458428  43.394  11.190   5.369
 4559POPC   GL158429  43.107  11.175   5.744
 4559POPC   GL258430  43.190  10.877   5.971
 4559POPC   C1A58431  42.947  11.436   6.058
 4559POPC   D2A58432  42.988  11.403   6.490
 4559POPC   C3A58433  42.904  11.413   6.915
 4559POPC   C4A58434  43.260  11.500   7.135
 4559POPC   C1B58435  43.361  11.086   6.342
 4559POPC   C2B58436  43.321  11.101   6.815
 4559POPC   C3B58437  43.134  10.977   7.229
 4559POPC   C4B58438  43.069  11.009   7.695
 4560POPC   NC358439   9.536  37.180   5.444
 4560POPC   PO458440   9.927  36.559   5.457
 4560POPC   GL158441   9.831  36.718   5.866
 4560POPC   GL258442   9.476  36.742   5.747
 4560POPC   C1A58443   9.995  36.600   6.316
 4560POPC   D2A58444   9.938  36.625   6.803
 4560POPC   C3A58445  10.067  37.015   6.960
 4560POPC   C4A58446   9.906  37.196   7.302
 4560POPC   C1B58447   9.427  37.023   6.126
 4560POPC   C2B58448   9.406  37.031   6.579
 4560POPC   C3B58449   9.505  37.178   6.979
 4560POPC   C4B58450   9.525  36.863   7.257
 4561POPC   NC358451  23.300  16.670   5.562
 4561POPC   PO458452  22.670  16.545   5.384
 4561POPC   GL158453  22.840  16.642   5.816
 4561POPC   GL258454  23.099  16.399   5.960
 4561POPC   C1A58455  23.044  16.886   6.165
 4561POPC   D2A58456  23.007  17.044   6.603
 4561POPC   C3A58457  22.780  16.723   6.865
 4561POPC   C4A58458  22.627  16.494   7.226
 4561POPC   C1B58459  23.405  16.453   6.297
 4561POPC   C2B58460  23.521  16.594   6.711
 4561POPC   C3B58461  23.266  16.847   7.023
 4561POPC   C4B58462  22.933  16.939   7.317
 4562POPC   NC358463   7.799  11.183   5.527
 4562POPC   PO458464   8.221  11.661   5.661
 4562POPC   GL158465   8.058  11.363   5.942
 4562POPC   GL258466   8.212  11.047   5.840
 4562POPC   C1A58467   7.904  11.392   6.362
 4562POPC   D2A58468   7.954  11.532   6.788
 4562POPC   C3A58469   8.241  11.366   7.050
 4562POPC   C4A58470   8.114  11.429   7.452
 4562POPC   C1B58471   8.139  10.938   6.268
 4562POPC   C2B58472   8.037  10.980   6.714
 4562POPC   C3B58473   8.256  10.848   7.105
 4562POPC   C4B58474   8.440  11.019   7.523
 4563POPC   NC358475  36.367  35.562   5.565
 4563POPC   PO458476  36.062  36.210   5.360
 4563POPC   GL158477  36.006  36.302   5.759
 4563POPC   GL258478  36.092  35.943   5.817
 4563POPC   C1A58479  36.189  36.354   6.148
 4563POPC   D2A58480  36.302  36.410   6.565
 4563POPC   C3A58481  36.083  36.159   6.842
 4563POPC   C4A58482  36.067  36.247   7.254
 4563POPC   C1B58483  36.410  35.898   6.153
 4563POPC   C2B58484  36.366  35.697   6.559
 4563POPC   C3B58485  36.417  35.613   6.992
 4563POPC   C4B58486  36.104  35.761   7.247
 4564POPC   NC358487  11.616  27.232   5.497
 4564POPC   PO458488  10.921  27.234   5.656
 4564POPC   GL158489  11.332  27.414   5.899
 4564POPC   GL258490  11.481  27.742   5.773
 4564POPC   C1A58491  11.411  27.555   6.354
 4564POPC   D2A58492  11.046  27.737   6.647
 4564POPC   C3A58493  10.982  27.450   7.005
 4564POPC   C4A58494  11.387  27.396   7.185
 4564POPC   C1B58495  11.264  27.974   6.103
 4564POPC   C2B58496  11.429  28.061   6.512
 4564POPC   C3B58497  11.521  27.858   6.906
 4564POPC   C4B58498  11.195  27.880   7.190
 4565POPC   NC358499  36.746  38.119   5.528
 4565POPC   PO458500  37.108  37.528   5.455
 4565POPC   GL158501  37.155  37.778   5.809
 4565POPC   GL258502  36.881  37.891   5.964
 4565POPC   C1A58503  37.327  37.831   6.194
 4565POPC   D2A58504  37.249  37.580   6.563
 4565POPC   C3A58505  36.897  37.712   6.874
 4565POPC   C4A58506  37.010  37.846   7.324
 4565POPC   C1B58507  36.638  38.060   6.295
 4565POPC   C2B58508  36.535  38.127   6.705
 4565POPC   C3B58509  36.454  38.171   7.145
 4565POPC   C4B58510  36.508  37.899   7.509
 4566POPC   NC358511  42.405   2.362   5.346
 4566POPC   PO458512  41.893   1.838   5.377
 4566POPC   GL158513  42.099   2.118   5.701
 4566POPC   GL258514  42.428   1.934   5.732
 4566POPC   C1A58515  42.255   2.149   6.158
 4566POPC   D2A58516  42.389   1.960   6.518
 4566POPC   C3A58517  42.198   2.037   6.897
 4566POPC   C4A58518  42.056   2.175   7.319
 4566POPC   C1B58519  42.495   1.660   6.115
 4566POPC   C2B58520  42.368   1.451   6.519
 4566POPC   C3B58521  42.508   1.621   6.928
 4566POPC   C4B58522  42.333   1.749   7.297
 4567POPC   NC358523   1.658   0.525   5.334
 4567POPC   PO458524   2.256   0.191   5.294
 4567POPC   GL158525   2.122   0.455   5.673
 4567POPC   GL258526   1.869   0.214   5.759
 4567POPC   C1A58527   1.975   0.566   6.126
 4567POPC   D2A58528   1.856   0.344   6.527
 4567POPC   C3A58529   1.799   0.476   6.974
 4567POPC   C4A58530   1.863   0.857   7.179
 4567POPC   C1B58531   2.226   0.106   6.057
 4567POPC   C2B58532   2.363   0.168   6.494
 4567POPC   C3B58533   2.176   0.104   6.907
 4567POPC   C4B58534   2.355   0.134   7.313
 4568POPC   NC358535  41.324  16.533   5.471
 4568POPC   PO458536  41.494  17.124   5.270
 4568POPC   GL158537  41.637  16.877   5.666
 4568POPC   GL258538  41.914  16.999   5.803
 4568POPC   C1A58539  41.587  16.573   6.061
 4568POPC   D2A58540  41.477  16.677   6.506
 4568POPC   C3A58541  41.779  16.528   6.796
 4568POPC   C4A58542  41.791  16.547   7.212
 4568POPC   C1B58543  41.702  17.043   6.201
 4568POPC   C2B58544  41.976  16.924   6.553
 4568POPC   C3B58545  41.910  17.007   6.990
 4568POPC   C4B58546  41.484  16.932   7.067
 4569POPC   NC358547  39.633   4.345   5.573
 4569POPC   PO458548  38.976   4.026   5.439
 4569POPC   GL158549  39.156   4.263   5.758
 4569POPC   GL258550  38.881   4.308   5.965
 4569POPC   C1A58551  39.302   4.153   6.181
 4569POPC   D2A58552  38.969   4.216   6.496
 4569POPC   C3A58553  39.136   4.261   6.891
 4569POPC   C4A58554  39.405   4.134   7.206
 4569POPC   C1B58555  39.094   4.627   6.224
 4569POPC   C2B58556  38.939   4.739   6.634
 4569POPC   C3B58557  38.820   4.619   7.030
 4569POPC   C4B58558  39.115   4.552   7.322
 4570POPC   NC358559  37.734   3.943   5.566
 4570POPC   PO458560  37.394   4.622   5.525
 4570POPC   GL158561  37.592   4.456   5.875
 4570POPC   GL258562  37.911   4.333   5.832
 4570POPC   C1A58563  37.521   4.462   6.297
 4570POPC   D2A58564  37.595   4.319   6.666
 4570POPC   C3A58565  37.424   4.504   7.003
 4570POPC   C4A58566  37.466   4.292   7.423
 4570POPC   C1B58567  38.034   4.297   6.242
 4570POPC   C2B58568  38.056   4.083   6.604
 4570POPC   C3B58569  38.067   4.389   6.874
 4570POPC   C4B58570  37.877   4.503   7.226
 4571POPC   NC358571  41.650   3.003   5.406
 4571POPC   PO458572  41.253   2.561   5.403
 4571POPC   GL158573  41.445   2.746   5.785
 4571POPC   GL258574  41.726   2.579   5.782
 4571POPC   C1A58575  41.680   2.980   6.154
 4571POPC   D2A58576  41.905   2.892   6.574
 4571POPC   C3A58577  41.712   3.047   6.986
 4571POPC   C4A58578  41.646   3.024   7.462
 4571POPC   C1B58579  41.927   2.527   6.152
 4571POPC   C2B58580  41.917   2.321   6.548
 4571POPC   C3B58581  41.989   2.517   6.938
 4571POPC   C4B58582  41.717   2.563   7.281
 4572POPC   NC358583  15.400  21.182   5.477
 4572POPC   PO458584  16.052  21.352   5.445
 4572POPC   GL158585  15.903  21.478   5.835
 4572POPC   GL258586  15.543  21.447   5.934
 4572POPC   C1A58587  15.933  21.642   6.236
 4572POPC   D2A58588  16.155  21.417   6.535
 4572POPC   C3A58589  15.967  21.326   6.903
 4572POPC   C4A58590  16.050  21.704   7.075
 4572POPC   C1B58591  15.523  21.344   6.418
 4572POPC   C2B58592  15.508  21.552   6.844
 4572POPC   C3B58593  15.633  21.556   7.303
 4572POPC   C4B58594  15.615  21.239   7.668
 4573POPC   NC358595  22.701  44.334   5.274
 4573POPC   PO458596  23.212  44.735   5.222
 4573POPC   GL158597  23.078  44.699   5.695
 4573POPC   GL258598  22.882  44.410   5.759
 4573POPC   C1A58599  22.923  44.796   6.147
 4573POPC   D2A58600  22.728  44.624   6.551
 4573POPC   C3A58601  22.814  44.811   6.957
 4573POPC   C4A58602  23.150  44.703   7.208
 4573POPC   C1B58603  22.813  44.257   6.169
 4573POPC   C2B58604  22.909  44.133   6.577
 4573POPC   C3B58605  23.014  44.297   6.928
 4573POPC   C4B58606  22.745  44.373   7.222
 4574POPC   NC358607  10.325   5.440   5.378
 4574POPC   PO458608  10.488   6.122   5.480
 4574POPC   GL158609  10.440   5.924   5.885
 4574POPC   GL258610  10.437   5.574   5.889
 4574POPC   C1A58611  10.428   6.028   6.304
 4574POPC   D2A58612  10.703   6.051   6.645
 4574POPC   C3A58613  10.548   5.864   7.001
 4574POPC   C4A58614  10.833   5.611   7.189
 4574POPC   C1B58615  10.212   5.562   6.291
 4574POPC   C2B58616  10.135   5.755   6.678
 4574POPC   C3B58617  10.089   5.501   7.001
 4574POPC   C4B58618  10.343   5.519   7.337
 4575POPC   NC358619  23.664  31.715   5.393
 4575POPC   PO458620  23.646  32.314   5.468
 4575POPC   GL158621  23.557  32.484   5.865
 4575POPC   GL258622  23.880  32.412   5.978
 4575POPC   C1A58623  23.349  32.360   6.267
 4575POPC   D2A58624  23.521  32.120   6.602
 4575POPC   C3A58625  23.438  32.264   6.999
 4575POPC   C4A58626  23.465  32.080   7.456
 4575POPC   C1B58627  23.905  32.585   6.393
 4575POPC   C2B58628  23.918  32.409   6.814
 4575POPC   C3B58629  23.856  32.325   7.284
 4575POPC   C4B58630  23.898  32.211   7.751
 4576POPC   NC358631   7.132  43.948   5.265
 4576POPC   PO458632   7.642  43.511   5.396
 4576POPC   GL158633   7.466  43.726   5.745
 4576POPC   GL258634   7.672  44.010   5.838
 4576POPC   C1A58635   7.222  43.657   6.144
 4576POPC   D2A58636   7.159  43.895   6.558
 4576POPC   C3A58637   7.339  43.844   6.969
 4576POPC   C4A58638   7.076  43.684   7.241
 4576POPC   C1B58639   7.525  44.041   6.240
 4576POPC   C2B58640   7.675  44.072   6.654
 4576POPC   C3B58641   7.678  44.224   7.074
 4576POPC   C4B58642   7.650  44.200   7.524
 4577POPC   NC358643  35.028  37.777   5.443
 4577POPC   PO458644  35.529  37.338   5.374
 4577POPC   GL158645  35.306  37.400   5.747
 4577POPC   GL258646  35.605  37.337   5.937
 4577POPC   C1A58647  35.346  37.748   6.086
 4577POPC   D2A58648  35.571  37.975   6.426
 4577POPC   C3A58649  35.348  37.842   6.797
 4577POPC   C4A58650  35.436  37.870   7.205
 4577POPC   C1B58651  35.259  37.277   6.262
 4577POPC   C2B58652  35.124  37.233   6.704
 4577POPC   C3B58653  35.323  37.376   7.089
 4577POPC   C4B58654  35.582  37.465   7.481
 4578POPC   NC358655  20.869  16.302   5.474
 4578POPC   PO458656  20.441  15.779   5.393
 4578POPC   GL158657  20.768  15.801   5.716
 4578POPC   GL258658  20.662  16.072   5.894
 4578POPC   C1A58659  20.917  15.602   6.114
 4578POPC   D2A58660  20.788  15.503   6.551
 4578POPC   C3A58661  20.600  15.836   6.846
 4578POPC   C4A58662  20.720  16.129   7.203
 4578POPC   C1B58663  20.684  16.014   6.345
 4578POPC   C2B58664  20.656  16.315   6.678
 4578POPC   C3B58665  20.379  16.432   6.976
 4578POPC   C4B58666  20.176  16.143   7.225
 4579POPC   NC358667   5.852   9.721   4.914
 4579POPC   PO458668   6.259   9.555   5.373
 4579POPC   GL158669   6.091   9.715   5.783
 4579POPC   GL258670   5.705   9.754   5.783
 4579POPC   C1A58671   5.950   9.840   6.218
 4579POPC   D2A58672   6.059  10.080   6.574
 4579POPC   C3A58673   5.937   9.896   6.981
 4579POPC   C4A58674   6.021   9.719   7.408
 4579POPC   C1B58675   5.547   9.537   6.183
 4579POPC   C2B58676   5.676   9.633   6.627
 4579POPC   C3B58677   5.469   9.700   7.061
 4579POPC   C4B58678   5.522   9.713   7.527
 4580POPC   NC358679  22.276  32.810   5.509
 4580POPC   PO458680  22.445  33.499   5.510
 4580POPC   GL158681  22.239  33.173   5.866
 4580POPC   GL258682  22.435  32.847   5.994
 4580POPC   C1A58683  21.949  32.843   6.125
 4580POPC   D2A58684  21.848  32.671   6.554
 4580POPC   C3A58685  22.009  32.964   6.879
 4580POPC   C4A58686  22.054  33.037   7.325
 4580POPC   C1B58687  22.359  32.849   6.444
 4580POPC   C2B58688  22.612  32.897   6.808
 4580POPC   C3B58689  22.523  32.933   7.214
 4580POPC   C4B58690  22.559  33.285   7.531
 4581POPC   NC358691   2.599   5.973   5.383
 4581POPC   PO458692   3.180   5.636   5.310
 4581POPC   GL158693   2.974   5.845   5.746
 4581POPC   GL258694   2.565   5.781   5.870
 4581POPC   C1A58695   2.926   5.713   6.215
 4581POPC   D2A58696   2.912   5.928   6.621
 4581POPC   C3A58697   2.807   5.685   6.978
 4581POPC   C4A58698   2.882   5.666   7.420
 4581POPC   C1B58699   2.526   6.010   6.287
 4581POPC   C2B58700   2.430   6.077   6.720
 4581POPC   C3B58701   2.444   5.998   7.161
 4581POPC   C4B58702   2.151   5.875   7.459
 4582POPC   NC358703  22.696  29.520   5.517
 4582POPC   PO458704  23.102  29.060   5.206
 4582POPC   GL158705  23.016  29.104   5.829
 4582POPC   GL258706  22.877  29.342   5.948
 4582POPC   C1A58707  22.671  29.086   6.286
 4582POPC   D2A58708  22.464  29.193   6.684
 4582POPC   C3A58709  22.788  29.148   7.004
 4582POPC   C4A58710  22.927  29.343   7.382
 4582POPC   C1B58711  23.199  29.196   6.287
 4582POPC   C2B58712  23.245  29.142   6.741
 4582POPC   C3B58713  23.367  29.229   7.151
 4582POPC   C4B58714  23.330  29.646   7.373
 4583POPC   NC358715  35.767  19.517   5.521
 4583POPC   PO458716  35.290  19.919   5.538
 4583POPC   GL158717  35.205  19.806   5.954
 4583POPC   GL258718  34.991  19.508   5.926
 4583POPC   C1A58719  35.143  20.083   6.330
 4583POPC   D2A58720  35.004  20.259   6.753
 4583POPC   C3A58721  35.261  20.056   7.084
 4583POPC   C4A58722  35.665  19.798   7.157
 4583POPC   C1B58723  35.273  19.366   6.248
 4583POPC   C2B58724  35.476  19.536   6.605
 4583POPC   C3B58725  35.264  19.536   6.982
 4583POPC   C4B58726  35.169  19.627   7.377
 4584POPC   NC358727  16.236   0.128   5.079
 4584POPC   PO458728  16.011   0.652   5.343
 4584POPC   GL158729  16.141   0.295   5.611
 4584POPC   GL258730  15.903   0.456   5.863
 4584POPC   C1A58731  16.263   0.150   6.033
 4584POPC   D2A58732  15.990   0.263   6.394
 4584POPC   C3A58733  16.024   0.128   6.841
 4584POPC   C4A58734  16.317   0.244   7.179
 4584POPC   C1B58735  15.602   0.578   6.194
 4584POPC   C2B58736  15.786   0.758   6.560
 4584POPC   C3B58737  16.104   0.641   6.842
 4584POPC   C4B58738  15.899   0.544   7.220
 4585POPC   NC358739  41.510  35.532   5.380
 4585POPC   PO458740  41.724  34.863   5.524
 4585POPC   GL158741  41.656  35.251   5.811
 4585POPC   GL258742  41.325  35.347   5.819
 4585POPC   C1A58743  41.561  35.498   6.222
 4585POPC   D2A58744  41.409  35.334   6.626
 4585POPC   C3A58745  41.739  35.349   6.932
 4585POPC   C4A58746  41.630  35.663   7.200
 4585POPC   C1B58747  41.127  35.693   6.042
 4585POPC   C2B58748  41.217  35.794   6.488
 4585POPC   C3B58749  41.194  35.711   6.913
 4585POPC   C4B58750  41.134  35.497   7.291
 4586POPC   NC358751  22.840  34.907   5.581
 4586POPC   PO458752  23.147  34.422   5.140
 4586POPC   GL158753  23.004  34.424   5.671
 4586POPC   GL258754  22.614  34.398   5.743
 4586POPC   C1A58755  22.960  34.646   6.152
 4586POPC   D2A58756  23.159  34.799   6.557
 4586POPC   C3A58757  22.905  34.837   6.946
 4586POPC   C4A58758  22.682  34.789   7.334
 4586POPC   C1B58759  22.466  34.550   6.189
 4586POPC   C2B58760  22.562  34.686   6.614
 4586POPC   C3B58761  22.567  34.418   7.040
 4586POPC   C4B58762  22.490  34.393   7.580
 4587POPC   NC358763  15.293  10.188   5.246
 4587POPC   PO458764  14.679  10.384   5.383
 4587POPC   GL158765  14.871  10.575   5.804
 4587POPC   GL258766  15.239  10.656   5.835
 4587POPC   C1A58767  15.001  10.473   6.259
 4587POPC   D2A58768  15.274  10.242   6.555
 4587POPC   C3A58769  15.147  10.356   6.958
 4587POPC   C4A58770  15.127  10.476   7.382
 4587POPC   C1B58771  15.536  10.566   6.222
 4587POPC   C2B58772  15.555  10.690   6.676
 4587POPC   C3B58773  15.545  10.638   7.123
 4587POPC   C4B58774  15.559  10.619   7.568
 4588POPC   NC358775   1.868  29.489   5.533
 4588POPC   PO458776   2.283  28.954   5.397
 4588POPC   GL158777   2.127  29.031   5.824
 4588POPC   GL258778   1.804  29.075   5.811
 4588POPC   C1A58779   2.020  29.144   6.283
 4588POPC   D2A58780   1.788  29.050   6.670
 4588POPC   C3A58781   1.973  29.128   7.071
 4588POPC   C4A58782   2.047  29.070   7.498
 4588POPC   C1B58783   1.602  29.349   6.092
 4588POPC   C2B58784   1.717  29.522   6.470
 4588POPC   C3B58785   1.582  29.469   6.899
 4588POPC   C4B58786   1.628  29.377   7.354
 4589POPC   NC358787  15.242  31.161   5.415
 4589POPC   PO458788  14.660  31.418   5.429
 4589POPC   GL158789  14.833  31.400   5.865
 4589POPC   GL258790  15.240  31.423   5.923
 4589POPC   C1A58791  14.911  31.646   6.253
 4589POPC   D2A58792  15.190  31.548   6.612
 4589POPC   C3A58793  15.081  31.418   7.047
 4589POPC   C4A58794  15.238  31.469   7.475
 4589POPC   C1B58795  15.524  31.276   6.318
 4589POPC   C2B58796  15.653  31.254   6.783
 4589POPC   C3B58797  15.693  31.341   7.246
 4589POPC   C4B58798  15.834  31.342   7.676
 4590POPC   NC358799  41.161   5.075   5.504
 4590POPC   PO458800  40.674   4.672   5.432
 4590POPC   GL158801  40.781   4.873   5.871
 4590POPC   GL258802  40.915   5.222   5.922
 4590POPC   C1A58803  40.696   5.001   6.344
 4590POPC   D2A58804  40.655   5.025   6.800
 4590POPC   C3A58805  41.052   4.977   7.032
 4590POPC   C4A58806  40.960   4.743   7.449
 4590POPC   C1B58807  40.736   5.496   6.208
 4590POPC   C2B58808  40.526   5.486   6.596
 4590POPC   C3B58809  40.702   5.491   7.012
 4590POPC   C4B58810  40.757   5.212   7.359
 4591POPC   NC358811  24.152  22.609   5.682
 4591POPC   PO458812  23.697  23.012   5.344
 4591POPC   GL158813  23.708  23.153   5.756
 4591POPC   GL258814  23.553  22.858   5.847
 4591POPC   C1A58815  23.934  23.085   6.162
 4591POPC   D2A58816  23.997  23.225   6.598
 4591POPC   C3A58817  23.925  22.887   6.904
 4591POPC   C4A58818  24.014  22.798   7.322
 4591POPC   C1B58819  23.445  23.147   6.206
 4591POPC   C2B58820  23.487  23.029   6.606
 4591POPC   C3B58821  23.559  23.221   6.982
 4591POPC   C4B58822  23.519  23.043   7.359
 4592POPC   NC358823   4.512  31.143   5.513
 4592POPC   PO458824   4.071  31.538   5.221
 4592POPC   GL158825   4.288  31.559   5.690
 4592POPC   GL258826   4.563  31.730   5.800
 4592POPC   C1A58827   4.185  31.581   6.148
 4592POPC   D2A58828   4.061  31.710   6.573
 4592POPC   C3A58829   4.220  31.465   6.962
 4592POPC   C4A58830   4.045  31.222   7.307
 4592POPC   C1B58831   4.700  31.558   6.218
 4592POPC   C2B58832   4.571  31.643   6.621
 4592POPC   C3B58833   4.646  31.781   7.047
 4592POPC   C4B58834   4.694  31.423   7.255
 4593POPC   NC358835   7.956  29.129   5.517
 4593POPC   PO458836   8.508  28.774   5.683
 4593POPC   GL158837   8.204  28.911   5.916
 4593POPC   GL258838   8.305  29.253   5.888
 4593POPC   C1A58839   7.899  29.012   6.202
 4593POPC   D2A58840   8.004  29.216   6.567
 4593POPC   C3A58841   8.199  28.944   6.866
 4593POPC   C4A58842   8.113  28.953   7.268
 4593POPC   C1B58843   8.307  29.538   6.224
 4593POPC   C2B58844   8.063  29.715   6.548
 4593POPC   C3B58845   7.973  29.556   6.953
 4593POPC   C4B58846   8.200  29.474   7.279
 4594POPC   NC358847   4.729  16.851   5.264
 4594POPC   PO458848   4.099  16.566   5.486
 4594POPC   GL158849   4.280  16.785   5.783
 4594POPC   GL258850   4.618  16.712   5.748
 4594POPC   C1A58851   4.194  16.783   6.203
 4594POPC   D2A58852   4.055  16.919   6.598
 4594POPC   C3A58853   4.423  16.890   6.865
 4594POPC   C4A58854   4.484  16.996   7.272
 4594POPC   C1B58855   4.668  16.396   6.088
 4594POPC   C2B58856   4.605  16.311   6.520
 4594POPC   C3B58857   4.783  16.267   6.911
 4594POPC   C4B58858   4.691  16.542   7.228
 4595POPC   NC358859   9.484  12.237   5.576
 4595POPC   PO458860  10.120  12.167   5.573
 4595POPC   GL158861   9.869  11.863   5.823
 4595POPC   GL258862   9.484  11.837   5.892
 4595POPC   C1A58863   9.857  11.799   6.264
 4595POPC   D2A58864  10.034  12.135   6.527
 4595POPC   C3A58865  10.037  12.052   6.950
 4595POPC   C4A58866   9.998  11.732   7.278
 4595POPC   C1B58867   9.341  11.829   6.318
 4595POPC   C2B58868   9.577  11.941   6.704
 4595POPC   C3B58869   9.570  12.154   7.113
 4595POPC   C4B58870   9.596  12.219   7.598
 4596POPC   NC358871  16.750  12.840   5.162
 4596POPC   PO458872  16.583  13.293   5.562
 4596POPC   GL158873  16.829  12.952   5.778
 4596POPC   GL258874  16.574  12.737   5.859
 4596POPC   C1A58875  16.915  12.831   6.229
 4596POPC   D2A58876  16.717  12.733   6.640
 4596POPC   C3A58877  16.781  12.967   7.022
 4596POPC   C4A58878  16.531  13.169   7.273
 4596POPC   C1B58879  16.481  12.491   6.238
 4596POPC   C2B58880  16.260  12.395   6.629
 4596POPC   C3B58881  16.439  12.464   7.029
 4596POPC   C4B58882  16.707  12.560   7.333
 4597POPC   NC358883  35.570  10.178   5.473
 4597POPC   PO458884  35.078   9.729   5.444
 4597POPC   GL158885  35.250   9.696   5.867
 4597POPC   GL258886  35.295  10.050   5.957
 4597POPC   C1A58887  35.150   9.722   6.331
 4597POPC   D2A58888  35.258   9.864   6.754
 4597POPC   C3A58889  35.318   9.614   7.123
 4597POPC   C4A58890  34.985   9.519   7.400
 4597POPC   C1B58891  35.559  10.055   6.377
 4597POPC   C2B58892  35.555  10.258   6.817
 4597POPC   C3B58893  35.674  10.006   7.218
 4597POPC   C4B58894  35.713   9.710   7.559
 4598POPC   NC358895  33.598  13.149   5.266
 4598POPC   PO458896  33.830  13.786   5.387
 4598POPC   GL158897  33.868  13.689   5.792
 4598POPC   GL258898  33.784  13.380   5.722
 4598POPC   C1A58899  33.673  13.740   6.224
 4598POPC   D2A58900  33.549  14.011   6.574
 4598POPC   C3A58901  33.721  13.822   6.956
 4598POPC   C4A58902  33.833  13.937   7.388
 4598POPC   C1B58903  34.021  13.346   6.134
 4598POPC   C2B58904  33.916  13.418   6.570
 4598POPC   C3B58905  33.964  13.324   6.999
 4598POPC   C4B58906  33.695  13.451   7.300
 4599POPC   NC358907  35.488  27.624   5.539
 4599POPC   PO458908  34.869  27.408   5.342
 4599POPC   GL158909  35.046  27.465   5.791
 4599POPC   GL258910  35.347  27.256   5.856
 4599POPC   C1A58911  35.140  27.713   6.205
 4599POPC   D2A58912  34.979  27.858   6.617
 4599POPC   C3A58913  35.240  27.825   6.998
 4599POPC   C4A58914  35.461  27.795   7.397
 4599POPC   C1B58915  35.580  27.452   6.188
 4599POPC   C2B58916  35.452  27.539   6.606
 4599POPC   C3B58917  35.682  27.572   6.989
 4599POPC   C4B58918  35.712  27.253   7.264
 4600POPC   NC358919  12.231  26.164   4.996
 4600POPC   PO458920  11.860  26.003   5.402
 4600POPC   GL158921  11.831  26.093   5.877
 4600POPC   GL258922  12.186  26.010   5.890
 4600POPC   C1A58923  11.989  26.164   6.322
 4600POPC   D2A58924  12.395  26.031   6.588
 4600POPC   C3A58925  12.269  26.027   7.034
 4600POPC   C4A58926  11.839  26.079   7.140
 4600POPC   C1B58927  12.168  25.698   6.278
 4600POPC   C2B58928  11.948  25.784   6.708
 4600POPC   C3B58929  12.025  25.578   7.134
 4600POPC   C4B58930  12.210  25.262   7.461
 4601POPC   NC358931   3.784  33.375   5.522
 4601POPC   PO458932   3.430  32.871   5.263
 4601POPC   GL158933   3.634  32.917   5.745
 4601POPC   GL258934   3.396  32.794   5.956
 4601POPC   C1A58935   3.621  33.213   6.203
 4601POPC   D2A58936   3.497  33.199   6.670
 4601POPC   C3A58937   3.776  33.215   7.074
 4601POPC   C4A58938   3.748  33.269   7.560
 4601POPC   C1B58939   3.786  32.745   6.225
 4601POPC   C2B58940   3.822  32.715   6.666
 4601POPC   C3B58941   3.522  32.787   6.981
 4601POPC   C4B58942   3.405  32.602   7.332
 4602POPC   NC358943  42.164  11.769   5.715
 4602POPC   PO458944  42.479  11.400   5.138
 4602POPC   GL158945  42.542  11.337   5.665
 4602POPC   GL258946  42.378  11.027   5.819
 4602POPC   C1A58947  42.430  11.379   6.170
 4602POPC   D2A58948  42.391  11.084   6.539
 4602POPC   C3A58949  42.340  11.269   6.947
 4602POPC   C4A58950  42.101  11.219   7.299
 4602POPC   C1B58951  42.730  10.975   6.129
 4602POPC   C2B58952  42.912  10.890   6.536
 4602POPC   C3B58953  42.726  10.919   6.939
 4602POPC   C4B58954  42.600  11.017   7.378
 4603POPC   NC358955  30.037  32.084   5.415
 4603POPC   PO458956  29.377  32.209   5.195
 4603POPC   GL158957  29.532  32.036   5.686
 4603POPC   GL258958  29.830  31.855   5.835
 4603POPC   C1A58959  29.684  32.254   6.151
 4603POPC   D2A58960  29.846  32.227   6.583
 4603POPC   C3A58961  29.855  32.475   6.969
 4603POPC   C4A58962  29.770  32.504   7.452
 4603POPC   C1B58963  30.132  32.012   6.157
 4603POPC   C2B58964  30.355  32.122   6.555
 4603POPC   C3B58965  30.177  32.068   6.963
 4603POPC   C4B58966  29.819  32.030   7.226
 4604POPC   NC358967  38.989   8.167   5.437
 4604POPC   PO458968  39.520   7.837   5.319
 4604POPC   GL158969  39.404   8.039   5.777
 4604POPC   GL258970  39.123   8.270   5.893
 4604POPC   C1A58971  39.499   8.319   6.200
 4604POPC   D2A58972  39.475   8.483   6.637
 4604POPC   C3A58973  39.310   8.182   6.934
 4604POPC   C4A58974  39.316   8.120   7.366
 4604POPC   C1B58975  38.946   8.474   6.241
 4604POPC   C2B58976  38.943   8.431   6.693
 4604POPC   C3B58977  38.872   8.342   7.146
 4604POPC   C4B58978  38.625   8.081   7.463
 4605POPC   NC358979  28.782  42.869   5.603
 4605POPC   PO458980  29.207  43.388   5.470
 4605POPC   GL158981  29.327  43.224   5.872
 4605POPC   GL258982  29.490  42.896   5.883
 4605POPC   C1A58983  29.148  43.180   6.312
 4605POPC   D2A58984  29.333  43.009   6.707
 4605POPC   C3A58985  29.249  43.154   7.089
 4605POPC   C4A58986  28.825  43.236   7.256
 4605POPC   C1B58987  29.362  42.732   6.287
 4605POPC   C2B58988  28.940  42.735   6.555
 4605POPC   C3B58989  28.926  42.717   7.036
 4605POPC   C4B58990  29.209  42.672   7.410
 4606POPC   NC358991   8.264  25.784   5.360
 4606POPC   PO458992   7.769  26.236   5.472
 4606POPC   GL158993   7.962  26.089   5.873
 4606POPC   GL258994   8.279  25.926   5.858
 4606POPC   C1A58995   8.086  26.023   6.325
 4606POPC   D2A58996   7.820  26.046   6.674
 4606POPC   C3A58997   8.023  26.171   7.042
 4606POPC   C4A58998   8.445  26.238   7.041
 4606POPC   C1B58999   8.228  25.553   6.148
 4606POPC   C2B59000   8.281  25.408   6.571
 4606POPC   C3B59001   8.331  25.712   6.895
 4606POPC   C4B59002   7.996  25.687   7.160
 4607POPC   NC359003   8.649  39.860   5.557
 4607POPC   PO459004   9.250  40.157   5.401
 4607POPC   GL159005   9.127  39.869   5.754
 4607POPC   GL259006   9.405  39.638   5.778
 4607POPC   C1A59007   8.843  39.832   6.146
 4607POPC   D2A59008   8.722  40.142   6.449
 4607POPC   C3A59009   8.683  39.988   6.885
 4607POPC   C4A59010   8.883  40.081   7.290
 4607POPC   C1B59011   9.349  39.874   6.202
 4607POPC   C2B59012   9.084  39.779   6.582
 4607POPC   C3B59013   9.217  39.938   6.944
 4607POPC   C4B59014   9.396  40.078   7.312
 4608POPC   NC359015  40.000  35.833   5.444
 4608POPC   PO459016  39.889  36.488   5.382
 4608POPC   GL159017  39.912  36.251   5.765
 4608POPC   GL259018  40.096  36.458   5.987
 4608POPC   C1A59019  39.946  35.991   6.159
 4608POPC   D2A59020  39.791  36.147   6.585
 4608POPC   C3A59021  39.904  35.917   6.972
 4608POPC   C4A59022  40.219  35.829   7.316
 4608POPC   C1B59023  39.778  36.577   6.276
 4608POPC   C2B59024  39.725  36.639   6.717
 4608POPC   C3B59025  39.891  36.420   7.088
 4608POPC   C4B59026  39.786  36.159   7.449
 4609POPC   NC359027  29.107  41.889   5.538
 4609POPC   PO459028  28.756  42.433   5.482
 4609POPC   GL159029  28.888  42.356   5.910
 4609POPC   GL259030  28.657  42.090   5.963
 4609POPC   C1A59031  29.133  42.299   6.324
 4609POPC   D2A59032  29.300  42.440   6.759
 4609POPC   C3A59033  29.097  42.232   7.141
 4609POPC   C4A59034  29.232  42.124   7.554
 4609POPC   C1B59035  28.737  42.015   6.402
 4609POPC   C2B59036  28.767  42.284   6.739
 4609POPC   C3B59037  28.607  42.179   7.119
 4609POPC   C4B59038  28.782  41.882   7.438
 4610POPC   NC359039  32.466  37.945   5.344
 4610POPC   PO459040  32.266  37.362   5.355
 4610POPC   GL159041  32.186  37.590   5.780
 4610POPC   GL259042  32.035  37.899   5.651
 4610POPC   C1A59043  32.346  37.686   6.248
 4610POPC   D2A59044  32.095  37.510   6.611
 4610POPC   C3A59045  32.118  37.301   7.009
 4610POPC   C4A59046  32.417  37.512   7.215
 4610POPC   C1B59047  31.906  37.905   6.100
 4610POPC   C2B59048  32.045  38.026   6.530
 4610POPC   C3B59049  32.355  37.899   6.845
 4610POPC   C4B59050  32.358  38.034   7.267
 4611POPC   NC359051  18.684  23.790   5.492
 4611POPC   PO459052  19.067  23.200   5.437
 4611POPC   GL159053  19.040  23.546   5.816
 4611POPC   GL259054  18.857  23.879   5.964
 4611POPC   C1A59055  19.107  23.567   6.287
 4611POPC   D2A59056  19.208  23.435   6.722
 4611POPC   C3A59057  19.159  23.754   7.065
 4611POPC   C4A59058  19.176  23.780   7.534
 4611POPC   C1B59059  18.648  23.771   6.393
 4611POPC   C2B59060  18.673  23.750   6.871
 4611POPC   C3B59061  18.719  23.948   7.302
 4611POPC   C4B59062  18.659  23.823   7.740
 4612POPC   NC359063  18.545  37.122   5.467
 4612POPC   PO459064  18.033  36.716   5.342
 4612POPC   GL159065  18.145  36.945   5.747
 4612POPC   GL259066  18.511  36.916   5.922
 4612POPC   C1A59067  18.120  37.094   6.173
 4612POPC   D2A59068  18.337  36.907   6.512
 4612POPC   C3A59069  18.097  36.824   6.874
 4612POPC   C4A59070  18.214  37.037   7.232
 4612POPC   C1B59071  18.698  36.647   6.241
 4612POPC   C2B59072  18.629  36.513   6.689
 4612POPC   C3B59073  18.595  36.720   7.096
 4612POPC   C4B59074  18.582  36.862   7.561
 4613POPC   NC359075  39.643   7.471   5.066
 4613POPC   PO459076  40.133   7.826   5.523
 4613POPC   GL159077  40.071   7.646   5.919
 4613POPC   GL259078  40.176   7.390   5.835
 4613POPC   C1A59079  39.944   7.418   6.310
 4613POPC   D2A59080  40.054   7.521   6.741
 4613POPC   C3A59081  40.031   7.263   7.117
 4613POPC   C4A59082  39.829   7.291   7.476
 4613POPC   C1B59083  40.246   7.041   6.086
 4613POPC   C2B59084  40.274   7.064   6.517
 4613POPC   C3B59085  40.269   6.872   6.879
 4613POPC   C4B59086  40.429   6.906   7.285
 4614POPC   NC359087  24.756  44.671   5.445
 4614POPC   PO459088  24.106  44.680   5.383
 4614POPC   GL159089  24.406  44.732   5.817
 4614POPC   GL259090  24.729  44.882   5.933
 4614POPC   C1A59091  24.568  44.504   6.237
 4614POPC   D2A59092  24.576  44.250   6.632
 4614POPC   C3A59093  24.729  44.421   7.036
 4614POPC   C4A59094  24.568  44.650   7.419
 4614POPC   C1B59095  24.649  44.995   6.355
 4614POPC   C2B59096  24.543  44.849   6.764
 4614POPC   C3B59097  24.843  44.911   7.093
 4614POPC   C4B59098  24.892   0.050   7.544
 4615POPC   NC359099  33.469  25.549   5.392
 4615POPC   PO459100  34.082  25.203   5.223
 4615POPC   GL159101  34.014  25.398   5.647
 4615POPC   GL259102  33.701  25.323   5.797
 4615POPC   C1A59103  34.107  25.462   6.111
 4615POPC   D2A59104  33.989  25.363   6.560
 4615POPC   C3A59105  34.115  25.509   6.971
 4615POPC   C4A59106  34.014  25.296   7.368
 4615POPC   C1B59107  33.608  25.522   6.219
 4615POPC   C2B59108  33.471  25.397   6.609
 4615POPC   C3B59109  33.602  25.390   7.007
 4615POPC   C4B59110  33.526  25.462   7.403
 4616POPC   NC359111   3.270  43.761   5.500
 4616POPC   PO459112   3.690  43.267   5.290
 4616POPC   GL159113   3.736  42.981   5.673
 4616POPC   GL259114   3.375  42.901   5.774
 4616POPC   C1A59115   3.761  42.841   6.128
 4616POPC   D2A59116   3.483  42.825   6.504
 4616POPC   C3A59117   3.544  43.078   6.878
 4616POPC   C4A59118   3.665  42.850   7.239
 4616POPC   C1B59119   3.132  43.208   6.038
 4616POPC   C2B59120   3.208  43.255   6.485
 4616POPC   C3B59121   3.179  43.476   6.872
 4616POPC   C4B59122   3.296  43.346   7.275
 4617POPC   NC359123  27.463  43.956   5.266
 4617POPC   PO459124  27.996  43.560   5.457
 4617POPC   GL159125  27.854  43.813   5.856
 4617POPC   GL259126  27.498  43.957   5.802
 4617POPC   C1A59127  27.835  43.834   6.317
 4617POPC   D2A59128  27.664  43.927   6.729
 4617POPC   C3A59129  27.948  43.900   7.099
 4617POPC   C4A59130  27.589  43.670   7.208
 4617POPC   C1B59131  27.318  44.049   6.226
 4617POPC   C2B59132  27.375  44.336   6.593
 4617POPC   C3B59133  27.280  44.200   7.016
 4617POPC   C4B59134  27.351  44.046   7.437
 4618POPC   NC359135  21.729   3.125   5.518
 4618POPC   PO459136  22.281   2.763   5.460
 4618POPC   GL159137  22.091   2.897   5.824
 4618POPC   GL259138  21.908   2.632   5.917
 4618POPC   C1A59139  22.112   3.065   6.241
 4618POPC   D2A59140  22.421   3.072   6.549
 4618POPC   C3A59141  22.284   2.764   6.818
 4618POPC   C4A59142  22.097   2.844   7.185
 4618POPC   C1B59143  22.001   2.449   6.321
 4618POPC   C2B59144  21.832   2.505   6.724
 4618POPC   C3B59145  21.948   2.379   7.123
 4618POPC   C4B59146  21.924   2.516   7.552
 4619POPC   NC359147   2.585  43.756   5.119
 4619POPC   PO459148   2.596  43.154   5.353
 4619POPC   GL159149   2.592  42.936   5.750
 4619POPC   GL259150   2.884  42.740   5.848
 4619POPC   C1A59151   2.574  42.950   6.209
 4619POPC   D2A59152   2.720  43.305   6.471
 4619POPC   C3A59153   2.655  43.346   6.913
 4619POPC   C4A59154   2.515  42.987   7.168
 4619POPC   C1B59155   3.052  42.749   6.238
 4619POPC   C2B59156   2.900  42.857   6.623
 4619POPC   C3B59157   3.030  43.004   6.983
 4619POPC   C4B59158   3.150  42.855   7.343
 4620POPC   NC359159  43.545  15.679   5.647
 4620POPC   PO459160  43.194  16.168   5.338
 4620POPC   GL159161  43.077  16.176   5.772
 4620POPC   GL259162  42.758  15.997   5.851
 4620POPC   C1A59163  43.112  16.360   6.200
 4620POPC   D2A59164  42.982  16.177   6.599
 4620POPC   C3A59165  43.145  16.095   7.033
 4620POPC   C4A59166  43.013  16.060   7.494
 4620POPC   C1B59167  43.072  15.847   6.161
 4620POPC   C2B59168  43.267  15.730   6.535
 4620POPC   C3B59169  43.107  15.573   6.926
 4620POPC   C4B59170  43.285  15.660   7.322
 4621POPC   NC359171   3.459  29.502   5.626
 4621POPC   PO459172   3.881  28.905   5.442
 4621POPC   GL159173   3.757  28.851   5.852
 4621POPC   GL259174   3.808  29.189   5.897
 4621POPC   C1A59175   3.497  28.920   6.219
 4621POPC   D2A59176   3.311  29.181   6.534
 4621POPC   C3A59177   3.372  29.051   6.924
 4621POPC   C4A59178   3.282  29.231   7.320
 4621POPC   C1B59179   3.758  29.365   6.297
 4621POPC   C2B59180   3.931  29.275   6.684
 4621POPC   C3B59181   3.841  29.151   7.091
 4621POPC   C4B59182   3.753  29.370   7.470
 4622POPC   NC359183   2.018  30.220   5.494
 4622POPC   PO459184   1.825  30.870   5.379
 4622POPC   GL159185   2.012  30.691   5.752
 4622POPC   GL259186   1.968  31.007   5.891
 4622POPC   C1A59187   1.978  30.498   6.185
 4622POPC   D2A59188   1.797  30.526   6.620
 4622POPC   C3A59189   2.031  30.657   6.998
 4622POPC   C4A59190   2.109  30.458   7.410
 4622POPC   C1B59191   2.277  30.908   6.183
 4622POPC   C2B59192   2.340  30.632   6.563
 4622POPC   C3B59193   2.535  30.776   6.966
 4622POPC   C4B59194   2.336  30.886   7.348
 4623POPC   NC359195  30.404  37.923   5.464
 4623POPC   PO459196  29.862  37.548   5.400
 4623POPC   GL159197  29.909  37.504   5.810
 4623POPC   GL259198  30.075  37.840   5.860
 4623POPC   C1A59199  29.808  37.575   6.232
 4623POPC   D2A59200  30.067  37.634   6.599
 4623POPC   C3A59201  29.804  37.750   6.948
 4623POPC   C4A59202  29.641  37.908   7.322
 4623POPC   C1B59203  30.036  38.045   6.278
 4623POPC   C2B59204  30.052  38.140   6.720
 4623POPC   C3B59205  30.094  38.129   7.165
 4623POPC   C4B59206  29.886  38.323   7.504
 4624POPC   NC359207  32.527  24.119   5.429
 4624POPC   PO459208  32.462  24.789   5.436
 4624POPC   GL159209  32.319  24.478   5.761
 4624POPC   GL259210  31.996  24.286   5.706
 4624POPC   C1A59211  32.162  24.579   6.188
 4624POPC   D2A59212  32.049  24.808   6.569
 4624POPC   C3A59213  32.293  24.653   6.930
 4624POPC   C4A59214  32.387  24.495   7.331
 4624POPC   C1B59215  31.985  24.108   6.177
 4624POPC   C2B59216  32.111  24.248   6.635
 4624POPC   C3B59217  32.090  24.139   7.104
 4624POPC   C4B59218  32.035  24.226   7.581
 4625POPC   NC359219  41.285  28.825   5.503
 4625POPC   PO459220  41.964  28.855   5.482
 4625POPC   GL159221  41.667  28.978   5.810
 4625POPC   GL259222  41.469  29.296   5.791
 4625POPC   C1A59223  41.415  28.973   6.187
 4625POPC   D2A59224  41.581  29.121   6.581
 4625POPC   C3A59225  41.602  28.902   6.918
 4625POPC   C4A59226  41.300  28.985   7.209
 4625POPC   C1B59227  41.535  29.471   6.216
 4625POPC   C2B59228  41.589  29.627   6.662
 4625POPC   C3B59229  41.419  29.468   7.049
 4625POPC   C4B59230  41.444  29.411   7.496
 4626POPC   NC359231   9.111  33.644   5.490
 4626POPC   PO459232   8.571  33.897   5.737
 4626POPC   GL159233   8.717  33.927   6.109
 4626POPC   GL259234   9.045  33.928   5.955
 4626POPC   C1A59235   8.936  34.185   6.405
 4626POPC   D2A59236   9.245  34.110   6.696
 4626POPC   C3A59237   9.066  33.879   7.019
 4626POPC   C4A59238   8.775  33.792   7.320
 4626POPC   C1B59239   9.315  33.816   6.292
 4626POPC   C2B59240   9.402  33.542   6.673
 4626POPC   C3B59241   9.254  33.421   7.089
 4626POPC   C4B59242   9.262  33.625   7.482
 4627POPC   NC359243  25.364  14.859   5.440
 4627POPC   PO459244  25.236  14.104   5.336
 4627POPC   GL159245  25.209  14.332   5.713
 4627POPC   GL259246  24.898  14.163   5.766
 4627POPC   C1A59247  25.440  14.519   6.062
 4627POPC   D2A59248  25.462  14.362   6.483
 4627POPC   C3A59249  25.340  14.689   6.769
 4627POPC   C4A59250  25.383  14.644   7.220
 4627POPC   C1B59251  24.936  14.436   6.155
 4627POPC   C2B59252  24.961  14.354   6.593
 4627POPC   C3B59253  25.166  14.252   6.984
 4627POPC   C4B59254  24.937  14.300   7.372
 4628POPC   NC359255  38.373   1.498   5.341
 4628POPC   PO459256  38.726   0.947   5.185
 4628POPC   GL159257  38.510   1.061   5.643
 4628POPC   GL259258  38.643   0.964   5.938
 4628POPC   C1A59259  38.329   1.337   5.981
 4628POPC   D2A59260  38.336   1.223   6.427
 4628POPC   C3A59261  38.287   1.361   6.880
 4628POPC   C4A59262  38.366   1.413   7.350
 4628POPC   C1B59263  38.636   0.799   6.346
 4628POPC   C2B59264  38.552   0.913   6.783
 4628POPC   C3B59265  38.469   0.931   7.219
 4628POPC   C4B59266  38.687   1.016   7.601
 4629POPC   NC359267   6.612  28.068   5.345
 4629POPC   PO459268   6.911  28.617   5.135
 4629POPC   GL159269   6.576  28.442   5.655
 4629POPC   GL259270   6.724  28.117   5.838
 4629POPC   C1A59271   6.478  28.439   6.130
 4629POPC   D2A59272   6.618  28.443   6.582
 4629POPC   C3A59273   6.417  28.670   6.896
 4629POPC   C4A59274   6.509  28.429   7.250
 4629POPC   C1B59275   6.945  28.223   6.244
 4629POPC   C2B59276   7.134  28.496   6.583
 4629POPC   C3B59277   7.027  28.440   6.996
 4629POPC   C4B59278   6.973  28.453   7.427
 4630POPC   NC359279  36.069   3.853   5.390
 4630POPC   PO459280  36.245   3.182   5.399
 4630POPC   GL159281  36.153   3.459   5.769
 4630POPC   GL259282  35.946   3.758   5.858
 4630POPC   C1A59283  36.266   3.570   6.228
 4630POPC   D2A59284  36.120   3.397   6.605
 4630POPC   C3A59285  36.205   3.418   7.039
 4630POPC   C4A59286  36.199   3.759   7.294
 4630POPC   C1B59287  35.777   3.487   6.137
 4630POPC   C2B59288  35.736   3.756   6.482
 4630POPC   C3B59289  35.581   3.686   6.872
 4630POPC   C4B59290  35.733   3.486   7.243
 4631POPC   NC359291   6.445  43.234   5.135
 4631POPC   PO459292   6.839  42.994   5.645
 4631POPC   GL159293   6.687  43.164   5.975
 4631POPC   GL259294   6.517  43.457   5.807
 4631POPC   C1A59295   6.874  43.010   6.374
 4631POPC   D2A59296   7.166  43.047   6.735
 4631POPC   C3A59297   6.912  43.197   7.079
 4631POPC   C4A59298   6.608  42.880   7.075
 4631POPC   C1B59299   6.318  43.405   6.224
 4631POPC   C2B59300   6.438  43.211   6.616
 4631POPC   C3B59301   6.412  43.377   7.020
 4631POPC   C4B59302   6.429  43.245   7.449
 4632POPC   NC359303  17.995  37.935   5.657
 4632POPC   PO459304  18.479  38.375   5.420
 4632POPC   GL159305  18.393  38.442   5.851
 4632POPC   GL259306  18.022  38.465   5.900
 4632POPC   C1A59307  18.431  38.575   6.268
 4632POPC   D2A59308  18.415  38.440   6.680
 4632POPC   C3A59309  18.196  38.611   7.009
 4632POPC   C4A59310  18.535  38.489   7.262
 4632POPC   C1B59311  17.794  38.282   6.258
 4632POPC   C2B59312  17.862  38.334   6.701
 4632POPC   C3B59313  17.993  38.094   7.065
 4632POPC   C4B59314  18.105  38.268   7.435
 4633POPC   NC359315  20.933  39.011   5.136
 4633POPC   PO459316  20.480  39.272   5.564
 4633POPC   GL159317  20.698  39.185   5.903
 4633POPC   GL259318  20.395  38.973   5.988
 4633POPC   C1A59319  20.820  38.987   6.273
 4633POPC   D2A59320  20.810  39.222   6.628
 4633POPC   C3A59321  20.776  39.027   7.007
 4633POPC   C4A59322  20.724  39.151   7.410
 4633POPC   C1B59323  20.277  39.220   6.279
 4633POPC   C2B59324  20.265  39.430   6.655
 4633POPC   C3B59325  20.333  39.350   7.082
 4633POPC   C4B59326  20.249  38.982   7.297
 4634POPC   NC359327  12.139   0.907   5.425
 4634POPC   PO459328  12.418   0.244   5.403
 4634POPC   GL159329  12.106   0.360   5.749
 4634POPC   GL259330  11.834   0.618   5.751
 4634POPC   C1A59331  11.871   0.274   6.169
 4634POPC   D2A59332  11.694   0.288   6.603
 4634POPC   C3A59333  11.902   0.328   7.000
 4634POPC   C4A59334  12.033   0.454   7.451
 4634POPC   C1B59335  12.072   0.758   6.135
 4634POPC   C2B59336  12.103   0.740   6.603
 4634POPC   C3B59337  12.070   0.821   7.067
 4634POPC   C4B59338  12.147   0.966   7.493
 4635POPC   NC359339  38.631  21.867   5.435
 4635POPC   PO459340  38.322  22.477   5.224
 4635POPC   GL159341  38.477  22.273   5.692
 4635POPC   GL259342  38.423  21.911   5.889
 4635POPC   C1A59343  38.549  22.334   6.163
 4635POPC   D2A59344  38.692  22.321   6.604
 4635POPC   C3A59345  38.345  22.165   6.871
 4635POPC   C4A59346  38.109  22.340   7.186
 4635POPC   C1B59347  38.802  21.890   6.170
 4635POPC   C2B59348  38.894  21.741   6.597
 4635POPC   C3B59349  38.784  21.955   7.002
 4635POPC   C4B59350  38.436  21.798   7.254
 4636POPC   NC359351  37.855  35.300   5.657
 4636POPC   PO459352  38.437  35.210   5.236
 4636POPC   GL159353  38.384  35.353   5.678
 4636POPC   GL259354  38.568  35.110   5.864
 4636POPC   C1A59355  38.331  35.424   6.178
 4636POPC   D2A59356  38.504  35.500   6.639
 4636POPC   C3A59357  38.200  35.515   7.047
 4636POPC   C4A59358  37.842  35.669   7.329
 4636POPC   C1B59359  38.685  34.896   6.257
 4636POPC   C2B59360  38.760  35.009   6.683
 4636POPC   C3B59361  38.582  35.177   7.051
 4636POPC   C4B59362  38.319  35.033   7.421
 4637POPC   NC359363  41.960  41.869   5.331
 4637POPC   PO459364  42.476  41.329   5.349
 4637POPC   GL159365  42.395  41.426   5.790
 4637POPC   GL259366  42.588  41.127   5.849
 4637POPC   C1A59367  42.183  41.424   6.221
 4637POPC   D2A59368  42.034  41.349   6.673
 4637POPC   C3A59369  42.163  41.607   7.037
 4637POPC   C4A59370  42.489  41.859   7.142
 4637POPC   C1B59371  42.712  41.410   6.199
 4637POPC   C2B59372  42.535  41.577   6.599
 4637POPC   C3B59373  42.580  41.342   6.957
 4637POPC   C4B59374  42.588  41.202   7.337
 4638POPC   NC359375  38.241  32.069   5.555
 4638POPC   PO459376  37.565  32.149   5.375
 4638POPC   GL159377  37.565  32.197   5.831
 4638POPC   GL259378  37.900  32.255   5.896
 4638POPC   C1A59379  37.553  32.288   6.268
 4638POPC   D2A59380  37.836  32.276   6.601
 4638POPC   C3A59381  37.662  32.446   6.960
 4638POPC   C4A59382  37.798  32.517   7.360
 4638POPC   C1B59383  38.011  31.937   6.170
 4638POPC   C2B59384  38.061  31.814   6.565
 4638POPC   C3B59385  38.081  31.975   6.970
 4638POPC   C4B59386  37.714  32.001   7.199
 4639POPC   NC359387   3.806  35.949   5.372
 4639POPC   PO459388   3.134  36.086   5.509
 4639POPC   GL159389   3.455  36.172   5.872
 4639POPC   GL259390   3.831  36.166   5.825
 4639POPC   C1A59391   3.360  36.238   6.326
 4639POPC   D2A59392   3.370  36.342   6.776
 4639POPC   C3A59393   3.447  35.952   6.962
 4639POPC   C4A59394   3.508  35.955   7.379
 4639POPC   C1B59395   3.970  35.957   6.196
 4639POPC   C2B59396   3.795  36.100   6.592
 4639POPC   C3B59397   3.879  36.244   7.008
 4639POPC   C4B59398   4.025  35.910   7.260
 4640POPC   NC359399  23.296  43.357   5.208
 4640POPC   PO459400  22.750  43.117   5.522
 4640POPC   GL159401  22.926  43.061   5.901
 4640POPC   GL259402  23.237  43.229   5.811
 4640POPC   C1A59403  23.019  43.269   6.265
 4640POPC   D2A59404  22.847  43.275   6.638
 4640POPC   C3A59405  23.078  43.242   6.982
 4640POPC   C4A59406  22.950  42.958   7.264
 4640POPC   C1B59407  23.334  42.867   6.143
 4640POPC   C2B59408  23.278  42.923   6.588
 4640POPC   C3B59409  23.376  42.749   6.978
 4640POPC   C4B59410  23.514  43.006   7.278
 4641POPC   NC359411  30.836   3.604   5.453
 4641POPC   PO459412  30.340   3.950   5.778
 4641POPC   GL159413  30.644   3.694   5.981
 4641POPC   GL259414  30.657   3.354   5.853
 4641POPC   C1A59415  30.631   3.774   6.424
 4641POPC   D2A59416  30.375   3.507   6.717
 4641POPC   C3A59417  30.525   3.546   7.129
 4641POPC   C4A59418  30.907   3.781   7.133
 4641POPC   C1B59419  30.783   3.284   6.295
 4641POPC   C2B59420  30.944   3.470   6.687
 4641POPC   C3B59421  31.035   3.288   7.036
 4641POPC   C4B59422  30.846   3.236   7.369
 4642POPC   NC359423   4.637  38.480   5.551
 4642POPC   PO459424   3.974  38.436   5.622
 4642POPC   GL159425   4.262  38.592   5.980
 4642POPC   GL259426   4.621  38.466   6.048
 4642POPC   C1A59427   4.342  38.581   6.451
 4642POPC   D2A59428   4.209  38.441   6.856
 4642POPC   C3A59429   4.265  38.709   7.192
 4642POPC   C4A59430   4.431  38.641   7.602
 4642POPC   C1B59431   4.658  38.073   6.275
 4642POPC   C2B59432   4.708  38.054   6.722
 4642POPC   C3B59433   4.652  38.342   7.094
 4642POPC   C4B59434   4.779  38.765   7.214
 4643POPC   NC359435  15.580  13.948   5.485
 4643POPC   PO459436  14.841  13.703   5.410
 4643POPC   GL159437  15.112  13.653   5.766
 4643POPC   GL259438  14.845  13.563   5.971
 4643POPC   C1A59439  15.309  13.550   6.197
 4643POPC   D2A59440  15.231  13.363   6.622
 4643POPC   C3A59441  15.146  13.608   6.995
 4643POPC   C4A59442  14.838  13.597   7.322
 4643POPC   C1B59443  14.928  14.007   6.148
 4643POPC   C2B59444  14.919  14.286   6.532
 4643POPC   C3B59445  14.925  14.078   6.942
 4643POPC   C4B59446  14.651  14.064   7.293
 4644POPC   NC359447  24.011  17.208   5.509
 4644POPC   PO459448  23.760  17.616   5.153
 4644POPC   GL159449  23.731  17.563   5.704
 4644POPC   GL259450  23.818  17.287   5.976
 4644POPC   C1A59451  23.702  17.752   6.116
 4644POPC   D2A59452  23.844  17.550   6.479
 4644POPC   C3A59453  23.615  17.586   6.841
 4644POPC   C4A59454  23.629  17.277   7.142
 4644POPC   C1B59455  24.045  17.092   6.328
 4644POPC   C2B59456  24.246  17.249   6.674
 4644POPC   C3B59457  24.105  17.486   7.027
 4644POPC   C4B59458  24.066  17.599   7.461
 4645POPC   NC359459  37.654  32.632   5.588
 4645POPC   PO459460  37.868  33.163   5.272
 4645POPC   GL159461  37.734  33.204   5.724
 4645POPC   GL259462  37.949  33.474   5.771
 4645POPC   C1A59463  37.614  33.014   6.165
 4645POPC   D2A59464  37.737  32.781   6.569
 4645POPC   C3A59465  37.734  32.971   7.009
 4645POPC   C4A59466  37.537  32.974   7.427
 4645POPC   C1B59467  38.015  33.336   6.183
 4645POPC   C2B59468  37.911  33.279   6.608
 4645POPC   C3B59469  38.117  33.313   7.022
 4645POPC   C4B59470  37.871  33.325   7.417
 4646POPC   NC359471  16.701  30.309   5.422
 4646POPC   PO459472  16.397  29.711   5.248
 4646POPC   GL159473  16.640  29.823   5.653
 4646POPC   GL259474  16.466  30.065   5.802
 4646POPC   C1A59475  16.846  29.792   6.089
 4646POPC   D2A59476  16.886  29.984   6.524
 4646POPC   C3A59477  16.690  29.772   6.841
 4646POPC   C4A59478  16.820  29.796   7.217
 4646POPC   C1B59479  16.548  30.205   6.206
 4646POPC   C2B59480  16.408  30.166   6.626
 4646POPC   C3B59481  16.527  30.262   7.062
 4646POPC   C4B59482  16.398  30.089   7.455
 4647POPC   NC359483  29.016   0.881   5.269
 4647POPC   PO459484  29.131   0.187   5.200
 4647POPC   GL159485  29.078   0.451   5.593
 4647POPC   GL259486  29.402   0.383   5.771
 4647POPC   C1A59487  28.937   0.540   6.048
 4647POPC   D2A59488  29.018   0.699   6.479
 4647POPC   C3A59489  28.991   0.439   6.871
 4647POPC   C4A59490  28.887   0.666   7.258
 4647POPC   C1B59491  29.452   0.568   6.201
 4647POPC   C2B59492  29.459   0.492   6.644
 4647POPC   C3B59493  29.383   0.827   6.921
 4647POPC   C4B59494  29.344   0.922   7.358
 4648POPC   NC359495  37.342   3.214   5.760
 4648POPC   PO459496  37.848   2.838   5.447
 4648POPC   GL159497  37.680   2.602   5.814
 4648POPC   GL259498  37.337   2.702   5.867
 4648POPC   C1A59499  37.621   2.633   6.298
 4648POPC   D2A59500  37.580   2.505   6.745
 4648POPC   C3A59501  37.526   2.811   7.091
 4648POPC   C4A59502  37.871   3.069   7.184
 4648POPC   C1B59503  37.199   2.384   6.172
 4648POPC   C2B59504  37.047   2.424   6.609
 4648POPC   C3B59505  37.175   2.447   7.055
 4648POPC   C4B59506  37.312   2.469   7.479
 4649POPC   NC359507  28.425   6.193   5.515
 4649POPC   PO459508  28.533   5.548   5.329
 4649POPC   GL159509  28.392   5.717   5.760
 4649POPC   GL259510  28.075   5.927   5.784
 4649POPC   C1A59511  28.523   5.986   6.130
 4649POPC   D2A59512  28.428   5.952   6.561
 4649POPC   C3A59513  28.564   6.113   6.961
 4649POPC   C4A59514  28.411   5.953   7.372
 4649POPC   C1B59515  27.998   5.871   6.217
 4649POPC   C2B59516  27.953   6.115   6.580
 4649POPC   C3B59517  28.051   6.083   6.979
 4649POPC   C4B59518  27.906   5.865   7.293
 4650POPC   NC359519  17.622  24.806   5.486
 4650POPC   PO459520  17.181  24.321   5.170
 4650POPC   GL159521  17.243  24.363   5.716
 4650POPC   GL259522  17.586  24.422   5.820
 4650POPC   C1A59523  17.361  24.258   6.221
 4650POPC   D2A59524  17.761  24.278   6.501
 4650POPC   C3A59525  17.637  24.413   6.940
 4650POPC   C4A59526  17.306  24.438   7.265
 4650POPC   C1B59527  17.526  24.726   6.129
 4650POPC   C2B59528  17.567  24.750   6.543
 4650POPC   C3B59529  17.534  24.939   6.906
 4650POPC   C4B59530  17.594  24.840   7.279
 4651POPC   NC359531  17.857   8.247   5.381
 4651POPC   PO459532  18.448   7.859   5.372
 4651POPC   GL159533  18.291   8.166   5.687
 4651POPC   GL259534  18.020   7.959   5.793
 4651POPC   C1A59535  18.247   8.346   6.121
 4651POPC   D2A59536  18.276   8.191   6.560
 4651POPC   C3A59537  18.166   8.397   6.933
 4651POPC   C4A59538  18.332   8.396   7.275
 4651POPC   C1B59539  17.900   7.991   6.230
 4651POPC   C2B59540  17.919   7.784   6.671
 4651POPC   C3B59541  17.933   7.854   7.134
 4651POPC   C4B59542  17.898   7.695   7.580
 4652POPC   NC359543  38.175  26.092   5.184
 4652POPC   PO459544  38.825  25.870   5.271
 4652POPC   GL159545  38.681  26.066   5.648
 4652POPC   GL259546  38.335  26.112   5.668
 4652POPC   C1A59547  38.710  25.954   6.101
 4652POPC   D2A59548  38.895  25.976   6.519
 4652POPC   C3A59549  38.621  25.976   6.810
 4652POPC   C4A59550  38.588  25.877   7.220
 4652POPC   C1B59551  38.257  26.239   6.089
 4652POPC   C2B59552  38.167  26.116   6.540
 4652POPC   C3B59553  38.249  26.261   6.985
 4652POPC   C4B59554  38.135  26.267   7.416
 4653POPC   NC359555  41.533   0.681   5.443
 4653POPC   PO459556  41.831   0.103   5.192
 4653POPC   GL159557  41.757   0.150   5.680
 4653POPC   GL259558  41.654   0.482   5.886
 4653POPC   C1A59559  41.942   0.153   6.120
 4653POPC   D2A59560  41.717   0.323   6.461
 4653POPC   C3A59561  41.846   0.414   6.860
 4653POPC   C4A59562  41.669   0.276   7.234
 4653POPC   C1B59563  41.435   0.684   6.256
 4653POPC   C2B59564  41.549   0.784   6.668
 4653POPC   C3B59565  41.499   0.734   7.082
 4653POPC   C4B59566  41.528   0.693   7.499
 4654POPC   NC359567   1.519  38.219   5.320
 4654POPC   PO459568   1.050  38.689   5.519
 4654POPC   GL159569   1.307  38.372   5.778
 4654POPC   GL259570   1.179  38.582   6.045
 4654POPC   C1A59571   1.478  38.212   6.206
 4654POPC   D2A59572   1.211  38.409   6.525
 4654POPC   C3A59573   1.232  38.515   6.933
 4654POPC   C4A59574   1.479  38.415   7.280
 4654POPC   C1B59575   0.928  38.840   6.364
 4654POPC   C2B59576   0.703  38.824   6.750
 4654POPC   C3B59577   0.770  38.933   7.177
 4654POPC   C4B59578   1.014  38.647   7.373
 4655POPC   NC359579  31.663  18.483   5.441
 4655POPC   PO459580  31.054  18.189   5.361
 4655POPC   GL159581  31.157  18.415   5.795
 4655POPC   GL259582  31.465  18.565   5.904
 4655POPC   C1A59583  31.173  18.305   6.254
 4655POPC   D2A59584  31.447  18.185   6.618
 4655POPC   C3A59585  31.470  18.371   7.014
 4655POPC   C4A59586  31.434  18.039   7.298
 4655POPC   C1B59587  31.661  18.483   6.267
 4655POPC   C2B59588  31.800  18.631   6.656
 4655POPC   C3B59589  32.028  18.586   7.004
 4655POPC   C4B59590  31.930  18.299   7.297
 4656POPC   NC359591  39.034  38.699   5.483
 4656POPC   PO459592  39.414  38.198   5.594
 4656POPC   GL159593  39.331  38.444   5.911
 4656POPC   GL259594  38.983  38.373   5.902
 4656POPC   C1A59595  39.284  38.316   6.328
 4656POPC   D2A59596  39.129  38.120   6.663
 4656POPC   C3A59597  39.277  38.257   7.033
 4656POPC   C4A59598  39.439  38.653   7.140
 4656POPC   C1B59599  39.022  38.733   6.228
 4656POPC   C2B59600  39.198  38.744   6.681
 4656POPC   C3B59601  38.935  38.709   7.091
 4656POPC   C4B59602  38.835  38.848   7.537
 4657POPC   NC359603  26.910   3.671   5.451
 4657POPC   PO459604  26.606   3.047   5.386
 4657POPC   GL159605  26.677   3.286   5.824
 4657POPC   GL259606  26.885   3.586   5.925
 4657POPC   C1A59607  26.586   3.449   6.294
 4657POPC   D2A59608  26.779   3.345   6.684
 4657POPC   C3A59609  26.609   3.413   7.093
 4657POPC   C4A59610  26.486   3.474   7.515
 4657POPC   C1B59611  27.003   3.912   6.166
 4657POPC   C2B59612  27.103   3.766   6.560
 4657POPC   C3B59613  27.183   3.713   6.964
 4657POPC   C4B59614  27.041   3.529   7.311
 4658POPC   NC359615  37.272  41.391   5.380
 4658POPC   PO459616  37.951  41.627   5.534
 4658POPC   GL159617  37.606  41.669   5.788
 4658POPC   GL259618  37.579  41.325   5.782
 4658POPC   C1A59619  37.528  41.761   6.237
 4658POPC   D2A59620  37.815  41.677   6.604
 4658POPC   C3A59621  37.720  41.836   7.023
 4658POPC   C4A59622  37.312  41.833   7.166
 4658POPC   C1B59623  37.853  41.366   6.158
 4658POPC   C2B59624  37.966  41.178   6.544
 4658POPC   C3B59625  37.792  41.306   6.960
 4658POPC   C4B59626  37.583  41.316   7.379
 4659POPC   NC359627  29.227  17.007   5.315
 4659POPC   PO459628  29.588  16.372   5.263
 4659POPC   GL159629  29.324  16.573   5.646
 4659POPC   GL259630  28.944  16.561   5.689
 4659POPC   C1A59631  29.398  16.732   6.100
 4659POPC   D2A59632  29.213  17.007   6.459
 4659POPC   C3A59633  29.331  16.953   6.902
 4659POPC   C4A59634  29.389  16.571   7.152
 4659POPC   C1B59635  28.883  16.719   6.145
 4659POPC   C2B59636  28.858  16.549   6.576
 4659POPC   C3B59637  28.900  16.664   6.994
 4659POPC   C4B59638  28.881  16.580   7.444
 4660POPC   NC359639  20.396  20.855   5.495
 4660POPC   PO459640  20.792  20.339   5.745
 4660POPC   GL159641  20.680  20.737   5.923
 4660POPC   GL259642  20.357  20.728   5.986
 4660POPC   C1A59643  20.665  20.981   6.311
 4660POPC   D2A59644  20.624  20.968   6.750
 4660POPC   C3A59645  20.674  20.571   6.897
 4660POPC   C4A59646  20.749  20.614   7.320
 4660POPC   C1B59647  20.436  20.477   6.356
 4660POPC   C2B59648  20.087  20.292   6.603
 4660POPC   C3B59649  19.884  20.273   7.000
 4660POPC   C4B59650  20.280  20.414   7.189
 4661POPC   NC359651  14.209  30.037   5.410
 4661POPC   PO459652  14.746  29.983   5.015
 4661POPC   GL159653  14.641  29.812   5.566
 4661POPC   GL259654  14.266  29.692   5.747
 4661POPC   C1A59655  14.557  29.955   6.061
 4661POPC   D2A59656  14.267  30.084   6.417
 4661POPC   C3A59657  14.279  30.011   6.869
 4661POPC   C4A59658  14.312  30.196   7.295
 4661POPC   C1B59659  14.310  29.509   6.142
 4661POPC   C2B59660  14.253  29.587   6.555
 4661POPC   C3B59661  14.280  29.439   6.946
 4661POPC   C4B59662  14.209  29.674   7.305
 4662POPC   NC359663  30.822  25.345   5.321
 4662POPC   PO459664  30.401  25.873   5.451
 4662POPC   GL159665  30.516  25.508   5.794
 4662POPC   GL259666  30.683  25.178   5.795
 4662POPC   C1A59667  30.632  25.403   6.259
 4662POPC   D2A59668  30.460  25.508   6.667
 4662POPC   C3A59669  30.565  25.325   7.051
 4662POPC   C4A59670  30.528  25.586   7.385
 4662POPC   C1B59671  31.017  25.109   6.113
 4662POPC   C2B59672  31.141  25.254   6.540
 4662POPC   C3B59673  31.157  25.070   6.951
 4662POPC   C4B59674  30.852  24.908   7.233
 4663POPC   NC359675  34.141  34.638   5.445
 4663POPC   PO459676  33.509  34.303   5.531
 4663POPC   GL159677  33.848  34.399   5.807
 4663POPC   GL259678  33.859  34.778   5.852
 4663POPC   C1A59679  33.932  34.455   6.239
 4663POPC   D2A59680  33.906  34.298   6.649
 4663POPC   C3A59681  33.635  34.429   6.990
 4663POPC   C4A59682  33.630  34.322   7.392
 4663POPC   C1B59683  34.121  34.933   6.202
 4663POPC   C2B59684  34.228  34.702   6.588
 4663POPC   C3B59685  33.977  34.785   6.946
 4663POPC   C4B59686  33.925  35.151   7.168
 4664POPC   NC359687  44.380  41.207   5.565
 4664POPC   PO459688  44.556  40.580   5.431
 4664POPC   GL159689  44.638  40.798   5.784
 4664POPC   GL259690  44.951  40.681   5.854
 4664POPC   C1A59691  44.573  40.960   6.203
 4664POPC   D2A59692  44.566  41.044   6.637
 4664POPC   C3A59693  44.532  40.733   6.963
 4664POPC   C4A59694  44.595  40.844   7.356
 4664POPC   C1B59695   0.095  40.975   6.167
 4664POPC   C2B59696   0.076  41.054   6.582
 4664POPC   C3B59697  44.977  40.992   6.988
 4664POPC   C4B59698   0.003  40.628   7.198
 4665POPC   NC359699   2.969  44.505   5.658
 4665POPC   PO459700   2.986  43.971   5.201
 4665POPC   GL159701   2.770  43.755   5.609
 4665POPC   GL259702   2.784  44.045   5.812
 4665POPC   C1A59703   2.714  43.638   6.090
 4665POPC   D2A59704   2.953  43.759   6.498
 4665POPC   C3A59705   2.834  43.848   6.942
 4665POPC   C4A59706   3.147  43.840   7.286
 4665POPC   C1B59707   2.837  44.186   6.230
 4665POPC   C2B59708   2.604  44.187   6.606
 4665POPC   C3B59709   2.562  44.303   7.012
 4665POPC   C4B59710   2.585  44.086   7.366
 4666POPC   NC359711  26.295  44.417   5.045
 4666POPC   PO459712  26.046  43.875   5.433
 4666POPC   GL159713  26.018  43.775   5.857
 4666POPC   GL259714  25.673  43.813   5.813
 4666POPC   C1A59715  26.071  43.884   6.280
 4666POPC   D2A59716  25.910  43.950   6.686
 4666POPC   C3A59717  26.189  44.078   7.014
 4666POPC   C4A59718  26.045  44.039   7.431
 4666POPC   C1B59719  25.596  43.569   6.164
 4666POPC   C2B59720  25.695  43.489   6.581
 4666POPC   C3B59721  25.538  43.693   6.928
 4666POPC   C4B59722  25.615  43.784   7.323
 4667POPC   NC359723  15.653  19.988   5.421
 4667POPC   PO459724  15.831  19.373   5.584
 4667POPC   GL159725  16.032  19.733   5.770
 4667POPC   GL259726  15.717  19.815   5.923
 4667POPC   C1A59727  16.135  20.029   6.140
 4667POPC   D2A59728  15.904  20.016   6.512
 4667POPC   C3A59729  16.143  19.989   6.860
 4667POPC   C4A59730  16.237  20.055   7.246
 4667POPC   C1B59731  15.930  19.565   6.263
 4667POPC   C2B59732  16.014  19.519   6.720
 4667POPC   C3B59733  15.816  19.651   7.100
 4667POPC   C4B59734  15.573  19.429   7.416
 4668POPC   NC359735  33.558   1.369   5.409
 4668POPC   PO459736  33.952   0.852   5.450
 4668POPC   GL159737  33.724   1.072   5.837
 4668POPC   GL259738  33.637   1.462   5.902
 4668POPC   C1A59739  33.779   1.202   6.307
 4668POPC   D2A59740  33.816   1.296   6.758
 4668POPC   C3A59741  33.598   1.040   7.083
 4668POPC   C4A59742  33.885   1.219   7.385
 4668POPC   C1B59743  33.508   1.651   6.309
 4668POPC   C2B59744  33.429   1.634   6.755
 4668POPC   C3B59745  33.571   1.538   7.164
 4668POPC   C4B59746  33.618   1.531   7.678
 4669POPC   NC359747  29.565   0.050   5.366
 4669POPC   PO459748  30.033   0.535   5.457
 4669POPC   GL159749  30.061   0.255   5.782
 4669POPC   GL259750  29.897   0.503   5.975
 4669POPC   C1A59751  30.230   0.212   6.221
 4669POPC   D2A59752  29.945   0.403   6.532
 4669POPC   C3A59753  29.877   0.548   6.957
 4669POPC   C4A59754  29.844   0.861   7.249
 4669POPC   C1B59755  29.725   0.120   6.166
 4669POPC   C2B59756  29.761  44.920   6.595
 4669POPC   C3B59757  29.635   0.074   6.988
 4669POPC   C4B59758  29.413   0.408   7.199
 4670POPC   NC359759  31.172  43.508   5.493
 4670POPC   PO459760  31.435  44.108   5.461
 4670POPC   GL159761  31.454  43.834   5.849
 4670POPC   GL259762  31.789  43.676   5.938
 4670POPC   C1A59763  31.368  43.921   6.311
 4670POPC   D2A59764  31.265  43.732   6.729
 4670POPC   C3A59765  31.175  44.029   7.063
 4670POPC   C4A59766  31.335  44.040   7.489
 4670POPC   C1B59767  31.895  43.861   6.362
 4670POPC   C2B59768  31.754  43.955   6.809
 4670POPC   C3B59769  31.586  43.714   7.177
 4670POPC   C4B59770  31.653  43.674   7.636
 4671POPC   NC359771  18.990  14.045   5.449
 4671POPC   PO459772  19.098  14.711   5.421
 4671POPC   GL159773  18.970  14.460   5.787
 4671POPC   GL259774  18.617  14.612   5.831
 4671POPC   C1A59775  19.219  14.308   6.200
 4671POPC   D2A59776  19.479  14.327   6.635
 4671POPC   C3A59777  19.277  14.261   7.060
 4671POPC   C4A59778  19.156  14.098   7.478
 4671POPC   C1B59779  18.829  14.655   6.227
 4671POPC   C2B59780  19.010  14.558   6.608
 4671POPC   C3B59781  18.858  14.536   7.000
 4671POPC   C4B59782  19.154  14.745   7.242
 4672POPC   NC359783  39.310   3.690   5.417
 4672POPC   PO459784  38.722   3.324   5.453
 4672POPC   GL159785  39.055   3.397   5.765
 4672POPC   GL259786  39.067   3.756   5.875
 4672POPC   C1A59787  39.346   3.353   6.140
 4672POPC   D2A59788  39.578   3.512   6.508
 4672POPC   C3A59789  39.390   3.462   6.916
 4672POPC   C4A59790  39.466   3.353   7.328
 4672POPC   C1B59791  38.972   3.720   6.312
 4672POPC   C2B59792  38.999   3.769   6.770
 4672POPC   C3B59793  39.056   3.774   7.233
 4672POPC   C4B59794  38.899   3.909   7.678
 4673POPC   NC359795  12.710  44.871   5.474
 4673POPC   PO459796  13.088  44.361   5.198
 4673POPC   GL159797  12.997  44.479   5.690
 4673POPC   GL259798  13.020  44.830   5.879
 4673POPC   C1A59799  12.926  44.451   6.180
 4673POPC   D2A59800  12.832  44.558   6.581
 4673POPC   C3A59801  12.935  44.327   6.919
 4673POPC   C4A59802  13.019  44.481   7.348
 4673POPC   C1B59803  12.798   0.001   6.287
 4673POPC   C2B59804  12.653   0.003   6.774
 4673POPC   C3B59805  12.815   0.009   7.201
 4673POPC   C4B59806  13.271  44.922   7.330
 4674POPC   NC359807   2.041  16.578   5.399
 4674POPC   PO459808   1.439  16.785   5.143
 4674POPC   GL159809   1.676  16.861   5.618
 4674POPC   GL259810   1.983  16.738   5.859
 4674POPC   C1A59811   1.580  16.911   6.107
 4674POPC   D2A59812   1.553  16.714   6.524
 4674POPC   C3A59813   1.751  16.944   6.850
 4674POPC   C4A59814   1.737  16.909   7.279
 4674POPC   C1B59815   2.250  16.554   6.206
 4674POPC   C2B59816   2.088  16.548   6.645
 4674POPC   C3B59817   2.146  16.676   7.071
 4674POPC   C4B59818   2.210  16.808   7.497
 4675POPC   NC359819   8.875  36.793   4.941
 4675POPC   PO459820   9.089  37.052   5.560
 4675POPC   GL159821   8.981  36.753   5.896
 4675POPC   GL259822   8.639  36.598   5.974
 4675POPC   C1A59823   9.006  36.787   6.340
 4675POPC   D2A59824   8.912  37.185   6.567
 4675POPC   C3A59825   8.995  37.084   6.972
 4675POPC   C4A59826   9.068  36.686   7.128
 4675POPC   C1B59827   8.525  36.921   6.291
 4675POPC   C2B59828   8.479  36.960   6.757
 4675POPC   C3B59829   8.574  36.782   7.139
 4675POPC   C4B59830   8.675  36.451   7.443
 4676POPC   NC359831  18.561  35.408   5.486
 4676POPC   PO459832  18.071  34.970   5.625
 4676POPC   GL159833  18.351  35.225   5.940
 4676POPC   GL259834  18.418  35.604   5.945
 4676POPC   C1A59835  18.622  35.207   6.321
 4676POPC   D2A59836  18.557  35.080   6.736
 4676POPC   C3A59837  18.579  35.291   7.118
 4676POPC   C4A59838  18.787  35.035   7.398
 4676POPC   C1B59839  18.349  35.645   6.377
 4676POPC   C2B59840  18.150  35.404   6.695
 4676POPC   C3B59841  18.075  35.295   7.122
 4676POPC   C4B59842  18.290  35.484   7.512
 4677POPC   NC359843  33.971   9.346   5.466
 4677POPC   PO459844  33.643   9.968   5.268
 4677POPC   GL159845  33.902   9.925   5.650
 4677POPC   GL259846  33.663  10.138   5.798
 4677POPC   C1A59847  33.933   9.699   6.066
 4677POPC   D2A59848  33.947   9.564   6.513
 4677POPC   C3A59849  33.718   9.622   6.886
 4677POPC   C4A59850  33.849   9.814   7.257
 4677POPC   C1B59851  33.581  10.038   6.231
 4677POPC   C2B59852  33.718  10.073   6.644
 4677POPC   C3B59853  33.481  10.071   7.017
 4677POPC   C4B59854  33.410   9.975   7.470
 4678POPC   NC359855  19.282   6.297   5.541
 4678POPC   PO459856  19.197   5.598   5.409
 4678POPC   GL159857  19.048   5.656   5.794
 4678POPC   GL259858  18.871   5.985   5.727
 4678POPC   C1A59859  18.864   5.727   6.172
 4678POPC   D2A59860  18.798   5.955   6.546
 4678POPC   C3A59861  18.961   5.765   6.917
 4678POPC   C4A59862  18.870   5.869   7.350
 4678POPC   C1B59863  18.954   6.229   6.134
 4678POPC   C2B59864  19.289   6.250   6.459
 4678POPC   C3B59865  19.357   6.404   6.874
 4678POPC   C4B59866  19.445   6.325   7.293
 4679POPC   NC359867   6.012  42.253   5.529
 4679POPC   PO459868   5.615  42.628   5.136
 4679POPC   GL159869   5.683  42.623   5.660
 4679POPC   GL259870   5.492  42.359   5.868
 4679POPC   C1A59871   5.902  42.567   6.109
 4679POPC   D2A59872   5.963  42.351   6.521
 4679POPC   C3A59873   5.672  42.427   6.901
 4679POPC   C4A59874   5.772  42.671   7.286
 4679POPC   C1B59875   5.785  42.039   6.119
 4679POPC   C2B59876   5.883  41.831   6.534
 4679POPC   C3B59877   5.998  42.017   6.920
 4679POPC   C4B59878   5.808  42.156   7.316
 4680POPC   NC359879  38.574   9.108   5.445
 4680POPC   PO459880  38.663   8.494   5.510
 4680POPC   GL159881  38.626   8.825   5.893
 4680POPC   GL259882  38.327   9.086   5.897
 4680POPC   C1A59883  38.636   8.875   6.398
 4680POPC   D2A59884  38.581   8.739   6.878
 4680POPC   C3A59885  38.369   8.993   7.220
 4680POPC   C4A59886  38.512   9.043   7.701
 4680POPC   C1B59887  38.401   9.357   6.271
 4680POPC   C2B59888  38.319   9.374   6.723
 4680POPC   C3B59889  38.146   9.494   7.121
 4680POPC   C4B59890  38.081   9.276   7.530
 4681POPC   NC359891  23.402  29.178   5.527
 4681POPC   PO459892  23.993  29.456   5.303
 4681POPC   GL159893  23.780  29.437   5.780
 4681POPC   GL259894  23.713  29.074   5.898
 4681POPC   C1A59895  23.707  29.401   6.274
 4681POPC   D2A59896  24.019  29.355   6.630
 4681POPC   C3A59897  23.856  29.312   7.060
 4681POPC   C4A59898  23.735  29.372   7.496
 4681POPC   C1B59899  23.591  28.834   6.275
 4681POPC   C2B59900  23.700  28.945   6.679
 4681POPC   C3B59901  23.779  28.791   7.070
 4681POPC   C4B59902  23.597  28.862   7.465
 4682POPC   NC359903   3.690  16.281   5.480
 4682POPC   PO459904   3.229  15.732   5.509
 4682POPC   GL159905   3.508  15.859   5.834
 4682POPC   GL259906   3.393  16.220   5.898
 4682POPC   C1A59907   3.333  15.817   6.250
 4682POPC   D2A59908   3.181  15.617   6.624
 4682POPC   C3A59909   3.375  15.836   6.984
 4682POPC   C4A59910   3.796  15.742   7.186
 4682POPC   C1B59911   3.668  16.218   6.271
 4682POPC   C2B59912   3.757  16.071   6.719
 4682POPC   C3B59913   3.834  16.267   7.156
 4682POPC   C4B59914   3.761  16.492   7.617
 4683POPC   NC359915  10.743  43.657   5.607
 4683POPC   PO459916  10.167  43.951   5.318
 4683POPC   GL159917  10.223  44.025   5.797
 4683POPC   GL259918  10.591  44.084   5.880
 4683POPC   C1A59919  10.264  43.926   6.265
 4683POPC   D2A59920  10.084  43.777   6.670
 4683POPC   C3A59921  10.256  43.748   7.109
 4683POPC   C4A59922  10.322  44.121   7.359
 4683POPC   C1B59923  10.750  44.103   6.305
 4683POPC   C2B59924  10.640  44.279   6.710
 4683POPC   C3B59925  10.746  44.290   7.157
 4683POPC   C4B59926  10.766  44.127   7.619
 4684POPC   NC359927  10.574  29.495   5.393
 4684POPC   PO459928  10.293  28.798   5.401
 4684POPC   GL159929  10.519  29.062   5.710
 4684POPC   GL259930  10.280  29.274   5.720
 4684POPC   C1A59931  10.772  29.227   6.083
 4684POPC   D2A59932  10.662  29.219   6.527
 4684POPC   C3A59933  10.752  29.355   6.960
 4684POPC   C4A59934  10.734  28.981   7.210
 4684POPC   C1B59935  10.276  29.342   6.154
 4684POPC   C2B59936  10.144  29.229   6.562
 4684POPC   C3B59937  10.312  29.088   6.906
 4684POPC   C4B59938  10.261  29.150   7.308
 4685POPC   NC359939  44.798  41.899   5.381
 4685POPC   PO459940  44.833  41.259   5.639
 4685POPC   GL159941  44.655  41.473   5.931
 4685POPC   GL259942  44.562  41.829   5.856
 4685POPC   C1A59943  44.796  41.431   6.348
 4685POPC   D2A59944   0.062  41.550   6.699
 4685POPC   C3A59945  44.736  41.461   6.944
 4685POPC   C4A59946  44.745  41.315   7.328
 4685POPC   C1B59947  44.339  41.687   6.245
 4685POPC   C2B59948  44.331  41.506   6.606
 4685POPC   C3B59949  44.292  41.748   6.910
 4685POPC   C4B59950  44.349  41.651   7.279
 4686POPC   NC359951  21.542   1.534   5.469
 4686POPC   PO459952  21.576   0.906   5.593
 4686POPC   GL159953  21.471   1.191   5.875
 4686POPC   GL259954  21.159   1.325   5.775
 4686POPC   C1A59955  21.524   1.116   6.295
 4686POPC   D2A59956  21.704   1.338   6.612
 4686POPC   C3A59957  21.765   1.050   6.923
 4686POPC   C4A59958  21.609   1.099   7.310
 4686POPC   C1B59959  21.033   1.180   6.214
 4686POPC   C2B59960  21.182   1.204   6.680
 4686POPC   C3B59961  21.092   1.123   7.134
 4686POPC   C4B59962  21.101   1.406   7.479
 4687POPC   NC359963  39.472  35.242   5.494
 4687POPC   PO459964  40.132  35.393   5.465
 4687POPC   GL159965  40.060  35.369   5.899
 4687POPC   GL259966  39.782  35.147   5.878
 4687POPC   C1A59967  40.112  35.465   6.353
 4687POPC   D2A59968  40.168  35.209   6.727
 4687POPC   C3A59969  40.306  35.348   7.131
 4687POPC   C4A59970  40.273  35.377   7.594
 4687POPC   C1B59971  39.748  35.076   6.295
 4687POPC   C2B59972  39.658  35.337   6.626
 4687POPC   C3B59973  39.773  35.423   7.017
 4687POPC   C4B59974  39.825  35.212   7.352
 4688POPC   NC359975  16.506   2.044   5.286
 4688POPC   PO459976  17.148   2.241   5.250
 4688POPC   GL159977  16.931   2.029   5.670
 4688POPC   GL259978  16.584   2.006   5.807
 4688POPC   C1A59979  16.982   1.977   6.153
 4688POPC   D2A59980  16.777   2.001   6.571
 4688POPC   C3A59981  16.902   1.972   7.001
 4688POPC   C4A59982  16.890   2.156   7.420
 4688POPC   C1B59983  16.463   2.189   6.205
 4688POPC   C2B59984  16.281   1.968   6.551
 4688POPC   C3B59985  16.434   1.784   6.922
 4688POPC   C4B59986  16.372   1.947   7.302
 4689POPC   NC359987  30.122   8.515   5.680
 4689POPC   PO459988  29.680   8.112   5.365
 4689POPC   GL159989  29.822   8.100   5.797
 4689POPC   GL259990  29.613   8.412   5.858
 4689POPC   C1A59991  29.979   8.187   6.254
 4689POPC   D2A59992  29.716   8.240   6.646
 4689POPC   C3A59993  29.873   8.161   7.063
 4689POPC   C4A59994  30.173   8.344   7.331
 4689POPC   C1B59995  29.688   8.607   6.263
 4689POPC   C2B59996  30.054   8.633   6.545
 4689POPC   C3B59997  29.988   8.673   6.985
 4689POPC   C4B59998  29.690   8.574   7.327
 4690POPC   NC359999   4.311   3.712   5.225
 4690POPC   PO460000   4.073   3.401   5.710
 4690POPC   GL160001   4.414   3.643   5.777
 4690POPC   GL260002   4.439   3.976   5.648
 4690POPC   C1A60003   4.541   3.539   6.174
 4690POPC   D2A60004   4.383   3.235   6.488
 4690POPC   C3A60005   4.326   3.390   6.889
 4690POPC   C4A60006   4.032   3.454   7.190
 4690POPC   C1B60007   4.359   4.020   6.116
 4690POPC   C2B60008   4.307   3.817   6.535
 4690POPC   C3B60009   4.205   3.891   6.951
 4690POPC   C4B60010   4.503   3.841   7.252
 4691POPC   NC360011  20.244   1.358   5.583
 4691POPC   PO460012  20.815   0.964   5.524
 4691POPC   GL160013  20.660   1.242   5.859
 4691POPC   GL260014  20.702   1.602   5.756
 4691POPC   C1A60015  20.528   1.127   6.280
 4691POPC   D2A60016  20.585   0.829   6.639
 4691POPC   C3A60017  20.449   1.068   7.004
 4691POPC   C4A60018  20.608   1.340   7.278
 4691POPC   C1B60019  20.785   1.650   6.194
 4691POPC   C2B60020  20.761   1.491   6.617
 4691POPC   C3B60021  20.938   1.627   6.996
 4691POPC   C4B60022  20.791   1.798   7.364
 4692POPC   NC360023  23.251  43.798   5.660
 4692POPC   PO460024  22.638  43.775   5.331
 4692POPC   GL160025  22.758  43.875   5.793
 4692POPC   GL260026  22.806  43.543   5.823
 4692POPC   C1A60027  22.999  43.780   6.232
 4692POPC   D2A60028  23.199  43.625   6.608
 4692POPC   C3A60029  23.015  43.770   6.975
 4692POPC   C4A60030  23.055  43.970   7.357
 4692POPC   C1B60031  22.547  43.543   6.189
 4692POPC   C2B60032  22.615  43.717   6.582
 4692POPC   C3B60033  22.541  43.595   6.991
 4692POPC   C4B60034  22.565  43.876   7.336
 4693POPC   NC360035  12.994  41.022   5.348
 4693POPC   PO460036  12.674  40.404   5.396
 4693POPC   GL160037  12.697  40.718   5.728
 4693POPC   GL260038  13.025  40.815   5.825
 4693POPC   C1A60039  12.717  40.608   6.173
 4693POPC   D2A60040  12.503  40.584   6.528
 4693POPC   C3A60041  12.671  40.558   6.915
 4693POPC   C4A60042  12.665  40.873   7.190
 4693POPC   C1B60043  13.004  41.048   6.198
 4693POPC   C2B60044  12.851  40.982   6.598
 4693POPC   C3B60045  13.101  40.873   6.936
 4693POPC   C4B60046  13.088  40.654   7.350
 4694POPC   NC360047   8.205  34.053   5.512
 4694POPC   PO460048   8.529  33.556   5.243
 4694POPC   GL160049   8.222  33.559   5.713
 4694POPC   GL260050   7.908  33.701   5.785
 4694POPC   C1A60051   8.184  33.775   6.201
 4694POPC   D2A60052   8.412  33.596   6.530
 4694POPC   C3A60053   8.537  33.867   6.866
 4694POPC   C4A60054   8.218  33.796   7.162
 4694POPC   C1B60055   7.967  33.340   6.096
 4694POPC   C2B60056   8.029  33.206   6.508
 4694POPC   C3B60057   8.183  33.319   6.901
 4694POPC   C4B60058   7.964  33.355   7.255
 4695POPC   NC360059  28.317  42.157   5.481
 4695POPC   PO460060  27.788  42.634   5.336
 4695POPC   GL160061  28.025  42.522   5.743
 4695POPC   GL260062  28.396  42.532   5.848
 4695POPC   C1A60063  28.090  42.260   6.145
 4695POPC   D2A60064  28.283  42.213   6.562
 4695POPC   C3A60065  28.152  42.060   6.951
 4695POPC   C4A60066  28.318  41.750   7.236
 4695POPC   C1B60067  28.505  42.589   6.303
 4695POPC   C2B60068  28.447  42.675   6.794
 4695POPC   C3B60069  28.456  42.631   7.282
 4695POPC   C4B60070  28.780  42.413   7.539
 4696POPC   NC360071  32.100  41.593   5.513
 4696POPC   PO460072  32.574  41.238   5.297
 4696POPC   GL160073  32.441  41.278   5.761
 4696POPC   GL260074  32.526  41.640   5.837
 4696POPC   C1A60075  32.216  41.449   6.177
 4696POPC   D2A60076  32.147  41.737   6.539
 4696POPC   C3A60077  32.286  41.594   6.948
 4696POPC   C4A60078  32.060  41.311   7.189
 4696POPC   C1B60079  32.567  41.899   6.241
 4696POPC   C2B60080  32.762  41.982   6.671
 4696POPC   C3B60081  32.703  41.865   7.128
 4696POPC   C4B60082  32.374  41.932   7.454
 4697POPC   NC360083  14.665  10.104   5.750
 4697POPC   PO460084  15.178   9.788   5.443
 4697POPC   GL160085  15.326   9.849   5.835
 4697POPC   GL260086  15.190  10.141   5.909
 4697POPC   C1A60087  15.459   9.709   6.256
 4697POPC   D2A60088  15.220   9.660   6.660
 4697POPC   C3A60089  15.390   9.648   7.069
 4697POPC   C4A60090  15.153   9.660   7.454
 4697POPC   C1B60091  14.987   9.911   6.262
 4697POPC   C2B60092  14.804  10.044   6.660
 4697POPC   C3B60093  14.922   9.904   7.065
 4697POPC   C4B60094  14.860  10.056   7.491
 4698POPC   NC360095  36.085  44.723   5.576
 4698POPC   PO460096  36.093  44.139   5.472
 4698POPC   GL160097  36.230  44.341   5.914
 4698POPC   GL260098  36.296  44.734   6.025
 4698POPC   C1A60099  36.168  44.392   6.369
 4698POPC   D2A60100  36.392  44.663   6.671
 4698POPC   C3A60101  36.380  44.436   7.050
 4698POPC   C4A60102  35.979  44.241   7.154
 4698POPC   C1B60103  35.968  44.873   6.304
 4698POPC   C2B60104  35.852  44.758   6.730
 4698POPC   C3B60105  36.105  44.861   7.117
 4698POPC   C4B60106  36.269   0.071   7.530
 4699POPC   NC360107  15.807  25.274   5.391
 4699POPC   PO460108  16.427  25.554   5.377
 4699POPC   GL160109  16.115  25.508   5.739
 4699POPC   GL260110  16.022  25.163   5.833
 4699POPC   C1A60111  16.119  25.477   6.208
 4699POPC   D2A60112  15.937  25.434   6.610
 4699POPC   C3A60113  16.119  25.312   6.981
 4699POPC   C4A60114  16.046  25.435   7.389
 4699POPC   C1B60115  15.814  24.950   6.181
 4699POPC   C2B60116  15.652  24.971   6.625
 4699POPC   C3B60117  15.793  24.919   7.058
 4699POPC   C4B60118  16.154  24.923   7.365
 4700POPC   NC360119  16.584   7.611   5.604
 4700POPC   PO460120  17.126   7.377   5.736
 4700POPC   GL160121  16.861   7.460   6.009
 4700POPC   GL260122  16.959   7.797   5.949
 4700POPC   C1A60123  16.535   7.524   6.307
 4700POPC   D2A60124  16.378   7.443   6.707
 4700POPC   C3A60125  16.627   7.262   7.032
 4700POPC   C4A60126  16.451   7.360   7.411
 4700POPC   C1B60127  16.972   7.767   6.388
 4700POPC   C2B60128  16.861   7.819   6.787
 4700POPC   C3B60129  16.983   7.860   7.216
 4700POPC   C4B60130  17.098   8.047   7.607
 4701POPC   NC360131   5.395   7.130   5.455
 4701POPC   PO460132   5.196   6.470   5.368
 4701POPC   GL160133   5.204   6.725   5.764
 4701POPC   GL260134   5.524   6.894   5.876
 4701POPC   C1A60135   4.852   6.789   6.074
 4701POPC   D2A60136   4.716   6.577   6.453
 4701POPC   C3A60137   4.859   6.700   6.841
 4701POPC   C4A60138   4.961   6.382   7.171
 4701POPC   C1B60139   5.331   6.706   6.257
 4701POPC   C2B60140   5.417   6.761   6.674
 4701POPC   C3B60141   5.309   6.725   7.068
 4701POPC   C4B60142   5.040   6.954   7.251
 4702POPC   NC360143   8.083  35.852   5.413
 4702POPC   PO460144   8.563  36.234   5.328
 4702POPC   GL160145   8.336  36.212   5.715
 4702POPC   GL260146   8.503  35.891   5.763
 4702POPC   C1A60147   8.044  36.090   6.096
 4702POPC   D2A60148   8.206  36.097   6.542
 4702POPC   C3A60149   8.050  35.891   6.897
 4702POPC   C4A60150   7.999  35.694   7.292
 4702POPC   C1B60151   8.557  36.125   6.167
 4702POPC   C2B60152   8.599  36.435   6.531
 4702POPC   C3B60153   8.464  36.309   6.962
 4702POPC   C4B60154   8.342  36.065   7.315
 4703POPC   NC360155  15.570   6.788   5.486
 4703POPC   PO460156  16.190   6.570   5.375
 4703POPC   GL160157  16.111   6.780   5.757
 4703POPC   GL260158  15.825   6.640   5.902
 4703POPC   C1A60159  16.234   6.682   6.196
 4703POPC   D2A60160  16.288   6.389   6.536
 4703POPC   C3A60161  16.243   6.617   6.899
 4703POPC   C4A60162  15.971   6.644   7.242
 4703POPC   C1B60163  15.828   6.364   6.268
 4703POPC   C2B60164  15.786   6.442   6.728
 4703POPC   C3B60165  15.510   6.638   7.028
 4703POPC   C4B60166  15.539   6.965   7.339
 4704POPC   NC360167  13.299  29.794   5.090
 4704POPC   PO460168  13.750  30.138   5.443
 4704POPC   GL160169  13.777  29.928   5.822
 4704POPC   GL260170  13.491  30.063   6.051
 4704POPC   C1A60171  13.870  29.825   6.246
 4704POPC   D2A60172  13.570  29.839   6.585
 4704POPC   C3A60173  13.789  29.890   6.984
 4704POPC   C4A60174  13.691  29.854   7.427
 4704POPC   C1B60175  13.234  30.311   6.314
 4704POPC   C2B60176  13.279  30.257   6.753
 4704POPC   C3B60177  13.430  30.213   7.148
 4704POPC   C4B60178  13.324  30.223   7.598
 4705POPC   NC360179  30.564  34.811   5.446
 4705POPC   PO460180  30.092  34.321   5.512
 4705POPC   GL160181  30.427  34.385   5.867
 4705POPC   GL260182  30.784  34.490   5.812
 4705POPC   C1A60183  30.515  34.618   6.260
 4705POPC   D2A60184  30.478  34.872   6.630
 4705POPC   C3A60185  30.548  34.634   6.994
 4705POPC   C4A60186  30.796  34.692   7.355
 4705POPC   C1B60187  30.888  34.279   6.232
 4705POPC   C2B60188  30.878  34.420   6.671
 4705POPC   C3B60189  30.860  34.239   7.118
 4705POPC   C4B60190  30.556  34.013   7.409
 4706POPC   NC360191  36.382  26.071   5.364
 4706POPC   PO460192  37.057  26.003   5.317
 4706POPC   GL160193  36.812  26.047   5.684
 4706POPC   GL260194  36.629  25.758   5.758
 4706POPC   C1A60195  36.845  26.045   6.157
 4706POPC   D2A60196  37.078  26.087   6.575
 4706POPC   C3A60197  37.032  25.726   6.892
 4706POPC   C4A60198  37.049  25.642   7.341
 4706POPC   C1B60199  36.430  25.739   6.161
 4706POPC   C2B60200  36.627  25.771   6.576
 4706POPC   C3B60201  36.549  25.849   7.050
 4706POPC   C4B60202  36.441  25.898   7.532
 4707POPC   NC360203  14.986  15.820   5.675
 4707POPC   PO460204  14.442  15.906   5.244
 4707POPC   GL160205  14.424  15.777   5.680
 4707POPC   GL260206  14.392  16.136   5.813
 4707POPC   C1A60207  14.411  15.730   6.129
 4707POPC   D2A60208  14.495  15.918   6.530
 4707POPC   C3A60209  14.415  15.711   6.939
 4707POPC   C4A60210  14.408  15.979   7.291
 4707POPC   C1B60211  14.721  16.174   6.135
 4707POPC   C2B60212  14.983  16.194   6.483
 4707POPC   C3B60213  14.782  16.202   6.868
 4707POPC   C4B60214  14.896  16.116   7.257
 4708POPC   NC360215  14.198  39.825   5.490
 4708POPC   PO460216  13.489  40.031   5.496
 4708POPC   GL160217  13.720  39.820   5.832
 4708POPC   GL260218  13.963  40.106   5.850
 4708POPC   C1A60219  13.418  39.703   6.205
 4708POPC   D2A60220  13.241  40.003   6.528
 4708POPC   C3A60221  13.190  39.800   6.928
 4708POPC   C4A60222  13.453  39.727   7.276
 4708POPC   C1B60223  13.633  40.160   6.180
 4708POPC   C2B60224  13.761  39.953   6.502
 4708POPC   C3B60225  13.738  39.949   6.916
 4708POPC   C4B60226  13.860  40.267   7.153
 4709POPC   NC360227  25.946   8.041   5.410
 4709POPC   PO460228  26.444   8.557   5.377
 4709POPC   GL160229  26.309   8.388   5.771
 4709POPC   GL260230  25.955   8.488   5.820
 4709POPC   C1A60231  26.184   8.274   6.217
 4709POPC   D2A60232  25.831   8.117   6.494
 4709POPC   C3A60233  25.930   8.151   6.922
 4709POPC   C4A60234  25.907   8.087   7.351
 4709POPC   C1B60235  25.672   8.572   6.177
 4709POPC   C2B60236  25.525   8.525   6.631
 4709POPC   C3B60237  25.736   8.605   7.041
 4709POPC   C4B60238  25.788   8.566   7.516
 4710POPC   NC360239  19.741  15.651   5.569
 4710POPC   PO460240  19.969  14.999   5.598
 4710POPC   GL160241  19.889  15.281   5.875
 4710POPC   GL260242  19.556  15.196   5.955
 4710POPC   C1A60243  19.864  15.420   6.285
 4710POPC   D2A60244  19.683  15.212   6.639
 4710POPC   C3A60245  19.846  15.340   7.040
 4710POPC   C4A60246  19.765  15.401   7.458
 4710POPC   C1B60247  19.783  14.904   6.218
 4710POPC   C2B60248  19.835  14.718   6.608
 4710POPC   C3B60249  19.697  14.844   6.994
 4710POPC   C4B60250  19.957  14.899   7.349
 4711POPC   NC360251  25.650   0.736   5.301
 4711POPC   PO460252  25.004   1.041   5.388
 4711POPC   GL160253  25.151   1.120   5.795
 4711POPC   GL260254  25.512   1.036   5.760
 4711POPC   C1A60255  25.299   1.357   6.155
 4711POPC   D2A60256  25.124   1.207   6.523
 4711POPC   C3A60257  25.157   1.374   6.905
 4711POPC   C4A60258  24.887   1.236   7.230
 4711POPC   C1B60259  25.707   1.039   6.177
 4711POPC   C2B60260  25.711   1.301   6.542
 4711POPC   C3B60261  25.624   1.167   6.960
 4711POPC   C4B60262  25.438   1.348   7.339
 4712POPC   NC360263   3.139   7.428   5.443
 4712POPC   PO460264   3.864   7.425   5.416
 4712POPC   GL160265   3.542   7.273   5.735
 4712POPC   GL260266   3.497   7.598   5.790
 4712POPC   C1A60267   3.327   7.183   6.179
 4712POPC   D2A60268   3.503   7.124   6.625
 4712POPC   C3A60269   3.267   6.958   6.995
 4712POPC   C4A60270   3.441   7.095   7.398
 4712POPC   C1B60271   3.476   7.656   6.236
 4712POPC   C2B60272   3.218   7.564   6.602
 4712POPC   C3B60273   3.385   7.473   7.019
 4712POPC   C4B60274   3.814   7.351   7.166
 4713POPC   NC360275  20.001  40.363   5.476
 4713POPC   PO460276  19.875  39.736   5.391
 4713POPC   GL160277  20.018  39.950   5.817
 4713POPC   GL260278  19.799  40.152   6.032
 4713POPC   C1A60279  20.110  39.816   6.286
 4713POPC   D2A60280  20.236  39.942   6.710
 4713POPC   C3A60281  19.929  40.006   7.013
 4713POPC   C4A60282  19.860  39.843   7.382
 4713POPC   C1B60283  19.605  39.897   6.358
 4713POPC   C2B60284  19.778  39.657   6.693
 4713POPC   C3B60285  19.544  39.590   7.029
 4713POPC   C4B60286  19.343  39.785   7.349
 4714POPC   NC360287  10.703  10.230   5.475
 4714POPC   PO460288  10.649   9.593   5.502
 4714POPC   GL160289  10.494   9.869   5.792
 4714POPC   GL260290  10.828   9.959   5.887
 4714POPC   C1A60291  10.409   9.921   6.234
 4714POPC   D2A60292  10.135   9.732   6.546
 4714POPC   C3A60293  10.291   9.669   6.946
 4714POPC   C4A60294  10.222   9.913   7.301
 4714POPC   C1B60295  10.781   9.556   6.137
 4714POPC   C2B60296  10.598   9.447   6.521
 4714POPC   C3B60297  10.781   9.553   6.905
 4714POPC   C4B60298  10.686   9.654   7.295
 4715POPC   NC360299  36.443  20.872   5.467
 4715POPC   PO460300  36.033  20.321   5.291
 4715POPC   GL160301  36.084  20.573   5.685
 4715POPC   GL260302  35.785  20.795   5.767
 4715POPC   C1A60303  36.292  20.568   6.118
 4715POPC   D2A60304  36.492  20.340   6.475
 4715POPC   C3A60305  36.387  20.487   6.859
 4715POPC   C4A60306  36.308  20.422   7.246
 4715POPC   C1B60307  35.795  20.467   6.110
 4715POPC   C2B60308  35.985  20.439   6.535
 4715POPC   C3B60309  35.905  20.605   6.957
 4715POPC   C4B60310  35.919  20.747   7.373
 4716POPC   NC360311  18.092  34.525   5.489
 4716POPC   PO460312  18.653  34.213   5.495
 4716POPC   GL160313  18.438  34.512   5.872
 4716POPC   GL260314  18.077  34.499   5.975
 4716POPC   C1A60315  18.290  34.811   6.290
 4716POPC   D2A60316  18.152  34.767   6.742
 4716POPC   C3A60317  18.344  34.844   7.176
 4716POPC   C4A60318  18.418  34.818   7.664
 4716POPC   C1B60319  18.052  34.346   6.391
 4716POPC   C2B60320  17.784  34.414   6.744
 4716POPC   C3B60321  17.867  34.599   7.142
 4716POPC   C4B60322  18.176  34.450   7.439
 4717POPC   NC360323  20.853  24.733   5.458
 4717POPC   PO460324  20.375  24.330   5.355
 4717POPC   GL160325  20.555  24.448   5.790
 4717POPC   GL260326  20.496  24.808   5.818
 4717POPC   C1A60327  20.786  24.424   6.220
 4717POPC   D2A60328  21.128  24.481   6.554
 4717POPC   C3A60329  20.880  24.332   6.897
 4717POPC   C4A60330  20.681  24.255   7.301
 4717POPC   C1B60331  20.703  24.929   6.186
 4717POPC   C2B60332  20.703  24.747   6.614
 4717POPC   C3B60333  20.496  24.671   7.029
 4717POPC   C4B60334  20.504  24.725   7.522
 4718POPC   NC360335  44.013  43.616   5.465
 4718POPC   PO460336  43.641  44.107   5.432
 4718POPC   GL160337  43.815  43.947   5.802
 4718POPC   GL260338  43.699  43.593   5.851
 4718POPC   C1A60339  43.977  44.157   6.168
 4718POPC   D2A60340  44.283  44.145   6.516
 4718POPC   C3A60341  44.096  44.099   6.912
 4718POPC   C4A60342  44.091  44.366   7.249
 4718POPC   C1B60343  43.612  43.779   6.228
 4718POPC   C2B60344  43.522  43.662   6.597
 4718POPC   C3B60345  43.631  43.847   7.001
 4718POPC   C4B60346  43.730  43.649   7.387
 4719POPC   NC360347  20.474   8.826   5.509
 4719POPC   PO460348  21.073   9.144   5.388
 4719POPC   GL160349  20.908   9.020   5.799
 4719POPC   GL260350  20.539   9.025   5.973
 4719POPC   C1A60351  20.913   8.737   6.123
 4719POPC   D2A60352  20.671   8.703   6.484
 4719POPC   C3A60353  20.705   8.949   6.840
 4719POPC   C4A60354  20.709   8.882   7.277
 4719POPC   C1B60355  20.374   9.122   6.386
 4719POPC   C2B60356  20.414   9.385   6.744
 4719POPC   C3B60357  20.573   9.372   7.176
 4719POPC   C4B60358  20.478   9.263   7.594
 4720POPC   NC360359  21.939   4.932   5.435
 4720POPC   PO460360  21.195   4.971   5.484
 4720POPC   GL160361  21.545   5.113   5.736
 4720POPC   GL260362  21.528   5.466   5.782
 4720POPC   C1A60363  21.653   5.145   6.175
 4720POPC   D2A60364  21.613   4.890   6.543
 4720POPC   C3A60365  21.617   5.116   6.917
 4720POPC   C4A60366  21.528   4.938   7.291
 4720POPC   C1B60367  21.382   5.599   6.175
 4720POPC   C2B60368  21.286   5.356   6.551
 4720POPC   C3B60369  21.106   5.332   6.974
 4720POPC   C4B60370  21.168   5.267   7.415
 4721POPC   NC360371  32.512  20.985   5.321
 4721POPC   PO460372  32.012  20.548   5.507
 4721POPC   GL160373  32.195  20.429   5.903
 4721POPC   GL260374  32.513  20.498   5.905
 4721POPC   C1A60375  32.017  20.425   6.309
 4721POPC   D2A60376  32.011  20.635   6.700
 4721POPC   C3A60377  32.203  20.452   7.036
 4721POPC   C4A60378  31.926  20.243   7.289
 4721POPC   C1B60379  32.600  20.565   6.329
 4721POPC   C2B60380  32.557  20.641   6.721
 4721POPC   C3B60381  32.583  20.920   7.024
 4721POPC   C4B60382  32.435  20.899   7.406
 4722POPC   NC360383  36.466  11.081   5.088
 4722POPC   PO460384  35.947  11.230   5.505
 4722POPC   GL160385  35.900  11.379   5.894
 4722POPC   GL260386  36.242  11.495   5.869
 4722POPC   C1A60387  36.060  11.252   6.303
 4722POPC   D2A60388  36.396  11.238   6.628
 4722POPC   C3A60389  36.161  11.042   6.945
 4722POPC   C4A60390  35.861  11.153   7.274
 4722POPC   C1B60391  36.484  11.594   6.223
 4722POPC   C2B60392  36.632  11.690   6.641
 4722POPC   C3B60393  36.430  11.730   7.056
 4722POPC   C4B60394  36.289  11.583   7.483
 4723POPC   NC360395  10.843  13.383   5.573
 4723POPC   PO460396  11.526  13.646   5.407
 4723POPC   GL160397  11.533  13.795   5.802
 4723POPC   GL260398  11.183  13.695   5.822
 4723POPC   C1A60399  11.472  13.776   6.245
 4723POPC   D2A60400  11.242  13.539   6.557
 4723POPC   C3A60401  11.405  13.536   6.977
 4723POPC   C4A60402  11.666  13.863   7.185
 4723POPC   C1B60403  10.906  13.805   6.158
 4723POPC   C2B60404  10.748  13.753   6.553
 4723POPC   C3B60405  11.000  13.889   6.868
 4723POPC   C4B60406  11.034  13.768   7.245
 4724POPC   NC360407  36.431  38.561   5.460
 4724POPC   PO460408  37.090  38.539   5.434
 4724POPC   GL160409  36.876  38.709   5.784
 4724POPC   GL260410  36.695  38.460   5.909
 4724POPC   C1A60411  36.909  38.827   6.237
 4724POPC   D2A60412  37.019  38.604   6.626
 4724POPC   C3A60413  36.910  38.724   7.067
 4724POPC   C4A60414  36.522  38.662   7.328
 4724POPC   C1B60415  37.050  38.325   6.148
 4724POPC   C2B60416  37.103  38.102   6.563
 4724POPC   C3B60417  36.961  38.217   6.979
 4724POPC   C4B60418  36.894  38.319   7.435
 4725POPC   NC360419  31.119  38.114   5.377
 4725POPC   PO460420  30.454  38.345   5.285
 4725POPC   GL160421  30.445  38.332   5.748
 4725POPC   GL260422  30.761  38.155   5.766
 4725POPC   C1A60423  30.516  38.239   6.190
 4725POPC   D2A60424  30.691  38.355   6.588
 4725POPC   C3A60425  30.427  38.469   6.941
 4725POPC   C4A60426  30.686  38.727   7.242
 4725POPC   C1B60427  30.975  37.917   6.073
 4725POPC   C2B60428  30.981  37.811   6.491
 4725POPC   C3B60429  30.965  37.991   6.882
 4725POPC   C4B60430  30.768  38.197   7.209
 4726POPC   NC360431  29.354   4.428   5.639
 4726POPC   PO460432  28.774   4.224   5.356
 4726POPC   GL160433  28.949   4.110   5.779
 4726POPC   GL260434  29.297   3.987   5.879
 4726POPC   C1A60435  29.025   4.314   6.204
 4726POPC   D2A60436  29.069   4.582   6.593
 4726POPC   C3A60437  28.812   4.419   6.931
 4726POPC   C4A60438  28.834   4.102   7.252
 4726POPC   C1B60439  29.385   3.913   6.289
 4726POPC   C2B60440  29.175   4.081   6.632
 4726POPC   C3B60441  29.272   4.238   6.985
 4726POPC   C4B60442  29.555   4.032   7.146
 4727POPC   NC360443  17.950   3.027   5.586
 4727POPC   PO460444  18.552   2.760   5.438
 4727POPC   GL160445  18.412   2.889   5.840
 4727POPC   GL260446  18.136   2.693   5.965
 4727POPC   C1A60447  18.535   2.843   6.259
 4727POPC   D2A60448  18.276   2.742   6.578
 4727POPC   C3A60449  18.543   2.833   6.871
 4727POPC   C4A60450  18.478   2.810   7.281
 4727POPC   C1B60451  18.046   3.063   6.233
 4727POPC   C2B60452  17.866   3.067   6.634
 4727POPC   C3B60453  18.096   3.072   7.022
 4727POPC   C4B60454  18.013   2.900   7.402
 4728POPC   NC360455   3.627  15.539   5.409
 4728POPC   PO460456   3.529  14.949   5.480
 4728POPC   GL160457   3.702  15.250   5.797
 4728POPC   GL260458   4.046  15.294   5.881
 4728POPC   C1A60459   3.643  15.408   6.195
 4728POPC   D2A60460   3.597  15.149   6.556
 4728POPC   C3A60461   3.574  15.370   6.884
 4728POPC   C4A60462   3.374  15.394   7.244
 4728POPC   C1B60463   3.828  14.912   6.134
 4728POPC   C2B60464   3.879  14.721   6.529
 4728POPC   C3B60465   3.782  14.848   6.966
 4728POPC   C4B60466   3.945  15.221   7.197
 4729POPC   NC360467  43.942   3.332   5.363
 4729POPC   PO460468  43.403   3.116   5.705
 4729POPC   GL160469  43.729   3.401   5.861
 4729POPC   GL260470  44.034   3.613   5.826
 4729POPC   C1A60471  43.855   3.397   6.280
 4729POPC   D2A60472  43.699   3.215   6.649
 4729POPC   C3A60473  43.954   3.295   6.992
 4729POPC   C4A60474  43.843   3.393   7.392
 4729POPC   C1B60475  43.760   3.860   6.167
 4729POPC   C2B60476  43.657   3.748   6.631
 4729POPC   C3B60477  43.704   3.775   7.102
 4729POPC   C4B60478  43.862   3.873   7.559
 4730POPC   NC360479  41.538   3.857   5.703
 4730POPC   PO460480  41.270   3.291   5.420
 4730POPC   GL160481  41.439   3.294   5.805
 4730POPC   GL260482  41.788   3.392   5.815
 4730POPC   C1A60483  41.251   3.308   6.190
 4730POPC   D2A60484  41.424   3.220   6.570
 4730POPC   C3A60485  41.314   3.526   6.848
 4730POPC   C4A60486  41.402   3.433   7.258
 4730POPC   C1B60487  41.733   3.510   6.241
 4730POPC   C2B60488  41.687   3.790   6.573
 4730POPC   C3B60489  41.767   3.716   6.993
 4730POPC   C4B60490  41.931   3.431   7.274
 4731POPC   NC360491   6.113  16.789   5.601
 4731POPC   PO460492   5.793  16.236   5.378
 4731POPC   GL160493   5.651  16.521   5.737
 4731POPC   GL260494   5.585  16.842   5.809
 4731POPC   C1A60495   5.750  16.467   6.183
 4731POPC   D2A60496   5.898  16.481   6.595
 4731POPC   C3A60497   5.754  16.377   6.986
 4731POPC   C4A60498   6.021  16.428   7.363
 4731POPC   C1B60499   5.876  16.971   6.156
 4731POPC   C2B60500   6.028  16.979   6.564
 4731POPC   C3B60501   6.026  16.831   6.980
 4731POPC   C4B60502   5.914  16.925   7.404
 4732POPC   NC360503  29.769  33.983   5.541
 4732POPC   PO460504  30.263  33.549   5.522
 4732POPC   GL160505  30.008  33.446   5.843
 4732POPC   GL260506  29.670  33.522   5.745
 4732POPC   C1A60507  30.167  33.554   6.228
 4732POPC   D2A60508  30.183  33.719   6.625
 4732POPC   C3A60509  30.070  33.463   6.958
 4732POPC   C4A60510  29.993  33.674   7.283
 4732POPC   C1B60511  29.707  33.768   6.151
 4732POPC   C2B60512  29.724  33.955   6.579
 4732POPC   C3B60513  29.679  33.991   7.042
 4732POPC   C4B60514  29.579  33.874   7.494
 4733POPC   NC360515  23.652  44.757   5.335
 4733POPC   PO460516  23.378  44.248   5.696
 4733POPC   GL160517  23.565  44.687   5.847
 4733POPC   GL260518  23.908  44.828   5.835
 4733POPC   C1A60519  23.647  44.765   6.279
 4733POPC   D2A60520  23.584  44.537   6.629
 4733POPC   C3A60521  23.608  44.757   6.971
 4733POPC   C4A60522  23.638  44.748   7.388
 4733POPC   C1B60523  24.142  44.808   6.259
 4733POPC   C2B60524  24.027  44.923   6.696
 4733POPC   C3B60525  24.134  44.726   7.099
 4733POPC   C4B60526  24.072  44.526   7.519
 4734POPC   NC360527   7.820  11.896   5.553
 4734POPC   PO460528   8.355  11.886   5.175
 4734POPC   GL160529   8.239  12.156   5.676
 4734POPC   GL260530   8.528  12.346   5.823
 4734POPC   C1A60531   7.940  12.225   6.092
 4734POPC   D2A60532   8.020  11.944   6.454
 4734POPC   C3A60533   7.904  12.046   6.880
 4734POPC   C4A60534   8.126  11.880   7.214
 4734POPC   C1B60535   8.405  12.237   6.266
 4734POPC   C2B60536   8.202  12.399   6.660
 4734POPC   C3B60537   8.266  12.378   7.136
 4734POPC   C4B60538   8.120  12.333   7.607
 4735POPC   NC360539  15.904  27.226   5.548
 4735POPC   PO460540  15.799  26.553   5.526
 4735POPC   GL160541  16.034  26.622   5.878
 4735POPC   GL260542  15.933  26.936   5.937
 4735POPC   C1A60543  15.850  26.632   6.308
 4735POPC   D2A60544  15.656  26.806   6.663
 4735POPC   C3A60545  15.880  26.630   6.943
 4735POPC   C4A60546  16.056  26.707   7.282
 4735POPC   C1B60547  15.687  27.142   6.265
 4735POPC   C2B60548  15.707  27.348   6.679
 4735POPC   C3B60549  15.883  27.158   7.068
 4735POPC   C4B60550  15.780  27.120   7.501
 4736POPC   NC360551  11.748  18.417   5.527
 4736POPC   PO460552  12.182  17.996   5.314
 4736POPC   GL160553  12.045  18.101   5.785
 4736POPC   GL260554  12.347  18.179   5.837
 4736POPC   C1A60555  12.096  18.269   6.260
 4736POPC   D2A60556  12.224  18.098   6.652
 4736POPC   C3A60557  12.000  18.266   6.979
 4736POPC   C4A60558  11.835  18.143   7.350
 4736POPC   C1B60559  12.360  17.852   6.167
 4736POPC   C2B60560  12.603  17.780   6.557
 4736POPC   C3B60561  12.595  17.905   6.962
 4736POPC   C4B60562  12.275  17.914   7.242
 4737POPC   NC360563   2.163  36.825   5.329
 4737POPC   PO460564   1.564  37.071   5.401
 4737POPC   GL160565   1.809  36.899   5.686
 4737POPC   GL260566   2.019  37.212   5.657
 4737POPC   C1A60567   1.856  36.671   6.056
 4737POPC   D2A60568   1.738  36.853   6.451
 4737POPC   C3A60569   1.934  36.729   6.816
 4737POPC   C4A60570   1.825  36.883   7.196
 4737POPC   C1B60571   1.889  37.195   6.091
 4737POPC   C2B60572   2.045  37.271   6.486
 4737POPC   C3B60573   2.050  37.257   6.910
 4737POPC   C4B60574   2.208  37.171   7.321
 4738POPC   NC360575  28.266  35.246   5.399
 4738POPC   PO460576  28.214  35.814   5.643
 4738POPC   GL160577  28.452  35.465   5.869
 4738POPC   GL260578  28.186  35.195   5.900
 4738POPC   C1A60579  28.472  35.259   6.317
 4738POPC   D2A60580  28.191  35.199   6.692
 4738POPC   C3A60581  28.481  35.217   7.068
 4738POPC   C4A60582  28.524  35.268   7.540
 4738POPC   C1B60583  28.082  35.546   6.212
 4738POPC   C2B60584  28.194  35.729   6.600
 4738POPC   C3B60585  28.147  35.668   7.017
 4738POPC   C4B60586  28.034  35.320   7.268
 4739POPC   NC360587  29.027  35.022   5.450
 4739POPC   PO460588  28.992  35.708   5.313
 4739POPC   GL160589  29.085  35.553   5.732
 4739POPC   GL260590  29.401  35.669   5.832
 4739POPC   C1A60591  28.958  35.331   6.134
 4739POPC   D2A60592  28.892  35.047   6.519
 4739POPC   C3A60593  28.978  35.212   6.930
 4739POPC   C4A60594  29.364  35.216   7.184
 4739POPC   C1B60595  29.286  35.743   6.219
 4739POPC   C2B60596  29.199  35.517   6.570
 4739POPC   C3B60597  29.220  35.656   6.978
 4739POPC   C4B60598  29.229  35.824   7.350
 4740POPC   NC360599  34.067   4.709   5.094
 4740POPC   PO460600  33.716   5.259   5.341
 4740POPC   GL160601  33.927   5.125   5.723
 4740POPC   GL260602  33.621   4.928   5.756
 4740POPC   C1A60603  34.069   5.003   6.160
 4740POPC   D2A60604  33.976   5.153   6.590
 4740POPC   C3A60605  34.229   4.984   6.933
 4740POPC   C4A60606  34.187   5.158   7.322
 4740POPC   C1B60607  33.534   5.098   6.157
 4740POPC   C2B60608  33.510   4.886   6.557
 4740POPC   C3B60609  33.696   4.865   6.953
 4740POPC   C4B60610  33.600   5.185   7.209
 4741POPC   NC360611   3.514  31.166   5.572
 4741POPC   PO460612   3.567  30.611   5.249
 4741POPC   GL160613   3.640  30.593   5.700
 4741POPC   GL260614   3.311  30.667   5.822
 4741POPC   C1A60615   3.729  30.702   6.165
 4741POPC   D2A60616   3.796  31.036   6.520
 4741POPC   C3A60617   3.784  30.877   6.964
 4741POPC   C4A60618   3.488  30.692   7.236
 4741POPC   C1B60619   3.242  30.528   6.254
 4741POPC   C2B60620   3.476  30.619   6.628
 4741POPC   C3B60621   3.701  30.351   6.890
 4741POPC   C4B60622   3.450  30.196   7.201
 4742POPC   NC360623   7.343  22.944   5.391
 4742POPC   PO460624   7.779  23.042   5.817
 4742POPC   GL160625   7.343  22.929   5.931
 4742POPC   GL260626   7.216  22.606   5.890
 4742POPC   C1A60627   7.282  22.846   6.368
 4742POPC   D2A60628   7.579  23.130   6.595
 4742POPC   C3A60629   7.530  23.165   7.012
 4742POPC   C4A60630   7.149  23.014   7.165
 4742POPC   C1B60631   7.591  22.483   6.170
 4742POPC   C2B60632   7.716  22.535   6.611
 4742POPC   C3B60633   7.464  22.565   6.980
 4742POPC   C4B60634   7.442  22.675   7.390
 4743POPC   NC360635  20.949  42.578   5.551
 4743POPC   PO460636  20.376  42.230   5.479
 4743POPC   GL160637  20.324  42.419   5.877
 4743POPC   GL260638  20.682  42.374   5.958
 4743POPC   C1A60639  20.316  42.389   6.335
 4743POPC   D2A60640  20.619  42.499   6.614
 4743POPC   C3A60641  20.712  42.322   7.017
 4743POPC   C4A60642  20.471  42.532   7.308
 4743POPC   C1B60643  20.798  42.095   6.309
 4743POPC   C2B60644  20.604  41.933   6.678
 4743POPC   C3B60645  20.329  41.787   7.013
 4743POPC   C4B60646  20.397  42.037   7.378
 4744POPC   NC360647  27.684   8.513   5.555
 4744POPC   PO460648  27.721   7.889   5.309
 4744POPC   GL160649  27.481   7.952   5.795
 4744POPC   GL260650  27.505   8.309   5.974
 4744POPC   C1A60651  27.638   7.935   6.292
 4744POPC   D2A60652  27.726   8.311   6.573
 4744POPC   C3A60653  27.670   8.203   7.021
 4744POPC   C4A60654  27.691   8.091   7.474
 4744POPC   C1B60655  27.206   8.160   6.297
 4744POPC   C2B60656  27.295   8.039   6.702
 4744POPC   C3B60657  27.173   8.035   7.118
 4744POPC   C4B60658  27.212   8.180   7.551
 4745POPC   NC360659   8.360  24.229   5.568
 4745POPC   PO460660   8.250  23.674   5.245
 4745POPC   GL160661   8.329  23.712   5.714
 4745POPC   GL260662   8.138  23.460   5.869
 4745POPC   C1A60663   8.204  23.850   6.173
 4745POPC   D2A60664   7.964  24.031   6.554
 4745POPC   C3A60665   8.150  23.844   6.915
 4745POPC   C4A60666   8.336  23.870   7.285
 4745POPC   C1B60667   8.265  23.330   6.251
 4745POPC   C2B60668   8.241  23.400   6.673
 4745POPC   C3B60669   8.074  23.323   7.057
 4745POPC   C4B60670   7.877  23.461   7.409
 4746POPC   NC360671  41.163  25.357   5.383
 4746POPC   PO460672  41.886  25.095   5.406
 4746POPC   GL160673  41.716  25.210   5.794
 4746POPC   GL260674  41.358  25.117   5.816
 4746POPC   C1A60675  41.868  25.052   6.204
 4746POPC   D2A60676  41.732  24.970   6.626
 4746POPC   C3A60677  41.939  25.115   6.986
 4746POPC   C4A60678  41.833  25.366   7.325
 4746POPC   C1B60679  41.429  25.328   6.225
 4746POPC   C2B60680  41.507  25.418   6.673
 4746POPC   C3B60681  41.383  25.472   7.089
 4746POPC   C4B60682  41.360  25.214   7.495
 4747POPC   NC360683  13.973  11.957   5.419
 4747POPC   PO460684  13.893  12.573   5.625
 4747POPC   GL160685  13.694  12.349   5.970
 4747POPC   GL260686  13.719  12.022   5.875
 4747POPC   C1A60687  13.340  12.248   6.285
 4747POPC   D2A60688  13.308  12.186   6.731
 4747POPC   C3A60689  13.647  12.352   6.921
 4747POPC   C4A60690  13.769  12.269   7.357
 4747POPC   C1B60691  13.596  11.815   6.248
 4747POPC   C2B60692  13.735  11.892   6.655
 4747POPC   C3B60693  13.630  11.868   7.062
 4747POPC   C4B60694  13.726  11.602   7.383
 4748POPC   NC360695  27.244  22.323   5.329
 4748POPC   PO460696  26.727  21.875   5.412
 4748POPC   GL160697  26.685  22.071   5.789
 4748POPC   GL260698  26.863  22.363   5.702
 4748POPC   C1A60699  26.421  22.274   6.144
 4748POPC   D2A60700  26.518  22.435   6.565
 4748POPC   C3A60701  26.708  22.278   6.966
 4748POPC   C4A60702  26.584  22.406   7.376
 4748POPC   C1B60703  26.930  22.296   6.165
 4748POPC   C2B60704  26.997  22.127   6.578
 4748POPC   C3B60705  27.199  22.158   7.002
 4748POPC   C4B60706  27.093  22.292   7.430
 4749POPC   NC360707   7.209  43.290   5.492
 4749POPC   PO460708   7.474  42.598   5.507
 4749POPC   GL160709   7.364  42.903   5.812
 4749POPC   GL260710   7.611  43.209   5.836
 4749POPC   C1A60711   7.429  42.952   6.264
 4749POPC   D2A60712   7.690  43.005   6.632
 4749POPC   C3A60713   7.540  42.813   7.025
 4749POPC   C4A60714   7.146  42.775   7.271
 4749POPC   C1B60715   7.699  43.540   6.180
 4749POPC   C2B60716   7.569  43.551   6.606
 4749POPC   C3B60717   7.486  43.343   7.013
 4749POPC   C4B60718   7.300  43.270   7.410
 4750POPC   NC360719  28.905  44.781   5.191
 4750POPC   PO460720  29.529  44.578   5.364
 4750POPC   GL160721  29.266  44.828   5.784
 4750POPC   GL260722  28.983   0.016   5.837
 4750POPC   C1A60723  28.986  44.695   6.259
 4750POPC   D2A60724  28.854  44.440   6.671
 4750POPC   C3A60725  29.019  44.416   7.104
 4750POPC   C4A60726  29.087  44.657   7.500
 4750POPC   C1B60727  29.205   0.136   6.206
 4750POPC   C2B60728  29.261   0.029   6.617
 4750POPC   C3B60729  29.151  44.928   7.035
 4750POPC   C4B60730  28.959   0.177   7.338
 4751POPC   NC360731  35.712  40.274   5.153
 4751POPC   PO460732  35.071  40.046   5.341
 4751POPC   GL160733  35.204  40.084   5.784
 4751POPC   GL260734  35.287  39.752   5.911
 4751POPC   C1A60735  35.308  40.111   6.254
 4751POPC   D2A60736  35.398  39.902   6.632
 4751POPC   C3A60737  35.528  40.213   6.929
 4751POPC   C4A60738  35.622  40.146   7.355
 4751POPC   C1B60739  35.056  39.656   6.312
 4751POPC   C2B60740  34.853  39.911   6.598
 4751POPC   C3B60741  35.036  40.136   6.921
 4751POPC   C4B60742  35.282  39.812   7.152
 4752POPC   NC360743  19.532  14.884   5.490
 4752POPC   PO460744  20.079  14.642   5.189
 4752POPC   GL160745  19.883  14.518   5.695
 4752POPC   GL260746  20.078  14.279   5.852
 4752POPC   C1A60747  19.763  14.391   6.205
 4752POPC   D2A60748  20.002  14.237   6.620
 4752POPC   C3A60749  19.917  14.399   7.023
 4752POPC   C4A60750  19.606  14.510   7.358
 4752POPC   C1B60751  20.094  13.992   6.189
 4752POPC   C2B60752  19.743  13.838   6.477
 4752POPC   C3B60753  19.673  13.956   6.956
 4752POPC   C4B60754  19.739  14.043   7.451
 4753POPC   NC360755  29.859   5.222   5.381
 4753POPC   PO460756  29.743   4.550   5.381
 4753POPC   GL160757  29.885   4.861   5.734
 4753POPC   GL260758  29.610   5.075   5.827
 4753POPC   C1A60759  30.022   5.078   6.156
 4753POPC   D2A60760  30.051   5.144   6.596
 4753POPC   C3A60761  29.709   4.978   6.811
 4753POPC   C4A60762  29.869   4.908   7.193
 4753POPC   C1B60763  29.654   5.426   6.144
 4753POPC   C2B60764  29.723   5.535   6.585
 4753POPC   C3B60765  29.781   5.436   7.036
 4753POPC   C4B60766  29.448   5.246   7.253
 4754POPC   NC360767   0.380  11.126   5.493
 4754POPC   PO460768   0.367  10.502   5.402
 4754POPC   GL160769   0.526  10.675   5.775
 4754POPC   GL260770   0.226  10.810   5.899
 4754POPC   C1A60771   0.612  10.604   6.217
 4754POPC   D2A60772   0.278  10.470   6.509
 4754POPC   C3A60773   0.443  10.348   6.883
 4754POPC   C4A60774   0.555  10.284   7.291
 4754POPC   C1B60775   0.291  11.018   6.293
 4754POPC   C2B60776   0.471  10.890   6.686
 4754POPC   C3B60777   0.655  10.795   7.074
 4754POPC   C4B60778   0.282  10.803   7.316
 4755POPC   NC360779  30.130  36.283   5.630
 4755POPC   PO460780  30.768  36.132   5.325
 4755POPC   GL160781  30.602  36.105   5.743
 4755POPC   GL260782  30.897  36.258   5.839
 4755POPC   C1A60783  30.451  36.173   6.180
 4755POPC   D2A60784  30.485  35.906   6.538
 4755POPC   C3A60785  30.556  36.094   6.902
 4755POPC   C4A60786  30.527  36.241   7.291
 4755POPC   C1B60787  30.828  36.522   6.190
 4755POPC   C2B60788  30.663  36.495   6.587
 4755POPC   C3B60789  30.846  36.525   6.980
 4755POPC   C4B60790  30.990  36.508   7.392
 4756POPC   NC360791  19.963  42.471   5.358
 4756POPC   PO460792  19.801  41.811   5.270
 4756POPC   GL160793  19.899  42.096   5.710
 4756POPC   GL260794  19.801  42.454   5.836
 4756POPC   C1A60795  19.901  42.105   6.185
 4756POPC   D2A60796  20.109  41.968   6.561
 4756POPC   C3A60797  20.207  42.275   6.889
 4756POPC   C4A60798  19.998  42.344   7.282
 4756POPC   C1B60799  19.642  42.778   6.097
 4756POPC   C2B60800  19.651  42.817   6.538
 4756POPC   C3B60801  19.721  42.534   6.889
 4756POPC   C4B60802  19.496  42.271   7.175
 4757POPC   NC360803  14.136  41.849   5.674
 4757POPC   PO460804  14.326  41.193   5.462
 4757POPC   GL160805  14.473  41.460   5.808
 4757POPC   GL260806  14.454  41.175   5.992
 4757POPC   C1A60807  14.655  41.690   6.206
 4757POPC   D2A60808  14.522  42.072   6.481
 4757POPC   C3A60809  14.509  42.017   6.937
 4757POPC   C4A60810  14.137  41.819   7.179
 4757POPC   C1B60811  14.210  41.446   6.254
 4757POPC   C2B60812  14.316  41.612   6.652
 4757POPC   C3B60813  14.517  41.519   7.013
 4757POPC   C4B60814  14.722  41.296   7.273
 4758POPC   NC360815   9.060  41.310   5.356
 4758POPC   PO460816   8.626  41.749   5.298
 4758POPC   GL160817   8.777  41.513   5.726
 4758POPC   GL260818   9.155  41.436   5.840
 4758POPC   C1A60819   8.730  41.357   6.154
 4758POPC   D2A60820   8.866  41.561   6.540
 4758POPC   C3A60821   8.765  41.409   6.947
 4758POPC   C4A60822   8.791  41.676   7.270
 4758POPC   C1B60823   9.265  41.333   6.285
 4758POPC   C2B60824   9.237  41.273   6.740
 4758POPC   C3B60825   9.269  41.602   7.043
 4758POPC   C4B60826   9.345  41.581   7.480
 4759POPC   NC360827  11.072  30.361   5.364
 4759POPC   PO460828  11.486  30.894   5.550
 4759POPC   GL160829  11.364  30.551   5.803
 4759POPC   GL260830  11.035  30.613   5.791
 4759POPC   C1A60831  11.426  30.473   6.252
 4759POPC   D2A60832  11.425  30.750   6.618
 4759POPC   C3A60833  11.343  30.622   7.049
 4759POPC   C4A60834  11.125  30.932   7.282
 4759POPC   C1B60835  11.023  30.799   6.163
 4759POPC   C2B60836  10.898  30.632   6.523
 4759POPC   C3B60837  10.831  30.691   6.930
 4759POPC   C4B60838  10.845  30.519   7.322
 4760POPC   NC360839  11.687  28.096   5.408
 4760POPC   PO460840  11.252  28.529   5.474
 4760POPC   GL160841  11.395  28.525   5.871
 4760POPC   GL260842  11.619  28.269   5.906
 4760POPC   C1A60843  11.214  28.462   6.266
 4760POPC   D2A60844  11.369  28.615   6.638
 4760POPC   C3A60845  11.311  28.342   6.952
 4760POPC   C4A60846  11.357  28.456   7.359
 4760POPC   C1B60847  11.750  28.425   6.313
 4760POPC   C2B60848  11.820  28.269   6.754
 4760POPC   C3B60849  11.786  28.223   7.193
 4760POPC   C4B60850  11.643  28.073   7.588
 4761POPC   NC360851  16.687   9.443   5.458
 4761POPC   PO460852  16.545   8.819   5.224
 4761POPC   GL160853  16.673   8.965   5.664
 4761POPC   GL260854  16.359   9.149   5.757
 4761POPC   C1A60855  16.713   9.001   6.143
 4761POPC   D2A60856  16.613   8.808   6.565
 4761POPC   C3A60857  16.911   8.774   6.916
 4761POPC   C4A60858  16.740   8.940   7.277
 4761POPC   C1B60859  16.270   9.273   6.189
 4761POPC   C2B60860  16.101   9.258   6.622
 4761POPC   C3B60861  16.258   9.083   7.039
 4761POPC   C4B60862  16.350   9.152   7.497
 4762POPC   NC360863   0.724   7.347   5.417
 4762POPC   PO460864   0.144   7.766   5.407
 4762POPC   GL160865   0.347   7.566   5.802
 4762POPC   GL260866   0.678   7.452   5.927
 4762POPC   C1A60867   0.247   7.483   6.253
 4762POPC   D2A60868   0.175   7.259   6.651
 4762POPC   C3A60869   0.315   7.517   6.992
 4762POPC   C4A60870   0.337   7.440   7.400
 4762POPC   C1B60871   0.679   7.205   6.303
 4762POPC   C2B60872   0.698   7.467   6.643
 4762POPC   C3B60873   0.865   7.766   6.942
 4762POPC   C4B60874   0.752   7.780   7.371
 4763POPC   NC360875  24.228  10.609   5.374
 4763POPC   PO460876  23.639  10.770   5.354
 4763POPC   GL160877  23.661  10.534   5.778
 4763POPC   GL260878  23.393  10.288   5.905
 4763POPC   C1A60879  23.743  10.471   6.246
 4763POPC   D2A60880  23.614  10.342   6.665
 4763POPC   C3A60881  23.906  10.409   7.016
 4763POPC   C4A60882  24.153  10.088   7.217
 4763POPC   C1B60883  23.187  10.469   6.320
 4763POPC   C2B60884  23.211  10.657   6.762
 4763POPC   C3B60885  23.399  10.412   7.119
 4763POPC   C4B60886  23.684  10.224   7.449
 4764POPC   NC360887  17.188  35.742   5.011
 4764POPC   PO460888  17.625  36.241   5.222
 4764POPC   GL160889  17.603  36.302   5.673
 4764POPC   GL260890  17.745  35.984   5.832
 4764POPC   C1A60891  17.676  36.435   6.094
 4764POPC   D2A60892  17.393  36.503   6.448
 4764POPC   C3A60893  17.608  36.540   6.839
 4764POPC   C4A60894  17.618  36.250   7.201
 4764POPC   C1B60895  17.559  35.977   6.289
 4764POPC   C2B60896  17.437  36.047   6.728
 4764POPC   C3B60897  17.186  35.748   6.972
 4764POPC   C4B60898  17.242  35.602   7.389
 4765POPC   NC360899   1.476  35.741   5.544
 4765POPC   PO460900   0.995  35.189   5.460
 4765POPC   GL160901   1.125  35.393   5.842
 4765POPC   GL260902   1.462  35.409   5.916
 4765POPC   C1A60903   1.147  35.228   6.269
 4765POPC   D2A60904   1.035  35.286   6.681
 4765POPC   C3A60905   1.234  35.225   7.049
 4765POPC   C4A60906   1.562  35.280   7.325
 4765POPC   C1B60907   1.429  35.661   6.293
 4765POPC   C2B60908   1.484  35.542   6.729
 4765POPC   C3B60909   1.600  35.742   7.113
 4765POPC   C4B60910   1.462  35.728   7.560
 4766POPC   NC360911  34.427  44.074   5.564
 4766POPC   PO460912  34.705  43.513   5.423
 4766POPC   GL160913  34.553  43.643   5.821
 4766POPC   GL260914  34.192  43.609   5.742
 4766POPC   C1A60915  34.454  43.925   6.188
 4766POPC   D2A60916  34.692  44.188   6.465
 4766POPC   C3A60917  34.791  44.030   6.864
 4766POPC   C4A60918  34.662  44.117   7.249
 4766POPC   C1B60919  34.235  43.444   6.169
 4766POPC   C2B60920  34.370  43.614   6.579
 4766POPC   C3B60921  34.294  43.983   6.843
 4766POPC   C4B60922  34.322  43.741   7.241
 4767POPC   NC360923   9.210   1.445   5.486
 4767POPC   PO460924   8.877   0.901   5.512
 4767POPC   GL160925   8.857   0.969   5.923
 4767POPC   GL260926   8.969   1.268   5.896
 4767POPC   C1A60927   8.920   0.987   6.372
 4767POPC   D2A60928   9.240   1.130   6.679
 4767POPC   C3A60929   9.035   1.004   7.038
 4767POPC   C4A60930   8.593   1.038   7.079
 4767POPC   C1B60931   9.250   1.339   6.188
 4767POPC   C2B60932   9.176   1.669   6.456
 4767POPC   C3B60933   9.224   1.651   6.887
 4767POPC   C4B60934   9.367   1.350   7.154
 4768POPC   NC360935  43.198  22.585   5.455
 4768POPC   PO460936  43.022  23.101   5.421
 4768POPC   GL160937  43.202  22.960   5.827
 4768POPC   GL260938  43.358  22.619   5.939
 4768POPC   C1A60939  43.176  22.995   6.270
 4768POPC   D2A60940  43.405  22.773   6.565
 4768POPC   C3A60941  43.243  22.922   6.952
 4768POPC   C4A60942  43.246  23.253   7.237
 4768POPC   C1B60943  43.039  22.511   6.244
 4768POPC   C2B60944  42.927  22.606   6.666
 4768POPC   C3B60945  43.091  22.442   7.046
 4768POPC   C4B60946  42.906  22.380   7.464
 4769POPC   NC360947  27.838   3.247   5.692
 4769POPC   PO460948  27.440   3.729   5.384
 4769POPC   GL160949  27.401   3.487   5.829
 4769POPC   GL260950  27.178   3.163   5.838
 4769POPC   C1A60951  27.601   3.398   6.280
 4769POPC   D2A60952  27.601   3.649   6.654
 4769POPC   C3A60953  27.708   3.782   7.058
 4769POPC   C4A60954  27.739   3.735   7.509
 4769POPC   C1B60955  27.101   3.326   6.279
 4769POPC   C2B60956  27.276   3.263   6.693
 4769POPC   C3B60957  27.480   3.321   7.095
 4769POPC   C4B60958  27.445   3.303   7.544
 4770POPC   NC360959  30.028  27.779   5.283
 4770POPC   PO460960  29.585  27.238   5.298
 4770POPC   GL160961  29.907  27.406   5.615
 4770POPC   GL260962  29.813  27.770   5.745
 4770POPC   C1A60963  30.142  27.455   6.022
 4770POPC   D2A60964  29.940  27.504   6.439
 4770POPC   C3A60965  30.078  27.476   6.856
 4770POPC   C4A60966  29.745  27.526   7.178
 4770POPC   C1B60967  29.933  27.938   6.144
 4770POPC   C2B60968  29.805  27.987   6.567
 4770POPC   C3B60969  29.968  27.952   6.968
 4770POPC   C4B60970  30.117  28.199   7.220
 4771POPC   NC360971  23.620  29.728   5.198
 4771POPC   PO460972  23.147  29.566   5.610
 4771POPC   GL160973  23.305  29.618   6.003
 4771POPC   GL260974  23.519  29.871   5.964
 4771POPC   C1A60975  23.312  29.702   6.450
 4771POPC   D2A60976  23.416  29.941   6.809
 4771POPC   C3A60977  23.741  29.827   7.137
 4771POPC   C4A60978  23.794  29.892   7.604
 4771POPC   C1B60979  23.770  29.932   6.353
 4771POPC   C2B60980  23.884  30.182   6.756
 4771POPC   C3B60981  24.067  30.365   7.166
 4771POPC   C4B60982  24.223  30.257   7.584
 4772POPC   NC360983  20.636  34.719   5.216
 4772POPC   PO460984  21.002  34.300   5.525
 4772POPC   GL160985  20.840  34.583   5.794
 4772POPC   GL260986  20.517  34.541   5.756
 4772POPC   C1A60987  20.763  34.632   6.232
 4772POPC   D2A60988  20.928  34.738   6.632
 4772POPC   C3A60989  20.819  34.702   7.101
 4772POPC   C4A60990  20.952  34.864   7.553
 4772POPC   C1B60991  20.274  34.566   6.178
 4772POPC   C2B60992  20.396  34.533   6.609
 4772POPC   C3B60993  20.316  34.728   6.994
 4772POPC   C4B60994  20.139  34.492   7.310
 4773POPC   NC360995  35.305  30.335   5.392
 4773POPC   PO460996  35.343  31.011   5.267
 4773POPC   GL160997  35.474  30.815   5.686
 4773POPC   GL260998  35.200  30.598   5.850
 4773POPC   C1A60999  35.571  30.752   6.153
 4773POPC   D2A61000  35.523  30.585   6.563
 4773POPC   C3A61001  35.718  30.828   6.871
 4773POPC   C4A61002  35.677  31.070   7.230
 4773POPC   C1B61003  35.073  30.463   6.297
 4773POPC   C2B61004  35.060  30.484   6.775
 4773POPC   C3B61005  35.288  30.686   7.176
 4773POPC   C4B61006  35.059  30.672   7.648
 4774POPC   NC361007  16.245  21.797   5.511
 4774POPC   PO461008  15.769  22.311   5.434
 4774POPC   GL161009  16.040  22.175   5.782
 4774POPC   GL261010  15.754  21.961   5.830
 4774POPC   C1A61011  16.246  22.059   6.197
 4774POPC   D2A61012  16.280  21.936   6.653
 4774POPC   C3A61013  16.221  22.170   7.074
 4774POPC   C4A61014  16.390  21.955   7.440
 4774POPC   C1B61015  15.749  22.171   6.216
 4774POPC   C2B61016  15.778  21.962   6.597
 4774POPC   C3B61017  15.707  22.081   6.973
 4774POPC   C4B61018  15.704  22.454   7.165
 4775POPC   NC361019  43.846   7.606   5.337
 4775POPC   PO461020  43.814   6.946   5.409
 4775POPC   GL161021  43.925   7.267   5.735
 4775POPC   GL261022  44.004   7.637   5.802
 4775POPC   C1A61023  44.091   7.274   6.158
 4775POPC   D2A61024  43.942   7.424   6.555
 4775POPC   C3A61025  44.053   7.310   6.975
 4775POPC   C4A61026  43.653   7.220   7.174
 4775POPC   C1B61027  43.729   7.702   6.148
 4775POPC   C2B61028  43.770   7.920   6.552
 4775POPC   C3B61029  43.801   7.743   6.964
 4775POPC   C4B61030  43.642   7.684   7.380
 4776POPC   NC361031   3.195  35.238   5.720
 4776POPC   PO461032   3.633  35.488   5.242
 4776POPC   GL161033   3.701  35.363   5.716
 4776POPC   GL261034   3.685  35.682   5.817
 4776POPC   C1A61035   3.631  35.242   6.202
 4776POPC   D2A61036   3.255  35.264   6.505
 4776POPC   C3A61037   3.258  35.459   6.921
 4776POPC   C4A61038   3.349  35.151   7.240
 4776POPC   C1B61039   3.479  35.748   6.202
 4776POPC   C2B61040   3.618  35.615   6.585
 4776POPC   C3B61041   3.736  35.298   6.883
 4776POPC   C4B61042   3.717  35.498   7.286
 4777POPC   NC361043  32.792  12.955   5.251
 4777POPC   PO461044  33.296  13.195   5.616
 4777POPC   GL161045  33.174  12.950   5.940
 4777POPC   GL261046  32.936  12.767   5.789
 4777POPC   C1A61047  33.144  12.864   6.361
 4777POPC   D2A61048  33.209  12.602   6.680
 4777POPC   C3A61049  33.068  12.827   6.972
 4777POPC   C4A61050  32.943  12.631   7.286
 4777POPC   C1B61051  32.675  12.924   6.177
 4777POPC   C2B61052  32.638  12.760   6.615
 4777POPC   C3B61053  32.566  12.916   7.047
 4777POPC   C4B61054  32.507  12.794   7.486
 4778POPC   NC361055  32.257  19.471   5.431
 4778POPC   PO461056  31.955  18.864   5.420
 4778POPC   GL161057  32.234  19.049   5.757
 4778POPC   GL261058  32.071  19.386   5.899
 4778POPC   C1A61059  32.477  18.877   6.128
 4778POPC   D2A61060  32.272  18.811   6.576
 4778POPC   C3A61061  32.347  19.013   6.944
 4778POPC   C4A61062  32.272  18.906   7.346
 4778POPC   C1B61063  32.174  19.236   6.297
 4778POPC   C2B61064  32.597  19.187   6.519
 4778POPC   C3B61065  32.756  19.317   6.917
 4778POPC   C4B61066  32.649  19.267   7.332
 4779POPC   NC361067  42.556  17.085   5.350
 4779POPC   PO461068  42.194  17.726   5.445
 4779POPC   GL161069  42.224  17.612   5.836
 4779POPC   GL261070  42.330  17.285   5.780
 4779POPC   C1A61071  42.215  17.783   6.263
 4779POPC   D2A61072  42.510  17.775   6.622
 4779POPC   C3A61073  42.287  17.738   7.026
 4779POPC   C4A61074  42.510  17.700   7.423
 4779POPC   C1B61075  42.139  17.280   6.194
 4779POPC   C2B61076  42.200  17.377   6.611
 4779POPC   C3B61077  42.415  17.242   6.954
 4779POPC   C4B61078  42.226  17.288   7.295
 4780POPC   NC361079   4.098  29.315   5.486
 4780POPC   PO461080   4.586  28.836   5.492
 4780POPC   GL161081   4.263  28.896   5.812
 4780POPC   GL261082   4.362  29.205   5.905
 4780POPC   C1A61083   4.108  28.962   6.283
 4780POPC   D2A61084   4.376  29.001   6.701
 4780POPC   C3A61085   4.291  28.900   7.153
 4780POPC   C4A61086   4.445  28.969   7.620
 4780POPC   C1B61087   4.266  29.483   6.238
 4780POPC   C2B61088   4.405  29.534   6.658
 4780POPC   C3B61089   4.281  29.428   7.068
 4780POPC   C4B61090   4.249  29.428   7.521
 4781POPC   NC361091  18.374  16.242   5.555
 4781POPC   PO461092  18.610  15.558   5.629
 4781POPC   GL161093  18.456  15.886   5.903
 4781POPC   GL261094  18.196  15.803   6.081
 4781POPC   C1A61095  18.477  16.165   6.293
 4781POPC   D2A61096  18.492  15.850   6.652
 4781POPC   C3A61097  18.431  15.980   7.080
 4781POPC   C4A61098  18.073  16.052   7.346
 4781POPC   C1B61099  17.902  15.542   6.275
 4781POPC   C2B61100  17.752  15.532   6.677
 4781POPC   C3B61101  17.981  15.748   6.945
 4781POPC   C4B61102  18.013  15.550   7.314
 4782POPC   NC361103   7.177  37.738   5.350
 4782POPC   PO461104   6.587  37.546   5.494
 4782POPC   GL161105   6.598  37.766   5.876
 4782POPC   GL261106   6.927  37.887   5.856
 4782POPC   C1A61107   6.576  37.757   6.324
 4782POPC   D2A61108   6.722  37.448   6.628
 4782POPC   C3A61109   6.585  37.533   7.035
 4782POPC   C4A61110   6.719  37.930   7.237
 4782POPC   C1B61111   7.024  37.539   6.180
 4782POPC   C2B61112   7.230  37.444   6.597
 4782POPC   C3B61113   7.099  37.629   7.001
 4782POPC   C4B61114   7.090  37.627   7.463
 4783POPC   NC361115  24.924  38.825   5.542
 4783POPC   PO461116  25.488  39.049   5.247
 4783POPC   GL161117  25.321  39.109   5.699
 4783POPC   GL261118  24.987  39.259   5.823
 4783POPC   C1A61119  25.367  39.042   6.150
 4783POPC   D2A61120  25.248  39.180   6.550
 4783POPC   C3A61121  25.136  38.892   6.836
 4783POPC   C4A61122  25.148  39.036   7.248
 4783POPC   C1B61123  25.001  39.504   6.227
 4783POPC   C2B61124  25.298  39.697   6.554
 4783POPC   C3B61125  25.428  39.500   6.967
 4783POPC   C4B61126  25.440  39.510   7.422
 4784POPC   NC361127  10.201   1.850   5.681
 4784POPC   PO461128   9.749   2.109   5.158
 4784POPC   GL161129   9.738   2.037   5.643
 4784POPC   GL261130   9.457   1.833   5.741
 4784POPC   C1A61131   9.762   2.177   6.121
 4784POPC   D2A61132   9.912   2.348   6.544
 4784POPC   C3A61133   9.748   2.230   6.970
 4784POPC   C4A61134   9.815   2.131   7.412
 4784POPC   C1B61135   9.597   1.709   6.163
 4784POPC   C2B61136   9.610   1.895   6.607
 4784POPC   C3B61137   9.711   1.736   7.058
 4784POPC   C4B61138   9.594   1.640   7.499
 4785POPC   NC361139  16.801  27.732   5.320
 4785POPC   PO461140  16.284  27.266   5.289
 4785POPC   GL161141  16.513  27.335   5.761
 4785POPC   GL261142  16.658  27.705   5.812
 4785POPC   C1A61143  16.593  27.438   6.257
 4785POPC   D2A61144  16.661  27.222   6.686
 4785POPC   C3A61145  16.663  27.477   7.085
 4785POPC   C4A61146  16.443  27.842   7.273
 4785POPC   C1B61147  16.874  27.918   6.171
 4785POPC   C2B61148  16.746  27.998   6.625
 4785POPC   C3B61149  16.963  27.891   7.024
 4785POPC   C4B61150  17.074  27.623   7.398
 4786POPC   NC361151  34.481  41.375   5.540
 4786POPC   PO461152  35.111  41.659   5.377
 4786POPC   GL161153  34.877  41.593   5.780
 4786POPC   GL261154  34.523  41.602   5.982
 4786POPC   C1A61155  34.962  41.690   6.181
 4786POPC   D2A61156  34.649  41.738   6.479
 4786POPC   C3A61157  34.690  41.578   6.893
 4786POPC   C4A61158  34.917  41.683   7.253
 4786POPC   C1B61159  34.314  41.299   6.246
 4786POPC   C2B61160  34.276  41.220   6.655
 4786POPC   C3B61161  34.455  41.141   7.022
 4786POPC   C4B61162  34.485  41.411   7.370
 4787POPC   NC361163  37.582  15.952   5.538
 4787POPC   PO461164  38.234  15.881   5.284
 4787POPC   GL161165  37.989  16.098   5.760
 4787POPC   GL261166  37.726  15.883   6.010
 4787POPC   C1A61167  38.036  16.173   6.251
 4787POPC   D2A61168  37.789  15.950   6.589
 4787POPC   C3A61169  37.730  16.049   7.036
 4787POPC   C4A61170  38.107  16.100   7.280
 4787POPC   C1B61171  37.487  15.611   6.332
 4787POPC   C2B61172  37.412  15.645   6.756
 4787POPC   C3B61173  37.559  15.554   7.133
 4787POPC   C4B61174  37.451  15.837   7.441
 4788POPC   NC361175  15.024  16.802   5.489
 4788POPC   PO461176  15.498  16.582   5.231
 4788POPC   GL161177  15.350  16.650   5.799
 4788POPC   GL261178  15.267  16.997   5.904
 4788POPC   C1A61179  15.072  16.579   6.124
 4788POPC   D2A61180  15.227  16.768   6.464
 4788POPC   C3A61181  15.308  16.500   6.761
 4788POPC   C4A61182  15.253  16.473   7.164
 4788POPC   C1B61183  14.893  17.064   6.196
 4788POPC   C2B61184  15.025  17.202   6.629
 4788POPC   C3B61185  15.234  17.008   6.958
 4788POPC   C4B61186  14.975  16.874   7.274
 4789POPC   NC361187  18.242  14.459   5.400
 4789POPC   PO461188  17.813  13.933   5.240
 4789POPC   GL161189  17.899  14.059   5.700
 4789POPC   GL261190  18.126  14.327   5.863
 4789POPC   C1A61191  17.940  13.965   6.164
 4789POPC   D2A61192  18.081  14.131   6.550
 4789POPC   C3A61193  17.951  14.056   6.957
 4789POPC   C4A61194  18.145  14.154   7.337
 4789POPC   C1B61195  18.428  14.288   6.199
 4789POPC   C2B61196  18.540  14.382   6.571
 4789POPC   C3B61197  18.378  14.335   6.926
 4789POPC   C4B61198  18.397  14.606   7.231
 4790POPC   NC361199   1.745  10.239   5.289
 4790POPC   PO461200   2.455  10.406   5.307
 4790POPC   GL161201   2.165  10.357   5.695
 4790POPC   GL261202   1.799  10.379   5.771
 4790POPC   C1A61203   2.167  10.563   6.116
 4790POPC   D2A61204   2.025  10.455   6.540
 4790POPC   C3A61205   1.936  10.812   6.824
 4790POPC   C4A61206   2.002  10.786   7.264
 4790POPC   C1B61207   1.650  10.456   6.196
 4790POPC   C2B61208   1.521  10.519   6.647
 4790POPC   C3B61209   1.728  10.407   7.024
 4790POPC   C4B61210   1.605  10.303   7.402
 4791POPC   NC361211   5.742  33.886   5.220
 4791POPC   PO461212   5.117  33.815   5.339
 4791POPC   GL161213   5.122  33.720   5.823
 4791POPC   GL261214   5.229  33.380   5.800
 4791POPC   C1A61215   5.235  33.759   6.250
 4791POPC   D2A61216   4.895  33.769   6.549
 4791POPC   C3A61217   5.006  33.915   6.942
 4791POPC   C4A61218   4.944  33.821   7.372
 4791POPC   C1B61219   5.243  33.245   6.246
 4791POPC   C2B61220   5.237  33.407   6.679
 4791POPC   C3B61221   5.287  33.501   7.101
 4791POPC   C4B61222   5.462  33.794   7.362
 4792POPC   NC361223  34.051  17.853   5.514
 4792POPC   PO461224  33.701  17.216   5.524
 4792POPC   GL161225  33.584  17.508   5.848
 4792POPC   GL261226  33.830  17.764   5.950
 4792POPC   C1A61227  33.617  17.466   6.276
 4792POPC   D2A61228  33.793  17.645   6.654
 4792POPC   C3A61229  33.588  17.769   7.094
 4792POPC   C4A61230  33.505  17.610   7.549
 4792POPC   C1B61231  34.081  17.925   6.267
 4792POPC   C2B61232  34.280  17.880   6.673
 4792POPC   C3B61233  34.098  17.733   7.042
 4792POPC   C4B61234  33.967  17.831   7.436
 4793POPC   NC361235   4.170  25.991   5.415
 4793POPC   PO461236   4.674  26.319   5.543
 4793POPC   GL161237   4.383  26.164   5.892
 4793POPC   GL261238   4.019  26.098   5.896
 4793POPC   C1A61239   4.307  26.301   6.333
 4793POPC   D2A61240   4.490  26.088   6.699
 4793POPC   C3A61241   4.347  26.247   7.102
 4793POPC   C4A61242   4.237  26.179   7.538
 4793POPC   C1B61243   4.117  25.825   6.269
 4793POPC   C2B61244   4.057  25.793   6.720
 4793POPC   C3B61245   4.052  25.832   7.190
 4793POPC   C4B61246   3.793  25.935   7.558
 4794POPC   NC361247  10.911  26.760   5.619
 4794POPC   PO461248  11.572  26.481   5.556
 4794POPC   GL161249  11.499  26.853   5.830
 4794POPC   GL261250  11.184  26.926   5.989
 4794POPC   C1A61251  11.590  26.995   6.255
 4794POPC   D2A61252  11.499  26.760   6.628
 4794POPC   C3A61253  11.424  26.947   6.976
 4794POPC   C4A61254  11.485  26.888   7.392
 4794POPC   C1B61255  11.101  26.681   6.325
 4794POPC   C2B61256  10.972  26.786   6.745
 4794POPC   C3B61257  10.960  26.852   7.189
 4794POPC   C4B61258  11.124  26.555   7.459
 4795POPC   NC361259  19.505  25.224   5.167
 4795POPC   PO461260  19.726  24.918   5.724
 4795POPC   GL161261  19.681  25.222   5.981
 4795POPC   GL261262  19.463  25.392   5.801
 4795POPC   C1A61263  19.642  25.179   6.393
 4795POPC   D2A61264  19.899  25.244   6.650
 4795POPC   C3A61265  19.900  24.986   6.972
 4795POPC   C4A61266  19.678  25.011   7.312
 4795POPC   C1B61267  19.514  25.669   6.185
 4795POPC   C2B61268  19.702  25.714   6.603
 4795POPC   C3B61269  19.661  25.520   7.000
 4795POPC   C4B61270  19.492  25.492   7.374
 4796POPC   NC361271  11.657  10.370   5.616
 4796POPC   PO461272  12.204  10.481   5.333
 4796POPC   GL161273  12.062  10.672   5.719
 4796POPC   GL261274  11.899  11.004   5.717
 4796POPC   C1A61275  12.100  10.533   6.133
 4796POPC   D2A61276  12.391  10.685   6.407
 4796POPC   C3A61277  12.202  10.646   6.777
 4796POPC   C4A61278  12.203  10.619   7.201
 4796POPC   C1B61279  12.040  11.034   6.174
 4796POPC   C2B61280  11.861  10.980   6.597
 4796POPC   C3B61281  11.756  10.798   7.024
 4796POPC   C4B61282  11.876  10.930   7.458
 4797POPC   NC361283  17.008  17.601   5.446
 4797POPC   PO461284  16.635  17.026   5.477
 4797POPC   GL161285  16.475  17.218   5.857
 4797POPC   GL261286  16.375  17.572   5.771
 4797POPC   C1A61287  16.609  17.278   6.311
 4797POPC   D2A61288  17.019  17.417   6.536
 4797POPC   C3A61289  16.920  17.570   6.928
 4797POPC   C4A61290  16.755  17.381   7.244
 4797POPC   C1B61291  16.338  17.746   6.187
 4797POPC   C2B61292  16.569  17.706   6.579
 4797POPC   C3B61293  16.450  17.798   7.009
 4797POPC   C4B61294  16.597  17.845   7.420
 4798POPC   NC361295  37.151  11.963   5.481
 4798POPC   PO461296  36.596  12.272   5.559
 4798POPC   GL161297  36.842  12.102   5.861
 4798POPC   GL261298  36.777  11.750   5.804
 4798POPC   C1A61299  37.058  12.307   6.195
 4798POPC   D2A61300  36.934  12.535   6.563
 4798POPC   C3A61301  37.032  12.368   6.955
 4798POPC   C4A61302  36.936  12.297   7.390
 4798POPC   C1B61303  36.981  11.747   6.222
 4798POPC   C2B61304  37.050  11.980   6.613
 4798POPC   C3B61305  36.936  11.885   7.067
 4798POPC   C4B61306  36.720  11.847   7.478
 4799POPC   NC361307   3.639  10.675   5.639
 4799POPC   PO461308   3.350  10.207   5.315
 4799POPC   GL161309   3.486  10.215   5.809
 4799POPC   GL261310   3.818  10.345   5.986
 4799POPC   C1A61311   3.426  10.328   6.280
 4799POPC   D2A61312   3.586  10.438   6.692
 4799POPC   C3A61313   3.305  10.664   6.972
 4799POPC   C4A61314   3.282  10.646   7.426
 4799POPC   C1B61315   3.781  10.710   6.280
 4799POPC   C2B61316   3.872  10.864   6.692
 4799POPC   C3B61317   3.801  10.741   7.101
 4799POPC   C4B61318   4.077  10.750   7.420
 4800POPC   NC361319   1.586   3.070   5.449
 4800POPC   PO461320   0.979   2.685   5.330
 4800POPC   GL161321   1.120   2.876   5.715
 4800POPC   GL261322   1.436   2.774   5.826
 4800POPC   C1A61323   1.053   2.690   6.151
 4800POPC   D2A61324   1.103   2.888   6.542
 4800POPC   C3A61325   1.086   2.680   6.924
 4800POPC   C4A61326   1.265   2.706   7.315
 4800POPC   C1B61327   1.328   3.146   6.116
 4800POPC   C2B61328   1.463   3.241   6.564
 4800POPC   C3B61329   1.355   3.122   6.990
 4800POPC   C4B61330   1.215   3.240   7.382
 4801POPC   NC361331  43.792  28.800   5.502
 4801POPC   PO461332  44.057  29.417   5.515
 4801POPC   GL161333  43.832  29.166   5.857
 4801POPC   GL261334  44.088  28.889   5.921
 4801POPC   C1A61335  43.662  29.127   6.291
 4801POPC   D2A61336  43.712  29.333   6.709
 4801POPC   C3A61337  43.917  29.169   7.117
 4801POPC   C4A61338  43.996  29.278   7.563
 4801POPC   C1B61339  44.198  29.239   6.220
 4801POPC   C2B61340  44.234  29.191   6.659
 4801POPC   C3B61341  44.272  28.803   6.917
 4801POPC   C4B61342  44.064  28.685   7.285
 4802POPC   NC361343  16.505  39.708   5.683
 4802POPC   PO461344  16.760  39.207   5.304
 4802POPC   GL161345  16.818  39.208   5.778
 4802POPC   GL261346  16.969  39.532   5.837
 4802POPC   C1A61347  16.676  38.979   6.197
 4802POPC   D2A61348  16.745  38.773   6.629
 4802POPC   C3A61349  16.582  38.937   7.029
 4802POPC   C4A61350  16.557  39.174   7.411
 4802POPC   C1B61351  16.805  39.485   6.257
 4802POPC   C2B61352  16.707  39.283   6.634
 4802POPC   C3B61353  16.669  39.484   7.004
 4802POPC   C4B61354  16.936  39.538   7.322
 4803POPC   NC361355  11.144  12.562   5.356
 4803POPC   PO461356  11.518  11.956   5.455
 4803POPC   GL161357  11.255  12.139   5.774
 4803POPC   GL261358  11.437  12.415   5.792
 4803POPC   C1A61359  11.083  12.282   6.188
 4803POPC   D2A61360  11.088  12.103   6.611
 4803POPC   C3A61361  10.957  11.849   6.970
 4803POPC   C4A61362  10.898  12.072   7.336
 4803POPC   C1B61363  11.606  12.305   6.214
 4803POPC   C2B61364  11.481  12.430   6.633
 4803POPC   C3B61365  11.358  12.198   7.049
 4803POPC   C4B61366  11.356  12.213   7.509
 4804POPC   NC361367  10.814  28.731   5.475
 4804POPC   PO461368  10.485  28.092   5.564
 4804POPC   GL161369  10.476  28.453   5.759
 4804POPC   GL261370  10.824  28.495   5.920
 4804POPC   C1A61371  10.342  28.455   6.146
 4804POPC   D2A61372  10.296  28.262   6.524
 4804POPC   C3A61373  10.377  28.585   6.818
 4804POPC   C4A61374  10.339  28.544   7.247
 4804POPC   C1B61375  10.753  28.707   6.333
 4804POPC   C2B61376  10.868  28.728   6.772
 4804POPC   C3B61377  10.872  28.499   7.184
 4804POPC   C4B61378  10.992  28.742   7.587
 4805POPC   NC361379   2.113  15.748   5.490
 4805POPC   PO461380   1.561  15.543   5.167
 4805POPC   GL161381   1.657  15.860   5.658
 4805POPC   GL261382   1.946  16.114   5.806
 4805POPC   C1A61383   1.692  15.803   6.150
 4805POPC   D2A61384   1.805  15.966   6.576
 4805POPC   C3A61385   1.843  15.697   6.951
 4805POPC   C4A61386   2.056  15.739   7.332
 4805POPC   C1B61387   2.183  16.028   6.210
 4805POPC   C2B61388   2.372  16.123   6.618
 4805POPC   C3B61389   2.099  16.159   7.005
 4805POPC   C4B61390   2.133  16.314   7.440
 4806POPC   NC361391   3.069  44.447   5.142
 4806POPC   PO461392   3.471  44.175   5.648
 4806POPC   GL161393   3.607  43.826   5.920
 4806POPC   GL261394   3.769  43.502   5.760
 4806POPC   C1A61395   3.696  43.986   6.339
 4806POPC   D2A61396   3.497  44.017   6.747
 4806POPC   C3A61397   3.767  44.118   7.091
 4806POPC   C4A61398   3.535  44.134   7.478
 4806POPC   C1B61399   3.634  43.346   6.176
 4806POPC   C2B61400   3.606  43.542   6.584
 4806POPC   C3B61401   3.664  43.600   7.018
 4806POPC   C4B61402   3.864  43.305   7.266
 4807POPC   NC361403  22.694   2.774   5.257
 4807POPC   PO461404  23.179   2.413   5.474
 4807POPC   GL161405  22.876   2.624   5.745
 4807POPC   GL261406  22.850   2.338   5.941
 4807POPC   C1A61407  22.724   2.853   6.150
 4807POPC   D2A61408  22.912   2.915   6.584
 4807POPC   C3A61409  22.729   2.894   7.029
 4807POPC   C4A61410  22.879   2.935   7.457
 4807POPC   C1B61411  23.091   2.493   6.300
 4807POPC   C2B61412  23.029   2.427   6.747
 4807POPC   C3B61413  23.085   2.535   7.194
 4807POPC   C4B61414  23.190   2.527   7.643
 4808POPC   NC361415   9.270   9.008   5.295
 4808POPC   PO461416   8.790   8.604   5.376
 4808POPC   GL161417   8.918   8.834   5.786
 4808POPC   GL261418   9.215   9.034   5.788
 4808POPC   C1A61419   8.842   8.705   6.247
 4808POPC   D2A61420   8.662   8.578   6.648
 4808POPC   C3A61421   8.756   8.842   6.990
 4808POPC   C4A61422   8.986   8.748   7.353
 4808POPC   C1B61423   9.104   9.144   6.210
 4808POPC   C2B61424   9.154   8.957   6.631
 4808POPC   C3B61425   9.204   9.091   7.064
 4808POPC   C4B61426   8.957   9.272   7.406
 4809POPC   NC361427   9.215  10.018   5.627
 4809POPC   PO461428   9.322   9.451   5.344
 4809POPC   GL161429   9.121   9.541   5.787
 4809POPC   GL261430   8.812   9.769   5.875
 4809POPC   C1A61431   9.192   9.675   6.230
 4809POPC   D2A61432   9.210   9.462   6.621
 4809POPC   C3A61433   8.826   9.363   6.839
 4809POPC   C4A61434   8.727   9.658   7.146
 4809POPC   C1B61435   8.858  10.079   6.240
 4809POPC   C2B61436   8.982  10.051   6.702
 4809POPC   C3B61437   8.945  10.157   7.145
 4809POPC   C4B61438   8.930  10.210   7.594
 4810POPC   NC361439   5.848   5.347   5.458
 4810POPC   PO461440   5.891   4.628   5.528
 4810POPC   GL161441   5.792   4.950   5.854
 4810POPC   GL261442   5.967   5.263   5.929
 4810POPC   C1A61443   5.664   5.076   6.299
 4810POPC   D2A61444   5.827   5.222   6.698
 4810POPC   C3A61445   5.621   5.283   7.103
 4810POPC   C4A61446   5.584   5.208   7.571
 4810POPC   C1B61447   6.031   5.504   6.283
 4810POPC   C2B61448   6.239   5.531   6.670
 4810POPC   C3B61449   6.008   5.596   7.028
 4810POPC   C4B61450   6.055   5.395   7.442
 4811POPC   NC361451   1.572   5.312   5.193
 4811POPC   PO461452   0.999   5.036   5.385
 4811POPC   GL161453   1.190   5.046   5.812
 4811POPC   GL261454   1.563   4.998   5.730
 4811POPC   C1A61455   1.190   4.952   6.283
 4811POPC   D2A61456   0.905   4.918   6.651
 4811POPC   C3A61457   1.073   4.938   7.088
 4811POPC   C4A61458   1.075   4.823   7.529
 4811POPC   C1B61459   1.679   5.069   6.174
 4811POPC   C2B61460   1.624   4.939   6.606
 4811POPC   C3B61461   1.541   5.155   6.981
 4811POPC   C4B61462   1.378   5.248   7.386
 4812POPC   NC361463  20.432   5.313   5.383
 4812POPC   PO461464  20.662   4.699   5.556
 4812POPC   GL161465  20.689   5.057   5.794
 4812POPC   GL261466  20.343   5.087   5.825
 4812POPC   C1A61467  20.752   5.147   6.235
 4812POPC   D2A61468  20.698   5.360   6.636
 4812POPC   C3A61469  20.624   5.102   7.015
 4812POPC   C4A61470  20.689   5.095   7.457
 4812POPC   C1B61471  20.269   4.907   6.189
 4812POPC   C2B61472  20.307   5.025   6.601
 4812POPC   C3B61473  20.201   4.761   6.942
 4812POPC   C4B61474  20.424   4.691   7.288
 4813POPC   NC361475   2.463   1.984   5.465
 4813POPC   PO461476   2.989   1.613   5.436
 4813POPC   GL161477   3.057   1.844   5.821
 4813POPC   GL261478   3.228   1.537   5.878
 4813POPC   C1A61479   2.871   2.135   6.191
 4813POPC   D2A61480   2.757   2.339   6.620
 4813POPC   C3A61481   2.737   2.124   7.035
 4813POPC   C4A61482   2.348   1.936   7.199
 4813POPC   C1B61483   2.985   1.630   6.281
 4813POPC   C2B61484   3.090   1.909   6.630
 4813POPC   C3B61485   3.161   1.783   7.052
 4813POPC   C4B61486   3.079   1.927   7.470
 4814POPC   NC361487  27.799  10.233   5.207
 4814POPC   PO461488  27.385  10.656   5.499
 4814POPC   GL161489  27.294  10.475   5.872
 4814POPC   GL261490  27.440  10.770   5.984
 4814POPC   C1A61491  27.341  10.416   6.325
 4814POPC   D2A61492  27.613  10.359   6.661
 4814POPC   C3A61493  27.552  10.560   7.026
 4814POPC   C4A61494  27.605  10.363   7.392
 4814POPC   C1B61495  27.729  11.003   6.211
 4814POPC   C2B61496  27.768  10.859   6.621
 4814POPC   C3B61497  28.008  10.824   6.986
 4814POPC   C4B61498  27.779  10.905   7.352
 4815POPC   NC361499  12.937  20.180   5.482
 4815POPC   PO461500  12.610  20.764   5.561
 4815POPC   GL161501  12.676  20.446   5.886
 4815POPC   GL261502  13.026  20.416   5.940
 4815POPC   C1A61503  12.684  20.601   6.324
 4815POPC   D2A61504  12.706  20.670   6.770
 4815POPC   C3A61505  13.070  20.827   6.981
 4815POPC   C4A61506  12.817  20.843   7.353
 4815POPC   C1B61507  13.171  20.462   6.342
 4815POPC   C2B61508  13.058  20.278   6.738
 4815POPC   C3B61509  12.991  20.356   7.156
 4815POPC   C4B61510  13.211  20.456   7.521
 4816POPC   NC361511  17.667  13.203   5.385
 4816POPC   PO461512  17.134  12.747   5.398
 4816POPC   GL161513  17.374  12.938   5.712
 4816POPC   GL261514  17.712  12.751   5.693
 4816POPC   C1A61515  17.375  13.106   6.146
 4816POPC   D2A61516  17.202  13.087   6.576
 4816POPC   C3A61517  17.197  12.742   6.857
 4816POPC   C4A61518  17.311  12.843   7.274
 4816POPC   C1B61519  17.859  12.867   6.121
 4816POPC   C2B61520  17.740  13.091   6.505
 4816POPC   C3B61521  17.655  13.003   6.931
 4816POPC   C4B61522  17.815  12.705   7.249
 4817POPC   NC361523  36.441  15.091   5.520
 4817POPC   PO461524  35.795  15.141   5.449
 4817POPC   GL161525  35.887  15.314   5.823
 4817POPC   GL261526  36.213  15.437   5.820
 4817POPC   C1A61527  35.963  15.152   6.214
 4817POPC   D2A61528  36.050  15.341   6.607
 4817POPC   C3A61529  36.088  15.229   7.034
 4817POPC   C4A61530  35.883  15.105   7.418
 4817POPC   C1B61531  36.430  15.353   6.214
 4817POPC   C2B61532  36.536  15.180   6.620
 4817POPC   C3B61533  36.580  15.388   7.028
 4817POPC   C4B61534  36.326  15.612   7.292
 4818POPC   NC361535  38.750  22.816   5.485
 4818POPC   PO461536  38.089  22.599   5.685
 4818POPC   GL161537  38.446  22.746   5.896
 4818POPC   GL261538  38.439  23.065   5.900
 4818POPC   C1A61539  38.654  22.817   6.317
 4818POPC   D2A61540  38.749  22.887   6.757
 4818POPC   C3A61541  38.491  22.679   7.076
 4818POPC   C4A61542  38.286  22.743   7.477
 4818POPC   C1B61543  38.707  23.321   6.225
 4818POPC   C2B61544  38.587  23.464   6.637
 4818POPC   C3B61545  38.485  23.243   7.011
 4818POPC   C4B61546  38.758  23.163   7.364
 4819POPC   NC361547   3.416  40.430   5.485
 4819POPC   PO461548   3.651  41.096   5.538
 4819POPC   GL161549   3.395  40.870   5.789
 4819POPC   GL261550   3.671  40.676   5.869
 4819POPC   C1A61551   3.269  40.790   6.203
 4819POPC   D2A61552   3.210  40.550   6.573
 4819POPC   C3A61553   3.253  40.761   6.946
 4819POPC   C4A61554   3.433  40.609   7.320
 4819POPC   C1B61555   3.745  40.506   6.260
 4819POPC   C2B61556   3.796  40.733   6.612
 4819POPC   C3B61557   3.777  40.805   7.011
 4819POPC   C4B61558   3.998  41.033   7.239
 4820POPC   NC361559  38.125  27.769   5.053
 4820POPC   PO461560  37.836  27.415   5.557
 4820POPC   GL161561  37.719  27.673   5.870
 4820POPC   GL261562  37.437  27.908   5.788
 4820POPC   C1A61563  37.693  27.543   6.270
 4820POPC   D2A61564  37.878  27.474   6.608
 4820POPC   C3A61565  37.626  27.462   6.957
 4820POPC   C4A61566  37.677  27.599   7.363
 4820POPC   C1B61567  37.612  28.045   6.203
 4820POPC   C2B61568  37.517  27.896   6.626
 4820POPC   C3B61569  37.684  27.992   7.010
 4820POPC   C4B61570  37.470  28.059   7.389
 4821POPC   NC361571  31.325   0.964   5.321
 4821POPC   PO461572  31.544   1.549   5.375
 4821POPC   GL161573  31.635   1.303   5.782
 4821POPC   GL261574  31.471   0.972   5.824
 4821POPC   C1A61575  31.626   1.183   6.248
 4821POPC   D2A61576  31.791   1.323   6.613
 4821POPC   C3A61577  31.620   1.213   6.969
 4821POPC   C4A61578  31.765   1.497   7.252
 4821POPC   C1B61579  31.223   0.852   6.219
 4821POPC   C2B61580  31.369   0.868   6.648
 4821POPC   C3B61581  31.154   1.021   7.025
 4821POPC   C4B61582  31.378   1.174   7.432
 4822POPC   NC361583  28.721  19.678   5.356
 4822POPC   PO461584  28.070  19.720   5.552
 4822POPC   GL161585  28.379  19.844   5.852
 4822POPC   GL261586  28.508  19.558   5.804
 4822POPC   C1A61587  28.383  20.013   6.283
 4822POPC   D2A61588  28.371  20.122   6.705
 4822POPC   C3A61589  28.472  19.969   7.105
 4822POPC   C4A61590  28.279  20.069   7.513
 4822POPC   C1B61591  28.358  19.496   6.222
 4822POPC   C2B61592  28.546  19.577   6.634
 4822POPC   C3B61593  28.294  19.502   6.990
 4822POPC   C4B61594  28.271  19.583   7.397
 4823POPC   NC361595  22.146   8.501   5.544
 4823POPC   PO461596  22.394   7.889   5.778
 4823POPC   GL161597  22.216   8.193   5.970
 4823POPC   GL261598  21.864   8.240   5.927
 4823POPC   C1A61599  22.211   8.097   6.387
 4823POPC   D2A61600  22.182   7.812   6.701
 4823POPC   C3A61601  22.371   8.083   6.995
 4823POPC   C4A61602  22.467   8.399   7.242
 4823POPC   C1B61603  21.702   8.171   6.385
 4823POPC   C2B61604  21.675   8.134   6.872
 4823POPC   C3B61605  21.940   8.335   7.201
 4823POPC   C4B61606  22.110   8.767   7.348
 4824POPC   NC361607  26.802  16.034   5.434
 4824POPC   PO461608  26.699  15.336   5.355
 4824POPC   GL161609  26.736  15.607   5.746
 4824POPC   GL261610  26.911  15.817   5.907
 4824POPC   C1A61611  26.517  15.637   6.191
 4824POPC   D2A61612  26.762  15.755   6.570
 4824POPC   C3A61613  26.596  15.776   6.999
 4824POPC   C4A61614  26.653  16.143   7.265
 4824POPC   C1B61615  26.698  16.114   6.146
 4824POPC   C2B61616  26.854  16.291   6.511
 4824POPC   C3B61617  27.012  16.147   6.896
 4824POPC   C4B61618  27.107  16.426   7.227
 4825POPC   NC361619  41.923  33.455   5.496
 4825POPC   PO461620  42.399  32.994   5.371
 4825POPC   GL161621  42.224  33.132   5.758
 4825POPC   GL261622  42.151  32.808   5.891
 4825POPC   C1A61623  42.075  33.280   6.180
 4825POPC   D2A61624  41.840  33.241   6.576
 4825POPC   C3A61625  42.001  32.978   6.907
 4825POPC   C4A61626  42.236  33.208   7.218
 4825POPC   C1B61627  42.486  32.989   6.172
 4825POPC   C2B61628  42.383  33.040   6.589
 4825POPC   C3B61629  42.483  32.818   6.979
 4825POPC   C4B61630  42.615  32.955   7.453
 4826POPC   NC361631  31.789  20.189   5.704
 4826POPC   PO461632  31.480  19.732   5.282
 4826POPC   GL161633  31.407  19.840   5.747
 4826POPC   GL261634  31.581  19.567   5.900
 4826POPC   C1A61635  31.439  19.925   6.242
 4826POPC   D2A61636  31.692  20.136   6.616
 4826POPC   C3A61637  31.528  20.003   7.035
 4826POPC   C4A61638  31.243  19.684   7.216
 4826POPC   C1B61639  31.723  19.498   6.298
 4826POPC   C2B61640  31.693  19.631   6.718
 4826POPC   C3B61641  31.727  19.550   7.155
 4826POPC   C4B61642  31.558  19.433   7.581
 4827POPC   NC361643  43.512   9.221   5.430
 4827POPC   PO461644  44.189   8.993   5.389
 4827POPC   GL161645  44.101   8.967   5.830
 4827POPC   GL261646  43.758   8.993   5.853
 4827POPC   C1A61647  44.064   8.791   6.248
 4827POPC   D2A61648  43.741   8.946   6.555
 4827POPC   C3A61649  43.884   9.083   6.952
 4827POPC   C4A61650  43.911   8.952   7.371
 4827POPC   C1B61651  43.894   9.298   6.184
 4827POPC   C2B61652  43.779   9.492   6.570
 4827POPC   C3B61653  43.567   9.475   6.974
 4827POPC   C4B61654  43.849   9.461   7.333
 4828POPC   NC361655  30.332  26.200   5.151
 4828POPC   PO461656  29.698  26.170   5.387
 4828POPC   GL161657  29.947  26.163   5.817
 4828POPC   GL261658  30.171  25.870   5.907
 4828POPC   C1A61659  29.825  26.025   6.242
 4828POPC   D2A61660  29.752  26.220   6.606
 4828POPC   C3A61661  29.664  26.013   6.974
 4828POPC   C4A61662  29.781  26.180   7.355
 4828POPC   C1B61663  30.224  25.724   6.274
 4828POPC   C2B61664  30.001  25.742   6.669
 4828POPC   C3B61665  30.139  25.761   7.097
 4828POPC   C4B61666  30.117  25.818   7.540
 4829POPC   NC361667   3.807   6.919   5.429
 4829POPC   PO461668   3.121   6.964   5.578
 4829POPC   GL161669   3.458   6.785   5.894
 4829POPC   GL261670   3.507   6.415   5.954
 4829POPC   C1A61671   3.399   6.700   6.353
 4829POPC   D2A61672   3.305   6.351   6.606
 4829POPC   C3A61673   3.440   6.397   7.027
 4829POPC   C4A61674   3.268   6.587   7.368
 4829POPC   C1B61675   3.839   6.487   6.231
 4829POPC   C2B61676   3.783   6.610   6.677
 4829POPC   C3B61677   3.746   6.822   7.062
 4829POPC   C4B61678   3.765   6.726   7.507
 4830POPC   NC361679  35.856  28.552   5.600
 4830POPC   PO461680  36.447  28.449   5.360
 4830POPC   GL161681  36.295  28.403   5.817
 4830POPC   GL261682  36.183  28.726   5.951
 4830POPC   C1A61683  36.088  28.295   6.235
 4830POPC   D2A61684  36.041  28.330   6.692
 4830POPC   C3A61685  35.823  28.624   6.943
 4830POPC   C4A61686  36.006  28.508   7.315
 4830POPC   C1B61687  35.940  28.795   6.314
 4830POPC   C2B61688  36.185  28.902   6.654
 4830POPC   C3B61689  36.361  28.738   7.021
 4830POPC   C4B61690  36.426  28.740   7.457
 4831POPC   NC361691  44.172   6.159   5.520
 4831POPC   PO461692  44.066   5.629   5.219
 4831POPC   GL161693  44.002   5.720   5.721
 4831POPC   GL261694  43.688   5.936   5.792
 4831POPC   C1A61695  44.036   5.952   6.158
 4831POPC   D2A61696  43.766   6.000   6.529
 4831POPC   C3A61697  43.940   6.009   6.940
 4831POPC   C4A61698  44.246   5.906   7.231
 4831POPC   C1B61699  43.605   5.651   6.177
 4831POPC   C2B61700  43.619   5.508   6.636
 4831POPC   C3B61701  43.818   5.531   7.060
 4831POPC   C4B61702  43.704   5.816   7.367
 4832POPC   NC361703  36.921  10.187   5.435
 4832POPC   PO461704  36.807  10.869   5.316
 4832POPC   GL161705  36.906  10.766   5.704
 4832POPC   GL261706  36.671  10.514   5.743
 4832POPC   C1A61707  36.846  10.792   6.145
 4832POPC   D2A61708  36.888  10.593   6.539
 4832POPC   C3A61709  36.761  10.799   6.921
 4832POPC   C4A61710  36.931  10.664   7.328
 4832POPC   C1B61711  36.824  10.266   6.131
 4832POPC   C2B61712  36.946  10.091   6.567
 4832POPC   C3B61713  36.948  10.282   6.980
 4832POPC   C4B61714  37.062  10.176   7.409
 4833POPC   NC361715  27.540  27.813   5.731
 4833POPC   PO461716  27.919  27.517   5.295
 4833POPC   GL161717  27.744  27.352   5.794
 4833POPC   GL261718  27.803  27.653   6.123
 4833POPC   C1A61719  27.862  27.193   6.253
 4833POPC   D2A61720  27.707  27.205   6.689
 4833POPC   C3A61721  27.618  27.489   7.035
 4833POPC   C4A61722  27.800  27.906   7.164
 4833POPC   C1B61723  27.539  27.830   6.421
 4833POPC   C2B61724  27.417  27.921   6.815
 4833POPC   C3B61725  27.308  27.840   7.240
 4833POPC   C4B61726  27.355  27.877   7.669
 4834POPC   NC361727   1.471  40.853   5.581
 4834POPC   PO461728   2.113  40.801   5.535
 4834POPC   GL161729   2.153  40.430   5.797
 4834POPC   GL261730   2.437  40.544   5.936
 4834POPC   C1A61731   1.995  40.426   6.226
 4834POPC   D2A61732   1.952  40.672   6.614
 4834POPC   C3A61733   1.748  40.630   7.027
 4834POPC   C4A61734   1.750  40.911   7.414
 4834POPC   C1B61735   2.308  40.900   6.234
 4834POPC   C2B61736   2.289  41.058   6.674
 4834POPC   C3B61737   2.240  40.805   7.032
 4834POPC   C4B61738   2.263  40.795   7.448
 4835POPC   NC361739  31.639  10.179   5.612
 4835POPC   PO461740  31.095   9.714   5.571
 4835POPC   GL161741  31.230   9.975   5.875
 4835POPC   GL261742  31.559   9.795   5.945
 4835POPC   C1A61743  31.284  10.031   6.300
 4835POPC   D2A61744  31.524   9.892   6.637
 4835POPC   C3A61745  31.368  10.014   7.047
 4835POPC   C4A61746  31.160   9.750   7.381
 4835POPC   C1B61747  31.844   9.537   6.207
 4835POPC   C2B61748  31.967   9.605   6.628
 4835POPC   C3B61749  31.912   9.459   7.057
 4835POPC   C4B61750  31.689   9.752   7.359
 4836POPC   NC361751  36.575  39.992   5.163
 4836POPC   PO461752  37.018  39.533   5.526
 4836POPC   GL161753  36.898  39.891   5.751
 4836POPC   GL261754  36.969  40.244   5.673
 4836POPC   C1A61755  36.803  39.836   6.173
 4836POPC   D2A61756  36.676  39.849   6.589
 4836POPC   C3A61757  36.964  39.778   6.933
 4836POPC   C4A61758  36.742  39.705   7.285
 4836POPC   C1B61759  36.736  40.339   6.069
 4836POPC   C2B61760  36.800  40.443   6.465
 4836POPC   C3B61761  36.834  40.275   6.851
 4836POPC   C4B61762  36.838  40.198   7.264
 4837POPC   NC361763  35.116   0.690   5.557
 4837POPC   PO461764  35.732   0.899   5.559
 4837POPC   GL161765  35.572   0.688   5.848
 4837POPC   GL261766  35.485   0.367   5.740
 4837POPC   C1A61767  35.338   0.735   6.190
 4837POPC   D2A61768  35.502   0.781   6.589
 4837POPC   C3A61769  35.246   0.686   6.937
 4837POPC   C4A61770  35.167   0.273   7.167
 4837POPC   C1B61771  35.559   0.275   6.181
 4837POPC   C2B61772  35.698   0.268   6.599
 4837POPC   C3B61773  35.650   0.132   7.031
 4837POPC   C4B61774  35.765   0.062   7.447
 4838POPC   NC361775  22.003   7.828   5.548
 4838POPC   PO461776  22.317   7.245   5.317
 4838POPC   GL161777  22.178   7.243   5.770
 4838POPC   GL261778  22.052   7.544   5.991
 4838POPC   C1A61779  22.138   7.069   6.180
 4838POPC   D2A61780  21.934   7.291   6.482
 4838POPC   C3A61781  22.123   7.278   6.867
 4838POPC   C4A61782  22.088   7.290   7.319
 4838POPC   C1B61783  22.411   7.497   6.309
 4838POPC   C2B61784  22.628   7.483   6.709
 4838POPC   C3B61785  22.435   7.600   7.100
 4838POPC   C4B61786  21.991   7.789   7.196
 4839POPC   NC361787  16.516  36.290   5.509
 4839POPC   PO461788  16.751  35.755   5.226
 4839POPC   GL161789  16.782  35.874   5.707
 4839POPC   GL261790  16.970  36.215   5.753
 4839POPC   C1A61791  16.652  35.963   6.180
 4839POPC   D2A61792  16.710  35.823   6.643
 4839POPC   C3A61793  16.749  36.000   7.013
 4839POPC   C4A61794  16.615  36.267   7.236
 4839POPC   C1B61795  16.916  36.417   6.171
 4839POPC   C2B61796  16.936  36.293   6.607
 4839POPC   C3B61797  17.122  36.363   7.008
 4839POPC   C4B61798  17.142  36.111   7.363
 4840POPC   NC361799  21.018   4.571   5.285
 4840POPC   PO461800  20.424   4.155   5.436
 4840POPC   GL161801  20.671   4.219   5.816
 4840POPC   GL261802  20.565   4.517   6.001
 4840POPC   C1A61803  20.564   4.067   6.246
 4840POPC   D2A61804  20.777   3.963   6.605
 4840POPC   C3A61805  20.624   4.007   6.978
 4840POPC   C4A61806  20.671   4.255   7.330
 4840POPC   C1B61807  20.621   4.603   6.432
 4840POPC   C2B61808  20.700   4.540   6.875
 4840POPC   C3B61809  20.938   4.689   7.245
 4840POPC   C4B61810  20.731   4.653   7.690
 4841POPC   NC361811   1.179  22.162   5.406
 4841POPC   PO461812   1.577  22.702   5.304
 4841POPC   GL161813   1.451  22.374   5.765
 4841POPC   GL261814   1.318  22.039   5.872
 4841POPC   C1A61815   1.206  22.376   6.227
 4841POPC   D2A61816   1.080  22.243   6.647
 4841POPC   C3A61817   1.192  22.448   7.023
 4841POPC   C4A61818   0.991  22.444   7.447
 4841POPC   C1B61819   1.077  21.853   6.279
 4841POPC   C2B61820   0.985  21.752   6.762
 4841POPC   C3B61821   1.001  22.011   7.183
 4841POPC   C4B61822   0.986  22.016   7.708
 4842POPC   NC361823   4.722  35.920   5.412
 4842POPC   PO461824   4.100  36.320   5.394
 4842POPC   GL161825   4.341  36.128   5.687
 4842POPC   GL261826   4.197  35.801   5.691
 4842POPC   C1A61827   4.441  36.258   6.101
 4842POPC   D2A61828   4.220  36.340   6.461
 4842POPC   C3A61829   4.380  36.375   6.860
 4842POPC   C4A61830   4.474  36.169   7.233
 4842POPC   C1B61831   4.501  35.744   6.028
 4842POPC   C2B61832   4.458  35.844   6.453
 4842POPC   C3B61833   4.603  35.839   6.869
 4842POPC   C4B61834   4.627  35.681   7.281
 4843POPC   NC361835   8.724  44.535   5.495
 4843POPC   PO461836   9.326  44.988   5.410
 4843POPC   GL161837   9.209  44.872   5.863
 4843POPC   GL261838   8.858  44.725   5.952
 4843POPC   C1A61839   9.081   0.021   6.290
 4843POPC   D2A61840   8.779  44.873   6.612
 4843POPC   C3A61841   8.882   0.006   7.033
 4843POPC   C4A61842   9.272  44.985   7.247
 4843POPC   C1B61843   8.984  44.461   6.309
 4843POPC   C2B61844   9.111  44.244   6.702
 4843POPC   C3B61845   9.098  44.482   7.081
 4843POPC   C4B61846   9.375  44.532   7.451
 4844POPC   NC361847   0.023   5.641   5.490
 4844POPC   PO461848  44.640   6.226   5.528
 4844POPC   GL161849  44.549   5.906   5.847
 4844POPC   GL261850  44.906   5.833   5.952
 4844POPC   C1A61851  44.509   5.806   6.306
 4844POPC   D2A61852  44.782   6.008   6.615
 4844POPC   C3A61853  44.712   6.090   7.062
 4844POPC   C4A61854  44.858   6.147   7.496
 4844POPC   C1B61855   0.005   5.434   6.171
 4844POPC   C2B61856  44.799   5.474   6.556
 4844POPC   C3B61857  44.918   5.598   6.925
 4844POPC   C4B61858  44.701   5.619   7.263
 4845POPC   NC361859   8.700   6.871   5.317
 4845POPC   PO461860   8.726   6.363   5.695
 4845POPC   GL161861   8.834   6.717   5.882
 4845POPC   GL261862   9.171   6.822   5.807
 4845POPC   C1A61863   8.895   6.675   6.298
 4845POPC   D2A61864   9.140   6.578   6.641
 4845POPC   C3A61865   8.858   6.476   6.921
 4845POPC   C4A61866   8.561   6.591   7.221
 4845POPC   C1B61867   9.178   7.076   6.158
 4845POPC   C2B61868   9.011   7.094   6.556
 4845POPC   C3B61869   9.138   7.011   6.954
 4845POPC   C4B61870   9.165   6.705   7.270
 4846POPC   NC361871  34.593  18.293   5.201
 4846POPC   PO461872  34.058  18.305   5.616
 4846POPC   GL161873  34.229  18.372   6.020
 4846POPC   GL261874  34.516  18.163   6.081
 4846POPC   C1A61875  34.295  18.374   6.484
 4846POPC   D2A61876  34.710  18.183   6.553
 4846POPC   C3A61877  34.729  17.973   6.886
 4846POPC   C4A61878  34.442  18.030   7.243
 4846POPC   C1B61879  34.697  18.600   6.262
 4846POPC   C2B61880  34.671  18.773   6.683
 4846POPC   C3B61881  34.594  18.461   7.002
 4846POPC   C4B61882  34.922  18.228   7.248
 4847POPC   NC361883  22.628  33.955   5.359
 4847POPC   PO461884  23.244  33.731   5.529
 4847POPC   GL161885  22.969  33.726   5.879
 4847POPC   GL261886  22.644  33.839   5.854
 4847POPC   C1A61887  22.909  33.696   6.316
 4847POPC   D2A61888  23.208  33.812   6.605
 4847POPC   C3A61889  23.173  33.666   7.010
 4847POPC   C4A61890  22.774  33.722   7.209
 4847POPC   C1B61891  22.824  34.157   6.129
 4847POPC   C2B61892  22.792  34.231   6.563
 4847POPC   C3B61893  22.980  34.137   6.957
 4847POPC   C4B61894  22.944  34.257   7.385
 4848POPC   NC361895  31.817  11.809   5.452
 4848POPC   PO461896  32.278  12.350   5.442
 4848POPC   GL161897  32.294  12.148   5.834
 4848POPC   GL261898  31.962  12.086   5.869
 4848POPC   C1A61899  32.508  12.026   6.236
 4848POPC   D2A61900  32.358  11.719   6.561
 4848POPC   C3A61901  32.297  11.973   6.924
 4848POPC   C4A61902  32.481  11.892   7.327
 4848POPC   C1B61903  31.756  12.287   6.211
 4848POPC   C2B61904  31.763  12.100   6.587
 4848POPC   C3B61905  31.829  12.205   7.003
 4848POPC   C4B61906  31.945  11.950   7.335
 4849POPC   NC361907  18.370   6.587   5.526
 4849POPC   PO461908  17.841   7.064   5.341
 4849POPC   GL161909  18.063   6.883   5.822
 4849POPC   GL261910  18.187   6.497   5.985
 4849POPC   C1A61911  18.110   6.866   6.311
 4849POPC   D2A61912  17.857   6.916   6.692
 4849POPC   C3A61913  18.002   6.710   7.049
 4849POPC   C4A61914  18.127   6.923   7.407
 4849POPC   C1B61915  18.442   6.414   6.339
 4849POPC   C2B61916  18.405   6.492   6.808
 4849POPC   C3B61917  18.386   6.394   7.259
 4849POPC   C4B61918  18.383   6.217   7.689
 4850POPC   NC361919  37.995  22.998   5.469
 4850POPC   PO461920  37.441  22.640   5.313
 4850POPC   GL161921  37.583  22.788   5.767
 4850POPC   GL261922  37.870  22.993   5.951
 4850POPC   C1A61923  37.439  22.918   6.204
 4850POPC   D2A61924  37.690  22.878   6.580
 4850POPC   C3A61925  37.454  22.908   6.939
 4850POPC   C4A61926  37.640  22.888   7.320
 4850POPC   C1B61927  38.125  22.847   6.279
 4850POPC   C2B61928  38.248  22.890   6.662
 4850POPC   C3B61929  38.029  22.882   7.008
 4850POPC   C4B61930  38.062  23.183   7.319
 4851POPC   NC361931  27.892  12.202   5.422
 4851POPC   PO461932  27.169  12.327   5.448
 4851POPC   GL161933  27.449  12.234   5.807
 4851POPC   GL261934  27.366  11.912   5.995
 4851POPC   C1A61935  27.617  12.312   6.244
 4851POPC   D2A61936  27.534  12.071   6.620
 4851POPC   C3A61937  27.561  12.269   7.025
 4851POPC   C4A61938  27.372  12.048   7.363
 4851POPC   C1B61939  27.790  11.849   6.184
 4851POPC   C2B61940  27.900  11.694   6.613
 4851POPC   C3B61941  27.723  11.770   7.029
 4851POPC   C4B61942  27.847  11.891   7.456
 4852POPC   NC361943  37.320   5.073   5.584
 4852POPC   PO461944  36.655   5.106   5.410
 4852POPC   GL161945  36.848   4.959   5.753
 4852POPC   GL261946  36.938   5.246   5.925
 4852POPC   C1A61947  37.060   4.787   6.129
 4852POPC   D2A61948  36.924   4.554   6.458
 4852POPC   C3A61949  36.863   4.750   6.844
 4852POPC   C4A61950  37.125   4.942   7.114
 4852POPC   C1B61951  36.815   5.187   6.360
 4852POPC   C2B61952  36.900   5.264   6.784
 4852POPC   C3B61953  37.012   5.459   7.221
 4852POPC   C4B61954  36.886   5.581   7.668
 4853POPC   NC361955  22.673  41.206   5.112
 4853POPC   PO461956  22.990  40.707   5.503
 4853POPC   GL161957  22.996  40.849   5.914
 4853POPC   GL261958  22.881  40.507   6.035
 4853POPC   C1A61959  22.946  41.027   6.295
 4853POPC   D2A61960  23.001  40.680   6.541
 4853POPC   C3A61961  23.006  40.738   6.956
 4853POPC   C4A61962  22.898  41.047   7.279
 4853POPC   C1B61963  22.529  40.751   6.252
 4853POPC   C2B61964  22.565  40.972   6.649
 4853POPC   C3B61965  22.488  40.752   6.999
 4853POPC   C4B61966  22.691  40.569   7.333
 4854POPC   NC361967   3.817   2.720   5.316
 4854POPC   PO461968   3.305   2.767   5.802
 4854POPC   GL161969   3.607   2.739   6.025
 4854POPC   GL261970   3.788   2.439   5.877
 4854POPC   C1A61971   3.531   2.789   6.450
 4854POPC   D2A61972   3.245   2.470   6.610
 4854POPC   C3A61973   3.068   2.583   6.990
 4854POPC   C4A61974   3.315   2.914   7.165
 4854POPC   C1B61975   3.932   2.474   6.297
 4854POPC   C2B61976   3.857   2.544   6.748
 4854POPC   C3B61977   3.710   2.591   7.167
 4854POPC   C4B61978   3.889   2.512   7.624
 4855POPC   NC361979  22.712  12.856   5.541
 4855POPC   PO461980  23.228  12.730   5.431
 4855POPC   GL161981  23.169  12.961   5.855
 4855POPC   GL261982  22.944  13.261   5.866
 4855POPC   C1A61983  23.022  13.083   6.318
 4855POPC   D2A61984  22.934  13.188   6.758
 4855POPC   C3A61985  23.029  12.805   6.967
 4855POPC   C4A61986  22.822  12.539   7.273
 4855POPC   C1B61987  22.555  13.251   6.190
 4855POPC   C2B61988  22.414  13.350   6.639
 4855POPC   C3B61989  22.537  13.323   7.074
 4855POPC   C4B61990  22.821  13.081   7.325
 4856POPC   NC361991  43.359  14.067   5.600
 4856POPC   PO461992  43.015  14.608   5.340
 4856POPC   GL161993  42.966  14.389   5.758
 4856POPC   GL261994  42.741  14.085   5.720
 4856POPC   C1A61995  42.954  14.446   6.235
 4856POPC   D2A61996  42.699  14.612   6.603
 4856POPC   C3A61997  42.932  14.549   6.986
 4856POPC   C4A61998  43.290  14.310   7.160
 4856POPC   C1B61999  42.696  14.007   6.203
 4856POPC   C2B62000  42.909  14.097   6.652
 4856POPC   C3B62001  42.882  14.023   7.131
 4856POPC   C4B62002  42.758  14.051   7.605
 4857POPC   NC362003  39.284  27.386   5.402
 4857POPC   PO462004  39.561  27.982   5.584
 4857POPC   GL162005  39.293  27.717   5.860
 4857POPC   GL262006  38.991  27.475   5.799
 4857POPC   C1A62007  39.368  27.515   6.255
 4857POPC   D2A62008  39.645  27.506   6.612
 4857POPC   C3A62009  39.344  27.457   6.934
 4857POPC   C4A62010  39.061  27.760   7.119
 4857POPC   C1B62011  38.973  27.170   6.140
 4857POPC   C2B62012  39.201  27.075   6.524
 4857POPC   C3B62013  39.006  27.052   6.915
 4857POPC   C4B62014  39.055  27.287   7.316
 4858POPC   NC362015  36.456  20.122   5.304
 4858POPC   PO462016  36.215  19.551   5.449
 4858POPC   GL162017  36.359  19.850   5.737
 4858POPC   GL262018  36.596  19.621   5.868
 4858POPC   C1A62019  36.229  20.053   6.125
 4858POPC   D2A62020  36.208  19.895   6.556
 4858POPC   C3A62021  36.052  20.087   6.946
 4858POPC   C4A62022  36.119  19.965   7.383
 4858POPC   C1B62023  36.218  19.511   6.157
 4858POPC   C2B62024  36.045  19.404   6.590
 4858POPC   C3B62025  36.185  19.558   7.011
 4858POPC   C4B62026  36.519  19.321   7.225
 4859POPC   NC362027   2.622  31.834   5.481
 4859POPC   PO462028   3.118  31.389   5.484
 4859POPC   GL162029   2.777  31.424   5.766
 4859POPC   GL262030   2.938  31.717   5.843
 4859POPC   C1A62031   2.730  31.214   6.166
 4859POPC   D2A62032   2.543  31.111   6.565
 4859POPC   C3A62033   2.701  31.265   6.920
 4859POPC   C4A62034   2.596  31.297   7.326
 4859POPC   C1B62035   2.763  31.714   6.220
 4859POPC   C2B62036   2.683  31.669   6.604
 4859POPC   C3B62037   2.877  31.828   6.931
 4859POPC   C4B62038   2.805  31.793   7.352
 4860POPC   NC362039  18.981  34.513   5.337
 4860POPC   PO462040  19.481  34.815   5.612
 4860POPC   GL162041  19.331  34.480   5.823
 4860POPC   GL262042  18.973  34.498   5.839
 4860POPC   C1A62043  19.253  34.492   6.268
 4860POPC   D2A62044  19.116  34.801   6.575
 4860POPC   C3A62045  19.340  34.785   6.960
 4860POPC   C4A62046  19.177  34.713   7.361
 4860POPC   C1B62047  18.781  34.697   6.191
 4860POPC   C2B62048  18.638  34.600   6.596
 4860POPC   C3B62049  18.801  34.680   6.995
 4860POPC   C4B62050  18.693  34.475   7.367
 4861POPC   NC362051  42.580   8.631   5.152
 4861POPC   PO462052  42.475   9.169   5.576
 4861POPC   GL162053  42.410   8.894   5.890
 4861POPC   GL262054  42.371   8.574   5.757
 4861POPC   C1A62055  42.328   8.951   6.301
 4861POPC   D2A62056  42.458   9.093   6.733
 4861POPC   C3A62057  42.312   8.937   7.128
 4861POPC   C4A62058  42.100   8.930   7.523
 4861POPC   C1B62059  42.619   8.510   6.161
 4861POPC   C2B62060  42.739   8.729   6.516
 4861POPC   C3B62061  42.715   8.693   6.929
 4861POPC   C4B62062  42.657   8.587   7.323
 4862POPC   NC362063   7.720  24.992   5.474
 4862POPC   PO462064   7.160  25.395   5.465
 4862POPC   GL162065   7.302  25.109   5.778
 4862POPC   GL262066   7.460  25.421   5.926
 4862POPC   C1A62067   7.358  24.994   6.224
 4862POPC   D2A62068   7.271  25.272   6.581
 4862POPC   C3A62069   7.238  25.026   6.948
 4862POPC   C4A62070   7.529  24.946   7.266
 4862POPC   C1B62071   7.712  25.675   6.242
 4862POPC   C2B62072   7.764  25.541   6.675
 4862POPC   C3B62073   7.504  25.439   7.040
 4862POPC   C4B62074   7.660  25.459   7.448
 4863POPC   NC362075   0.575  20.111   5.494
 4863POPC   PO462076   0.237  20.731   5.416
 4863POPC   GL162077   0.298  20.768   5.837
 4863POPC   GL262078   0.569  20.536   5.884
 4863POPC   C1A62079   0.256  20.630   6.265
 4863POPC   D2A62080   0.497  20.393   6.584
 4863POPC   C3A62081   0.341  20.423   7.024
 4863POPC   C4A62082   0.447  20.733   7.361
 4863POPC   C1B62083   0.667  20.911   6.188
 4863POPC   C2B62084   0.482  20.915   6.625
 4863POPC   C3B62085   0.736  20.720   6.931
 4863POPC   C4B62086   0.966  20.770   7.283
 4864POPC   NC362087  25.829  28.459   5.285
 4864POPC   PO462088  26.242  27.996   5.248
 4864POPC   GL162089  26.108  28.146   5.700
 4864POPC   GL262090  25.808  28.350   5.785
 4864POPC   C1A62091  25.947  28.060   6.162
 4864POPC   D2A62092  25.932  28.279   6.523
 4864POPC   C3A62093  26.241  28.176   6.824
 4864POPC   C4A62094  25.999  28.148   7.187
 4864POPC   C1B62095  26.141  28.533   6.102
 4864POPC   C2B62096  26.123  28.739   6.530
 4864POPC   C3B62097  26.012  28.621   6.960
 4864POPC   C4B62098  26.319  28.788   7.209
 4865POPC   NC362099  14.683  22.848   5.400
 4865POPC   PO462100  14.067  22.872   5.391
 4865POPC   GL162101  14.308  22.810   5.793
 4865POPC   GL262102  14.206  22.513   5.984
 4865POPC   C1A62103  14.441  22.904   6.248
 4865POPC   D2A62104  14.625  22.974   6.684
 4865POPC   C3A62105  14.477  23.159   7.097
 4865POPC   C4A62106  14.546  23.254   7.557
 4865POPC   C1B62107  14.107  22.562   6.464
 4865POPC   C2B62108  14.215  22.634   6.936
 4865POPC   C3B62109  14.208  22.585   7.415
 4865POPC   C4B62110  14.469  22.728   7.807
 4866POPC   NC362111  17.484  27.276   5.482
 4866POPC   PO462112  17.229  27.922   5.396
 4866POPC   GL162113  17.233  27.643   5.771
 4866POPC   GL262114  17.016  27.371   5.651
 4866POPC   C1A62115  17.471  27.420   6.152
 4866POPC   D2A62116  17.532  27.564   6.547
 4866POPC   C3A62117  17.723  27.363   6.873
 4866POPC   C4A62118  17.654  27.666   7.146
 4866POPC   C1B62119  17.010  27.269   6.075
 4866POPC   C2B62120  17.151  27.212   6.521
 4866POPC   C3B62121  17.212  27.419   6.935
 4866POPC   C4B62122  17.429  27.241   7.307
 4867POPC   NC362123   4.464  36.606   5.456
 4867POPC   PO462124   4.223  37.189   5.367
 4867POPC   GL162125   4.159  37.069   5.779
 4867POPC   GL262126   4.002  37.375   5.851
 4867POPC   C1A62127   4.214  36.766   6.131
 4867POPC   D2A62128   4.385  36.832   6.554
 4867POPC   C3A62129   4.229  36.880   6.963
 4867POPC   C4A62130   4.189  36.593   7.305
 4867POPC   C1B62131   4.177  37.256   6.271
 4867POPC   C2B62132   3.948  37.180   6.643
 4867POPC   C3B62133   3.852  37.295   7.075
 4867POPC   C4B62134   4.122  37.174   7.371
 4868POPC   NC362135  10.977   4.709   5.578
 4868POPC   PO462136  11.678   4.639   5.481
 4868POPC   GL162137  11.437   4.947   5.759
 4868POPC   GL262138  11.207   5.208   5.611
 4868POPC   C1A62139  11.545   5.080   6.181
 4868POPC   D2A62140  11.674   4.897   6.565
 4868POPC   C3A62141  11.496   5.010   6.936
 4868POPC   C4A62142  11.178   4.797   7.169
 4868POPC   C1B62143  11.068   5.170   6.051
 4868POPC   C2B62144  11.142   5.137   6.513
 4868POPC   C3B62145  11.058   5.246   6.933
 4868POPC   C4B62146  11.239   5.286   7.358
 4869POPC   NC362147  13.957  19.196   5.344
 4869POPC   PO462148  13.303  18.970   5.526
 4869POPC   GL162149  13.538  18.925   5.917
 4869POPC   GL262150  13.871  19.070   5.871
 4869POPC   C1A62151  13.540  18.984   6.376
 4869POPC   D2A62152  13.626  18.715   6.744
 4869POPC   C3A62153  13.594  18.960   7.108
 4869POPC   C4A62154  13.247  19.192   7.272
 4869POPC   C1B62155  14.001  19.221   6.293
 4869POPC   C2B62156  13.961  19.124   6.745
 4869POPC   C3B62157  13.954  19.340   7.136
 4869POPC   C4B62158  13.686  19.284   7.497
 4870POPC   NC362159  32.556  28.877   5.613
 4870POPC   PO462160  33.141  29.228   5.556
 4870POPC   GL162161  32.976  29.037   5.906
 4870POPC   GL262162  32.648  29.233   5.980
 4870POPC   C1A62163  33.181  28.979   6.296
 4870POPC   D2A62164  33.012  29.169   6.667
 4870POPC   C3A62165  33.260  29.174   7.049
 4870POPC   C4A62166  33.243  29.235   7.473
 4870POPC   C1B62167  32.630  28.957   6.341
 4870POPC   C2B62168  32.568  28.865   6.785
 4870POPC   C3B62169  32.731  29.144   7.097
 4870POPC   C4B62170  32.569  29.490   7.328
 4871POPC   NC362171   9.429  27.331   5.568
 4871POPC   PO462172   8.914  27.705   5.260
 4871POPC   GL162173   8.950  27.591   5.727
 4871POPC   GL262174   9.263  27.661   5.924
 4871POPC   C1A62175   8.811  27.722   6.136
 4871POPC   D2A62176   9.083  27.640   6.478
 4871POPC   C3A62177   8.950  27.837   6.825
 4871POPC   C4A62178   8.954  27.713   7.234
 4871POPC   C1B62179   9.492  27.399   6.222
 4871POPC   C2B62180   9.420  27.247   6.614
 4871POPC   C3B62181   9.348  27.536   6.948
 4871POPC   C4B62182   9.409  27.544   7.381
 4872POPC   NC362183  12.554  34.546   4.969
 4872POPC   PO462184  12.926  34.647   5.477
 4872POPC   GL162185  12.932  34.468   5.851
 4872POPC   GL262186  12.917  34.819   5.973
 4872POPC   C1A62187  12.674  34.428   6.203
 4872POPC   D2A62188  12.857  34.662   6.522
 4872POPC   C3A62189  12.794  34.487   6.928
 4872POPC   C4A62190  12.637  34.300   7.285
 4872POPC   C1B62191  13.216  34.941   6.268
 4872POPC   C2B62192  13.170  35.117   6.659
 4872POPC   C3B62193  12.910  34.989   6.964
 4872POPC   C4B62194  12.834  34.813   7.341
 4873POPC   NC362195  20.500  31.065   5.332
 4873POPC   PO462196  20.764  30.449   5.594
 4873POPC   GL162197  20.560  30.660   5.899
 4873POPC   GL262198  20.581  31.033   5.840
 4873POPC   C1A62199  20.466  30.502   6.316
 4873POPC   D2A62200  20.715  30.291   6.627
 4873POPC   C3A62201  20.774  30.455   7.047
 4873POPC   C4A62202  20.718  30.305   7.470
 4873POPC   C1B62203  20.680  31.035   6.274
 4873POPC   C2B62204  20.695  30.835   6.674
 4873POPC   C3B62205  20.560  30.981   7.073
 4873POPC   C4B62206  20.545  31.170   7.511
 4874POPC   NC362207  24.097  24.465   4.934
 4874POPC   PO462208  23.616  24.550   5.404
 4874POPC   GL162209  23.821  24.429   5.782
 4874POPC   GL262210  24.103  24.184   5.792
 4874POPC   C1A62211  23.605  24.484   6.166
 4874POPC   D2A62212  23.406  24.684   6.503
 4874POPC   C3A62213  23.663  24.620   6.846
 4874POPC   C4A62214  23.615  24.709   7.256
 4874POPC   C1B62215  23.883  24.058   6.156
 4874POPC   C2B62216  23.619  24.115   6.532
 4874POPC   C3B62217  23.768  24.119   6.936
 4874POPC   C4B62218  23.534  24.154   7.244
 4875POPC   NC362219  16.895  10.251   5.495
 4875POPC   PO462220  16.593  10.847   5.447
 4875POPC   GL162221  16.568  10.606   5.838
 4875POPC   GL262222  16.542  10.938   5.991
 4875POPC   C1A62223  16.865  10.578   6.228
 4875POPC   D2A62224  16.895  10.803   6.628
 4875POPC   C3A62225  17.036  10.507   6.949
 4875POPC   C4A62226  16.802  10.262   7.221
 4875POPC   C1B62227  16.407  10.723   6.336
 4875POPC   C2B62228  16.520  10.446   6.668
 4875POPC   C3B62229  16.555  10.696   7.024
 4875POPC   C4B62230  16.400  10.545   7.365
 4876POPC   NC362231  43.990   4.473   5.128
 4876POPC   PO462232  43.914   3.818   5.377
 4876POPC   GL162233  44.010   4.145   5.706
 4876POPC   GL262234  43.914   4.502   5.641
 4876POPC   C1A62235  44.089   4.248   6.143
 4876POPC   D2A62236  44.011   4.102   6.580
 4876POPC   C3A62237  43.639   4.205   6.850
 4876POPC   C4A62238  43.965   4.215   7.171
 4876POPC   C1B62239  43.769   4.657   6.048
 4876POPC   C2B62240  43.755   4.514   6.440
 4876POPC   C3B62241  43.898   4.630   6.846
 4876POPC   C4B62242  43.634   4.604   7.209
 4877POPC   NC362243  16.429  42.173   5.559
 4877POPC   PO462244  15.917  42.565   5.262
 4877POPC   GL162245  15.917  42.484   5.743
 4877POPC   GL262246  15.972  42.114   5.823
 4877POPC   C1A62247  15.920  42.466   6.235
 4877POPC   D2A62248  16.230  42.567   6.609
 4877POPC   C3A62249  16.056  42.401   7.021
 4877POPC   C4A62250  15.644  42.589   7.162
 4877POPC   C1B62251  15.734  41.916   6.173
 4877POPC   C2B62252  15.686  42.044   6.622
 4877POPC   C3B62253  15.854  41.879   7.006
 4877POPC   C4B62254  15.912  41.974   7.424
 4878POPC   NC362255  42.562  17.961   5.660
 4878POPC   PO462256  42.931  18.374   5.255
 4878POPC   GL162257  42.916  18.336   5.743
 4878POPC   GL262258  43.237  18.229   5.868
 4878POPC   C1A62259  42.926  18.441   6.219
 4878POPC   D2A62260  43.084  18.259   6.630
 4878POPC   C3A62261  43.137  18.446   7.070
 4878POPC   C4A62262  42.975  18.461   7.519
 4878POPC   C1B62263  43.001  17.932   6.181
 4878POPC   C2B62264  43.104  17.741   6.596
 4878POPC   C3B62265  43.270  17.934   6.992
 4878POPC   C4B62266  43.317  18.093   7.432
 4879POPC   NC362267  27.138   2.737   5.384
 4879POPC   PO462268  26.669   2.355   5.631
 4879POPC   GL162269  26.809   2.751   5.788
 4879POPC   GL262270  27.125   2.588   5.850
 4879POPC   C1A62271  26.733   2.957   6.190
 4879POPC   D2A62272  26.550   2.785   6.546
 4879POPC   C3A62273  26.667   2.923   6.944
 4879POPC   C4A62274  26.824   3.019   7.337
 4879POPC   C1B62275  26.857   2.464   6.228
 4879POPC   C2B62276  26.680   2.291   6.576
 4879POPC   C3B62277  26.825   2.442   6.942
 4879POPC   C4B62278  26.932   2.497   7.343
 4880POPC   NC362279  30.214  37.224   5.419
 4880POPC   PO462280  29.858  36.581   5.352
 4880POPC   GL162281  29.814  36.901   5.701
 4880POPC   GL262282  30.128  36.991   5.851
 4880POPC   C1A62283  29.723  36.899   6.169
 4880POPC   D2A62284  29.723  36.682   6.613
 4880POPC   C3A62285  29.828  36.767   7.027
 4880POPC   C4A62286  30.106  36.958   7.330
 4880POPC   C1B62287  30.174  37.204   6.242
 4880POPC   C2B62288  29.846  37.187   6.574
 4880POPC   C3B62289  29.938  37.266   6.968
 4880POPC   C4B62290  29.668  37.201   7.304
 4881POPC   NC362291  38.596  15.718   5.580
 4881POPC   PO462292  38.307  15.242   5.142
 4881POPC   GL162293  38.429  15.228   5.653
 4881POPC   GL262294  38.477  14.899   5.780
 4881POPC   C1A62295  38.522  15.378   6.141
 4881POPC   D2A62296  38.670  15.200   6.557
 4881POPC   C3A62297  38.581  15.349   6.987
 4881POPC   C4A62298  38.422  15.270   7.383
 4881POPC   C1B62299  38.461  14.865   6.230
 4881POPC   C2B62300  38.473  14.755   6.695
 4881POPC   C3B62301  38.500  14.843   7.133
 4881POPC   C4B62302  38.181  14.828   7.492
 4882POPC   NC362303   6.934  24.843   5.332
 4882POPC   PO462304   6.540  24.255   5.494
 4882POPC   GL162305   6.780  24.271   5.858
 4882POPC   GL262306   6.765  24.622   5.792
 4882POPC   C1A62307   6.606  24.385   6.267
 4882POPC   D2A62308   6.429  24.729   6.503
 4882POPC   C3A62309   6.376  24.551   6.890
 4882POPC   C4A62310   6.642  24.265   7.134
 4882POPC   C1B62311   6.867  24.828   6.153
 4882POPC   C2B62312   6.942  24.820   6.582
 4882POPC   C3B62313   6.701  24.956   6.952
 4882POPC   C4B62314   6.496  24.754   7.328
 4883POPC   NC362315  25.133  18.610   5.483
 4883POPC   PO462316  25.550  18.059   5.608
 4883POPC   GL162317  25.290  18.280   5.877
 4883POPC   GL262318  24.982  18.501   5.951
 4883POPC   C1A62319  25.339  18.157   6.278
 4883POPC   D2A62320  25.315  18.339   6.657
 4883POPC   C3A62321  25.217  18.052   6.956
 4883POPC   C4A62322  25.238  18.290   7.290
 4883POPC   C1B62323  24.886  18.467   6.387
 4883POPC   C2B62324  24.834  18.542   6.829
 4883POPC   C3B62325  24.853  18.629   7.265
 4883POPC   C4B62326  24.959  18.464   7.705
 4884POPC   NC362327   7.540  19.577   5.491
 4884POPC   PO462328   7.571  20.298   5.654
 4884POPC   GL162329   7.444  19.897   5.868
 4884POPC   GL262330   7.135  19.644   5.786
 4884POPC   C1A62331   7.453  19.772   6.280
 4884POPC   D2A62332   7.564  20.010   6.643
 4884POPC   C3A62333   7.396  19.882   7.040
 4884POPC   C4A62334   7.593  20.087   7.372
 4884POPC   C1B62335   7.079  19.431   6.159
 4884POPC   C2B62336   7.252  19.390   6.553
 4884POPC   C3B62337   7.105  19.442   6.932
 4884POPC   C4B62338   7.049  19.595   7.315
 4885POPC   NC362339  24.826   2.095   5.392
 4885POPC   PO462340  24.293   1.705   5.447
 4885POPC   GL162341  24.479   1.826   5.825
 4885POPC   GL262342  24.520   2.181   5.802
 4885POPC   C1A62343  24.345   1.833   6.267
 4885POPC   D2A62344  24.224   1.688   6.676
 4885POPC   C3A62345  24.315   1.941   7.040
 4885POPC   C4A62346  24.307   2.351   7.208
 4885POPC   C1B62347  24.787   2.066   6.170
 4885POPC   C2B62348  24.714   2.028   6.593
 4885POPC   C3B62349  24.766   2.157   6.993
 4885POPC   C4B62350  24.689   2.108   7.427
 4886POPC   NC362351  42.394  30.865   5.244
 4886POPC   PO462352  42.491  30.311   5.618
 4886POPC   GL162353  42.183  30.622   5.712
 4886POPC   GL262354  42.363  30.843   5.858
 4886POPC   C1A62355  42.015  30.637   6.149
 4886POPC   D2A62356  42.175  30.473   6.552
 4886POPC   C3A62357  42.108  30.730   6.905
 4886POPC   C4A62358  42.076  30.686   7.346
 4886POPC   C1B62359  42.537  30.539   6.194
 4886POPC   C2B62360  42.686  30.446   6.575
 4886POPC   C3B62361  42.546  30.468   6.983
 4886POPC   C4B62362  42.578  30.737   7.301
 4887POPC   NC362363  39.695  26.707   5.404
 4887POPC   PO462364  40.331  26.981   5.310
 4887POPC   GL162365  40.098  26.893   5.714
 4887POPC   GL262366  40.307  26.683   5.863
 4887POPC   C1A62367  39.969  26.918   6.188
 4887POPC   D2A62368  39.726  26.988   6.583
 4887POPC   C3A62369  39.908  26.998   6.996
 4887POPC   C4A62370  39.744  26.775   7.346
 4887POPC   C1B62371  40.249  26.482   6.238
 4887POPC   C2B62372  40.161  26.649   6.612
 4887POPC   C3B62373  40.058  26.508   6.987
 4887POPC   C4B62374  40.238  26.673   7.325
 4888POPC   NC362375  16.938  18.592   5.334
 4888POPC   PO462376  16.669  17.972   5.456
 4888POPC   GL162377  16.655  18.346   5.746
 4888POPC   GL262378  17.012  18.396   5.804
 4888POPC   C1A62379  16.713  18.589   6.165
 4888POPC   D2A62380  16.858  18.463   6.557
 4888POPC   C3A62381  16.559  18.511   6.872
 4888POPC   C4A62382  16.572  18.395   7.281
 4888POPC   C1B62383  16.881  18.090   6.145
 4888POPC   C2B62384  17.011  17.956   6.561
 4888POPC   C3B62385  16.883  18.090   6.974
 4888POPC   C4B62386  17.022  18.116   7.401
 4889POPC   NC362387  18.639  30.470   5.654
 4889POPC   PO462388  18.103  30.059   5.409
 4889POPC   GL162389  18.180  29.953   5.822
 4889POPC   GL262390  18.486  29.781   5.846
 4889POPC   C1A62391  18.126  29.785   6.230
 4889POPC   D2A62392  18.364  29.700   6.590
 4889POPC   C3A62393  18.231  29.879   6.939
 4889POPC   C4A62394  18.158  29.911   7.358
 4889POPC   C1B62395  18.620  30.005   6.173
 4889POPC   C2B62396  18.611  30.173   6.560
 4889POPC   C3B62397  18.743  29.933   6.887
 4889POPC   C4B62398  18.650  29.920   7.269
 4890POPC   NC362399   8.844  29.587   5.493
 4890POPC   PO462400   8.936  30.282   5.505
 4890POPC   GL162401   8.938  29.979   5.845
 4890POPC   GL262402   9.254  29.796   5.790
 4890POPC   C1A62403   8.955  29.983   6.301
 4890POPC   D2A62404   9.284  30.203   6.558
 4890POPC   C3A62405   9.211  30.061   6.977
 4890POPC   C4A62406   8.876  29.821   7.198
 4890POPC   C1B62407   9.429  29.837   6.197
 4890POPC   C2B62408   9.386  29.594   6.589
 4890POPC   C3B62409   9.319  29.509   7.031
 4890POPC   C4B62410   9.231  29.581   7.483
 4891POPC   NC362411  18.394   3.873   5.289
 4891POPC   PO462412  17.890   3.491   5.608
 4891POPC   GL162413  18.275   3.668   5.794
 4891POPC   GL262414  18.491   3.381   5.670
 4891POPC   C1A62415  18.397   3.827   6.238
 4891POPC   D2A62416  18.525   3.750   6.683
 4891POPC   C3A62417  18.220   3.616   7.030
 4891POPC   C4A62418  18.600   3.735   7.280
 4891POPC   C1B62419  18.477   3.328   6.144
 4891POPC   C2B62420  18.343   3.278   6.614
 4891POPC   C3B62421  18.576   3.285   7.054
 4891POPC   C4B62422  18.404   3.299   7.488
 4892POPC   NC362423  40.167  24.832   5.223
 4892POPC   PO462424  39.964  25.453   5.382
 4892POPC   GL162425  40.033  25.389   5.821
 4892POPC   GL262426  40.020  25.019   5.922
 4892POPC   C1A62427  40.092  25.400   6.271
 4892POPC   D2A62428  40.004  25.189   6.644
 4892POPC   C3A62429  39.901  25.492   6.935
 4892POPC   C4A62430  39.970  25.617   7.330
 4892POPC   C1B62431  39.706  24.931   6.269
 4892POPC   C2B62432  39.561  24.902   6.697
 4892POPC   C3B62433  39.791  25.004   7.080
 4892POPC   C4B62434  40.216  24.837   7.210
 4893POPC   NC362435  41.155   0.916   5.062
 4893POPC   PO462436  41.161   0.321   5.436
 4893POPC   GL162437  40.889   0.384   5.759
 4893POPC   GL262438  41.143   0.620   5.858
 4893POPC   C1A62439  40.717   0.367   6.186
 4893POPC   D2A62440  40.497   0.305   6.588
 4893POPC   C3A62441  40.738   0.327   6.944
 4893POPC   C4A62442  40.594   0.647   7.213
 4893POPC   C1B62443  41.250   0.214   6.091
 4893POPC   C2B62444  41.215   0.112   6.511
 4893POPC   C3B62445  41.297   0.321   6.867
 4893POPC   C4B62446  41.152   0.396   7.267
 4894POPC   NC362447  33.008  42.934   5.516
 4894POPC   PO462448  33.287  43.480   5.484
 4894POPC   GL162449  33.276  43.267   5.828
 4894POPC   GL262450  32.945  43.310   5.854
 4894POPC   C1A62451  33.263  43.125   6.239
 4894POPC   D2A62452  33.353  42.905   6.590
 4894POPC   C3A62453  33.203  43.112   6.902
 4894POPC   C4A62454  33.249  43.049   7.301
 4894POPC   C1B62455  32.734  43.102   6.165
 4894POPC   C2B62456  32.829  42.979   6.545
 4894POPC   C3B62457  32.716  43.183   6.922
 4894POPC   C4B62458  32.746  43.084   7.316
 4895POPC   NC362459  10.807  14.967   5.328
 4895POPC   PO462460  10.431  15.564   5.516
 4895POPC   GL162461  10.331  15.175   5.762
 4895POPC   GL262462  10.524  15.252   6.040
 4895POPC   C1A62463  10.100  15.026   6.163
 4895POPC   D2A62464  10.354  15.136   6.524
 4895POPC   C3A62465  10.390  15.161   6.959
 4895POPC   C4A62466  10.624  14.958   7.262
 4895POPC   C1B62467  10.716  15.481   6.391
 4895POPC   C2B62468  10.728  15.695   6.803
 4895POPC   C3B62469  10.734  15.485   7.205
 4895POPC   C4B62470  10.416  15.353   7.462
 4896POPC   NC362471  23.500   2.709   5.335
 4896POPC   PO462472  24.078   2.912   5.310
 4896POPC   GL162473  23.776   2.798   5.762
 4896POPC   GL262474  23.448   2.624   5.841
 4896POPC   C1A62475  23.714   2.928   6.225
 4896POPC   D2A62476  23.962   2.869   6.612
 4896POPC   C3A62477  23.798   3.068   7.021
 4896POPC   C4A62478  23.912   3.012   7.476
 4896POPC   C1B62479  23.605   2.439   6.194
 4896POPC   C2B62480  23.583   2.555   6.639
 4896POPC   C3B62481  23.848   2.548   7.016
 4896POPC   C4B62482  23.595   2.498   7.364
 4897POPC   NC362483   7.537  37.020   5.344
 4897POPC   PO462484   6.916  36.603   5.515
 4897POPC   GL162485   7.086  36.911   5.828
 4897POPC   GL262486   7.464  36.878   5.815
 4897POPC   C1A62487   7.271  37.070   6.221
 4897POPC   D2A62488   7.572  37.064   6.507
 4897POPC   C3A62489   7.410  37.037   6.890
 4897POPC   C4A62490   7.367  37.275   7.246
 4897POPC   C1B62491   7.611  36.637   6.181
 4897POPC   C2B62492   7.577  36.552   6.622
 4897POPC   C3B62493   7.610  36.605   7.068
 4897POPC   C4B62494   7.714  36.935   7.298
 4898POPC   NC362495  42.374  32.563   5.464
 4898POPC   PO462496  42.032  32.064   5.374
 4898POPC   GL162497  42.196  32.167   5.765
 4898POPC   GL262498  42.552  32.119   5.788
 4898POPC   C1A62499  42.194  32.134   6.197
 4898POPC   D2A62500  42.176  31.937   6.572
 4898POPC   C3A62501  41.951  32.231   6.778
 4898POPC   C4A62502  42.222  32.381   7.002
 4898POPC   C1B62503  42.525  32.488   6.083
 4898POPC   C2B62504  42.411  32.507   6.522
 4898POPC   C3B62505  42.695  32.362   6.833
 4898POPC   C4B62506  42.935  32.122   7.096
 4899POPC   NC362507  32.796  30.647   5.426
 4899POPC   PO462508  33.431  30.856   5.595
 4899POPC   GL162509  33.078  30.759   5.847
 4899POPC   GL262510  32.791  30.961   5.821
 4899POPC   C1A62511  32.913  30.632   6.245
 4899POPC   D2A62512  32.987  30.872   6.633
 4899POPC   C3A62513  32.957  30.692   7.067
 4899POPC   C4A62514  32.929  30.527   7.518
 4899POPC   C1B62515  32.569  31.005   6.174
 4899POPC   C2B62516  32.468  30.947   6.585
 4899POPC   C3B62517  32.655  31.082   6.969
 4899POPC   C4B62518  32.621  30.911   7.405
 4900POPC   NC362519  41.758  14.800   5.478
 4900POPC   PO462520  41.409  15.415   5.355
 4900POPC   GL162521  41.348  15.229   5.768
 4900POPC   GL262522  41.476  14.944   5.873
 4900POPC   C1A62523  41.420  15.331   6.189
 4900POPC   D2A62524  41.317  15.107   6.548
 4900POPC   C3A62525  41.391  15.273   6.950
 4900POPC   C4A62526  41.402  15.103   7.387
 4900POPC   C1B62527  41.772  14.964   6.180
 4900POPC   C2B62528  41.745  14.796   6.552
 4900POPC   C3B62529  41.854  14.947   6.936
 4900POPC   C4B62530  41.762  14.755   7.307
 4901POPC   NC362531  23.513  35.488   5.453
 4901POPC   PO462532  24.197  35.411   5.556
 4901POPC   GL162533  23.971  35.460   5.945
 4901POPC   GL262534  23.660  35.246   5.906
 4901POPC   C1A62535  23.959  35.236   6.373
 4901POPC   D2A62536  23.685  34.994   6.654
 4901POPC   C3A62537  23.840  35.119   7.046
 4901POPC   C4A62538  23.903  35.525   7.206
 4901POPC   C1B62539  23.541  35.502   6.280
 4901POPC   C2B62540  23.674  35.513   6.732
 4901POPC   C3B62541  23.428  35.614   7.098
 4901POPC   C4B62542  23.326  35.473   7.515
 4902POPC   NC362543  13.954   8.433   5.725
 4902POPC   PO462544  13.575   8.049   5.295
 4902POPC   GL162545  13.635   8.017   5.775
 4902POPC   GL262546  13.788   7.707   5.825
 4902POPC   C1A62547  13.555   8.236   6.220
 4902POPC   D2A62548  13.464   8.594   6.543
 4902POPC   C3A62549  13.619   8.465   6.950
 4902POPC   C4A62550  13.484   8.053   7.110
 4902POPC   C1B62551  13.955   7.900   6.238
 4902POPC   C2B62552  13.814   7.981   6.703
 4902POPC   C3B62553  13.973   7.916   7.152
 4902POPC   C4B62554  13.892   7.959   7.651
 4903POPC   NC362555  38.761  35.540   5.309
 4903POPC   PO462556  39.063  35.038   5.424
 4903POPC   GL162557  39.074  35.274   5.806
 4903POPC   GL262558  38.868  35.547   5.810
 4903POPC   C1A62559  39.366  35.445   6.145
 4903POPC   D2A62560  39.463  35.768   6.461
 4903POPC   C3A62561  39.358  35.722   6.907
 4903POPC   C4A62562  39.410  35.596   7.356
 4903POPC   C1B62563  38.853  35.399   6.251
 4903POPC   C2B62564  39.137  35.352   6.604
 4903POPC   C3B62565  39.233  35.222   7.026
 4903POPC   C4B62566  38.958  35.233   7.377
 4904POPC   NC362567  34.274   4.554   5.595
 4904POPC   PO462568  34.845   4.172   5.521
 4904POPC   GL162569  34.557   4.193   5.829
 4904POPC   GL262570  34.210   4.040   5.746
 4904POPC   C1A62571  34.594   4.300   6.249
 4904POPC   D2A62572  34.673   4.121   6.638
 4904POPC   C3A62573  34.579   4.374   6.966
 4904POPC   C4A62574  34.562   4.310   7.359
 4904POPC   C1B62575  34.085   4.222   6.148
 4904POPC   C2B62576  34.191   4.214   6.564
 4904POPC   C3B62577  34.216   4.017   6.941
 4904POPC   C4B62578  34.071   4.169   7.367
 4905POPC   NC362579  19.645  19.414   5.645
 4905POPC   PO462580  19.680  19.873   5.131
 4905POPC   GL162581  19.580  19.911   5.624
 4905POPC   GL262582  19.907  19.865   5.804
 4905POPC   C1A62583  19.516  19.819   6.136
 4905POPC   D2A62584  19.776  19.865   6.533
 4905POPC   C3A62585  19.638  19.778   6.941
 4905POPC   C4A62586  19.640  19.860   7.358
 4905POPC   C1B62587  19.990  19.570   6.188
 4905POPC   C2B62588  20.245  19.588   6.568
 4905POPC   C3B62589  20.146  19.854   6.889
 4905POPC   C4B62590  20.144  19.655   7.233
 4906POPC   NC362591   8.587   3.523   5.332
 4906POPC   PO462592   7.890   3.453   5.395
 4906POPC   GL162593   8.210   3.422   5.663
 4906POPC   GL262594   7.996   3.415   5.897
 4906POPC   C1A62595   8.455   3.590   6.025
 4906POPC   D2A62596   8.545   3.765   6.432
 4906POPC   C3A62597   8.272   3.686   6.817
 4906POPC   C4A62598   8.357   3.743   7.273
 4906POPC   C1B62599   7.990   3.593   6.261
 4906POPC   C2B62600   7.849   3.487   6.612
 4906POPC   C3B62601   7.778   3.610   6.967
 4906POPC   C4B62602   7.897   3.538   7.293
 4907POPC   NC362603   0.360   3.949   5.575
 4907POPC   PO462604   0.155   4.515   5.254
 4907POPC   GL162605   0.270   4.438   5.701
 4907POPC   GL262606   0.646   4.516   5.680
 4907POPC   C1A62607   0.126   4.410   6.170
 4907POPC   D2A62608  44.887   4.527   6.561
 4907POPC   C3A62609  44.986   4.294   6.887
 4907POPC   C4A62610   0.289   4.362   7.201
 4907POPC   C1B62611   0.769   4.623   6.114
 4907POPC   C2B62612   0.783   4.438   6.532
 4907POPC   C3B62613   0.731   4.299   6.950
 4907POPC   C4B62614   0.664   4.054   7.334
 4908POPC   NC362615  37.447  17.812   5.599
 4908POPC   PO462616  38.116  17.541   5.420
 4908POPC   GL162617  37.844  17.481   5.829
 4908POPC   GL262618  37.459  17.392   5.874
 4908POPC   C1A62619  37.748  17.639   6.253
 4908POPC   D2A62620  37.804  17.813   6.671
 4908POPC   C3A62621  37.745  17.499   6.963
 4908POPC   C4A62622  38.012  17.412   7.307
 4908POPC   C1B62623  37.230  17.695   6.181
 4908POPC   C2B62624  37.283  17.837   6.566
 4908POPC   C3B62625  37.088  17.850   6.929
 4908POPC   C4B62626  37.376  17.715   7.244
 4909POPC   NC362627  21.433  39.688   5.375
 4909POPC   PO462628  21.235  40.317   5.457
 4909POPC   GL162629  21.376  40.063   5.828
 4909POPC   GL262630  21.153  39.758   5.798
 4909POPC   C1A62631  21.468  40.121   6.309
 4909POPC   D2A62632  21.626  39.963   6.735
 4909POPC   C3A62633  21.498  40.178   7.161
 4909POPC   C4A62634  21.424  40.173   7.642
 4909POPC   C1B62635  21.023  39.892   6.186
 4909POPC   C2B62636  21.191  39.720   6.553
 4909POPC   C3B62637  21.155  39.871   6.957
 4909POPC   C4B62638  21.320  39.709   7.342
 4910POPC   NC362639  37.106  35.425   5.378
 4910POPC   PO462640  36.463  35.117   5.433
 4910POPC   GL162641  36.797  35.161   5.746
 4910POPC   GL262642  36.842  35.506   5.816
 4910POPC   C1A62643  37.001  35.125   6.159
 4910POPC   D2A62644  36.979  34.911   6.548
 4910POPC   C3A62645  37.014  35.051   6.972
 4910POPC   C4A62646  36.909  35.243   7.365
 4910POPC   C1B62647  36.805  35.587   6.257
 4910POPC   C2B62648  36.753  35.374   6.647
 4910POPC   C3B62649  36.935  35.581   6.995
 4910POPC   C4B62650  36.815  35.795   7.375
 4911POPC   NC362651  29.388  27.617   5.496
 4911POPC   PO462652  28.726  27.502   5.239
 4911POPC   GL162653  28.943  27.401   5.635
 4911POPC   GL262654  28.937  27.761   5.733
 4911POPC   C1A62655  29.171  27.385   6.062
 4911POPC   D2A62656  29.428  27.688   6.329
 4911POPC   C3A62657  29.397  27.626   6.784
 4911POPC   C4A62658  29.182  27.768   7.163
 4911POPC   C1B62659  28.930  27.827   6.163
 4911POPC   C2B62660  28.890  27.544   6.519
 4911POPC   C3B62661  28.752  27.714   6.904
 4911POPC   C4B62662  28.646  28.037   7.209
 4912POPC   NC362663  12.254  33.353   5.574
 4912POPC   PO462664  12.017  32.739   5.372
 4912POPC   GL162665  11.977  32.836   5.826
 4912POPC   GL262666  11.808  33.136   5.870
 4912POPC   C1A62667  12.205  33.048   6.185
 4912POPC   D2A62668  12.218  33.257   6.593
 4912POPC   C3A62669  12.195  32.986   6.959
 4912POPC   C4A62670  12.158  33.094   7.366
 4912POPC   C1B62671  11.735  33.200   6.315
 4912POPC   C2B62672  11.737  32.949   6.695
 4912POPC   C3B62673  11.707  33.036   7.139
 4912POPC   C4B62674  11.687  33.192   7.579
 4913POPC   NC362675  11.341  41.176   5.240
 4913POPC   PO462676  10.933  41.600   5.484
 4913POPC   GL162677  11.072  41.729   5.880
 4913POPC   GL262678  11.388  41.925   5.771
 4913POPC   C1A62679  11.012  41.580   6.308
 4913POPC   D2A62680  11.098  41.348   6.662
 4913POPC   C3A62681  11.217  41.543   7.058
 4913POPC   C4A62682  11.483  41.451   7.403
 4913POPC   C1B62683  11.486  41.706   6.161
 4913POPC   C2B62684  11.413  41.762   6.586
 4913POPC   C3B62685  11.666  41.806   6.917
 4913POPC   C4B62686  11.896  41.708   7.248
 4914POPC   NC362687  15.886  16.376   5.138
 4914POPC   PO462688  15.696  16.924   5.586
 4914POPC   GL162689  15.795  16.869   5.953
 4914POPC   GL262690  16.017  16.634   5.887
 4914POPC   C1A62691  15.717  16.955   6.363
 4914POPC   D2A62692  16.093  16.956   6.594
 4914POPC   C3A62693  16.105  16.928   7.026
 4914POPC   C4A62694  15.793  16.968   7.340
 4914POPC   C1B62695  15.994  16.511   6.293
 4914POPC   C2B62696  15.806  16.529   6.679
 4914POPC   C3B62697  15.761  16.523   7.105
 4914POPC   C4B62698  15.668  16.386   7.523
 4915POPC   NC362699  30.617  29.585   5.253
 4915POPC   PO462700  30.280  29.105   5.376
 4915POPC   GL162701  30.566  28.987   5.726
 4915POPC   GL262702  30.754  29.275   5.780
 4915POPC   C1A62703  30.763  28.954   6.174
 4915POPC   D2A62704  30.802  29.217   6.545
 4915POPC   C3A62705  30.754  29.022   6.934
 4915POPC   C4A62706  30.609  28.952   7.351
 4915POPC   C1B62707  30.417  29.300   6.172
 4915POPC   C2B62708  30.315  29.432   6.589
 4915POPC   C3B62709  30.260  29.240   6.982
 4915POPC   C4B62710  30.302  29.346   7.420
 4916POPC   NC362711  20.357  43.381   5.483
 4916POPC   PO462712  20.910  43.034   5.480
 4916POPC   GL162713  20.643  42.994   5.791
 4916POPC   GL262714  20.712  43.341   5.908
 4916POPC   C1A62715  20.627  42.818   6.193
 4916POPC   D2A62716  20.566  43.039   6.564
 4916POPC   C3A62717  20.650  42.874   6.965
 4916POPC   C4A62718  20.533  43.099   7.325
 4916POPC   C1B62719  21.004  43.168   6.262
 4916POPC   C2B62720  21.093  43.102   6.735
 4916POPC   C3B62721  21.035  43.137   7.209
 4916POPC   C4B62722  20.915  43.365   7.599
 4917POPC   NC362723  13.177  14.515   5.407
 4917POPC   PO462724  12.721  14.001   5.376
 4917POPC   GL162725  12.826  14.229   5.732
 4917POPC   GL262726  13.181  14.124   5.729
 4917POPC   C1A62727  12.650  14.443   6.123
 4917POPC   D2A62728  12.426  14.354   6.504
 4917POPC   C3A62729  12.622  14.362   6.872
 4917POPC   C4A62730  12.674  14.255   7.267
 4917POPC   C1B62731  13.165  14.368   6.108
 4917POPC   C2B62732  13.016  14.307   6.530
 4917POPC   C3B62733  13.051  14.085   6.951
 4917POPC   C4B62734  13.229  14.322   7.292
 4918POPC   NC362735   3.378  27.912   5.364
 4918POPC   PO462736   3.857  27.461   5.557
 4918POPC   GL162737   3.536  27.681   5.821
 4918POPC   GL262738   3.174  27.692   5.793
 4918POPC   C1A62739   3.394  27.517   6.212
 4918POPC   D2A62740   3.588  27.282   6.502
 4918POPC   C3A62741   3.606  27.517   6.854
 4918POPC   C4A62742   3.602  27.315   7.203
 4918POPC   C1B62743   3.088  27.931   6.193
 4918POPC   C2B62744   3.249  27.853   6.598
 4918POPC   C3B62745   3.107  27.888   7.002
 4918POPC   C4B62746   3.219  27.645   7.331
 4919POPC   NC362747  36.535  44.100   5.569
 4919POPC   PO462748  37.153  44.053   5.380
 4919POPC   GL162749  36.981  43.840   5.740
 4919POPC   GL262750  37.042  44.126   5.918
 4919POPC   C1A62751  36.890  43.697   6.153
 4919POPC   D2A62752  36.905  43.956   6.525
 4919POPC   C3A62753  36.947  43.663   6.862
 4919POPC   C4A62754  37.078  43.661   7.253
 4919POPC   C1B62755  37.345  44.142   6.256
 4919POPC   C2B62756  37.295  44.315   6.669
 4919POPC   C3B62757  37.219  44.267   7.114
 4919POPC   C4B62758  36.831  44.261   7.290
 4920POPC   NC362759  27.449   6.083   5.329
 4920POPC   PO462760  27.692   5.438   5.306
 4920POPC   GL162761  27.648   5.614   5.733
 4920POPC   GL262762  27.914   5.429   5.886
 4920POPC   C1A62763  27.465   5.879   6.085
 4920POPC   D2A62764  27.454   6.109   6.481
 4920POPC   C3A62765  27.520   5.944   6.905
 4920POPC   C4A62766  27.327   6.151   7.253
 4920POPC   C1B62767  27.676   5.456   6.268
 4920POPC   C2B62768  27.836   5.568   6.674
 4920POPC   C3B62769  27.649   5.467   7.061
 4920POPC   C4B62770  27.432   5.663   7.376
 4921POPC   NC362771  26.197  34.942   5.373
 4921POPC   PO462772  25.967  35.502   5.170
 4921POPC   GL162773  26.080  35.425   5.634
 4921POPC   GL262774  25.942  35.139   5.784
 4921POPC   C1A62775  26.175  35.470   6.124
 4921POPC   D2A62776  26.077  35.320   6.574
 4921POPC   C3A62777  26.203  35.425   7.013
 4921POPC   C4A62778  25.902  35.445   7.373
 4921POPC   C1B62779  25.967  34.984   6.185
 4921POPC   C2B62780  25.791  34.863   6.579
 4921POPC   C3B62781  25.822  35.054   6.966
 4921POPC   C4B62782  25.609  35.019   7.321
 4922POPC   NC362783  44.079  21.011   5.516
 4922POPC   PO462784  43.547  20.756   5.626
 4922POPC   GL162785  43.856  20.585   5.919
 4922POPC   GL262786  44.194  20.537   5.766
 4922POPC   C1A62787  43.831  20.588   6.414
 4922POPC   D2A62788  43.473  20.540   6.761
 4922POPC   C3A62789  43.521  20.535   7.228
 4922POPC   C4A62790  43.537  20.447   7.689
 4922POPC   C1B62791  44.248  20.846   6.133
 4922POPC   C2B62792  44.146  21.006   6.568
 4922POPC   C3B62793  44.017  20.766   6.955
 4922POPC   C4B62794  44.264  20.396   7.131
 4923POPC   NC362795  29.383  36.895   5.369
 4923POPC   PO462796  28.773  36.778   5.154
 4923POPC   GL162797  28.950  36.851   5.654
 4923POPC   GL262798  29.234  36.647   5.791
 4923POPC   C1A62799  29.156  37.065   6.058
 4923POPC   D2A62800  29.277  36.858   6.443
 4923POPC   C3A62801  29.029  36.958   6.797
 4923POPC   C4A62802  28.993  37.164   7.148
 4923POPC   C1B62803  28.949  36.569   6.140
 4923POPC   C2B62804  28.930  36.499   6.596
 4923POPC   C3B62805  29.302  36.510   6.860
 4923POPC   C4B62806  29.333  36.776   7.201
 4924POPC   NC362807  43.402  16.569   5.214
 4924POPC   PO462808  42.758  16.685   5.232
 4924POPC   GL162809  42.922  16.676   5.664
 4924POPC   GL262810  43.280  16.647   5.710
 4924POPC   C1A62811  42.833  16.781   6.118
 4924POPC   D2A62812  43.014  16.761   6.537
 4924POPC   C3A62813  42.837  16.827   6.964
 4924POPC   C4A62814  42.882  16.555   7.379
 4924POPC   C1B62815  43.422  16.818   6.105
 4924POPC   C2B62816  43.565  16.723   6.512
 4924POPC   C3B62817  43.367  16.649   6.908
 4924POPC   C4B62818  43.254  16.887   7.255
 4925POPC   NC362819   2.857  22.517   5.554
 4925POPC   PO462820   2.816  21.869   5.458
 4925POPC   GL162821   2.784  22.073   5.838
 4925POPC   GL262822   3.112  22.071   5.852
 4925POPC   C1A62823   2.661  22.205   6.257
 4925POPC   D2A62824   2.548  22.078   6.665
 4925POPC   C3A62825   2.806  22.064   7.026
 4925POPC   C4A62826   2.523  22.285   7.246
 4925POPC   C1B62827   3.102  21.917   6.239
 4925POPC   C2B62828   2.931  21.759   6.582
 4925POPC   C3B62829   2.987  21.597   6.956
 4925POPC   C4B62830   2.832  21.689   7.377
 4926POPC   NC362831  44.924  37.058   5.187
 4926POPC   PO462832  44.293  36.892   5.385
 4926POPC   GL162833  44.494  36.937   5.792
 4926POPC   GL262834  44.859  36.823   5.741
 4926POPC   C1A62835  44.553  36.729   6.194
 4926POPC   D2A62836  44.727  36.623   6.603
 4926POPC   C3A62837  44.447  36.754   6.956
 4926POPC   C4A62838  44.457  37.050   7.305
 4926POPC   C1B62839   0.011  37.011   6.119
 4926POPC   C2B62840  44.789  37.116   6.481
 4926POPC   C3B62841  44.812  37.169   6.912
 4926POPC   C4B62842  44.922  36.869   7.136
 4927POPC   NC362843  14.966  35.127   5.508
 4927POPC   PO462844  15.306  35.615   5.452
 4927POPC   GL162845  15.278  35.559   5.893
 4927POPC   GL262846  14.950  35.551   5.964
 4927POPC   C1A62847  15.278  35.765   6.317
 4927POPC   D2A62848  15.091  35.734   6.744
 4927POPC   C3A62849  15.352  35.561   7.066
 4927POPC   C4A62850  15.426  35.259   7.424
 4927POPC   C1B62851  14.918  35.407   6.378
 4927POPC   C2B62852  15.082  35.202   6.721
 4927POPC   C3B62853  14.968  35.217   7.106
 4927POPC   C4B62854  14.620  35.353   7.300
 4928POPC   NC362855  13.794   5.280   5.524
 4928POPC   PO462856  13.304   4.933   5.531
 4928POPC   GL162857  13.465   5.167   5.893
 4928POPC   GL262858  13.774   4.988   5.959
 4928POPC   C1A62859  13.728   5.380   6.252
 4928POPC   D2A62860  13.800   5.562   6.675
 4928POPC   C3A62861  13.730   5.380   7.129
 4928POPC   C4A62862  13.539   5.392   7.594
 4928POPC   C1B62863  13.473   4.960   6.355
 4928POPC   C2B62864  13.564   5.012   6.802
 4928POPC   C3B62865  13.425   4.984   7.243
 4928POPC   C4B62866  13.364   4.665   7.578
 4929POPC   NC362867  21.954  35.929   5.622
 4929POPC   PO462868  22.304  35.416   5.250
 4929POPC   GL162869  22.404  35.349   5.711
 4929POPC   GL262870  22.137  35.516   5.859
 4929POPC   C1A62871  22.259  35.126   6.151
 4929POPC   D2A62872  22.324  35.307   6.551
 4929POPC   C3A62873  22.571  35.229   6.906
 4929POPC   C4A62874  22.413  35.209   7.307
 4929POPC   C1B62875  22.106  35.712   6.285
 4929POPC   C2B62876  21.953  35.598   6.720
 4929POPC   C3B62877  22.010  35.278   6.998
 4929POPC   C4B62878  22.107  35.615   7.263
 4930POPC   NC362879   4.159  43.334   5.333
 4930POPC   PO462880   4.193  42.734   5.576
 4930POPC   GL162881   4.396  43.049   5.827
 4930POPC   GL262882   4.356  43.401   5.790
 4930POPC   C1A62883   4.253  43.143   6.237
 4930POPC   D2A62884   3.978  43.192   6.591
 4930POPC   C3A62885   4.117  42.969   6.965
 4930POPC   C4A62886   4.359  43.153   7.316
 4930POPC   C1B62887   4.559  43.557   6.140
 4930POPC   C2B62888   4.463  43.503   6.564
 4930POPC   C3B62889   4.642  43.414   6.950
 4930POPC   C4B62890   4.579  43.623   7.315
 4931POPC   NC362891  18.046  26.796   5.122
 4931POPC   PO462892  18.563  27.207   5.304
 4931POPC   GL162893  18.302  27.091   5.704
 4931POPC   GL262894  18.610  27.036   5.894
 4931POPC   C1A62895  18.255  26.797   6.113
 4931POPC   D2A62896  18.304  26.839   6.535
 4931POPC   C3A62897  18.215  26.626   6.937
 4931POPC   C4A62898  18.342  26.845   7.328
 4931POPC   C1B62899  18.661  27.216   6.281
 4931POPC   C2B62900  18.931  27.118   6.608
 4931POPC   C3B62901  18.797  27.148   7.042
 4931POPC   C4B62902  18.784  27.024   7.470
 4932POPC   NC362903   1.373  30.967   5.334
 4932POPC   PO462904   0.905  30.489   5.487
 4932POPC   GL162905   1.090  30.834   5.760
 4932POPC   GL262906   1.471  30.844   5.816
 4932POPC   C1A62907   1.117  30.895   6.232
 4932POPC   D2A62908   1.275  30.615   6.598
 4932POPC   C3A62909   1.094  30.648   7.018
 4932POPC   C4A62910   0.951  30.280   7.207
 4932POPC   C1B62911   1.626  30.871   6.236
 4932POPC   C2B62912   1.489  31.066   6.593
 4932POPC   C3B62913   1.571  30.855   6.982
 4932POPC   C4B62914   1.506  30.541   7.315
 4933POPC   NC362915  12.080  10.061   5.191
 4933POPC   PO462916  12.256   9.483   5.356
 4933POPC   GL162917  12.172   9.769   5.781
 4933POPC   GL262918  12.136  10.138   5.755
 4933POPC   C1A62919  12.112   9.637   6.264
 4933POPC   D2A62920  12.221   9.471   6.711
 4933POPC   C3A62921  12.019   9.656   7.100
 4933POPC   C4A62922  11.665   9.943   7.225
 4933POPC   C1B62923  11.870  10.076   6.154
 4933POPC   C2B62924  11.818  10.300   6.554
 4933POPC   C3B62925  11.994  10.215   6.958
 4933POPC   C4B62926  12.131  10.094   7.362
 4934POPC   NC362927  35.190  33.851   5.606
 4934POPC   PO462928  35.819  33.657   5.417
 4934POPC   GL162929  35.628  33.848   5.869
 4934POPC   GL262930  35.699  33.535   6.094
 4934POPC   C1A62931  35.357  33.927   6.273
 4934POPC   D2A62932  34.993  33.694   6.480
 4934POPC   C3A62933  34.900  33.715   6.927
 4934POPC   C4A62934  34.957  33.986   7.291
 4934POPC   C1B62935  35.740  33.426   6.498
 4934POPC   C2B62936  35.465  33.648   6.711
 4934POPC   C3B62937  35.396  33.948   6.983
 4934POPC   C4B62938  35.316  33.629   7.267
 4935POPC   NC362939  27.072  12.760   5.299
 4935POPC   PO462940  27.797  12.893   5.295
 4935POPC   GL162941  27.593  12.905   5.693
 4935POPC   GL262942  27.402  13.201   5.752
 4935POPC   C1A62943  27.542  12.803   6.130
 4935POPC   D2A62944  27.673  12.839   6.557
 4935POPC   C3A62945  28.027  12.641   6.743
 4935POPC   C4A62946  27.861  12.696   7.145
 4935POPC   C1B62947  27.235  13.195   6.172
 4935POPC   C2B62948  27.178  13.063   6.610
 4935POPC   C3B62949  27.357  12.879   6.997
 4935POPC   C4B62950  27.284  12.998   7.434
 4936POPC   NC362951   8.349  40.698   5.553
 4936POPC   PO462952   7.987  41.142   5.371
 4936POPC   GL162953   8.024  40.982   5.819
 4936POPC   GL262954   7.900  40.611   5.834
 4936POPC   C1A62955   8.328  41.010   6.190
 4936POPC   D2A62956   8.534  41.130   6.583
 4936POPC   C3A62957   8.433  40.975   7.005
 4936POPC   C4A62958   8.315  41.119   7.402
 4936POPC   C1B62959   7.905  40.740   6.261
 4936POPC   C2B62960   8.136  40.769   6.648
 4936POPC   C3B62961   8.070  40.593   7.080
 4936POPC   C4B62962   7.936  40.347   7.433
 4937POPC   NC362963   4.637  18.661   5.374
 4937POPC   PO462964   3.905  18.752   5.293
 4937POPC   GL162965   4.212  18.932   5.661
 4937POPC   GL262966   4.352  19.306   5.706
 4937POPC   C1A62967   4.289  19.016   6.134
 4937POPC   D2A62968   4.442  18.982   6.570
 4937POPC   C3A62969   4.083  19.017   6.858
 4937POPC   C4A62970   4.089  18.865   7.246
 4937POPC   C1B62971   4.510  19.475   6.127
 4937POPC   C2B62972   4.634  19.497   6.574
 4937POPC   C3B62973   4.493  19.329   6.956
 4937POPC   C4B62974   4.546  19.221   7.386
 4938POPC   NC362975   8.811  35.857   5.317
 4938POPC   PO462976   9.080  36.496   5.240
 4938POPC   GL162977   8.985  36.285   5.657
 4938POPC   GL262978   9.187  36.013   5.749
 4938POPC   C1A62979   9.025  36.311   6.130
 4938POPC   D2A62980   8.969  36.072   6.498
 4938POPC   C3A62981   8.978  36.222   6.900
 4938POPC   C4A62982   8.825  35.990   7.208
 4938POPC   C1B62983   9.395  35.984   6.226
 4938POPC   C2B62984   9.407  35.927   6.724
 4938POPC   C3B62985   9.332  35.905   7.201
 4938POPC   C4B62986   9.461  35.963   7.708
 4939POPC   NC362987  38.435  27.904   5.512
 4939POPC   PO462988  38.806  27.383   5.318
 4939POPC   GL162989  38.444  27.375   5.682
 4939POPC   GL262990  38.524  27.645   5.935
 4939POPC   C1A62991  38.202  27.313   6.138
 4939POPC   D2A62992  38.377  27.343   6.591
 4939POPC   C3A62993  38.171  27.409   7.020
 4939POPC   C4A62994  38.125  27.780   7.195
 4939POPC   C1B62995  38.871  27.698   6.239
 4939POPC   C2B62996  38.920  27.493   6.636
 4939POPC   C3B62997  38.673  27.433   7.022
 4939POPC   C4B62998  38.601  27.697   7.388
 4940POPC   NC362999   2.859   9.208   5.463
 4940POPC   PO463000   2.271   8.885   5.302
 4940POPC   GL163001   2.494   8.891   5.724
 4940POPC   GL263002   2.745   8.623   5.736
 4940POPC   C1A63003   2.646   9.111   6.121
 4940POPC   D2A63004   2.912   9.148   6.498
 4940POPC   C3A63005   2.701   9.157   6.904
 4940POPC   C4A63006   2.926   9.033   7.281
 4940POPC   C1B63007   3.001   8.729   6.117
 4940POPC   C2B63008   3.147   8.680   6.556
 4940POPC   C3B63009   2.921   8.692   6.911
 4940POPC   C4B63010   2.991   8.510   7.296
 4941POPC   NC363011  12.051  44.910   5.419
 4941POPC   PO463012  12.510  44.418   5.400
 4941POPC   GL163013  12.278  44.567   5.746
 4941POPC   GL263014  12.506  44.380   5.928
 4941POPC   C1A63015  11.936  44.606   6.095
 4941POPC   D2A63016  11.907  44.840   6.497
 4941POPC   C3A63017  11.971  44.734   6.958
 4941POPC   C4A63018  12.260  44.994   7.160
 4941POPC   C1B63019  12.425  44.661   6.244
 4941POPC   C2B63020  12.344  44.626   6.649
 4941POPC   C3B63021  12.487  44.549   7.049
 4941POPC   C4B63022  12.545  44.643   7.468
 4942POPC   NC363023   1.358  39.123   5.554
 4942POPC   PO463024   0.796  39.282   5.491
 4942POPC   GL163025   0.858  39.388   5.925
 4942POPC   GL263026   1.012  39.074   5.927
 4942POPC   C1A63027   1.068  39.350   6.366
 4942POPC   D2A63028   1.456  39.427   6.608
 4942POPC   C3A63029   1.368  39.507   7.046
 4942POPC   C4A63030   1.041  39.360   7.321
 4942POPC   C1B63031   1.409  39.018   6.178
 4942POPC   C2B63032   1.415  38.888   6.570
 4942POPC   C3B63033   1.208  39.032   6.914
 4942POPC   C4B63034   1.417  38.936   7.285
 4943POPC   NC363035  43.753  27.149   5.422
 4943POPC   PO463036  44.210  27.670   5.390
 4943POPC   GL163037  44.032  27.742   5.809
 4943POPC   GL263038  43.893  27.400   5.855
 4943POPC   C1A63039  44.037  27.677   6.275
 4943POPC   D2A63040  43.693  27.797   6.553
 4943POPC   C3A63041  43.791  27.728   6.976
 4943POPC   C4A63042  43.643  27.541   7.354
 4943POPC   C1B63043  43.824  27.211   6.268
 4943POPC   C2B63044  43.925  27.300   6.698
 4943POPC   C3B63045  44.016  27.214   7.133
 4943POPC   C4B63046  43.950  27.240   7.610
 4944POPC   NC363047  16.372   5.365   5.415
 4944POPC   PO463048  15.957   4.828   5.434
 4944POPC   GL163049  16.037   5.132   5.753
 4944POPC   GL263050  16.330   5.207   5.904
 4944POPC   C1A63051  15.890   5.174   6.168
 4944POPC   D2A63052  15.866   4.945   6.556
 4944POPC   C3A63053  15.594   5.113   6.851
 4944POPC   C4A63054  15.661   5.166   7.270
 4944POPC   C1B63055  16.307   5.424   6.288
 4944POPC   C2B63056  16.302   5.172   6.620
 4944POPC   C3B63057  16.090   5.112   6.995
 4944POPC   C4B63058  16.130   5.265   7.444
 4945POPC   NC363059  12.076  17.550   5.159
 4945POPC   PO463060  11.807  16.993   5.510
 4945POPC   GL163061  12.019  17.349   5.698
 4945POPC   GL263062  11.860  17.660   5.614
 4945POPC   C1A63063  12.280  17.333   6.102
 4945POPC   D2A63064  12.488  17.273   6.539
 4945POPC   C3A63065  12.339  17.454   6.949
 4945POPC   C4A63066  12.280  17.447   7.432
 4945POPC   C1B63067  11.842  17.646   6.088
 4945POPC   C2B63068  12.048  17.580   6.501
 4945POPC   C3B63069  11.922  17.732   6.895
 4945POPC   C4B63070  11.801  17.641   7.285
 4946POPC   NC363071   5.447   4.626   5.648
 4946POPC   PO463072   5.046   4.117   5.370
 4946POPC   GL163073   5.020   4.293   5.789
 4946POPC   GL263074   4.862   4.007   5.930
 4946POPC   C1A63075   5.224   4.299   6.200
 4946POPC   D2A63076   5.487   4.234   6.563
 4946POPC   C3A63077   5.255   4.404   6.913
 4946POPC   C4A63078   5.092   4.517   7.325
 4946POPC   C1B63079   4.812   3.963   6.366
 4946POPC   C2B63080   4.730   4.082   6.799
 4946POPC   C3B63081   4.993   4.034   7.172
 4946POPC   C4B63082   4.894   3.865   7.577
 4947POPC   NC363083  18.131   1.501   5.527
 4947POPC   PO463084  18.526   0.944   5.368
 4947POPC   GL163085  18.423   1.069   5.820
 4947POPC   GL263086  18.510   0.752   5.939
 4947POPC   C1A63087  18.147   1.303   6.182
 4947POPC   D2A63088  18.102   1.537   6.608
 4947POPC   C3A63089  18.208   1.399   7.069
 4947POPC   C4A63090  18.641   1.365   7.250
 4947POPC   C1B63091  18.397   0.887   6.358
 4947POPC   C2B63092  18.038   1.009   6.630
 4947POPC   C3B63093  18.063   0.907   7.055
 4947POPC   C4B63094  18.315   0.956   7.407
 4948POPC   NC363095  15.597  44.560   5.530
 4948POPC   PO463096  16.119  44.662   5.102
 4948POPC   GL163097  16.105  44.725   5.587
 4948POPC   GL263098  16.031  44.388   5.757
 4948POPC   C1A63099  15.916  44.788   6.047
 4948POPC   D2A63100  15.798  44.774   6.484
 4948POPC   C3A63101  15.641  44.787   6.902
 4948POPC   C4A63102  15.795  44.895   7.312
 4948POPC   C1B63103  16.055  44.314   6.228
 4948POPC   C2B63104  16.091  44.415   6.683
 4948POPC   C3B63105  15.973  44.436   7.129
 4948POPC   C4B63106  16.230  44.461   7.505
 4949POPC   NC363107  14.607  19.611   5.535
 4949POPC   PO463108  13.910  19.550   5.654
 4949POPC   GL163109  14.247  19.812   5.866
 4949POPC   GL263110  14.611  19.816   6.013
 4949POPC   C1A63111  14.216  20.066   6.250
 4949POPC   D2A63112  14.420  19.978   6.663
 4949POPC   C3A63113  14.089  19.916   6.977
 4949POPC   C4A63114  14.160  20.099   7.367
 4949POPC   C1B63115  14.369  19.576   6.355
 4949POPC   C2B63116  14.330  19.479   6.809
 4949POPC   C3B63117  14.410  19.603   7.245
 4949POPC   C4B63118  14.694  19.653   7.590
 4950POPC   NC363119  35.246  12.249   5.203
 4950POPC   PO463120  35.506  12.811   5.481
 4950POPC   GL163121  35.589  12.819   5.900
 4950POPC   GL263122  35.765  12.500   5.877
 4950POPC   C1A63123  35.332  12.852   6.294
 4950POPC   D2A63124  35.177  13.176   6.598
 4950POPC   C3A63125  35.345  13.172   7.007
 4950POPC   C4A63126  35.783  13.130   7.030
 4950POPC   C1B63127  35.787  12.578   6.296
 4950POPC   C2B63128  35.583  12.529   6.635
 4950POPC   C3B63129  35.457  12.697   6.966
 4950POPC   C4B63130  35.616  12.728   7.344
 4951POPC   NC363131  31.384  44.561   5.427
 4951POPC   PO463132  31.789   0.034   5.651
 4951POPC   GL163133  31.488  44.752   5.883
 4951POPC   GL263134  31.559  44.374   5.882
 4951POPC   C1A63135  31.393  44.779   6.298
 4951POPC   D2A63136  31.732  44.841   6.575
 4951POPC   C3A63137  31.593  44.829   6.973
 4951POPC   C4A63138  31.840  44.804   7.381
 4951POPC   C1B63139  31.677  44.351   6.325
 4951POPC   C2B63140  31.462  44.381   6.726
 4951POPC   C3B63141  31.572  44.361   7.181
 4951POPC   C4B63142  31.853  44.097   7.455
 4952POPC   NC363143   3.657  31.739   5.224
 4952POPC   PO463144   3.979  31.172   5.586
 4952POPC   GL163145   3.795  31.560   5.779
 4952POPC   GL263146   3.460  31.643   5.765
 4952POPC   C1A63147   3.683  31.461   6.206
 4952POPC   D2A63148   3.562  31.618   6.587
 4952POPC   C3A63149   3.710  31.384   6.913
 4952POPC   C4A63150   3.509  31.204   7.256
 4952POPC   C1B63151   3.271  31.760   6.192
 4952POPC   C2B63152   3.108  31.437   6.476
 4952POPC   C3B63153   3.187  31.409   6.907
 4952POPC   C4B63154   3.290  31.687   7.233
 4953POPC   NC363155  17.950  42.134   5.562
 4953POPC   PO463156  18.425  42.568   5.369
 4953POPC   GL163157  18.291  42.421   5.816
 4953POPC   GL263158  17.911  42.448   5.943
 4953POPC   C1A63159  18.318  42.263   6.254
 4953POPC   D2A63160  18.290  42.413   6.678
 4953POPC   C3A63161  18.304  42.123   7.042
 4953POPC   C4A63162  18.491  42.197   7.444
 4953POPC   C1B63163  17.852  42.453   6.369
 4953POPC   C2B63164  17.789  42.446   6.763
 4953POPC   C3B63165  18.013  42.538   7.108
 4953POPC   C4B63166  17.991  42.256   7.464
 4954POPC   NC363167  33.272   5.283   5.493
 4954POPC   PO463168  32.721   5.071   5.119
 4954POPC   GL163169  32.825   5.023   5.630
 4954POPC   GL263170  33.103   4.808   5.730
 4954POPC   C1A63171  32.955   5.164   6.094
 4954POPC   D2A63172  33.180   5.308   6.470
 4954POPC   C3A63173  32.988   5.273   6.864
 4954POPC   C4A63174  33.087   5.186   7.265
 4954POPC   C1B63175  33.174   4.724   6.193
 4954POPC   C2B63176  33.000   4.808   6.626
 4954POPC   C3B63177  33.180   4.709   7.056
 4954POPC   C4B63178  33.317   4.779   7.515
 4955POPC   NC363179   6.355  23.041   5.269
 4955POPC   PO463180   6.919  22.723   5.355
 4955POPC   GL163181   6.838  22.970   5.764
 4955POPC   GL263182   6.470  23.019   5.836
 4955POPC   C1A63183   6.880  23.148   6.225
 4955POPC   D2A63184   7.010  23.141   6.686
 4955POPC   C3A63185   6.762  23.314   7.028
 4955POPC   C4A63186   6.674  23.022   7.336
 4955POPC   C1B63187   6.402  22.973   6.295
 4955POPC   C2B63188   6.443  23.029   6.756
 4955POPC   C3B63189   6.300  22.733   7.097
 4955POPC   C4B63190   6.244  22.728   7.560
 4956POPC   NC363191  15.370  27.946   5.499
 4956POPC   PO463192  15.248  27.328   5.218
 4956POPC   GL163193  15.138  27.301   5.711
 4956POPC   GL263194  15.003  27.652   5.797
 4956POPC   C1A63195  15.272  27.420   6.168
 4956POPC   D2A63196  15.328  27.705   6.527
 4956POPC   C3A63197  15.242  27.564   6.922
 4956POPC   C4A63198  15.470  27.495   7.317
 4956POPC   C1B63199  14.880  27.748   6.253
 4956POPC   C2B63200  14.735  27.868   6.701
 4956POPC   C3B63201  14.839  27.765   7.145
 4956POPC   C4B63202  14.982  27.549   7.538
 4957POPC   NC363203  10.872  42.055   5.549
 4957POPC   PO463204  11.449  42.446   5.613
 4957POPC   GL163205  11.122  42.380   5.841
 4957POPC   GL263206  10.992  42.719   5.823
 4957POPC   C1A63207  11.154  42.118   6.227
 4957POPC   D2A63208  10.965  42.020   6.616
 4957POPC   C3A63209  11.225  42.072   6.962
 4957POPC   C4A63210  11.427  41.943   7.345
 4957POPC   C1B63211  11.261  42.648   6.232
 4957POPC   C2B63212  11.394  42.429   6.618
 4957POPC   C3B63213  11.277  42.584   7.037
 4957POPC   C4B63214  11.085  42.759   7.430
 4958POPC   NC363215  32.120  29.706   5.425
 4958POPC   PO463216  32.521  30.200   5.496
 4958POPC   GL163217  32.236  30.119   5.846
 4958POPC   GL263218  31.972  29.850   5.892
 4958POPC   C1A63219  32.256  29.991   6.295
 4958POPC   D2A63220  32.502  29.944   6.635
 4958POPC   C3A63221  32.322  29.758   6.946
 4958POPC   C4A63222  32.383  29.960   7.296
 4958POPC   C1B63223  31.845  30.240   6.138
 4958POPC   C2B63224  32.017  30.444   6.531
 4958POPC   C3B63225  32.085  30.234   6.944
 4958POPC   C4B63226  31.910  29.884   7.203
 4959POPC   NC363227  28.853   1.440   5.569
 4959POPC   PO463228  29.405   1.139   5.331
 4959POPC   GL163229  29.293   0.915   5.721
 4959POPC   GL263230  28.924   0.957   5.770
 4959POPC   C1A63231  29.239   1.039   6.166
 4959POPC   D2A63232  29.406   1.299   6.491
 4959POPC   C3A63233  29.232   1.324   6.915
 4959POPC   C4A63234  29.250   1.673   7.158
 4959POPC   C1B63235  28.708   1.062   6.161
 4959POPC   C2B63236  28.825   1.228   6.573
 4959POPC   C3B63237  28.720   1.436   6.956
 4959POPC   C4B63238  28.784   1.365   7.353
 4960POPC   NC363239  30.440  44.704   5.475
 4960POPC   PO463240  30.977  44.852   5.088
 4960POPC   GL163241  30.916  44.479   5.546
 4960POPC   GL263242  30.671  44.440   5.810
 4960POPC   C1A63243  31.093  44.396   6.068
 4960POPC   D2A63244  30.962  44.560   6.531
 4960POPC   C3A63245  31.068  44.575   6.999
 4960POPC   C4A63246  31.012  44.423   7.428
 4960POPC   C1B63247  30.599  44.361   6.214
 4960POPC   C2B63248  30.426  44.473   6.592
 4960POPC   C3B63249  30.531  44.755   6.894
 4960POPC   C4B63250  30.535  44.617   7.272
 4961POPC   NC363251  11.153  31.890   5.374
 4961POPC   PO463252  11.233  32.520   5.425
 4961POPC   GL163253  11.192  32.243   5.793
 4961POPC   GL263254  11.447  31.960   5.803
 4961POPC   C1A63255  11.181  32.340   6.233
 4961POPC   D2A63256  11.504  32.314   6.546
 4961POPC   C3A63257  11.362  32.212   6.992
 4961POPC   C4A63258  11.108  32.330   7.339
 4961POPC   C1B63259  11.297  31.832   6.205
 4961POPC   C2B63260  11.153  31.954   6.592
 4961POPC   C3B63261  10.996  31.793   6.945
 4961POPC   C4B63262  11.083  31.819   7.362
 4962POPC   NC363263  41.248  41.226   5.582
 4962POPC   PO463264  41.848  41.429   5.243
 4962POPC   GL163265  41.714  41.622   5.704
 4962POPC   GL263266  41.356  41.654   5.816
 4962POPC   C1A63267  41.689  41.624   6.197
 4962POPC   D2A63268  41.503  41.749   6.600
 4962POPC   C3A63269  41.672  41.601   6.956
 4962POPC   C4A63270  41.751  41.409   7.331
 4962POPC   C1B63271  41.186  41.771   6.200
 4962POPC   C2B63272  41.051  41.495   6.514
 4962POPC   C3B63273  41.167  41.543   6.943
 4962POPC   C4B63274  41.313  41.652   7.372
 4963POPC   NC363275  27.709   6.821   5.485
 4963POPC   PO463276  27.322   6.449   5.087
 4963POPC   GL163277  27.346   6.517   5.609
 4963POPC   GL263278  27.561   6.272   5.776
 4963POPC   C1A63279  27.374   6.656   6.063
 4963POPC   D2A63280  27.296   6.610   6.514
 4963POPC   C3A63281  27.500   6.925   6.779
 4963POPC   C4A63282  27.825   6.861   7.105
 4963POPC   C1B63283  27.786   6.348   6.140
 4963POPC   C2B63284  27.826   6.605   6.506
 4963POPC   C3B63285  27.662   6.432   6.884
 4963POPC   C4B63286  27.772   6.377   7.322
 4964POPC   NC363287  15.309  23.627   5.406
 4964POPC   PO463288  15.130  24.169   5.592
 4964POPC   GL163289  15.284  23.971   5.919
 4964POPC   GL263290  15.238  23.604   5.925
 4964POPC   C1A63291  15.295  24.078   6.332
 4964POPC   D2A63292  15.502  23.918   6.670
 4964POPC   C3A63293  15.254  23.749   7.017
 4964POPC   C4A63294  15.314  23.336   7.237
 4964POPC   C1B63295  15.180  23.565   6.404
 4964POPC   C2B63296  14.943  23.389   6.790
 4964POPC   C3B63297  14.830  23.527   7.215
 4964POPC   C4B63298  14.942  23.963   7.377
 4965POPC   NC363299  39.984  28.075   5.425
 4965POPC   PO463300  40.174  28.745   5.377
 4965POPC   GL163301  40.152  28.471   5.721
 4965POPC   GL263302  39.781  28.432   5.780
 4965POPC   C1A63303  40.131  28.263   6.129
 4965POPC   D2A63304  40.220  28.453   6.534
 4965POPC   C3A63305  40.118  28.251   6.934
 4965POPC   C4A63306  40.361  28.120   7.286
 4965POPC   C1B63307  39.687  28.499   6.239
 4965POPC   C2B63308  39.671  28.423   6.694
 4965POPC   C3B63309  39.679  28.446   7.149
 4965POPC   C4B63310  39.821  28.416   7.580
 4966POPC   NC363311   9.901  35.410   5.135
 4966POPC   PO463312   9.732  34.977   5.618
 4966POPC   GL163313   9.711  35.336   5.849
 4966POPC   GL263314   9.458  35.104   6.048
 4966POPC   C1A63315   9.666  35.556   6.237
 4966POPC   D2A63316   9.519  35.426   6.635
 4966POPC   C3A63317   9.774  35.603   6.957
 4966POPC   C4A63318   9.761  35.738   7.379
 4966POPC   C1B63319   9.870  35.085   6.260
 4966POPC   C2B63320  10.020  35.293   6.573
 4966POPC   C3B63321   9.999  35.142   6.972
 4966POPC   C4B63322   9.849  35.253   7.382
 4967POPC   NC363323  32.680   6.917   5.244
 4967POPC   PO463324  33.261   6.665   5.579
 4967POPC   GL163325  33.023   6.625   5.894
 4967POPC   GL263326  32.703   6.489   5.771
 4967POPC   C1A63327  33.150   6.773   6.297
 4967POPC   D2A63328  33.396   6.605   6.630
 4967POPC   C3A63329  33.169   6.650   6.998
 4967POPC   C4A63330  33.230   6.631   7.432
 4967POPC   C1B63331  32.629   6.718   6.179
 4967POPC   C2B63332  32.763   6.704   6.651
 4967POPC   C3B63333  32.671   6.650   7.108
 4967POPC   C4B63334  32.749   6.547   7.571
 4968POPC   NC363335  10.334  36.830   5.639
 4968POPC   PO463336  10.874  36.664   5.287
 4968POPC   GL163337  10.913  36.981   5.721
 4968POPC   GL263338  11.036  37.298   5.833
 4968POPC   C1A63339  10.850  36.930   6.282
 4968POPC   D2A63340  10.465  36.810   6.563
 4968POPC   C3A63341  10.490  36.722   7.009
 4968POPC   C4A63342  10.291  36.861   7.412
 4968POPC   C1B63343  10.631  37.302   6.049
 4968POPC   C2B63344  10.505  37.344   6.472
 4968POPC   C3B63345  10.664  37.214   6.842
 4968POPC   C4B63346  10.537  37.241   7.218
 4969POPC   NC363347  40.268  42.709   5.449
 4969POPC   PO463348  39.818  42.346   5.122
 4969POPC   GL163349  39.885  42.374   5.646
 4969POPC   GL263350  40.176  42.505   5.893
 4969POPC   C1A63351  39.869  42.173   6.094
 4969POPC   D2A63352  39.664  42.197   6.492
 4969POPC   C3A63353  39.817  42.442   6.824
 4969POPC   C4A63354  39.794  42.403   7.252
 4969POPC   C1B63355  40.373  42.237   6.232
 4969POPC   C2B63356  40.319  42.203   6.679
 4969POPC   C3B63357  40.414  42.381   7.063
 4969POPC   C4B63358  40.256  42.424   7.454
 4970POPC   NC363359   9.751   2.633   5.253
 4970POPC   PO463360  10.254   2.295   5.528
 4970POPC   GL163361   9.852   2.523   5.762
 4970POPC   GL263362   9.660   2.844   5.732
 4970POPC   C1A63363   9.666   2.669   6.191
 4970POPC   D2A63364   9.517   2.659   6.599
 4970POPC   C3A63365   9.822   2.712   6.915
 4970POPC   C4A63366   9.812   2.725   7.338
 4970POPC   C1B63367   9.397   3.085   6.068
 4970POPC   C2B63368   9.489   3.267   6.438
 4970POPC   C3B63369   9.544   3.127   6.831
 4970POPC   C4B63370   9.670   3.215   7.226
 4971POPC   NC363371   3.771  12.131   5.091
 4971POPC   PO463372   3.642  12.444   5.675
 4971POPC   GL163373   3.592  12.111   5.927
 4971POPC   GL263374   3.877  11.891   5.937
 4971POPC   C1A63375   3.407  12.163   6.312
 4971POPC   D2A63376   3.506  12.349   6.699
 4971POPC   C3A63377   3.571  12.142   7.098
 4971POPC   C4A63378   3.520  12.248   7.539
 4971POPC   C1B63379   3.680  11.747   6.281
 4971POPC   C2B63380   3.810  11.900   6.676
 4971POPC   C3B63381   3.982  11.840   7.073
 4971POPC   C4B63382   3.843  11.874   7.482
 4972POPC   NC363383  27.903   5.049   5.507
 4972POPC   PO463384  27.259   4.710   5.457
 4972POPC   GL163385  27.522   4.876   5.814
 4972POPC   GL263386  27.846   4.818   5.939
 4972POPC   C1A63387  27.391   4.948   6.257
 4972POPC   D2A63388  27.542   5.120   6.668
 4972POPC   C3A63389  27.590   4.956   7.083
 4972POPC   C4A63390  27.383   5.144   7.447
 4972POPC   C1B63391  27.901   5.005   6.301
 4972POPC   C2B63392  28.038   4.941   6.703
 4972POPC   C3B63393  28.082   5.185   7.031
 4972POPC   C4B63394  28.026   5.391   7.403
 4973POPC   NC363395  25.593  22.455   5.428
 4973POPC   PO463396  24.986  22.100   5.403
 4973POPC   GL163397  25.165  22.106   5.835
 4973POPC   GL263398  25.436  22.356   5.907
 4973POPC   C1A63399  25.001  22.096   6.271
 4973POPC   D2A63400  25.036  22.426   6.605
 4973POPC   C3A63401  25.112  22.288   7.049
 4973POPC   C4A63402  25.255  21.873   7.203
 4973POPC   C1B63403  25.533  22.170   6.304
 4973POPC   C2B63404  25.504  22.162   6.751
 4973POPC   C3B63405  25.707  22.221   7.148
 4973POPC   C4B63406  25.660  22.322   7.581
 4974POPC   NC363407   9.887  33.664   5.457
 4974POPC   PO463408   9.274  34.094   5.518
 4974POPC   GL163409   9.540  33.821   5.805
 4974POPC   GL263410   9.844  34.046   5.809
 4974POPC   C1A63411   9.801  33.706   6.200
 4974POPC   D2A63412   9.758  33.992   6.570
 4974POPC   C3A63413   9.606  33.890   6.983
 4974POPC   C4A63414   9.733  33.552   7.244
 4974POPC   C1B63415  10.109  34.114   6.170
 4974POPC   C2B63416  10.289  33.920   6.541
 4974POPC   C3B63417  10.067  33.686   6.861
 4974POPC   C4B63418  10.097  33.947   7.238
 4975POPC   NC363419  29.169   6.218   5.327
 4975POPC   PO463420  29.251   5.612   5.645
 4975POPC   GL163421  28.900   5.698   5.897
 4975POPC   GL263422  28.857   6.014   5.722
 4975POPC   C1A63423  28.886   5.682   6.368
 4975POPC   D2A63424  29.261   5.822   6.637
 4975POPC   C3A63425  29.318   5.761   7.087
 4975POPC   C4A63426  29.323   5.885   7.514
 4975POPC   C1B63427  29.023   6.148   6.123
 4975POPC   C2B63428  28.894   6.201   6.535
 4975POPC   C3B63429  29.085   6.241   6.935
 4975POPC   C4B63430  28.920   6.114   7.323
 4976POPC   NC363431   1.420  13.020   5.321
 4976POPC   PO463432   2.056  12.972   5.434
 4976POPC   GL163433   2.105  12.830   5.819
 4976POPC   GL263434   2.425  12.874   5.846
 4976POPC   C1A63435   2.030  12.982   6.207
 4976POPC   D2A63436   1.861  12.792   6.560
 4976POPC   C3A63437   2.000  12.935   6.945
 4976POPC   C4A63438   1.864  12.787   7.331
 4976POPC   C1B63439   2.455  12.685   6.240
 4976POPC   C2B63440   2.363  12.642   6.670
 4976POPC   C3B63441   2.510  12.891   7.014
 4976POPC   C4B63442   2.292  13.107   7.324
 4977POPC   NC363443  31.477  14.431   5.181
 4977POPC   PO463444  31.810  14.805   5.572
 4977POPC   GL163445  31.688  14.515   5.850
 4977POPC   GL263446  31.434  14.285   5.728
 4977POPC   C1A63447  31.781  14.299   6.226
 4977POPC   D2A63448  31.579  14.199   6.596
 4977POPC   C3A63449  31.692  14.345   6.972
 4977POPC   C4A63450  31.548  14.527   7.354
 4977POPC   C1B63451  31.282  14.109   6.171
 4977POPC   C2B63452  31.092  14.068   6.645
 4977POPC   C3B63453  31.223  14.068   7.054
 4977POPC   C4B63454  31.145  14.123   7.479
 4978POPC   NC363455  21.264  23.318   5.317
 4978POPC   PO463456  21.628  23.834   5.203
 4978POPC   GL163457  21.557  23.795   5.683
 4978POPC   GL263458  21.806  24.006   5.849
 4978POPC   C1A63459  21.288  23.611   6.028
 4978POPC   D2A63460  21.248  23.407   6.435
 4978POPC   C3A63461  21.185  23.571   6.866
 4978POPC   C4A63462  21.357  23.637   7.271
 4978POPC   C1B63463  21.566  24.004   6.202
 4978POPC   C2B63464  21.251  23.967   6.518
 4978POPC   C3B63465  21.407  24.053   6.930
 4978POPC   C4B63466  21.596  24.070   7.344
 4979POPC   NC363467   7.060  36.147   5.443
 4979POPC   PO463468   7.627  35.889   5.456
 4979POPC   GL163469   7.410  36.122   5.835
 4979POPC   GL263470   7.214  36.416   5.881
 4979POPC   C1A63471   7.380  36.169   6.290
 4979POPC   D2A63472   7.696  36.050   6.546
 4979POPC   C3A63473   7.576  36.116   6.956
 4979POPC   C4A63474   7.854  36.180   7.272
 4979POPC   C1B63475   7.094  36.604   6.290
 4979POPC   C2B63476   7.085  36.470   6.738
 4979POPC   C3B63477   7.080  36.678   7.135
 4979POPC   C4B63478   7.282  36.776   7.518
 4980POPC   NC363479  38.389  23.745   5.399
 4980POPC   PO463480  38.819  23.273   5.570
 4980POPC   GL163481  38.464  23.557   5.854
 4980POPC   GL263482  38.375  23.931   5.869
 4980POPC   C1A63483  38.258  23.586   6.265
 4980POPC   D2A63484  38.184  23.848   6.668
 4980POPC   C3A63485  38.092  23.691   7.108
 4980POPC   C4A63486  38.405  23.549   7.406
 4980POPC   C1B63487  38.385  24.142   6.279
 4980POPC   C2B63488  38.636  24.120   6.688
 4980POPC   C3B63489  38.532  24.002   7.142
 4980POPC   C4B63490  38.462  23.992   7.621
 4981POPC   NC363491   6.789  33.952   5.444
 4981POPC   PO463492   6.932  33.365   5.548
 4981POPC   GL163493   6.666  33.586   5.849
 4981POPC   GL263494   6.430  33.888   5.783
 4981POPC   C1A63495   6.611  33.618   6.308
 4981POPC   D2A63496   6.729  33.987   6.562
 4981POPC   C3A63497   6.876  33.886   6.973
 4981POPC   C4A63498   6.751  33.557   7.246
 4981POPC   C1B63499   6.334  34.032   6.202
 4981POPC   C2B63500   6.166  33.777   6.551
 4981POPC   C3B63501   6.362  33.833   6.930
 4981POPC   C4B63502   6.457  34.234   7.093
 4982POPC   NC363503  34.833  19.201   5.546
 4982POPC   PO463504  34.442  18.668   5.422
 4982POPC   GL163505  34.545  18.894   5.863
 4982POPC   GL263506  34.421  19.224   5.892
 4982POPC   C1A63507  34.724  19.114   6.274
 4982POPC   D2A63508  34.621  19.328   6.668
 4982POPC   C3A63509  34.788  19.237   7.055
 4982POPC   C4A63510  34.770  18.858   7.248
 4982POPC   C1B63511  34.185  19.361   6.242
 4982POPC   C2B63512  34.105  19.550   6.635
 4982POPC   C3B63513  34.269  19.396   7.023
 4982POPC   C4B63514  34.354  19.173   7.345
 4983POPC   NC363515  43.660  37.780   5.344
 4983POPC   PO463516  43.029  37.604   5.421
 4983POPC   GL163517  43.059  37.739   5.810
 4983POPC   GL263518  43.311  37.996   5.692
 4983POPC   C1A63519  42.924  37.712   6.267
 4983POPC   D2A63520  43.184  37.574   6.629
 4983POPC   C3A63521  43.019  37.645   7.010
 4983POPC   C4A63522  43.066  37.589   7.446
 4983POPC   C1B63523  43.186  38.138   6.083
 4983POPC   C2B63524  43.254  38.075   6.491
 4983POPC   C3B63525  43.261  38.088   6.923
 4983POPC   C4B63526  43.201  38.067   7.369
 4984POPC   NC363527  22.361   2.409   5.741
 4984POPC   PO463528  21.871   1.862   5.600
 4984POPC   GL163529  22.036   2.058   5.921
 4984POPC   GL263530  21.720   2.173   6.002
 4984POPC   C1A63531  22.291   1.940   6.293
 4984POPC   D2A63532  22.451   1.830   6.713
 4984POPC   C3A63533  22.271   1.980   7.083
 4984POPC   C4A63534  22.467   2.394   7.139
 4984POPC   C1B63535  21.776   1.845   6.301
 4984POPC   C2B63536  21.911   1.872   6.691
 4984POPC   C3B63537  21.753   1.917   7.082
 4984POPC   C4B63538  21.874   2.015   7.505
 4985POPC   NC363539  44.789  44.094   5.464
 4985POPC   PO463540  44.429  43.517   5.607
 4985POPC   GL163541  44.596  43.793   5.883
 4985POPC   GL263542  44.938  43.770   5.844
 4985POPC   C1A63543  44.714  43.976   6.274
 4985POPC   D2A63544  44.779  44.123   6.684
 4985POPC   C3A63545  44.553  43.920   6.999
 4985POPC   C4A63546  44.691  44.003   7.397
 4985POPC   C1B63547   0.187  43.791   6.238
 4985POPC   C2B63548   0.040  43.688   6.650
 4985POPC   C3B63549   0.037  43.778   7.079
 4985POPC   C4B63550  44.916  43.559   7.418
 4986POPC   NC363551  12.648  24.970   5.037
 4986POPC   PO463552  13.051  25.370   5.331
 4986POPC   GL163553  12.991  25.341   5.809
 4986POPC   GL263554  12.835  25.024   5.906
 4986POPC   C1A63555  13.142  25.222   6.264
 4986POPC   D2A63556  13.011  25.070   6.709
 4986POPC   C3A63557  13.079  25.208   7.147
 4986POPC   C4A63558  12.826  25.333   7.537
 4986POPC   C1B63559  12.772  24.812   6.313
 4986POPC   C2B63560  12.833  24.589   6.712
 4986POPC   C3B63561  12.876  24.713   7.120
 4986POPC   C4B63562  13.205  24.665   7.441
 4987POPC   NC363563  25.422  33.576   5.534
 4987POPC   PO463564  24.846  33.768   5.257
 4987POPC   GL163565  25.073  33.995   5.680
 4987POPC   GL263566  24.828  34.163   5.912
 4987POPC   C1A63567  25.224  34.001   6.172
 4987POPC   D2A63568  25.252  33.828   6.630
 4987POPC   C3A63569  25.282  33.677   7.101
 4987POPC   C4A63570  25.393  33.338   7.432
 4987POPC   C1B63571  24.745  33.849   6.256
 4987POPC   C2B63572  24.743  33.783   6.698
 4987POPC   C3B63573  24.761  33.537   7.093
 4987POPC   C4B63574  24.866  33.177   7.334
 4988POPC   NC363575  37.194  15.302   5.486
 4988POPC   PO463576  36.563  15.537   5.475
 4988POPC   GL163577  36.794  15.294   5.836
 4988POPC   GL263578  37.121  15.391   5.977
 4988POPC   C1A63579  36.880  14.995   6.202
 4988POPC   D2A63580  37.095  14.853   6.581
 4988POPC   C3A63581  36.863  14.945   6.973
 4988POPC   C4A63582  36.860  15.092   7.406
 4988POPC   C1B63583  36.904  15.503   6.323
 4988POPC   C2B63584  36.996  15.367   6.717
 4988POPC   C3B63585  37.065  15.490   7.146
 4988POPC   C4B63586  37.131  15.472   7.594
 4989POPC   NC363587  32.418  20.214   5.480
 4989POPC   PO463588  31.920  19.767   5.583
 4989POPC   GL163589  32.208  19.905   5.871
 4989POPC   GL263590  31.944  19.951   6.118
 4989POPC   C1A63591  32.460  20.082   6.204
 4989POPC   D2A63592  32.336  20.188   6.621
 4989POPC   C3A63593  32.096  19.941   6.911
 4989POPC   C4A63594  32.340  19.948   7.283
 4989POPC   C1B63595  32.154  19.740   6.428
 4989POPC   C2B63596  32.233  19.474   6.748
 4989POPC   C3B63597  32.228  19.463   7.160
 4989POPC   C4B63598  32.060  19.559   7.541
 4990POPC   NC363599   1.450  31.915   5.644
 4990POPC   PO463600   1.313  31.421   5.237
 4990POPC   GL163601   1.238  31.339   5.669
 4990POPC   GL263602   0.891  31.313   5.771
 4990POPC   C1A63603   1.381  31.316   6.091
 4990POPC   D2A63604   1.390  31.574   6.476
 4990POPC   C3A63605   1.681  31.475   6.800
 4990POPC   C4A63606   1.527  31.295   7.208
 4990POPC   C1B63607   0.894  31.388   6.254
 4990POPC   C2B63608   0.875  31.503   6.715
 4990POPC   C3B63609   0.849  31.424   7.182
 4990POPC   C4B63610   0.866  31.146   7.553
 4991POPC   NC363611  33.977  43.126   5.360
 4991POPC   PO463612  33.643  42.548   5.551
 4991POPC   GL163613  33.559  42.823   5.899
 4991POPC   GL263614  33.772  43.147   5.842
 4991POPC   C1A63615  33.796  42.902   6.293
 4991POPC   D2A63616  34.202  43.045   6.485
 4991POPC   C3A63617  34.115  43.049   6.910
 4991POPC   C4A63618  33.677  42.997   7.004
 4991POPC   C1B63619  33.693  43.411   6.231
 4991POPC   C2B63620  33.524  43.440   6.673
 4991POPC   C3B63621  33.529  43.446   7.142
 4991POPC   C4B63622  33.945  43.327   7.336
 4992POPC   NC363623  18.036  31.237   5.476
 4992POPC   PO463624  18.492  31.777   5.350
 4992POPC   GL163625  18.268  31.640   5.722
 4992POPC   GL263626  18.479  31.371   5.780
 4992POPC   C1A63627  18.177  31.487   6.163
 4992POPC   D2A63628  18.372  31.423   6.588
 4992POPC   C3A63629  18.155  31.439   6.982
 4992POPC   C4A63630  18.221  31.702   7.320
 4992POPC   C1B63631  18.598  31.147   6.155
 4992POPC   C2B63632  18.789  31.131   6.539
 4992POPC   C3B63633  18.712  31.218   6.941
 4992POPC   C4B63634  18.537  31.299   7.328
 4993POPC   NC363635  25.805  11.472   5.253
 4993POPC   PO463636  25.162  11.613   5.423
 4993POPC   GL163637  25.402  11.381   5.749
 4993POPC   GL263638  25.143  11.147   5.872
 4993POPC   C1A63639  25.476  11.348   6.226
 4993POPC   D2A63640  25.410  11.263   6.666
 4993POPC   C3A63641  25.188  11.456   6.971
 4993POPC   C4A63642  25.067  11.460   7.387
 4993POPC   C1B63643  25.063  10.951   6.270
 4993POPC   C2B63644  24.957  11.047   6.709
 4993POPC   C3B63645  24.977  11.001   7.165
 4993POPC   C4B63646  24.913  10.853   7.627
 4994POPC   NC363647  30.809  10.151   5.389
 4994POPC   PO463648  30.422   9.642   5.280
 4994POPC   GL163649  30.553   9.834   5.698
 4994POPC   GL263650  30.594   9.542   5.874
 4994POPC   C1A63651  30.586  10.057   6.134
 4994POPC   D2A63652  30.409   9.955   6.561
 4994POPC   C3A63653  30.374  10.116   6.995
 4994POPC   C4A63654  30.612   9.913   7.350
 4994POPC   C1B63655  30.892   9.648   6.194
 4994POPC   C2B63656  31.042   9.693   6.597
 4994POPC   C3B63657  30.879   9.643   6.984
 4994POPC   C4B63658  31.011   9.277   7.235
 4995POPC   NC363659  12.200   7.627   5.500
 4995POPC   PO463660  12.005   6.904   5.551
 4995POPC   GL163661  11.985   7.317   5.833
 4995POPC   GL263662  12.308   7.488   5.979
 4995POPC   C1A63663  11.910   7.424   6.257
 4995POPC   D2A63664  12.171   7.183   6.496
 4995POPC   C3A63665  12.133   7.176   6.927
 4995POPC   C4A63666  11.819   7.181   7.234
 4995POPC   C1B63667  12.362   7.788   6.317
 4995POPC   C2B63668  12.080   7.715   6.652
 4995POPC   C3B63669  11.883   7.673   7.001
 4995POPC   C4B63670  12.184   7.567   7.276
 4996POPC   NC363671   2.194  42.879   5.399
 4996POPC   PO463672   1.897  43.509   5.450
 4996POPC   GL163673   2.144  43.314   5.753
 4996POPC   GL263674   1.920  43.057   5.815
 4996POPC   C1A63675   2.245  43.353   6.208
 4996POPC   D2A63676   2.281  43.109   6.606
 4996POPC   C3A63677   2.150  43.295   6.946
 4996POPC   C4A63678   2.161  43.330   7.353
 4996POPC   C1B63679   1.734  43.258   6.181
 4996POPC   C2B63680   1.767  43.142   6.627
 4996POPC   C3B63681   1.666  43.207   7.086
 4996POPC   C4B63682   1.758  42.987   7.499
 4997POPC   NC363683  24.312  19.297   5.402
 4997POPC   PO463684  24.914  19.016   5.443
 4997POPC   GL163685  24.666  18.918   5.827
 4997POPC   GL263686  24.403  19.176   5.905
 4997POPC   C1A63687  24.628  18.908   6.283
 4997POPC   D2A63688  24.696  19.146   6.656
 4997POPC   C3A63689  24.566  18.963   7.010
 4997POPC   C4A63690  24.436  18.980   7.407
 4997POPC   C1B63691  24.270  19.544   6.178
 4997POPC   C2B63692  24.343  19.592   6.633
 4997POPC   C3B63693  24.270  19.377   7.054
 4997POPC   C4B63694  24.151  19.374   7.516
 4998POPC   NC363695  32.392  44.584   5.542
 4998POPC   PO463696  31.826  44.636   5.304
 4998POPC   GL163697  31.993  44.620   5.818
 4998POPC   GL263698  32.265  44.923   5.881
 4998POPC   C1A63699  32.120  44.643   6.265
 4998POPC   D2A63700  32.293  44.512   6.635
 4998POPC   C3A63701  31.994  44.519   6.917
 4998POPC   C4A63702  32.163  44.447   7.274
 4998POPC   C1B63703  32.499   0.014   6.281
 4998POPC   C2B63704  32.406   0.029   6.699
 4998POPC   C3B63705  32.426  44.826   7.074
 4998POPC   C4B63706  32.368  44.904   7.521
 4999POPC   NC363707  24.981  21.677   5.569
 4999POPC   PO463708  25.442  21.211   5.468
 4999POPC   GL163709  25.374  21.400   5.861
 4999POPC   GL263710  25.537  21.737   5.848
 4999POPC   C1A63711  25.074  21.491   6.216
 4999POPC   D2A63712  24.955  21.678   6.607
 4999POPC   C3A63713  25.072  21.433   6.965
 4999POPC   C4A63714  24.905  21.368   7.338
 4999POPC   C1B63715  25.557  21.659   6.296
 4999POPC   C2B63716  25.492  21.662   6.764
 4999POPC   C3B63717  25.707  21.654   7.188
 4999POPC   C4B63718  25.411  21.412   7.433
 5000POPC   NC363719   0.620  12.976   5.610
 5000POPC   PO463720   1.122  12.686   5.214
 5000POPC   GL163721   1.099  12.780   5.688
 5000POPC   GL263722   1.355  13.030   5.817
 5000POPC   C1A63723   0.976  12.931   6.135
 5000POPC   D2A63724   1.021  12.985   6.578
 5000POPC   C3A63725   1.225  12.690   6.838
 5000POPC   C4A63726   1.145  12.778   7.265
 5000POPC   C1B63727   1.490  12.996   6.238
 5000POPC   C2B63728   1.509  13.178   6.635
 5000POPC   C3B63729   1.520  13.062   7.066
 5000POPC   C4B63730   1.489  13.087   7.519
 5001POPC   NC363731  25.923   9.419   5.033
 5001POPC   PO463732  25.899   9.956   5.421
 5001POPC   GL163733  26.021   9.636   5.761
 5001POPC   GL263734  26.201   9.828   5.995
 5001POPC   C1A63735  26.200   9.352   6.119
 5001POPC   D2A63736  25.927   9.436   6.479
 5001POPC   C3A63737  26.121   9.581   6.852
 5001POPC   C4A63738  26.077   9.528   7.266
 5001POPC   C1B63739  25.814   9.883   6.239
 5001POPC   C2B63740  25.776   9.928   6.697
 5001POPC   C3B63741  25.992  10.071   7.049
 5001POPC   C4B63742  26.359  10.009   7.257
 5002POPC   NC363743   9.675  20.003   5.493
 5002POPC   PO463744   9.174  19.605   5.582
 5002POPC   GL163745   9.544  19.639   5.864
 5002POPC   GL263746   9.919  19.719   5.840
 5002POPC   C1A63747   9.635  19.540   6.285
 5002POPC   D2A63748   9.735  19.745   6.673
 5002POPC   C3A63749   9.530  19.780   7.083
 5002POPC   C4A63750   9.663  19.747   7.513
 5002POPC   C1B63751   9.935  19.974   6.230
 5002POPC   C2B63752  10.106  20.102   6.644
 5002POPC   C3B63753  10.002  19.965   7.049
 5002POPC   C4B63754  10.163  19.720   7.369
 5003POPC   NC363755  44.851   2.997   5.413
 5003POPC   PO463756  44.575   2.360   5.208
 5003POPC   GL163757  44.752   2.576   5.658
 5003POPC   GL263758  44.518   2.875   5.792
 5003POPC   C1A63759  44.844   2.658   6.114
 5003POPC   D2A63760  44.697   2.875   6.508
 5003POPC   C3A63761  44.728   2.583   6.880
 5003POPC   C4A63762  44.857   2.513   7.336
 5003POPC   C1B63763  44.288   3.181   6.078
 5003POPC   C2B63764  44.200   3.105   6.525
 5003POPC   C3B63765  44.371   2.981   6.910
 5003POPC   C4B63766  44.690   2.969   7.211
 5004POPC   NC363767  32.533  32.418   5.357
 5004POPC   PO463768  32.115  31.904   5.241
 5004POPC   GL163769  32.224  32.050   5.685
 5004POPC   GL263770  32.572  32.091   5.814
 5004POPC   C1A63771  32.196  32.271   6.109
 5004POPC   D2A63772  32.272  32.474   6.507
 5004POPC   C3A63773  31.959  32.411   6.820
 5004POPC   C4A63774  32.136  32.366   7.239
 5004POPC   C1B63775  32.670  32.440   6.131
 5004POPC   C2B63776  32.789  32.432   6.581
 5004POPC   C3B63777  32.557  32.546   6.961
 5004POPC   C4B63778  32.657  32.332   7.313
 5005POPC   NC363779   7.007   3.771   5.617
 5005POPC   PO463780   6.565   3.326   5.271
 5005POPC   GL163781   6.624   3.389   5.725
 5005POPC   GL263782   6.927   3.300   5.875
 5005POPC   C1A63783   6.555   3.571   6.155
 5005POPC   D2A63784   6.594   3.287   6.481
 5005POPC   C3A63785   6.640   3.400   6.921
 5005POPC   C4A63786   6.587   3.729   7.226
 5005POPC   C1B63787   7.046   3.494   6.256
 5005POPC   C2B63788   6.967   3.784   6.563
 5005POPC   C3B63789   7.026   3.794   6.977
 5005POPC   C4B63790   7.030   3.443   7.279
 5006POPC   NC363791  34.409  35.463   5.545
 5006POPC   PO463792  34.895  35.009   5.332
 5006POPC   GL163793  34.715  35.099   5.751
 5006POPC   GL263794  34.877  35.413   5.724
 5006POPC   C1A63795  34.508  35.283   6.138
 5006POPC   D2A63796  34.384  35.194   6.564
 5006POPC   C3A63797  34.358  35.571   6.812
 5006POPC   C4A63798  34.291  35.514   7.218
 5006POPC   C1B63799  34.983  35.471   6.146
 5006POPC   C2B63800  34.792  35.500   6.526
 5006POPC   C3B63801  34.789  35.274   6.888
 5006POPC   C4B63802  34.730  35.283   7.315
 5007POPC   NC363803   9.769   9.406   5.220
 5007POPC   PO463804   9.978   9.898   5.568
 5007POPC   GL163805   9.791   9.657   5.883
 5007POPC   GL263806   9.619   9.368   5.746
 5007POPC   C1A63807   9.686   9.838   6.270
 5007POPC   D2A63808   9.494   9.905   6.653
 5007POPC   C3A63809   9.816   9.881   6.954
 5007POPC   C4A63810   9.731   9.796   7.383
 5007POPC   C1B63811   9.580   9.331   6.213
 5007POPC   C2B63812   9.716   9.439   6.638
 5007POPC   C3B63813   9.505   9.490   7.043
 5007POPC   C4B63814   9.460   9.331   7.470
 5008POPC   NC363815  31.335   1.961   5.400
 5008POPC   PO463816  31.869   2.085   5.702
 5008POPC   GL163817  31.527   2.057   5.927
 5008POPC   GL263818  31.361   1.738   5.863
 5008POPC   C1A63819  31.590   2.168   6.354
 5008POPC   D2A63820  31.752   2.195   6.734
 5008POPC   C3A63821  31.648   1.959   7.058
 5008POPC   C4A63822  31.579   2.158   7.395
 5008POPC   C1B63823  31.485   1.685   6.300
 5008POPC   C2B63824  31.315   1.867   6.690
 5008POPC   C3B63825  31.150   2.148   7.008
 5008POPC   C4B63826  30.742   2.339   7.059
 5009POPC   NC363827   7.118  20.609   5.612
 5009POPC   PO463828   7.740  20.620   5.281
 5009POPC   GL163829   7.554  20.811   5.772
 5009POPC   GL263830   7.371  20.529   6.034
 5009POPC   C1A63831   7.523  20.925   6.279
 5009POPC   D2A63832   7.650  20.616   6.643
 5009POPC   C3A63833   7.648  20.664   7.125
 5009POPC   C4A63834   7.638  20.532   7.599
 5009POPC   C1B63835   7.198  20.372   6.409
 5009POPC   C2B63836   7.132  20.677   6.702
 5009POPC   C3B63837   6.936  20.793   7.056
 5009POPC   C4B63838   7.181  20.592   7.382
 5010POPC   NC363839  44.969  35.597   5.406
 5010POPC   PO463840  44.328  35.380   5.413
 5010POPC   GL163841  44.548  35.518   5.783
 5010POPC   GL263842  44.774  35.298   5.876
 5010POPC   C1A63843  44.645  35.662   6.238
 5010POPC   D2A63844  44.762  35.528   6.693
 5010POPC   C3A63845  44.494  35.625   7.080
 5010POPC   C4A63846  44.436  35.460   7.543
 5010POPC   C1B63847  44.675  35.160   6.309
 5010POPC   C2B63848  44.770  35.031   6.745
 5010POPC   C3B63849  44.696  35.170   7.182
 5010POPC   C4B63850  44.455  34.954   7.494
 5011POPC   NC363851  42.334  28.554   5.534
 5011POPC   PO463852  41.917  27.992   5.700
 5011POPC   GL163853  42.226  28.228   5.930
 5011POPC   GL263854  42.176  28.603   6.010
 5011POPC   C1A63855  42.302  28.123   6.346
 5011POPC   D2A63856  42.597  28.213   6.643
 5011POPC   C3A63857  42.347  28.458   6.912
 5011POPC   C4A63858  42.156  28.317   7.308
 5011POPC   C1B63859  42.532  28.578   6.280
 5011POPC   C2B63860  42.726  28.772   6.650
 5011POPC   C3B63861  42.750  28.707   7.089
 5011POPC   C4B63862  42.645  28.483   7.449
 5012POPC   NC363863  39.899  11.359   5.215
 5012POPC   PO463864  40.203  10.756   5.203
 5012POPC   GL163865  40.036  10.976   5.623
 5012POPC   GL263866  39.741  10.830   5.815
 5012POPC   C1A63867  40.178  11.203   6.023
 5012POPC   D2A63868  40.457  11.180   6.419
 5012POPC   C3A63869  40.309  11.093   6.880
 5012POPC   C4A63870  40.053  11.203   7.252
 5012POPC   C1B63871  39.749  10.986   6.231
 5012POPC   C2B63872  39.966  11.310   6.484
 5012POPC   C3B63873  40.025  11.527   6.861
 5012POPC   C4B63874  39.806  11.645   7.240
 5013POPC   NC363875  21.871  18.708   5.388
 5013POPC   PO463876  21.947  19.362   5.378
 5013POPC   GL163877  22.023  19.058   5.741
 5013POPC   GL263878  22.377  18.945   5.739
 5013POPC   C1A63879  22.125  19.194   6.178
 5013POPC   D2A63880  22.059  19.517   6.507
 5013POPC   C3A63881  21.983  19.414   6.963
 5013POPC   C4A63882  22.171  19.207   7.332
 5013POPC   C1B63883  22.212  18.703   6.105
 5013POPC   C2B63884  22.108  18.839   6.535
 5013POPC   C3B63885  22.266  18.936   6.916
 5013POPC   C4B63886  22.140  18.688   7.244
 5014POPC   NC363887  28.896  28.424   5.198
 5014POPC   PO463888  29.378  28.080   5.493
 5014POPC   GL163889  29.111  28.329   5.825
 5014POPC   GL263890  29.263  28.666   5.954
 5014POPC   C1A63891  28.985  28.326   6.276
 5014POPC   D2A63892  29.108  28.021   6.597
 5014POPC   C3A63893  29.014  28.232   6.929
 5014POPC   C4A63894  29.182  28.293   7.296
 5014POPC   C1B63895  28.982  28.841   6.243
 5014POPC   C2B63896  29.018  28.708   6.685
 5014POPC   C3B63897  28.985  28.888   7.106
 5014POPC   C4B63898  29.081  28.727   7.522
 5015POPC   NC363899   0.492  36.475   5.043
 5015POPC   PO463900   0.341  35.837   5.282
 5015POPC   GL163901   0.384  36.038   5.677
 5015POPC   GL263902   0.143  36.299   5.679
 5015POPC   C1A63903   0.500  36.254   6.083
 5015POPC   D2A63904   0.721  36.292   6.487
 5015POPC   C3A63905   0.516  36.162   6.863
 5015POPC   C4A63906   0.575  36.303   7.240
 5015POPC   C1B63907   0.021  36.473   6.088
 5015POPC   C2B63908   0.188  36.382   6.504
 5015POPC   C3B63909   0.064  36.404   6.938
 5015POPC   C4B63910   0.154  36.525   7.385
 5016POPC   NC363911  14.007  29.197   5.451
 5016POPC   PO463912  13.391  29.543   5.467
 5016POPC   GL163913  13.519  29.252   5.778
 5016POPC   GL263914  13.831  29.410   5.890
 5016POPC   C1A63915  13.422  29.097   6.209
 5016POPC   D2A63916  13.603  28.931   6.570
 5016POPC   C3A63917  13.466  29.067   6.978
 5016POPC   C4A63918  13.681  28.902   7.317
 5016POPC   C1B63919  13.842  29.336   6.340
 5016POPC   C2B63920  13.798  29.413   6.754
 5016POPC   C3B63921  13.801  29.407   7.183
 5016POPC   C4B63922  13.892  29.449   7.635
 5017POPC   NC363923   0.672   3.104   5.377
 5017POPC   PO463924   0.219   2.613   5.453
 5017POPC   GL163925   0.284   2.804   5.851
 5017POPC   GL263926   0.627   2.806   5.821
 5017POPC   C1A63927   0.347   2.761   6.320
 5017POPC   D2A63928   0.198   2.924   6.750
 5017POPC   C3A63929   0.310   2.682   7.145
 5017POPC   C4A63930   0.304   2.319   7.456
 5017POPC   C1B63931   0.749   3.082   6.135
 5017POPC   C2B63932   0.653   3.130   6.563
 5017POPC   C3B63933   0.848   3.206   6.940
 5017POPC   C4B63934   0.811   2.924   7.272
 5018POPC   NC363935  11.367  42.879   5.489
 5018POPC   PO463936  10.836  43.223   5.468
 5018POPC   GL163937  11.165  43.235   5.805
 5018POPC   GL263938  11.527  43.314   5.700
 5018POPC   C1A63939  11.291  43.183   6.239
 5018POPC   D2A63940  11.273  42.941   6.652
 5018POPC   C3A63941  11.358  43.103   7.092
 5018POPC   C4A63942  11.342  43.465   7.353
 5018POPC   C1B63943  11.764  43.390   6.074
 5018POPC   C2B63944  11.679  43.464   6.488
 5018POPC   C3B63945  11.770  43.298   6.868
 5018POPC   C4B63946  11.854  43.288   7.303
 5019POPC   NC363947  21.587  19.332   5.666
 5019POPC   PO463948  21.009  19.775   5.560
 5019POPC   GL163949  21.286  19.779   5.958
 5019POPC   GL263950  21.503  20.115   6.041
 5019POPC   C1A63951  21.631  19.684   6.256
 5019POPC   D2A63952  21.769  20.005   6.517
 5019POPC   C3A63953  21.502  19.949   6.887
 5019POPC   C4A63954  21.586  19.676   7.226
 5019POPC   C1B63955  21.183  20.044   6.375
 5019POPC   C2B63956  21.003  20.189   6.763
 5019POPC   C3B63957  21.155  20.300   7.137
 5019POPC   C4B63958  21.456  20.130   7.435
 5020POPC   NC363959  19.485   9.119   5.435
 5020POPC   PO463960  19.122   8.565   5.383
 5020POPC   GL163961  19.123   8.750   5.837
 5020POPC   GL263962  19.183   9.089   5.873
 5020POPC   C1A63963  19.209   8.865   6.323
 5020POPC   D2A63964  19.071   9.098   6.690
 5020POPC   C3A63965  19.138   8.922   7.094
 5020POPC   C4A63966  19.371   8.554   7.230
 5020POPC   C1B63967  18.777   9.074   6.130
 5020POPC   C2B63968  18.575   9.138   6.569
 5020POPC   C3B63969  18.716   9.211   7.035
 5020POPC   C4B63970  18.971   9.286   7.441
 5021POPC   NC363971  17.290   7.687   5.449
 5021POPC   PO463972  17.420   8.425   5.395
 5021POPC   GL163973  17.599   8.400   5.806
 5021POPC   GL263974  17.515   8.031   5.783
 5021POPC   C1A63975  17.746   8.503   6.239
 5021POPC   D2A63976  17.782   8.261   6.632
 5021POPC   C3A63977  17.674   8.332   7.058
 5021POPC   C4A63978  17.604   8.100   7.465
 5021POPC   C1B63979  17.432   7.809   6.163
 5021POPC   C2B63980  17.376   7.976   6.583
 5021POPC   C3B63981  17.442   7.876   6.971
 5021POPC   C4B63982  17.465   7.640   7.314
 5022POPC   NC363983  31.686  31.859   5.440
 5022POPC   PO463984  31.369  32.538   5.444
 5022POPC   GL163985  31.430  32.543   5.905
 5022POPC   GL263986  31.752  32.406   5.913
 5022POPC   C1A63987  31.578  32.492   6.401
 5022POPC   D2A63988  31.460  32.226   6.782
 5022POPC   C3A63989  31.179  32.434   7.118
 5022POPC   C4A63990  31.270  32.529   7.609
 5022POPC   C1B63991  31.767  32.028   6.221
 5022POPC   C2B63992  31.995  31.858   6.590
 5022POPC   C3B63993  31.904  31.953   7.038
 5022POPC   C4B63994  31.642  32.288   7.259
 5023POPC   NC363995  23.523   5.830   5.457
 5023POPC   PO463996  24.141   5.780   5.676
 5023POPC   GL163997  23.767   5.781   5.932
 5023POPC   GL263998  23.556   6.043   5.915
 5023POPC   C1A63999  23.753   5.917   6.368
 5023POPC   D2A64000  24.132   5.881   6.595
 5023POPC   C3A64001  24.059   5.662   6.973
 5023POPC   C4A64002  23.786   5.753   7.323
 5023POPC   C1B64003  23.415   6.346   6.233
 5023POPC   C2B64004  23.388   6.169   6.650
 5023POPC   C3B64005  23.728   6.069   6.918
 5023POPC   C4B64006  23.829   6.337   7.233
 5024POPC   NC364007  36.112   1.665   5.373
 5024POPC   PO464008  36.509   2.221   5.315
 5024POPC   GL164009  36.255   2.189   5.745
 5024POPC   GL264010  36.137   1.844   5.841
 5024POPC   C1A64011  36.212   2.163   6.237
 5024POPC   D2A64012  36.088   2.034   6.678
 5024POPC   C3A64013  36.213   2.268   7.054
 5024POPC   C4A64014  36.111   2.379   7.500
 5024POPC   C1B64015  35.774   1.883   6.144
 5024POPC   C2B64016  35.658   1.622   6.485
 5024POPC   C3B64017  35.744   1.558   6.914
 5024POPC   C4B64018  36.011   1.783   7.161
 5025POPC   NC364019  23.712   9.187   5.175
 5025POPC   PO464020  23.750   8.525   5.430
 5025POPC   GL164021  23.883   8.726   5.798
 5025POPC   GL264022  23.995   9.057   5.765
 5025POPC   C1A64023  23.735   8.802   6.218
 5025POPC   D2A64024  23.900   8.988   6.583
 5025POPC   C3A64025  23.646   8.954   6.918
 5025POPC   C4A64026  23.709   9.058   7.299
 5025POPC   C1B64027  23.904   9.298   6.182
 5025POPC   C2B64028  23.781   9.480   6.619
 5025POPC   C3B64029  23.487   9.434   6.990
 5025POPC   C4B64030  23.205   9.099   7.196
 5026POPC   NC364031  39.396  34.252   5.616
 5026POPC   PO464032  39.090  33.617   5.439
 5026POPC   GL164033  39.112  33.635   5.877
 5026POPC   GL264034  39.298  33.896   5.991
 5026POPC   C1A64035  38.852  33.704   6.246
 5026POPC   D2A64036  38.922  34.074   6.465
 5026POPC   C3A64037  39.140  34.023   6.834
 5026POPC   C4A64038  38.959  33.946   7.217
 5026POPC   C1B64039  39.428  33.839   6.400
 5026POPC   C2B64040  39.693  34.121   6.621
 5026POPC   C3B64041  39.494  34.379   6.914
 5026POPC   C4B64042  39.476  34.069   7.288
 5027POPC   NC364043   2.402  17.511   5.410
 5027POPC   PO464044   3.117  17.374   5.452
 5027POPC   GL164045   2.795  17.422   5.770
 5027POPC   GL264046   2.578  17.702   5.856
 5027POPC   C1A64047   2.830  17.450   6.221
 5027POPC   D2A64048   2.927  17.214   6.576
 5027POPC   C3A64049   2.671  17.311   6.906
 5027POPC   C4A64050   2.865  17.306   7.261
 5027POPC   C1B64051   2.626  17.932   6.231
 5027POPC   C2B64052   2.755  17.770   6.629
 5027POPC   C3B64053   2.939  17.792   7.024
 5027POPC   C4B64054   2.639  17.750   7.304
 5028POPC   NC364055  43.229  30.608   5.474
 5028POPC   PO464056  42.689  30.528   5.119
 5028POPC   GL164057  42.773  30.763   5.586
 5028POPC   GL264058  42.913  30.511   5.847
 5028POPC   C1A64059  42.815  30.942   6.074
 5028POPC   D2A64060  42.959  30.894   6.527
 5028POPC   C3A64061  43.003  30.657   6.923
 5028POPC   C4A64062  43.090  30.746   7.358
 5028POPC   C1B64063  43.243  30.625   6.180
 5028POPC   C2B64064  43.420  30.698   6.622
 5028POPC   C3B64065  43.478  30.497   7.064
 5028POPC   C4B64066  43.509  30.519   7.524
 5029POPC   NC364067   0.589  23.406   5.403
 5029POPC   PO464068   0.225  23.912   5.581
 5029POPC   GL164069   0.569  23.715   5.833
 5029POPC   GL264070   0.339  23.469   5.842
 5029POPC   C1A64071   0.636  23.494   6.271
 5029POPC   D2A64072   0.455  23.434   6.714
 5029POPC   C3A64073   0.620  23.726   7.059
 5029POPC   C4A64074   0.666  23.659   7.512
 5029POPC   C1B64075   0.168  23.696   6.192
 5029POPC   C2B64076   0.018  23.617   6.567
 5029POPC   C3B64077   0.103  23.745   7.012
 5029POPC   C4B64078   0.129  23.711   7.470
 5030POPC   NC364079  39.161  13.438   5.515
 5030POPC   PO464080  39.411  14.033   5.301
 5030POPC   GL164081  39.266  13.898   5.774
 5030POPC   GL264082  38.945  13.825   5.892
 5030POPC   C1A64083  39.293  13.619   6.196
 5030POPC   D2A64084  39.157  13.452   6.636
 5030POPC   C3A64085  39.432  13.532   7.006
 5030POPC   C4A64086  39.646  13.881   7.234
 5030POPC   C1B64087  38.782  13.548   6.251
 5030POPC   C2B64088  38.650  13.571   6.700
 5030POPC   C3B64089  38.928  13.577   7.108
 5030POPC   C4B64090  39.041  13.313   7.533
 5031POPC   NC364091  35.826  17.141   5.541
 5031POPC   PO464092  36.237  17.764   5.401
 5031POPC   GL164093  36.250  17.610   5.820
 5031POPC   GL264094  35.948  17.559   5.801
 5031POPC   C1A64095  36.179  17.425   6.244
 5031POPC   D2A64096  36.372  17.238   6.601
 5031POPC   C3A64097  36.140  17.362   6.951
 5031POPC   C4A64098  36.342  17.430   7.314
 5031POPC   C1B64099  35.763  17.736   6.145
 5031POPC   C2B64100  35.753  17.638   6.579
 5031POPC   C3B64101  35.736  17.836   6.966
 5031POPC   C4B64102  35.855  17.618   7.325
 5032POPC   NC364103   8.407  14.812   5.495
 5032POPC   PO464104   7.842  14.518   5.322
 5032POPC   GL164105   8.085  14.486   5.788
 5032POPC   GL264106   8.151  14.786   5.939
 5032POPC   C1A64107   8.376  14.179   6.068
 5032POPC   D2A64108   8.577  14.244   6.456
 5032POPC   C3A64109   8.258  14.286   6.776
 5032POPC   C4A64110   8.303  14.042   7.135
 5032POPC   C1B64111   8.118  14.551   6.316
 5032POPC   C2B64112   7.875  14.661   6.658
 5032POPC   C3B64113   8.021  14.725   7.086
 5032POPC   C4B64114   8.440  14.550   7.189
 5033POPC   NC364115   4.569  37.588   5.296
 5033POPC   PO464116   4.126  38.161   5.153
 5033POPC   GL164117   4.246  37.909   5.558
 5033POPC   GL264118   4.343  38.125   5.791
 5033POPC   C1A64119   4.365  37.692   6.027
 5033POPC   D2A64120   4.504  37.610   6.496
 5033POPC   C3A64121   4.343  37.414   6.904
 5033POPC   C4A64122   4.518  37.486   7.339
 5033POPC   C1B64123   4.149  38.148   6.219
 5033POPC   C2B64124   4.182  37.978   6.640
 5033POPC   C3B64125   4.353  37.915   7.061
 5033POPC   C4B64126   4.227  38.213   7.364
 5034POPC   NC364127   7.330  26.495   5.383
 5034POPC   PO464128   7.382  27.152   5.367
 5034POPC   GL164129   7.482  27.000   5.749
 5034POPC   GL264130   7.224  26.767   5.848
 5034POPC   C1A64131   7.653  26.934   6.165
 5034POPC   D2A64132   7.541  26.797   6.568
 5034POPC   C3A64133   7.669  27.030   6.936
 5034POPC   C4A64134   7.445  27.255   7.255
 5034POPC   C1B64135   7.084  26.665   6.292
 5034POPC   C2B64136   7.097  26.661   6.777
 5034POPC   C3B64137   7.288  26.767   7.200
 5034POPC   C4B64138   7.109  26.632   7.600
 5035POPC   NC364139   4.165  28.529   5.397
 5035POPC   PO464140   4.657  28.059   5.500
 5035POPC   GL164141   4.478  28.399   5.785
 5035POPC   GL264142   4.095  28.412   5.884
 5035POPC   C1A64143   4.460  28.587   6.208
 5035POPC   D2A64144   4.635  28.540   6.633
 5035POPC   C3A64145   4.360  28.418   6.961
 5035POPC   C4A64146   4.453  28.104   7.246
 5035POPC   C1B64147   3.819  28.521   6.253
 5035POPC   C2B64148   3.781  28.754   6.680
 5035POPC   C3B64149   3.849  28.600   7.128
 5035POPC   C4B64150   4.181  28.482   7.457
 5036POPC   NC364151  34.601   0.017   5.199
 5036POPC   PO464152  34.511  44.442   5.313
 5036POPC   GL164153  34.418  44.577   5.749
 5036POPC   GL264154  34.145  44.777   5.823
 5036POPC   C1A64155  34.546  44.766   6.172
 5036POPC   D2A64156  34.794   0.049   6.459
 5036POPC   C3A64157  34.822  44.915   6.906
 5036POPC   C4A64158  34.647  44.522   6.951
 5036POPC   C1B64159  34.066  44.906   6.230
 5036POPC   C2B64160  34.317   0.000   6.612
 5036POPC   C3B64161  34.340  44.949   7.070
 5036POPC   C4B64162  34.310   0.020   7.503
 5037POPC   NC364163   4.867  29.223   5.556
 5037POPC   PO464164   5.331  28.789   5.382
 5037POPC   GL164165   5.317  29.008   5.769
 5037POPC   GL264166   5.291  28.664   5.896
 5037POPC   C1A64167   5.275  29.307   6.126
 5037POPC   D2A64168   5.311  29.421   6.581
 5037POPC   C3A64169   4.949  29.409   6.907
 5037POPC   C4A64170   4.718  29.155   7.220
 5037POPC   C1B64171   5.190  28.842   6.306
 5037POPC   C2B64172   4.964  28.928   6.681
 5037POPC   C3B64173   5.086  28.824   7.077
 5037POPC   C4B64174   5.436  28.956   7.299
 5038POPC   NC364175  33.227  23.461   5.484
 5038POPC   PO464176  32.837  23.873   5.188
 5038POPC   GL164177  32.721  23.642   5.673
 5038POPC   GL264178  32.989  23.622   5.894
 5038POPC   C1A64179  32.586  23.609   6.165
 5038POPC   D2A64180  32.726  23.481   6.600
 5038POPC   C3A64181  32.980  23.752   6.882
 5038POPC   C4A64182  33.098  23.994   7.236
 5038POPC   C1B64183  33.061  23.805   6.301
 5038POPC   C2B64184  33.384  23.662   6.558
 5038POPC   C3B64185  33.474  23.543   6.964
 5038POPC   C4B64186  33.278  23.521   7.339
 5039POPC   NC364187  17.938   5.732   5.240
 5039POPC   PO464188  18.348   6.113   5.528
 5039POPC   GL164189  18.406   5.747   5.791
 5039POPC   GL264190  18.099   5.581   5.913
 5039POPC   C1A64191  18.379   5.895   6.215
 5039POPC   D2A64192  18.246   6.033   6.603
 5039POPC   C3A64193  18.481   5.983   6.946
 5039POPC   C4A64194  18.380   5.874   7.322
 5039POPC   C1B64195  17.971   5.578   6.360
 5039POPC   C2B64196  17.931   5.693   6.817
 5039POPC   C3B64197  18.040   5.525   7.234
 5039POPC   C4B64198  18.010   5.315   7.647
 5040POPC   NC364199  24.326  17.875   5.455
 5040POPC   PO464200  24.887  18.210   5.504
 5040POPC   GL164201  24.504  18.313   5.803
 5040POPC   GL264202  24.340  18.003   5.951
 5040POPC   C1A64203  24.353  18.453   6.243
 5040POPC   D2A64204  24.402  18.261   6.680
 5040POPC   C3A64205  24.373  18.481   7.079
 5040POPC   C4A64206  24.436  18.508   7.525
 5040POPC   C1B64207  24.076  18.020   6.330
 5040POPC   C2B64208  23.948  17.968   6.756
 5040POPC   C3B64209  24.217  17.988   7.127
 5040POPC   C4B64210  24.277  18.043   7.572
 5041POPC   NC364211  39.061  10.828   5.616
 5041POPC   PO464212  39.572  11.233   5.513
 5041POPC   GL164213  39.219  11.318   5.794
 5041POPC   GL264214  39.299  11.041   6.011
 5041POPC   C1A64215  38.966  11.391   6.178
 5041POPC   D2A64216  39.007  11.579   6.590
 5041POPC   C3A64217  38.783  11.489   6.945
 5041POPC   C4A64218  38.828  11.124   7.228
 5041POPC   C1B64219  39.462  11.398   6.279
 5041POPC   C2B64220  39.536  11.477   6.708
 5041POPC   C3B64221  39.544  11.225   7.113
 5041POPC   C4B64222  39.308  10.862   7.208
 5042POPC   NC364223  26.574   5.684   5.604
 5042POPC   PO464224  27.022   6.155   5.499
 5042POPC   GL164225  26.954   5.928   5.884
 5042POPC   GL264226  27.115   5.624   5.774
 5042POPC   C1A64227  26.710   5.809   6.269
 5042POPC   D2A64228  26.787   5.560   6.663
 5042POPC   C3A64229  26.989   5.838   6.959
 5042POPC   C4A64230  26.801   6.064   7.257
 5042POPC   C1B64231  27.122   5.474   6.217
 5042POPC   C2B64232  27.295   5.555   6.634
 5042POPC   C3B64233  27.146   5.359   7.034
 5042POPC   C4B64234  26.987   5.475   7.480
 5043POPC   NC364235  34.079   2.071   5.406
 5043POPC   PO464236  33.425   2.240   5.413
 5043POPC   GL164237  33.651   2.004   5.792
 5043POPC   GL264238  34.004   1.956   5.886
 5043POPC   C1A64239  33.697   2.114   6.254
 5043POPC   D2A64240  33.513   2.134   6.683
 5043POPC   C3A64241  33.708   2.208   7.065
 5043POPC   C4A64242  33.908   2.394   7.418
 5043POPC   C1B64243  34.016   1.698   6.220
 5043POPC   C2B64244  33.920   1.800   6.624
 5043POPC   C3B64245  33.995   1.761   7.028
 5043POPC   C4B64246  33.903   1.877   7.421
 5044POPC   NC364247  24.400  27.356   5.640
 5044POPC   PO464248  24.746  27.909   5.517
 5044POPC   GL164249  24.412  27.800   5.896
 5044POPC   GL264250  24.159  27.489   6.060
 5044POPC   C1A64251  24.262  27.937   6.313
 5044POPC   D2A64252  24.652  27.917   6.608
 5044POPC   C3A64253  24.661  27.728   7.017
 5044POPC   C4A64254  24.300  27.814   7.254
 5044POPC   C1B64255  24.511  27.495   6.311
 5044POPC   C2B64256  24.272  27.561   6.686
 5044POPC   C3B64257  24.264  27.324   7.014
 5044POPC   C4B64258  24.591  27.262   7.272
 5045POPC   NC364259   0.409  37.349   5.522
 5045POPC   PO464260   0.220  36.705   5.377
 5045POPC   GL164261   0.400  36.719   5.815
 5045POPC   GL264262   0.562  37.014   5.878
 5045POPC   C1A64263   0.433  36.756   6.285
 5045POPC   D2A64264   0.203  36.872   6.662
 5045POPC   C3A64265   0.443  36.745   7.008
 5045POPC   C4A64266   0.532  36.854   7.430
 5045POPC   C1B64267   0.824  37.085   6.231
 5045POPC   C2B64268   0.671  37.138   6.655
 5045POPC   C3B64269   0.857  37.047   7.062
 5045POPC   C4B64270   0.963  36.648   7.263
 5046POPC   NC364271  12.360  18.463   5.414
 5046POPC   PO464272  12.951  18.146   5.498
 5046POPC   GL164273  13.062  18.061   5.893
 5046POPC   GL264274  12.794  18.248   6.033
 5046POPC   C1A64275  13.174  18.206   6.324
 5046POPC   D2A64276  12.820  18.279   6.587
 5046POPC   C3A64277  13.022  18.219   6.959
 5046POPC   C4A64278  12.993  17.908   7.276
 5046POPC   C1B64279  12.569  18.601   6.223
 5046POPC   C2B64280  12.328  18.606   6.610
 5046POPC   C3B64281  12.493  18.422   6.974
 5046POPC   C4B64282  12.663  18.281   7.318
 5047POPC   NC364283  26.044  24.773   5.378
 5047POPC   PO464284  25.553  24.467   5.412
 5047POPC   GL164285  25.840  24.498   5.801
 5047POPC   GL264286  26.117  24.224   5.859
 5047POPC   C1A64287  26.009  24.529   6.237
 5047POPC   D2A64288  26.178  24.473   6.655
 5047POPC   C3A64289  25.860  24.318   6.914
 5047POPC   C4A64290  25.829  24.401   7.313
 5047POPC   C1B64291  26.285  24.087   6.299
 5047POPC   C2B64292  26.243  23.953   6.740
 5047POPC   C3B64293  26.320  24.173   7.123
 5047POPC   C4B64294  26.228  24.242   7.599
 5048POPC   NC364295  14.825  44.564   5.404
 5048POPC   PO464296  15.435  44.825   5.177
 5048POPC   GL164297  15.178  44.842   5.624
 5048POPC   GL264298  15.181  44.501   5.820
 5048POPC   C1A64299  15.043  44.914   6.076
 5048POPC   D2A64300  15.240  44.766   6.478
 5048POPC   C3A64301  15.138  44.962   6.858
 5048POPC   C4A64302  15.258  44.881   7.282
 5048POPC   C1B64303  15.517  44.445   6.160
 5048POPC   C2B64304  15.529  44.327   6.589
 5048POPC   C3B64305  15.271  44.451   6.922
 5048POPC   C4B64306  15.479  44.441   7.287
 5049POPC   NC364307  30.997  27.925   5.409
 5049POPC   PO464308  30.422  27.535   5.365
 5049POPC   GL164309  30.598  27.664   5.820
 5049POPC   GL264310  30.831  27.981   5.904
 5049POPC   C1A64311  30.649  27.543   6.290
 5049POPC   D2A64312  30.913  27.665   6.674
 5049POPC   C3A64313  30.821  27.477   7.085
 5049POPC   C4A64314  30.393  27.297   7.221
 5049POPC   C1B64315  30.684  28.049   6.362
 5049POPC   C2B64316  30.398  27.875   6.690
 5049POPC   C3B64317  30.440  27.810   7.145
 5049POPC   C4B64318  30.829  27.909   7.376
 5050POPC   NC364319  32.235  16.137   5.347
 5050POPC   PO464320  32.082  15.533   5.149
 5050POPC   GL164321  32.257  15.726   5.646
 5050POPC   GL264322  32.348  16.061   5.839
 5050POPC   C1A64323  32.402  15.608   6.096
 5050POPC   D2A64324  32.444  15.827   6.501
 5050POPC   C3A64325  32.319  15.656   6.897
 5050POPC   C4A64326  32.008  15.786   7.183
 5050POPC   C1B64327  32.603  16.214   6.210
 5050POPC   C2B64328  32.454  16.361   6.617
 5050POPC   C3B64329  32.301  16.181   7.017
 5050POPC   C4B64330  32.233  16.222   7.468
 5051POPC   NC364331  19.719  32.509   5.451
 5051POPC   PO464332  20.052  31.926   5.368
 5051POPC   GL164333  19.794  32.080   5.737
 5051POPC   GL264334  20.017  32.309   5.818
 5051POPC   C1A64335  19.587  32.185   6.152
 5051POPC   D2A64336  19.577  31.920   6.536
 5051POPC   C3A64337  19.578  32.116   6.947
 5051POPC   C4A64338  19.729  32.355   7.277
 5051POPC   C1B64339  20.245  32.155   6.174
 5051POPC   C2B64340  20.382  32.244   6.583
 5051POPC   C3B64341  20.113  32.278   6.928
 5051POPC   C4B64342  20.243  32.268   7.321
 5052POPC   NC364343  20.629   3.117   5.118
 5052POPC   PO464344  20.594   2.532   5.470
 5052POPC   GL164345  20.543   2.624   5.885
 5052POPC   GL264346  20.451   2.976   5.866
 5052POPC   C1A64347  20.474   2.691   6.297
 5052POPC   D2A64348  20.610   2.550   6.645
 5052POPC   C3A64349  20.561   2.852   6.937
 5052POPC   C4A64350  20.617   2.664   7.302
 5052POPC   C1B64351  20.699   3.127   6.222
 5052POPC   C2B64352  20.921   2.976   6.573
 5052POPC   C3B64353  21.046   3.089   6.964
 5052POPC   C4B64354  20.856   3.116   7.346
 5053POPC   NC364355  44.997  40.919   5.390
 5053POPC   PO464356   0.495  40.506   5.095
 5053POPC   GL164357   0.396  40.621   5.601
 5053POPC   GL264358   0.392  40.938   5.731
 5053POPC   C1A64359   0.447  40.602   6.114
 5053POPC   D2A64360   0.523  40.793   6.553
 5053POPC   C3A64361   0.476  40.628   6.996
 5053POPC   C4A64362   0.438  40.613   7.482
 5053POPC   C1B64363   0.602  41.097   6.110
 5053POPC   C2B64364   0.526  41.314   6.507
 5053POPC   C3B64365   0.462  41.170   6.916
 5053POPC   C4B64366   0.242  41.389   7.197
 5054POPC   NC364367  40.661  26.634   5.240
 5054POPC   PO464368  41.119  26.660   5.705
 5054POPC   GL164369  40.847  26.823   5.979
 5054POPC   GL264370  40.646  27.049   5.793
 5054POPC   C1A64371  40.822  26.666   6.407
 5054POPC   D2A64372  40.974  26.352   6.708
 5054POPC   C3A64373  41.028  26.602   7.049
 5054POPC   C4A64374  40.717  26.795   7.266
 5054POPC   C1B64375  40.468  27.013   6.259
 5054POPC   C2B64376  40.544  26.970   6.735
 5054POPC   C3B64377  40.386  27.147   7.139
 5054POPC   C4B64378  40.581  27.185   7.574
 5055POPC   NC364379   1.053  26.390   5.499
 5055POPC   PO464380   1.508  26.823   5.340
 5055POPC   GL164381   1.285  26.851   5.720
 5055POPC   GL264382   0.907  26.857   5.750
 5055POPC   C1A64383   1.281  26.721   6.148
 5055POPC   D2A64384   1.149  26.810   6.559
 5055POPC   C3A64385   1.437  26.822   6.901
 5055POPC   C4A64386   1.376  27.095   7.235
 5055POPC   C1B64387   0.757  26.692   6.158
 5055POPC   C2B64388   0.731  26.529   6.579
 5055POPC   C3B64389   0.951  26.616   6.994
 5055POPC   C4B64390   0.942  26.845   7.366
 5056POPC   NC364391  26.626  12.638   5.680
 5056POPC   PO464392  26.853  13.168   5.400
 5056POPC   GL164393  26.933  13.019   5.810
 5056POPC   GL264394  27.125  12.708   5.810
 5056POPC   C1A64395  26.859  12.858   6.244
 5056POPC   D2A64396  26.764  12.714   6.638
 5056POPC   C3A64397  26.831  12.924   7.020
 5056POPC   C4A64398  26.555  12.879   7.359
 5056POPC   C1B64399  27.133  12.441   6.154
 5056POPC   C2B64400  27.253  12.530   6.557
 5056POPC   C3B64401  27.074  12.417   6.919
 5056POPC   C4B64402  27.092  12.534   7.322
 5057POPC   NC364403  41.981   8.359   5.513
 5057POPC   PO464404  42.685   8.290   5.463
 5057POPC   GL164405  42.542   8.082   5.855
 5057POPC   GL264406  42.168   8.081   5.884
 5057POPC   C1A64407  42.423   8.025   6.303
 5057POPC   D2A64408  42.137   8.046   6.630
 5057POPC   C3A64409  42.385   7.921   6.957
 5057POPC   C4A64410  42.383   8.136   7.327
 5057POPC   C1B64411  42.129   8.456   6.180
 5057POPC   C2B64412  42.250   8.556   6.592
 5057POPC   C3B64413  42.222   8.453   6.984
 5057POPC   C4B64414  41.925   8.512   7.306
 5058POPC   NC364415  34.358  12.686   5.349
 5058POPC   PO464416  34.936  12.744   5.555
 5058POPC   GL164417  34.739  12.572   5.877
 5058POPC   GL264418  34.378  12.588   5.916
 5058POPC   C1A64419  34.781  12.623   6.297
 5058POPC   D2A64420  34.584  12.833   6.612
 5058POPC   C3A64421  34.833  12.985   6.944
 5058POPC   C4A64422  34.933  13.012   7.361
 5058POPC   C1B64423  34.332  12.352   6.333
 5058POPC   C2B64424  34.492  12.365   6.777
 5058POPC   C3B64425  34.465  12.648   7.136
 5058POPC   C4B64426  34.205  12.598   7.515
 5059POPC   NC364427  31.720  10.430   5.087
 5059POPC   PO464428  31.109  10.529   5.383
 5059POPC   GL164429  31.297  10.681   5.844
 5059POPC   GL264430  31.623  10.555   5.994
 5059POPC   C1A64431  31.327  10.780   6.339
 5059POPC   D2A64432  31.317  10.420   6.653
 5059POPC   C3A64433  31.241  10.533   7.085
 5059POPC   C4A64434  31.372  10.617   7.505
 5059POPC   C1B64435  31.736  10.290   6.347
 5059POPC   C2B64436  31.799  10.275   6.808
 5059POPC   C3B64437  31.743  10.382   7.232
 5059POPC   C4B64438  31.625  10.224   7.657
 5060POPC   NC364439  11.288  17.568   5.319
 5060POPC   PO464440  10.740  17.350   5.656
 5060POPC   GL164441  11.142  17.509   5.810
 5060POPC   GL264442  11.475  17.360   5.751
 5060POPC   C1A64443  11.324  17.761   6.139
 5060POPC   D2A64444  11.396  17.658   6.568
 5060POPC   C3A64445  11.087  17.773   6.868
 5060POPC   C4A64446  11.066  17.526   7.209
 5060POPC   C1B64447  11.467  17.264   6.208
 5060POPC   C2B64448  11.698  17.195   6.606
 5060POPC   C3B64449  11.529  17.354   6.965
 5060POPC   C4B64450  11.474  17.234   7.359
 5061POPC   NC364451  24.357   1.259   5.316
 5061POPC   PO464452  24.062   0.735   5.521
 5061POPC   GL164453  24.443   0.916   5.750
 5061POPC   GL264454  24.564   1.292   5.764
 5061POPC   C1A64455  24.619   1.008   6.176
 5061POPC   D2A64456  24.708   0.904   6.596
 5061POPC   C3A64457  24.441   1.151   6.846
 5061POPC   C4A64458  24.356   1.170   7.239
 5061POPC   C1B64459  24.792   1.507   6.094
 5061POPC   C2B64460  24.663   1.462   6.502
 5061POPC   C3B64461  24.702   1.618   6.906
 5061POPC   C4B64462  24.563   1.617   7.325
 5062POPC   NC364463   5.833  23.359   5.428
 5062POPC   PO464464   5.875  22.732   5.239
 5062POPC   GL164465   6.013  22.769   5.680
 5062POPC   GL264466   5.728  22.957   5.772
 5062POPC   C1A64467   5.964  22.703   6.165
 5062POPC   D2A64468   6.060  22.726   6.612
 5062POPC   C3A64469   5.766  22.657   6.958
 5062POPC   C4A64470   5.869  22.923   7.284
 5062POPC   C1B64471   5.563  23.060   6.206
 5062POPC   C2B64472   5.591  23.024   6.657
 5062POPC   C3B64473   5.485  23.167   7.077
 5062POPC   C4B64474   5.509  23.109   7.590
 5063POPC   NC364475  29.500  16.091   5.620
 5063POPC   PO464476  30.223  16.026   5.459
 5063POPC   GL164477  29.979  16.017   5.779
 5063POPC   GL264478  29.912  15.691   5.784
 5063POPC   C1A64479  29.803  16.151   6.193
 5063POPC   D2A64480  29.774  15.948   6.547
 5063POPC   C3A64481  29.930  16.082   6.891
 5063POPC   C4A64482  30.000  15.831   7.240
 5063POPC   C1B64483  29.678  15.618   6.162
 5063POPC   C2B64484  29.639  15.467   6.618
 5063POPC   C3B64485  29.590  15.534   7.064
 5063POPC   C4B64486  29.609  15.688   7.529
 5064POPC   NC364487  17.247   9.742   5.543
 5064POPC   PO464488  17.772   9.361   5.416
 5064POPC   GL164489  17.584   9.483   5.819
 5064POPC   GL264490  17.602   9.856   5.916
 5064POPC   C1A64491  17.565   9.460   6.260
 5064POPC   D2A64492  17.785   9.633   6.610
 5064POPC   C3A64493  17.619   9.589   6.994
 5064POPC   C4A64494  17.461   9.693   7.407
 5064POPC   C1B64495  17.226   9.831   6.187
 5064POPC   C2B64496  17.185   9.626   6.586
 5064POPC   C3B64497  17.153   9.778   6.977
 5064POPC   C4B64498  16.958   9.785   7.339
 5065POPC   NC364499  26.551   1.968   5.411
 5065POPC   PO464500  27.212   2.224   5.329
 5065POPC   GL164501  27.078   2.065   5.773
 5065POPC   GL264502  26.833   1.820   5.794
 5065POPC   C1A64503  27.090   1.888   6.230
 5065POPC   D2A64504  27.307   1.727   6.608
 5065POPC   C3A64505  27.079   1.932   6.919
 5065POPC   C4A64506  26.773   2.015   7.217
 5065POPC   C1B64507  26.584   1.782   6.189
 5065POPC   C2B64508  26.674   1.782   6.626
 5065POPC   C3B64509  26.415   1.747   6.985
 5065POPC   C4B64510  26.410   1.429   7.293
 5066POPC   NC364511   0.097   7.280   5.447
 5066POPC   PO464512  44.376   7.422   5.440
 5066POPC   GL164513  44.691   7.398   5.770
 5066POPC   GL264514  44.493   7.614   5.946
 5066POPC   C1A64515  44.769   7.256   6.205
 5066POPC   D2A64516  44.450   7.293   6.546
 5066POPC   C3A64517  44.565   7.408   6.967
 5066POPC   C4A64518  44.886   7.273   7.237
 5066POPC   C1B64519  44.235   7.765   6.279
 5066POPC   C2B64520  44.260   7.803   6.705
 5066POPC   C3B64521  44.461   7.907   7.060
 5066POPC   C4B64522  44.485   7.687   7.438
 5067POPC   NC364523  32.099  43.535   5.533
 5067POPC   PO464524  32.558  43.038   5.539
 5067POPC   GL164525  32.279  43.009   5.857
 5067POPC   GL264526  31.963  43.176   5.874
 5067POPC   C1A64527  32.295  42.856   6.253
 5067POPC   D2A64528  32.330  43.033   6.632
 5067POPC   C3A64529  32.390  42.814   7.014
 5067POPC   C4A64530  32.278  42.911   7.410
 5067POPC   C1B64531  32.134  43.386   6.240
 5067POPC   C2B64532  32.063  43.480   6.687
 5067POPC   C3B64533  32.202  43.286   7.062
 5067POPC   C4B64534  31.902  43.308   7.362
 5068POPC   NC364535  13.004  33.741   5.355
 5068POPC   PO464536  13.357  34.152   5.730
 5068POPC   GL164537  13.016  33.878   5.879
 5068POPC   GL264538  12.668  33.695   5.849
 5068POPC   C1A64539  12.901  33.844   6.289
 5068POPC   D2A64540  12.721  34.092   6.590
 5068POPC   C3A64541  12.864  33.976   6.958
 5068POPC   C4A64542  12.757  33.760   7.267
 5068POPC   C1B64543  12.590  33.448   6.260
 5068POPC   C2B64544  12.680  33.537   6.708
 5068POPC   C3B64545  12.539  33.337   7.092
 5068POPC   C4B64546  12.478  33.456   7.531
 5069POPC   NC364547  31.425  20.177   5.307
 5069POPC   PO464548  31.417  20.811   5.526
 5069POPC   GL164549  31.424  20.515   5.824
 5069POPC   GL264550  31.743  20.656   5.928
 5069POPC   C1A64551  31.441  20.439   6.280
 5069POPC   D2A64552  31.501  20.649   6.682
 5069POPC   C3A64553  31.511  20.502   7.101
 5069POPC   C4A64554  31.273  20.701   7.426
 5069POPC   C1B64555  31.747  20.895   6.299
 5069POPC   C2B64556  31.747  21.114   6.697
 5069POPC   C3B64557  31.646  20.990   7.122
 5069POPC   C4B64558  31.948  20.753   7.357
 5070POPC   NC364559  39.300   9.117   5.397
 5070POPC   PO464560  39.392   8.473   5.472
 5070POPC   GL164561  39.226   8.785   5.822
 5070POPC   GL264562  39.369   9.150   5.890
 5070POPC   C1A64563  39.283   8.842   6.289
 5070POPC   D2A64564  39.103   8.907   6.701
 5070POPC   C3A64565  39.282   8.704   7.075
 5070POPC   C4A64566  39.347   8.993   7.415
 5070POPC   C1B64567  38.942   9.185   6.097
 5070POPC   C2B64568  38.845   9.322   6.531
 5070POPC   C3B64569  38.755   9.212   6.946
 5070POPC   C4B64570  38.870   8.961   7.272
 5071POPC   NC364571   5.688  28.447   5.397
 5071POPC   PO464572   6.192  28.061   5.550
 5071POPC   GL164573   6.043  28.384   5.840
 5071POPC   GL264574   5.696  28.344   5.900
 5071POPC   C1A64575   6.008  28.417   6.323
 5071POPC   D2A64576   6.163  28.236   6.733
 5071POPC   C3A64577   6.015  28.430   7.129
 5071POPC   C4A64578   6.132  28.499   7.606
 5071POPC   C1B64579   5.499  28.435   6.309
 5071POPC   C2B64580   5.543  28.675   6.690
 5071POPC   C3B64581   5.481  28.470   7.084
 5071POPC   C4B64582   5.663  28.367   7.484
 5072POPC   NC364583  16.388  21.060   5.569
 5072POPC   PO464584  17.012  21.308   5.506
 5072POPC   GL164585  16.720  21.426   5.798
 5072POPC   GL264586  16.950  21.616   6.006
 5072POPC   C1A64587  16.469  21.573   6.151
 5072POPC   D2A64588  16.678  21.605   6.555
 5072POPC   C3A64589  16.547  21.288   6.827
 5072POPC   C4A64590  16.399  21.360   7.211
 5072POPC   C1B64591  17.129  21.197   6.134
 5072POPC   C2B64592  17.073  21.095   6.554
 5072POPC   C3B64593  17.044  21.368   6.899
 5072POPC   C4B64594  16.901  21.230   7.285
 5073POPC   NC364595  16.833  29.546   5.279
 5073POPC   PO464596  16.966  28.893   5.332
 5073POPC   GL164597  16.847  29.195   5.677
 5073POPC   GL264598  17.077  29.499   5.733
 5073POPC   C1A64599  16.771  29.114   6.121
 5073POPC   D2A64600  17.059  28.939   6.439
 5073POPC   C3A64601  16.852  28.964   6.821
 5073POPC   C4A64602  16.579  28.794   7.126
 5073POPC   C1B64603  17.194  29.390   6.145
 5073POPC   C2B64604  16.994  29.445   6.554
 5073POPC   C3B64605  17.050  29.385   6.996
 5073POPC   C4B64606  16.658  29.296   7.258
 5074POPC   NC364607   7.743   3.074   5.623
 5074POPC   PO464608   7.446   2.606   5.245
 5074POPC   GL164609   7.478   2.646   5.751
 5074POPC   GL264610   7.241   2.871   5.888
 5074POPC   C1A64611   7.560   2.760   6.254
 5074POPC   D2A64612   7.440   2.861   6.725
 5074POPC   C3A64613   7.772   2.805   7.070
 5074POPC   C4A64614   7.861   2.460   7.310
 5074POPC   C1B64615   7.050   2.992   6.281
 5074POPC   C2B64616   7.004   3.120   6.691
 5074POPC   C3B64617   7.023   2.965   7.067
 5074POPC   C4B64618   7.315   2.725   7.243
 5075POPC   NC364619  13.472  11.149   5.338
 5075POPC   PO464620  13.513  11.809   5.464
 5075POPC   GL164621  13.637  11.499   5.791
 5075POPC   GL264622  13.856  11.189   5.760
 5075POPC   C1A64623  13.689  11.325   6.204
 5075POPC   D2A64624  13.862  11.395   6.559
 5075POPC   C3A64625  13.576  11.396   6.899
 5075POPC   C4A64626  13.486  11.156   7.257
 5075POPC   C1B64627  14.099  11.031   6.176
 5075POPC   C2B64628  14.056  10.885   6.587
 5075POPC   C3B64629  13.929  11.054   6.995
 5075POPC   C4B64630  13.893  10.863   7.412
 5076POPC   NC364631  10.795  32.811   5.527
 5076POPC   PO464632  10.273  33.337   5.506
 5076POPC   GL164633  10.446  33.068   5.842
 5076POPC   GL264634  10.791  33.153   5.937
 5076POPC   C1A64635  10.424  33.029   6.303
 5076POPC   D2A64636  10.246  32.959   6.716
 5076POPC   C3A64637  10.337  33.221   7.060
 5076POPC   C4A64638  10.518  33.073   7.450
 5076POPC   C1B64639  10.870  32.786   6.221
 5076POPC   C2B64640  10.712  32.732   6.647
 5076POPC   C3B64641  10.815  32.956   7.042
 5076POPC   C4B64642  10.937  32.794   7.482
 5077POPC   NC364643  25.968   6.885   5.181
 5077POPC   PO464644  25.960   7.566   5.365
 5077POPC   GL164645  26.107   7.334   5.728
 5077POPC   GL264646  25.801   7.366   5.947
 5077POPC   C1A64647  26.299   7.324   6.161
 5077POPC   D2A64648  26.248   7.270   6.637
 5077POPC   C3A64649  26.062   7.616   6.893
 5077POPC   C4A64650  26.233   7.655   7.320
 5077POPC   C1B64651  25.841   7.437   6.375
 5077POPC   C2B64652  25.714   7.208   6.725
 5077POPC   C3B64653  25.816   7.246   7.136
 5077POPC   C4B64654  25.706   7.630   7.354
 5078POPC   NC364655  44.349  15.344   5.459
 5078POPC   PO464656  43.644  15.275   5.320
 5078POPC   GL164657  43.911  15.255   5.738
 5078POPC   GL264658  43.910  14.936   5.895
 5078POPC   C1A64659  43.972  15.379   6.179
 5078POPC   D2A64660  43.716  15.389   6.563
 5078POPC   C3A64661  43.956  15.410   6.933
 5078POPC   C4A64662  44.068  15.409   7.368
 5078POPC   C1B64663  43.653  14.965   6.249
 5078POPC   C2B64664  43.810  14.814   6.640
 5078POPC   C3B64665  43.872  14.925   7.068
 5078POPC   C4B64666  43.568  15.236   7.234
 5079POPC   NC364667  33.154  10.846   5.493
 5079POPC   PO464668  32.764  10.401   5.469
 5079POPC   GL164669  32.918  10.528   5.836
 5079POPC   GL264670  32.810  10.854   5.858
 5079POPC   C1A64671  33.192  10.687   6.162
 5079POPC   D2A64672  33.059  10.787   6.581
 5079POPC   C3A64673  33.149  10.493   6.915
 5079POPC   C4A64674  33.277  10.445   7.317
 5079POPC   C1B64675  32.664  10.781   6.235
 5079POPC   C2B64676  32.511  10.822   6.621
 5079POPC   C3B64677  32.725  10.762   6.982
 5079POPC   C4B64678  32.924  11.012   7.266
 5080POPC   NC364679  28.476  14.764   5.579
 5080POPC   PO464680  28.779  14.189   5.357
 5080POPC   GL164681  28.579  14.290   5.767
 5080POPC   GL264682  28.223  14.355   5.841
 5080POPC   C1A64683  28.580  14.501   6.187
 5080POPC   D2A64684  28.402  14.674   6.551
 5080POPC   C3A64685  28.478  14.441   6.894
 5080POPC   C4A64686  28.639  14.405   7.285
 5080POPC   C1B64687  28.053  14.679   6.158
 5080POPC   C2B64688  27.806  14.666   6.553
 5080POPC   C3B64689  27.956  14.779   6.950
 5080POPC   C4B64690  28.134  14.520   7.257
 5081POPC   NC364691  39.191   2.909   5.470
 5081POPC   PO464692  39.603   2.313   5.481
 5081POPC   GL164693  39.263   2.460   5.837
 5081POPC   GL264694  38.995   2.745   5.901
 5081POPC   C1A64695  39.285   2.653   6.289
 5081POPC   D2A64696  39.450   2.938   6.629
 5081POPC   C3A64697  39.320   2.719   6.997
 5081POPC   C4A64698  38.991   2.515   7.230
 5081POPC   C1B64699  38.887   3.117   6.173
 5081POPC   C2B64700  39.017   3.272   6.588
 5081POPC   C3B64701  38.913   3.308   7.047
 5081POPC   C4B64702  39.067   3.021   7.341
 5082POPC   NC364703   5.530  41.534   5.399
 5082POPC   PO464704   5.036  41.888   5.142
 5082POPC   GL164705   4.939  41.681   5.640
 5082POPC   GL264706   5.043  41.326   5.712
 5082POPC   C1A64707   4.812  41.570   6.120
 5082POPC   D2A64708   5.011  41.571   6.551
 5082POPC   C3A64709   4.865  41.470   6.959
 5082POPC   C4A64710   5.130  41.542   7.307
 5082POPC   C1B64711   5.189  41.244   6.145
 5082POPC   C2B64712   5.476  41.257   6.493
 5082POPC   C3B64713   5.405  41.260   6.929
 5082POPC   C4B64714   5.585  41.318   7.316
 5083POPC   NC364715   1.118  12.211   5.335
 5083POPC   PO464716   1.316  11.548   5.551
 5083POPC   GL164717   1.202  11.936   5.753
 5083POPC   GL264718   0.910  11.891   5.915
 5083POPC   C1A64719   1.245  12.206   6.155
 5083POPC   D2A64720   1.404  12.107   6.593
 5083POPC   C3A64721   1.434  12.222   7.061
 5083POPC   C4A64722   1.291  12.339   7.483
 5083POPC   C1B64723   1.221  11.698   6.212
 5083POPC   C2B64724   1.220  11.629   6.642
 5083POPC   C3B64725   1.080  11.880   6.925
 5083POPC   C4B64726   1.017  11.875   7.316
 5084POPC   NC364727  11.358   0.641   5.518
 5084POPC   PO464728  11.018   0.172   5.581
 5084POPC   GL164729  11.224   0.236   5.953
 5084POPC   GL264730  11.370   0.553   6.010
 5084POPC   C1A64731  11.221   0.283   6.409
 5084POPC   D2A64732  11.108   0.629   6.682
 5084POPC   C3A64733  10.911   0.434   7.027
 5084POPC   C4A64734  11.204   0.184   7.224
 5084POPC   C1B64735  11.584   0.725   6.365
 5084POPC   C2B64736  11.612   0.754   6.821
 5084POPC   C3B64737  11.567   0.634   7.258
 5084POPC   C4B64738  11.695   0.802   7.686
 5085POPC   NC364739  24.026  37.828   5.403
 5085POPC   PO464740  23.547  37.439   5.348
 5085POPC   GL164741  23.584  37.664   5.736
 5085POPC   GL264742  23.919  37.693   5.861
 5085POPC   C1A64743  23.542  37.528   6.184
 5085POPC   D2A64744  23.484  37.701   6.589
 5085POPC   C3A64745  23.494  37.416   6.919
 5085POPC   C4A64746  23.604  37.654   7.287
 5085POPC   C1B64747  23.772  37.975   6.147
 5085POPC   C2B64748  23.941  37.923   6.548
 5085POPC   C3B64749  23.784  37.988   6.946
 5085POPC   C4B64750  24.032  37.931   7.306
 5086POPC   NC364751   9.349   3.125   5.437
 5086POPC   PO464752   9.070   3.698   5.346
 5086POPC   GL164753   8.893   3.573   5.751
 5086POPC   GL264754   9.221   3.511   5.823
 5086POPC   C1A64755   8.872   3.304   6.169
 5086POPC   D2A64756   8.680   3.305   6.601
 5086POPC   C3A64757   8.761   3.694   6.900
 5086POPC   C4A64758   8.848   3.612   7.300
 5086POPC   C1B64759   9.102   3.762   6.194
 5086POPC   C2B64760   9.118   3.572   6.579
 5086POPC   C3B64761   9.098   3.313   6.959
 5086POPC   C4B64762   9.333   3.582   7.241
 5087POPC   NC364763  28.669  17.447   5.540
 5087POPC   PO464764  28.089  17.713   5.704
 5087POPC   GL164765  28.363  17.575   5.966
 5087POPC   GL264766  28.353  17.270   5.937
 5087POPC   C1A64767  28.386  17.556   6.418
 5087POPC   D2A64768  28.161  17.684   6.805
 5087POPC   C3A64769  28.440  17.724   7.149
 5087POPC   C4A64770  28.463  17.735   7.587
 5087POPC   C1B64771  28.014  17.210   6.233
 5087POPC   C2B64772  28.144  17.181   6.665
 5087POPC   C3B64773  28.302  17.246   7.070
 5087POPC   C4B64774  28.099  17.400   7.430
 5088POPC   NC364775  42.213  10.983   5.341
 5088POPC   PO464776  42.666  10.555   5.628
 5088POPC   GL164777  42.337  10.523   5.905
 5088POPC   GL264778  42.211  10.180   5.874
 5088POPC   C1A64779  42.443  10.615   6.339
 5088POPC   D2A64780  42.653  10.464   6.678
 5088POPC   C3A64781  42.482  10.417   7.110
 5088POPC   C4A64782  42.276  10.764   7.109
 5088POPC   C1B64783  42.033  10.346   6.275
 5088POPC   C2B64784  42.116  10.467   6.718
 5088POPC   C3B64785  41.938  10.369   7.111
 5088POPC   C4B64786  42.106  10.213   7.499
 5089POPC   NC364787   5.123  26.283   5.492
 5089POPC   PO464788   5.452  25.711   5.389
 5089POPC   GL164789   5.260  25.867   5.776
 5089POPC   GL264790   4.871  25.910   5.818
 5089POPC   C1A64791   5.285  26.061   6.186
 5089POPC   D2A64792   5.368  25.857   6.595
 5089POPC   C3A64793   5.171  25.883   6.981
 5089POPC   C4A64794   5.361  26.236   7.149
 5089POPC   C1B64795   4.792  26.179   6.217
 5089POPC   C2B64796   5.010  26.252   6.629
 5089POPC   C3B64797   4.858  26.279   7.072
 5089POPC   C4B64798   4.720  26.063   7.440
 5090POPC   NC364799  36.772  23.691   5.512
 5090POPC   PO464800  37.240  23.929   5.867
 5090POPC   GL164801  36.982  23.622   6.110
 5090POPC   GL264802  36.643  23.485   5.964
 5090POPC   C1A64803  37.076  23.690   6.555
 5090POPC   D2A64804  37.001  24.020   6.854
 5090POPC   C3A64805  37.012  23.829   7.240
 5090POPC   C4A64806  37.197  23.657   7.612
 5090POPC   C1B64807  36.372  23.567   6.330
 5090POPC   C2B64808  36.581  23.664   6.709
 5090POPC   C3B64809  36.555  23.584   7.136
 5090POPC   C4B64810  36.818  23.390   7.407
 5091POPC   NC364811  35.482  27.149   5.000
 5091POPC   PO464812  35.456  26.854   5.574
 5091POPC   GL164813  35.519  26.744   5.959
 5091POPC   GL264814  35.743  26.966   6.068
 5091POPC   C1A64815  35.449  26.540   6.368
 5091POPC   D2A64816  35.626  26.476   6.749
 5091POPC   C3A64817  35.422  26.771   7.001
 5091POPC   C4A64818  35.317  26.565   7.348
 5091POPC   C1B64819  35.325  27.032   6.317
 5091POPC   C2B64820  35.046  27.054   6.654
 5091POPC   C3B64821  35.156  27.272   7.017
 5091POPC   C4B64822  35.209  27.053   7.387
 5092POPC   NC364823  10.539   0.070   5.561
 5092POPC   PO464824  10.139   0.620   5.439
 5092POPC   GL164825  10.440   0.548   5.797
 5092POPC   GL264826  10.798   0.722   5.757
 5092POPC   C1A64827  10.377   0.323   6.192
 5092POPC   D2A64828  10.188   0.223   6.576
 5092POPC   C3A64829  10.387   0.388   6.922
 5092POPC   C4A64830  10.495   0.224   7.295
 5092POPC   C1B64831  10.840   0.539   6.159
 5092POPC   C2B64832  10.632   0.672   6.514
 5092POPC   C3B64833  10.649   0.855   6.895
 5092POPC   C4B64834  10.541   0.746   7.273
 5093POPC   NC364835  20.111   2.263   5.516
 5093POPC   PO464836  19.656   1.857   5.314
 5093POPC   GL164837  19.827   1.899   5.746
 5093POPC   GL264838  19.874   2.207   5.958
 5093POPC   C1A64839  19.884   1.747   6.177
 5093POPC   D2A64840  19.814   2.050   6.491
 5093POPC   C3A64841  19.898   1.852   6.832
 5093POPC   C4A64842  19.997   1.976   7.193
 5093POPC   C1B64843  19.529   2.374   6.196
 5093POPC   C2B64844  19.601   2.507   6.591
 5093POPC   C3B64845  19.729   2.343   6.948
 5093POPC   C4B64846  19.615   2.514   7.338
 5094POPC   NC364847  35.566   1.333   5.466
 5094POPC   PO464848  34.909   1.115   5.549
 5094POPC   GL164849  35.249   1.136   5.854
 5094POPC   GL264850  35.456   1.443   5.957
 5094POPC   C1A64851  35.139   1.193   6.287
 5094POPC   D2A64852  35.327   1.283   6.674
 5094POPC   C3A64853  35.162   1.275   7.093
 5094POPC   C4A64854  34.985   0.918   7.307
 5094POPC   C1B64855  35.650   1.139   6.234
 5094POPC   C2B64856  35.867   1.140   6.629
 5094POPC   C3B64857  35.624   1.069   7.002
 5094POPC   C4B64858  35.571   1.170   7.404
 5095POPC   NC364859  16.513  25.138   5.573
 5095POPC   PO464860  17.054  25.313   5.192
 5095POPC   GL164861  16.943  25.379   5.702
 5095POPC   GL264862  16.625  25.558   5.838
 5095POPC   C1A64863  16.826  25.272   6.193
 5095POPC   D2A64864  16.819  25.190   6.671
 5095POPC   C3A64865  16.632  25.266   7.081
 5095POPC   C4A64866  16.900  25.307   7.435
 5095POPC   C1B64867  16.540  25.739   6.228
 5095POPC   C2B64868  16.444  25.559   6.633
 5095POPC   C3B64869  16.379  25.748   7.037
 5095POPC   C4B64870  16.594  25.684   7.395
 5096POPC   NC364871  28.516  36.407   5.282
 5096POPC   PO464872  28.184  37.008   5.482
 5096POPC   GL164873  28.171  36.821   5.896
 5096POPC   GL264874  28.511  36.753   5.894
 5096POPC   C1A64875  28.268  36.732   6.362
 5096POPC   D2A64876  28.531  36.834   6.729
 5096POPC   C3A64877  28.587  36.560   7.075
 5096POPC   C4A64878  28.325  36.611   7.466
 5096POPC   C1B64879  28.689  36.989   6.239
 5096POPC   C2B64880  28.700  37.279   6.532
 5096POPC   C3B64881  28.575  37.334   6.927
 5096POPC   C4B64882  28.490  37.051   7.234
 5097POPC   NC364883  35.052  40.557   5.480
 5097POPC   PO464884  35.636  40.728   5.242
 5097POPC   GL164885  35.454  40.725   5.701
 5097POPC   GL264886  35.452  40.982   5.910
 5097POPC   C1A64887  35.247  40.601   6.136
 5097POPC   D2A64888  35.416  40.569   6.560
 5097POPC   C3A64889  35.218  40.643   6.962
 5097POPC   C4A64890  35.397  40.604   7.373
 5097POPC   C1B64891  35.710  40.980   6.299
 5097POPC   C2B64892  35.941  40.984   6.678
 5097POPC   C3B64893  35.705  40.809   6.997
 5097POPC   C4B64894  35.414  41.076   7.180
 5098POPC   NC364895  42.907  25.350   5.589
 5098POPC   PO464896  43.174  24.887   5.259
 5098POPC   GL164897  43.342  25.102   5.677
 5098POPC   GL264898  43.379  25.499   5.724
 5098POPC   C1A64899  43.244  25.137   6.139
 5098POPC   D2A64900  43.206  24.986   6.574
 5098POPC   C3A64901  42.994  25.184   6.917
 5098POPC   C4A64902  43.180  25.104   7.322
 5098POPC   C1B64903  43.359  25.634   6.187
 5098POPC   C2B64904  43.162  25.601   6.644
 5098POPC   C3B64905  43.295  25.562   7.101
 5098POPC   C4B64906  43.270  25.512   7.608
 5099POPC   NC364907  30.903  32.477   5.509
 5099POPC   PO464908  30.497  31.875   5.366
 5099POPC   GL164909  30.454  32.112   5.740
 5099POPC   GL264910  30.315  32.437   5.664
 5099POPC   C1A64911  30.642  32.011   6.135
 5099POPC   D2A64912  30.770  31.765   6.507
 5099POPC   C3A64913  30.935  32.045   6.822
 5099POPC   C4A64914  30.682  32.227   7.121
 5099POPC   C1B64915  30.321  32.503   6.094
 5099POPC   C2B64916  30.166  32.612   6.479
 5099POPC   C3B64917  30.385  32.568   6.860
 5099POPC   C4B64918  30.274  32.480   7.265
 5100POPC   NC364919  36.521   1.037   5.494
 5100POPC   PO464920  35.952   1.275   5.206
 5100POPC   GL164921  36.132   1.285   5.703
 5100POPC   GL264922  36.043   1.028   5.929
 5100POPC   C1A64923  36.477   1.206   6.114
 5100POPC   D2A64924  36.394   1.049   6.564
 5100POPC   C3A64925  36.344   0.854   6.990
 5100POPC   C4A64926  36.026   0.970   7.265
 5100POPC   C1B64927  36.047   1.446   6.184
 5100POPC   C2B64928  36.210   1.541   6.599
 5100POPC   C3B64929  36.271   1.359   7.022
 5100POPC   C4B64930  36.267   1.468   7.489
 5101POPC   NC364931  33.693   6.546   5.485
 5101POPC   PO464932  34.169   7.014   5.347
 5101POPC   GL164933  33.865   6.952   5.785
 5101POPC   GL264934  33.935   6.594   5.931
 5101POPC   C1A64935  33.694   6.855   6.277
 5101POPC   D2A64936  33.911   6.675   6.684
 5101POPC   C3A64937  33.665   6.626   7.106
 5101POPC   C4A64938  33.493   6.216   7.268
 5101POPC   C1B64939  33.653   6.322   6.210
 5101POPC   C2B64940  33.726   6.103   6.619
 5101POPC   C3B64941  33.958   6.249   6.979
 5101POPC   C4B64942  34.377   6.472   6.971
 5102POPC   NC364943  20.103  18.424   5.349
 5102POPC   PO464944  19.603  18.017   5.580
 5102POPC   GL164945  19.715  18.365   5.885
 5102POPC   GL264946  20.084  18.471   5.867
 5102POPC   C1A64947  19.519  18.350   6.301
 5102POPC   D2A64948  19.346  18.537   6.665
 5102POPC   C3A64949  19.562  18.428   7.013
 5102POPC   C4A64950  19.408  18.132   7.282
 5102POPC   C1B64951  20.033  18.246   6.274
 5102POPC   C2B64952  19.935  18.065   6.673
 5102POPC   C3B64953  19.879  18.033   7.108
 5102POPC   C4B64954  19.837  18.284   7.495
 5103POPC   NC364955  41.833  17.393   5.426
 5103POPC   PO464956  41.463  17.919   5.614
 5103POPC   GL164957  41.705  17.667   5.856
 5103POPC   GL264958  41.502  17.361   5.810
 5103POPC   C1A64959  41.711  17.557   6.283
 5103POPC   D2A64960  41.667  17.323   6.671
 5103POPC   C3A64961  41.463  17.519   7.030
 5103POPC   C4A64962  41.760  17.789   7.256
 5103POPC   C1B64963  41.211  17.333   6.149
 5103POPC   C2B64964  41.170  17.251   6.594
 5103POPC   C3B64965  41.050  17.191   7.010
 5103POPC   C4B64966  41.200  17.168   7.438
 5104POPC   NC364967  27.058  15.174   5.600
 5104POPC   PO464968  26.416  14.926   5.486
 5104POPC   GL164969  26.699  14.897   5.844
 5104POPC   GL264970  26.584  15.187   5.965
 5104POPC   C1A64971  26.814  14.917   6.330
 5104POPC   D2A64972  26.634  15.250   6.631
 5104POPC   C3A64973  26.708  15.277   7.099
 5104POPC   C4A64974  26.696  15.181   7.566
 5104POPC   C1B64975  26.959  15.394   6.203
 5104POPC   C2B64976  27.153  15.398   6.603
 5104POPC   C3B64977  27.086  15.601   6.994
 5104POPC   C4B64978  27.018  15.534   7.443
 5105POPC   NC364979  35.116  28.507   5.253
 5105POPC   PO464980  35.161  27.941   5.594
 5105POPC   GL164981  35.266  28.247   5.867
 5105POPC   GL264982  35.622  28.218   5.919
 5105POPC   C1A64983  35.204  28.252   6.304
 5105POPC   D2A64984  34.958  28.499   6.583
 5105POPC   C3A64985  35.245  28.652   6.881
 5105POPC   C4A64986  35.379  28.364   7.219
 5105POPC   C1B64987  35.655  27.956   6.288
 5105POPC   C2B64988  35.634  28.015   6.725
 5105POPC   C3B64989  35.801  28.077   7.139
 5105POPC   C4B64990  35.825  28.145   7.601
 5106POPC   NC364991  39.793  40.513   5.529
 5106POPC   PO464992  39.259  40.884   5.273
 5106POPC   GL164993  39.308  40.645   5.709
 5106POPC   GL264994  38.986  40.542   5.888
 5106POPC   C1A64995  39.331  40.741   6.188
 5106POPC   D2A64996  39.047  40.835   6.568
 5106POPC   C3A64997  39.145  40.643   6.975
 5106POPC   C4A64998  39.493  40.595   7.270
 5106POPC   C1B64999  38.993  40.359   6.322
 5106POPC   C2B65000  38.746  40.389   6.710
 5106POPC   C3B65001  38.738  40.362   7.164
 5106POPC   C4B65002  39.084  40.339   7.444
 5107POPC   NC365003  10.048   5.010   5.518
 5107POPC   PO465004  10.743   5.214   5.240
 5107POPC   GL165005  10.678   5.152   5.722
 5107POPC   GL265006  10.414   4.954   5.840
 5107POPC   C1A65007  10.599   5.222   6.228
 5107POPC   D2A65008  10.619   5.479   6.633
 5107POPC   C3A65009  10.550   5.219   7.002
 5107POPC   C4A65010  10.782   5.064   7.358
 5107POPC   C1B65011  10.330   4.759   6.236
 5107POPC   C2B65012  10.487   4.857   6.650
 5107POPC   C3B65013  10.519   4.699   7.097
 5107POPC   C4B65014  10.522   4.659   7.571
 5108POPC   NC365015  43.921  30.719   5.397
 5108POPC   PO465016  43.483  30.236   5.511
 5108POPC   GL165017  43.679  30.523   5.827
 5108POPC   GL265018  44.065  30.557   5.864
 5108POPC   C1A65019  43.776  30.720   6.243
 5108POPC   D2A65020  43.868  31.051   6.522
 5108POPC   C3A65021  43.752  30.920   6.943
 5108POPC   C4A65022  43.952  30.690   7.240
 5108POPC   C1B65023  44.118  30.298   6.249
 5108POPC   C2B65024  44.314  30.273   6.664
 5108POPC   C3B65025  44.430  30.490   7.107
 5108POPC   C4B65026  44.393  30.925   7.355
 5109POPC   NC365027  11.237  14.071   5.433
 5109POPC   PO465028  11.300  14.747   5.402
 5109POPC   GL165029  11.126  14.529   5.749
 5109POPC   GL265030  11.200  14.197   5.926
 5109POPC   C1A65031  11.012  14.582   6.181
 5109POPC   D2A65032  11.279  14.667   6.533
 5109POPC   C3A65033  11.101  14.680   6.939
 5109POPC   C4A65034  11.424  14.736   7.230
 5109POPC   C1B65035  11.185  14.156   6.398
 5109POPC   C2B65036  11.458  14.060   6.726
 5109POPC   C3B65037  11.333  14.234   7.089
 5109POPC   C4B65038  10.953  14.296   7.252
 5110POPC   NC365039  34.455  38.300   5.410
 5110POPC   PO465040  34.777  38.871   5.600
 5110POPC   GL165041  34.677  38.527   5.821
 5110POPC   GL265042  34.348  38.549   5.856
 5110POPC   C1A65043  34.656  38.550   6.257
 5110POPC   D2A65044  34.901  38.644   6.595
 5110POPC   C3A65045  34.661  38.489   6.935
 5110POPC   C4A65046  34.735  38.578   7.355
 5110POPC   C1B65047  34.190  38.300   6.156
 5110POPC   C2B65048  34.258  38.404   6.567
 5110POPC   C3B65049  34.136  38.371   6.954
 5110POPC   C4B65050  34.337  38.286   7.301
 5111POPC   NC365051  14.301  12.518   5.406
 5111POPC   PO465052  14.507  13.105   5.438
 5111POPC   GL165053  14.502  12.848   5.791
 5111POPC   GL265054  14.190  12.887   5.917
 5111POPC   C1A65055  14.560  12.722   6.239
 5111POPC   D2A65056  14.404  12.896   6.632
 5111POPC   C3A65057  14.581  12.724   7.021
 5111POPC   C4A65058  14.873  12.727   7.356
 5111POPC   C1B65059  14.034  12.699   6.263
 5111POPC   C2B65060  13.997  12.347   6.512
 5111POPC   C3B65061  14.107  12.549   6.874
 5111POPC   C4B65062  14.206  12.512   7.280
 5112POPC   NC365063  15.810  14.669   5.504
 5112POPC   PO465064  16.100  14.094   5.420
 5112POPC   GL165065  16.044  14.279   5.780
 5112POPC   GL265066  16.251  14.563   5.803
 5112POPC   C1A65067  16.073  14.157   6.199
 5112POPC   D2A65068  15.841  14.232   6.571
 5112POPC   C3A65069  16.125  14.342   6.886
 5112POPC   C4A65070  16.056  14.342   7.316
 5112POPC   C1B65071  15.953  14.643   6.165
 5112POPC   C2B65072  15.945  14.772   6.608
 5112POPC   C3B65073  15.904  14.749   7.076
 5112POPC   C4B65074  16.152  14.818   7.457
 5113POPC   NC365075   6.269  31.473   5.259
 5113POPC   PO465076   6.694  31.725   5.727
 5113POPC   GL165077   6.565  31.493   6.035
 5113POPC   GL265078   6.520  31.231   5.860
 5113POPC   C1A65079   6.543  31.505   6.455
 5113POPC   D2A65080   6.851  31.764   6.639
 5113POPC   C3A65081   6.741  31.690   7.021
 5113POPC   C4A65082   6.731  31.817   7.453
 5113POPC   C1B65083   6.702  31.048   6.241
 5113POPC   C2B65084   6.489  30.994   6.636
 5113POPC   C3B65085   6.611  31.008   7.058
 5113POPC   C4B65086   6.552  31.352   7.336
 5114POPC   NC365087   2.118   9.318   5.351
 5114POPC   PO465088   1.528   9.052   5.370
 5114POPC   GL165089   1.623   8.736   5.705
 5114POPC   GL265090   1.972   8.849   5.742
 5114POPC   C1A65091   1.756   8.688   6.173
 5114POPC   D2A65092   1.772   8.962   6.562
 5114POPC   C3A65093   1.836   8.782   6.979
 5114POPC   C4A65094   1.816   9.081   7.374
 5114POPC   C1B65095   2.139   9.031   6.138
 5114POPC   C2B65096   2.308   9.170   6.542
 5114POPC   C3B65097   2.146   9.197   6.940
 5114POPC   C4B65098   2.350   9.198   7.317
 5115POPC   NC365099  10.786  27.751   5.672
 5115POPC   PO465100  10.161  27.587   5.465
 5115POPC   GL165101  10.335  27.581   5.876
 5115POPC   GL265102  10.389  27.915   6.036
 5115POPC   C1A65103  10.412  27.450   6.307
 5115POPC   D2A65104  10.458  27.752   6.653
 5115POPC   C3A65105  10.471  27.583   7.083
 5115POPC   C4A65106  10.684  27.254   7.387
 5115POPC   C1B65107  10.751  28.110   6.255
 5115POPC   C2B65108  10.821  28.234   6.663
 5115POPC   C3B65109  10.540  28.135   6.989
 5115POPC   C4B65110  10.696  27.969   7.322
 5116POPC   NC365111  33.673  37.214   5.493
 5116POPC   PO465112  34.157  36.724   5.525
 5116POPC   GL165113  33.930  36.851   5.874
 5116POPC   GL265114  33.683  36.593   5.894
 5116POPC   C1A65115  33.696  36.969   6.244
 5116POPC   D2A65116  33.621  37.091   6.654
 5116POPC   C3A65117  33.978  37.023   6.878
 5116POPC   C4A65118  33.918  37.114   7.286
 5116POPC   C1B65119  33.547  36.380   6.270
 5116POPC   C2B65120  33.691  36.581   6.667
 5116POPC   C3B65121  33.583  36.785   7.073
 5116POPC   C4B65122  33.583  36.820   7.547
 5117POPC   NC365123   6.615  16.382   5.048
 5117POPC   PO465124   6.562  16.871   5.511
 5117POPC   GL165125   6.447  16.605   5.902
 5117POPC   GL265126   6.746  16.581   6.063
 5117POPC   C1A65127   6.265  16.615   6.267
 5117POPC   D2A65128   6.523  16.835   6.558
 5117POPC   C3A65129   6.520  16.645   6.932
 5117POPC   C4A65130   6.402  16.768   7.322
 5117POPC   C1B65131   7.025  16.732   6.348
 5117POPC   C2B65132   7.017  16.766   6.775
 5117POPC   C3B65133   6.900  16.847   7.199
 5117POPC   C4B65134   6.820  16.519   7.482
 5118POPC   NC365135  34.376  16.377   5.322
 5118POPC   PO465136  34.836  16.797   5.436
 5118POPC   GL165137  34.492  16.668   5.741
 5118POPC   GL265138  34.427  17.008   5.844
 5118POPC   C1A65139  34.373  16.652   6.194
 5118POPC   D2A65140  34.777  16.642   6.434
 5118POPC   C3A65141  34.747  16.573   6.854
 5118POPC   C4A65142  34.814  16.678   7.236
 5118POPC   C1B65143  34.581  17.135   6.262
 5118POPC   C2B65144  34.669  17.062   6.706
 5118POPC   C3B65145  34.871  17.155   7.086
 5118POPC   C4B65146  34.464  17.061   7.265
 5119POPC   NC365147  44.374   3.877   5.422
 5119POPC   PO465148  44.433   3.231   5.426
 5119POPC   GL165149  44.695   3.371   5.752
 5119POPC   GL265150  44.565   3.675   5.863
 5119POPC   C1A65151  44.776   3.327   6.184
 5119POPC   D2A65152  44.604   3.429   6.554
 5119POPC   C3A65153  44.836   3.287   6.855
 5119POPC   C4A65154  44.953   3.430   7.234
 5119POPC   C1B65155  44.304   3.743   6.235
 5119POPC   C2B65156  44.144   3.623   6.629
 5119POPC   C3B65157  44.212   3.758   7.022
 5119POPC   C4B65158  44.449   3.444   7.185
 5120POPC   NC365159  10.539  17.720   5.477
 5120POPC   PO465160  10.141  17.160   5.564
 5120POPC   GL165161  10.309  17.481   5.893
 5120POPC   GL265162  10.241  17.859   5.855
 5120POPC   C1A65163  10.500  17.585   6.290
 5120POPC   D2A65164  10.696  17.476   6.693
 5120POPC   C3A65165  10.520  17.549   7.094
 5120POPC   C4A65166  10.676  17.503   7.524
 5120POPC   C1B65167  10.060  17.842   6.232
 5120POPC   C2B65168  10.177  17.792   6.656
 5120POPC   C3B65169  10.129  17.903   7.077
 5120POPC   C4B65170  10.290  17.812   7.479
 5121POPC   NC365171  37.910   4.745   5.538
 5121POPC   PO465172  37.601   5.439   5.513
 5121POPC   GL165173  37.744   5.142   5.829
 5121POPC   GL265174  37.997   5.211   5.975
 5121POPC   C1A65175  37.565   4.956   6.202
 5121POPC   D2A65176  37.339   4.905   6.608
 5121POPC   C3A65177  37.395   5.292   6.877
 5121POPC   C4A65178  37.489   5.278   7.313
 5121POPC   C1B65179  38.066   4.813   6.203
 5121POPC   C2B65180  37.867   4.754   6.588
 5121POPC   C3B65181  37.748   4.929   6.978
 5121POPC   C4B65182  37.936   4.987   7.376
 5122POPC   NC365183   8.498  16.367   5.459
 5122POPC   PO465184   8.985  15.978   5.189
 5122POPC   GL165185   9.075  15.957   5.680
 5122POPC   GL265186   9.312  16.170   5.819
 5122POPC   C1A65187   8.837  16.185   6.074
 5122POPC   D2A65188   8.857  16.196   6.541
 5122POPC   C3A65189   8.962  15.852   6.856
 5122POPC   C4A65190   8.850  15.808   7.315
 5122POPC   C1B65191   9.264  15.997   6.247
 5122POPC   C2B65192   9.384  16.151   6.643
 5122POPC   C3B65193   9.432  15.998   7.048
 5122POPC   C4B65194   9.332  15.986   7.467
 5123POPC   NC365195  37.403  23.840   5.456
 5123POPC   PO465196  37.987  23.475   5.381
 5123POPC   GL165197  37.945  23.559   5.818
 5123POPC   GL265198  37.857  23.906   5.772
 5123POPC   C1A65199  37.687  23.429   6.201
 5123POPC   D2A65200  37.439  23.322   6.599
 5123POPC   C3A65201  37.723  23.337   6.958
 5123POPC   C4A65202  37.640  23.448   7.395
 5123POPC   C1B65203  37.896  23.929   6.211
 5123POPC   C2B65204  37.667  23.790   6.590
 5123POPC   C3B65205  37.459  23.781   6.988
 5123POPC   C4B65206  37.555  23.943   7.399
 5124POPC   NC365207  38.534  29.608   5.219
 5124POPC   PO465208  38.202  29.005   5.312
 5124POPC   GL165209  38.447  29.141   5.669
 5124POPC   GL265210  38.363  29.482   5.719
 5124POPC   C1A65211  38.370  29.157   6.133
 5124POPC   D2A65212  38.378  29.007   6.564
 5124POPC   C3A65213  38.289  29.057   7.000
 5124POPC   C4A65214  38.672  28.959   7.235
 5124POPC   C1B65215  38.347  29.668   6.127
 5124POPC   C2B65216  38.568  29.493   6.472
 5124POPC   C3B65217  38.626  29.450   6.899
 5124POPC   C4B65218  38.500  29.414   7.314
 5125POPC   NC365219  17.330   0.910   5.621
 5125POPC   PO465220  17.991   1.060   5.556
 5125POPC   GL165221  17.747   1.076   5.907
 5125POPC   GL265222  17.633   1.425   5.875
 5125POPC   C1A65223  17.642   1.182   6.335
 5125POPC   D2A65224  17.625   1.405   6.731
 5125POPC   C3A65225  17.691   1.231   7.114
 5125POPC   C4A65226  17.382   1.088   7.429
 5125POPC   C1B65227  17.407   1.638   6.227
 5125POPC   C2B65228  17.200   1.686   6.607
 5125POPC   C3B65229  17.368   1.787   6.999
 5125POPC   C4B65230  17.485   1.596   7.370
 5126POPC   NC365231  39.779  10.613   5.347
 5126POPC   PO465232  39.094  10.411   5.386
 5126POPC   GL165233  39.266  10.371   5.790
 5126POPC   GL265234  39.614  10.328   5.863
 5126POPC   C1A65235  39.224  10.541   6.202
 5126POPC   D2A65236  39.199  10.882   6.493
 5126POPC   C3A65237  39.052  10.627   6.836
 5126POPC   C4A65238  38.858  10.621   7.235
 5126POPC   C1B65239  39.721  10.471   6.298
 5126POPC   C2B65240  39.590  10.647   6.730
 5126POPC   C3B65241  39.595  10.447   7.171
 5126POPC   C4B65242  39.570  10.351   7.647
 5127POPC   NC365243  36.272  33.494   5.475
 5127POPC   PO465244  36.494  34.169   5.563
 5127POPC   GL165245  36.217  34.050   5.875
 5127POPC   GL265246  36.117  33.726   5.891
 5127POPC   C1A65247  36.392  33.899   6.284
 5127POPC   D2A65248  36.638  33.956   6.640
 5127POPC   C3A65249  36.362  33.945   6.964
 5127POPC   C4A65250  36.310  33.904   7.378
 5127POPC   C1B65251  35.894  33.979   6.259
 5127POPC   C2B65252  35.970  33.855   6.653
 5127POPC   C3B65253  35.917  33.580   6.975
 5127POPC   C4B65254  35.793  33.786   7.298
 5128POPC   NC365255  35.950  39.320   5.339
 5128POPC   PO465256  36.080  38.752   5.669
 5128POPC   GL165257  35.939  39.133   5.836
 5128POPC   GL265258  36.158  39.425   5.818
 5128POPC   C1A65259  35.975  39.237   6.252
 5128POPC   D2A65260  36.148  39.111   6.619
 5128POPC   C3A65261  35.937  39.197   6.991
 5128POPC   C4A65262  36.170  39.027   7.330
 5128POPC   C1B65263  36.357  39.574   6.207
 5128POPC   C2B65264  36.234  39.612   6.641
 5128POPC   C3B65265  36.315  39.525   7.068
 5128POPC   C4B65266  36.365  39.453   7.513
 5129POPC   NC365267  16.083  30.059   5.091
 5129POPC   PO465268  15.607  29.758   5.471
 5129POPC   GL165269  15.870  29.840   5.773
 5129POPC   GL265270  15.996  30.111   5.612
 5129POPC   C1A65271  15.823  29.770   6.222
 5129POPC   D2A65272  15.725  29.775   6.674
 5129POPC   C3A65273  16.022  29.960   6.985
 5129POPC   C4A65274  15.920  29.943   7.424
 5129POPC   C1B65275  16.043  30.220   6.072
 5129POPC   C2B65276  15.868  30.263   6.493
 5129POPC   C3B65277  16.055  30.457   6.839
 5129POPC   C4B65278  16.043  30.418   7.252
 5130POPC   NC365279  44.269  10.260   5.416
 5130POPC   PO465280  43.664  10.538   5.566
 5130POPC   GL165281  43.903  10.245   5.774
 5130POPC   GL265282  44.131  10.511   5.856
 5130POPC   C1A65283  43.908  10.199   6.195
 5130POPC   D2A65284  44.001  10.510   6.497
 5130POPC   C3A65285  43.882  10.359   6.896
 5130POPC   C4A65286  43.867  10.532   7.303
 5130POPC   C1B65287  44.348  10.754   6.168
 5130POPC   C2B65288  44.399  10.843   6.603
 5130POPC   C3B65289  44.230  10.739   7.000
 5130POPC   C4B65290  44.350  10.678   7.444
 5131POPC   NC365291   9.961  41.151   5.366
 5131POPC   PO465292  10.149  40.550   5.244
 5131POPC   GL165293   9.910  40.676   5.683
 5131POPC   GL265294   9.586  40.870   5.718
 5131POPC   C1A65295  10.002  40.690   6.162
 5131POPC   D2A65296   9.807  40.643   6.579
 5131POPC   C3A65297   9.992  40.813   6.993
 5131POPC   C4A65298  10.025  40.811   7.460
 5131POPC   C1B65299   9.475  40.642   6.124
 5131POPC   C2B65300   9.297  40.790   6.528
 5131POPC   C3B65301   9.431  40.825   6.952
 5131POPC   C4B65302   9.502  40.843   7.375
 5132POPC   NC365303   2.248  43.821   5.547
 5132POPC   PO465304   1.802  44.340   5.558
 5132POPC   GL165305   1.971  44.077   5.875
 5132POPC   GL265306   1.763  43.770   5.856
 5132POPC   C1A65307   2.344  43.996   6.186
 5132POPC   D2A65308   2.428  43.702   6.566
 5132POPC   C3A65309   2.324  43.792   7.008
 5132POPC   C4A65310   2.107  44.120   7.235
 5132POPC   C1B65311   1.911  43.761   6.260
 5132POPC   C2B65312   1.924  43.616   6.617
 5132POPC   C3B65313   1.828  43.686   7.002
 5132POPC   C4B65314   1.774  43.673   7.385
 5133POPC   NC365315   2.585  30.075   5.324
 5133POPC   PO465316   3.209  29.842   5.418
 5133POPC   GL165317   2.845  29.829   5.743
 5133POPC   GL265318   2.507  30.008   5.802
 5133POPC   C1A65319   2.696  29.739   6.162
 5133POPC   D2A65320   2.899  29.767   6.535
 5133POPC   C3A65321   2.632  29.837   6.884
 5133POPC   C4A65322   2.736  29.734   7.290
 5133POPC   C1B65323   2.310  30.112   6.159
 5133POPC   C2B65324   2.303  30.113   6.594
 5133POPC   C3B65325   2.385  30.288   6.996
 5133POPC   C4B65326   2.650  30.225   7.378
 5134POPC   NC365327  10.231  37.887   5.432
 5134POPC   PO465328   9.466  37.708   5.419
 5134POPC   GL165329   9.583  37.659   5.802
 5134POPC   GL265330   9.906  37.824   5.828
 5134POPC   C1A65331   9.462  37.654   6.218
 5134POPC   D2A65332   9.652  37.494   6.592
 5134POPC   C3A65333   9.550  37.701   6.970
 5134POPC   C4A65334   9.675  37.646   7.378
 5134POPC   C1B65335  10.002  37.738   6.270
 5134POPC   C2B65336   9.923  37.935   6.672
 5134POPC   C3B65337  10.031  37.959   7.101
 5134POPC   C4B65338   9.825  38.149   7.426
 5135POPC   NC365339  30.473  30.240   5.678
 5135POPC   PO465340  30.798  29.995   5.181
 5135POPC   GL165341  30.726  29.788   5.714
 5135POPC   GL265342  30.461  29.700   5.881
 5135POPC   C1A65343  30.854  29.598   6.176
 5135POPC   D2A65344  30.735  29.723   6.627
 5135POPC   C3A65345  30.675  29.526   7.023
 5135POPC   C4A65346  30.805  29.689   7.438
 5135POPC   C1B65347  30.569  30.009   6.240
 5135POPC   C2B65348  30.686  30.231   6.608
 5135POPC   C3B65349  30.607  30.087   7.019
 5135POPC   C4B65350  30.350  29.822   7.285
 5136POPC   NC365351  29.222  14.101   5.523
 5136POPC   PO465352  28.996  14.805   5.484
 5136POPC   GL165353  28.989  14.572   5.833
 5136POPC   GL265354  29.311  14.517   5.812
 5136POPC   C1A65355  29.056  14.265   6.184
 5136POPC   D2A65356  29.303  14.270   6.570
 5136POPC   C3A65357  29.049  14.260   6.938
 5136POPC   C4A65358  29.040  14.120   7.373
 5136POPC   C1B65359  29.398  14.672   6.221
 5136POPC   C2B65360  29.673  14.658   6.573
 5136POPC   C3B65361  29.404  14.651   6.904
 5136POPC   C4B65362  29.215  14.616   7.267
 5137POPC   NC365363  44.152  18.100   5.461
 5137POPC   PO465364  44.794  18.200   5.483
 5137POPC   GL165365  44.698  18.227   5.880
 5137POPC   GL265366  44.467  17.947   5.839
 5137POPC   C1A65367  44.823  18.315   6.315
 5137POPC   D2A65368  44.724  18.527   6.698
 5137POPC   C3A65369  44.730  18.319   7.085
 5137POPC   C4A65370  44.937  17.971   7.148
 5137POPC   C1B65371  44.519  17.923   6.263
 5137POPC   C2B65372  44.607  17.995   6.681
 5137POPC   C3B65373  44.447  17.832   7.053
 5137POPC   C4B65374  44.196  17.975   7.388
 5138POPC   NC365375  10.179  30.102   5.587
 5138POPC   PO465376  10.800  29.922   5.406
 5138POPC   GL165377  10.756  29.711   5.809
 5138POPC   GL265378  10.418  29.748   5.851
 5138POPC   C1A65379  10.781  29.771   6.254
 5138POPC   D2A65380  10.651  30.104   6.565
 5138POPC   C3A65381  10.702  29.905   6.930
 5138POPC   C4A65382  10.620  29.982   7.311
 5138POPC   C1B65383  10.286  29.885   6.245
 5138POPC   C2B65384  10.380  29.666   6.624
 5138POPC   C3B65385  10.287  29.620   7.074
 5138POPC   C4B65386  10.337  29.612   7.527
 5139POPC   NC365387  26.238  27.559   5.439
 5139POPC   PO465388  25.552  27.318   5.502
 5139POPC   GL165389  25.847  27.399   5.858
 5139POPC   GL265390  25.989  27.679   5.854
 5139POPC   C1A65391  26.088  27.448   6.287
 5139POPC   D2A65392  26.009  27.770   6.599
 5139POPC   C3A65393  25.924  27.659   7.034
 5139POPC   C4A65394  26.094  27.305   7.226
 5139POPC   C1B65395  26.375  27.826   6.080
 5139POPC   C2B65396  26.546  27.835   6.506
 5139POPC   C3B65397  26.428  27.590   6.878
 5139POPC   C4B65398  26.365  27.801   7.275
 5140POPC   NC365399   3.075  33.666   5.513
 5140POPC   PO465400   3.753  33.853   5.380
 5140POPC   GL165401   3.522  33.988   5.741
 5140POPC   GL265402   3.489  33.693   5.926
 5140POPC   C1A65403   3.425  34.183   6.135
 5140POPC   D2A65404   3.446  33.932   6.497
 5140POPC   C3A65405   3.577  34.039   6.882
 5140POPC   C4A65406   3.528  34.018   7.309
 5140POPC   C1B65407   3.192  33.552   6.253
 5140POPC   C2B65408   3.153  33.577   6.712
 5140POPC   C3B65409   3.427  33.574   7.114
 5140POPC   C4B65410   3.425  33.659   7.630
 5141POPC   NC365411  30.836  31.506   5.351
 5141POPC   PO465412  30.460  30.983   5.356
 5141POPC   GL165413  30.638  31.217   5.754
 5141POPC   GL265414  30.533  31.580   5.797
 5141POPC   C1A65415  30.839  31.365   6.180
 5141POPC   D2A65416  30.636  31.252   6.603
 5141POPC   C3A65417  30.835  31.292   7.021
 5141POPC   C4A65418  31.082  31.657   7.123
 5141POPC   C1B65419  30.370  31.554   6.222
 5141POPC   C2B65420  30.275  31.628   6.651
 5141POPC   C3B65421  30.556  31.729   6.987
 5141POPC   C4B65422  30.391  31.843   7.383
 5142POPC   NC365423  26.446  38.092   5.386
 5142POPC   PO465424  26.846  38.660   5.463
 5142POPC   GL165425  26.633  38.639   5.851
 5142POPC   GL265426  26.783  38.298   5.822
 5142POPC   C1A65427  26.641  38.723   6.316
 5142POPC   D2A65428  27.002  38.601   6.613
 5142POPC   C3A65429  26.920  38.385   6.982
 5142POPC   C4A65430  27.064  38.421   7.383
 5142POPC   C1B65431  26.930  38.265   6.222
 5142POPC   C2B65432  27.005  37.979   6.540
 5142POPC   C3B65433  27.108  37.891   6.950
 5142POPC   C4B65434  26.847  37.968   7.286
 5143POPC   NC365435  37.896  38.627   5.547
 5143POPC   PO465436  38.571  38.699   5.410
 5143POPC   GL165437  38.496  38.550   5.836
 5143POPC   GL265438  38.257  38.782   5.944
 5143POPC   C1A65439  38.621  38.389   6.253
 5143POPC   D2A65440  38.768  38.495   6.641
 5143POPC   C3A65441  38.748  38.241   7.007
 5143POPC   C4A65442  38.645  38.387   7.409
 5143POPC   C1B65443  38.106  38.473   6.251
 5143POPC   C2B65444  38.269  38.390   6.655
 5143POPC   C3B65445  38.414  38.617   7.017
 5143POPC   C4B65446  38.178  38.591   7.398
 5144POPC   NC365447   8.445  32.371   5.453
 5144POPC   PO465448   8.976  31.895   5.333
 5144POPC   GL165449   8.829  32.079   5.734
 5144POPC   GL265450   8.787  32.456   5.827
 5144POPC   C1A65451   8.813  32.128   6.208
 5144POPC   D2A65452   9.066  31.983   6.560
 5144POPC   C3A65453   9.079  32.117   6.995
 5144POPC   C4A65454   9.349  32.113   7.393
 5144POPC   C1B65455   8.660  32.646   6.236
 5144POPC   C2B65456   8.843  32.631   6.664
 5144POPC   C3B65457   8.906  32.566   7.112
 5144POPC   C4B65458   8.662  32.637   7.499
 5145POPC   NC365459   3.039  36.467   5.753
 5145POPC   PO465460   2.557  36.142   5.334
 5145POPC   GL165461   2.645  36.078   5.772
 5145POPC   GL265462   2.533  36.394   5.839
 5145POPC   C1A65463   2.830  35.932   6.177
 5145POPC   D2A65464   3.080  35.792   6.558
 5145POPC   C3A65465   2.923  35.934   6.961
 5145POPC   C4A65466   3.097  36.214   7.252
 5145POPC   C1B65467   2.630  36.449   6.264
 5145POPC   C2B65468   2.893  36.293   6.560
 5145POPC   C3B65469   2.786  36.441   6.922
 5145POPC   C4B65470   2.581  36.264   7.254
 5146POPC   NC365471  24.639  26.652   5.496
 5146POPC   PO465472  24.122  27.050   5.445
 5146POPC   GL165473  24.342  26.883   5.818
 5146POPC   GL265474  24.189  26.571   5.810
 5146POPC   C1A65475  24.562  26.912   6.239
 5146POPC   D2A65476  24.618  27.141   6.657
 5146POPC   C3A65477  24.464  26.867   6.986
 5146POPC   C4A65478  24.669  26.657   7.263
 5146POPC   C1B65479  24.176  26.455   6.234
 5146POPC   C2B65480  24.290  26.511   6.661
 5146POPC   C3B65481  24.276  26.377   7.094
 5146POPC   C4B65482  24.218  26.466   7.557
 5147POPC   NC365483  10.993  34.541   5.595
 5147POPC   PO465484  11.602  34.538   5.700
 5147POPC   GL165485  11.280  34.690   6.000
 5147POPC   GL265486  10.908  34.690   6.060
 5147POPC   C1A65487  11.231  34.811   6.454
 5147POPC   D2A65488  11.527  34.743   6.808
 5147POPC   C3A65489  11.457  34.375   7.113
 5147POPC   C4A65490  11.379  33.898   7.120
 5147POPC   C1B65491  11.088  34.301   6.267
 5147POPC   C2B65492  11.223  34.318   6.659
 5147POPC   C3B65493  10.983  34.605   6.918
 5147POPC   C4B65494  10.924  34.543   7.358
 5148POPC   NC365495  34.630  21.793   5.433
 5148POPC   PO465496  34.421  21.171   5.519
 5148POPC   GL165497  34.639  21.429   5.814
 5148POPC   GL265498  34.418  21.726   5.876
 5148POPC   C1A65499  34.803  21.601   6.205
 5148POPC   D2A65500  34.973  21.624   6.624
 5148POPC   C3A65501  34.697  21.470   6.961
 5148POPC   C4A65502  34.783  21.300   7.344
 5148POPC   C1B65503  34.209  21.672   6.238
 5148POPC   C2B65504  34.293  21.529   6.620
 5148POPC   C3B65505  34.270  21.742   6.989
 5148POPC   C4B65506  34.391  21.613   7.424
 5149POPC   NC365507  23.111  13.769   5.464
 5149POPC   PO465508  22.576  13.286   5.520
 5149POPC   GL165509  22.609  13.659   5.856
 5149POPC   GL265510  22.961  13.777   5.966
 5149POPC   C1A65511  22.561  13.736   6.338
 5149POPC   D2A65512  22.789  13.702   6.749
 5149POPC   C3A65513  22.679  13.772   7.204
 5149POPC   C4A65514  22.689  13.508   7.556
 5149POPC   C1B65515  23.165  13.615   6.368
 5149POPC   C2B65516  23.295  13.565   6.802
 5149POPC   C3B65517  23.098  13.505   7.182
 5149POPC   C4B65518  23.122  13.800   7.563
 5150POPC   NC365519   7.366   2.140   5.303
 5150POPC   PO465520   7.287   1.422   5.251
 5150POPC   GL165521   7.310   1.643   5.717
 5150POPC   GL265522   7.296   2.007   5.785
 5150POPC   C1A65523   7.530   1.763   6.155
 5150POPC   D2A65524   7.731   1.996   6.516
 5150POPC   C3A65525   7.683   1.800   6.941
 5150POPC   C4A65526   7.607   1.953   7.355
 5150POPC   C1B65527   7.416   2.275   6.133
 5150POPC   C2B65528   7.377   2.371   6.563
 5150POPC   C3B65529   7.464   2.295   6.991
 5150POPC   C4B65530   7.222   2.260   7.393
 5151POPC   NC365531  16.089   7.905   5.255
 5151POPC   PO465532  15.869   8.452   5.602
 5151POPC   GL165533  16.133   8.153   5.774
 5151POPC   GL265534  15.933   7.897   5.737
 5151POPC   C1A65535  16.269   8.120   6.201
 5151POPC   D2A65536  16.427   8.079   6.605
 5151POPC   C3A65537  16.211   8.370   6.877
 5151POPC   C4A65538  16.142   8.179   7.274
 5151POPC   C1B65539  15.777   8.068   6.156
 5151POPC   C2B65540  15.774   8.274   6.547
 5151POPC   C3B65541  15.776   8.076   6.932
 5151POPC   C4B65542  15.658   8.011   7.360
 5152POPC   NC365543  10.226   1.973   5.176
 5152POPC   PO465544  10.893   1.968   5.411
 5152POPC   GL165545  10.671   2.000   5.816
 5152POPC   GL265546  10.543   2.336   5.948
 5152POPC   C1A65547  10.748   1.904   6.253
 5152POPC   D2A65548  10.560   1.692   6.607
 5152POPC   C3A65549  10.724   1.857   6.993
 5152POPC   C4A65550  10.622   1.769   7.401
 5152POPC   C1B65551  10.306   2.169   6.274
 5152POPC   C2B65552  10.374   2.175   6.720
 5152POPC   C3B65553  10.247   2.071   7.124
 5152POPC   C4B65554  10.297   2.176   7.565
 5153POPC   NC365555  34.441  25.484   5.361
 5153POPC   PO465556  34.321  24.951   5.675
 5153POPC   GL165557  34.548  25.258   5.937
 5153POPC   GL265558  34.739  25.589   5.859
 5153POPC   C1A65559  34.479  25.143   6.375
 5153POPC   D2A65560  34.213  24.883   6.656
 5153POPC   C3A65561  34.336  24.980   7.065
 5153POPC   C4A65562  34.469  25.086   7.477
 5153POPC   C1B65563  34.906  25.629   6.318
 5153POPC   C2B65564  34.571  25.558   6.660
 5153POPC   C3B65565  34.645  25.404   7.058
 5153POPC   C4B65566  34.921  25.727   7.178
 5154POPC   NC365567  31.766   3.281   5.628
 5154POPC   PO465568  32.234   3.620   5.318
 5154POPC   GL165569  32.308   3.525   5.761
 5154POPC   GL265570  32.401   3.192   5.974
 5154POPC   C1A65571  32.198   3.614   6.181
 5154POPC   D2A65572  32.304   3.521   6.573
 5154POPC   C3A65573  31.999   3.678   6.867
 5154POPC   C4A65574  32.152   3.780   7.262
 5154POPC   C1B65575  32.015   3.147   6.281
 5154POPC   C2B65576  31.957   3.165   6.752
 5154POPC   C3B65577  32.304   3.308   7.048
 5154POPC   C4B65578  32.479   3.431   7.441
 5155POPC   NC365579  11.269   5.733   5.515
 5155POPC   PO465580  11.280   6.428   5.540
 5155POPC   GL165581  11.060   6.120   5.864
 5155POPC   GL265582  10.940   5.740   5.905
 5155POPC   C1A65583  11.159   6.103   6.324
 5155POPC   D2A65584  11.537   5.992   6.600
 5155POPC   C3A65585  11.449   6.190   6.996
 5155POPC   C4A65586  11.026   6.098   7.129
 5155POPC   C1B65587  11.211   5.607   6.260
 5155POPC   C2B65588  11.112   5.702   6.699
 5155POPC   C3B65589  11.355   5.693   7.068
 5155POPC   C4B65590  11.639   5.675   7.429
 5156POPC   NC365591  12.066  43.289   5.411
 5156POPC   PO465592  11.696  42.800   5.184
 5156POPC   GL165593  11.856  42.876   5.670
 5156POPC   GL265594  11.621  42.847   5.931
 5156POPC   C1A65595  12.139  43.022   6.080
 5156POPC   D2A65596  12.152  43.249   6.508
 5156POPC   C3A65597  12.210  43.061   6.939
 5156POPC   C4A65598  12.347  43.202   7.337
 5156POPC   C1B65599  11.721  42.945   6.357
 5156POPC   C2B65600  11.760  42.775   6.723
 5156POPC   C3B65601  11.766  42.809   7.120
 5156POPC   C4B65602  12.035  42.778   7.446
 5157POPC   NC365603  39.103  31.792   5.382
 5157POPC   PO465604  39.420  31.207   5.398
 5157POPC   GL165605  39.222  31.204   5.804
 5157POPC   GL265606  39.059  31.519   5.823
 5157POPC   C1A65607  39.202  31.140   6.248
 5157POPC   D2A65608  39.220  31.365   6.633
 5157POPC   C3A65609  39.242  31.223   7.036
 5157POPC   C4A65610  39.331  31.421   7.461
 5157POPC   C1B65611  39.082  31.708   6.232
 5157POPC   C2B65612  39.052  31.837   6.658
 5157POPC   C3B65613  39.215  31.739   7.057
 5157POPC   C4B65614  39.565  31.872   7.345
 5158POPC   NC365615  35.034   3.777   5.397
 5158POPC   PO465616  35.664   3.605   5.435
 5158POPC   GL165617  35.397   3.720   5.849
 5158POPC   GL265618  35.006   3.785   5.900
 5158POPC   C1A65619  35.282   3.569   6.291
 5158POPC   D2A65620  35.093   3.258   6.567
 5158POPC   C3A65621  35.278   3.278   6.958
 5158POPC   C4A65622  35.232   3.599   7.252
 5158POPC   C1B65623  35.019   4.004   6.283
 5158POPC   C2B65624  35.113   3.860   6.722
 5158POPC   C3B65625  34.843   3.925   7.088
 5158POPC   C4B65626  34.882   3.920   7.553
 5159POPC   NC365627   6.450  36.515   5.618
 5159POPC   PO465628   6.638  35.994   5.337
 5159POPC   GL165629   6.422  36.027   5.736
 5159POPC   GL265630   6.749  36.161   5.852
 5159POPC   C1A65631   6.328  36.187   6.184
 5159POPC   D2A65632   6.414  35.962   6.586
 5159POPC   C3A65633   6.325  35.909   7.046
 5159POPC   C4A65634   6.354  36.080   7.493
 5159POPC   C1B65635   6.836  36.166   6.271
 5159POPC   C2B65636   6.620  36.477   6.523
 5159POPC   C3B65637   6.466  36.377   6.899
 5159POPC   C4B65638   6.758  36.258   7.230
 5160POPC   NC365639  35.014   4.581   5.390
 5160POPC   PO465640  35.745   4.601   5.449
 5160POPC   GL165641  35.580   4.385   5.844
 5160POPC   GL265642  35.256   4.230   5.809
 5160POPC   C1A65643  35.433   4.301   6.288
 5160POPC   D2A65644  35.642   4.224   6.689
 5160POPC   C3A65645  35.532   4.425   7.063
 5160POPC   C4A65646  35.275   4.112   7.272
 5160POPC   C1B65647  35.011   4.539   6.049
 5160POPC   C2B65648  34.999   4.630   6.465
 5160POPC   C3B65649  35.082   4.372   6.817
 5160POPC   C4B65650  35.028   4.547   7.223
 5161POPC   NC365651  20.424  32.979   5.242
 5161POPC   PO465652  19.780  33.166   5.283
 5161POPC   GL165653  19.825  33.136   5.729
 5161POPC   GL265654  19.833  32.803   5.881
 5161POPC   C1A65655  19.998  33.203   6.161
 5161POPC   D2A65656  19.847  33.027   6.540
 5161POPC   C3A65657  20.024  33.151   6.927
 5161POPC   C4A65658  19.832  33.212   7.304
 5161POPC   C1B65659  19.935  32.558   6.249
 5161POPC   C2B65660  19.751  32.477   6.612
 5161POPC   C3B65661  19.767  32.720   6.955
 5161POPC   C4B65662  20.058  32.755   7.272
 5162POPC   NC365663  12.031  26.412   5.546
 5162POPC   PO465664  12.039  27.099   5.590
 5162POPC   GL165665  12.021  26.958   5.973
 5162POPC   GL265666  11.922  26.612   5.995
 5162POPC   C1A65667  12.310  26.995   6.283
 5162POPC   D2A65668  12.350  26.874   6.700
 5162POPC   C3A65669  11.949  26.888   6.892
 5162POPC   C4A65670  11.853  27.169   7.200
 5162POPC   C1B65671  11.941  26.661   6.422
 5162POPC   C2B65672  12.099  26.417   6.749
 5162POPC   C3B65673  12.278  26.527   7.109
 5162POPC   C4B65674  11.954  26.692   7.366
 5163POPC   NC365675  41.028  39.687   5.270
 5163POPC   PO465676  40.529  40.016   5.460
 5163POPC   GL165677  40.729  39.768   5.796
 5163POPC   GL265678  41.103  39.652   5.763
 5163POPC   C1A65679  40.639  39.894   6.239
 5163POPC   D2A65680  40.597  40.251   6.546
 5163POPC   C3A65681  40.535  40.083   6.971
 5163POPC   C4A65682  40.404  40.025   7.403
 5163POPC   C1B65683  41.142  39.930   6.136
 5163POPC   C2B65684  41.119  40.137   6.561
 5163POPC   C3B65685  41.033  39.962   6.956
 5163POPC   C4B65686  40.949  40.074   7.365
 5164POPC   NC365687  16.447  26.857   5.516
 5164POPC   PO465688  17.126  26.927   5.411
 5164POPC   GL165689  16.859  26.857   5.830
 5164POPC   GL265690  16.562  26.613   5.943
 5164POPC   C1A65691  16.816  26.851   6.314
 5164POPC   D2A65692  16.730  26.547   6.657
 5164POPC   C3A65693  16.978  26.606   7.009
 5164POPC   C4A65694  16.945  27.029   7.124
 5164POPC   C1B65695  16.314  26.878   6.258
 5164POPC   C2B65696  16.186  26.952   6.687
 5164POPC   C3B65697  16.401  27.022   7.092
 5164POPC   C4B65698  16.581  26.676   7.331
 5165POPC   NC365699   9.407  31.944   5.520
 5165POPC   PO465700   9.599  32.607   5.615
 5165POPC   GL165701   9.880  32.411   5.932
 5165POPC   GL265702   9.914  32.080   5.754
 5165POPC   C1A65703   9.732  32.321   6.386
 5165POPC   D2A65704   9.350  32.461   6.670
 5165POPC   C3A65705   9.450  32.544   7.114
 5165POPC   C4A65706   9.784  32.385   7.396
 5165POPC   C1B65707   9.842  31.858   6.140
 5165POPC   C2B65708   9.550  31.831   6.492
 5165POPC   C3B65709   9.456  31.762   6.928
 5165POPC   C4B65710   9.768  31.918   7.210
 5166POPC   NC365711  21.272  25.235   5.302
 5166POPC   PO465712  21.846  25.190   5.637
 5166POPC   GL165713  21.454  25.290   5.814
 5166POPC   GL265714  21.075  25.195   5.774
 5166POPC   C1A65715  21.603  25.355   6.220
 5166POPC   D2A65716  21.757  25.239   6.590
 5166POPC   C3A65717  21.689  25.391   6.978
 5166POPC   C4A65718  21.496  25.073   7.199
 5166POPC   C1B65719  21.094  25.476   6.135
 5166POPC   C2B65720  21.284  25.525   6.555
 5166POPC   C3B65721  21.186  25.413   6.924
 5166POPC   C4B65722  21.269  25.587   7.269
 5167POPC   NC365723  19.528  44.949   5.570
 5167POPC   PO465724  20.069  44.517   5.629
 5167POPC   GL165725  19.737  44.543   5.928
 5167POPC   GL265726  19.933  44.555   6.201
 5167POPC   C1A65727  19.506  44.821   6.234
 5167POPC   D2A65728  19.464  44.777   6.645
 5167POPC   C3A65729  19.842  44.647   6.825
 5167POPC   C4A65730  19.797  44.570   7.258
 5167POPC   C1B65731  20.281  44.838   6.189
 5167POPC   C2B65732  20.440  44.800   6.570
 5167POPC   C3B65733  20.261  44.944   6.936
 5167POPC   C4B65734  20.228  44.791   7.339
 5168POPC   NC365735  10.006  32.844   5.592
 5168POPC   PO465736   9.475  33.339   5.484
 5168POPC   GL165737   9.683  33.303   5.839
 5168POPC   GL265738   9.683  32.952   5.977
 5168POPC   C1A65739   9.451  33.321   6.215
 5168POPC   D2A65740   9.518  33.036   6.536
 5168POPC   C3A65741   9.776  33.195   6.865
 5168POPC   C4A65742   9.589  33.059   7.226
 5168POPC   C1B65743   9.930  32.792   6.331
 5168POPC   C2B65744   9.819  32.684   6.783
 5168POPC   C3B65745  10.033  32.781   7.173
 5168POPC   C4B65746  10.138  32.694   7.610
 5169POPC   NC365747  25.739  38.763   5.504
 5169POPC   PO465748  26.029  38.152   5.188
 5169POPC   GL165749  26.000  38.337   5.653
 5169POPC   GL265750  26.271  38.266   5.810
 5169POPC   C1A65751  26.003  38.548   6.135
 5169POPC   D2A65752  26.149  38.600   6.598
 5169POPC   C3A65753  25.943  38.337   6.943
 5169POPC   C4A65754  25.839  38.411   7.386
 5169POPC   C1B65755  26.432  38.254   6.192
 5169POPC   C2B65756  26.576  38.302   6.603
 5169POPC   C3B65757  26.472  38.102   6.960
 5169POPC   C4B65758  26.337  38.308   7.279
 5170POPC   NC365759  35.792  43.778   5.432
 5170POPC   PO465760  36.521  43.620   5.500
 5170POPC   GL165761  36.230  43.802   5.855
 5170POPC   GL265762  35.865  43.961   5.897
 5170POPC   C1A65763  36.444  43.951   6.234
 5170POPC   D2A65764  36.469  43.695   6.606
 5170POPC   C3A65765  36.543  43.923   7.004
 5170POPC   C4A65766  36.547  43.565   7.287
 5170POPC   C1B65767  35.957  43.905   6.306
 5170POPC   C2B65768  36.068  43.989   6.719
 5170POPC   C3B65769  36.097  43.725   7.091
 5170POPC   C4B65770  35.931  43.871   7.495
 5171POPC   NC365771  11.829   9.443   5.519
 5171POPC   PO465772  12.156   8.812   5.555
 5171POPC   GL165773  12.372   8.992   5.904
 5171POPC   GL265774  12.220   9.281   5.855
 5171POPC   C1A65775  12.420   9.174   6.312
 5171POPC   D2A65776  12.211   8.953   6.629
 5171POPC   C3A65777  12.373   8.999   7.021
 5171POPC   C4A65778  12.176   8.819   7.374
 5171POPC   C1B65779  11.897   9.177   6.178
 5171POPC   C2B65780  11.749   9.250   6.619
 5171POPC   C3B65781  11.883   9.146   7.062
 5171POPC   C4B65782  11.869   9.214   7.524
 5172POPC   NC365783  13.516  25.374   5.289
 5172POPC   PO465784  13.966  25.024   5.626
 5172POPC   GL165785  13.764  25.389   5.742
 5172POPC   GL265786  13.476  25.217   5.797
 5172POPC   C1A65787  13.649  25.584   6.113
 5172POPC   D2A65788  13.465  25.555   6.505
 5172POPC   C3A65789  13.533  25.285   6.855
 5172POPC   C4A65790  13.540  25.397   7.292
 5172POPC   C1B65791  13.653  25.093   6.233
 5172POPC   C2B65792  13.719  24.851   6.629
 5172POPC   C3B65793  13.534  24.801   7.053
 5172POPC   C4B65794  13.745  24.935   7.444
 5173POPC   NC365795   0.287   4.101   5.080
 5173POPC   PO465796   0.444   3.527   5.399
 5173POPC   GL165797   0.360   3.316   5.780
 5173POPC   GL265798   0.145   3.600   5.904
 5173POPC   C1A65799   0.282   3.267   6.236
 5173POPC   D2A65800   0.146   3.553   6.547
 5173POPC   C3A65801   0.363   3.409   6.898
 5173POPC   C4A65802   0.383   3.180   7.253
 5173POPC   C1B65803   0.328   3.915   6.210
 5173POPC   C2B65804   0.387   4.069   6.622
 5173POPC   C3B65805   0.245   3.883   7.002
 5173POPC   C4B65806   0.221   3.816   7.410
 5174POPC   NC365807  35.783   3.131   5.520
 5174POPC   PO465808  35.143   2.646   5.451
 5174POPC   GL165809  35.157   2.553   5.897
 5174POPC   GL265810  35.357   2.840   5.889
 5174POPC   C1A65811  35.315   2.580   6.329
 5174POPC   D2A65812  35.500   2.781   6.675
 5174POPC   C3A65813  35.589   2.512   7.022
 5174POPC   C4A65814  35.425   2.531   7.440
 5174POPC   C1B65815  35.456   3.079   6.231
 5174POPC   C2B65816  35.620   3.268   6.574
 5174POPC   C3B65817  35.815   3.109   6.908
 5174POPC   C4B65818  35.604   2.971   7.252
 5175POPC   NC365819  15.629  11.619   5.620
 5175POPC   PO465820  16.080  11.209   5.368
 5175POPC   GL165821  16.181  11.229   5.788
 5175POPC   GL265822  15.857  11.254   5.893
 5175POPC   C1A65823  16.221  11.455   6.197
 5175POPC   D2A65824  16.039  11.444   6.621
 5175POPC   C3A65825  16.226  11.489   7.022
 5175POPC   C4A65826  15.974  11.293   7.344
 5175POPC   C1B65827  15.677  11.471   6.263
 5175POPC   C2B65828  15.581  11.204   6.600
 5175POPC   C3B65829  15.613  11.143   7.022
 5175POPC   C4B65830  15.480  11.498   7.272
 5176POPC   NC365831   6.160  11.622   5.396
 5176POPC   PO465832   6.573  11.120   5.640
 5176POPC   GL165833   6.678  11.447   5.898
 5176POPC   GL265834   7.024  11.478   5.851
 5176POPC   C1A65835   6.640  11.434   6.350
 5176POPC   D2A65836   6.426  11.091   6.570
 5176POPC   C3A65837   6.349  11.139   7.010
 5176POPC   C4A65838   6.347  11.520   7.236
 5176POPC   C1B65839   6.985  11.098   6.146
 5176POPC   C2B65840   7.089  11.018   6.564
 5176POPC   C3B65841   6.849  11.146   6.897
 5176POPC   C4B65842   6.794  11.004   7.305
 5177POPC   NC365843  34.757   9.407   5.513
 5177POPC   PO465844  34.269   8.982   5.488
 5177POPC   GL165845  34.549   9.057   5.864
 5177POPC   GL265846  34.642   9.397   6.000
 5177POPC   C1A65847  34.630   8.980   6.325
 5177POPC   D2A65848  34.600   8.795   6.731
 5177POPC   C3A65849  34.573   9.090   7.062
 5177POPC   C4A65850  34.656   8.964   7.506
 5177POPC   C1B65851  34.243   9.290   6.187
 5177POPC   C2B65852  34.184   9.094   6.591
 5177POPC   C3B65853  34.078   9.259   6.979
 5177POPC   C4B65854  34.186   9.136   7.388
 5178POPC   NC365855  33.333   8.057   5.484
 5178POPC   PO465856  33.921   8.173   5.174
 5178POPC   GL165857  33.825   8.199   5.661
 5178POPC   GL265858  33.618   7.994   5.880
 5178POPC   C1A65859  33.959   8.261   6.131
 5178POPC   D2A65860  33.830   8.135   6.557
 5178POPC   C3A65861  34.107   8.180   6.936
 5178POPC   C4A65862  33.951   8.318   7.348
 5178POPC   C1B65863  33.440   7.897   6.262
 5178POPC   C2B65864  33.514   7.760   6.651
 5178POPC   C3B65865  33.625   8.022   7.028
 5178POPC   C4B65866  33.487   7.896   7.404
 5179POPC   NC365867  36.872  12.676   5.524
 5179POPC   PO465868  37.359  13.094   5.483
 5179POPC   GL165869  37.096  13.087   5.823
 5179POPC   GL265870  36.775  13.140   5.907
 5179POPC   C1A65871  37.136  12.820   6.165
 5179POPC   D2A65872  37.345  12.849   6.529
 5179POPC   C3A65873  37.129  12.929   6.899
 5179POPC   C4A65874  37.127  12.754   7.281
 5179POPC   C1B65875  36.642  12.794   6.192
 5179POPC   C2B65876  36.503  12.816   6.600
 5179POPC   C3B65877  36.653  12.718   6.978
 5179POPC   C4B65878  36.642  12.941   7.326
 5180POPC   NC365879  11.425  25.991   5.562
 5180POPC   PO465880  10.911  25.706   5.158
 5180POPC   GL165881  10.925  26.092   5.654
 5180POPC   GL265882  11.166  26.375   5.847
 5180POPC   C1A65883  11.105  26.012   6.179
 5180POPC   D2A65884  11.410  25.818   6.530
 5180POPC   C3A65885  11.340  25.905   7.005
 5180POPC   C4A65886  10.999  25.905   7.340
 5180POPC   C1B65887  11.504  26.377   6.217
 5180POPC   C2B65888  11.603  26.270   6.677
 5180POPC   C3B65889  11.505  26.455   7.094
 5180POPC   C4B65890  11.592  26.407   7.550
 5181POPC   NC365891  33.523  31.302   5.612
 5181POPC   PO465892  32.860  31.258   5.410
 5181POPC   GL165893  33.048  31.403   5.763
 5181POPC   GL265894  32.964  31.723   5.733
 5181POPC   C1A65895  33.065  31.225   6.166
 5181POPC   D2A65896  32.808  31.342   6.491
 5181POPC   C3A65897  33.054  31.411   6.833
 5181POPC   C4A65898  33.120  31.211   7.206
 5181POPC   C1B65899  32.879  31.743   6.161
 5181POPC   C2B65900  32.990  31.866   6.575
 5181POPC   C3B65901  32.826  31.949   6.964
 5181POPC   C4B65902  32.866  31.695   7.304
 5182POPC   NC365903  19.699  31.642   5.492
 5182POPC   PO465904  20.198  31.273   5.609
 5182POPC   GL165905  19.873  31.261   5.901
 5182POPC   GL265906  19.569  31.499   5.962
 5182POPC   C1A65907  19.732  31.101   6.266
 5182POPC   D2A65908  19.779  31.404   6.551
 5182POPC   C3A65909  19.834  31.230   6.929
 5182POPC   C4A65910  19.703  31.421   7.303
 5182POPC   C1B65911  19.908  31.752   6.138
 5182POPC   C2B65912  20.121  31.794   6.535
 5182POPC   C3B65913  19.937  31.747   6.927
 5182POPC   C4B65914  19.908  31.898   7.317
 5183POPC   NC365915  43.731  24.048   5.626
 5183POPC   PO465916  44.048  23.594   5.181
 5183POPC   GL165917  44.021  23.518   5.659
 5183POPC   GL265918  44.308  23.620   5.902
 5183POPC   C1A65919  43.829  23.553   6.080
 5183POPC   D2A65920  43.731  23.737   6.481
 5183POPC   C3A65921  43.888  23.476   6.808
 5183POPC   C4A65922  43.761  23.422   7.227
 5183POPC   C1B65923  44.202  23.892   6.283
 5183POPC   C2B65924  44.206  23.870   6.741
 5183POPC   C3B65925  44.096  23.815   7.173
 5183POPC   C4B65926  44.051  23.840   7.634
 5184POPC   NC365927  30.159  33.063   5.490
 5184POPC   PO465928  29.802  32.458   5.573
 5184POPC   GL165929  29.910  32.725   5.876
 5184POPC   GL265930  29.720  33.000   5.799
 5184POPC   C1A65931  30.082  33.023   6.154
 5184POPC   D2A65932  29.983  33.196   6.525
 5184POPC   C3A65933  30.065  32.957   6.845
 5184POPC   C4A65934  29.926  32.913   7.213
 5184POPC   C1B65935  29.584  33.251   6.156
 5184POPC   C2B65936  29.554  33.456   6.532
 5184POPC   C3B65937  29.607  33.200   6.889
 5184POPC   C4B65938  29.622  33.331   7.267
 5185POPC   NC365939  12.830   5.242   5.326
 5185POPC   PO465940  12.719   4.542   5.447
 5185POPC   GL165941  12.819   4.930   5.763
 5185POPC   GL265942  12.780   5.335   5.814
 5185POPC   C1A65943  12.971   5.065   6.211
 5185POPC   D2A65944  13.079   5.092   6.677
 5185POPC   C3A65945  12.924   5.039   7.109
 5185POPC   C4A65946  12.847   4.696   7.425
 5185POPC   C1B65947  12.511   5.318   6.178
 5185POPC   C2B65948  12.522   5.458   6.602
 5185POPC   C3B65949  12.304   5.467   6.972
 5185POPC   C4B65950  12.609   5.436   7.267
 5186POPC   NC365951  27.079  19.557   5.377
 5186POPC   PO465952  26.781  20.135   5.596
 5186POPC   GL165953  26.884  19.750   5.815
 5186POPC   GL265954  26.581  19.814   5.949
 5186POPC   C1A65955  26.924  19.539   6.253
 5186POPC   D2A65956  27.135  19.494   6.673
 5186POPC   C3A65957  26.858  19.630   7.017
 5186POPC   C4A65958  26.412  19.517   7.135
 5186POPC   C1B65959  26.851  20.053   6.238
 5186POPC   C2B65960  27.048  20.004   6.639
 5186POPC   C3B65961  26.959  20.147   7.070
 5186POPC   C4B65962  26.845  19.929   7.469
 5187POPC   NC365963  23.255  23.086   5.488
 5187POPC   PO465964  22.585  23.139   5.299
 5187POPC   GL165965  22.751  22.926   5.722
 5187POPC   GL265966  23.013  23.093   5.932
 5187POPC   C1A65967  22.685  22.780   6.167
 5187POPC   D2A65968  22.924  22.945   6.544
 5187POPC   C3A65969  22.722  22.977   6.966
 5187POPC   C4A65970  22.533  22.709   7.257
 5187POPC   C1B65971  23.194  22.707   6.164
 5187POPC   C2B65972  23.254  22.548   6.606
 5187POPC   C3B65973  23.213  22.793   6.992
 5187POPC   C4B65974  23.134  22.664   7.421
 5188POPC   NC365975  12.679  13.535   5.341
 5188POPC   PO465976  13.366  13.432   5.448
 5188POPC   GL165977  13.068  13.381   5.773
 5188POPC   GL265978  12.918  13.696   5.775
 5188POPC   C1A65979  12.965  13.421   6.235
 5188POPC   D2A65980  13.192  13.307   6.629
 5188POPC   C3A65981  13.016  13.414   7.050
 5188POPC   C4A65982  12.797  13.286   7.423
 5188POPC   C1B65983  12.822  13.949   6.163
 5188POPC   C2B65984  12.710  13.905   6.597
 5188POPC   C3B65985  12.575  13.812   7.027
 5188POPC   C4B65986  12.867  13.796   7.354
 5189POPC   NC365987  14.201  34.503   5.040
 5189POPC   PO465988  14.610  34.904   5.346
 5189POPC   GL165989  14.471  34.869   5.798
 5189POPC   GL265990  14.692  35.090   5.958
 5189POPC   C1A65991  14.323  34.632   6.216
 5189POPC   D2A65992  14.251  34.352   6.616
 5189POPC   C3A65993  14.222  34.510   7.063
 5189POPC   C4A65994  14.431  34.272   7.404
 5189POPC   C1B65995  14.694  34.954   6.394
 5189POPC   C2B65996  14.502  34.805   6.759
 5189POPC   C3B65997  14.611  34.831   7.225
 5189POPC   C4B65998  14.747  34.627   7.613
 5190POPC   NC365999  16.957  16.692   5.493
 5190POPC   PO466000  16.231  16.530   5.418
 5190POPC   GL166001  16.507  16.649   5.790
 5190POPC   GL266002  16.783  16.441   5.914
 5190POPC   C1A66003  16.426  16.811   6.208
 5190POPC   D2A66004  16.574  16.826   6.664
 5190POPC   C3A66005  16.838  16.948   6.995
 5190POPC   C4A66006  16.620  16.910   7.415
 5190POPC   C1B66007  16.885  16.584   6.333
 5190POPC   C2B66008  16.889  16.403   6.779
 5190POPC   C3B66009  16.897  16.494   7.237
 5190POPC   C4B66010  16.832  16.465   7.694
 5191POPC   NC366011   9.122   4.159   5.352
 5191POPC   PO466012   8.468   3.978   5.408
 5191POPC   GL166013   8.615   4.048   5.855
 5191POPC   GL266014   8.979   4.082   5.830
 5191POPC   C1A66015   8.783   4.197   6.288
 5191POPC   D2A66016   9.068   4.121   6.653
 5191POPC   C3A66017   8.829   4.203   7.048
 5191POPC   C4A66018   8.832   4.084   7.480
 5191POPC   C1B66019   9.249   4.311   6.135
 5191POPC   C2B66020   9.098   4.610   6.462
 5191POPC   C3B66021   9.148   4.605   6.924
 5191POPC   C4B66022   9.128   4.506   7.399
 5192POPC   NC366023  26.710  29.119   5.391
 5192POPC   PO466024  26.750  28.558   5.393
 5192POPC   GL166025  26.890  28.845   5.794
 5192POPC   GL266026  26.965  29.218   5.831
 5192POPC   C1A66027  26.741  28.976   6.220
 5192POPC   D2A66028  26.711  29.248   6.587
 5192POPC   C3A66029  26.965  29.088   6.895
 5192POPC   C4A66030  27.000  29.108   7.334
 5192POPC   C1B66031  27.061  29.424   6.243
 5192POPC   C2B66032  27.195  29.511   6.682
 5192POPC   C3B66033  26.921  29.557   7.087
 5192POPC   C4B66034  26.472  29.652   7.228
 5193POPC   NC366035  27.849  26.877   5.557
 5193POPC   PO466036  27.282  27.153   5.537
 5193POPC   GL166037  27.443  26.922   5.878
 5193POPC   GL266038  27.434  26.589   5.761
 5193POPC   C1A66039  27.705  26.722   6.196
 5193POPC   D2A66040  27.553  26.720   6.603
 5193POPC   C3A66041  27.757  26.802   6.987
 5193POPC   C4A66042  27.719  26.590   7.323
 5193POPC   C1B66043  27.260  26.472   6.158
 5193POPC   C2B66044  27.288  26.308   6.555
 5193POPC   C3B66045  27.232  26.490   6.941
 5193POPC   C4B66046  27.238  26.377   7.338
 5194POPC   NC366047  39.161  39.802   5.554
 5194POPC   PO466048  39.156  39.119   5.303
 5194POPC   GL166049  39.226  39.295   5.715
 5194POPC   GL266050  39.547  39.502   5.743
 5194POPC   C1A66051  39.295  39.226   6.160
 5194POPC   D2A66052  39.506  39.285   6.557
 5194POPC   C3A66053  39.231  39.221   6.898
 5194POPC   C4A66054  39.202  39.088   7.289
 5194POPC   C1B66055  39.609  39.710   6.136
 5194POPC   C2B66056  39.755  39.731   6.558
 5194POPC   C3B66057  39.519  39.666   6.945
 5194POPC   C4B66058  39.277  39.585   7.331
 5195POPC   NC366059   3.899  19.335   5.424
 5195POPC   PO466060   4.357  19.855   5.411
 5195POPC   GL166061   4.263  19.835   5.856
 5195POPC   GL266062   3.990  19.667   5.789
 5195POPC   C1A66063   4.269  19.884   6.346
 5195POPC   D2A66064   4.633  20.014   6.653
 5195POPC   C3A66065   4.666  19.918   7.113
 5195POPC   C4A66066   4.365  20.103   7.426
 5195POPC   C1B66067   3.982  19.452   6.142
 5195POPC   C2B66068   4.141  19.401   6.527
 5195POPC   C3B66069   4.008  19.521   6.933
 5195POPC   C4B66070   4.240  19.663   7.238
 5196POPC   NC366071  23.912  20.042   5.229
 5196POPC   PO466072  23.303  19.754   5.405
 5196POPC   GL166073  23.542  19.689   5.830
 5196POPC   GL266074  23.896  19.877   5.861
 5196POPC   C1A66075  23.738  19.621   6.278
 5196POPC   D2A66076  23.923  19.893   6.635
 5196POPC   C3A66077  23.899  19.739   7.103
 5196POPC   C4A66078  23.850  19.777   7.574
 5196POPC   C1B66079  23.916  20.232   6.199
 5196POPC   C2B66080  23.912  20.461   6.616
 5196POPC   C3B66081  23.951  20.242   7.012
 5196POPC   C4B66082  23.605  20.137   7.299
 5197POPC   NC366083  24.079  39.433   5.254
 5197POPC   PO466084  24.506  38.988   5.372
 5197POPC   GL166085  24.425  39.160   5.759
 5197POPC   GL266086  24.591  38.883   5.906
 5197POPC   C1A66087  24.448  39.270   6.199
 5197POPC   D2A66088  24.205  39.165   6.579
 5197POPC   C3A66089  24.349  39.306   7.027
 5197POPC   C4A66090  24.199  39.150   7.462
 5197POPC   C1B66091  24.867  38.983   6.248
 5197POPC   C2B66092  24.715  39.098   6.619
 5197POPC   C3B66093  24.481  38.848   6.885
 5197POPC   C4B66094  24.637  38.885   7.283
 5198POPC   NC366095   9.594  29.696   5.412
 5198POPC   PO466096   9.808  30.288   5.386
 5198POPC   GL166097   9.671  30.141   5.798
 5198POPC   GL266098   9.841  29.833   5.888
 5198POPC   C1A66099   9.852  30.194   6.237
 5198POPC   D2A66100  10.092  30.186   6.638
 5198POPC   C3A66101   9.819  30.251   7.004
 5198POPC   C4A66102   9.638  29.871   7.205
 5198POPC   C1B66103   9.869  29.610   6.287
 5198POPC   C2B66104   9.876  29.664   6.717
 5198POPC   C3B66105   9.845  29.363   7.023
 5198POPC   C4B66106   9.873  29.468   7.462
 5199POPC   NC366107  16.893   8.510   5.295
 5199POPC   PO466108  16.608   7.871   5.211
 5199POPC   GL166109  16.697   8.125   5.663
 5199POPC   GL266110  17.054   8.267   5.748
 5199POPC   C1A66111  16.760   8.195   6.176
 5199POPC   D2A66112  16.871   8.332   6.624
 5199POPC   C3A66113  16.659   8.216   7.047
 5199POPC   C4A66114  16.460   7.797   7.112
 5199POPC   C1B66115  17.263   8.301   6.196
 5199POPC   C2B66116  17.337   8.510   6.639
 5199POPC   C3B66117  17.170   8.328   7.050
 5199POPC   C4B66118  16.926   8.486   7.396
 5200POPC   NC366119  31.826  15.195   5.334
 5200POPC   PO466120  31.308  14.887   5.329
 5200POPC   GL166121  31.370  14.959   5.817
 5200POPC   GL266122  31.640  15.146   5.877
 5200POPC   C1A66123  31.354  15.276   6.231
 5200POPC   D2A66124  31.512  15.245   6.631
 5200POPC   C3A66125  31.182  15.165   6.928
 5200POPC   C4A66126  31.297  15.020   7.319
 5200POPC   C1B66127  31.869  14.877   6.207
 5200POPC   C2B66128  31.702  14.734   6.594
 5200POPC   C3B66129  31.652  14.885   6.995
 5200POPC   C4B66130  31.835  14.961   7.404
 5201POPC   NC366131   2.778   3.779   5.407
 5201POPC   PO466132   2.735   3.142   5.316
 5201POPC   GL166133   2.534   3.409   5.687
 5201POPC   GL266134   2.283   3.688   5.686
 5201POPC   C1A66135   2.670   3.666   6.101
 5201POPC   D2A66136   2.800   3.467   6.527
 5201POPC   C3A66137   2.767   3.644   6.923
 5201POPC   C4A66138   2.940   3.660   7.341
 5201POPC   C1B66139   2.172   3.580   6.140
 5201POPC   C2B66140   2.347   3.736   6.552
 5201POPC   C3B66141   2.258   3.719   7.006
 5201POPC   C4B66142   2.440   3.503   7.345
 5202POPC   NC366143  43.507  10.026   5.506
 5202POPC   PO466144  44.169   9.811   5.503
 5202POPC   GL166145  44.025   9.734   5.889
 5202POPC   GL266146  43.712   9.563   5.794
 5202POPC   C1A66147  44.184   9.751   6.309
 5202POPC   D2A66148  44.252   9.623   6.733
 5202POPC   C3A66149  43.932   9.838   6.950
 5202POPC   C4A66150  43.958  10.049   7.321
 5202POPC   C1B66151  43.601   9.794   6.171
 5202POPC   C2B66152  43.576  10.048   6.550
 5202POPC   C3B66153  43.383   9.974   6.937
 5202POPC   C4B66154  43.508   9.836   7.336
 5203POPC   NC366155  34.123  22.260   5.179
 5203POPC   PO466156  34.793  22.173   5.233
 5203POPC   GL166157  34.564  22.219   5.687
 5203POPC   GL266158  34.839  22.026   5.826
 5203POPC   C1A66159  34.496  22.127   6.183
 5203POPC   D2A66160  34.219  22.102   6.550
 5203POPC   C3A66161  34.313  22.263   6.946
 5203POPC   C4A66162  34.463  22.118   7.319
 5203POPC   C1B66163  35.014  22.101   6.225
 5203POPC   C2B66164  34.821  22.191   6.599
 5203POPC   C3B66165  34.743  21.982   6.924
 5203POPC   C4B66166  34.908  21.809   7.268
 5204POPC   NC366167  23.367  27.890   5.440
 5204POPC   PO466168  24.028  27.638   5.609
 5204POPC   GL166169  23.656  27.636   5.839
 5204POPC   GL266170  23.467  27.329   5.866
 5204POPC   C1A66171  23.659  27.780   6.250
 5204POPC   D2A66172  23.854  27.909   6.617
 5204POPC   C3A66173  23.673  27.734   6.972
 5204POPC   C4A66174  23.890  27.501   7.274
 5204POPC   C1B66175  23.640  27.269   6.287
 5204POPC   C2B66176  23.760  27.298   6.733
 5204POPC   C3B66177  23.568  27.167   7.130
 5204POPC   C4B66178  23.634  27.179   7.621
 5205POPC   NC366179  30.844  11.591   5.372
 5205POPC   PO466180  30.788  12.322   5.364
 5205POPC   GL166181  30.676  12.155   5.770
 5205POPC   GL266182  30.655  11.800   5.827
 5205POPC   C1A66183  30.663  12.143   6.235
 5205POPC   D2A66184  30.453  12.272   6.630
 5205POPC   C3A66185  30.507  11.983   6.974
 5205POPC   C4A66186  30.551  12.054   7.419
 5205POPC   C1B66187  30.977  11.720   6.207
 5205POPC   C2B66188  30.886  11.716   6.687
 5205POPC   C3B66189  30.970  11.684   7.155
 5205POPC   C4B66190  30.984  11.889   7.585
 5206POPC   NC366191  20.397  36.216   5.403
 5206POPC   PO466192  20.763  35.673   5.700
 5206POPC   GL166193  20.715  36.104   5.856
 5206POPC   GL266194  20.437  36.354   5.886
 5206POPC   C1A66195  20.783  36.103   6.279
 5206POPC   D2A66196  20.679  36.264   6.673
 5206POPC   C3A66197  20.837  35.955   6.919
 5206POPC   C4A66198  20.791  36.065   7.320
 5206POPC   C1B66199  20.307  36.236   6.272
 5206POPC   C2B66200  20.357  35.891   6.579
 5206POPC   C3B66201  20.350  35.938   7.025
 5206POPC   C4B66202  20.340  36.308   7.282
 5207POPC   NC366203   7.863   2.816   5.182
 5207POPC   PO466204   8.481   2.987   5.389
 5207POPC   GL166205   8.234   2.879   5.741
 5207POPC   GL266206   8.405   3.067   5.991
 5207POPC   C1A66207   8.171   2.594   6.103
 5207POPC   D2A66208   7.929   2.488   6.497
 5207POPC   C3A66209   8.198   2.614   6.840
 5207POPC   C4A66210   8.287   2.783   7.243
 5207POPC   C1B66211   8.008   3.056   6.235
 5207POPC   C2B66212   7.917   2.994   6.627
 5207POPC   C3B66213   8.111   3.191   6.976
 5207POPC   C4B66214   8.533   3.269   7.096
 5208POPC   NC366215  38.712  33.831   5.615
 5208POPC   PO466216  38.180  34.015   5.160
 5208POPC   GL166217  38.156  33.953   5.630
 5208POPC   GL266218  37.990  34.283   5.682
 5208POPC   C1A66219  38.250  33.797   6.076
 5208POPC   D2A66220  38.321  33.618   6.496
 5208POPC   C3A66221  38.647  33.757   6.795
 5208POPC   C4A66222  38.713  33.493   7.168
 5208POPC   C1B66223  38.009  34.326   6.135
 5208POPC   C2B66224  38.148  34.119   6.519
 5208POPC   C3B66225  38.169  34.186   6.953
 5208POPC   C4B66226  38.451  33.951   7.239
 5209POPC   NC366227   0.848  22.648   5.738
 5209POPC   PO466228   0.328  23.014   5.470
 5209POPC   GL166229   0.514  23.006   5.876
 5209POPC   GL266230   0.834  23.227   5.840
 5209POPC   C1A66231   0.408  22.756   6.264
 5209POPC   D2A66232   0.374  22.633   6.693
 5209POPC   C3A66233   0.331  22.977   6.980
 5209POPC   C4A66234   0.355  23.331   7.230
 5209POPC   C1B66235   0.863  23.021   6.247
 5209POPC   C2B66236   0.735  23.007   6.619
 5209POPC   C3B66237   0.808  22.759   6.955
 5209POPC   C4B66238   0.647  22.791   7.336
 5210POPC   NC366239   4.411  20.353   5.447
 5210POPC   PO466240   3.788  20.570   5.367
 5210POPC   GL166241   4.028  20.713   5.739
 5210POPC   GL266242   4.391  20.872   5.767
 5210POPC   C1A66243   4.173  20.525   6.127
 5210POPC   D2A66244   4.031  20.627   6.542
 5210POPC   C3A66245   4.229  20.462   6.898
 5210POPC   C4A66246   4.087  20.567   7.305
 5210POPC   C1B66247   4.621  20.953   6.204
 5210POPC   C2B66248   4.622  20.915   6.692
 5210POPC   C3B66249   4.535  20.779   7.135
 5210POPC   C4B66250   4.629  20.921   7.528
 5211POPC   NC366251  16.832  24.198   5.457
 5211POPC   PO466252  16.563  23.612   5.511
 5211POPC   GL166253  16.660  23.880   5.837
 5211POPC   GL266254  17.015  23.834   5.831
 5211POPC   C1A66255  16.666  23.736   6.241
 5211POPC   D2A66256  16.502  23.741   6.651
 5211POPC   C3A66257  16.711  23.885   7.010
 5211POPC   C4A66258  17.010  24.016   7.292
 5211POPC   C1B66259  16.994  23.402   6.059
 5211POPC   C2B66260  16.984  23.263   6.458
 5211POPC   C3B66261  16.821  23.378   6.842
 5211POPC   C4B66262  16.915  23.474   7.237
 5212POPC   NC366263  35.646  23.513   5.364
 5212POPC   PO466264  36.311  23.710   5.569
 5212POPC   GL166265  36.078  23.544   5.904
 5212POPC   GL266266  35.771  23.396   5.832
 5212POPC   C1A66267  35.843  23.755   6.191
 5212POPC   D2A66268  35.838  23.955   6.546
 5212POPC   C3A66269  36.108  23.795   6.786
 5212POPC   C4A66270  36.120  23.836   7.179
 5212POPC   C1B66271  35.559  23.312   6.218
 5212POPC   C2B66272  35.747  23.425   6.598
 5212POPC   C3B66273  35.732  23.542   7.016
 5212POPC   C4B66274  36.031  23.368   7.340
 5213POPC   NC366275   7.647   3.846   5.440
 5213POPC   PO466276   7.314   3.236   5.554
 5213POPC   GL166277   7.459   3.372   5.943
 5213POPC   GL266278   7.569   3.707   5.929
 5213POPC   C1A66279   7.488   3.253   6.365
 5213POPC   D2A66280   7.351   3.464   6.753
 5213POPC   C3A66281   7.474   3.229   7.118
 5213POPC   C4A66282   7.533   3.297   7.546
 5213POPC   C1B66283   7.462   3.764   6.352
 5213POPC   C2B66284   7.382   4.081   6.632
 5213POPC   C3B66285   7.488   4.023   7.014
 5213POPC   C4B66286   7.444   3.755   7.339
 5214POPC   NC366287   2.992   8.407   5.302
 5214POPC   PO466288   2.351   8.209   5.472
 5214POPC   GL166289   2.723   8.100   5.700
 5214POPC   GL266290   3.006   7.901   5.591
 5214POPC   C1A66291   2.766   8.266   6.116
 5214POPC   D2A66292   2.671   8.506   6.465
 5214POPC   C3A66293   2.679   8.273   6.822
 5214POPC   C4A66294   2.535   8.295   7.214
 5214POPC   C1B66295   3.044   7.851   6.056
 5214POPC   C2B66296   3.137   8.107   6.458
 5214POPC   C3B66297   3.113   7.965   6.908
 5214POPC   C4B66298   2.940   7.997   7.320
 5215POPC   NC366299  26.837  42.793   5.772
 5215POPC   PO466300  26.886  42.196   5.504
 5215POPC   GL166301  26.728  42.213   5.898
 5215POPC   GL266302  26.442  42.424   5.805
 5215POPC   C1A66303  26.898  42.193   6.337
 5215POPC   D2A66304  27.031  42.555   6.618
 5215POPC   C3A66305  26.842  42.627   7.005
 5215POPC   C4A66306  26.669  42.236   7.197
 5215POPC   C1B66307  26.456  42.466   6.252
 5215POPC   C2B66308  26.517  42.353   6.684
 5215POPC   C3B66309  26.336  42.577   7.023
 5215POPC   C4B66310  26.452  42.591   7.467
 5216POPC   NC366311  23.975  32.661   5.488
 5216POPC   PO466312  23.499  33.180   5.593
 5216POPC   GL166313  23.761  33.265   5.931
 5216POPC   GL266314  23.890  32.927   5.961
 5216POPC   C1A66315  23.734  33.258   6.387
 5216POPC   D2A66316  23.882  33.030   6.746
 5216POPC   C3A66317  23.732  33.197   7.120
 5216POPC   C4A66318  23.397  33.040   7.387
 5216POPC   C1B66319  23.495  32.849   6.220
 5216POPC   C2B66320  23.488  32.696   6.662
 5216POPC   C3B66321  23.621  32.717   7.079
 5216POPC   C4B66322  24.055  32.789   7.165
 5217POPC   NC366323  39.790   8.187   5.454
 5217POPC   PO466324  40.389   8.554   5.475
 5217POPC   GL166325  40.237   8.228   5.836
 5217POPC   GL266326  39.895   8.116   5.942
 5217POPC   C1A66327  40.313   7.984   6.246
 5217POPC   D2A66328  40.354   7.943   6.719
 5217POPC   C3A66329  40.128   8.239   7.040
 5217POPC   C4A66330  39.710   8.369   7.151
 5217POPC   C1B66331  39.811   7.914   6.344
 5217POPC   C2B66332  39.768   7.982   6.776
 5217POPC   C3B66333  39.747   7.851   7.197
 5217POPC   C4B66334  39.559   7.709   7.578
 5218POPC   NC366335  26.947  17.816   5.587
 5218POPC   PO466336  26.620  17.146   5.494
 5218POPC   GL166337  26.752  17.397   5.813
 5218POPC   GL266338  27.118  17.378   5.830
 5218POPC   C1A66339  26.612  17.546   6.211
 5218POPC   D2A66340  26.618  17.320   6.597
 5218POPC   C3A66341  26.600  17.507   6.991
 5218POPC   C4A66342  26.737  17.284   7.336
 5218POPC   C1B66343  27.120  17.616   6.214
 5218POPC   C2B66344  26.949  17.709   6.611
 5218POPC   C3B66345  27.054  17.787   7.032
 5218POPC   C4B66346  27.213  17.528   7.379
 5219POPC   NC366347   0.897  18.275   5.453
 5219POPC   PO466348   1.513  18.402   5.634
 5219POPC   GL166349   1.218  18.177   5.883
 5219POPC   GL266350   0.940  17.927   5.818
 5219POPC   C1A66351   1.341  18.176   6.303
 5219POPC   D2A66352   1.109  18.050   6.615
 5219POPC   C3A66353   1.249  18.127   6.996
 5219POPC   C4A66354   1.072  18.425   7.194
 5219POPC   C1B66355   0.820  18.084   6.198
 5219POPC   C2B66356   0.588  17.988   6.552
 5219POPC   C3B66357   0.735  18.036   6.939
 5219POPC   C4B66358   0.875  17.931   7.283
 5220POPC   NC366359  29.198  27.174   5.036
 5220POPC   PO466360  29.137  26.545   5.306
 5220POPC   GL166361  29.181  26.782   5.679
 5220POPC   GL266362  29.034  26.519   5.844
 5220POPC   C1A66363  29.377  26.874   6.109
 5220POPC   D2A66364  29.446  27.185   6.462
 5220POPC   C3A66365  29.151  27.130   6.795
 5220POPC   C4A66366  28.931  26.805   7.073
 5220POPC   C1B66367  28.801  26.500   6.201
 5220POPC   C2B66368  28.629  26.239   6.496
 5220POPC   C3B66369  28.758  26.325   6.908
 5220POPC   C4B66370  28.931  26.311   7.318
 5221POPC   NC366371  41.332  10.562   5.555
 5221POPC   PO466372  41.968  10.559   5.315
 5221POPC   GL166373  41.822  10.564   5.777
 5221POPC   GL266374  41.856  10.931   5.755
 5221POPC   C1A66375  41.562  10.481   6.215
 5221POPC   D2A66376  41.633  10.297   6.636
 5221POPC   C3A66377  41.411  10.521   6.940
 5221POPC   C4A66378  41.443  10.673   7.351
 5221POPC   C1B66379  41.996  10.872   6.178
 5221POPC   C2B66380  41.785  10.804   6.561
 5221POPC   C3B66381  41.806  10.860   7.000
 5221POPC   C4B66382  41.923  10.750   7.456
 5222POPC   NC366383  36.195   4.474   5.386
 5222POPC   PO466384  36.423   3.903   5.679
 5222POPC   GL166385  36.232   4.236   5.851
 5222POPC   GL266386  36.559   4.414   5.832
 5222POPC   C1A66387  35.959   4.325   6.227
 5222POPC   D2A66388  36.047   4.540   6.633
 5222POPC   C3A66389  36.068   4.284   7.002
 5222POPC   C4A66390  35.773   4.008   7.199
 5222POPC   C1B66391  36.477   4.350   6.291
 5222POPC   C2B66392  36.520   4.372   6.743
 5222POPC   C3B66393  36.504   4.516   7.163
 5222POPC   C4B66394  36.387   4.373   7.581
 5223POPC   NC366395  16.619  38.799   5.539
 5223POPC   PO466396  16.487  38.141   5.491
 5223POPC   GL166397  16.519  38.367   5.842
 5223POPC   GL266398  16.866  38.363   5.905
 5223POPC   C1A66399  16.520  38.465   6.273
 5223POPC   D2A66400  16.695  38.266   6.631
 5223POPC   C3A66401  16.440  38.419   6.944
 5223POPC   C4A66402  16.451  38.560   7.360
 5223POPC   C1B66403  17.036  38.595   6.232
 5223POPC   C2B66404  17.201  38.486   6.610
 5223POPC   C3B66405  17.014  38.516   6.999
 5223POPC   C4B66406  17.192  38.386   7.377
 5224POPC   NC366407  39.995  25.914   5.435
 5224POPC   PO466408  39.517  26.330   5.203
 5224POPC   GL166409  39.858  26.337   5.678
 5224POPC   GL266410  40.204  26.193   5.797
 5224POPC   C1A66411  39.811  26.210   6.133
 5224POPC   D2A66412  39.795  25.863   6.430
 5224POPC   C3A66413  39.878  26.005   6.861
 5224POPC   C4A66414  39.948  26.129   7.295
 5224POPC   C1B66415  40.263  25.914   6.173
 5224POPC   C2B66416  40.268  25.743   6.619
 5224POPC   C3B66417  40.334  25.868   7.049
 5224POPC   C4B66418  40.459  25.699   7.426
 5225POPC   NC366419  13.029   7.595   5.527
 5225POPC   PO466420  12.458   7.245   5.570
 5225POPC   GL166421  12.800   7.299   5.879
 5225POPC   GL266422  12.787   7.647   5.988
 5225POPC   C1A66423  13.090   7.180   6.234
 5225POPC   D2A66424  13.209   7.307   6.670
 5225POPC   C3A66425  12.920   7.168   7.004
 5225POPC   C4A66426  12.548   7.235   7.208
 5225POPC   C1B66427  12.644   7.381   6.358
 5225POPC   C2B66428  12.520   7.471   6.756
 5225POPC   C3B66429  12.746   7.675   7.052
 5225POPC   C4B66430  13.157   7.625   7.174
 5226POPC   NC366431  15.763   9.796   5.531
 5226POPC   PO466432  16.457  10.087   5.560
 5226POPC   GL166433  16.133   9.870   5.853
 5226POPC   GL266434  15.785  10.027   5.975
 5226POPC   C1A66435  16.082   9.738   6.278
 5226POPC   D2A66436  16.218   9.951   6.651
 5226POPC   C3A66437  16.245   9.610   6.976
 5226POPC   C4A66438  16.005   9.462   7.327
 5226POPC   C1B66439  15.743  10.099   6.403
 5226POPC   C2B66440  15.749   9.776   6.714
 5226POPC   C3B66441  15.826   9.889   7.131
 5226POPC   C4B66442  15.479  10.117   7.303
 5227POPC   NC366443   4.870  35.230   5.422
 5227POPC   PO466444   5.243  35.764   5.399
 5227POPC   GL166445   4.981  35.594   5.752
 5227POPC   GL266446   5.112  35.246   5.861
 5227POPC   C1A66447   4.970  35.596   6.205
 5227POPC   D2A66448   5.068  35.306   6.529
 5227POPC   C3A66449   5.016  35.512   6.911
 5227POPC   C4A66450   5.149  35.392   7.287
 5227POPC   C1B66451   5.008  34.894   6.160
 5227POPC   C2B66452   4.861  34.815   6.584
 5227POPC   C3B66453   5.064  34.945   6.950
 5227POPC   C4B66454   5.034  34.931   7.399
 5228POPC   NC366455   3.149  19.701   5.564
 5228POPC   PO466456   2.533  19.542   5.340
 5228POPC   GL166457   2.496  19.753   5.748
 5228POPC   GL266458   2.741  19.558   5.865
 5228POPC   C1A66459   2.697  20.038   6.084
 5228POPC   D2A66460   2.648  20.089   6.533
 5228POPC   C3A66461   2.894  20.028   6.907
 5228POPC   C4A66462   2.862  19.769   7.271
 5228POPC   C1B66463   2.574  19.571   6.264
 5228POPC   C2B66464   2.750  19.595   6.662
 5228POPC   C3B66465   2.573  19.455   6.999
 5228POPC   C4B66466   2.416  19.485   7.387
 5229POPC   NC366467  43.787  19.098   5.517
 5229POPC   PO466468  43.774  19.727   5.714
 5229POPC   GL166469  44.038  19.352   5.922
 5229POPC   GL266470  44.121  18.956   5.865
 5229POPC   C1A66471  43.998  19.157   6.314
 5229POPC   D2A66472  43.745  19.044   6.643
 5229POPC   C3A66473  43.918  19.195   7.030
 5229POPC   C4A66474  43.993  19.274   7.461
 5229POPC   C1B66475  43.846  18.718   6.118
 5229POPC   C2B66476  43.888  18.555   6.514
 5229POPC   C3B66477  43.917  18.675   6.948
 5229POPC   C4B66478  43.890  18.791   7.356
 5230POPC   NC366479  25.257  15.366   5.242
 5230POPC   PO466480  24.885  14.840   5.548
 5230POPC   GL166481  25.171  15.008   5.883
 5230POPC   GL266482  25.310  15.346   5.768
 5230POPC   C1A66483  25.222  14.986   6.322
 5230POPC   D2A66484  25.099  15.279   6.671
 5230POPC   C3A66485  25.205  15.085   7.066
 5230POPC   C4A66486  25.361  15.017   7.532
 5230POPC   C1B66487  25.424  15.457   6.189
 5230POPC   C2B66488  25.402  15.686   6.589
 5230POPC   C3B66489  25.457  15.528   6.973
 5230POPC   C4B66490  25.534  15.459   7.381
 5231POPC   NC366491   5.918   2.906   5.463
 5231POPC   PO466492   5.346   2.459   5.425
 5231POPC   GL166493   5.579   2.635   5.811
 5231POPC   GL266494   5.952   2.539   5.847
 5231POPC   C1A66495   5.723   2.692   6.265
 5231POPC   D2A66496   5.870   3.034   6.515
 5231POPC   C3A66497   5.813   2.997   6.937
 5231POPC   C4A66498   5.974   3.002   7.370
 5231POPC   C1B66499   6.131   2.346   6.245
 5231POPC   C2B66500   6.217   2.440   6.703
 5231POPC   C3B66501   6.053   2.565   7.116
 5231POPC   C4B66502   5.584   2.611   7.153
 5232POPC   NC366503   3.729  23.456   5.575
 5232POPC   PO466504   3.207  22.829   5.483
 5232POPC   GL166505   3.375  23.040   5.843
 5232POPC   GL266506   3.713  23.050   5.870
 5232POPC   C1A66507   3.284  22.990   6.289
 5232POPC   D2A66508   3.227  22.781   6.684
 5232POPC   C3A66509   3.266  22.946   7.115
 5232POPC   C4A66510   3.591  22.832   7.421
 5232POPC   C1B66511   3.663  23.307   6.238
 5232POPC   C2B66512   3.638  23.120   6.619
 5232POPC   C3B66513   3.743  23.110   6.995
 5232POPC   C4B66514   3.658  23.351   7.335
 5233POPC   NC366515  26.340  26.063   5.419
 5233POPC   PO466516  25.750  26.339   5.556
 5233POPC   GL166517  25.880  25.932   5.718
 5233POPC   GL266518  25.604  25.764   5.893
 5233POPC   C1A66519  26.205  25.811   6.024
 5233POPC   D2A66520  26.390  26.055   6.344
 5233POPC   C3A66521  26.364  25.987   6.792
 5233POPC   C4A66522  26.319  26.035   7.205
 5233POPC   C1B66523  25.764  25.974   6.241
 5233POPC   C2B66524  25.959  26.236   6.547
 5233POPC   C3B66525  25.905  26.284   6.962
 5233POPC   C4B66526  25.770  26.015   7.264
 5234POPC   NC366527  18.295  44.703   5.207
 5234POPC   PO466528  18.670   0.005   5.682
 5234POPC   GL166529  18.450  44.837   5.982
 5234POPC   GL266530  18.168  44.705   5.789
 5234POPC   C1A66531  18.314  44.508   6.274
 5234POPC   D2A66532  18.098  44.487   6.684
 5234POPC   C3A66533  18.329  44.610   7.063
 5234POPC   C4A66534  18.240  44.694   7.496
 5234POPC   C1B66535  17.979  44.910   6.162
 5234POPC   C2B66536  17.766   0.052   6.523
 5234POPC   C3B66537  18.004  44.966   6.883
 5234POPC   C4B66538  17.891   0.029   7.294
 5235POPC   NC366539  38.636  15.622   5.113
 5235POPC   PO466540  38.470  16.153   5.668
 5235POPC   GL166541  38.380  15.873   5.990
 5235POPC   GL266542  38.142  15.622   5.822
 5235POPC   C1A66543  38.482  15.956   6.376
 5235POPC   D2A66544  38.294  16.087   6.753
 5235POPC   C3A66545  38.524  15.870   7.061
 5235POPC   C4A66546  38.682  16.108   7.391
 5235POPC   C1B66547  38.066  15.621   6.282
 5235POPC   C2B66548  38.292  15.581   6.639
 5235POPC   C3B66549  38.060  15.661   6.952
 5235POPC   C4B66550  38.019  15.572   7.321
 5236POPC   NC366551  11.798  34.231   5.424
 5236POPC   PO466552  11.820  33.566   5.607
 5236POPC   GL166553  12.133  33.813   5.824
 5236POPC   GL266554  12.151  33.533   6.037
 5236POPC   C1A66555  12.384  33.947   6.205
 5236POPC   D2A66556  12.257  33.786   6.590
 5236POPC   C3A66557  12.350  33.981   6.952
 5236POPC   C4A66558  12.299  33.915   7.364
 5236POPC   C1B66559  11.845  33.702   6.305
 5236POPC   C2B66560  11.788  33.539   6.734
 5236POPC   C3B66561  12.047  33.519   7.109
 5236POPC   C4B66562  11.978  33.591   7.574
 5237POPC   NC366563  22.523  41.957   5.410
 5237POPC   PO466564  23.007  41.500   5.257
 5237POPC   GL166565  22.952  41.431   5.704
 5237POPC   GL266566  23.158  41.628   5.850
 5237POPC   C1A66567  22.786  41.486   6.144
 5237POPC   D2A66568  22.971  41.560   6.533
 5237POPC   C3A66569  22.873  41.401   6.923
 5237POPC   C4A66570  22.704  41.662   7.247
 5237POPC   C1B66571  23.327  41.370   6.235
 5237POPC   C2B66572  23.282  41.161   6.658
 5237POPC   C3B66573  23.370  41.359   7.035
 5237POPC   C4B66574  23.206  41.463   7.431
 5238POPC   NC366575  13.781  40.416   5.385
 5238POPC   PO466576  13.460  41.021   5.358
 5238POPC   GL166577  13.532  40.881   5.831
 5238POPC   GL266578  13.658  40.542   5.858
 5238POPC   C1A66579  13.540  40.713   6.312
 5238POPC   D2A66580  13.575  40.406   6.658
 5238POPC   C3A66581  13.525  40.623   7.036
 5238POPC   C4A66582  13.537  41.016   7.203
 5238POPC   C1B66583  13.996  40.491   6.201
 5238POPC   C2B66584  14.058  40.616   6.646
 5238POPC   C3B66585  14.010  40.761   7.089
 5238POPC   C4B66586  14.044  40.589   7.504
 5239POPC   NC366587  11.247   3.231   5.416
 5239POPC   PO466588  11.665   3.697   5.378
 5239POPC   GL166589  11.337   3.822   5.706
 5239POPC   GL266590  10.995   3.693   5.681
 5239POPC   C1A66591  11.316   3.700   6.159
 5239POPC   D2A66592  11.506   3.424   6.510
 5239POPC   C3A66593  11.552   3.582   6.924
 5239POPC   C4A66594  11.265   3.647   7.217
 5239POPC   C1B66595  10.924   3.373   6.043
 5239POPC   C2B66596  10.996   3.465   6.500
 5239POPC   C3B66597  11.081   3.291   6.901
 5239POPC   C4B66598  10.852   3.362   7.281
 5240POPC   NC366599  20.794  22.995   4.990
 5240POPC   PO466600  20.326  22.775   5.413
 5240POPC   GL166601  20.514  22.918   5.795
 5240POPC   GL266602  20.799  23.154   5.923
 5240POPC   C1A66603  20.609  22.743   6.191
 5240POPC   D2A66604  20.732  22.939   6.534
 5240POPC   C3A66605  20.523  22.795   6.859
 5240POPC   C4A66606  20.551  22.765   7.306
 5240POPC   C1B66607  20.448  23.242   6.226
 5240POPC   C2B66608  20.298  23.225   6.667
 5240POPC   C3B66609  20.405  23.225   7.099
 5240POPC   C4B66610  20.460  23.373   7.517
 5241POPC   NC366611  17.662  16.296   5.533
 5241POPC   PO466612  17.384  16.890   5.460
 5241POPC   GL166613  17.397  16.652   5.816
 5241POPC   GL266614  17.754  16.678   5.864
 5241POPC   C1A66615  17.437  16.653   6.277
 5241POPC   D2A66616  17.243  16.817   6.658
 5241POPC   C3A66617  17.545  16.843   6.977
 5241POPC   C4A66618  17.398  16.504   7.206
 5241POPC   C1B66619  17.909  16.405   6.187
 5241POPC   C2B66620  17.866  16.555   6.613
 5241POPC   C3B66621  17.870  16.411   7.044
 5241POPC   C4B66622  17.770  16.415   7.527
 5242POPC   NC366623  13.371  42.335   5.418
 5242POPC   PO466624  13.884  41.922   5.273
 5242POPC   GL166625  13.832  42.349   5.665
 5242POPC   GL266626  13.494  42.409   5.893
 5242POPC   C1A66627  13.894  42.597   6.123
 5242POPC   D2A66628  13.805  42.751   6.589
 5242POPC   C3A66629  13.614  42.522   6.964
 5242POPC   C4A66630  13.762  42.195   7.260
 5242POPC   C1B66631  13.488  42.396   6.371
 5242POPC   C2B66632  13.369  42.129   6.711
 5242POPC   C3B66633  13.411  41.882   7.074
 5242POPC   C4B66634  13.350  41.971   7.507
 5243POPC   NC366635  32.756  28.044   5.645
 5243POPC   PO466636  33.281  27.622   5.469
 5243POPC   GL166637  33.193  27.468   5.839
 5243POPC   GL266638  32.871  27.601   5.908
 5243POPC   C1A66639  33.292  27.578   6.261
 5243POPC   D2A66640  32.999  27.581   6.626
 5243POPC   C3A66641  33.179  27.728   7.028
 5243POPC   C4A66642  33.342  27.647   7.431
 5243POPC   C1B66643  32.901  27.251   6.205
 5243POPC   C2B66644  32.567  27.226   6.468
 5243POPC   C3B66645  32.626  27.289   6.883
 5243POPC   C4B66646  32.787  27.424   7.264
 5244POPC   NC366647  41.064  37.280   5.154
 5244POPC   PO466648  40.830  36.768   5.569
 5244POPC   GL166649  41.052  36.756   5.934
 5244POPC   GL266650  40.887  37.060   6.066
 5244POPC   C1A66651  41.027  36.653   6.358
 5244POPC   D2A66652  40.722  36.572   6.675
 5244POPC   C3A66653  40.831  36.750   7.073
 5244POPC   C4A66654  41.167  36.541   7.223
 5244POPC   C1B66655  40.876  37.277   6.438
 5244POPC   C2B66656  40.644  37.123   6.779
 5244POPC   C3B66657  40.406  37.109   7.168
 5244POPC   C4B66658  40.521  37.070   7.609
 5245POPC   NC366659  36.412  27.614   5.157
 5245POPC   PO466660  35.783  27.310   5.308
 5245POPC   GL166661  35.881  27.385   5.770
 5245POPC   GL266662  35.895  27.742   5.879
 5245POPC   C1A66663  36.084  27.347   6.178
 5245POPC   D2A66664  35.973  27.595   6.539
 5245POPC   C3A66665  36.106  27.322   6.879
 5245POPC   C4A66666  36.240  27.285   7.285
 5245POPC   C1B66667  36.286  27.824   6.144
 5245POPC   C2B66668  36.385  27.965   6.561
 5245POPC   C3B66669  36.211  27.838   6.946
 5245POPC   C4B66670  36.418  27.784   7.317
 5246POPC   NC366671  15.971  29.504   5.337
 5246POPC   PO466672  15.961  28.811   5.264
 5246POPC   GL166673  16.011  29.094   5.709
 5246POPC   GL266674  16.340  28.953   5.845
 5246POPC   C1A66675  16.040  29.251   6.201
 5246POPC   D2A66676  15.900  29.233   6.683
 5246POPC   C3A66677  15.823  29.477   7.083
 5246POPC   C4A66678  15.816  29.283   7.475
 5246POPC   C1B66679  16.261  28.773   6.266
 5246POPC   C2B66680  16.321  28.930   6.695
 5246POPC   C3B66681  16.182  29.110   7.125
 5246POPC   C4B66682  16.289  29.041   7.589
 5247POPC   NC366683   1.389  34.046   5.233
 5247POPC   PO466684   1.699  33.685   5.676
 5247POPC   GL166685   1.383  33.782   5.931
 5247POPC   GL266686   1.240  34.053   5.759
 5247POPC   C1A66687   1.190  33.678   6.310
 5247POPC   D2A66688   1.430  33.740   6.642
 5247POPC   C3A66689   1.328  33.912   7.018
 5247POPC   C4A66690   1.458  33.926   7.420
 5247POPC   C1B66691   1.183  34.179   6.198
 5247POPC   C2B66692   1.022  34.083   6.616
 5247POPC   C3B66693   0.826  33.987   7.020
 5247POPC   C4B66694   0.982  34.125   7.433
 5248POPC   NC366695  33.452  27.152   5.389
 5248POPC   PO466696  32.879  26.805   5.349
 5248POPC   GL166697  33.047  26.730   5.758
 5248POPC   GL266698  33.278  26.969   5.823
 5248POPC   C1A66699  33.061  26.743   6.217
 5248POPC   D2A66700  32.966  26.941   6.615
 5248POPC   C3A66701  33.037  26.699   6.969
 5248POPC   C4A66702  33.164  26.757   7.381
 5248POPC   C1B66703  33.439  27.083   6.216
 5248POPC   C2B66704  33.405  27.252   6.633
 5248POPC   C3B66705  33.193  27.208   7.019
 5248POPC   C4B66706  33.508  27.121   7.291
 5249POPC   NC366707  29.592  44.256   5.694
 5249POPC   PO466708  29.838  43.775   5.291
 5249POPC   GL166709  29.974  43.925   5.721
 5249POPC   GL266710  30.036  44.243   5.924
 5249POPC   C1A66711  29.888  43.761   6.130
 5249POPC   D2A66712  29.798  43.620   6.570
 5249POPC   C3A66713  30.003  43.629   6.988
 5249POPC   C4A66714  29.909  43.859   7.377
 5249POPC   C1B66715  30.178  44.119   6.309
 5249POPC   C2B66716  30.163  44.034   6.728
 5249POPC   C3B66717  29.754  44.067   6.932
 5249POPC   C4B66718  29.428  44.118   7.210
 5250POPC   NC366719  40.452  38.910   5.302
 5250POPC   PO466720  41.147  39.231   5.342
 5250POPC   GL166721  40.766  39.248   5.623
 5250POPC   GL266722  40.764  38.897   5.710
 5250POPC   C1A66723  40.518  39.358   6.037
 5250POPC   D2A66724  40.638  39.434   6.474
 5250POPC   C3A66725  40.459  39.474   6.895
 5250POPC   C4A66726  40.719  39.604   7.236
 5250POPC   C1B66727  40.924  39.043   6.098
 5250POPC   C2B66728  41.041  39.122   6.515
 5250POPC   C3B66729  40.836  39.144   6.880
 5250POPC   C4B66730  40.977  39.103   7.271
 5251POPC   NC366731  33.719  27.866   5.444
 5251POPC   PO466732  33.902  27.229   5.422
 5251POPC   GL166733  33.706  27.325   5.821
 5251POPC   GL266734  33.655  27.689   5.900
 5251POPC   C1A66735  33.831  27.394   6.255
 5251POPC   D2A66736  33.946  27.708   6.517
 5251POPC   C3A66737  33.807  27.524   6.881
 5251POPC   C4A66738  33.814  27.523   7.312
 5251POPC   C1B66739  33.587  27.998   6.235
 5251POPC   C2B66740  33.519  27.922   6.682
 5251POPC   C3B66741  33.719  27.973   7.090
 5251POPC   C4B66742  33.748  27.982   7.558
 5252POPC   NC366743  22.316  40.158   5.426
 5252POPC   PO466744  21.890  39.628   5.435
 5252POPC   GL166745  21.899  39.852   5.837
 5252POPC   GL266746  22.262  39.886   5.878
 5252POPC   C1A66747  21.965  39.993   6.287
 5252POPC   D2A66748  22.098  40.236   6.641
 5252POPC   C3A66749  21.994  40.094   7.064
 5252POPC   C4A66750  21.871  39.975   7.475
 5252POPC   C1B66751  22.383  40.273   6.139
 5252POPC   C2B66752  22.599  40.338   6.566
 5252POPC   C3B66753  22.502  40.203   7.001
 5252POPC   C4B66754  22.341  40.192   7.444
 5253POPC   NC366755  24.454  40.354   5.367
 5253POPC   PO466756  24.649  41.018   5.393
 5253POPC   GL166757  24.342  40.831   5.696
 5253POPC   GL266758  24.479  40.531   5.842
 5253POPC   C1A66759  24.315  40.928   6.152
 5253POPC   D2A66760  24.616  40.929   6.509
 5253POPC   C3A66761  24.549  40.768   6.934
 5253POPC   C4A66762  24.651  41.047   7.265
 5253POPC   C1B66763  24.746  40.469   6.207
 5253POPC   C2B66764  24.899  40.507   6.626
 5253POPC   C3B66765  24.918  40.403   7.053
 5253POPC   C4B66766  24.728  40.534   7.434
 5254POPC   NC366767  40.817   6.173   5.487
 5254POPC   PO466768  40.952   5.488   5.470
 5254POPC   GL166769  40.976   5.748   5.825
 5254POPC   GL266770  40.693   5.892   5.881
 5254POPC   C1A66771  41.026   6.034   6.213
 5254POPC   D2A66772  40.874   5.850   6.597
 5254POPC   C3A66773  40.808   6.005   6.999
 5254POPC   C4A66774  40.833   5.800   7.413
 5254POPC   C1B66775  40.479   5.930   6.263
 5254POPC   C2B66776  40.324   6.059   6.627
 5254POPC   C3B66777  40.326   5.847   6.965
 5254POPC   C4B66778  40.399   6.040   7.308
 5255POPC   NC366779  11.763  13.267   5.620
 5255POPC   PO466780  11.111  13.035   5.359
 5255POPC   GL166781  11.303  12.912   5.743
 5255POPC   GL266782  11.180  13.185   5.935
 5255POPC   C1A66783  11.339  12.747   6.180
 5255POPC   D2A66784  11.218  12.941   6.588
 5255POPC   C3A66785  11.164  12.664   6.953
 5255POPC   C4A66786  11.234  12.696   7.379
 5255POPC   C1B66787  11.525  13.236   6.232
 5255POPC   C2B66788  11.671  13.177   6.643
 5255POPC   C3B66789  11.529  13.010   7.011
 5255POPC   C4B66790  11.656  13.077   7.406
 5256POPC   NC366791   7.764  24.295   5.224
 5256POPC   PO466792   8.300  24.669   5.327
 5256POPC   GL166793   8.264  24.660   5.815
 5256POPC   GL266794   7.986  24.816   5.926
 5256POPC   C1A66795   8.276  24.359   6.206
 5256POPC   D2A66796   8.468  24.101   6.555
 5256POPC   C3A66797   8.318  24.322   6.942
 5256POPC   C4A66798   7.995  24.235   7.231
 5256POPC   C1B66799   8.153  24.821   6.355
 5256POPC   C2B66800   7.965  24.565   6.659
 5256POPC   C3B66801   7.951  24.698   7.069
 5256POPC   C4B66802   8.313  24.684   7.346
 5257POPC   NC366803  21.539  28.106   5.386
 5257POPC   PO466804  20.955  28.391   5.521
 5257POPC   GL166805  21.281  28.240   5.833
 5257POPC   GL266806  21.450  27.886   5.824
 5257POPC   C1A66807  21.283  28.415   6.248
 5257POPC   D2A66808  21.354  28.615   6.642
 5257POPC   C3A66809  21.265  28.462   7.042
 5257POPC   C4A66810  21.589  28.348   7.382
 5257POPC   C1B66811  21.522  27.951   6.246
 5257POPC   C2B66812  21.360  28.078   6.642
 5257POPC   C3B66813  21.474  27.998   7.033
 5257POPC   C4B66814  21.178  28.062   7.360
 5258POPC   NC366815  40.161  34.519   5.452
 5258POPC   PO466816  39.562  34.733   5.519
 5258POPC   GL166817  39.887  34.644   5.870
 5258POPC   GL266818  40.219  34.858   5.828
 5258POPC   C1A66819  40.041  34.409   6.256
 5258POPC   D2A66820  40.264  34.193   6.623
 5258POPC   C3A66821  40.273  34.386   7.028
 5258POPC   C4A66822  39.862  34.422   7.241
 5258POPC   C1B66823  40.235  34.918   6.276
 5258POPC   C2B66824  40.061  34.718   6.674
 5258POPC   C3B66825  40.081  34.858   7.108
 5258POPC   C4B66826  40.319  34.908   7.465
 5259POPC   NC366827  29.653  30.188   5.411
 5259POPC   PO466828  30.276  29.856   5.438
 5259POPC   GL166829  30.051  29.963   5.773
 5259POPC   GL266830  29.800  29.811   5.741
 5259POPC   C1A66831  30.089  29.792   6.209
 5259POPC   D2A66832  30.136  30.111   6.492
 5259POPC   C3A66833  30.117  30.016   6.892
 5259POPC   C4A66834  29.860  29.953   7.251
 5259POPC   C1B66835  29.666  30.046   6.096
 5259POPC   C2B66836  29.641  29.915   6.526
 5259POPC   C3B66837  29.471  29.953   6.938
 5259POPC   C4B66838  29.381  29.792   7.360
 5260POPC   NC366839  32.576   3.251   5.352
 5260POPC   PO466840  33.029   3.814   5.434
 5260POPC   GL166841  32.908   3.790   5.840
 5260POPC   GL266842  32.822   3.447   5.779
 5260POPC   C1A66843  33.115   3.843   6.254
 5260POPC   D2A66844  33.359   3.862   6.623
 5260POPC   C3A66845  33.205   3.626   6.965
 5260POPC   C4A66846  32.823   3.698   7.176
 5260POPC   C1B66847  32.995   3.364   6.178
 5260POPC   C2B66848  32.858   3.422   6.593
 5260POPC   C3B66849  32.860   3.168   6.948
 5260POPC   C4B66850  33.025   3.271   7.345
 5261POPC   NC366851  43.150  43.328   5.051
 5261POPC   PO466852  43.071  42.794   5.445
 5261POPC   GL166853  43.068  43.034   5.837
 5261POPC   GL266854  43.332  43.247   5.798
 5261POPC   C1A66855  42.919  43.139   6.271
 5261POPC   D2A66856  43.141  43.092   6.689
 5261POPC   C3A66857  42.941  43.134   7.090
 5261POPC   C4A66858  42.901  43.090   7.522
 5261POPC   C1B66859  43.434  43.175   6.258
 5261POPC   C2B66860  43.663  43.158   6.668
 5261POPC   C3B66861  43.498  43.135   7.090
 5261POPC   C4B66862  43.303  43.358   7.415
 5262POPC   NC366863  41.543  14.183   5.090
 5262POPC   PO466864  41.293  14.652   5.513
 5262POPC   GL166865  41.572  14.432   5.769
 5262POPC   GL266866  41.429  14.157   5.970
 5262POPC   C1A66867  41.809  14.449   6.146
 5262POPC   D2A66868  41.620  14.264   6.508
 5262POPC   C3A66869  41.728  14.428   6.905
 5262POPC   C4A66870  42.057  14.353   7.196
 5262POPC   C1B66871  41.333  14.579   6.192
 5262POPC   C2B66872  41.240  14.602   6.612
 5262POPC   C3B66873  41.358  14.766   6.981
 5262POPC   C4B66874  41.279  14.611   7.396
 5263POPC   NC366875   3.240   6.509   5.534
 5263POPC   PO466876   2.646   6.496   5.410
 5263POPC   GL166877   2.827   6.505   5.814
 5263POPC   GL266878   2.699   6.251   5.865
 5263POPC   C1A66879   2.933   6.754   6.187
 5263POPC   D2A66880   2.988   6.978   6.562
 5263POPC   C3A66881   2.676   6.853   6.872
 5263POPC   C4A66882   2.791   6.750   7.279
 5263POPC   C1B66883   2.986   6.240   6.206
 5263POPC   C2B66884   2.790   6.432   6.558
 5263POPC   C3B66885   2.798   6.345   6.965
 5263POPC   C4B66886   2.908   6.187   7.330
 5264POPC   NC366887  10.248  20.608   5.175
 5264POPC   PO466888  10.765  20.792   5.549
 5264POPC   GL166889  10.522  20.624   5.866
 5264POPC   GL266890  10.773  20.335   5.934
 5264POPC   C1A66891  10.374  20.789   6.280
 5264POPC   D2A66892  10.316  20.568   6.685
 5264POPC   C3A66893  10.482  20.694   7.091
 5264POPC   C4A66894  10.210  20.966   7.291
 5264POPC   C1B66895  10.884  20.661   6.237
 5264POPC   C2B66896  10.818  20.729   6.695
 5264POPC   C3B66897  10.955  20.480   7.075
 5264POPC   C4B66898  10.937  20.554   7.518
 5265POPC   NC366899  15.034  42.109   5.676
 5265POPC   PO466900  15.162  42.754   5.619
 5265POPC   GL166901  15.351  42.440   5.912
 5265POPC   GL266902  15.009  42.428   6.050
 5265POPC   C1A66903  15.292  42.131   6.309
 5265POPC   D2A66904  14.995  41.944   6.592
 5265POPC   C3A66905  15.007  42.188   6.939
 5265POPC   C4A66906  15.343  42.184   7.208
 5265POPC   C1B66907  15.242  42.685   6.334
 5265POPC   C2B66908  15.325  42.566   6.750
 5265POPC   C3B66909  15.108  42.660   7.133
 5265POPC   C4B66910  15.078  42.542   7.570
 5266POPC   NC366911  43.570   0.229   5.411
 5266POPC   PO466912  42.821   0.497   5.429
 5266POPC   GL166913  42.897   0.388   5.894
 5266POPC   GL266914  42.835   0.008   6.052
 5266POPC   C1A66915  42.951   0.737   6.213
 5266POPC   D2A66916  43.073   0.937   6.623
 5266POPC   C3A66917  42.838   0.784   6.986
 5266POPC   C4A66918  42.959   0.480   7.278
 5266POPC   C1B66919  43.070   0.203   6.358
 5266POPC   C2B66920  43.027   0.358   6.765
 5266POPC   C3B66921  43.392   0.327   7.034
 5266POPC   C4B66922  43.635   0.085   7.284
 5267POPC   NC366923   0.774   6.302   5.482
 5267POPC   PO466924   0.463   6.947   5.425
 5267POPC   GL166925   0.258   6.753   5.828
 5267POPC   GL266926   0.395   6.395   5.874
 5267POPC   C1A66927   0.085   6.783   6.277
 5267POPC   D2A66928   0.096   6.608   6.731
 5267POPC   C3A66929   0.237   6.898   7.074
 5267POPC   C4A66930   0.629   7.141   7.070
 5267POPC   C1B66931   0.542   6.515   6.288
 5267POPC   C2B66932   0.753   6.707   6.647
 5267POPC   C3B66933   0.762   6.518   7.056
 5267POPC   C4B66934   0.370   6.322   7.153
 5268POPC   NC366935  44.477   9.482   5.398
 5268POPC   PO466936  44.607  10.104   5.151
 5268POPC   GL166937  44.656   9.906   5.634
 5268POPC   GL266938  44.766   9.576   5.813
 5268POPC   C1A66939  44.795   9.983   6.101
 5268POPC   D2A66940  44.694   9.766   6.476
 5268POPC   C3A66941  44.690   9.877   6.901
 5268POPC   C4A66942  44.389   9.784   7.208
 5268POPC   C1B66943   0.057   9.524   6.199
 5268POPC   C2B66944   0.264   9.457   6.603
 5268POPC   C3B66945   0.184   9.523   7.021
 5268POPC   C4B66946  44.812   9.496   7.246
 5269POPC   NC366947  37.252  44.479   5.527
 5269POPC   PO466948  36.554  44.615   5.592
 5269POPC   GL166949  36.858  44.610   5.896
 5269POPC   GL266950  36.688  44.426   6.168
 5269POPC   C1A66951  37.162  44.635   6.240
 5269POPC   D2A66952  37.255  44.827   6.653
 5269POPC   C3A66953  36.979  44.705   7.002
 5269POPC   C4A66954  36.991  44.857   7.436
 5269POPC   C1B66955  36.714  44.892   6.307
 5269POPC   C2B66956  36.735   0.079   6.714
 5269POPC   C3B66957  36.603   0.014   7.154
 5269POPC   C4B66958  36.538  44.649   7.501
 5270POPC   NC366959  23.146  40.260   5.572
 5270POPC   PO466960  22.682  39.766   5.365
 5270POPC   GL166961  22.753  39.985   5.787
 5270POPC   GL266962  23.012  39.807   5.923
 5270POPC   C1A66963  22.661  39.896   6.273
 5270POPC   D2A66964  22.627  39.718   6.698
 5270POPC   C3A66965  22.934  39.894   6.990
 5270POPC   C4A66966  22.838  40.061   7.388
 5270POPC   C1B66967  23.156  40.065   6.213
 5270POPC   C2B66968  23.113  40.184   6.604
 5270POPC   C3B66969  23.367  40.282   6.936
 5270POPC   C4B66970  23.204  40.403   7.321
 5271POPC   NC366971  27.076  21.599   5.581
 5271POPC   PO466972  26.961  21.002   5.304
 5271POPC   GL166973  26.669  21.149   5.675
 5271POPC   GL266974  26.611  21.527   5.779
 5271POPC   C1A66975  26.595  21.146   6.132
 5271POPC   D2A66976  26.692  21.430   6.487
 5271POPC   C3A66977  26.630  21.308   6.895
 5271POPC   C4A66978  26.972  21.331   7.185
 5271POPC   C1B66979  26.519  21.782   6.169
 5271POPC   C2B66980  26.498  21.907   6.619
 5271POPC   C3B66981  26.825  21.777   6.920
 5271POPC   C4B66982  26.991  21.808   7.328
 5272POPC   NC366983  21.924  41.755   5.483
 5272POPC   PO466984  22.485  41.456   5.460
 5272POPC   GL166985  22.350  41.500   5.880
 5272POPC   GL266986  22.257  41.816   5.840
 5272POPC   C1A66987  22.371  41.720   6.317
 5272POPC   D2A66988  22.506  41.681   6.719
 5272POPC   C3A66989  22.225  41.715   7.027
 5272POPC   C4A66990  21.926  41.435   7.218
 5272POPC   C1B66991  21.895  41.753   6.144
 5272POPC   C2B66992  21.922  41.942   6.569
 5272POPC   C3B66993  21.741  41.876   6.975
 5272POPC   C4B66994  21.928  41.917   7.381
 5273POPC   NC366995   6.561  28.819   5.349
 5273POPC   PO466996   6.753  29.486   5.408
 5273POPC   GL166997   6.810  29.336   5.829
 5273POPC   GL266998   6.805  28.975   5.835
 5273POPC   C1A66999   6.672  29.283   6.265
 5273POPC   D2A67000   6.420  29.277   6.611
 5273POPC   C3A67001   6.620  29.309   7.009
 5273POPC   C4A67002   6.363  29.042   7.278
 5273POPC   C1B67003   6.825  28.789   6.269
 5273POPC   C2B67004   6.831  28.931   6.707
 5273POPC   C3B67005   6.809  28.862   7.175
 5273POPC   C4B67006   6.639  28.787   7.625
 5274POPC   NC367007  33.331  15.093   5.408
 5274POPC   PO467008  32.786  15.515   5.522
 5274POPC   GL167009  33.102  15.391   5.833
 5274POPC   GL267010  33.195  15.020   5.910
 5274POPC   C1A67011  32.894  15.287   6.209
 5274POPC   D2A67012  32.999  15.070   6.596
 5274POPC   C3A67013  32.951  15.316   6.980
 5274POPC   C4A67014  32.950  15.086   7.368
 5274POPC   C1B67015  33.409  15.251   6.291
 5274POPC   C2B67016  33.452  15.316   6.750
 5274POPC   C3B67017  33.350  14.999   6.998
 5274POPC   C4B67018  33.243  14.641   7.145
 5275POPC   NC367019   4.436  16.224   5.531
 5275POPC   PO467020   3.981  15.823   5.433
 5275POPC   GL167021   4.053  15.819   5.852
 5275POPC   GL267022   4.412  15.894   5.951
 5275POPC   C1A67023   3.965  15.798   6.273
 5275POPC   D2A67024   4.284  15.918   6.529
 5275POPC   C3A67025   4.208  15.916   6.940
 5275POPC   C4A67026   4.427  16.028   7.276
 5275POPC   C1B67027   4.171  16.257   6.137
 5275POPC   C2B67028   4.091  16.411   6.554
 5275POPC   C3B67029   4.279  16.415   6.955
 5275POPC   C4B67030   4.228  16.477   7.418
 5276POPC   NC367031  21.154  44.868   5.363
 5276POPC   PO467032  21.655  44.546   5.561
 5276POPC   GL167033  21.276  44.576   5.763
 5276POPC   GL267034  21.156  44.275   5.620
 5276POPC   C1A67035  21.339  44.663   6.190
 5276POPC   D2A67036  21.565  44.987   6.422
 5276POPC   C3A67037  21.496  44.907   6.853
 5276POPC   C4A67038  21.258  44.690   7.141
 5276POPC   C1B67039  21.053  44.216   6.069
 5276POPC   C2B67040  21.246  44.228   6.496
 5276POPC   C3B67041  21.063  44.253   6.918
 5276POPC   C4B67042  21.205  44.228   7.362
 5277POPC   NC367043  29.683  19.415   5.289
 5277POPC   PO467044  30.190  19.747   5.412
 5277POPC   GL167045  29.914  19.767   5.788
 5277POPC   GL267046  29.642  19.507   5.809
 5277POPC   C1A67047  30.050  19.932   6.196
 5277POPC   D2A67048  30.343  19.790   6.504
 5277POPC   C3A67049  30.128  19.904   6.899
 5277POPC   C4A67050  30.137  19.868   7.336
 5277POPC   C1B67051  29.600  19.616   6.273
 5277POPC   C2B67052  29.476  19.658   6.738
 5277POPC   C3B67053  29.675  19.665   7.169
 5277POPC   C4B67054  29.662  20.017   7.523
 5278POPC   NC367055  17.197  39.052   5.383
 5278POPC   PO467056  17.801  38.977   5.359
 5278POPC   GL167057  17.699  39.043   5.805
 5278POPC   GL267058  17.405  39.253   5.802
 5278POPC   C1A67059  17.671  39.252   6.236
 5278POPC   D2A67060  17.707  39.500   6.612
 5278POPC   C3A67061  17.611  39.237   6.940
 5278POPC   C4A67062  17.794  39.027   7.292
 5278POPC   C1B67063  17.171  39.113   6.146
 5278POPC   C2B67064  17.209  39.006   6.562
 5278POPC   C3B67065  17.070  39.056   6.971
 5278POPC   C4B67066  17.280  39.173   7.312
 5279POPC   NC367067   5.083  17.937   5.322
 5279POPC   PO467068   5.519  18.405   5.549
 5279POPC   GL167069   5.295  18.131   5.819
 5279POPC   GL267070   4.953  18.236   5.730
 5279POPC   C1A67071   5.283  18.260   6.270
 5279POPC   D2A67072   5.338  18.630   6.576
 5279POPC   C3A67073   5.431  18.450   6.982
 5279POPC   C4A67074   5.243  18.326   7.369
 5279POPC   C1B67075   4.781  18.424   6.141
 5279POPC   C2B67076   4.809  18.530   6.606
 5279POPC   C3B67077   4.810  18.435   7.065
 5279POPC   C4B67078   4.565  18.702   7.354
 5280POPC   NC367079  40.628  28.529   5.410
 5280POPC   PO467080  40.435  27.864   5.385
 5280POPC   GL167081  40.588  28.160   5.745
 5280POPC   GL267082  40.942  28.131   5.895
 5280POPC   C1A67083  40.618  28.455   6.135
 5280POPC   D2A67084  40.847  28.414   6.551
 5280POPC   C3A67085  40.626  28.378   6.914
 5280POPC   C4A67086  40.442  28.646   7.190
 5280POPC   C1B67087  41.181  28.433   6.167
 5280POPC   C2B67088  41.348  28.622   6.549
 5280POPC   C3B67089  41.219  28.541   6.960
 5280POPC   C4B67090  40.937  28.530   7.287
 5281POPC   NC367091  42.930  29.353   5.459
 5281POPC   PO467092  43.357  28.859   5.636
 5281POPC   GL167093  43.037  29.022   5.842
 5281POPC   GL267094  43.263  29.309   5.888
 5281POPC   C1A67095  42.958  29.127   6.276
 5281POPC   D2A67096  43.175  29.197   6.640
 5281POPC   C3A67097  43.013  29.144   7.043
 5281POPC   C4A67098  43.390  29.008   7.228
 5281POPC   C1B67099  43.432  29.600   6.191
 5281POPC   C2B67100  43.252  29.706   6.583
 5281POPC   C3B67101  43.349  29.543   7.005
 5281POPC   C4B67102  43.562  29.475   7.399
 5282POPC   NC367103   6.846   5.382   5.509
 5282POPC   PO467104   6.811   4.755   5.195
 5282POPC   GL167105   6.738   4.895   5.672
 5282POPC   GL267106   6.357   4.944   5.753
 5282POPC   C1A67107   6.776   5.096   6.115
 5282POPC   D2A67108   6.715   5.425   6.442
 5282POPC   C3A67109   6.718   5.346   6.898
 5282POPC   C4A67110   6.954   5.447   7.287
 5282POPC   C1B67111   6.182   4.882   6.188
 5282POPC   C2B67112   6.318   5.016   6.602
 5282POPC   C3B67113   6.235   5.135   7.021
 5282POPC   C4B67114   6.509   5.169   7.336
 5283POPC   NC367115  14.031  16.009   5.454
 5283POPC   PO467116  13.349  15.893   5.396
 5283POPC   GL167117  13.475  15.930   5.867
 5283POPC   GL267118  13.835  16.054   5.924
 5283POPC   C1A67119  13.509  16.069   6.329
 5283POPC   D2A67120  13.511  15.847   6.736
 5283POPC   C3A67121  13.509  16.081   7.124
 5283POPC   C4A67122  13.316  16.049   7.534
 5283POPC   C1B67123  14.100  16.180   6.265
 5283POPC   C2B67124  13.947  16.288   6.690
 5283POPC   C3B67125  14.014  16.295   7.145
 5283POPC   C4B67126  13.814  16.152   7.538
 5284POPC   NC367127  24.038  13.949   5.503
 5284POPC   PO467128  23.991  14.603   5.448
 5284POPC   GL167129  23.735  14.370   5.761
 5284POPC   GL267130  23.439  14.107   5.749
 5284POPC   C1A67131  23.783  14.295   6.192
 5284POPC   D2A67132  23.912  14.481   6.594
 5284POPC   C3A67133  23.693  14.410   6.980
 5284POPC   C4A67134  23.893  14.266   7.354
 5284POPC   C1B67135  23.325  14.089   6.208
 5284POPC   C2B67136  23.543  13.990   6.640
 5284POPC   C3B67137  23.561  13.930   7.107
 5284POPC   C4B67138  23.369  14.224   7.394
 5285POPC   NC367139  35.578  10.920   5.439
 5285POPC   PO467140  35.150  10.432   5.511
 5285POPC   GL167141  35.447  10.532   5.828
 5285POPC   GL267142  35.303  10.807   5.880
 5285POPC   C1A67143  35.307  10.471   6.274
 5285POPC   D2A67144  35.039  10.355   6.637
 5285POPC   C3A67145  35.133  10.261   7.085
 5285POPC   C4A67146  35.482  10.430   7.369
 5285POPC   C1B67147  35.573  10.904   6.287
 5285POPC   C2B67148  35.403  10.738   6.705
 5285POPC   C3B67149  35.194  10.778   7.122
 5285POPC   C4B67150  35.338  10.869   7.568
 5286POPC   NC367151  26.448  11.125   5.408
 5286POPC   PO467152  25.780  10.942   5.297
 5286POPC   GL167153  25.903  11.195   5.672
 5286POPC   GL267154  26.207  11.184   5.852
 5286POPC   C1A67155  25.882  11.555   5.974
 5286POPC   D2A67156  26.020  11.587   6.417
 5286POPC   C3A67157  25.788  11.601   6.802
 5286POPC   C4A67158  25.978  11.385   7.158
 5286POPC   C1B67159  25.973  11.111   6.221
 5286POPC   C2B67160  25.885  11.129   6.656
 5286POPC   C3B67161  25.963  10.894   6.965
 5286POPC   C4B67162  26.164  10.906   7.321
 5287POPC   NC367163   2.935  42.829   5.359
 5287POPC   PO467164   2.391  42.438   5.403
 5287POPC   GL167165   2.628  42.322   5.739
 5287POPC   GL267166   2.388  42.116   5.862
 5287POPC   C1A67167   2.655  42.404   6.213
 5287POPC   D2A67168   2.510  42.505   6.655
 5287POPC   C3A67169   2.810  42.540   7.027
 5287POPC   C4A67170   3.113  42.326   7.325
 5287POPC   C1B67171   2.390  41.883   6.219
 5287POPC   C2B67172   2.653  41.985   6.542
 5287POPC   C3B67173   2.613  42.054   6.959
 5287POPC   C4B67174   2.636  42.207   7.368
 5288POPC   NC367175  38.534  44.274   5.493
 5288POPC   PO467176  38.679  44.958   5.320
 5288POPC   GL167177  38.548  44.924   5.809
 5288POPC   GL267178  38.426  44.598   5.869
 5288POPC   C1A67179  38.559  44.790   6.304
 5288POPC   D2A67180  38.868  44.607   6.535
 5288POPC   C3A67181  38.736  44.551   6.929
 5288POPC   C4A67182  38.540  44.782   7.254
 5288POPC   C1B67183  38.182  44.428   6.232
 5288POPC   C2B67184  38.326  44.356   6.659
 5288POPC   C3B67185  38.217  44.430   7.095
 5288POPC   C4B67186  38.262  44.487   7.569
 5289POPC   NC367187  16.380  41.222   5.495
 5289POPC   PO467188  15.824  40.925   5.488
 5289POPC   GL167189  15.968  40.570   5.770
 5289POPC   GL267190  15.612  40.502   5.814
 5289POPC   C1A67191  16.244  40.557   6.195
 5289POPC   D2A67192  16.390  40.842   6.577
 5289POPC   C3A67193  16.072  40.955   6.901
 5289POPC   C4A67194  16.043  41.123   7.295
 5289POPC   C1B67195  15.733  40.747   6.190
 5289POPC   C2B67196  15.903  40.578   6.590
 5289POPC   C3B67197  16.205  40.454   6.915
 5289POPC   C4B67198  16.047  40.603   7.282
 5290POPC   NC367199  39.115  30.858   5.429
 5290POPC   PO467200  39.283  30.277   5.395
 5290POPC   GL167201  39.069  30.457   5.778
 5290POPC   GL267202  38.887  30.779   5.868
 5290POPC   C1A67203  39.264  30.617   6.170
 5290POPC   D2A67204  39.368  30.458   6.567
 5290POPC   C3A67205  39.347  30.670   6.954
 5290POPC   C4A67206  39.644  30.584   7.230
 5290POPC   C1B67207  38.789  30.770   6.286
 5290POPC   C2B67208  38.991  30.883   6.652
 5290POPC   C3B67209  38.875  30.835   7.077
 5290POPC   C4B67210  39.122  30.933   7.431
 5291POPC   NC367211   8.314   8.714   5.296
 5291POPC   PO467212   8.126   9.329   5.452
 5291POPC   GL167213   8.276   9.041   5.824
 5291POPC   GL267214   8.432   8.674   5.804
 5291POPC   C1A67215   8.154   9.006   6.279
 5291POPC   D2A67216   8.415   9.047   6.656
 5291POPC   C3A67217   8.268   9.296   7.007
 5291POPC   C4A67218   7.990   9.192   7.380
 5291POPC   C1B67219   8.336   8.527   6.234
 5291POPC   C2B67220   8.128   8.590   6.654
 5291POPC   C3B67221   8.183   8.750   7.085
 5291POPC   C4B67222   8.503   8.619   7.374
 5292POPC   NC367223  22.162  23.182   5.520
 5292POPC   PO467224  22.085  22.524   5.403
 5292POPC   GL167225  22.242  22.705   5.811
 5292POPC   GL267226  21.989  22.950   5.934
 5292POPC   C1A67227  22.208  22.616   6.289
 5292POPC   D2A67228  22.309  22.810   6.710
 5292POPC   C3A67229  22.055  22.813   7.088
 5292POPC   C4A67230  21.855  22.901   7.499
 5292POPC   C1B67231  22.094  23.133   6.324
 5292POPC   C2B67232  21.945  23.234   6.728
 5292POPC   C3B67233  22.293  23.317   6.982
 5292POPC   C4B67234  22.317  23.146   7.371
 5293POPC   NC367235   1.549   6.148   5.141
 5293POPC   PO467236   2.192   5.817   5.167
 5293POPC   GL167237   2.142   6.015   5.620
 5293POPC   GL267238   1.908   5.768   5.738
 5293POPC   C1A67239   2.066   6.063   6.117
 5293POPC   D2A67240   1.996   5.827   6.522
 5293POPC   C3A67241   1.958   6.052   6.910
 5293POPC   C4A67242   1.839   6.244   7.256
 5293POPC   C1B67243   1.731   5.605   6.143
 5293POPC   C2B67244   1.518   5.460   6.505
 5293POPC   C3B67245   1.611   5.665   6.873
 5293POPC   C4B67246   1.737   5.620   7.259
 5294POPC   NC367247   1.128   3.953   5.335
 5294POPC   PO467248   1.437   3.496   5.511
 5294POPC   GL167249   1.175   3.588   5.810
 5294POPC   GL267250   0.915   3.374   5.728
 5294POPC   C1A67251   1.222   3.660   6.246
 5294POPC   D2A67252   1.145   3.602   6.682
 5294POPC   C3A67253   1.450   3.616   7.003
 5294POPC   C4A67254   1.297   3.760   7.379
 5294POPC   C1B67255   0.700   3.580   6.060
 5294POPC   C2B67256   0.658   3.634   6.503
 5294POPC   C3B67257   0.739   3.769   6.919
 5294POPC   C4B67258   0.806   3.564   7.312
 5295POPC   NC367259  15.598  42.853   5.452
 5295POPC   PO467260  15.082  43.316   5.262
 5295POPC   GL167261  15.275  43.240   5.688
 5295POPC   GL267262  15.039  43.154   5.919
 5295POPC   C1A67263  15.505  43.098   6.111
 5295POPC   D2A67264  15.665  42.924   6.504
 5295POPC   C3A67265  15.458  43.063   6.870
 5295POPC   C4A67266  15.409  43.038   7.301
 5295POPC   C1B67267  15.044  43.175   6.356
 5295POPC   C2B67268  14.974  42.955   6.697
 5295POPC   C3B67269  14.760  43.050   7.013
 5295POPC   C4B67270  14.898  43.097   7.357
 5296POPC   NC367271  27.361   0.704   5.530
 5296POPC   PO467272  27.893   0.347   5.384
 5296POPC   GL167273  27.683   0.315   5.799
 5296POPC   GL267274  27.864   0.583   5.922
 5296POPC   C1A67275  27.451   0.491   6.195
 5296POPC   D2A67276  27.485   0.688   6.615
 5296POPC   C3A67277  27.490   0.355   6.905
 5296POPC   C4A67278  27.474   0.214   7.314
 5296POPC   C1B67279  27.932   0.583   6.362
 5296POPC   C2B67280  27.980   0.530   6.769
 5296POPC   C3B67281  27.896   0.485   7.217
 5296POPC   C4B67282  27.883   0.259   7.612
 5297POPC   NC367283  31.152  16.910   5.151
 5297POPC   PO467284  30.534  16.673   5.380
 5297POPC   GL167285  30.669  16.645   5.806
 5297POPC   GL267286  30.942  16.429   5.891
 5297POPC   C1A67287  30.592  16.678   6.241
 5297POPC   D2A67288  30.593  16.833   6.626
 5297POPC   C3A67289  30.892  16.708   6.885
 5297POPC   C4A67290  30.634  16.819   7.197
 5297POPC   C1B67291  30.713  16.189   6.233
 5297POPC   C2B67292  30.764  16.235   6.687
 5297POPC   C3B67293  30.749  16.321   7.141
 5297POPC   C4B67294  30.766  16.470   7.577
 5298POPC   NC367295  35.636   5.706   5.408
 5298POPC   PO467296  35.315   6.230   5.492
 5298POPC   GL167297  35.264   5.927   5.848
 5298POPC   GL267298  35.008   5.671   5.789
 5298POPC   C1A67299  35.344   5.995   6.312
 5298POPC   D2A67300  35.299   6.209   6.749
 5298POPC   C3A67301  35.533   6.192   7.168
 5298POPC   C4A67302  35.445   6.086   7.620
 5298POPC   C1B67303  34.996   5.606   6.251
 5298POPC   C2B67304  35.121   5.722   6.684
 5298POPC   C3B67305  35.233   5.792   7.107
 5298POPC   C4B67306  35.596   5.667   7.338
 5299POPC   NC367307   2.700  24.750   5.439
 5299POPC   PO467308   2.856  25.410   5.549
 5299POPC   GL167309   2.677  25.418   5.919
 5299POPC   GL267310   2.537  25.092   5.828
 5299POPC   C1A67311   2.609  25.307   6.358
 5299POPC   D2A67312   2.638  25.223   6.789
 5299POPC   C3A67313   2.779  25.567   7.037
 5299POPC   C4A67314   2.662  25.412   7.403
 5299POPC   C1B67315   2.907  25.002   6.097
 5299POPC   C2B67316   2.812  24.816   6.482
 5299POPC   C3B67317   2.776  24.746   6.910
 5299POPC   C4B67318   2.835  24.895   7.298
 5300POPC   NC367319  38.867   6.122   5.562
 5300POPC   PO467320  39.387   5.775   5.501
 5300POPC   GL167321  39.220   5.780   5.877
 5300POPC   GL267322  38.884   5.647   5.937
 5300POPC   C1A67323  39.417   5.944   6.244
 5300POPC   D2A67324  39.263   6.133   6.601
 5300POPC   C3A67325  39.367   5.931   6.993
 5300POPC   C4A67326  39.348   6.017   7.424
 5300POPC   C1B67327  39.096   5.521   6.289
 5300POPC   C2B67328  39.028   5.678   6.667
 5300POPC   C3B67329  39.017   5.539   7.055
 5300POPC   C4B67330  39.232   5.537   7.438
 5301POPC   NC367331   5.458  14.333   5.539
 5301POPC   PO467332   6.070  14.188   5.469
 5301POPC   GL167333   5.869  14.274   5.870
 5301POPC   GL267334   5.821  14.615   5.818
 5301POPC   C1A67335   5.888  14.390   6.327
 5301POPC   D2A67336   5.749  14.199   6.700
 5301POPC   C3A67337   5.912  14.352   7.082
 5301POPC   C4A67338   6.311  14.534   7.153
 5301POPC   C1B67339   5.699  14.825   6.169
 5301POPC   C2B67340   5.626  14.790   6.582
 5301POPC   C3B67341   5.730  14.821   6.977
 5301POPC   C4B67342   5.467  14.628   7.222
 5302POPC   NC367343   2.534  21.389   5.520
 5302POPC   PO467344   3.188  21.148   5.459
 5302POPC   GL167345   2.948  21.214   5.813
 5302POPC   GL267346   2.948  21.566   5.860
 5302POPC   C1A67347   2.931  21.076   6.253
 5302POPC   D2A67348   3.147  21.202   6.638
 5302POPC   C3A67349   2.951  21.036   6.957
 5302POPC   C4A67350   2.660  21.224   7.235
 5302POPC   C1B67351   2.649  21.505   6.218
 5302POPC   C2B67352   2.612  21.357   6.672
 5302POPC   C3B67353   2.479  21.663   6.982
 5302POPC   C4B67354   2.323  21.833   7.364
 5303POPC   NC367355  26.911  23.274   5.424
 5303POPC   PO467356  27.011  22.716   5.312
 5303POPC   GL167357  26.853  22.881   5.756
 5303POPC   GL267358  26.552  22.726   5.923
 5303POPC   C1A67359  26.720  23.209   6.097
 5303POPC   D2A67360  26.860  23.253   6.560
 5303POPC   C3A67361  26.651  23.027   6.896
 5303POPC   C4A67362  26.276  23.053   7.172
 5303POPC   C1B67363  26.819  22.769   6.324
 5303POPC   C2B67364  26.985  22.639   6.734
 5303POPC   C3B67365  26.931  22.704   7.177
 5303POPC   C4B67366  27.165  22.820   7.556
 5304POPC   NC367367  37.837  11.888   5.442
 5304POPC   PO467368  37.361  12.376   5.458
 5304POPC   GL167369  37.520  12.151   5.777
 5304POPC   GL267370  37.824  12.329   5.733
 5304POPC   C1A67371  37.435  11.965   6.169
 5304POPC   D2A67372  37.571  11.864   6.560
 5304POPC   C3A67373  37.432  11.970   6.953
 5304POPC   C4A67374  37.720  11.878   7.323
 5304POPC   C1B67375  37.911  12.108   6.090
 5304POPC   C2B67376  37.932  12.262   6.478
 5304POPC   C3B67377  37.873  12.210   6.889
 5304POPC   C4B67378  37.943  12.442   7.217
 5305POPC   NC367379   5.821   1.373   5.474
 5305POPC   PO467380   5.779   0.706   5.635
 5305POPC   GL167381   6.039   0.959   5.907
 5305POPC   GL267382   6.109   1.345   5.902
 5305POPC   C1A67383   6.025   0.952   6.341
 5305POPC   D2A67384   5.921   1.029   6.734
 5305POPC   C3A67385   6.116   1.187   7.071
 5305POPC   C4A67386   5.844   0.997   7.335
 5305POPC   C1B67387   5.758   1.368   6.186
 5305POPC   C2B67388   5.738   1.515   6.623
 5305POPC   C3B67389   5.592   1.323   7.020
 5305POPC   C4B67390   5.543   1.402   7.459
 5306POPC   NC367391  44.107   8.554   5.518
 5306POPC   PO467392  43.887   8.049   5.257
 5306POPC   GL167393  43.756   8.100   5.700
 5306POPC   GL267394  43.620   8.442   5.770
 5306POPC   C1A67395  43.939   8.188   6.129
 5306POPC   D2A67396  44.143   8.297   6.527
 5306POPC   C3A67397  43.979   8.221   6.953
 5306POPC   C4A67398  44.057   8.015   7.332
 5306POPC   C1B67399  43.612   8.590   6.194
 5306POPC   C2B67400  43.639   8.430   6.632
 5306POPC   C3B67401  43.633   8.602   7.087
 5306POPC   C4B67402  43.537   8.643   7.559
 5307POPC   NC367403  36.348  36.590   5.407
 5307POPC   PO467404  36.173  37.186   5.547
 5307POPC   GL167405  36.174  36.845   5.829
 5307POPC   GL267406  36.522  36.796   5.844
 5307POPC   C1A67407  36.190  36.848   6.267
 5307POPC   D2A67408  36.120  37.040   6.662
 5307POPC   C3A67409  36.189  36.700   6.992
 5307POPC   C4A67410  36.056  36.713   7.432
 5307POPC   C1B67411  36.721  36.907   6.211
 5307POPC   C2B67412  36.587  36.832   6.605
 5307POPC   C3B67413  36.602  37.041   6.985
 5307POPC   C4B67414  36.546  36.842   7.345
 5308POPC   NC367415  13.653  10.321   5.341
 5308POPC   PO467416  13.871  10.928   5.157
 5308POPC   GL167417  13.626  10.753   5.616
 5308POPC   GL267418  13.532  10.426   5.808
 5308POPC   C1A67419  13.551  10.821   6.108
 5308POPC   D2A67420  13.291  10.675   6.487
 5308POPC   C3A67421  13.499  10.729   6.907
 5308POPC   C4A67422  13.454  10.652   7.364
 5308POPC   C1B67423  13.491  10.251   6.219
 5308POPC   C2B67424  13.242  10.140   6.586
 5308POPC   C3B67425  13.327   9.984   6.998
 5308POPC   C4B67426  13.632  10.234   7.141
 5309POPC   NC367427  12.136  28.874   5.728
 5309POPC   PO467428  11.830  29.344   5.497
 5309POPC   GL167429  12.023  29.384   5.880
 5309POPC   GL267430  12.381  29.404   5.845
 5309POPC   C1A67431  11.922  29.278   6.301
 5309POPC   D2A67432  12.127  29.172   6.687
 5309POPC   C3A67433  12.334  29.430   6.972
 5309POPC   C4A67434  12.046  29.333   7.282
 5309POPC   C1B67435  12.427  29.213   6.248
 5309POPC   C2B67436  12.584  28.974   6.589
 5309POPC   C3B67437  12.520  28.841   6.999
 5309POPC   C4B67438  12.538  29.109   7.335
 5310POPC   NC367439  16.247   9.893   5.207
 5310POPC   PO467440  16.894   9.829   5.280
 5310POPC   GL167441  16.824   9.822   5.788
 5310POPC   GL267442  16.563   9.621   5.909
 5310POPC   C1A67443  16.757  10.060   6.182
 5310POPC   D2A67444  16.943  10.103   6.603
 5310POPC   C3A67445  16.666   9.903   6.894
 5310POPC   C4A67446  16.320  10.086   7.149
 5310POPC   C1B67447  16.779   9.508   6.267
 5310POPC   C2B67448  16.616   9.356   6.656
 5310POPC   C3B67449  16.744   9.403   7.068
 5310POPC   C4B67450  17.151   9.300   7.248
 5311POPC   NC367451  30.335  43.667   5.377
 5311POPC   PO467452  30.257  44.274   5.472
 5311POPC   GL167453  30.469  43.965   5.822
 5311POPC   GL267454  30.757  43.716   5.784
 5311POPC   C1A67455  30.596  43.847   6.261
 5311POPC   D2A67456  30.885  44.050   6.578
 5311POPC   C3A67457  30.689  44.201   6.967
 5311POPC   C4A67458  30.377  43.976   7.196
 5311POPC   C1B67459  31.010  43.565   6.164
 5311POPC   C2B67460  30.795  43.514   6.598
 5311POPC   C3B67461  30.776  43.648   7.033
 5311POPC   C4B67462  31.111  43.554   7.309
 5312POPC   NC367463  16.775  25.853   5.075
 5312POPC   PO467464  16.568  26.417   5.437
 5312POPC   GL167465  16.673  26.124   5.774
 5312POPC   GL267466  16.909  25.889   5.597
 5312POPC   C1A67467  16.733  26.214   6.246
 5312POPC   D2A67468  16.589  26.043   6.647
 5312POPC   C3A67469  16.745  26.154   7.048
 5312POPC   C4A67470  16.595  26.177   7.440
 5312POPC   C1B67471  17.016  25.816   6.045
 5312POPC   C2B67472  16.989  25.675   6.483
 5312POPC   C3B67473  16.878  25.684   6.908
 5312POPC   C4B67474  17.101  25.745   7.280
 5313POPC   NC367475  28.426  31.865   5.454
 5313POPC   PO467476  28.804  32.451   5.636
 5313POPC   GL167477  28.665  32.346   6.003
 5313POPC   GL267478  28.452  32.114   5.901
 5313POPC   C1A67479  28.406  32.536   6.303
 5313POPC   D2A67480  28.251  32.413   6.708
 5313POPC   C3A67481  28.469  32.449   7.061
 5313POPC   C4A67482  28.529  32.042   7.183
 5313POPC   C1B67483  28.262  32.049   6.289
 5313POPC   C2B67484  28.365  31.893   6.693
 5313POPC   C3B67485  28.088  31.844   7.014
 5313POPC   C4B67486  28.105  31.907   7.454
 5314POPC   NC367487  39.187  34.637   5.261
 5314POPC   PO467488  38.958  34.197   5.762
 5314POPC   GL167489  39.145  34.500   5.968
 5314POPC   GL267490  38.937  34.750   5.828
 5314POPC   C1A67491  39.318  34.429   6.361
 5314POPC   D2A67492  38.989  34.562   6.601
 5314POPC   C3A67493  39.092  34.721   6.978
 5314POPC   C4A67494  39.114  34.416   7.264
 5314POPC   C1B67495  39.184  34.956   6.189
 5314POPC   C2B67496  39.367  34.902   6.580
 5314POPC   C3B67497  39.624  34.904   6.901
 5314POPC   C4B67498  39.503  34.817   7.283
 5315POPC   NC367499  12.985  43.030   5.438
 5315POPC   PO467500  12.325  42.906   5.468
 5315POPC   GL167501  12.637  42.932   5.840
 5315POPC   GL267502  13.022  42.942   5.932
 5315POPC   C1A67503  12.662  43.050   6.293
 5315POPC   D2A67504  12.949  43.220   6.609
 5315POPC   C3A67505  12.731  43.160   6.994
 5315POPC   C4A67506  12.572  42.767   7.193
 5315POPC   C1B67507  13.282  42.903   6.304
 5315POPC   C2B67508  13.316  42.864   6.721
 5315POPC   C3B67509  13.097  42.807   7.087
 5315POPC   C4B67510  13.366  42.891   7.365
 5316POPC   NC367511   6.748  40.742   5.359
 5316POPC   PO467512   6.107  40.600   5.535
 5316POPC   GL167513   6.510  40.506   5.824
 5316POPC   GL267514   6.733  40.805   5.852
 5316POPC   C1A67515   6.592  40.566   6.287
 5316POPC   D2A67516   6.439  40.930   6.476
 5316POPC   C3A67517   6.284  40.857   6.853
 5316POPC   C4A67518   6.515  40.828   7.197
 5316POPC   C1B67519   6.898  40.967   6.210
 5316POPC   C2B67520   6.927  40.828   6.615
 5316POPC   C3B67521   6.937  41.050   6.973
 5316POPC   C4B67522   6.932  40.999   7.390
 5317POPC   NC367523  44.307  25.633   5.518
 5317POPC   PO467524  44.678  25.037   5.572
 5317POPC   GL167525  44.647  25.404   5.842
 5317POPC   GL267526  44.922  25.597   5.873
 5317POPC   C1A67527  44.551  25.358   6.280
 5317POPC   D2A67528  44.800  25.262   6.685
 5317POPC   C3A67529  44.555  25.317   7.036
 5317POPC   C4A67530  44.515  25.163   7.484
 5317POPC   C1B67531   0.045  25.472   6.270
 5317POPC   C2B67532   0.063  25.699   6.637
 5317POPC   C3B67533   0.036  25.626   7.067
 5317POPC   C4B67534  44.741  25.616   7.393
 5318POPC   NC367535  42.141  11.700   5.188
 5318POPC   PO467536  42.617  12.187   5.477
 5318POPC   GL167537  42.393  12.282   5.866
 5318POPC   GL267538  42.663  12.527   5.928
 5318POPC   C1A67539  42.177  12.136   6.310
 5318POPC   D2A67540  42.002  11.819   6.631
 5318POPC   C3A67541  42.148  11.794   7.093
 5318POPC   C4A67542  42.552  11.677   7.190
 5318POPC   C1B67543  42.328  12.617   6.241
 5318POPC   C2B67544  42.213  12.560   6.667
 5318POPC   C3B67545  42.249  12.311   7.034
 5318POPC   C4B67546  42.161  12.276   7.463
 5319POPC   NC367547  42.285  34.963   5.100
 5319POPC   PO467548  42.017  35.506   5.394
 5319POPC   GL167549  42.088  35.537   5.833
 5319POPC   GL267550  42.461  35.464   5.796
 5319POPC   C1A67551  42.015  35.289   6.254
 5319POPC   D2A67552  42.168  35.460   6.667
 5319POPC   C3A67553  42.396  35.311   7.052
 5319POPC   C4A67554  42.675  34.960   7.165
 5319POPC   C1B67555  42.435  35.575   6.223
 5319POPC   C2B67556  42.392  35.914   6.496
 5319POPC   C3B67557  42.567  35.743   6.837
 5319POPC   C4B67558  42.655  35.718   7.235
 5320POPC   NC367559  40.357  32.761   5.265
 5320POPC   PO467560  39.753  33.084   5.436
 5320POPC   GL167561  39.868  33.039   5.868
 5320POPC   GL267562  40.242  33.030   5.814
 5320POPC   C1A67563  39.736  32.941   6.323
 5320POPC   D2A67564  40.021  33.084   6.660
 5320POPC   C3A67565  39.954  33.249   7.073
 5320POPC   C4A67566  39.557  33.198   7.286
 5320POPC   C1B67567  40.231  32.807   6.228
 5320POPC   C2B67568  40.028  32.584   6.589
 5320POPC   C3B67569  40.100  32.723   7.030
 5320POPC   C4B67570  39.939  32.845   7.417
 5321POPC   NC367571   1.998   8.506   5.348
 5321POPC   PO467572   1.747   7.850   5.403
 5321POPC   GL167573   1.675   8.091   5.810
 5321POPC   GL267574   1.956   8.325   5.817
 5321POPC   C1A67575   1.836   8.156   6.267
 5321POPC   D2A67576   2.242   8.148   6.500
 5321POPC   C3A67577   2.139   8.265   6.910
 5321POPC   C4A67578   1.833   8.276   7.221
 5321POPC   C1B67579   2.250   8.515   6.122
 5321POPC   C2B67580   2.199   8.669   6.564
 5321POPC   C3B67581   2.379   8.736   6.989
 5321POPC   C4B67582   2.134   8.694   7.378
 5322POPC   NC367583  43.612  34.459   5.439
 5322POPC   PO467584  42.998  34.209   5.476
 5322POPC   GL167585  43.206  33.945   5.824
 5322POPC   GL267586  43.446  34.213   5.884
 5322POPC   C1A67587  43.208  33.581   6.185
 5322POPC   D2A67588  43.007  33.678   6.593
 5322POPC   C3A67589  42.958  33.634   7.022
 5322POPC   C4A67590  42.869  33.427   7.455
 5322POPC   C1B67591  43.550  34.468   6.279
 5322POPC   C2B67592  43.431  34.380   6.714
 5322POPC   C3B67593  43.202  34.051   6.910
 5322POPC   C4B67594  43.109  33.862   7.416
 5323POPC   NC367595  10.677  16.970   5.406
 5323POPC   PO467596  10.299  16.529   5.293
 5323POPC   GL167597  10.641  16.577   5.740
 5323POPC   GL267598  10.614  16.921   5.907
 5323POPC   C1A67599  10.534  16.572   6.256
 5323POPC   D2A67600  10.292  16.727   6.634
 5323POPC   C3A67601  10.630  16.736   6.933
 5323POPC   C4A67602  10.679  16.556   7.318
 5323POPC   C1B67603  10.317  17.073   6.227
 5323POPC   C2B67604  10.211  17.283   6.600
 5323POPC   C3B67605  10.278  17.121   6.987
 5323POPC   C4B67606  10.440  17.040   7.409
 5324POPC   NC367607  31.370  30.336   5.459
 5324POPC   PO467608  31.776  30.741   5.387
 5324POPC   GL167609  31.570  30.673   5.781
 5324POPC   GL267610  31.228  30.725   5.837
 5324POPC   C1A67611  31.612  30.680   6.224
 5324POPC   D2A67612  31.442  30.820   6.607
 5324POPC   C3A67613  31.540  30.633   6.988
 5324POPC   C4A67614  31.637  30.855   7.362
 5324POPC   C1B67615  31.106  30.572   6.271
 5324POPC   C2B67616  31.183  30.359   6.677
 5324POPC   C3B67617  31.058  30.366   7.107
 5324POPC   C4B67618  31.313  30.471   7.453
 5325POPC   NC367619  30.779  17.810   5.377
 5325POPC   PO467620  30.440  18.481   5.454
 5325POPC   GL167621  30.624  18.469   5.829
 5325POPC   GL267622  30.733  18.142   5.850
 5325POPC   C1A67623  30.681  18.486   6.268
 5325POPC   D2A67624  30.884  18.431   6.654
 5325POPC   C3A67625  30.605  18.542   6.964
 5325POPC   C4A67626  30.602  18.215   7.226
 5325POPC   C1B67627  30.749  17.978   6.279
 5325POPC   C2B67628  30.991  17.905   6.607
 5325POPC   C3B67629  31.035  18.058   6.982
 5325POPC   C4B67630  30.989  17.838   7.360
 5326POPC   NC367631  21.891  29.015   5.447
 5326POPC   PO467632  22.546  29.100   5.629
 5326POPC   GL167633  22.267  29.308   5.949
 5326POPC   GL267634  21.929  29.446   5.798
 5326POPC   C1A67635  22.102  29.054   6.332
 5326POPC   D2A67636  22.117  28.710   6.669
 5326POPC   C3A67637  22.286  28.892   7.060
 5326POPC   C4A67638  22.359  29.347   7.188
 5326POPC   C1B67639  21.701  29.349   6.182
 5326POPC   C2B67640  21.736  29.501   6.601
 5326POPC   C3B67641  21.613  29.363   7.002
 5326POPC   C4B67642  21.883  29.180   7.234
 5327POPC   NC367643  35.058  34.669   5.047
 5327POPC   PO467644  35.354  34.321   5.555
 5327POPC   GL167645  35.327  34.314   5.938
 5327POPC   GL267646  34.958  34.263   5.955
 5327POPC   C1A67647  35.591  34.424   6.291
 5327POPC   D2A67648  35.728  34.310   6.701
 5327POPC   C3A67649  35.594  34.584   7.009
 5327POPC   C4A67650  35.511  34.730   7.410
 5327POPC   C1B67651  35.068  34.540   6.307
 5327POPC   C2B67652  35.186  34.607   6.717
 5327POPC   C3B67653  35.081  34.856   7.077
 5327POPC   C4B67654  34.746  34.781   7.391
 5328POPC   NC367655  30.298   7.624   5.585
 5328POPC   PO467656  30.947   7.303   5.499
 5328POPC   GL167657  30.734   7.298   5.908
 5328POPC   GL267658  30.385   7.196   5.872
 5328POPC   C1A67659  30.767   7.481   6.344
 5328POPC   D2A67660  30.687   7.772   6.709
 5328POPC   C3A67661  30.868   7.627   7.108
 5328POPC   C4A67662  30.931   7.372   7.488
 5328POPC   C1B67663  30.225   7.317   6.223
 5328POPC   C2B67664  30.341   7.378   6.620
 5328POPC   C3B67665  30.407   7.439   7.008
 5328POPC   C4B67666  30.165   7.320   7.295
 5329POPC   NC367667  36.124  30.520   5.549
 5329POPC   PO467668  36.014  31.139   5.592
 5329POPC   GL167669  36.118  31.026   5.974
 5329POPC   GL267670  36.051  30.686   6.012
 5329POPC   C1A67671  35.995  31.012   6.392
 5329POPC   D2A67672  36.088  30.644   6.581
 5329POPC   C3A67673  36.261  30.722   6.960
 5329POPC   C4A67674  36.142  30.865   7.330
 5329POPC   C1B67675  35.943  30.321   6.212
 5329POPC   C2B67676  35.847  30.181   6.572
 5329POPC   C3B67677  35.940  30.317   6.962
 5329POPC   C4B67678  35.767  30.524   7.275
 5330POPC   NC367679   6.876  32.286   5.310
 5330POPC   PO467680   6.383  31.920   5.370
 5330POPC   GL167681   6.512  32.231   5.800
 5330POPC   GL267682   6.846  32.287   5.904
 5330POPC   C1A67683   6.616  32.526   6.262
 5330POPC   D2A67684   6.658  32.399   6.683
 5330POPC   C3A67685   6.828  32.570   7.072
 5330POPC   C4A67686   6.773  32.349   7.494
 5330POPC   C1B67687   6.571  32.029   6.276
 5330POPC   C2B67688   6.366  31.975   6.702
 5330POPC   C3B67689   6.527  32.135   7.105
 5330POPC   C4B67690   6.339  32.097   7.528
 5331POPC   NC367691   1.146  16.490   5.357
 5331POPC   PO467692   1.045  17.188   5.381
 5331POPC   GL167693   0.964  16.862   5.720
 5331POPC   GL267694   1.247  16.687   5.806
 5331POPC   C1A67695   0.886  16.681   6.149
 5331POPC   D2A67696   1.025  16.818   6.558
 5331POPC   C3A67697   1.230  16.670   6.934
 5331POPC   C4A67698   0.966  16.830   7.252
 5331POPC   C1B67699   1.320  16.422   6.163
 5331POPC   C2B67700   1.216  16.280   6.570
 5331POPC   C3B67701   1.509  16.229   6.908
 5331POPC   C4B67702   1.667  16.413   7.273
 5332POPC   NC367703  29.793   0.950   5.490
 5332POPC   PO467704  30.195   1.519   5.516
 5332POPC   GL167705  29.931   1.441   5.923
 5332POPC   GL267706  29.581   1.325   5.883
 5332POPC   C1A67707  29.950   1.358   6.401
 5332POPC   D2A67708  30.207   1.124   6.713
 5332POPC   C3A67709  30.164   1.288   7.164
 5332POPC   C4A67710  30.130   1.112   7.585
 5332POPC   C1B67711  29.754   0.975   6.133
 5332POPC   C2B67712  29.765   0.894   6.560
 5332POPC   C3B67713  29.736   1.212   6.873
 5332POPC   C4B67714  29.653   1.345   7.265
 5333POPC   NC367715   0.618  42.513   5.030
 5333POPC   PO467716   0.239  42.082   5.427
 5333POPC   GL167717   0.517  42.144   5.736
 5333POPC   GL267718   0.304  42.348   5.893
 5333POPC   C1A67719   0.701  42.153   6.142
 5333POPC   D2A67720   0.644  42.391   6.510
 5333POPC   C3A67721   0.660  42.186   6.880
 5333POPC   C4A67722   0.504  42.344   7.233
 5333POPC   C1B67723   0.156  42.525   6.246
 5333POPC   C2B67724   0.181  42.656   6.638
 5333POPC   C3B67725  44.941  42.519   6.982
 5333POPC   C4B67726   0.003  42.330   7.367
 5334POPC   NC367727  26.372  14.464   5.503
 5334POPC   PO467728  27.058  14.403   5.376
 5334POPC   GL167729  26.851  14.385   5.781
 5334POPC   GL267730  26.620  14.126   5.815
 5334POPC   C1A67731  26.903  14.373   6.237
 5334POPC   D2A67732  26.728  14.489   6.636
 5334POPC   C3A67733  26.896  14.826   6.875
 5334POPC   C4A67734  26.687  14.793   7.251
 5334POPC   C1B67735  26.728  13.871   6.142
 5334POPC   C2B67736  26.762  13.788   6.555
 5334POPC   C3B67737  26.977  14.066   6.813
 5334POPC   C4B67738  26.865  14.325   7.140
 5335POPC   NC367739  15.088   5.924   5.340
 5335POPC   PO467740  15.576   6.341   5.568
 5335POPC   GL167741  15.237   6.119   5.800
 5335POPC   GL267742  15.174   5.741   5.822
 5335POPC   C1A67743  15.205   6.041   6.259
 5335POPC   D2A67744  14.952   5.883   6.641
 5335POPC   C3A67745  15.054   5.976   7.091
 5335POPC   C4A67746  14.890   6.100   7.505
 5335POPC   C1B67747  15.118   5.550   6.252
 5335POPC   C2B67748  15.328   5.534   6.693
 5335POPC   C3B67749  15.440   5.604   7.151
 5335POPC   C4B67750  15.386   5.422   7.611
 5336POPC   NC367751  35.452  29.437   5.398
 5336POPC   PO467752  35.497  28.757   5.398
 5336POPC   GL167753  35.319  28.773   5.832
 5336POPC   GL267754  35.206  29.138   5.941
 5336POPC   C1A67755  35.331  28.773   6.292
 5336POPC   D2A67756  35.076  29.038   6.547
 5336POPC   C3A67757  35.258  29.178   6.895
 5336POPC   C4A67758  35.498  28.948   7.222
 5336POPC   C1B67759  34.814  29.295   6.203
 5336POPC   C2B67760  34.614  29.344   6.644
 5336POPC   C3B67761  34.818  29.362   7.069
 5336POPC   C4B67762  35.183  29.350   7.360
 5337POPC   NC367763  36.857  28.232   5.417
 5337POPC   PO467764  36.641  28.816   5.760
 5337POPC   GL167765  36.799  28.451   5.875
 5337POPC   GL267766  37.133  28.444   5.838
 5337POPC   C1A67767  36.625  28.238   6.200
 5337POPC   D2A67768  36.503  28.500   6.539
 5337POPC   C3A67769  36.696  28.354   6.909
 5337POPC   C4A67770  36.506  28.278   7.288
 5337POPC   C1B67771  37.142  28.246   6.248
 5337POPC   C2B67772  37.014  28.018   6.616
 5337POPC   C3B67773  37.205  28.210   6.977
 5337POPC   C4B67774  37.008  28.433   7.331
 5338POPC   NC367775   6.151  10.966   5.476
 5338POPC   PO467776   5.698  11.469   5.356
 5338POPC   GL167777   5.903  11.332   5.727
 5338POPC   GL267778   5.666  11.314   5.935
 5338POPC   C1A67779   6.153  11.382   6.118
 5338POPC   D2A67780   6.046  11.589   6.516
 5338POPC   C3A67781   5.882  11.295   6.821
 5338POPC   C4A67782   5.917  11.183   7.264
 5338POPC   C1B67783   5.519  11.583   6.292
 5338POPC   C2B67784   5.480  11.633   6.752
 5338POPC   C3B67785   5.703  11.629   7.169
 5338POPC   C4B67786   5.577  11.457   7.586
 5339POPC   NC367787  11.109   1.557   5.392
 5339POPC   PO467788  11.602   1.014   5.464
 5339POPC   GL167789  11.256   1.033   5.821
 5339POPC   GL267790  10.951   1.244   5.835
 5339POPC   C1A67791  11.125   0.944   6.249
 5339POPC   D2A67792  11.257   1.130   6.642
 5339POPC   C3A67793  11.242   1.015   7.075
 5339POPC   C4A67794  11.661   1.137   7.281
 5339POPC   C1B67795  11.100   1.473   6.232
 5339POPC   C2B67796  11.090   1.619   6.688
 5339POPC   C3B67797  11.179   1.529   7.168
 5339POPC   C4B67798  11.036   1.585   7.635
 5340POPC   NC367799  38.185  31.075   5.646
 5340POPC   PO467800  38.681  30.696   5.410
 5340POPC   GL167801  38.526  30.441   5.745
 5340POPC   GL267802  38.350  30.656   5.957
 5340POPC   C1A67803  38.738  30.270   6.121
 5340POPC   D2A67804  38.868  30.334   6.550
 5340POPC   C3A67805  38.522  30.434   6.809
 5340POPC   C4A67806  38.525  30.365   7.215
 5340POPC   C1B67807  38.316  30.973   6.290
 5340POPC   C2B67808  38.485  30.930   6.694
 5340POPC   C3B67809  38.391  30.974   7.122
 5340POPC   C4B67810  38.598  30.979   7.530
 5341POPC   NC367811  42.705  43.376   5.637
 5341POPC   PO467812  42.146  42.973   5.460
 5341POPC   GL167813  42.301  43.093   5.862
 5341POPC   GL267814  42.581  42.898   5.803
 5341POPC   C1A67815  42.333  43.211   6.331
 5341POPC   D2A67816  42.186  43.408   6.736
 5341POPC   C3A67817  42.426  43.270   7.069
 5341POPC   C4A67818  42.393  43.201   7.507
 5341POPC   C1B67819  42.593  42.749   6.259
 5341POPC   C2B67820  42.679  42.829   6.753
 5341POPC   C3B67821  42.556  42.798   7.240
 5341POPC   C4B67822  42.617  42.772   7.762
 5342POPC   NC367823  34.887  11.631   5.312
 5342POPC   PO467824  34.332  11.530   5.598
 5342POPC   GL167825  34.557  11.318   5.877
 5342POPC   GL267826  34.858  11.284   5.781
 5342POPC   C1A67827  34.629  11.079   6.224
 5342POPC   D2A67828  34.344  11.037   6.551
 5342POPC   C3A67829  34.546  11.092   6.943
 5342POPC   C4A67830  34.404  11.347   7.258
 5342POPC   C1B67831  34.899  11.577   6.176
 5342POPC   C2B67832  34.742  11.445   6.565
 5342POPC   C3B67833  34.906  11.500   6.962
 5342POPC   C4B67834  34.838  11.660   7.340
 5343POPC   NC367835  25.750  42.711   5.497
 5343POPC   PO467836  25.046  42.500   5.458
 5343POPC   GL167837  25.050  42.319   5.880
 5343POPC   GL267838  24.996  41.982   5.961
 5343POPC   C1A67839  25.149  42.342   6.299
 5343POPC   D2A67840  25.162  42.242   6.719
 5343POPC   C3A67841  25.193  42.539   7.014
 5343POPC   C4A67842  25.322  42.487   7.466
 5343POPC   C1B67843  25.426  41.926   6.172
 5343POPC   C2B67844  25.634  42.074   6.591
 5343POPC   C3B67845  25.519  42.145   7.067
 5343POPC   C4B67846  25.064  42.104   7.221
 5344POPC   NC367847   2.622  10.850   5.507
 5344POPC   PO467848   3.229  10.835   5.774
 5344POPC   GL167849   2.991  10.497   5.910
 5344POPC   GL267850   2.662  10.381   5.803
 5344POPC   C1A67851   2.755  10.621   6.266
 5344POPC   D2A67852   2.885  10.775   6.679
 5344POPC   C3A67853   2.811  10.522   7.054
 5344POPC   C4A67854   2.874  10.372   7.489
 5344POPC   C1B67855   2.494  10.178   6.181
 5344POPC   C2B67856   2.534  10.333   6.623
 5344POPC   C3B67857   2.301  10.450   6.979
 5344POPC   C4B67858   2.428  10.574   7.406
 5345POPC   NC367859  15.487  28.693   5.493
 5345POPC   PO467860  14.985  28.236   5.573
 5345POPC   GL167861  15.123  28.581   5.851
 5345POPC   GL267862  15.453  28.465   5.942
 5345POPC   C1A67863  15.161  28.810   6.252
 5345POPC   D2A67864  15.241  28.623   6.650
 5345POPC   C3A67865  15.156  28.694   7.074
 5345POPC   C4A67866  15.526  28.426   7.187
 5345POPC   C1B67867  15.333  28.097   6.146
 5345POPC   C2B67868  15.085  28.160   6.480
 5345POPC   C3B67869  15.191  28.096   6.887
 5345POPC   C4B67870  15.047  28.214   7.254
 5346POPC   NC367871  32.430  39.602   5.537
 5346POPC   PO467872  32.263  40.297   5.432
 5346POPC   GL167873  32.440  40.057   5.805
 5346POPC   GL267874  32.103  39.903   5.787
 5346POPC   C1A67875  32.603  39.919   6.250
 5346POPC   D2A67876  32.601  40.085   6.679
 5346POPC   C3A67877  32.514  39.821   7.080
 5346POPC   C4A67878  32.555  39.886   7.534
 5346POPC   C1B67879  32.116  39.972   6.212
 5346POPC   C2B67880  32.176  39.824   6.620
 5346POPC   C3B67881  32.133  40.108   6.970
 5346POPC   C4B67882  32.068  39.957   7.387
 5347POPC   NC367883  12.477  35.535   5.093
 5347POPC   PO467884  12.178  35.179   5.547
 5347POPC   GL167885  11.893  35.261   5.863
 5347POPC   GL267886  11.780  35.601   5.887
 5347POPC   C1A67887  11.910  35.222   6.278
 5347POPC   D2A67888  12.198  35.249   6.577
 5347POPC   C3A67889  11.989  35.017   6.866
 5347POPC   C4A67890  11.642  35.189   7.065
 5347POPC   C1B67891  12.214  35.611   6.109
 5347POPC   C2B67892  12.279  35.745   6.535
 5347POPC   C3B67893  12.097  35.672   6.948
 5347POPC   C4B67894  12.260  35.648   7.361
 5348POPC   NC367895  24.009  43.401   5.602
 5348POPC   PO467896  23.491  43.002   5.441
 5348POPC   GL167897  23.723  43.044   5.837
 5348POPC   GL267898  24.107  42.948   5.827
 5348POPC   C1A67899  23.568  43.302   6.199
 5348POPC   D2A67900  23.680  43.495   6.542
 5348POPC   C3A67901  23.578  43.340   6.904
 5348POPC   C4A67902  23.844  43.397   7.279
 5348POPC   C1B67903  24.043  43.114   6.227
 5348POPC   C2B67904  23.798  42.965   6.554
 5348POPC   C3B67905  23.934  42.989   6.950
 5348POPC   C4B67906  24.051  42.884   7.316
 5349POPC   NC367907   3.676  26.934   5.446
 5349POPC   PO467908   3.169  26.431   5.586
 5349POPC   GL167909   3.353  26.781   5.811
 5349POPC   GL267910   3.341  27.177   5.768
 5349POPC   C1A67911   3.637  26.912   6.136
 5349POPC   D2A67912   3.775  26.722   6.510
 5349POPC   C3A67913   3.705  26.931   6.881
 5349POPC   C4A67914   3.609  26.799   7.289
 5349POPC   C1B67915   3.150  27.070   6.174
 5349POPC   C2B67916   3.293  26.870   6.556
 5349POPC   C3B67917   3.176  27.005   6.955
 5349POPC   C4B67918   3.174  27.141   7.370
 5350POPC   NC367919  40.488  43.643   5.733
 5350POPC   PO467920  39.910  43.873   5.438
 5350POPC   GL167921  39.774  43.766   5.844
 5350POPC   GL267922  40.062  43.876   6.013
 5350POPC   C1A67923  39.629  43.598   6.249
 5350POPC   D2A67924  39.810  43.574   6.691
 5350POPC   C3A67925  39.667  43.582   7.125
 5350POPC   C4A67926  39.659  44.014   7.312
 5350POPC   C1B67927  40.142  44.294   6.224
 5350POPC   C2B67928  40.355  44.384   6.606
 5350POPC   C3B67929  40.321  44.235   6.996
 5350POPC   C4B67930  40.114  43.842   7.065
 5351POPC   NC367931  18.386  27.698   5.397
 5351POPC   PO467932  17.790  27.612   5.647
 5351POPC   GL167933  18.187  27.758   5.876
 5351POPC   GL267934  18.484  27.542   5.879
 5351POPC   C1A67935  18.303  27.772   6.327
 5351POPC   D2A67936  17.966  27.801   6.651
 5351POPC   C3A67937  18.138  27.658   7.003
 5351POPC   C4A67938  18.492  27.832   7.111
 5351POPC   C1B67939  18.179  27.313   6.137
 5351POPC   C2B67940  18.135  27.321   6.560
 5351POPC   C3B67941  18.271  27.166   6.936
 5351POPC   C4B67942  18.415  27.351   7.308
 5352POPC   NC367943  21.726   2.292   5.486
 5352POPC   PO467944  21.248   1.816   5.229
 5352POPC   GL167945  21.325   1.992   5.688
 5352POPC   GL267946  21.466   1.731   5.917
 5352POPC   C1A67947  21.251   2.116   6.169
 5352POPC   D2A67948  21.485   2.162   6.560
 5352POPC   C3A67949  21.292   2.142   6.966
 5352POPC   C4A67950  21.488   2.308   7.303
 5352POPC   C1B67951  21.308   1.606   6.309
 5352POPC   C2B67952  21.372   1.695   6.724
 5352POPC   C3B67953  21.431   1.542   7.125
 5352POPC   C4B67954  21.427   1.797   7.532
 5353POPC   NC367955  20.698  32.385   5.404
 5353POPC   PO467956  20.121  32.731   5.476
 5353POPC   GL167957  20.464  32.547   5.817
 5353POPC   GL267958  20.599  32.156   5.828
 5353POPC   C1A67959  20.688  32.468   6.235
 5353POPC   D2A67960  20.779  32.634   6.665
 5353POPC   C3A67961  20.659  32.364   7.040
 5353POPC   C4A67962  20.676  32.406   7.527
 5353POPC   C1B67963  20.898  32.017   6.157
 5353POPC   C2B67964  20.953  32.147   6.612
 5353POPC   C3B67965  20.950  31.943   7.036
 5353POPC   C4B67966  20.643  31.921   7.393
 5354POPC   NC367967  43.220  44.270   5.378
 5354POPC   PO467968  42.886  43.622   5.286
 5354POPC   GL167969  42.936  43.831   5.744
 5354POPC   GL267970  43.289  43.929   5.816
 5354POPC   C1A67971  42.934  44.020   6.230
 5354POPC   D2A67972  43.173  44.042   6.654
 5354POPC   C3A67973  42.875  43.989   6.986
 5354POPC   C4A67974  42.771  43.610   7.198
 5354POPC   C1B67975  43.158  43.586   6.131
 5354POPC   C2B67976  42.996  43.569   6.560
 5354POPC   C3B67977  43.202  43.566   6.962
 5354POPC   C4B67978  43.220  43.838   7.334
 5355POPC   NC367979  16.015   8.841   5.377
 5355POPC   PO467980  16.139   9.514   5.446
 5355POPC   GL167981  15.849   9.331   5.781
 5355POPC   GL267982  15.814   8.954   5.834
 5355POPC   C1A67983  15.732   9.275   6.229
 5355POPC   D2A67984  15.500   9.192   6.612
 5355POPC   C3A67985  15.736   9.173   6.993
 5355POPC   C4A67986  15.847   8.981   7.403
 5355POPC   C1B67987  15.733   8.737   6.232
 5355POPC   C2B67988  15.883   8.782   6.668
 5355POPC   C3B67989  15.789   8.598   7.060
 5355POPC   C4B67990  15.624   8.516   7.465
 5356POPC   NC367991  20.409  44.944   5.440
 5356POPC   PO467992  20.871  44.567   5.061
 5356POPC   GL167993  20.771  44.601   5.567
 5356POPC   GL267994  20.629  44.320   5.752
 5356POPC   C1A67995  20.815  44.704   6.052
 5356POPC   D2A67996  20.930  44.627   6.503
 5356POPC   C3A67997  20.814  44.804   6.912
 5356POPC   C4A67998  20.711  44.632   7.286
 5356POPC   C1B67999  20.455  44.363   6.178
 5356POPC   C2B68000  20.210  44.276   6.540
 5356POPC   C3B68001  20.312  44.423   6.943
 5356POPC   C4B68002  20.187  44.261   7.302
 5357POPC   NC368003  26.512  23.940   5.402
 5357POPC   PO468004  27.080  23.697   5.491
 5357POPC   GL168005  26.775  23.672   5.844
 5357POPC   GL268006  26.555  23.930   5.905
 5357POPC   C1A68007  26.702  23.684   6.322
 5357POPC   D2A68008  26.970  23.770   6.673
 5357POPC   C3A68009  26.794  23.529   7.015
 5357POPC   C4A68010  26.953  23.205   7.276
 5357POPC   C1B68011  26.834  24.155   6.217
 5357POPC   C2B68012  26.702  24.211   6.653
 5357POPC   C3B68013  26.820  24.057   7.095
 5357POPC   C4B68014  26.581  23.917   7.466
 5358POPC   NC368015  25.720  37.405   5.427
 5358POPC   PO468016  26.383  37.651   5.524
 5358POPC   GL168017  26.025  37.799   5.694
 5358POPC   GL268018  25.875  37.531   5.904
 5358POPC   C1A68019  25.923  38.017   6.096
 5358POPC   D2A68020  26.091  38.095   6.513
 5358POPC   C3A68021  26.060  37.812   6.837
 5358POPC   C4A68022  26.054  37.894   7.276
 5358POPC   C1B68023  26.233  37.595   6.195
 5358POPC   C2B68024  26.391  37.322   6.580
 5358POPC   C3B68025  26.259  37.371   7.032
 5358POPC   C4B68026  25.917  37.380   7.288
 5359POPC   NC368027  40.190   6.692   5.232
 5359POPC   PO468028  40.043   7.371   5.261
 5359POPC   GL168029  39.995   6.983   5.619
 5359POPC   GL268030  39.755   7.103   5.903
 5359POPC   C1A68031  40.014   6.610   5.965
 5359POPC   D2A68032  40.150   6.542   6.433
 5359POPC   C3A68033  39.839   6.589   6.775
 5359POPC   C4A68034  39.929   6.697   7.225
 5359POPC   C1B68035  39.808   6.923   6.324
 5359POPC   C2B68036  39.746   7.086   6.735
 5359POPC   C3B68037  39.512   6.944   7.127
 5359POPC   C4B68038  39.585   6.857   7.590
 5360POPC   NC368039  26.877  10.416   5.549
 5360POPC   PO468040  26.243  10.756   5.589
 5360POPC   GL168041  26.608  10.644   5.911
 5360POPC   GL268042  26.930  10.869   5.859
 5360POPC   C1A68043  26.820  10.428   6.336
 5360POPC   D2A68044  27.085  10.351   6.773
 5360POPC   C3A68045  27.093  10.404   7.239
 5360POPC   C4A68046  27.177  10.337   7.731
 5360POPC   C1B68047  26.752  10.931   6.288
 5360POPC   C2B68048  26.724  10.745   6.745
 5360POPC   C3B68049  26.766  10.825   7.206
 5360POPC   C4B68050  26.538  10.913   7.630
 5361POPC   NC368051   4.657  42.719   5.527
 5361POPC   PO468052   4.230  42.166   5.402
 5361POPC   GL168053   4.242  42.280   5.825
 5361POPC   GL268054   4.448  42.539   5.950
 5361POPC   C1A68055   4.062  42.256   6.212
 5361POPC   D2A68056   4.121  42.087   6.610
 5361POPC   C3A68057   3.959  42.439   6.849
 5361POPC   C4A68058   4.156  42.489   7.204
 5361POPC   C1B68059   4.592  42.415   6.281
 5361POPC   C2B68060   4.419  42.495   6.646
 5361POPC   C3B68061   4.567  42.293   6.979
 5361POPC   C4B68062   4.804  42.421   7.331
 5362POPC   NC368063  38.209  41.236   5.558
 5362POPC   PO468064  38.907  41.407   5.553
 5362POPC   GL168065  38.705  41.675   5.866
 5362POPC   GL268066  38.368  41.860   5.808
 5362POPC   C1A68067  38.608  41.508   6.255
 5362POPC   D2A68068  38.306  41.548   6.558
 5362POPC   C3A68069  38.331  41.289   6.927
 5362POPC   C4A68070  38.583  41.401   7.286
 5362POPC   C1B68071  38.079  41.894   6.195
 5362POPC   C2B68072  38.171  42.038   6.646
 5362POPC   C3B68073  38.223  41.775   7.024
 5362POPC   C4B68074  38.074  41.454   7.354
 5363POPC   NC368075   3.668  20.142   5.293
 5363POPC   PO468076   3.397  19.605   5.177
 5363POPC   GL168077   3.563  19.893   5.694
 5363POPC   GL268078   3.398  19.731   6.001
 5363POPC   C1A68079   3.789  20.036   6.084
 5363POPC   D2A68080   3.704  20.154   6.515
 5363POPC   C3A68081   3.998  20.023   6.818
 5363POPC   C4A68082   3.892  20.030   7.246
 5363POPC   C1B68083   3.069  19.737   6.271
 5363POPC   C2B68084   3.255  19.766   6.622
 5363POPC   C3B68085   3.547  19.790   6.900
 5363POPC   C4B68086   3.339  19.942   7.214
 5364POPC   NC368087  12.056  16.957   5.125
 5364POPC   PO468088  11.863  16.391   5.275
 5364POPC   GL168089  11.985  16.572   5.746
 5364POPC   GL268090  12.114  16.885   5.869
 5364POPC   C1A68091  12.328  16.536   6.131
 5364POPC   D2A68092  12.261  16.391   6.535
 5364POPC   C3A68093  12.432  16.536   6.937
 5364POPC   C4A68094  12.131  16.662   7.251
 5364POPC   C1B68095  11.903  17.000   6.178
 5364POPC   C2B68096  12.146  16.904   6.479
 5364POPC   C3B68097  12.188  16.980   6.866
 5364POPC   C4B68098  11.957  17.152   7.193
 5365POPC   NC368099   0.596  13.029   5.091
 5365POPC   PO468100   0.306  12.619   5.610
 5365POPC   GL168101   0.363  12.805   5.995
 5365POPC   GL268102   0.135  13.052   5.858
 5365POPC   C1A68103   0.521  12.865   6.423
 5365POPC   D2A68104   0.662  12.695   6.842
 5365POPC   C3A68105   0.580  12.727   7.310
 5365POPC   C4A68106   0.587  13.097   7.615
 5365POPC   C1B68107   0.107  13.174   6.288
 5365POPC   C2B68108   0.306  13.256   6.688
 5365POPC   C3B68109   0.262  13.059   7.101
 5365POPC   C4B68110   0.087  13.019   7.540
 5366POPC   NC368111   8.719  22.314   5.448
 5366POPC   PO468112   9.260  21.886   5.366
 5366POPC   GL168113   9.182  22.084   5.742
 5366POPC   GL268114   9.409  22.311   5.810
 5366POPC   C1A68115   9.207  21.958   6.203
 5366POPC   D2A68116   9.008  22.001   6.614
 5366POPC   C3A68117   9.171  22.058   7.014
 5366POPC   C4A68118   8.861  22.111   7.301
 5366POPC   C1B68119   9.262  22.454   6.216
 5366POPC   C2B68120   9.369  22.373   6.630
 5366POPC   C3B68121   9.165  22.555   6.972
 5366POPC   C4B68122   9.148  22.512   7.415
 5367POPC   NC368123  14.218  44.440   5.584
 5367POPC   PO468124  14.590  44.950   5.515
 5367POPC   GL168125  14.558  44.699   5.894
 5367POPC   GL268126  14.662  44.413   5.860
 5367POPC   C1A68127  14.321  44.424   6.245
 5367POPC   D2A68128  14.155  44.251   6.657
 5367POPC   C3A68129  14.338  44.433   7.034
 5367POPC   C4A68130  14.278  44.800   7.322
 5367POPC   C1B68131  14.853  44.461   6.259
 5367POPC   C2B68132  14.775  44.533   6.681
 5367POPC   C3B68133  14.648  44.839   6.949
 5367POPC   C4B68134  14.766  44.804   7.319
 5368POPC   NC368135  14.975  13.249   5.437
 5368POPC   PO468136  15.439  12.747   5.391
 5368POPC   GL168137  15.273  12.818   5.846
 5368POPC   GL268138  14.967  13.060   5.918
 5368POPC   C1A68139  15.274  12.923   6.319
 5368POPC   D2A68140  15.495  12.922   6.727
 5368POPC   C3A68141  15.339  12.751   7.118
 5368POPC   C4A68142  15.319  12.812   7.602
 5368POPC   C1B68143  14.813  13.159   6.353
 5368POPC   C2B68144  14.946  12.957   6.756
 5368POPC   C3B68145  15.017  13.149   7.166
 5368POPC   C4B68146  14.831  13.175   7.628
 5369POPC   NC368147  14.925  39.862   5.500
 5369POPC   PO468148  15.456  40.254   5.396
 5369POPC   GL168149  15.215  40.147   5.832
 5369POPC   GL268150  15.025  39.807   5.986
 5369POPC   C1A68151  15.212  40.155   6.302
 5369POPC   D2A68152  15.052  40.133   6.765
 5369POPC   C3A68153  15.268  39.943   7.145
 5369POPC   C4A68154  15.196  40.084   7.591
 5369POPC   C1B68155  14.783  39.894   6.388
 5369POPC   C2B68156  14.609  39.696   6.738
 5369POPC   C3B68157  14.761  39.816   7.139
 5369POPC   C4B68158  14.974  39.599   7.498
 5370POPC   NC368159  25.132   6.500   5.116
 5370POPC   PO468160  25.363   6.907   5.603
 5370POPC   GL168161  25.425   6.856   6.016
 5370POPC   GL268162  25.196   6.613   6.118
 5370POPC   C1A68163  25.513   6.804   6.459
 5370POPC   D2A68164  25.208   6.609   6.654
 5370POPC   C3A68165  25.284   6.505   7.025
 5370POPC   C4A68166  25.553   6.381   7.309
 5370POPC   C1B68167  24.835   6.449   6.332
 5370POPC   C2B68168  24.755   6.376   6.783
 5370POPC   C3B68169  24.899   6.187   7.148
 5370POPC   C4B68170  24.994   6.489   7.442
 5371POPC   NC368171  15.504  22.699   5.522
 5371POPC   PO468172  15.013  23.197   5.386
 5371POPC   GL168173  15.234  23.072   5.788
 5371POPC   GL268174  15.049  22.743   5.793
 5371POPC   C1A68175  15.451  23.145   6.243
 5371POPC   D2A68176  15.434  23.249   6.728
 5371POPC   C3A68177  15.471  22.886   7.005
 5371POPC   C4A68178  15.364  22.745   7.404
 5371POPC   C1B68179  14.978  22.908   6.215
 5371POPC   C2B68180  15.125  22.863   6.633
 5371POPC   C3B68181  14.978  22.954   7.067
 5371POPC   C4B68182  14.696  22.748   7.336
 5372POPC   NC368183   7.462   4.556   5.660
 5372POPC   PO468184   7.274   5.188   5.475
 5372POPC   GL168185   7.301   5.190   5.869
 5372POPC   GL268186   7.609   5.023   5.845
 5372POPC   C1A68187   7.273   4.976   6.260
 5372POPC   D2A68188   6.999   4.999   6.620
 5372POPC   C3A68189   7.230   5.089   7.000
 5372POPC   C4A68190   7.295   4.780   7.302
 5372POPC   C1B68191   7.790   4.872   6.219
 5372POPC   C2B68192   7.654   4.943   6.624
 5372POPC   C3B68193   7.832   5.224   6.882
 5372POPC   C4B68194   7.820   5.373   7.268
 5373POPC   NC368195  11.883  37.229   5.479
 5373POPC   PO468196  11.293  37.558   5.473
 5373POPC   GL168197  11.432  37.727   5.858
 5373POPC   GL268198  11.769  37.703   5.730
 5373POPC   C1A68199  11.517  37.535   6.266
 5373POPC   D2A68200  11.383  37.584   6.690
 5373POPC   C3A68201  11.184  37.354   7.023
 5373POPC   C4A68202  11.133  37.718   7.303
 5373POPC   C1B68203  11.882  37.890   6.125
 5373POPC   C2B68204  11.649  37.987   6.492
 5373POPC   C3B68205  11.725  37.937   6.912
 5373POPC   C4B68206  11.620  37.615   7.150
 5374POPC   NC368207  25.908  23.187   5.352
 5374POPC   PO468208  26.035  22.593   5.488
 5374POPC   GL168209  26.003  22.862   5.839
 5374POPC   GL268210  26.161  23.198   5.799
 5374POPC   C1A68211  26.208  22.936   6.259
 5374POPC   D2A68212  26.218  22.837   6.696
 5374POPC   C3A68213  25.892  22.732   6.976
 5374POPC   C4A68214  25.794  22.896   7.388
 5374POPC   C1B68215  25.825  23.244   6.123
 5374POPC   C2B68216  25.762  23.086   6.541
 5374POPC   C3B68217  25.843  23.239   6.937
 5374POPC   C4B68218  25.884  23.397   7.327
 5375POPC   NC368219  26.101  41.070   5.480
 5375POPC   PO468220  25.924  40.441   5.656
 5375POPC   GL168221  26.126  40.787   5.900
 5375POPC   GL268222  25.977  41.096   6.002
 5375POPC   C1A68223  26.324  40.909   6.297
 5375POPC   D2A68224  26.342  40.634   6.613
 5375POPC   C3A68225  26.195  40.784   6.995
 5375POPC   C4A68226  26.201  40.856   7.428
 5375POPC   C1B68227  25.879  40.667   6.317
 5375POPC   C2B68228  25.852  40.409   6.700
 5375POPC   C3B68229  25.853  40.416   7.122
 5375POPC   C4B68230  25.705  40.828   7.274
 5376POPC   NC368231  39.258  33.188   5.420
 5376POPC   PO468232  38.864  32.657   5.274
 5376POPC   GL168233  38.963  32.791   5.703
 5376POPC   GL268234  38.938  33.155   5.829
 5376POPC   C1A68235  38.997  32.767   6.151
 5376POPC   D2A68236  39.185  32.690   6.539
 5376POPC   C3A68237  39.269  33.037   6.832
 5376POPC   C4A68238  39.046  33.117   7.221
 5376POPC   C1B68239  39.179  33.277   6.240
 5376POPC   C2B68240  39.094  33.499   6.647
 5376POPC   C3B68241  39.251  33.554   7.050
 5376POPC   C4B68242  39.259  33.630   7.488
 5377POPC   NC368243   2.773  33.012   5.438
 5377POPC   PO468244   3.328  33.302   5.647
 5377POPC   GL168245   3.005  33.158   5.893
 5377POPC   GL268246   2.886  32.776   5.882
 5377POPC   C1A68247   3.086  33.054   6.314
 5377POPC   D2A68248   3.050  32.893   6.695
 5377POPC   C3A68249   3.084  33.171   7.013
 5377POPC   C4A68250   3.336  33.116   7.319
 5377POPC   C1B68251   2.597  32.993   6.174
 5377POPC   C2B68252   2.541  32.950   6.632
 5377POPC   C3B68253   2.694  32.858   7.059
 5377POPC   C4B68254   2.640  33.163   7.389
 5378POPC   NC368255   6.994  11.076   5.478
 5378POPC   PO468256   7.450  11.592   5.509
 5378POPC   GL168257   7.520  11.374   5.905
 5378POPC   GL268258   7.388  11.028   5.838
 5378POPC   C1A68259   7.384  11.362   6.322
 5378POPC   D2A68260   7.568  11.184   6.713
 5378POPC   C3A68261   7.331  11.152   7.079
 5378POPC   C4A68262   7.102  11.508   7.189
 5378POPC   C1B68263   7.622  10.922   6.226
 5378POPC   C2B68264   7.601  10.681   6.606
 5378POPC   C3B68265   7.679  10.732   7.043
 5378POPC   C4B68266   7.836  11.097   7.175
 5379POPC   NC368267   7.003  39.449   5.657
 5379POPC   PO468268   6.448  39.337   5.337
 5379POPC   GL168269   6.433  39.217   5.783
 5379POPC   GL268270   6.741  39.084   5.880
 5379POPC   C1A68271   6.509  39.368   6.236
 5379POPC   D2A68272   6.636  39.622   6.626
 5379POPC   C3A68273   6.715  39.415   7.053
 5379POPC   C4A68274   6.785  39.396   7.536
 5379POPC   C1B68275   6.543  38.845   6.168
 5379POPC   C2B68276   6.659  39.006   6.569
 5379POPC   C3B68277   6.719  38.852   6.934
 5379POPC   C4B68278   6.852  38.960   7.292
 5380POPC   NC368279  22.224  28.085   5.293
 5380POPC   PO468280  21.768  28.539   5.350
 5380POPC   GL168281  22.015  28.341   5.702
 5380POPC   GL268282  22.388  28.440   5.707
 5380POPC   C1A68283  22.019  28.475   6.151
 5380POPC   D2A68284  21.767  28.351   6.491
 5380POPC   C3A68285  21.875  28.300   6.922
 5380POPC   C4A68286  22.068  28.496   7.303
 5380POPC   C1B68287  22.472  28.257   6.128
 5380POPC   C2B68288  22.314  28.182   6.541
 5380POPC   C3B68289  22.384  28.339   6.938
 5380POPC   C4B68290  22.472  28.189   7.357
 5381POPC   NC368291  34.075  29.462   5.472
 5381POPC   PO468292  33.532  29.865   5.617
 5381POPC   GL168293  33.867  29.791   5.828
 5381POPC   GL268294  33.937  30.144   5.812
 5381POPC   C1A68295  34.109  29.668   6.191
 5381POPC   D2A68296  33.984  29.805   6.599
 5381POPC   C3A68297  34.187  29.779   6.976
 5381POPC   C4A68298  34.006  29.737   7.399
 5381POPC   C1B68299  33.767  30.111   6.233
 5381POPC   C2B68300  33.686  30.224   6.677
 5381POPC   C3B68301  33.706  29.989   7.066
 5381POPC   C4B68302  33.635  30.101   7.485
 5382POPC   NC368303  10.939   8.174   5.586
 5382POPC   PO468304  10.305   8.110   5.352
 5382POPC   GL168305  10.267   8.314   5.765
 5382POPC   GL268306  10.500   8.034   5.826
 5382POPC   C1A68307  10.322   8.270   6.230
 5382POPC   D2A68308  10.629   8.359   6.540
 5382POPC   C3A68309  10.521   8.469   6.962
 5382POPC   C4A68310  10.283   8.367   7.330
 5382POPC   C1B68311  10.757   7.975   6.191
 5382POPC   C2B68312  10.682   7.860   6.573
 5382POPC   C3B68313  10.835   7.979   6.933
 5382POPC   C4B68314  10.812   8.204   7.285
 5383POPC   NC368315   4.757  19.579   5.436
 5383POPC   PO468316   5.367  19.904   5.347
 5383POPC   GL168317   5.107  20.023   5.654
 5383POPC   GL268318   5.106  19.712   5.806
 5383POPC   C1A68319   5.094  20.124   6.107
 5383POPC   D2A68320   5.338  20.047   6.462
 5383POPC   C3A68321   5.116  20.116   6.846
 5383POPC   C4A68322   5.180  19.948   7.237
 5383POPC   C1B68323   5.013  19.562   6.233
 5383POPC   C2B68324   5.138  19.607   6.660
 5383POPC   C3B68325   4.986  19.453   7.048
 5383POPC   C4B68326   4.924  19.557   7.477
 5384POPC   NC368327  32.981  36.501   5.606
 5384POPC   PO468328  32.922  37.156   5.431
 5384POPC   GL168329  32.891  36.950   5.839
 5384POPC   GL268330  33.211  36.798   5.977
 5384POPC   C1A68331  32.813  37.117   6.249
 5384POPC   D2A68332  33.124  37.266   6.543
 5384POPC   C3A68333  33.149  37.000   6.894
 5384POPC   C4A68334  32.979  36.901   7.294
 5384POPC   C1B68335  33.258  36.767   6.439
 5384POPC   C2B68336  33.202  36.502   6.825
 5384POPC   C3B68337  33.261  36.469   7.273
 5384POPC   C4B68338  33.132  36.607   7.698
 5385POPC   NC368339  15.442  26.200   5.493
 5385POPC   PO468340  14.798  25.900   5.599
 5385POPC   GL168341  15.126  25.990   5.889
 5385POPC   GL268342  15.160  26.315   5.900
 5385POPC   C1A68343  15.265  25.811   6.276
 5385POPC   D2A68344  15.311  25.916   6.721
 5385POPC   C3A68345  14.955  25.764   6.976
 5385POPC   C4A68346  14.826  25.775   7.411
 5385POPC   C1B68347  15.444  26.301   6.243
 5385POPC   C2B68348  15.675  26.279   6.624
 5385POPC   C3B68349  15.462  26.329   6.983
 5385POPC   C4B68350  15.310  26.060   7.291
 5386POPC   NC368351  24.947   8.058   5.423
 5386POPC   PO468352  25.598   8.396   5.432
 5386POPC   GL168353  25.332   8.198   5.781
 5386POPC   GL268354  24.968   8.121   5.935
 5386POPC   C1A68355  25.400   8.148   6.214
 5386POPC   D2A68356  25.155   8.151   6.554
 5386POPC   C3A68357  25.402   8.092   6.911
 5386POPC   C4A68358  25.420   8.283   7.288
 5386POPC   C1B68359  25.030   8.518   6.161
 5386POPC   C2B68360  25.028   8.681   6.586
 5386POPC   C3B68361  25.051   8.499   6.990
 5386POPC   C4B68362  24.884   8.569   7.409
 5387POPC   NC368363  35.799  34.115   5.481
 5387POPC   PO468364  36.148  34.559   5.137
 5387POPC   GL168365  36.104  34.534   5.631
 5387POPC   GL268366  35.760  34.594   5.736
 5387POPC   C1A68367  36.233  34.521   6.092
 5387POPC   D2A68368  36.216  34.300   6.516
 5387POPC   C3A68369  36.302  34.463   6.914
 5387POPC   C4A68370  35.996  34.255   7.168
 5387POPC   C1B68371  35.817  34.857   6.102
 5387POPC   C2B68372  35.998  34.751   6.481
 5387POPC   C3B68373  36.024  34.898   6.866
 5387POPC   C4B68374  36.005  34.755   7.239
 5388POPC   NC368375  12.626  10.800   5.440
 5388POPC   PO468376  13.192  10.338   5.399
 5388POPC   GL168377  12.991  10.439   5.749
 5388POPC   GL268378  13.123  10.775   5.772
 5388POPC   C1A68379  12.985  10.334   6.183
 5388POPC   D2A68380  12.805  10.445   6.587
 5388POPC   C3A68381  13.042  10.421   6.964
 5388POPC   C4A68382  13.075  10.338   7.393
 5388POPC   C1B68383  12.853  10.828   6.130
 5388POPC   C2B68384  12.821  10.952   6.554
 5388POPC   C3B68385  12.619  10.876   6.948
 5388POPC   C4B68386  12.679  10.713   7.356
 5389POPC   NC368387  17.684  37.350   5.499
 5389POPC   PO468388  17.550  38.054   5.543
 5389POPC   GL168389  17.494  37.764   5.876
 5389POPC   GL268390  17.177  37.559   5.815
 5389POPC   C1A68391  17.725  37.736   6.284
 5389POPC   D2A68392  17.845  37.710   6.731
 5389POPC   C3A68393  17.604  37.727   7.083
 5389POPC   C4A68394  17.561  37.598   7.491
 5389POPC   C1B68395  17.325  37.415   6.255
 5389POPC   C2B68396  17.344  37.517   6.706
 5389POPC   C3B68397  17.234  37.382   7.136
 5389POPC   C4B68398  17.313  37.147   7.518
 5390POPC   NC368399   2.953  36.451   5.227
 5390POPC   PO468400   2.567  37.063   5.332
 5390POPC   GL168401   2.656  36.938   5.756
 5390POPC   GL268402   2.324  36.855   5.833
 5390POPC   C1A68403   2.794  37.052   6.195
 5390POPC   D2A68404   2.987  37.227   6.594
 5390POPC   C3A68405   2.964  36.936   6.934
 5390POPC   C4A68406   2.973  36.709   7.315
 5390POPC   C1B68407   2.295  36.863   6.266
 5390POPC   C2B68408   2.537  36.857   6.630
 5390POPC   C3B68409   2.435  36.795   7.058
 5390POPC   C4B68410   2.500  36.704   7.483
 5391POPC   NC368411  14.654  26.378   5.497
 5391POPC   PO468412  13.960  26.344   5.531
 5391POPC   GL168413  14.324  26.085   5.801
 5391POPC   GL268414  14.653  26.222   5.969
 5391POPC   C1A68415  14.420  25.862   6.219
 5391POPC   D2A68416  14.280  25.634   6.613
 5391POPC   C3A68417  14.426  25.739   7.029
 5391POPC   C4A68418  14.128  26.007   7.255
 5391POPC   C1B68419  14.914  26.221   6.347
 5391POPC   C2B68420  14.915  26.253   6.799
 5391POPC   C3B68421  14.631  26.212   7.147
 5391POPC   C4B68422  14.518  26.177   7.563
 5392POPC   NC368423   7.107  31.905   5.714
 5392POPC   PO468424   7.320  32.342   5.238
 5392POPC   GL168425   7.369  32.357   5.745
 5392POPC   GL268426   7.561  32.134   5.867
 5392POPC   C1A68427   7.265  32.267   6.243
 5392POPC   D2A68428   7.169  32.416   6.669
 5392POPC   C3A68429   7.034  32.119   6.990
 5392POPC   C4A68430   7.220  32.202   7.343
 5392POPC   C1B68431   7.720  32.488   6.114
 5392POPC   C2B68432   7.659  32.603   6.555
 5392POPC   C3B68433   7.668  32.380   6.950
 5392POPC   C4B68434   7.686  32.376   7.397
 5393POPC   NC368435   1.018  25.123   5.061
 5393POPC   PO468436   1.529  25.171   5.512
 5393POPC   GL168437   1.149  25.298   5.773
 5393POPC   GL268438   0.940  25.610   5.840
 5393POPC   C1A68439   1.199  25.260   6.213
 5393POPC   D2A68440   1.317  24.986   6.534
 5393POPC   C3A68441   1.224  25.089   6.943
 5393POPC   C4A68442   0.950  24.910   7.242
 5393POPC   C1B68443   1.141  25.767   6.284
 5393POPC   C2B68444   1.387  25.638   6.672
 5393POPC   C3B68445   1.230  25.562   7.081
 5393POPC   C4B68446   0.897  25.744   7.232
 5394POPC   NC368447  17.132  28.459   5.433
 5394POPC   PO468448  16.526  28.112   5.441
 5394POPC   GL168449  16.768  28.303   5.808
 5394POPC   GL268450  16.916  28.666   5.857
 5394POPC   C1A68451  16.609  28.373   6.242
 5394POPC   D2A68452  16.676  28.520   6.670
 5394POPC   C3A68453  16.618  28.285   7.066
 5394POPC   C4A68454  16.814  28.115   7.456
 5394POPC   C1B68455  17.113  28.451   6.240
 5394POPC   C2B68456  17.216  28.496   6.700
 5394POPC   C3B68457  17.106  28.435   7.155
 5394POPC   C4B68458  17.063  28.529   7.636
 5395POPC   NC368459  37.516  37.790   5.452
 5395POPC   PO468460  38.062  37.489   5.420
 5395POPC   GL168461  37.897  37.565   5.835
 5395POPC   GL268462  37.784  37.880   5.869
 5395POPC   C1A68463  37.713  37.513   6.264
 5395POPC   D2A68464  37.884  37.464   6.664
 5395POPC   C3A68465  37.619  37.422   7.044
 5395POPC   C4A68466  37.814  37.379   7.491
 5395POPC   C1B68467  37.830  38.009   6.263
 5395POPC   C2B68468  37.617  37.933   6.614
 5395POPC   C3B68469  37.381  37.871   6.965
 5395POPC   C4B68470  37.589  37.837   7.357
 5396POPC   NC368471   6.340  29.701   5.357
 5396POPC   PO468472   6.521  30.342   5.390
 5396POPC   GL168473   6.509  30.042   5.748
 5396POPC   GL268474   6.835  29.855   5.820
 5396POPC   C1A68475   6.586  30.128   6.191
 5396POPC   D2A68476   6.694  29.856   6.527
 5396POPC   C3A68477   6.600  30.097   6.875
 5396POPC   C4A68478   6.364  30.107   7.220
 5396POPC   C1B68479   7.036  29.632   6.189
 5396POPC   C2B68480   7.018  29.460   6.626
 5396POPC   C3B68481   6.966  29.736   6.978
 5396POPC   C4B68482   6.933  30.123   7.254
 5397POPC   NC368483   7.296  21.695   5.613
 5397POPC   PO468484   7.759  21.292   5.600
 5397POPC   GL168485   7.495  21.331   5.952
 5397POPC   GL268486   7.145  21.207   5.948
 5397POPC   C1A68487   7.570  21.477   6.362
 5397POPC   D2A68488   7.428  21.476   6.762
 5397POPC   C3A68489   7.346  21.094   6.975
 5397POPC   C4A68490   7.247  21.397   7.288
 5397POPC   C1B68491   7.091  21.590   6.243
 5397POPC   C2B68492   6.995  21.764   6.661
 5397POPC   C3B68493   6.936  21.772   7.124
 5397POPC   C4B68494   6.802  21.511   7.501
 5398POPC   NC368495  32.512  16.858   5.410
 5398POPC   PO468496  31.888  16.484   5.382
 5398POPC   GL168497  32.197  16.556   5.695
 5398POPC   GL268498  32.218  16.919   5.814
 5398POPC   C1A68499  32.247  16.568   6.161
 5398POPC   D2A68500  32.175  16.802   6.539
 5398POPC   C3A68501  32.122  16.651   6.943
 5398POPC   C4A68502  31.993  16.697   7.369
 5398POPC   C1B68503  32.457  17.077   6.180
 5398POPC   C2B68504  32.416  17.230   6.625
 5398POPC   C3B68505  32.357  17.108   7.068
 5398POPC   C4B68506  32.320  17.073   7.525
 5399POPC   NC368507  10.650   4.028   5.232
 5399POPC   PO468508  10.195   4.561   5.411
 5399POPC   GL168509  10.542   4.471   5.759
 5399POPC   GL268510  10.590   4.144   5.825
 5399POPC   C1A68511  10.708   4.412   6.220
 5399POPC   D2A68512  10.446   4.354   6.589
 5399POPC   C3A68513  10.676   4.240   6.935
 5399POPC   C4A68514  10.882   4.383   7.268
 5399POPC   C1B68515  10.343   3.996   6.246
 5399POPC   C2B68516  10.316   3.835   6.713
 5399POPC   C3B68517  10.381   3.867   7.124
 5399POPC   C4B68518  10.435   4.201   7.393
 5400POPC   NC368519  41.987  23.867   5.267
 5400POPC   PO468520  41.416  23.463   5.431
 5400POPC   GL168521  41.433  23.712   5.862
 5400POPC   GL268522  41.194  24.001   5.910
 5400POPC   C1A68523  41.616  23.756   6.294
 5400POPC   D2A68524  41.921  23.645   6.622
 5400POPC   C3A68525  41.752  23.659   7.024
 5400POPC   C4A68526  41.615  23.341   7.305
 5400POPC   C1B68527  41.206  24.065   6.352
 5400POPC   C2B68528  41.448  23.970   6.725
 5400POPC   C3B68529  41.260  23.832   7.103
 5400POPC   C4B68530  41.491  23.784   7.489
 5401POPC   NC368531  40.567  44.413   5.392
 5401POPC   PO468532  40.897  43.813   5.562
 5401POPC   GL168533  40.833  43.993   5.934
 5401POPC   GL268534  40.496  44.141   5.870
 5401POPC   C1A68535  41.105  44.111   6.265
 5401POPC   D2A68536  41.300  43.925   6.635
 5401POPC   C3A68537  41.125  43.953   7.038
 5401POPC   C4A68538  41.062  43.883   7.493
 5401POPC   C1B68539  40.496  43.946   6.321
 5401POPC   C2B68540  40.670  43.949   6.733
 5401POPC   C3B68541  40.632  43.856   7.173
 5401POPC   C4B68542  40.608  44.143   7.544
 5402POPC   NC368543  33.180   7.666   5.121
 5402POPC   PO468544  32.942   8.253   5.362
 5402POPC   GL168545  33.006   8.282   5.818
 5402POPC   GL268546  33.340   8.435   5.845
 5402POPC   C1A68547  32.976   8.112   6.251
 5402POPC   D2A68548  32.999   7.815   6.596
 5402POPC   C3A68549  33.140   7.866   7.023
 5402POPC   C4A68550  33.040   8.079   7.452
 5402POPC   C1B68551  33.485   8.411   6.266
 5402POPC   C2B68552  33.319   8.246   6.641
 5402POPC   C3B68553  33.251   8.350   7.034
 5402POPC   C4B68554  33.424   8.415   7.393
 5403POPC   NC368555  24.191  23.116   5.173
 5403POPC   PO468556  24.716  23.105   5.523
 5403POPC   GL168557  24.502  22.953   5.819
 5403POPC   GL268558  24.232  23.174   5.755
 5403POPC   C1A68559  24.409  22.926   6.238
 5403POPC   D2A68560  24.587  23.047   6.603
 5403POPC   C3A68561  24.434  22.852   6.968
 5403POPC   C4A68562  24.685  22.734   7.315
 5403POPC   C1B68563  24.493  23.403   6.094
 5403POPC   C2B68564  24.453  23.525   6.537
 5403POPC   C3B68565  24.334  23.368   6.963
 5403POPC   C4B68566  24.371  23.151   7.372
 5404POPC   NC368567   6.159  24.218   5.235
 5404POPC   PO468568   6.298  23.506   5.379
 5404POPC   GL168569   6.095  23.653   5.760
 5404POPC   GL268570   5.715  23.545   5.866
 5404POPC   C1A68571   6.042  23.821   6.165
 5404POPC   D2A68572   5.761  23.881   6.475
 5404POPC   C3A68573   5.867  23.793   6.904
 5404POPC   C4A68574   5.721  23.965   7.312
 5404POPC   C1B68575   6.008  23.256   6.066
 5404POPC   C2B68576   6.017  23.247   6.488
 5404POPC   C3B68577   5.990  23.257   6.917
 5404POPC   C4B68578   5.864  23.450   7.297
 5405POPC   NC368579  22.544  27.674   5.362
 5405POPC   PO468580  23.194  27.420   5.404
 5405POPC   GL168581  23.068  27.627   5.774
 5405POPC   GL268582  22.726  27.587   5.865
 5405POPC   C1A68583  23.175  27.581   6.200
 5405POPC   D2A68584  22.913  27.598   6.554
 5405POPC   C3A68585  23.134  27.622   6.940
 5405POPC   C4A68586  22.922  27.692   7.325
 5405POPC   C1B68587  22.681  27.262   6.186
 5405POPC   C2B68588  22.694  27.132   6.624
 5405POPC   C3B68589  22.647  27.412   6.977
 5405POPC   C4B68590  22.633  27.247   7.373
 5406POPC   NC368591  30.022  31.085   5.393
 5406POPC   PO468592  29.597  31.479   5.547
 5406POPC   GL168593  29.779  31.334   5.899
 5406POPC   GL268594  30.130  31.247   5.876
 5406POPC   C1A68595  29.869  31.536   6.301
 5406POPC   D2A68596  29.750  31.748   6.692
 5406POPC   C3A68597  29.878  31.545   7.061
 5406POPC   C4A68598  29.843  31.273   7.419
 5406POPC   C1B68599  30.151  31.070   6.313
 5406POPC   C2B68600  30.144  31.152   6.793
 5406POPC   C3B68601  30.326  31.343   7.217
 5406POPC   C4B68602  30.339  31.399   7.703
 5407POPC   NC368603  11.072  18.535   5.250
 5407POPC   PO468604  11.532  17.974   5.370
 5407POPC   GL168605  11.371  18.112   5.745
 5407POPC   GL268606  11.276  18.471   5.729
 5407POPC   C1A68607  11.568  18.211   6.141
 5407POPC   D2A68608  11.743  18.004   6.492
 5407POPC   C3A68609  11.534  18.065   6.878
 5407POPC   C4A68610  11.370  17.946   7.258
 5407POPC   C1B68611  11.047  18.338   6.101
 5407POPC   C2B68612  11.103  18.150   6.520
 5407POPC   C3B68613  11.090  18.310   6.961
 5407POPC   C4B68614  11.469  18.472   7.219
 5408POPC   NC368615   3.431  18.751   5.426
 5408POPC   PO468616   3.499  19.393   5.645
 5408POPC   GL168617   3.466  19.000   5.893
 5408POPC   GL268618   3.161  18.746   5.876
 5408POPC   C1A68619   3.701  19.038   6.284
 5408POPC   D2A68620   3.642  19.368   6.598
 5408POPC   C3A68621   3.612  19.198   7.006
 5408POPC   C4A68622   3.659  19.060   7.440
 5408POPC   C1B68623   3.366  18.634   6.264
 5408POPC   C2B68624   3.473  18.807   6.680
 5408POPC   C3B68625   3.638  18.682   7.074
 5408POPC   C4B68626   3.338  18.675   7.414
 5409POPC   NC368627  17.998  43.893   5.344
 5409POPC   PO468628  18.577  44.229   5.349
 5409POPC   GL168629  18.377  43.950   5.729
 5409POPC   GL268630  18.099  43.683   5.784
 5409POPC   C1A68631  18.398  43.770   6.190
 5409POPC   D2A68632  18.458  43.715   6.648
 5409POPC   C3A68633  18.426  44.116   6.910
 5409POPC   C4A68634  18.181  44.183   7.298
 5409POPC   C1B68635  17.875  43.745   6.182
 5409POPC   C2B68636  17.943  43.857   6.617
 5409POPC   C3B68637  18.109  43.733   7.019
 5409POPC   C4B68638  17.916  43.735   7.391
 5410POPC   NC368639  17.577   2.025   5.252
 5410POPC   PO468640  17.202   1.601   5.599
 5410POPC   GL168641  17.421   1.941   5.800
 5410POPC   GL268642  17.761   1.910   5.743
 5410POPC   C1A68643  17.475   2.158   6.215
 5410POPC   D2A68644  17.241   2.200   6.617
 5410POPC   C3A68645  17.358   2.303   7.044
 5410POPC   C4A68646  17.394   2.088   7.461
 5410POPC   C1B68647  17.886   1.798   6.170
 5410POPC   C2B68648  17.710   1.880   6.593
 5410POPC   C3B68649  17.876   1.796   7.011
 5410POPC   C4B68650  18.076   2.132   7.192
 5411POPC   NC368651  42.592  42.520   5.332
 5411POPC   PO468652  41.977  42.318   5.175
 5411POPC   GL168653  42.097  42.269   5.637
 5411POPC   GL268654  42.401  42.413   5.811
 5411POPC   C1A68655  41.999  42.034   6.054
 5411POPC   D2A68656  42.043  41.845   6.500
 5411POPC   C3A68657  42.131  42.089   6.861
 5411POPC   C4A68658  41.885  42.003   7.228
 5411POPC   C1B68659  42.653  42.234   6.156
 5411POPC   C2B68660  42.781  42.354   6.566
 5411POPC   C3B68661  42.703  42.343   7.020
 5411POPC   C4B68662  42.308  42.333   7.282
 5412POPC   NC368663  13.223   8.983   5.426
 5412POPC   PO468664  13.897   8.954   5.572
 5412POPC   GL168665  13.712   9.204   5.903
 5412POPC   GL268666  13.352   9.341   5.858
 5412POPC   C1A68667  13.923   9.136   6.283
 5412POPC   D2A68668  13.960   8.821   6.593
 5412POPC   C3A68669  13.967   9.095   6.919
 5412POPC   C4A68670  13.682   9.225   7.237
 5412POPC   C1B68671  13.360   9.031   6.210
 5412POPC   C2B68672  13.511   9.104   6.622
 5412POPC   C3B68673  13.367   8.919   6.989
 5412POPC   C4B68674  13.183   9.097   7.375
 5413POPC   NC368675  44.971   2.173   5.397
 5413POPC   PO468676  44.369   2.272   5.705
 5413POPC   GL168677  44.735   2.107   5.889
 5413POPC   GL268678  44.930   1.818   5.771
 5413POPC   C1A68679  44.829   2.165   6.307
 5413POPC   D2A68680  44.692   2.054   6.713
 5413POPC   C3A68681  44.634   2.125   7.113
 5413POPC   C4A68682  44.895   2.002   7.401
 5413POPC   C1B68683  44.859   1.632   6.186
 5413POPC   C2B68684  44.675   1.567   6.599
 5413POPC   C3B68685  44.850   1.639   7.005
 5413POPC   C4B68686  44.791   1.453   7.398
 5414POPC   NC368687  23.873  25.743   5.529
 5414POPC   PO468688  23.473  26.318   5.652
 5414POPC   GL168689  23.603  25.985   5.925
 5414POPC   GL268690  23.939  26.094   5.934
 5414POPC   C1A68691  23.689  25.943   6.392
 5414POPC   D2A68692  23.439  26.203   6.696
 5414POPC   C3A68693  23.538  26.198   7.118
 5414POPC   C4A68694  23.812  26.493   7.247
 5414POPC   C1B68695  24.101  25.719   6.173
 5414POPC   C2B68696  24.057  25.568   6.610
 5414POPC   C3B68697  23.887  25.804   6.967
 5414POPC   C4B68698  23.715  25.744   7.382
 5415POPC   NC368699  41.290  44.187   5.486
 5415POPC   PO468700  41.937  43.907   5.417
 5415POPC   GL168701  41.599  43.902   5.777
 5415POPC   GL268702  41.367  43.667   5.714
 5415POPC   C1A68703  41.634  44.007   6.254
 5415POPC   D2A68704  41.784  44.198   6.654
 5415POPC   C3A68705  41.608  44.154   7.055
 5415POPC   C4A68706  41.930  44.061   7.358
 5415POPC   C1B68707  41.365  43.588   6.164
 5415POPC   C2B68708  41.345  43.407   6.584
 5415POPC   C3B68709  41.599  43.583   6.905
 5415POPC   C4B68710  41.519  43.710   7.303
 5416POPC   NC368711   4.818   1.286   5.394
 5416POPC   PO468712   5.413   1.587   5.399
 5416POPC   GL168713   5.307   1.370   5.823
 5416POPC   GL268714   4.967   1.212   5.861
 5416POPC   C1A68715   5.258   1.212   6.273
 5416POPC   D2A68716   5.410   1.014   6.642
 5416POPC   C3A68717   5.118   1.096   6.965
 5416POPC   C4A68718   4.776   1.050   7.279
 5416POPC   C1B68719   4.758   1.430   6.173
 5416POPC   C2B68720   4.778   1.277   6.586
 5416POPC   C3B68721   4.773   1.474   6.970
 5416POPC   C4B68722   5.085   1.524   7.280
 5417POPC   NC368723  42.700  26.177   5.625
 5417POPC   PO468724  42.122  26.047   5.317
 5417POPC   GL168725  42.245  25.993   5.846
 5417POPC   GL268726  42.562  26.015   6.070
 5417POPC   C1A68727  42.175  25.916   6.358
 5417POPC   D2A68728  42.354  26.091   6.719
 5417POPC   C3A68729  42.290  26.004   7.144
 5417POPC   C4A68730  42.506  26.019   7.532
 5417POPC   C1B68731  42.746  26.371   6.297
 5417POPC   C2B68732  42.821  26.314   6.731
 5417POPC   C3B68733  42.759  26.208   7.131
 5417POPC   C4B68734  42.995  26.279   7.513
 5418POPC   NC368735  14.780  21.866   5.545
 5418POPC   PO468736  14.302  21.329   5.362
 5418POPC   GL168737  14.373  21.302   5.828
 5418POPC   GL268738  14.167  21.007   5.912
 5418POPC   C1A68739  14.293  21.485   6.248
 5418POPC   D2A68740  14.522  21.426   6.646
 5418POPC   C3A68741  14.463  21.619   7.081
 5418POPC   C4A68742  14.641  21.410   7.462
 5418POPC   C1B68743  13.931  21.141   6.291
 5418POPC   C2B68744  13.983  21.356   6.668
 5418POPC   C3B68745  14.165  21.220   7.015
 5418POPC   C4B68746  14.359  20.981   7.335
 5419POPC   NC368747  13.698  17.320   5.403
 5419POPC   PO468748  13.587  18.013   5.459
 5419POPC   GL168749  13.742  17.667   5.802
 5419POPC   GL268750  13.947  17.301   5.857
 5419POPC   C1A68751  13.708  17.538   6.232
 5419POPC   D2A68752  13.505  17.342   6.563
 5419POPC   C3A68753  13.745  17.476   6.889
 5419POPC   C4A68754  13.791  17.565   7.300
 5419POPC   C1B68755  13.804  17.040   6.260
 5419POPC   C2B68756  13.843  16.981   6.754
 5419POPC   C3B68757  13.702  17.066   7.197
 5419POPC   C4B68758  13.958  17.171   7.566
 5420POPC   NC368759  31.162  28.799   5.338
 5420POPC   PO468760  31.864  28.574   5.350
 5420POPC   GL168761  31.638  28.330   5.744
 5420POPC   GL268762  31.264  28.373   5.735
 5420POPC   C1A68763  31.576  28.088   6.169
 5420POPC   D2A68764  31.748  28.111   6.600
 5420POPC   C3A68765  31.591  28.299   7.002
 5420POPC   C4A68766  31.600  28.112   7.432
 5420POPC   C1B68767  31.337  28.529   6.170
 5420POPC   C2B68768  31.185  28.219   6.504
 5420POPC   C3B68769  31.117  28.065   6.927
 5420POPC   C4B68770  31.145  28.325   7.277
 5421POPC   NC368771  24.209  38.442   5.304
 5421POPC   PO468772  24.729  38.377   5.635
 5421POPC   GL168773  24.397  38.419   5.914
 5421POPC   GL268774  24.088  38.236   5.814
 5421POPC   C1A68775  24.484  38.644   6.337
 5421POPC   D2A68776  24.798  38.536   6.642
 5421POPC   C3A68777  24.626  38.397   7.034
 5421POPC   C4A68778  24.602  38.420   7.496
 5421POPC   C1B68779  24.048  38.375   6.264
 5421POPC   C2B68780  24.249  38.324   6.656
 5421POPC   C3B68781  24.124  38.359   7.055
 5421POPC   C4B68782  24.189  38.646   7.341
 5422POPC   NC368783  22.869  23.419   5.547
 5422POPC   PO468784  23.194  23.933   5.305
 5422POPC   GL168785  23.103  23.962   5.808
 5422POPC   GL268786  22.850  23.698   5.956
 5422POPC   C1A68787  23.060  23.977   6.299
 5422POPC   D2A68788  22.730  23.747   6.559
 5422POPC   C3A68789  22.875  23.781   6.959
 5422POPC   C4A68790  23.051  23.984   7.299
 5422POPC   C1B68791  23.056  23.451   6.305
 5422POPC   C2B68792  23.124  23.364   6.740
 5422POPC   C3B68793  23.078  23.285   7.153
 5422POPC   C4B68794  22.695  23.455   7.281
 5423POPC   NC368795   0.041  17.759   5.428
 5423POPC   PO468796  44.490  17.242   5.449
 5423POPC   GL168797  44.588  17.442   5.854
 5423POPC   GL268798  44.930  17.436   5.818
 5423POPC   C1A68799  44.724  17.477   6.302
 5423POPC   D2A68800  44.402  17.524   6.606
 5423POPC   C3A68801  44.375  17.298   6.919
 5423POPC   C4A68802  44.516  17.361   7.289
 5423POPC   C1B68803  44.995  17.856   6.066
 5423POPC   C2B68804   0.062  17.864   6.512
 5423POPC   C3B68805  44.870  17.563   6.830
 5423POPC   C4B68806  44.995  17.493   7.261
 5424POPC   NC368807  30.639  19.676   5.427
 5424POPC   PO468808  31.044  20.249   5.554
 5424POPC   GL168809  30.839  19.925   5.853
 5424POPC   GL268810  30.445  19.824   5.865
 5424POPC   C1A68811  30.912  19.827   6.300
 5424POPC   D2A68812  31.163  19.789   6.690
 5424POPC   C3A68813  31.008  20.090   7.006
 5424POPC   C4A68814  30.724  19.964   7.314
 5424POPC   C1B68815  30.575  19.480   6.114
 5424POPC   C2B68816  30.709  19.428   6.555
 5424POPC   C3B68817  30.609  19.594   6.982
 5424POPC   C4B68818  30.407  19.436   7.394
 5425POPC   NC368819  32.863  43.703   5.491
 5425POPC   PO468820  33.357  44.153   5.296
 5425POPC   GL168821  33.123  44.083   5.731
 5425POPC   GL268822  33.177  43.775   5.885
 5425POPC   C1A68823  32.945  44.078   6.205
 5425POPC   D2A68824  33.148  44.075   6.607
 5425POPC   C3A68825  32.920  43.977   6.986
 5425POPC   C4A68826  32.885  44.037   7.433
 5425POPC   C1B68827  33.214  43.636   6.299
 5425POPC   C2B68828  33.026  43.558   6.707
 5425POPC   C3B68829  33.030  43.521   7.168
 5425POPC   C4B68830  32.988  43.438   7.604
 5426POPC   NC368831  11.033  25.228   5.154
 5426POPC   PO468832  11.076  25.630   5.675
 5426POPC   GL168833  11.165  25.442   6.035
 5426POPC   GL268834  11.285  25.125   5.947
 5426POPC   C1A68835  11.070  25.445   6.448
 5426POPC   D2A68836  10.888  25.226   6.765
 5426POPC   C3A68837  11.041  25.452   7.091
 5426POPC   C4A68838  11.216  25.463   7.484
 5426POPC   C1B68839  11.518  25.224   6.364
 5426POPC   C2B68840  11.444  25.276   6.815
 5426POPC   C3B68841  11.444  25.069   7.228
 5426POPC   C4B68842  11.845  24.887   7.484
 5427POPC   NC368843  17.741  28.033   5.477
 5427POPC   PO468844  17.604  28.641   5.380
 5427POPC   GL168845  17.470  28.516   5.813
 5427POPC   GL268846  17.300  28.189   5.826
 5427POPC   C1A68847  17.623  28.436   6.233
 5427POPC   D2A68848  17.765  28.286   6.623
 5427POPC   C3A68849  17.693  28.530   7.001
 5427POPC   C4A68850  17.494  28.682   7.376
 5427POPC   C1B68851  17.404  27.955   6.171
 5427POPC   C2B68852  17.257  28.000   6.570
 5427POPC   C3B68853  17.435  28.075   6.949
 5427POPC   C4B68854  17.527  28.138   7.360
 5428POPC   NC368855  37.047  43.605   5.306
 5428POPC   PO468856  36.836  42.989   5.265
 5428POPC   GL168857  36.868  43.237   5.664
 5428POPC   GL268858  37.208  43.344   5.715
 5428POPC   C1A68859  36.687  43.203   6.098
 5428POPC   D2A68860  36.882  43.308   6.507
 5428POPC   C3A68861  36.985  43.008   6.842
 5428POPC   C4A68862  36.721  43.085   7.195
 5428POPC   C1B68863  37.211  43.181   6.127
 5428POPC   C2B68864  37.389  43.162   6.530
 5428POPC   C3B68865  37.372  43.354   6.926
 5428POPC   C4B68866  37.209  43.169   7.287
 5429POPC   NC368867  34.234  31.950   5.537
 5429POPC   PO468868  33.856  32.469   5.253
 5429POPC   GL168869  33.824  32.398   5.720
 5429POPC   GL268870  34.223  32.418   5.787
 5429POPC   C1A68871  33.575  32.527   6.144
 5429POPC   D2A68872  33.591  32.706   6.611
 5429POPC   C3A68873  33.693  32.453   6.984
 5429POPC   C4A68874  33.706  32.063   7.178
 5429POPC   C1B68875  34.041  32.333   6.206
 5429POPC   C2B68876  33.912  32.135   6.617
 5429POPC   C3B68877  34.160  32.200   7.001
 5429POPC   C4B68878  34.072  32.345   7.406
 5430POPC   NC368879  26.733  41.753   5.628
 5430POPC   PO468880  27.202  41.257   5.364
 5430POPC   GL168881  27.003  41.364   5.838
 5430POPC   GL268882  26.643  41.477   6.041
 5430POPC   C1A68883  27.055  41.605   6.257
 5430POPC   D2A68884  26.697  41.673   6.539
 5430POPC   C3A68885  26.751  41.499   6.940
 5430POPC   C4A68886  26.885  41.781   7.181
 5430POPC   C1B68887  26.297  41.426   6.328
 5430POPC   C2B68888  26.259  41.405   6.765
 5430POPC   C3B68889  26.344  41.265   7.161
 5430POPC   C4B68890  26.302  41.318   7.629
 5431POPC   NC368891   6.366   7.034   5.381
 5431POPC   PO468892   6.647   6.443   5.463
 5431POPC   GL168893   6.797   6.611   5.839
 5431POPC   GL268894   6.712   6.983   5.790
 5431POPC   C1A68895   6.788   6.442   6.261
 5431POPC   D2A68896   6.953   6.262   6.619
 5431POPC   C3A68897   6.775   6.414   7.003
 5431POPC   C4A68898   6.922   6.417   7.428
 5431POPC   C1B68899   6.760   6.954   6.249
 5431POPC   C2B68900   6.603   6.825   6.657
 5431POPC   C3B68901   6.740   6.927   7.057
 5431POPC   C4B68902   6.791   6.956   7.482
 5432POPC   NC368903  27.594  19.651   5.583
 5432POPC   PO468904  27.198  20.084   5.223
 5432POPC   GL168905  27.304  20.059   5.713
 5432POPC   GL268906  27.675  20.052   5.859
 5432POPC   C1A68907  27.323  19.862   6.169
 5432POPC   D2A68908  27.555  19.794   6.568
 5432POPC   C3A68909  27.420  19.872   6.990
 5432POPC   C4A68910  27.329  19.591   7.316
 5432POPC   C1B68911  27.915  19.818   6.176
 5432POPC   C2B68912  28.053  19.718   6.588
 5432POPC   C3B68913  27.978  19.931   6.974
 5432POPC   C4B68914  27.813  19.856   7.360
 5433POPC   NC368915  38.961  32.365   4.927
 5433POPC   PO468916  39.522  32.151   5.297
 5433POPC   GL168917  39.304  32.325   5.665
 5433POPC   GL268918  39.147  32.043   5.833
 5433POPC   C1A68919  39.429  32.440   6.099
 5433POPC   D2A68920  39.464  32.250   6.516
 5433POPC   C3A68921  39.568  32.568   6.850
 5433POPC   C4A68922  39.328  32.703   7.222
 5433POPC   C1B68923  38.960  32.244   6.184
 5433POPC   C2B68924  38.851  32.291   6.585
 5433POPC   C3B68925  39.111  32.301   6.907
 5433POPC   C4B68926  39.156  32.187   7.284
 5434POPC   NC368927  13.538  28.363   5.563
 5434POPC   PO468928  14.035  27.983   5.756
 5434POPC   GL168929  13.846  28.353   5.979
 5434POPC   GL268930  13.786  28.728   5.858
 5434POPC   C1A68931  13.769  28.321   6.404
 5434POPC   D2A68932  13.723  27.927   6.611
 5434POPC   C3A68933  13.666  28.057   7.018
 5434POPC   C4A68934  13.855  28.394   7.218
 5434POPC   C1B68935  13.421  28.611   6.139
 5434POPC   C2B68936  13.287  28.504   6.533
 5434POPC   C3B68937  13.475  28.542   6.912
 5434POPC   C4B68938  13.352  28.507   7.328
 5435POPC   NC368939   2.270  32.439   5.415
 5435POPC   PO468940   1.746  32.071   5.341
 5435POPC   GL168941   1.967  31.991   5.736
 5435POPC   GL268942   2.192  32.214   5.919
 5435POPC   C1A68943   1.898  31.840   6.192
 5435POPC   D2A68944   1.949  31.895   6.660
 5435POPC   C3A68945   1.669  32.002   7.005
 5435POPC   C4A68946   1.717  32.389   7.252
 5435POPC   C1B68947   2.357  32.020   6.342
 5435POPC   C2B68948   2.420  32.063   6.774
 5435POPC   C3B68949   2.155  32.084   7.127
 5435POPC   C4B68950   2.173  32.278   7.496
 5436POPC   NC368951  28.306  27.625   5.076
 5436POPC   PO468952  28.114  27.668   5.745
 5436POPC   GL168953  28.445  27.685   6.011
 5436POPC   GL268954  28.657  27.419   6.061
 5436POPC   C1A68955  28.321  27.676   6.412
 5436POPC   D2A68956  27.987  27.709   6.715
 5436POPC   C3A68957  28.262  27.713   7.075
 5436POPC   C4A68958  28.254  27.861   7.491
 5436POPC   C1B68959  28.374  27.166   6.269
 5436POPC   C2B68960  28.221  27.262   6.686
 5436POPC   C3B68961  28.062  27.252   7.088
 5436POPC   C4B68962  28.245  27.368   7.491
 5437POPC   NC368963  13.846  37.339   5.492
 5437POPC   PO468964  13.786  36.640   5.430
 5437POPC   GL168965  13.833  36.922   5.799
 5437POPC   GL268966  13.510  37.004   5.992
 5437POPC   C1A68967  13.977  37.061   6.222
 5437POPC   D2A68968  13.722  36.999   6.589
 5437POPC   C3A68969  13.776  37.062   7.017
 5437POPC   C4A68970  13.648  36.933   7.444
 5437POPC   C1B68971  13.688  36.634   6.220
 5437POPC   C2B68972  13.751  36.423   6.626
 5437POPC   C3B68973  13.668  36.524   7.058
 5437POPC   C4B68974  13.438  36.476   7.426
 5438POPC   NC368975   1.610   1.483   5.611
 5438POPC   PO468976   1.090   1.179   5.297
 5438POPC   GL168977   1.068   1.328   5.705
 5438POPC   GL268978   1.326   1.132   5.870
 5438POPC   C1A68979   0.898   1.242   6.138
 5438POPC   D2A68980   1.110   1.087   6.523
 5438POPC   C3A68981   1.063   1.318   6.910
 5438POPC   C4A68982   1.123   1.187   7.323
 5438POPC   C1B68983   1.420   1.397   6.234
 5438POPC   C2B68984   1.632   1.329   6.615
 5438POPC   C3B68985   1.563   1.259   7.039
 5438POPC   C4B68986   1.475   1.552   7.383
 5439POPC   NC368987  24.502  22.037   5.356
 5439POPC   PO468988  24.380  22.701   5.293
 5439POPC   GL168989  24.668  22.483   5.650
 5439POPC   GL268990  24.648  22.129   5.820
 5439POPC   C1A68991  24.758  22.540   6.123
 5439POPC   D2A68992  24.524  22.534   6.534
 5439POPC   C3A68993  24.627  22.384   6.938
 5439POPC   C4A68994  24.326  22.378   7.265
 5439POPC   C1B68995  24.402  22.154   6.178
 5439POPC   C2B68996  24.539  22.021   6.579
 5439POPC   C3B68997  24.413  21.927   7.005
 5439POPC   C4B68998  24.753  21.971   7.294
 5440POPC   NC368999  18.031  40.883   5.630
 5440POPC   PO469000  17.353  41.097   5.463
 5440POPC   GL169001  17.444  40.833   5.845
 5440POPC   GL269002  17.639  40.525   5.762
 5440POPC   C1A69003  17.615  40.993   6.256
 5440POPC   D2A69004  17.749  41.046   6.668
 5440POPC   C3A69005  17.411  40.907   6.915
 5440POPC   C4A69006  17.292  40.964   7.330
 5440POPC   C1B69007  17.792  40.522   6.186
 5440POPC   C2B69008  17.705  40.525   6.645
 5440POPC   C3B69009  17.804  40.643   7.097
 5440POPC   C4B69010  17.570  40.488   7.452
 5441POPC   NC369011  23.845   1.594   5.379
 5441POPC   PO469012  23.681   2.267   5.351
 5441POPC   GL169013  23.635   2.128   5.759
 5441POPC   GL269014  23.580   1.766   5.787
 5441POPC   C1A69015  23.868   1.999   6.128
 5441POPC   D2A69016  23.963   2.206   6.482
 5441POPC   C3A69017  23.877   2.067   6.851
 5441POPC   C4A69018  23.859   2.069   7.283
 5441POPC   C1B69019  23.531   1.617   6.189
 5441POPC   C2B69020  23.718   1.699   6.546
 5441POPC   C3B69021  23.515   1.710   6.907
 5441POPC   C4B69022  23.578   1.582   7.271
 5442POPC   NC369023   5.827  27.737   5.535
 5442POPC   PO469024   6.059  27.070   5.562
 5442POPC   GL169025   5.834  27.314   5.876
 5442POPC   GL269026   5.921  27.649   6.022
 5442POPC   C1A69027   5.816  27.207   6.288
 5442POPC   D2A69028   5.897  27.535   6.557
 5442POPC   C3A69029   5.768  27.490   6.972
 5442POPC   C4A69030   5.994  27.582   7.369
 5442POPC   C1B69031   5.750  27.977   6.291
 5442POPC   C2B69032   5.658  28.130   6.713
 5442POPC   C3B69033   5.749  27.985   7.159
 5442POPC   C4B69034   5.717  27.897   7.647
 5443POPC   NC369035  30.354  15.502   5.542
 5443POPC   PO469036  29.912  14.952   5.487
 5443POPC   GL169037  29.857  15.178   5.839
 5443POPC   GL269038  30.217  15.115   5.911
 5443POPC   C1A69039  29.719  15.096   6.246
 5443POPC   D2A69040  29.978  15.085   6.607
 5443POPC   C3A69041  29.726  15.049   6.925
 5443POPC   C4A69042  29.654  14.892   7.322
 5443POPC   C1B69043  30.143  15.411   6.215
 5443POPC   C2B69044  30.142  15.587   6.591
 5443POPC   C3B69045  30.191  15.452   6.961
 5443POPC   C4B69046  29.972  15.299   7.283
 5444POPC   NC369047  19.413   3.917   5.547
 5444POPC   PO469048  18.815   3.702   5.293
 5444POPC   GL169049  18.867   3.714   5.786
 5444POPC   GL269050  19.195   3.565   5.875
 5444POPC   C1A69051  18.884   3.617   6.264
 5444POPC   D2A69052  19.220   3.432   6.529
 5444POPC   C3A69053  19.006   3.547   6.890
 5444POPC   C4A69054  19.059   3.489   7.322
 5444POPC   C1B69055  19.341   3.841   6.234
 5444POPC   C2B69056  19.399   3.886   6.687
 5444POPC   C3B69057  19.267   3.908   7.122
 5444POPC   C4B69058  19.372   3.862   7.583
 5445POPC   NC369059  26.687  28.109   5.302
 5445POPC   PO469060  27.239  28.146   5.673
 5445POPC   GL169061  26.926  28.345   5.885
 5445POPC   GL269062  26.823  28.041   5.984
 5445POPC   C1A69063  26.714  28.457   6.307
 5445POPC   D2A69064  26.626  28.744   6.676
 5445POPC   C3A69065  26.791  28.634   7.077
 5445POPC   C4A69066  26.566  28.284   7.227
 5445POPC   C1B69067  27.120  28.131   6.312
 5445POPC   C2B69068  26.976  28.173   6.696
 5445POPC   C3B69069  27.151  28.285   7.060
 5445POPC   C4B69070  27.029  28.220   7.461
 5446POPC   NC369071  34.870  15.669   5.129
 5446POPC   PO469072  34.334  15.634   5.548
 5446POPC   GL169073  34.471  15.314   5.872
 5446POPC   GL269074  34.500  14.976   5.799
 5446POPC   C1A69075  34.551  15.212   6.265
 5446POPC   D2A69076  34.308  15.220   6.599
 5446POPC   C3A69077  34.560  15.197   6.953
 5446POPC   C4A69078  34.442  15.170   7.377
 5446POPC   C1B69079  34.780  14.768   6.089
 5446POPC   C2B69080  34.939  14.898   6.489
 5446POPC   C3B69081  34.857  14.745   6.898
 5446POPC   C4B69082  34.906  14.918   7.273
 5447POPC   NC369083  12.904  16.034   5.389
 5447POPC   PO469084  12.931  15.417   5.357
 5447POPC   GL169085  12.965  15.693   5.756
 5447POPC   GL269086  12.650  15.841   5.805
 5447POPC   C1A69087  13.031  15.920   6.153
 5447POPC   D2A69088  13.016  15.766   6.558
 5447POPC   C3A69089  13.046  16.006   6.916
 5447POPC   C4A69090  12.909  15.860   7.282
 5447POPC   C1B69091  12.519  16.042   6.188
 5447POPC   C2B69092  12.677  16.139   6.583
 5447POPC   C3B69093  12.525  16.028   6.967
 5447POPC   C4B69094  12.327  16.194   7.319
 5448POPC   NC369095  21.193  31.592   5.367
 5448POPC   PO469096  21.874  31.783   5.363
 5448POPC   GL169097  21.559  31.671   5.724
 5448POPC   GL269098  21.673  31.375   5.938
 5448POPC   C1A69099  21.429  31.830   6.125
 5448POPC   D2A69100  21.181  31.723   6.469
 5448POPC   C3A69101  21.365  31.696   6.854
 5448POPC   C4A69102  21.287  31.343   7.135
 5448POPC   C1B69103  21.288  31.305   6.164
 5448POPC   C2B69104  21.344  31.252   6.597
 5448POPC   C3B69105  21.720  31.294   6.856
 5448POPC   C4B69106  21.808  31.049   7.229
 5449POPC   NC369107   2.162  44.746   5.437
 5449POPC   PO469108   2.537  44.151   5.382
 5449POPC   GL169109   2.395  44.397   5.783
 5449POPC   GL269110   2.072  44.584   5.919
 5449POPC   C1A69111   2.437  44.509   6.238
 5449POPC   D2A69112   2.410  44.679   6.656
 5449POPC   C3A69113   2.149  44.603   7.035
 5449POPC   C4A69114   1.764  44.589   7.289
 5449POPC   C1B69115   1.944  44.318   6.325
 5449POPC   C2B69116   1.874  44.173   6.777
 5449POPC   C3B69117   1.621  44.113   7.191
 5449POPC   C4B69118   1.567  44.300   7.663
 5450POPC   NC369119  40.847   8.662   5.484
 5450POPC   PO469120  40.690   9.273   5.469
 5450POPC   GL169121  40.684   9.031   5.816
 5450POPC   GL269122  41.034   9.072   5.817
 5450POPC   C1A69123  40.798   8.799   6.191
 5450POPC   D2A69124  40.880   9.005   6.570
 5450POPC   C3A69125  40.618   8.939   6.916
 5450POPC   C4A69126  40.900   8.660   7.122
 5450POPC   C1B69127  41.155   9.330   6.170
 5450POPC   C2B69128  41.095   9.452   6.604
 5450POPC   C3B69129  40.962   9.332   7.016
 5450POPC   C4B69130  40.783   9.091   7.381
 5451POPC   NC369131  16.605   4.604   4.923
 5451POPC   PO469132  16.917   5.078   5.307
 5451POPC   GL169133  16.656   4.927   5.624
 5451POPC   GL269134  16.839   5.166   5.823
 5451POPC   C1A69135  16.706   4.707   6.015
 5451POPC   D2A69136  16.802   4.675   6.439
 5451POPC   C3A69137  16.733   4.946   6.810
 5451POPC   C4A69138  16.526   4.966   7.193
 5451POPC   C1B69139  16.737   5.169   6.260
 5451POPC   C2B69140  16.734   5.426   6.615
 5451POPC   C3B69141  16.487   5.443   6.991
 5451POPC   C4B69142  16.599   5.437   7.386
 5452POPC   NC369143  19.932   9.455   5.234
 5452POPC   PO469144  20.117   9.096   5.676
 5452POPC   GL169145  19.906   9.465   5.781
 5452POPC   GL269146  19.540   9.481   5.770
 5452POPC   C1A69147  19.816   9.630   6.189
 5452POPC   D2A69148  19.954   9.538   6.592
 5452POPC   C3A69149  19.862   9.874   6.843
 5452POPC   C4A69150  19.963  10.005   7.246
 5452POPC   C1B69151  19.614   9.168   6.119
 5452POPC   C2B69152  19.525   9.258   6.537
 5452POPC   C3B69153  19.635   9.335   6.965
 5452POPC   C4B69154  19.474   9.306   7.372
 5453POPC   NC369155   3.749  37.101   5.424
 5453POPC   PO469156   3.209  36.770   5.460
 5453POPC   GL169157   3.523  36.741   5.805
 5453POPC   GL269158   3.862  36.660   5.742
 5453POPC   C1A69159   3.724  37.030   6.125
 5453POPC   D2A69160   3.513  37.348   6.409
 5453POPC   C3A69161   3.450  37.131   6.806
 5453POPC   C4A69162   3.365  37.071   7.236
 5453POPC   C1B69163   3.786  36.503   6.200
 5453POPC   C2B69164   3.864  36.660   6.635
 5453POPC   C3B69165   3.746  36.761   7.055
 5453POPC   C4B69166   3.451  36.567   7.304
 5454POPC   NC369167  23.546   7.480   5.328
 5454POPC   PO469168  23.889   7.002   5.535
 5454POPC   GL169169  23.586   7.252   5.796
 5454POPC   GL269170  23.784   7.564   5.791
 5454POPC   C1A69171  23.511   7.335   6.259
 5454POPC   D2A69172  23.573   7.180   6.727
 5454POPC   C3A69173  23.402   7.360   7.129
 5454POPC   C4A69174  23.458   7.661   7.473
 5454POPC   C1B69175  23.866   7.746   6.211
 5454POPC   C2B69176  23.849   7.900   6.652
 5454POPC   C3B69177  23.829   7.632   7.016
 5454POPC   C4B69178  23.939   7.224   7.160
 5455POPC   NC369179  21.944  30.137   5.284
 5455POPC   PO469180  22.354  29.706   5.267
 5455POPC   GL169181  22.285  29.840   5.715
 5455POPC   GL269182  21.945  29.989   5.786
 5455POPC   C1A69183  22.359  29.875   6.180
 5455POPC   D2A69184  22.425  29.726   6.620
 5455POPC   C3A69185  22.373  30.034   6.947
 5455POPC   C4A69186  22.338  29.869   7.411
 5455POPC   C1B69187  21.853  29.845   6.216
 5455POPC   C2B69188  21.955  29.972   6.646
 5455POPC   C3B69189  22.030  29.677   6.990
 5455POPC   C4B69190  21.866  29.665   7.387
 5456POPC   NC369191  33.769  21.358   5.446
 5456POPC   PO469192  34.129  21.923   5.481
 5456POPC   GL169193  33.907  21.681   5.820
 5456POPC   GL269194  34.064  21.333   5.867
 5456POPC   C1A69195  33.695  21.501   6.201
 5456POPC   D2A69196  33.807  21.297   6.593
 5456POPC   C3A69197  33.575  21.305   6.990
 5456POPC   C4A69198  33.783  21.440   7.424
 5456POPC   C1B69199  34.286  21.154   6.222
 5456POPC   C2B69200  34.197  20.999   6.637
 5456POPC   C3B69201  34.093  21.253   7.027
 5456POPC   C4B69202  34.203  21.141   7.437
 5457POPC   NC369203   3.188  17.772   5.676
 5457POPC   PO469204   3.822  17.526   5.447
 5457POPC   GL169205   3.642  17.491   5.851
 5457POPC   GL269206   3.660  17.858   5.895
 5457POPC   C1A69207   3.354  17.426   6.212
 5457POPC   D2A69208   3.235  17.618   6.604
 5457POPC   C3A69209   3.308  17.381   6.972
 5457POPC   C4A69210   3.727  17.411   7.229
 5457POPC   C1B69211   3.743  17.751   6.325
 5457POPC   C2B69212   3.675  17.807   6.776
 5457POPC   C3B69213   3.440  17.826   7.166
 5457POPC   C4B69214   3.589  17.755   7.577
 5458POPC   NC369215   9.511  36.330   5.370
 5458POPC   PO469216   9.562  35.633   5.362
 5458POPC   GL169217   9.686  35.866   5.787
 5458POPC   GL269218   9.627  36.248   5.847
 5458POPC   C1A69219   9.911  36.035   6.182
 5458POPC   D2A69220   9.781  36.209   6.563
 5458POPC   C3A69221   9.936  36.085   6.974
 5458POPC   C4A69222  10.220  35.869   7.271
 5458POPC   C1B69223   9.490  36.504   6.206
 5458POPC   C2B69224   9.322  36.478   6.609
 5458POPC   C3B69225   9.471  36.370   7.002
 5458POPC   C4B69226   9.746  36.418   7.311
 5459POPC   NC369227  35.040  39.605   5.492
 5459POPC   PO469228  35.524  39.156   5.400
 5459POPC   GL169229  35.429  39.272   5.798
 5459POPC   GL269230  35.098  39.234   5.854
 5459POPC   C1A69231  35.510  39.427   6.221
 5459POPC   D2A69232  35.728  39.501   6.596
 5459POPC   C3A69233  35.459  39.407   6.889
 5459POPC   C4A69234  35.402  39.320   7.292
 5459POPC   C1B69235  35.069  39.144   6.294
 5459POPC   C2B69236  35.079  39.104   6.734
 5459POPC   C3B69237  34.790  38.985   7.056
 5459POPC   C4B69238  34.814  39.051   7.530
 5460POPC   NC369239  44.994  10.209   5.392
 5460POPC   PO469240  44.432  10.717   5.442
 5460POPC   GL169241  44.704  10.722   5.787
 5460POPC   GL269242  44.618  10.374   5.809
 5460POPC   C1A69243  44.876  10.534   6.192
 5460POPC   D2A69244  44.792  10.297   6.571
 5460POPC   C3A69245  44.939  10.487   6.952
 5460POPC   C4A69246  44.829  10.437   7.374
 5460POPC   C1B69247  44.403  10.255   6.228
 5460POPC   C2B69248  44.304  10.135   6.668
 5460POPC   C3B69249  44.400  10.275   7.100
 5460POPC   C4B69250  44.386  10.191   7.555
 5461POPC   NC369251   4.649  14.450   5.275
 5461POPC   PO469252   4.014  14.125   5.430
 5461POPC   GL169253   4.268  14.271   5.743
 5461POPC   GL269254   4.596  14.139   5.760
 5461POPC   C1A69255   4.275  14.440   6.150
 5461POPC   D2A69256   4.302  14.260   6.535
 5461POPC   C3A69257   4.153  14.457   6.864
 5461POPC   C4A69258   4.294  14.564   7.246
 5461POPC   C1B69259   4.654  14.035   6.197
 5461POPC   C2B69260   4.567  13.847   6.613
 5461POPC   C3B69261   4.498  14.089   6.986
 5461POPC   C4B69262   4.590  14.166   7.375
 5462POPC   NC369263  35.028  26.824   5.447
 5462POPC   PO469264  34.435  26.541   5.588
 5462POPC   GL169265  34.701  26.736   5.866
 5462POPC   GL269266  35.041  26.549   5.871
 5462POPC   C1A69267  34.558  26.955   6.249
 5462POPC   D2A69268  34.587  26.786   6.657
 5462POPC   C3A69269  34.464  27.015   6.993
 5462POPC   C4A69270  34.718  27.188   7.301
 5462POPC   C1B69271  34.955  26.635   6.310
 5462POPC   C2B69272  35.032  26.513   6.748
 5462POPC   C3B69273  34.875  26.742   7.121
 5462POPC   C4B69274  34.472  26.757   7.446
 5463POPC   NC369275  27.597  24.000   5.462
 5463POPC   PO469276  27.992  23.506   5.599
 5463POPC   GL169277  27.587  23.700   5.876
 5463POPC   GL269278  27.261  23.913   5.900
 5463POPC   C1A69279  27.488  23.846   6.351
 5463POPC   D2A69280  27.702  24.047   6.672
 5463POPC   C3A69281  27.642  23.893   7.087
 5463POPC   C4A69282  27.801  23.753   7.528
 5463POPC   C1B69283  27.171  23.512   6.168
 5463POPC   C2B69284  27.348  23.416   6.605
 5463POPC   C3B69285  27.306  23.516   7.049
 5463POPC   C4B69286  27.411  23.356   7.491
 5464POPC   NC369287  35.376  41.905   5.091
 5464POPC   PO469288  35.283  42.451   5.446
 5464POPC   GL169289  35.448  42.312   5.840
 5464POPC   GL269290  35.745  42.477   5.750
 5464POPC   C1A69291  35.393  42.251   6.294
 5464POPC   D2A69292  35.364  42.074   6.721
 5464POPC   C3A69293  35.171  42.313   7.076
 5464POPC   C4A69294  35.243  42.319   7.525
 5464POPC   C1B69295  35.792  42.584   6.198
 5464POPC   C2B69296  35.813  42.368   6.606
 5464POPC   C3B69297  35.673  42.391   7.026
 5464POPC   C4B69298  35.609  42.640   7.373
 5465POPC   NC369299   3.247  21.679   5.421
 5465POPC   PO469300   3.874  21.402   5.439
 5465POPC   GL169301   3.519  21.393   5.781
 5465POPC   GL269302   3.510  21.722   5.882
 5465POPC   C1A69303   3.293  21.435   6.213
 5465POPC   D2A69304   3.437  21.678   6.584
 5465POPC   C3A69305   3.488  21.491   6.994
 5465POPC   C4A69306   3.182  21.302   7.300
 5465POPC   C1B69307   3.800  21.537   6.239
 5465POPC   C2B69308   3.985  21.639   6.652
 5465POPC   C3B69309   3.869  21.845   7.047
 5465POPC   C4B69310   3.826  21.716   7.482
 5466POPC   NC369311  44.274   2.623   5.428
 5466POPC   PO469312  43.732   2.914   5.276
 5466POPC   GL169313  43.942   2.936   5.712
 5466POPC   GL269314  43.988   2.590   5.844
 5466POPC   C1A69315  43.836   2.911   6.190
 5466POPC   D2A69316  43.929   2.653   6.563
 5466POPC   C3A69317  43.903   2.769   6.994
 5466POPC   C4A69318  43.849   2.443   7.304
 5466POPC   C1B69319  44.292   2.675   6.195
 5466POPC   C2B69320  44.392   2.408   6.503
 5466POPC   C3B69321  44.223   2.357   6.902
 5466POPC   C4B69322  44.345   2.571   7.261
 5467POPC   NC369323  33.568  43.740   5.219
 5467POPC   PO469324  33.985  44.193   5.562
 5467POPC   GL169325  33.624  44.009   5.727
 5467POPC   GL269326  33.672  43.665   5.771
 5467POPC   C1A69327  33.476  44.089   6.162
 5467POPC   D2A69328  33.761  44.311   6.460
 5467POPC   C3A69329  33.749  44.173   6.892
 5467POPC   C4A69330  33.422  43.921   7.021
 5467POPC   C1B69331  33.932  43.863   6.117
 5467POPC   C2B69332  33.886  43.811   6.536
 5467POPC   C3B69333  33.918  43.669   6.942
 5467POPC   C4B69334  33.808  43.817   7.370
 5468POPC   NC369335  38.816  30.233   5.372
 5468POPC   PO469336  38.171  29.836   5.378
 5468POPC   GL169337  38.257  30.004   5.747
 5468POPC   GL269338  38.616  29.923   5.735
 5468POPC   C1A69339  38.227  30.169   6.162
 5468POPC   D2A69340  38.433  30.001   6.526
 5468POPC   C3A69341  38.208  29.983   6.917
 5468POPC   C4A69342  38.364  29.903   7.314
 5468POPC   C1B69343  38.846  29.764   6.104
 5468POPC   C2B69344  38.936  29.824   6.548
 5468POPC   C3B69345  38.758  29.961   6.949
 5468POPC   C4B69346  38.880  29.950   7.388
 5469POPC   NC369347   5.339  34.227   5.325
 5469POPC   PO469348   5.001  34.798   5.481
 5469POPC   GL169349   5.284  34.558   5.745
 5469POPC   GL269350   5.148  34.227   5.801
 5469POPC   C1A69351   5.397  34.459   6.174
 5469POPC   D2A69352   5.198  34.417   6.559
 5469POPC   C3A69353   5.459  34.435   6.875
 5469POPC   C4A69354   5.441  34.710   7.206
 5469POPC   C1B69355   4.910  34.170   6.213
 5469POPC   C2B69356   4.715  34.261   6.620
 5469POPC   C3B69357   4.910  34.428   7.000
 5469POPC   C4B69358   5.218  34.246   7.281
 5470POPC   NC369359  12.976  25.800   5.488
 5470POPC   PO469360  12.529  26.265   5.335
 5470POPC   GL169361  12.672  26.123   5.763
 5470POPC   GL269362  12.631  25.746   5.866
 5470POPC   C1A69363  12.779  26.163   6.221
 5470POPC   D2A69364  12.992  26.090   6.633
 5470POPC   C3A69365  12.752  25.897   6.978
 5470POPC   C4A69366  12.515  25.696   7.336
 5470POPC   C1B69367  12.934  25.682   6.196
 5470POPC   C2B69368  12.968  25.577   6.624
 5470POPC   C3B69369  13.227  25.693   6.941
 5470POPC   C4B69370  13.083  25.710   7.311
 5471POPC   NC369371  19.289  37.107   5.395
 5471POPC   PO469372  18.787  36.709   5.507
 5471POPC   GL169373  19.026  36.911   5.798
 5471POPC   GL269374  19.295  36.651   5.785
 5471POPC   C1A69375  18.931  37.122   6.168
 5471POPC   D2A69376  19.149  37.222   6.528
 5471POPC   C3A69377  18.895  37.084   6.865
 5471POPC   C4A69378  18.934  37.096   7.301
 5471POPC   C1B69379  19.294  36.739   6.226
 5471POPC   C2B69380  19.120  36.648   6.640
 5471POPC   C3B69381  19.129  36.674   7.098
 5471POPC   C4B69382  19.347  36.458   7.433
 5472POPC   NC369383  32.071  26.488   5.628
 5472POPC   PO469384  31.906  25.848   5.535
 5472POPC   GL169385  31.584  25.885   5.886
 5472POPC   GL269386  31.616  26.273   5.893
 5472POPC   C1A69387  31.259  26.089   6.212
 5472POPC   D2A69388  31.308  26.315   6.619
 5472POPC   C3A69389  31.155  26.137   7.019
 5472POPC   C4A69390  31.245  25.889   7.377
 5472POPC   C1B69391  31.753  26.133   6.330
 5472POPC   C2B69392  31.832  25.968   6.740
 5472POPC   C3B69393  31.707  25.955   7.164
 5472POPC   C4B69394  31.726  25.838   7.612
 5473POPC   NC369395  24.583  34.118   5.483
 5473POPC   PO469396  24.097  33.748   5.235
 5473POPC   GL169397  24.142  33.760   5.730
 5473POPC   GL269398  24.333  34.019   5.953
 5473POPC   C1A69399  24.021  33.658   6.178
 5473POPC   D2A69400  24.136  33.494   6.601
 5473POPC   C3A69401  24.304  33.730   6.964
 5473POPC   C4A69402  24.237  33.970   7.350
 5473POPC   C1B69403  24.502  34.291   6.316
 5473POPC   C2B69404  24.479  34.250   6.784
 5473POPC   C3B69405  24.721  34.049   7.130
 5473POPC   C4B69406  24.692  34.062   7.583
 5474POPC   NC369407  42.102  27.603   5.577
 5474POPC   PO469408  42.595  27.256   5.364
 5474POPC   GL169409  42.620  27.385   5.824
 5474POPC   GL269410  42.533  27.756   5.903
 5474POPC   C1A69411  42.747  27.416   6.279
 5474POPC   D2A69412  42.677  27.666   6.681
 5474POPC   C3A69413  42.342  27.525   6.994
 5474POPC   C4A69414  42.065  27.285   7.303
 5474POPC   C1B69415  42.217  27.626   6.225
 5474POPC   C2B69416  41.941  27.779   6.560
 5474POPC   C3B69417  42.121  27.992   6.907
 5474POPC   C4B69418  42.536  28.005   7.104
 5475POPC   NC369419   7.809   9.028   5.612
 5475POPC   PO469420   7.478   9.088   5.120
 5475POPC   GL169421   7.307   8.932   5.605
 5475POPC   GL269422   7.053   9.137   5.773
 5475POPC   C1A69423   7.272   8.859   6.137
 5475POPC   D2A69424   7.292   8.809   6.641
 5475POPC   C3A69425   7.672   8.839   6.873
 5475POPC   C4A69426   7.687   8.776   7.295
 5475POPC   C1B69427   7.123   9.372   6.147
 5475POPC   C2B69428   7.300   9.377   6.585
 5475POPC   C3B69429   7.260   9.277   7.029
 5475POPC   C4B69430   6.991   9.411   7.377
 5476POPC   NC369431  15.229  14.883   5.427
 5476POPC   PO469432  14.787  15.425   5.544
 5476POPC   GL169433  14.996  15.238   5.865
 5476POPC   GL269434  15.298  15.362   5.872
 5476POPC   C1A69435  15.089  15.150   6.303
 5476POPC   D2A69436  14.954  15.226   6.707
 5476POPC   C3A69437  15.207  15.199   7.068
 5476POPC   C4A69438  15.423  14.860   7.232
 5476POPC   C1B69439  15.453  15.506   6.270
 5476POPC   C2B69440  15.358  15.534   6.678
 5476POPC   C3B69441  15.527  15.604   7.050
 5476POPC   C4B69442  15.465  15.519   7.466
 5477POPC   NC369443  20.436   7.119   5.577
 5477POPC   PO469444  20.824   7.639   5.379
 5477POPC   GL169445  20.584   7.559   5.765
 5477POPC   GL269446  20.855   7.335   5.810
 5477POPC   C1A69447  20.496   7.332   6.183
 5477POPC   D2A69448  20.681   7.182   6.550
 5477POPC   C3A69449  20.497   7.305   6.929
 5477POPC   C4A69450  20.627   7.370   7.328
 5477POPC   C1B69451  20.981   7.519   6.184
 5477POPC   C2B69452  21.142   7.402   6.573
 5477POPC   C3B69453  21.002   7.470   6.980
 5477POPC   C4B69454  21.110   7.412   7.391
 5478POPC   NC369455  41.366  11.514   5.387
 5478POPC   PO469456  42.053  11.369   5.537
 5478POPC   GL169457  41.721  11.492   5.835
 5478POPC   GL269458  41.461  11.267   5.822
 5478POPC   C1A69459  41.675  11.418   6.288
 5478POPC   D2A69460  41.898  11.295   6.669
 5478POPC   C3A69461  41.718  11.517   7.004
 5478POPC   C4A69462  41.264  11.542   7.099
 5478POPC   C1B69463  41.454  10.969   6.144
 5478POPC   C2B69464  41.289  10.895   6.559
 5478POPC   C3B69465  41.330  11.032   6.986
 5478POPC   C4B69466  41.583  11.164   7.338
 5479POPC   NC369467  14.516  40.768   5.388
 5479POPC   PO469468  14.144  40.260   5.152
 5479POPC   GL169469  14.162  40.545   5.664
 5479POPC   GL269470  14.048  40.879   5.756
 5479POPC   C1A69471  14.435  40.676   6.035
 5479POPC   D2A69472  14.488  40.851   6.450
 5479POPC   C3A69473  14.580  40.561   6.812
 5479POPC   C4A69474  14.682  40.668   7.249
 5479POPC   C1B69475  13.981  40.992   6.210
 5479POPC   C2B69476  14.093  41.124   6.650
 5479POPC   C3B69477  14.418  41.022   6.963
 5479POPC   C4B69478  14.351  40.994   7.440
 5480POPC   NC369479  12.706  36.004   5.455
 5480POPC   PO469480  13.306  36.072   5.532
 5480POPC   GL169481  13.057  35.862   5.860
 5480POPC   GL269482  12.880  36.160   5.915
 5480POPC   C1A69483  12.740  35.807   6.239
 5480POPC   D2A69484  12.664  36.046   6.633
 5480POPC   C3A69485  12.617  35.831   7.018
 5480POPC   C4A69486  12.963  35.905   7.287
 5480POPC   C1B69487  12.753  36.402   6.270
 5480POPC   C2B69488  12.776  36.550   6.698
 5480POPC   C3B69489  12.643  36.358   7.073
 5480POPC   C4B69490  12.496  36.525   7.452
 5481POPC   NC369491   5.387  31.626   5.527
 5481POPC   PO469492   4.964  31.135   5.421
 5481POPC   GL169493   5.206  31.201   5.793
 5481POPC   GL269494   5.010  31.470   5.844
 5481POPC   C1A69495   5.239  31.287   6.246
 5481POPC   D2A69496   5.032  31.411   6.617
 5481POPC   C3A69497   5.234  31.283   6.976
 5481POPC   C4A69498   5.098  31.152   7.357
 5481POPC   C1B69499   5.163  31.798   6.142
 5481POPC   C2B69500   5.101  31.918   6.544
 5481POPC   C3B69501   5.350  31.794   6.876
 5481POPC   C4B69502   5.215  31.692   7.297
 5482POPC   NC369503  10.791   6.511   5.393
 5482POPC   PO469504  10.381   7.114   5.410
 5482POPC   GL169505  10.511   6.837   5.701
 5482POPC   GL269506  10.580   7.051   5.910
 5482POPC   C1A69507  10.454   6.594   6.114
 5482POPC   D2A69508  10.366   6.475   6.560
 5482POPC   C3A69509  10.684   6.511   6.873
 5482POPC   C4A69510  10.582   6.321   7.250
 5482POPC   C1B69511  10.220   7.142   6.163
 5482POPC   C2B69512  10.404   6.980   6.503
 5482POPC   C3B69513  10.450   6.962   6.918
 5482POPC   C4B69514  10.515   6.807   7.319
 5483POPC   NC369515   1.331  34.856   5.388
 5483POPC   PO469516   1.930  34.579   5.619
 5483POPC   GL169517   1.911  34.576   6.023
 5483POPC   GL269518   2.247  34.654   6.046
 5483POPC   C1A69519   1.935  34.629   6.464
 5483POPC   D2A69520   2.090  34.357   6.747
 5483POPC   C3A69521   2.108  34.480   7.115
 5483POPC   C4A69522   1.733  34.363   7.313
 5483POPC   C1B69523   2.234  35.025   6.294
 5483POPC   C2B69524   2.167  35.024   6.717
 5483POPC   C3B69525   2.325  35.157   7.063
 5483POPC   C4B69526   2.519  34.824   7.118
 5484POPC   NC369527   2.332   9.969   5.386
 5484POPC   PO469528   1.759   9.744   5.324
 5484POPC   GL169529   1.928   9.882   5.707
 5484POPC   GL269530   2.195   9.659   5.786
 5484POPC   C1A69531   2.006  10.054   6.126
 5484POPC   D2A69532   2.183   9.954   6.544
 5484POPC   C3A69533   1.953   9.948   6.915
 5484POPC   C4A69534   2.101  10.121   7.301
 5484POPC   C1B69535   2.182   9.557   6.225
 5484POPC   C2B69536   1.855   9.497   6.563
 5484POPC   C3B69537   1.692   9.433   6.979
 5484POPC   C4B69538   1.979   9.582   7.277
 5485POPC   NC369539  40.061  18.068   5.486
 5485POPC   PO469540  39.995  18.739   5.393
 5485POPC   GL169541  40.071  18.562   5.857
 5485POPC   GL269542  40.216  18.219   5.950
 5485POPC   C1A69543  39.810  18.394   6.245
 5485POPC   D2A69544  39.728  18.215   6.687
 5485POPC   C3A69545  39.814  18.520   7.058
 5485POPC   C4A69546  39.693  18.580   7.517
 5485POPC   C1B69547  40.252  17.993   6.357
 5485POPC   C2B69548  40.497  17.974   6.761
 5485POPC   C3B69549  40.382  18.126   7.198
 5485POPC   C4B69550  40.387  18.158   7.700
 5486POPC   NC369551   4.419  24.178   5.536
 5486POPC   PO469552   4.090  24.727   5.386
 5486POPC   GL169553   4.137  24.544   5.786
 5486POPC   GL269554   3.911  24.285   5.778
 5486POPC   C1A69555   4.395  24.428   6.155
 5486POPC   D2A69556   4.359  24.289   6.586
 5486POPC   C3A69557   4.382  24.643   6.908
 5486POPC   C4A69558   4.440  24.802   7.362
 5486POPC   C1B69559   4.000  24.097   6.173
 5486POPC   C2B69560   3.957  23.955   6.616
 5486POPC   C3B69561   3.961  24.232   6.939
 5486POPC   C4B69562   4.042  24.511   7.270
 5487POPC   NC369563  20.858  40.600   5.499
 5487POPC   PO469564  20.246  40.646   5.203
 5487POPC   GL169565  20.432  40.858   5.636
 5487POPC   GL269566  20.775  40.995   5.826
 5487POPC   C1A69567  20.439  40.786   6.130
 5487POPC   D2A69568  20.648  40.933   6.519
 5487POPC   C3A69569  20.393  40.912   6.877
 5487POPC   C4A69570  20.309  40.806   7.286
 5487POPC   C1B69571  20.940  40.669   6.168
 5487POPC   C2B69572  21.053  40.489   6.597
 5487POPC   C3B69573  20.837  40.563   7.001
 5487POPC   C4B69574  20.791  40.904   7.225
 5488POPC   NC369575   2.291  31.059   5.487
 5488POPC   PO469576   2.428  30.458   5.516
 5488POPC   GL169577   2.554  30.514   5.937
 5488POPC   GL269578   2.886  30.344   5.911
 5488POPC   C1A69579   2.764  30.723   6.293
 5488POPC   D2A69580   3.048  30.940   6.584
 5488POPC   C3A69581   3.071  30.927   7.037
 5488POPC   C4A69582   2.838  30.839   7.394
 5488POPC   C1B69583   2.764  30.225   6.335
 5488POPC   C2B69584   2.789  30.407   6.715
 5488POPC   C3B69585   3.014  30.423   7.084
 5488POPC   C4B69586   3.113  30.417   7.535
 5489POPC   NC369587  31.516   5.948   5.360
 5489POPC   PO469588  30.908   5.695   5.441
 5489POPC   GL169589  31.247   5.804   5.784
 5489POPC   GL269590  31.613   5.634   5.790
 5489POPC   C1A69591  31.395   6.030   6.173
 5489POPC   D2A69592  31.515   5.917   6.618
 5489POPC   C3A69593  31.256   5.840   6.995
 5489POPC   C4A69594  31.434   6.154   7.313
 5489POPC   C1B69595  31.905   5.910   6.050
 5489POPC   C2B69596  31.998   6.079   6.476
 5489POPC   C3B69597  31.903   6.078   6.933
 5489POPC   C4B69598  31.707   5.753   7.189
 5490POPC   NC369599  33.169  15.846   5.552
 5490POPC   PO469600  32.693  16.400   5.354
 5490POPC   GL169601  32.846  16.154   5.770
 5490POPC   GL269602  33.159  16.205   5.957
 5490POPC   C1A69603  32.890  15.807   6.149
 5490POPC   D2A69604  33.115  15.623   6.516
 5490POPC   C3A69605  33.202  15.777   6.936
 5490POPC   C4A69606  32.996  15.745   7.345
 5490POPC   C1B69607  33.185  16.156   6.398
 5490POPC   C2B69608  32.861  16.062   6.692
 5490POPC   C3B69609  32.797  16.181   7.120
 5490POPC   C4B69610  32.756  16.206   7.572
 5491POPC   NC369611  25.151   3.809   5.453
 5491POPC   PO469612  25.807   3.652   5.527
 5491POPC   GL169613  25.424   3.578   5.829
 5491POPC   GL269614  25.145   3.317   5.824
 5491POPC   C1A69615  25.146   3.751   6.164
 5491POPC   D2A69616  25.342   3.711   6.572
 5491POPC   C3A69617  25.404   3.628   7.021
 5491POPC   C4A69618  25.726   3.746   7.291
 5491POPC   C1B69619  25.049   3.267   6.292
 5491POPC   C2B69620  25.220   3.234   6.705
 5491POPC   C3B69621  25.108   3.222   7.137
 5491POPC   C4B69622  25.128   3.397   7.535
 5492POPC   NC369623  34.594  24.621   5.458
 5492POPC   PO469624  34.113  24.302   5.654
 5492POPC   GL169625  34.485  24.451   5.920
 5492POPC   GL269626  34.745  24.762   5.913
 5492POPC   C1A69627  34.524  24.281   6.308
 5492POPC   D2A69628  34.431  24.087   6.714
 5492POPC   C3A69629  34.339  24.446   6.996
 5492POPC   C4A69630  34.547  24.592   7.356
 5492POPC   C1B69631  34.901  24.634   6.302
 5492POPC   C2B69632  34.718  24.695   6.724
 5492POPC   C3B69633  34.852  24.900   7.109
 5492POPC   C4B69634  34.942  24.931   7.561
 5493POPC   NC369635  17.105   2.495   5.640
 5493POPC   PO469636  17.548   2.874   5.373
 5493POPC   GL169637  17.434   3.046   5.782
 5493POPC   GL269638  17.061   2.987   5.785
 5493POPC   C1A69639  17.574   2.882   6.214
 5493POPC   D2A69640  17.585   2.606   6.590
 5493POPC   C3A69641  17.669   2.742   7.027
 5493POPC   C4A69642  17.716   2.482   7.406
 5493POPC   C1B69643  17.106   3.052   6.237
 5493POPC   C2B69644  17.335   3.150   6.643
 5493POPC   C3B69645  17.268   3.048   7.101
 5493POPC   C4B69646  17.239   2.658   7.402
 5494POPC   NC369647  42.546   5.886   5.476
 5494POPC   PO469648  41.831   5.769   5.471
 5494POPC   GL169649  42.099   5.883   5.844
 5494POPC   GL269650  42.389   5.697   5.911
 5494POPC   C1A69651  42.281   6.027   6.278
 5494POPC   D2A69652  42.358   6.162   6.728
 5494POPC   C3A69653  42.182   5.953   7.089
 5494POPC   C4A69654  42.095   5.947   7.526
 5494POPC   C1B69655  42.514   5.568   6.325
 5494POPC   C2B69656  42.494   5.661   6.772
 5494POPC   C3B69657  42.520   5.584   7.224
 5494POPC   C4B69658  42.592   5.369   7.623
 5495POPC   NC369659   1.819  24.801   5.451
 5495POPC   PO469660   1.756  24.138   5.507
 5495POPC   GL169661   1.902  24.418   5.839
 5495POPC   GL269662   2.169  24.677   5.815
 5495POPC   C1A69663   1.862  24.563   6.276
 5495POPC   D2A69664   1.812  24.799   6.661
 5495POPC   C3A69665   1.960  24.547   7.016
 5495POPC   C4A69666   1.733  24.464   7.429
 5495POPC   C1B69667   2.309  24.869   6.226
 5495POPC   C2B69668   2.329  24.762   6.657
 5495POPC   C3B69669   2.320  24.913   7.091
 5495POPC   C4B69670   2.271  24.634   7.443
 5496POPC   NC369671   9.269  23.137   5.496
 5496POPC   PO469672   8.660  22.779   5.424
 5496POPC   GL169673   8.937  22.855   5.758
 5496POPC   GL269674   8.947  22.539   5.842
 5496POPC   C1A69675   9.182  22.955   6.125
 5496POPC   D2A69676   9.287  22.868   6.536
 5496POPC   C3A69677   9.028  23.037   6.840
 5496POPC   C4A69678   9.018  23.078   7.265
 5496POPC   C1B69679   8.758  22.602   6.195
 5496POPC   C2B69680   8.862  22.500   6.564
 5496POPC   C3B69681   8.659  22.348   6.887
 5496POPC   C4B69682   8.709  22.641   7.186
 5497POPC   NC369683  15.461  26.957   5.380
 5497POPC   PO469684  15.083  26.450   5.348
 5497POPC   GL169685  15.069  26.766   5.698
 5497POPC   GL269686  15.427  26.759   5.862
 5497POPC   C1A69687  14.840  26.696   6.112
 5497POPC   D2A69688  14.793  26.834   6.554
 5497POPC   C3A69689  15.090  26.719   6.874
 5497POPC   C4A69690  15.061  26.495   7.260
 5497POPC   C1B69691  15.291  26.810   6.296
 5497POPC   C2B69692  15.241  27.134   6.600
 5497POPC   C3B69693  15.393  27.091   7.008
 5497POPC   C4B69694  15.519  26.747   7.266
 5498POPC   NC369695   2.309  12.575   5.425
 5498POPC   PO469696   1.674  12.230   5.505
 5498POPC   GL169697   2.113  12.125   5.734
 5498POPC   GL269698   2.358  12.350   5.881
 5498POPC   C1A69699   2.138  11.920   6.164
 5498POPC   D2A69700   1.757  11.747   6.422
 5498POPC   C3A69701   1.708  11.791   6.873
 5498POPC   C4A69702   2.009  11.970   7.167
 5498POPC   C1B69703   2.008  12.435   6.154
 5498POPC   C2B69704   1.886  12.260   6.549
 5498POPC   C3B69705   1.889  12.426   6.949
 5498POPC   C4B69706   2.263  12.467   7.153
 5499POPC   NC369707  32.485   5.398   5.352
 5499POPC   PO469708  32.021   4.944   5.451
 5499POPC   GL169709  32.205   4.880   5.811
 5499POPC   GL269710  32.303   5.216   5.795
 5499POPC   C1A69711  32.064   4.867   6.235
 5499POPC   D2A69712  32.317   4.893   6.608
 5499POPC   C3A69713  32.111   4.850   6.994
 5499POPC   C4A69714  31.801   4.881   7.348
 5499POPC   C1B69715  32.459   5.181   6.187
 5499POPC   C2B69716  32.579   5.365   6.552
 5499POPC   C3B69717  32.460   5.259   6.973
 5499POPC   C4B69718  32.566   5.329   7.389
 5500POPC   NC369719  33.184  39.371   5.440
 5500POPC   PO469720  32.806  38.943   5.182
 5500POPC   GL169721  32.897  38.992   5.682
 5500POPC   GL269722  32.903  39.348   5.895
 5500POPC   C1A69723  33.057  38.938   6.116
 5500POPC   D2A69724  32.992  39.236   6.450
 5500POPC   C3A69725  33.021  39.196   6.883
 5500POPC   C4A69726  32.872  39.466   7.224
 5500POPC   C1B69727  33.339  39.375   6.117
 5500POPC   C2B69728  33.483  39.386   6.538
 5500POPC   C3B69729  33.376  39.596   6.916
 5500POPC   C4B69730  33.402  39.389   7.301
 5501POPC   NC369731  40.242  27.529   5.083
 5501POPC   PO469732  40.830  27.429   5.483
 5501POPC   GL169733  40.705  27.673   5.851
 5501POPC   GL269734  40.528  27.473   6.048
 5501POPC   C1A69735  40.528  27.942   6.198
 5501POPC   D2A69736  40.451  27.988   6.621
 5501POPC   C3A69737  40.849  27.910   6.834
 5501POPC   C4A69738  40.897  27.993   7.256
 5501POPC   C1B69739  40.913  27.308   6.197
 5501POPC   C2B69740  41.046  27.206   6.624
 5501POPC   C3B69741  40.895  27.223   7.046
 5501POPC   C4B69742  40.925  27.494   7.397
 5502POPC   NC369743   9.226  15.573   5.251
 5502POPC   PO469744   8.829  15.037   5.491
 5502POPC   GL169745   9.022  15.136   5.882
 5502POPC   GL269746   9.231  15.472   5.862
 5502POPC   C1A69747   8.751  15.249   6.251
 5502POPC   D2A69748   8.665  15.110   6.673
 5502POPC   C3A69749   8.808  15.350   7.014
 5502POPC   C4A69750   8.883  14.985   7.216
 5502POPC   C1B69751   9.239  15.316   6.302
 5502POPC   C2B69752   9.204  15.047   6.660
 5502POPC   C3B69753   9.353  15.127   7.070
 5502POPC   C4B69754   9.256  15.509   7.266
 5503POPC   NC369755  36.588  21.654   5.481
 5503POPC   PO469756  36.072  21.277   5.423
 5503POPC   GL169757  36.113  21.482   5.786
 5503POPC   GL269758  36.152  21.147   5.920
 5503POPC   C1A69759  35.926  21.582   6.179
 5503POPC   D2A69760  36.158  21.411   6.503
 5503POPC   C3A69761  35.975  21.357   6.893
 5503POPC   C4A69762  36.119  21.707   7.125
 5503POPC   C1B69763  36.419  21.036   6.254
 5503POPC   C2B69764  36.245  20.917   6.645
 5503POPC   C3B69765  36.302  20.972   7.091
 5503POPC   C4B69766  36.160  21.241   7.432
 5504POPC   NC369767  13.421  31.363   5.357
 5504POPC   PO469768  13.908  31.883   5.281
 5504POPC   GL169769  13.777  31.610   5.682
 5504POPC   GL269770  13.591  31.279   5.829
 5504POPC   C1A69771  13.527  31.724   6.064
 5504POPC   D2A69772  13.566  31.934   6.461
 5504POPC   C3A69773  13.629  31.639   6.810
 5504POPC   C4A69774  13.474  31.614   7.220
 5504POPC   C1B69775  13.721  31.255   6.251
 5504POPC   C2B69776  13.440  31.207   6.589
 5504POPC   C3B69777  13.383  31.162   7.018
 5504POPC   C4B69778  13.547  31.141   7.453
 5505POPC   NC369779  13.401  15.453   5.673
 5505POPC   PO469780  13.873  15.086   5.318
 5505POPC   GL169781  13.697  15.073   5.818
 5505POPC   GL269782  13.722  15.372   6.061
 5505POPC   C1A69783  13.482  14.978   6.256
 5505POPC   D2A69784  13.677  14.993   6.681
 5505POPC   C3A69785  13.508  15.107   7.110
 5505POPC   C4A69786  13.747  15.226   7.492
 5505POPC   C1B69787  13.428  15.556   6.310
 5505POPC   C2B69788  13.277  15.319   6.619
 5505POPC   C3B69789  13.186  15.491   6.972
 5505POPC   C4B69790  13.368  15.590   7.323
 5506POPC   NC369791  29.371   2.319   5.503
 5506POPC   PO469792  29.271   1.654   5.607
 5506POPC   GL169793  29.196   2.010   5.887
 5506POPC   GL269794  28.911   2.188   5.776
 5506POPC   C1A69795  29.161   1.980   6.317
 5506POPC   D2A69796  29.018   1.749   6.658
 5506POPC   C3A69797  29.101   2.099   6.895
 5506POPC   C4A69798  29.331   2.170   7.228
 5506POPC   C1B69799  28.654   2.061   6.123
 5506POPC   C2B69800  28.675   2.144   6.567
 5506POPC   C3B69801  28.621   1.933   6.968
 5506POPC   C4B69802  28.836   1.893   7.364
 5507POPC   NC369803  44.735   4.806   5.021
 5507POPC   PO469804  44.702   4.191   5.344
 5507POPC   GL169805  44.612   4.188   5.778
 5507POPC   GL269806  44.927   4.060   5.864
 5507POPC   C1A69807  44.589   4.319   6.213
 5507POPC   D2A69808  44.348   4.477   6.588
 5507POPC   C3A69809  44.484   4.361   7.026
 5507POPC   C4A69810  44.811   4.634   7.213
 5507POPC   C1B69811  44.817   3.861   6.273
 5507POPC   C2B69812  44.585   3.950   6.665
 5507POPC   C3B69813  44.723   3.889   7.097
 5507POPC   C4B69814  44.862   4.182   7.421
 5508POPC   NC369815  35.948   0.523   5.392
 5508POPC   PO469816  36.642   0.591   5.393
 5508POPC   GL169817  36.337   0.518   5.804
 5508POPC   GL269818  35.991   0.325   5.857
 5508POPC   C1A69819  36.326   0.262   6.230
 5508POPC   D2A69820  36.208   0.145   6.670
 5508POPC   C3A69821  36.220   0.356   7.058
 5508POPC   C4A69822  36.031   0.515   7.474
 5508POPC   C1B69823  35.935   0.620   6.212
 5508POPC   C2B69824  36.045   0.651   6.626
 5508POPC   C3B69825  35.804   0.610   6.978
 5508POPC   C4B69826  35.556   0.622   7.325
 5509POPC   NC369827  10.356  40.426   5.647
 5509POPC   PO469828  10.730  39.969   5.318
 5509POPC   GL169829  10.799  40.102   5.762
 5509POPC   GL269830  10.521  40.137   6.024
 5509POPC   C1A69831  10.963  40.023   6.210
 5509POPC   D2A69832  10.674  39.997   6.582
 5509POPC   C3A69833  10.767  40.152   6.989
 5509POPC   C4A69834  10.798  39.883   7.332
 5509POPC   C1B69835  10.292  39.833   6.271
 5509POPC   C2B69836  10.130  39.803   6.675
 5509POPC   C3B69837  10.333  39.789   7.076
 5509POPC   C4B69838  10.319  39.838   7.533
 5510POPC   NC369839  28.641  35.942   5.508
 5510POPC   PO469840  28.099  36.138   5.182
 5510POPC   GL169841  28.157  36.320   5.678
 5510POPC   GL269842  28.484  36.244   5.875
 5510POPC   C1A69843  28.091  36.268   6.182
 5510POPC   D2A69844  28.327  36.246   6.608
 5510POPC   C3A69845  28.104  36.375   7.006
 5510POPC   C4A69846  28.035  36.184   7.417
 5510POPC   C1B69847  28.490  35.891   6.210
 5510POPC   C2B69848  28.717  35.675   6.559
 5510POPC   C3B69849  28.695  35.707   7.009
 5510POPC   C4B69850  28.485  36.061   7.205
 5511POPC   NC369851  12.398  27.365   5.478
 5511POPC   PO469852  11.754  27.646   5.338
 5511POPC   GL169853  11.976  27.606   5.718
 5511POPC   GL269854  12.017  27.950   5.784
 5511POPC   C1A69855  12.098  27.466   6.146
 5511POPC   D2A69856  11.938  27.260   6.522
 5511POPC   C3A69857  12.197  27.358   6.860
 5511POPC   C4A69858  12.527  27.380   7.147
 5511POPC   C1B69859  11.803  27.891   6.184
 5511POPC   C2B69860  11.951  27.787   6.599
 5511POPC   C3B69861  12.044  27.808   7.051
 5511POPC   C4B69862  11.803  27.640   7.354
 5512POPC   NC369863   2.052  42.127   5.477
 5512POPC   PO469864   1.685  42.757   5.468
 5512POPC   GL169865   1.898  42.515   5.826
 5512POPC   GL269866   2.221  42.622   5.867
 5512POPC   C1A69867   2.093  42.324   6.257
 5512POPC   D2A69868   2.152  42.113   6.661
 5512POPC   C3A69869   2.190  42.331   7.058
 5512POPC   C4A69870   2.159  42.190   7.474
 5512POPC   C1B69871   2.050  42.829   6.243
 5512POPC   C2B69872   1.997  42.673   6.668
 5512POPC   C3B69873   2.001  42.809   7.087
 5512POPC   C4B69874   2.194  42.708   7.498
 5513POPC   NC369875   5.147  13.696   5.367
 5513POPC   PO469876   4.572  13.296   5.469
 5513POPC   GL169877   4.739  13.585   5.834
 5513POPC   GL269878   5.082  13.781   5.862
 5513POPC   C1A69879   4.892  13.590   6.282
 5513POPC   D2A69880   5.128  13.905   6.521
 5513POPC   C3A69881   4.984  13.886   6.943
 5513POPC   C4A69882   5.030  13.774   7.371
 5513POPC   C1B69883   5.385  13.514   6.149
 5513POPC   C2B69884   5.565  13.594   6.576
 5513POPC   C3B69885   5.443  13.622   7.011
 5513POPC   C4B69886   5.380  13.348   7.368
 5514POPC   NC369887  19.544  39.909   5.662
 5514POPC   PO469888  18.934  40.075   5.376
 5514POPC   GL169889  19.056  40.232   5.770
 5514POPC   GL269890  18.742  40.295   5.951
 5514POPC   C1A69891  19.192  40.203   6.194
 5514POPC   D2A69892  19.118  40.097   6.607
 5514POPC   C3A69893  19.451  40.068   6.854
 5514POPC   C4A69894  19.514  40.239   7.257
 5514POPC   C1B69895  18.820  39.845   6.141
 5514POPC   C2B69896  18.915  39.616   6.546
 5514POPC   C3B69897  19.024  39.739   6.968
 5514POPC   C4B69898  19.021  40.180   7.132
 5515POPC   NC369899   8.173   4.337   5.434
 5515POPC   PO469900   7.530   4.270   5.271
 5515POPC   GL169901   7.816   4.224   5.756
 5515POPC   GL269902   8.044   3.934   5.811
 5515POPC   C1A69903   8.110   4.457   6.114
 5515POPC   D2A69904   8.300   4.222   6.471
 5515POPC   C3A69905   8.350   4.386   6.891
 5515POPC   C4A69906   8.062   4.567   7.170
 5515POPC   C1B69907   7.832   4.068   6.227
 5515POPC   C2B69908   7.882   3.987   6.651
 5515POPC   C3B69909   7.989   4.065   7.073
 5515POPC   C4B69910   7.899   3.988   7.497
 5516POPC   NC369911  35.134  35.368   5.112
 5516POPC   PO469912  35.173  35.810   5.582
 5516POPC   GL169913  35.384  35.422   5.844
 5516POPC   GL269914  35.206  35.057   5.945
 5516POPC   C1A69915  35.555  35.279   6.279
 5516POPC   D2A69916  35.563  34.956   6.631
 5516POPC   C3A69917  35.600  35.107   7.077
 5516POPC   C4A69918  35.655  35.534   7.277
 5516POPC   C1B69919  35.095  35.062   6.422
 5516POPC   C2B69920  35.262  35.361   6.745
 5516POPC   C3B69921  35.193  35.382   7.192
 5516POPC   C4B69922  35.180  35.080   7.528
 5517POPC   NC369923  14.336  39.885   4.955
 5517POPC   PO469924  14.475  40.180   5.575
 5517POPC   GL169925  14.513  40.011   5.958
 5517POPC   GL269926  14.760  40.272   6.048
 5517POPC   C1A69927  14.254  39.815   6.302
 5517POPC   D2A69928  14.097  39.639   6.690
 5517POPC   C3A69929  14.224  39.748   7.089
 5517POPC   C4A69930  13.946  39.820   7.395
 5517POPC   C1B69931  14.437  40.296   6.386
 5517POPC   C2B69932  14.224  40.142   6.750
 5517POPC   C3B69933  14.366  40.245   7.167
 5517POPC   C4B69934  14.716  40.203   7.447
 5518POPC   NC369935  19.516  26.876   5.440
 5518POPC   PO469936  20.055  26.560   5.253
 5518POPC   GL169937  19.942  26.654   5.685
 5518POPC   GL269938  19.897  27.038   5.755
 5518POPC   C1A69939  19.980  26.706   6.149
 5518POPC   D2A69940  19.986  27.000   6.505
 5518POPC   C3A69941  19.822  26.740   6.843
 5518POPC   C4A69942  19.990  26.829   7.219
 5518POPC   C1B69943  19.639  27.129   6.139
 5518POPC   C2B69944  19.487  27.080   6.585
 5518POPC   C3B69945  19.736  27.219   6.990
 5518POPC   C4B69946  19.725  27.194   7.455
 5519POPC   NC369947  29.451   9.369   5.629
 5519POPC   PO469948  30.035   8.983   5.630
 5519POPC   GL169949  29.974   8.979   6.034
 5519POPC   GL269950  29.839   9.308   6.000
 5519POPC   C1A69951  29.900   9.106   6.460
 5519POPC   D2A69952  30.171   9.120   6.755
 5519POPC   C3A69953  30.075   9.146   7.180
 5519POPC   C4A69954  30.098   8.837   7.502
 5519POPC   C1B69955  29.485   9.074   6.176
 5519POPC   C2B69956  29.404   9.070   6.586
 5519POPC   C3B69957  29.508   8.885   6.947
 5519POPC   C4B69958  29.586   9.089   7.315
 5520POPC   NC369959  19.588   7.504   5.645
 5520POPC   PO469960  19.897   7.963   5.189
 5520POPC   GL169961  19.978   8.162   5.619
 5520POPC   GL269962  20.317   8.120   5.822
 5520POPC   C1A69963  19.868   8.224   6.091
 5520POPC   D2A69964  20.003   8.121   6.541
 5520POPC   C3A69965  19.685   7.977   6.871
 5520POPC   C4A69966  19.617   8.107   7.308
 5520POPC   C1B69967  20.333   8.419   6.212
 5520POPC   C2B69968  20.208   8.582   6.659
 5520POPC   C3B69969  19.939   8.421   6.981
 5520POPC   C4B69970  20.104   8.009   7.184
 5521POPC   NC369971  27.649  41.405   5.429
 5521POPC   PO469972  27.853  42.003   5.503
 5521POPC   GL169973  27.566  41.998   5.868
 5521POPC   GL269974  27.471  41.625   5.910
 5521POPC   C1A69975  27.434  41.941   6.314
 5521POPC   D2A69976  27.408  41.781   6.776
 5521POPC   C3A69977  27.792  41.721   7.064
 5521POPC   C4A69978  27.878  41.932   7.475
 5521POPC   C1B69979  27.539  41.441   6.357
 5521POPC   C2B69980  27.670  41.323   6.779
 5521POPC   C3B69981  27.569  41.142   7.179
 5521POPC   C4B69982  27.839  40.994   7.553
 5522POPC   NC369983  23.156  32.426   5.532
 5522POPC   PO469984  22.873  31.811   5.367
 5522POPC   GL169985  22.811  32.098   5.772
 5522POPC   GL269986  23.146  32.045   5.898
 5522POPC   C1A69987  22.742  32.387   6.196
 5522POPC   D2A69988  22.544  32.410   6.654
 5522POPC   C3A69989  22.763  32.467   7.082
 5522POPC   C4A69990  23.165  32.472   7.373
 5522POPC   C1B69991  22.983  31.957   6.316
 5522POPC   C2B69992  23.004  32.102   6.729
 5522POPC   C3B69993  23.026  32.030   7.145
 5522POPC   C4B69994  22.826  31.772   7.301
 5523POPC   NC369995  26.412   0.169   5.695
 5523POPC   PO469996  26.919   0.574   5.382
 5523POPC   GL169997  26.909   0.812   5.764
 5523POPC   GL269998  26.615   0.867   5.913
 5523POPC   C1A69999  27.068   0.853   6.182
 5523POPC   D2A70000  27.021   0.542   6.507
 5523POPC   C3A70001  27.018   0.691   6.908
 5523POPC   C4A70002  27.030   0.462   7.250
 5523POPC   C1B70003  26.598   0.617   6.247
 5523POPC   C2B70004  26.528   0.607   6.692
 5523POPC   C3B70005  26.550   0.394   7.080
 5523POPC   C4B70006  26.476  44.950   7.205
 5524POPC   NC370007  14.322  31.694   5.306
 5524POPC   PO470008  13.850  31.133   5.429
 5524POPC   GL170009  14.103  31.238   5.898
 5524POPC   GL270010  14.294  31.533   5.795
 5524POPC   C1A70011  14.432  31.423   6.263
 5524POPC   D2A70012  14.571  31.661   6.644
 5524POPC   C3A70013  14.520  31.444   7.042
 5524POPC   C4A70014  14.644  31.394   7.465
 5524POPC   C1B70015  14.027  31.702   6.137
 5524POPC   C2B70016  14.083  31.866   6.565
 5524POPC   C3B70017  14.098  31.743   7.001
 5524POPC   C4B70018  13.933  31.362   7.188
 5525POPC   NC370019  11.779  36.210   5.389
 5525POPC   PO470020  12.336  35.998   5.181
 5525POPC   GL170021  12.218  35.951   5.674
 5525POPC   GL270022  11.918  36.105   5.859
 5525POPC   C1A70023  12.342  36.123   6.125
 5525POPC   D2A70024  12.286  36.416   6.488
 5525POPC   C3A70025  12.170  36.176   6.813
 5525POPC   C4A70026  12.211  36.136   7.220
 5525POPC   C1B70027  11.848  36.438   6.197
 5525POPC   C2B70028  11.765  36.529   6.650
 5525POPC   C3B70029  11.793  36.394   7.085
 5525POPC   C4B70030  11.735  35.988   7.165
 5526POPC   NC370031  12.536  12.623   5.403
 5526POPC   PO470032  11.841  12.744   5.457
 5526POPC   GL170033  11.794  12.764   5.894
 5526POPC   GL270034  11.990  12.467   5.939
 5526POPC   C1A70035  11.819  12.757   6.347
 5526POPC   D2A70036  12.105  12.885   6.631
 5526POPC   C3A70037  12.034  13.020   7.036
 5526POPC   C4A70038  12.308  13.169   7.344
 5526POPC   C1B70039  12.324  12.737   6.094
 5526POPC   C2B70040  12.550  12.709   6.482
 5526POPC   C3B70041  12.423  12.573   6.891
 5526POPC   C4B70042  12.219  12.638   7.309
 5527POPC   NC370043   5.415  42.971   5.405
 5527POPC   PO470044   4.688  43.214   5.388
 5527POPC   GL170045   4.871  43.285   5.794
 5527POPC   GL270046   5.027  42.975   5.854
 5527POPC   C1A70047   5.020  43.336   6.232
 5527POPC   D2A70048   5.168  43.021   6.534
 5527POPC   C3A70049   5.050  43.077   6.977
 5527POPC   C4A70050   5.027  43.385   7.332
 5527POPC   C1B70051   4.738  42.908   6.205
 5527POPC   C2B70052   4.576  42.996   6.627
 5527POPC   C3B70053   4.607  42.805   7.034
 5527POPC   C4B70054   4.810  42.923   7.404
 5528POPC   NC370055  27.238  37.617   5.383
 5528POPC   PO470056  26.696  37.833   5.085
 5528POPC   GL170057  26.840  37.837   5.601
 5528POPC   GL270058  26.897  37.504   5.759
 5528POPC   C1A70059  26.720  37.818   6.100
 5528POPC   D2A70060  26.528  37.808   6.540
 5528POPC   C3A70061  26.701  37.597   6.924
 5528POPC   C4A70062  26.604  37.549   7.394
 5528POPC   C1B70063  27.162  37.499   6.108
 5528POPC   C2B70064  27.303  37.512   6.530
 5528POPC   C3B70065  27.222  37.342   6.888
 5528POPC   C4B70066  27.108  37.484   7.259
 5529POPC   NC370067  38.917   7.100   5.471
 5529POPC   PO470068  39.605   7.065   5.306
 5529POPC   GL170069  39.461   6.770   5.665
 5529POPC   GL270070  39.201   6.916   5.870
 5529POPC   C1A70071  39.475   6.575   6.124
 5529POPC   D2A70072  39.387   6.743   6.555
 5529POPC   C3A70073  39.312   6.515   6.922
 5529POPC   C4A70074  39.394   6.490   7.328
 5529POPC   C1B70075  38.971   6.794   6.258
 5529POPC   C2B70076  38.880   6.742   6.726
 5529POPC   C3B70077  38.986   6.954   7.133
 5529POPC   C4B70078  39.090   6.835   7.557
 5530POPC   NC370079  28.449  24.605   5.492
 5530POPC   PO470080  27.813  24.421   5.536
 5530POPC   GL170081  28.115  24.505   5.863
 5530POPC   GL270082  28.274  24.187   5.928
 5530POPC   C1A70083  28.473  24.603   6.177
 5530POPC   D2A70084  28.539  24.417   6.611
 5530POPC   C3A70085  28.559  24.722   6.947
 5530POPC   C4A70086  28.513  24.656   7.383
 5530POPC   C1B70087  28.074  24.346   6.340
 5530POPC   C2B70088  28.066  24.367   6.800
 5530POPC   C3B70089  28.221  24.265   7.200
 5530POPC   C4B70090  28.021  24.207   7.624
 5531POPC   NC370091   4.535   0.084   5.577
 5531POPC   PO470092   4.131  44.620   5.322
 5531POPC   GL170093   4.292  44.652   5.747
 5531POPC   GL270094   4.578  44.452   5.690
 5531POPC   C1A70095   4.326  44.820   6.186
 5531POPC   D2A70096   4.143  44.710   6.586
 5531POPC   C3A70097   4.225  44.815   7.011
 5531POPC   C4A70098   4.012  44.543   7.330
 5531POPC   C1B70099   4.708  44.464   6.124
 5531POPC   C2B70100   4.650  44.526   6.552
 5531POPC   C3B70101   4.787  44.469   6.966
 5531POPC   C4B70102   4.573  44.629   7.307
 5532POPC   NC370103  36.692  32.930   5.502
 5532POPC   PO470104  37.216  32.583   5.761
 5532POPC   GL170105  37.100  33.022   5.894
 5532POPC   GL270106  36.763  33.166   5.944
 5532POPC   C1A70107  37.087  33.146   6.332
 5532POPC   D2A70108  37.398  33.159   6.630
 5532POPC   C3A70109  37.239  33.059   7.018
 5532POPC   C4A70110  37.101  33.335   7.325
 5532POPC   C1B70111  36.546  33.010   6.319
 5532POPC   C2B70112  36.591  32.809   6.723
 5532POPC   C3B70113  36.747  33.038   7.077
 5532POPC   C4B70114  36.587  33.102   7.480
 5533POPC   NC370115  21.069  35.954   5.507
 5533POPC   PO470116  21.670  36.188   5.292
 5533POPC   GL170117  21.466  36.177   5.729
 5533POPC   GL270118  21.357  36.528   5.721
 5533POPC   C1A70119  21.308  35.936   6.148
 5533POPC   D2A70120  21.521  35.798   6.545
 5533POPC   C3A70121  21.296  35.753   6.960
 5533POPC   C4A70122  21.322  36.086   7.302
 5533POPC   C1B70123  21.155  36.409   6.123
 5533POPC   C2B70124  21.168  36.258   6.569
 5533POPC   C3B70125  21.065  36.406   7.006
 5533POPC   C4B70126  21.003  36.531   7.455
 5534POPC   NC370127  19.885  38.309   5.381
 5534POPC   PO470128  20.208  38.871   5.356
 5534POPC   GL170129  20.083  38.630   5.748
 5534POPC   GL270130  19.695  38.560   5.810
 5534POPC   C1A70131  20.015  38.687   6.202
 5534POPC   D2A70132  20.091  38.447   6.570
 5534POPC   C3A70133  20.000  38.693   6.925
 5534POPC   C4A70134  20.085  38.503   7.322
 5534POPC   C1B70135  19.675  38.288   6.201
 5534POPC   C2B70136  19.587  38.444   6.628
 5534POPC   C3B70137  19.713  38.299   7.041
 5534POPC   C4B70138  19.516  38.353   7.427
 5535POPC   NC370139  10.249  34.501   5.231
 5535POPC   PO470140  10.668  34.881   5.594
 5535POPC   GL170141  10.527  34.416   5.699
 5535POPC   GL270142  10.422  34.593   5.918
 5535POPC   C1A70143  10.605  34.207   6.152
 5535POPC   D2A70144  10.610  34.455   6.551
 5535POPC   C3A70145  10.451  34.239   6.949
 5535POPC   C4A70146  10.420  34.430   7.381
 5535POPC   C1B70147  10.467  34.899   6.226
 5535POPC   C2B70148  10.297  34.875   6.609
 5535POPC   C3B70149  10.430  34.745   6.974
 5535POPC   C4B70150  10.252  34.889   7.316
 5536POPC   NC370151   9.570  17.903   5.508
 5536POPC   PO470152   9.146  18.425   5.372
 5536POPC   GL170153   9.011  18.272   5.786
 5536POPC   GL270154   9.192  17.985   5.856
 5536POPC   C1A70155   8.821  18.230   6.190
 5536POPC   D2A70156   8.618  18.302   6.577
 5536POPC   C3A70157   8.804  18.558   6.882
 5536POPC   C4A70158   8.890  18.462   7.303
 5536POPC   C1B70159   9.251  17.942   6.295
 5536POPC   C2B70160   9.127  18.198   6.628
 5536POPC   C3B70161   8.949  18.067   6.994
 5536POPC   C4B70162   9.272  18.097   7.314
 5537POPC   NC370163  32.616  23.451   5.228
 5537POPC   PO470164  32.063  23.935   5.302
 5537POPC   GL170165  32.045  23.773   5.732
 5537POPC   GL270166  32.347  23.942   5.870
 5537POPC   C1A70167  32.077  23.593   6.160
 5537POPC   D2A70168  32.276  23.787   6.527
 5537POPC   C3A70169  32.302  23.641   6.953
 5537POPC   C4A70170  31.949  23.516   7.195
 5537POPC   C1B70171  32.501  24.145   6.250
 5537POPC   C2B70172  32.629  24.103   6.704
 5537POPC   C3B70173  32.597  24.038   7.147
 5537POPC   C4B70174  32.688  24.094   7.590
 5538POPC   NC370175  15.139  25.586   5.578
 5538POPC   PO470176  14.867  25.037   5.518
 5538POPC   GL170177  15.169  25.127   5.826
 5538POPC   GL270178  15.501  25.309   5.806
 5538POPC   C1A70179  15.147  25.269   6.235
 5538POPC   D2A70180  15.132  25.045   6.603
 5538POPC   C3A70181  15.079  25.224   6.980
 5538POPC   C4A70182  15.323  25.037   7.261
 5538POPC   C1B70183  15.616  25.418   6.197
 5538POPC   C2B70184  15.444  25.445   6.611
 5538POPC   C3B70185  15.592  25.401   7.013
 5538POPC   C4B70186  15.313  25.558   7.275
 5539POPC   NC370187   6.396   2.176   5.543
 5539POPC   PO470188   6.981   1.887   5.403
 5539POPC   GL170189   6.762   1.824   5.772
 5539POPC   GL270190   6.814   2.171   5.864
 5539POPC   C1A70191   6.505   1.914   6.169
 5539POPC   D2A70192   6.638   2.184   6.519
 5539POPC   C3A70193   6.493   2.091   6.955
 5539POPC   C4A70194   6.490   2.316   7.338
 5539POPC   C1B70195   7.028   1.937   6.216
 5539POPC   C2B70196   7.252   1.843   6.614
 5539POPC   C3B70197   7.177   1.833   7.058
 5539POPC   C4B70198   6.844   1.926   7.320
 5540POPC   NC370199  39.633  44.559   5.468
 5540POPC   PO470200  40.292  44.828   5.375
 5540POPC   GL170201  40.072  44.659   5.726
 5540POPC   GL270202  40.005  44.301   5.722
 5540POPC   C1A70203  39.924  44.761   6.132
 5540POPC   D2A70204  40.213  44.856   6.482
 5540POPC   C3A70205  40.089  44.718   6.905
 5540POPC   C4A70206  39.998  44.947   7.284
 5540POPC   C1B70207  39.664  44.222   6.038
 5540POPC   C2B70208  39.685  44.061   6.462
 5540POPC   C3B70209  39.813  44.221   6.861
 5540POPC   C4B70210  39.719  44.510   7.196
 5541POPC   NC370211  15.684  16.364   5.608
 5541POPC   PO470212  16.191  15.891   5.414
 5541POPC   GL170213  15.922  15.922   5.763
 5541POPC   GL270214  15.703  15.655   5.802
 5541POPC   C1A70215  15.874  16.006   6.198
 5541POPC   D2A70216  16.035  16.082   6.614
 5541POPC   C3A70217  15.805  16.033   6.968
 5541POPC   C4A70218  16.037  16.131   7.302
 5541POPC   C1B70219  15.950  15.507   6.150
 5541POPC   C2B70220  15.860  15.602   6.579
 5541POPC   C3B70221  16.124  15.627   6.922
 5541POPC   C4B70222  15.970  15.644   7.291
 5542POPC   NC370223  26.080  26.648   5.632
 5542POPC   PO470224  26.358  27.188   5.710
 5542POPC   GL170225  26.094  26.978   6.020
 5542POPC   GL270226  25.706  26.910   5.898
 5542POPC   C1A70227  26.098  26.731   6.414
 5542POPC   D2A70228  26.418  26.489   6.651
 5542POPC   C3A70229  26.346  26.526   7.090
 5542POPC   C4A70230  26.330  26.858   7.389
 5542POPC   C1B70231  25.711  27.085   6.329
 5542POPC   C2B70232  25.964  27.174   6.711
 5542POPC   C3B70233  25.961  26.852   7.005
 5542POPC   C4B70234  25.610  26.667   7.147
 5543POPC   NC370235  43.804  26.452   5.651
 5543POPC   PO470236  44.205  27.041   5.581
 5543POPC   GL170237  43.966  26.875   5.912
 5543POPC   GL270238  43.626  26.939   5.857
 5543POPC   C1A70239  43.764  26.653   6.269
 5543POPC   D2A70240  43.821  26.446   6.648
 5543POPC   C3A70241  43.762  26.717   6.992
 5543POPC   C4A70242  44.012  26.769   7.367
 5543POPC   C1B70243  43.363  26.981   6.196
 5543POPC   C2B70244  43.502  26.988   6.615
 5543POPC   C3B70245  43.489  27.230   6.969
 5543POPC   C4B70246  43.567  27.035   7.345
 5544POPC   NC370247  31.424   6.865   4.897
 5544POPC   PO470248  31.664   6.392   5.362
 5544POPC   GL170249  31.476   6.558   5.745
 5544POPC   GL270250  31.119   6.449   5.740
 5544POPC   C1A70251  31.555   6.719   6.169
 5544POPC   D2A70252  31.465   6.430   6.507
 5544POPC   C3A70253  31.549   6.592   6.888
 5544POPC   C4A70254  31.792   6.495   7.210
 5544POPC   C1B70255  31.075   6.564   6.177
 5544POPC   C2B70256  31.051   6.717   6.606
 5544POPC   C3B70257  31.117   6.821   7.028
 5544POPC   C4B70258  31.352   6.658   7.366
 5545POPC   NC370259  34.791   5.388   5.214
 5545POPC   PO470260  34.554   4.745   5.277
 5545POPC   GL170261  34.710   4.869   5.710
 5545POPC   GL270262  34.733   5.238   5.730
 5545POPC   C1A70263  34.574   4.815   6.154
 5545POPC   D2A70264  34.482   4.689   6.572
 5545POPC   C3A70265  34.754   4.841   6.896
 5545POPC   C4A70266  34.622   4.849   7.342
 5545POPC   C1B70267  34.496   5.326   6.123
 5545POPC   C2B70268  34.504   5.220   6.568
 5545POPC   C3B70269  34.659   5.325   6.998
 5545POPC   C4B70270  34.751   5.688   7.219
 5546POPC   NC370271  26.619   0.133   5.227
 5546POPC   PO470272  26.339   0.625   5.573
 5546POPC   GL170273  26.066   0.513   5.924
 5546POPC   GL270274  25.734   0.578   5.785
 5546POPC   C1A70275  26.123   0.482   6.378
 5546POPC   D2A70276  26.269   0.141   6.674
 5546POPC   C3A70277  26.039   0.237   7.021
 5546POPC   C4A70278  25.976   0.698   7.113
 5546POPC   C1B70279  25.574   0.423   6.165
 5546POPC   C2B70280  25.676   0.344   6.587
 5546POPC   C3B70281  25.524   0.445   6.965
 5546POPC   C4B70282  25.672   0.368   7.355
 5547POPC   NC370283  38.889  40.941   5.552
 5547POPC   PO470284  38.256  40.766   5.536
 5547POPC   GL170285  38.433  40.529   5.842
 5547POPC   GL270286  38.106  40.352   5.897
 5547POPC   C1A70287  38.642  40.743   6.211
 5547POPC   D2A70288  38.581  41.056   6.545
 5547POPC   C3A70289  38.586  40.832   6.942
 5547POPC   C4A70290  38.811  40.832   7.321
 5547POPC   C1B70291  38.094  40.675   6.210
 5547POPC   C2B70292  38.290  40.620   6.577
 5547POPC   C3B70293  38.263  40.409   6.949
 5547POPC   C4B70294  38.201  40.516   7.359
 5548POPC   NC370295  26.920   1.044   5.305
 5548POPC   PO470296  26.411   1.538   5.562
 5548POPC   GL170297  26.584   1.374   5.878
 5548POPC   GL270298  26.902   1.318   5.741
 5548POPC   C1A70299  26.692   1.231   6.248
 5548POPC   D2A70300  26.783   1.049   6.609
 5548POPC   C3A70301  26.779   1.349   6.935
 5548POPC   C4A70302  26.835   1.149   7.332
 5548POPC   C1B70303  27.167   1.378   6.123
 5548POPC   C2B70304  27.290   1.181   6.522
 5548POPC   C3B70305  27.260   1.154   6.956
 5548POPC   C4B70306  27.213   1.531   7.202
 5549POPC   NC370307   3.594  32.587   4.937
 5549POPC   PO470308   3.774  32.143   5.463
 5549POPC   GL170309   3.692  32.357   5.873
 5549POPC   GL270310   3.459  32.121   5.877
 5549POPC   C1A70311   3.419  32.392   6.278
 5549POPC   D2A70312   3.299  32.456   6.680
 5549POPC   C3A70313   3.257  32.180   7.008
 5549POPC   C4A70314   3.496  32.120   7.392
 5549POPC   C1B70315   3.731  31.977   6.224
 5549POPC   C2B70316   3.711  32.124   6.631
 5549POPC   C3B70317   3.674  31.890   6.987
 5549POPC   C4B70318   3.803  31.670   7.330
 5550POPC   NC370319  26.365   9.881   5.487
 5550POPC   PO470320  27.019   9.967   5.597
 5550POPC   GL170321  26.692   9.877   5.868
 5550POPC   GL270322  26.596   9.507   5.800
 5550POPC   C1A70323  26.687   9.934   6.295
 5550POPC   D2A70324  27.112   9.942   6.477
 5550POPC   C3A70325  27.128   9.793   6.910
 5550POPC   C4A70326  26.840   9.981   7.162
 5550POPC   C1B70327  26.939   9.517   6.148
 5550POPC   C2B70328  26.796   9.527   6.588
 5550POPC   C3B70329  26.618   9.531   7.010
 5550POPC   C4B70330  26.515   9.237   7.327
 5551POPC   NC370331  11.671   8.712   5.559
 5551POPC   PO470332  11.310   9.323   5.525
 5551POPC   GL170333  11.437   9.172   5.905
 5551POPC   GL270334  11.308   8.811   5.978
 5551POPC   C1A70335  11.220   9.291   6.282
 5551POPC   D2A70336  11.029   9.170   6.663
 5551POPC   C3A70337  11.358   9.003   6.922
 5551POPC   C4A70338  11.429   9.053   7.355
 5551POPC   C1B70339  11.058   8.565   6.310
 5551POPC   C2B70340  10.965   8.663   6.758
 5551POPC   C3B70341  11.055   8.668   7.176
 5551POPC   C4B70342  11.469   8.557   7.287
 5552POPC   NC370343  33.340  11.272   5.160
 5552POPC   PO470344  32.757  11.051   5.329
 5552POPC   GL170345  32.983  11.294   5.686
 5552POPC   GL270346  33.012  11.657   5.715
 5552POPC   C1A70347  33.038  11.192   6.154
 5552POPC   D2A70348  32.812  11.241   6.562
 5552POPC   C3A70349  33.156  11.212   6.872
 5552POPC   C4A70350  33.428  10.939   7.175
 5552POPC   C1B70351  32.757  11.606   6.107
 5552POPC   C2B70352  32.866  11.758   6.536
 5552POPC   C3B70353  32.773  11.631   6.964
 5552POPC   C4B70354  33.092  11.519   7.284
 5553POPC   NC370355   9.280   7.557   5.418
 5553POPC   PO470356   9.939   7.466   5.475
 5553POPC   GL170357   9.743   7.466   5.827
 5553POPC   GL270358   9.496   7.219   5.756
 5553POPC   C1A70359   9.841   7.548   6.257
 5553POPC   D2A70360   9.911   7.329   6.608
 5553POPC   C3A70361   9.929   7.601   6.963
 5553POPC   C4A70362   9.761   7.508   7.350
 5553POPC   C1B70363   9.679   7.086   6.170
 5553POPC   C2B70364   9.525   6.986   6.585
 5553POPC   C3B70365   9.633   7.139   7.005
 5553POPC   C4B70366   9.368   7.207   7.393
 5554POPC   NC370367  42.327   3.776   5.536
 5554POPC   PO470368  42.068   3.181   5.448
 5554POPC   GL170369  42.301   3.257   5.851
 5554POPC   GL270370  42.256   3.597   5.990
 5554POPC   C1A70371  42.167   3.263   6.322
 5554POPC   D2A70372  42.037   3.388   6.717
 5554POPC   C3A70373  42.341   3.291   7.034
 5554POPC   C4A70374  42.433   3.468   7.421
 5554POPC   C1B70375  42.189   3.826   6.379
 5554POPC   C2B70376  42.454   4.023   6.684
 5554POPC   C3B70377  42.349   3.824   7.032
 5554POPC   C4B70378  42.097   3.924   7.324
 5555POPC   NC370379  11.583  28.849   5.462
 5555POPC   PO470380  10.966  29.237   5.461
 5555POPC   GL170381  11.194  28.999   5.810
 5555POPC   GL270382  11.585  29.038   5.922
 5555POPC   C1A70383  11.204  28.977   6.276
 5555POPC   D2A70384  11.166  29.147   6.707
 5555POPC   C3A70385  11.255  28.896   7.093
 5555POPC   C4A70386  11.553  28.963   7.444
 5555POPC   C1B70387  11.464  29.435   6.116
 5555POPC   C2B70388  11.529  29.552   6.561
 5555POPC   C3B70389  11.590  29.349   6.985
 5555POPC   C4B70390  11.558  29.502   7.409
 5556POPC   NC370391  30.294  28.637   5.394
 5556POPC   PO470392  30.946  28.385   5.312
 5556POPC   GL170393  30.750  28.500   5.682
 5556POPC   GL270394  30.438  28.325   5.794
 5556POPC   C1A70395  30.838  28.461   6.108
 5556POPC   D2A70396  30.659  28.582   6.510
 5556POPC   C3A70397  30.863  28.521   6.880
 5556POPC   C4A70398  30.620  28.300   7.153
 5556POPC   C1B70399  30.342  28.692   6.097
 5556POPC   C2B70400  30.248  28.888   6.549
 5556POPC   C3B70401  30.345  28.705   6.989
 5556POPC   C4B70402  30.317  28.567   7.476
 5557POPC   NC370403   1.779  25.580   5.521
 5557POPC   PO470404   2.220  25.019   5.413
 5557POPC   GL170405   2.000  25.169   5.776
 5557POPC   GL270406   2.173  25.454   5.847
 5557POPC   C1A70407   1.904  25.178   6.231
 5557POPC   D2A70408   2.146  25.241   6.621
 5557POPC   C3A70409   1.904  25.229   7.005
 5557POPC   C4A70410   1.635  24.890   7.164
 5557POPC   C1B70411   2.238  25.634   6.269
 5557POPC   C2B70412   2.418  25.684   6.675
 5557POPC   C3B70413   2.258  25.638   7.096
 5557POPC   C4B70414   2.057  25.794   7.503
 5558POPC   NC370415  44.887  20.409   5.328
 5558POPC   PO470416  44.506  20.836   5.489
 5558POPC   GL170417  44.754  20.644   5.819
 5558POPC   GL270418  44.846  20.921   6.031
 5558POPC   C1A70419  44.813  20.406   6.227
 5558POPC   D2A70420  44.975  20.522   6.671
 5558POPC   C3A70421  44.797  20.436   7.078
 5558POPC   C4A70422  44.921  20.660   7.451
 5558POPC   C1B70423  44.662  20.841   6.428
 5558POPC   C2B70424  44.527  20.794   6.842
 5558POPC   C3B70425  44.422  20.889   7.265
 5558POPC   C4B70426  44.297  21.003   7.676
 5559POPC   NC370427  22.025  34.500   5.169
 5559POPC   PO470428  22.389  34.843   5.588
 5559POPC   GL170429  22.101  34.564   5.828
 5559POPC   GL270430  21.840  34.754   5.756
 5559POPC   C1A70431  21.968  34.449   6.280
 5559POPC   D2A70432  22.130  34.443   6.714
 5559POPC   C3A70433  22.249  34.808   7.001
 5559POPC   C4A70434  22.106  34.499   7.269
 5559POPC   C1B70435  21.746  34.881   6.148
 5559POPC   C2B70436  21.951  34.904   6.553
 5559POPC   C3B70437  21.757  34.779   6.938
 5559POPC   C4B70438  21.788  34.908   7.364
 5560POPC   NC370439  42.526  39.319   5.322
 5560POPC   PO470440  42.655  38.765   5.609
 5560POPC   GL170441  42.400  39.091   5.848
 5560POPC   GL270442  42.269  39.467   5.794
 5560POPC   C1A70443  42.286  39.164   6.298
 5560POPC   D2A70444  42.161  39.097   6.734
 5560POPC   C3A70445  42.461  39.037   7.079
 5560POPC   C4A70446  42.542  39.284   7.470
 5560POPC   C1B70447  42.127  39.639   6.224
 5560POPC   C2B70448  41.998  39.580   6.661
 5560POPC   C3B70449  42.219  39.504   7.058
 5560POPC   C4B70450  42.172  39.624   7.482
 5561POPC   NC370451  40.296   9.050   5.456
 5561POPC   PO470452  39.701   9.423   5.442
 5561POPC   GL170453  39.902   9.309   5.829
 5561POPC   GL270454  40.288   9.385   5.851
 5561POPC   C1A70455  39.769   9.008   6.169
 5561POPC   D2A70456  39.638   9.036   6.609
 5561POPC   C3A70457  39.857   8.770   6.884
 5561POPC   C4A70458  39.797   8.827   7.314
 5561POPC   C1B70459  40.156   9.311   6.275
 5561POPC   C2B70460  40.156   9.154   6.676
 5561POPC   C3B70461  40.022   9.217   7.073
 5561POPC   C4B70462  40.262   9.014   7.364
 5562POPC   NC370463   1.748  18.196   5.275
 5562POPC   PO470464   2.310  17.989   5.553
 5562POPC   GL170465   2.062  18.295   5.820
 5562POPC   GL270466   2.143  18.039   6.048
 5562POPC   C1A70467   1.886  18.420   6.261
 5562POPC   D2A70468   2.121  18.398   6.684
 5562POPC   C3A70469   1.989  18.327   7.107
 5562POPC   C4A70470   2.086  18.054   7.467
 5562POPC   C1B70471   1.827  17.920   6.357
 5562POPC   C2B70472   1.695  18.116   6.705
 5562POPC   C3B70473   1.703  17.916   7.075
 5562POPC   C4B70474   1.568  18.182   7.388
 5563POPC   NC370475   4.527  23.401   5.520
 5563POPC   PO470476   3.974  23.851   5.541
 5563POPC   GL170477   4.264  23.769   5.804
 5563POPC   GL270478   4.142  23.479   5.874
 5563POPC   C1A70479   4.470  23.915   6.166
 5563POPC   D2A70480   4.471  23.751   6.566
 5563POPC   C3A70481   4.388  23.919   6.934
 5563POPC   C4A70482   4.507  23.771   7.312
 5563POPC   C1B70483   4.068  23.601   6.270
 5563POPC   C2B70484   4.054  23.434   6.676
 5563POPC   C3B70485   4.050  23.561   7.097
 5563POPC   C4B70486   4.127  23.503   7.528
 5564POPC   NC370487  21.580  22.641   5.253
 5564POPC   PO470488  21.717  23.346   5.482
 5564POPC   GL170489  21.525  23.185   5.858
 5564POPC   GL270490  21.361  22.850   5.835
 5564POPC   C1A70491  21.596  23.017   6.285
 5564POPC   D2A70492  21.786  22.737   6.591
 5564POPC   C3A70493  21.572  22.759   6.992
 5564POPC   C4A70494  21.436  23.172   7.091
 5564POPC   C1B70495  21.157  22.740   6.251
 5564POPC   C2B70496  21.227  22.954   6.654
 5564POPC   C3B70497  20.971  22.996   6.997
 5564POPC   C4B70498  20.985  22.585   7.123
 5565POPC   NC370499  34.809   3.002   5.332
 5565POPC   PO470500  34.277   2.567   5.404
 5565POPC   GL170501  34.424   2.578   5.846
 5565POPC   GL270502  34.715   2.767   5.811
 5565POPC   C1A70503  34.446   2.781   6.275
 5565POPC   D2A70504  34.246   2.838   6.682
 5565POPC   C3A70505  34.510   3.002   6.998
 5565POPC   C4A70506  34.685   2.654   7.180
 5565POPC   C1B70507  34.936   2.912   6.204
 5565POPC   C2B70508  34.944   2.753   6.652
 5565POPC   C3B70509  35.151   2.791   7.057
 5565POPC   C4B70510  35.125   3.076   7.397
 5566POPC   NC370511  31.768  29.034   5.345
 5566POPC   PO470512  31.169  29.290   5.369
 5566POPC   GL170513  31.417  29.119   5.733
 5566POPC   GL270514  31.132  28.882   5.838
 5566POPC   C1A70515  31.696  29.263   6.172
 5566POPC   D2A70516  31.818  29.429   6.629
 5566POPC   C3A70517  31.662  29.151   6.993
 5566POPC   C4A70518  31.261  28.872   7.055
 5566POPC   C1B70519  31.188  29.213   6.163
 5566POPC   C2B70520  31.335  29.229   6.572
 5566POPC   C3B70521  31.162  29.368   6.927
 5566POPC   C4B70522  31.018  29.266   7.314
 5567POPC   NC370523  11.893  19.097   5.352
 5567POPC   PO470524  12.094  18.634   5.750
 5567POPC   GL170525  11.972  19.071   5.855
 5567POPC   GL270526  12.171  19.395   5.833
 5567POPC   C1A70527  11.785  19.326   6.175
 5567POPC   D2A70528  11.724  19.423   6.614
 5567POPC   C3A70529  11.934  19.169   6.917
 5567POPC   C4A70530  12.159  19.248   7.272
 5567POPC   C1B70531  12.355  19.148   6.204
 5567POPC   C2B70532  12.635  19.010   6.560
 5567POPC   C3B70533  12.479  18.935   7.005
 5567POPC   C4B70534  12.121  18.718   7.206
 5568POPC   NC370535   6.287  24.715   5.618
 5568POPC   PO470536   5.732  24.374   5.342
 5568POPC   GL170537   5.851  24.474   5.756
 5568POPC   GL270538   5.796  24.837   5.711
 5568POPC   C1A70539   6.069  24.353   6.167
 5568POPC   D2A70540   6.171  24.187   6.573
 5568POPC   C3A70541   5.953  24.283   6.962
 5568POPC   C4A70542   6.160  24.307   7.368
 5568POPC   C1B70543   5.761  24.753   6.178
 5568POPC   C2B70544   5.928  24.688   6.608
 5568POPC   C3B70545   5.748  24.742   7.037
 5568POPC   C4B70546   5.684  24.485   7.372
 5569POPC   NC370547  18.085  11.922   5.045
 5569POPC   PO470548  18.447  12.364   5.405
 5569POPC   GL170549  18.365  12.119   5.756
 5569POPC   GL270550  18.058  11.947   5.735
 5569POPC   C1A70551  18.557  12.019   6.141
 5569POPC   D2A70552  18.483  11.771   6.478
 5569POPC   C3A70553  18.280  11.877   6.820
 5569POPC   C4A70554  18.419  11.981   7.224
 5569POPC   C1B70555  18.057  11.940   6.200
 5569POPC   C2B70556  17.924  12.178   6.593
 5569POPC   C3B70557  17.911  12.107   7.067
 5569POPC   C4B70558  18.003  11.763   7.395
 5570POPC   NC370559  17.455   4.106   5.094
 5570POPC   PO470560  17.547   4.709   5.382
 5570POPC   GL170561  17.435   4.453   5.788
 5570POPC   GL270562  17.722   4.308   5.915
 5570POPC   C1A70563  17.362   4.460   6.265
 5570POPC   D2A70564  17.207   4.547   6.693
 5570POPC   C3A70565  17.192   4.260   7.027
 5570POPC   C4A70566  17.476   4.485   7.330
 5570POPC   C1B70567  17.514   3.970   6.191
 5570POPC   C2B70568  17.464   4.079   6.617
 5570POPC   C3B70569  17.681   4.164   6.981
 5570POPC   C4B70570  17.768   3.820   7.196
 5571POPC   NC370571  23.096  39.579   5.186
 5571POPC   PO470572  22.950  38.981   5.518
 5571POPC   GL170573  22.719  39.119   5.847
 5571POPC   GL270574  22.617  39.473   5.826
 5571POPC   C1A70575  22.801  38.932   6.237
 5571POPC   D2A70576  23.018  39.022   6.591
 5571POPC   C3A70577  22.780  38.939   6.944
 5571POPC   C4A70578  22.908  39.047   7.323
 5571POPC   C1B70579  22.825  39.432   6.247
 5571POPC   C2B70580  23.098  39.569   6.559
 5571POPC   C3B70581  23.049  39.396   6.959
 5571POPC   C4B70582  23.008  39.578   7.399
 5572POPC   NC370583   3.113   5.366   5.684
 5572POPC   PO470584   3.505   4.926   5.330
 5572POPC   GL170585   3.597   5.154   5.748
 5572POPC   GL270586   3.337   4.967   5.937
 5572POPC   C1A70587   3.603   5.321   6.215
 5572POPC   D2A70588   3.569   5.169   6.695
 5572POPC   C3A70589   3.550   5.477   7.088
 5572POPC   C4A70590   3.317   5.444   7.529
 5572POPC   C1B70591   3.712   4.817   6.181
 5572POPC   C2B70592   3.689   4.625   6.589
 5572POPC   C3B70593   3.386   4.702   6.901
 5572POPC   C4B70594   3.378   5.024   7.204
 5573POPC   NC370595  36.531   5.348   5.034
 5573POPC   PO470596  36.024   5.424   5.499
 5573POPC   GL170597  36.079   5.049   5.825
 5573POPC   GL270598  36.322   4.850   5.707
 5573POPC   C1A70599  35.992   4.839   6.205
 5573POPC   D2A70600  35.962   5.043   6.611
 5573POPC   C3A70601  35.863   4.855   7.015
 5573POPC   C4A70602  35.849   5.205   7.337
 5573POPC   C1B70603  36.518   4.837   6.110
 5573POPC   C2B70604  36.454   4.836   6.519
 5573POPC   C3B70605  36.370   4.936   6.912
 5573POPC   C4B70606  36.649   5.093   7.190
 5574POPC   NC370607  36.804  26.721   5.381
 5574POPC   PO470608  37.331  26.952   5.475
 5574POPC   GL170609  37.057  26.782   5.849
 5574POPC   GL270610  36.734  26.536   5.861
 5574POPC   C1A70611  36.857  27.041   6.188
 5574POPC   D2A70612  36.697  27.009   6.620
 5574POPC   C3A70613  36.986  27.100   6.943
 5574POPC   C4A70614  36.934  26.942   7.338
 5574POPC   C1B70615  36.846  26.539   6.294
 5574POPC   C2B70616  37.076  26.654   6.628
 5574POPC   C3B70617  36.919  26.560   7.015
 5574POPC   C4B70618  37.167  26.493   7.372
 5575POPC   NC370619   2.532  25.732   5.512
 5575POPC   PO470620   3.095  25.998   5.238
 5575POPC   GL170621   2.983  25.888   5.731
 5575POPC   GL270622   2.804  26.169   5.827
 5575POPC   C1A70623   2.704  25.852   6.187
 5575POPC   D2A70624   2.879  25.897   6.611
 5575POPC   C3A70625   2.646  26.058   6.976
 5575POPC   C4A70626   2.545  25.946   7.387
 5575POPC   C1B70627   3.152  26.109   6.176
 5575POPC   C2B70628   3.325  26.344   6.552
 5575POPC   C3B70629   3.174  26.190   6.947
 5575POPC   C4B70630   2.991  26.168   7.368
 5576POPC   NC370631  12.710  32.686   5.314
 5576POPC   PO470632  12.705  33.387   5.432
 5576POPC   GL170633  12.741  33.186   5.821
 5576POPC   GL270634  12.500  32.885   5.788
 5576POPC   C1A70635  13.081  33.367   6.116
 5576POPC   D2A70636  13.183  33.471   6.571
 5576POPC   C3A70637  13.025  33.204   6.918
 5576POPC   C4A70638  12.969  33.274   7.369
 5576POPC   C1B70639  12.679  32.862   6.231
 5576POPC   C2B70640  12.771  32.698   6.654
 5576POPC   C3B70641  12.721  32.806   7.082
 5576POPC   C4B70642  12.833  32.551   7.419
 5577POPC   NC370643  19.089  15.777   5.564
 5577POPC   PO470644  18.835  16.387   5.487
 5577POPC   GL170645  18.896  16.124   5.880
 5577POPC   GL270646  19.259  16.091   6.002
 5577POPC   C1A70647  18.911  15.892   6.305
 5577POPC   D2A70648  19.272  16.003   6.563
 5577POPC   C3A70649  19.263  16.161   6.979
 5577POPC   C4A70650  18.910  16.066   7.240
 5577POPC   C1B70651  19.374  15.654   6.180
 5577POPC   C2B70652  19.255  15.482   6.585
 5577POPC   C3B70653  18.958  15.642   6.868
 5577POPC   C4B70654  19.246  15.683   7.177
 5578POPC   NC370655  14.276  36.648   5.515
 5578POPC   PO470656  14.302  37.275   5.561
 5578POPC   GL170657  14.407  37.011   5.901
 5578POPC   GL270658  14.247  36.685   6.018
 5578POPC   C1A70659  14.594  37.096   6.298
 5578POPC   D2A70660  14.386  37.042   6.674
 5578POPC   C3A70661  14.543  37.125   7.079
 5578POPC   C4A70662  14.170  37.063   7.323
 5578POPC   C1B70663  14.709  36.614   6.094
 5578POPC   C2B70664  14.943  36.730   6.471
 5578POPC   C3B70665  14.716  36.676   6.857
 5578POPC   C4B70666  14.477  36.652   7.265
 5579POPC   NC370667  19.737  36.031   5.489
 5579POPC   PO470668  20.318  35.775   5.289
 5579POPC   GL170669  20.193  35.926   5.789
 5579POPC   GL270670  19.954  36.208   5.905
 5579POPC   C1A70671  19.981  35.829   6.221
 5579POPC   D2A70672  19.900  36.153   6.546
 5579POPC   C3A70673  19.858  35.979   6.919
 5579POPC   C4A70674  19.948  35.895   7.337
 5579POPC   C1B70675  19.563  36.242   6.144
 5579POPC   C2B70676  19.408  36.206   6.585
 5579POPC   C3B70677  19.538  36.416   6.924
 5579POPC   C4B70678  19.825  36.386   7.264
 5580POPC   NC370679  18.603  32.858   5.491
 5580POPC   PO470680  19.217  32.470   5.420
 5580POPC   GL170681  19.173  32.183   5.792
 5580POPC   GL270682  18.813  32.296   5.884
 5580POPC   C1A70683  19.092  31.961   6.200
 5580POPC   D2A70684  18.723  32.100   6.443
 5580POPC   C3A70685  18.801  32.225   6.852
 5580POPC   C4A70686  19.007  32.115   7.220
 5580POPC   C1B70687  19.055  32.473   6.227
 5580POPC   C2B70688  19.249  32.364   6.627
 5580POPC   C3B70689  19.285  32.529   7.084
 5580POPC   C4B70690  19.275  32.396   7.547
 5581POPC   NC370691  29.121  20.242   5.306
 5581POPC   PO470692  29.207  19.583   5.337
 5581POPC   GL170693  29.021  19.604   5.782
 5581POPC   GL270694  29.242  19.790   5.970
 5581POPC   C1A70695  28.800  19.749   6.191
 5581POPC   D2A70696  28.885  20.012   6.574
 5581POPC   C3A70697  28.969  19.906   7.010
 5581POPC   C4A70698  28.802  19.807   7.460
 5581POPC   C1B70699  29.143  19.389   6.264
 5581POPC   C2B70700  29.085  19.301   6.724
 5581POPC   C3B70701  29.174  19.472   7.153
 5581POPC   C4B70702  29.294  19.673   7.555
 5582POPC   NC370703  29.463  37.823   5.467
 5582POPC   PO470704  29.145  37.278   5.433
 5582POPC   GL170705  29.006  37.497   5.787
 5582POPC   GL270706  28.685  37.340   5.870
 5582POPC   C1A70707  29.217  37.615   6.180
 5582POPC   D2A70708  29.206  37.362   6.531
 5582POPC   C3A70709  29.419  37.374   6.900
 5582POPC   C4A70710  29.288  37.538   7.306
 5582POPC   C1B70711  28.684  37.663   6.214
 5582POPC   C2B70712  28.851  37.741   6.677
 5582POPC   C3B70713  28.823  37.702   7.154
 5582POPC   C4B70714  29.039  37.917   7.535
 5583POPC   NC370715  27.446  11.131   5.470
 5583POPC   PO470716  27.716  11.779   5.514
 5583POPC   GL170717  27.614  11.461   5.873
 5583POPC   GL270718  27.306  11.251   5.937
 5583POPC   C1A70719  27.511  11.466   6.337
 5583POPC   D2A70720  27.351  11.387   6.735
 5583POPC   C3A70721  27.687  11.249   6.977
 5583POPC   C4A70722  27.825  11.406   7.384
 5583POPC   C1B70723  27.241  11.024   6.349
 5583POPC   C2B70724  27.241  10.856   6.730
 5583POPC   C3B70725  27.270  10.993   7.141
 5583POPC   C4B70726  27.307  10.761   7.504
 5584POPC   NC370727  23.331  38.768   5.269
 5584POPC   PO470728  23.768  38.227   5.403
 5584POPC   GL170729  23.738  38.590   5.702
 5584POPC   GL270730  24.073  38.779   5.672
 5584POPC   C1A70731  23.573  38.562   6.151
 5584POPC   D2A70732  23.614  38.329   6.572
 5584POPC   C3A70733  23.617  38.498   7.000
 5584POPC   C4A70734  23.718  38.332   7.398
 5584POPC   C1B70735  24.085  38.882   6.108
 5584POPC   C2B70736  23.861  38.801   6.506
 5584POPC   C3B70737  23.973  38.850   6.916
 5584POPC   C4B70738  23.782  38.920   7.287
 5585POPC   NC370739  32.418  26.781   5.310
 5585POPC   PO470740  32.382  27.308   5.774
 5585POPC   GL170741  32.245  26.924   5.877
 5585POPC   GL270742  32.526  26.723   5.819
 5585POPC   C1A70743  32.048  26.921   6.280
 5585POPC   D2A70744  32.103  27.140   6.678
 5585POPC   C3A70745  32.020  26.858   6.978
 5585POPC   C4A70746  32.144  26.742   7.375
 5585POPC   C1B70747  32.555  26.764   6.255
 5585POPC   C2B70748  32.503  26.616   6.664
 5585POPC   C3B70749  32.533  26.801   7.046
 5585POPC   C4B70750  32.688  26.936   7.446
 5586POPC   NC370751  41.784   6.235   5.579
 5586POPC   PO470752  41.237   6.145   5.224
 5586POPC   GL170753  41.413   5.966   5.756
 5586POPC   GL270754  41.483   5.579   5.819
 5586POPC   C1A70755  41.707   5.960   6.160
 5586POPC   D2A70756  41.916   5.856   6.589
 5586POPC   C3A70757  41.698   5.969   6.958
 5586POPC   C4A70758  41.680   5.693   7.306
 5586POPC   C1B70759  41.290   5.581   6.215
 5586POPC   C2B70760  41.388   5.888   6.538
 5586POPC   C3B70761  41.244   6.188   6.816
 5586POPC   C4B70762  41.263   5.974   7.217
 5587POPC   NC370763   5.839  37.192   5.433
 5587POPC   PO470764   5.760  36.468   5.400
 5587POPC   GL170765   5.829  36.778   5.745
 5587POPC   GL270766   5.552  36.988   5.816
 5587POPC   C1A70767   5.882  36.746   6.190
 5587POPC   D2A70768   6.089  36.494   6.532
 5587POPC   C3A70769   6.067  36.726   6.907
 5587POPC   C4A70770   5.698  36.687   7.111
 5587POPC   C1B70771   5.775  37.247   6.125
 5587POPC   C2B70772   5.895  37.131   6.555
 5587POPC   C3B70773   5.596  37.170   6.903
 5587POPC   C4B70774   5.591  37.204   7.352
 5588POPC   NC370775  27.978  25.842   5.507
 5588POPC   PO470776  27.428  26.166   5.477
 5588POPC   GL170777  27.618  26.097   5.848
 5588POPC   GL270778  27.570  25.745   5.887
 5588POPC   C1A70779  27.702  26.214   6.255
 5588POPC   D2A70780  27.674  25.973   6.615
 5588POPC   C3A70781  27.653  26.184   6.991
 5588POPC   C4A70782  27.980  26.104   7.279
 5588POPC   C1B70783  27.315  25.872   6.259
 5588POPC   C2B70784  27.194  25.829   6.698
 5588POPC   C3B70785  27.164  25.933   7.121
 5588POPC   C4B70786  27.217  25.950   7.632
 5589POPC   NC370787  40.256  22.434   5.549
 5589POPC   PO470788  39.788  22.034   5.386
 5589POPC   GL170789  39.832  22.202   5.798
 5589POPC   GL270790  40.158  22.081   5.898
 5589POPC   C1A70791  39.871  22.374   6.234
 5589POPC   D2A70792  39.766  22.139   6.629
 5589POPC   C3A70793  39.853  22.163   7.104
 5589POPC   C4A70794  39.829  21.926   7.507
 5589POPC   C1B70795  40.328  22.177   6.297
 5589POPC   C2B70796  40.262  22.417   6.625
 5589POPC   C3B70797  40.332  22.310   7.028
 5589POPC   C4B70798  40.517  22.512   7.343
 5590POPC   NC370799  31.742   4.583   5.562
 5590POPC   PO470800  31.354   4.020   5.498
 5590POPC   GL170801  31.569   4.210   5.831
 5590POPC   GL270802  31.297   4.439   5.925
 5590POPC   C1A70803  31.692   4.351   6.259
 5590POPC   D2A70804  31.415   4.467   6.615
 5590POPC   C3A70805  31.652   4.476   7.022
 5590POPC   C4A70806  31.587   4.420   7.479
 5590POPC   C1B70807  31.271   4.042   6.187
 5590POPC   C2B70808  31.167   3.937   6.611
 5590POPC   C3B70809  31.235   4.156   7.000
 5590POPC   C4B70810  31.222   4.066   7.424
 5591POPC   NC370811  43.686  11.719   5.310
 5591POPC   PO470812  44.076  12.144   5.713
 5591POPC   GL170813  43.716  12.005   5.896
 5591POPC   GL270814  43.564  12.311   5.743
 5591POPC   C1A70815  43.759  11.977   6.352
 5591POPC   D2A70816  43.937  12.231   6.700
 5591POPC   C3A70817  43.878  11.989   7.066
 5591POPC   C4A70818  44.211  11.723   7.157
 5591POPC   C1B70819  43.520  12.405   6.187
 5591POPC   C2B70820  43.430  12.276   6.609
 5591POPC   C3B70821  43.587  12.420   7.025
 5591POPC   C4B70822  43.949  12.436   7.302
 5592POPC   NC370823  35.519  18.662   5.287
 5592POPC   PO470824  34.948  18.763   5.612
 5592POPC   GL170825  35.101  18.980   5.938
 5592POPC   GL270826  35.371  19.170   5.774
 5592POPC   C1A70827  35.162  18.847   6.364
 5592POPC   D2A70828  35.120  19.129   6.688
 5592POPC   C3A70829  35.272  19.047   7.102
 5592POPC   C4A70830  35.084  19.148   7.504
 5592POPC   C1B70831  35.609  18.978   6.125
 5592POPC   C2B70832  35.640  19.046   6.594
 5592POPC   C3B70833  35.721  19.275   6.981
 5592POPC   C4B70834  35.581  19.334   7.382
 5593POPC   NC370835  13.376  35.602   5.527
 5593POPC   PO470836  13.654  34.983   5.627
 5593POPC   GL170837  13.474  35.239   5.930
 5593POPC   GL270838  13.700  35.480   5.903
 5593POPC   C1A70839  13.565  35.327   6.398
 5593POPC   D2A70840  13.806  35.126   6.736
 5593POPC   C3A70841  13.576  34.945   7.057
 5593POPC   C4A70842  13.286  35.167   7.297
 5593POPC   C1B70843  13.484  35.775   6.177
 5593POPC   C2B70844  13.594  35.892   6.609
 5593POPC   C3B70845  13.643  35.595   6.962
 5593POPC   C4B70846  13.821  35.348   7.290
 5594POPC   NC370847  32.366  11.075   5.052
 5594POPC   PO470848  32.047  11.399   5.474
 5594POPC   GL170849  32.295  11.347   5.858
 5594POPC   GL270850  32.225  11.652   6.036
 5594POPC   C1A70851  32.339  11.216   6.301
 5594POPC   D2A70852  32.129  11.179   6.707
 5594POPC   C3A70853  32.474  11.186   7.010
 5594POPC   C4A70854  32.599  11.395   7.394
 5594POPC   C1B70855  31.902  11.561   6.366
 5594POPC   C2B70856  31.866  11.639   6.814
 5594POPC   C3B70857  32.150  11.538   7.139
 5594POPC   C4B70858  32.187  11.587   7.603
 5595POPC   NC370859   9.327   5.392   5.414
 5595POPC   PO470860   8.818   4.907   5.446
 5595POPC   GL170861   9.069   5.090   5.754
 5595POPC   GL270862   9.205   4.805   5.931
 5595POPC   C1A70863   8.969   5.226   6.150
 5595POPC   D2A70864   8.789   5.140   6.527
 5595POPC   C3A70865   9.086   5.185   6.861
 5595POPC   C4A70866   9.108   4.997   7.245
 5595POPC   C1B70867   8.767   4.724   6.100
 5595POPC   C2B70868   8.606   4.639   6.524
 5595POPC   C3B70869   8.668   4.830   6.918
 5595POPC   C4B70870   8.658   4.652   7.293
 5596POPC   NC370871  28.229  30.886   5.500
 5596POPC   PO470872  28.508  30.301   5.359
 5596POPC   GL170873  28.538  30.460   5.750
 5596POPC   GL270874  28.662  30.780   5.763
 5596POPC   C1A70875  28.434  30.462   6.190
 5596POPC   D2A70876  28.421  30.205   6.582
 5596POPC   C3A70877  28.396  30.508   6.889
 5596POPC   C4A70878  28.079  30.548   7.189
 5596POPC   C1B70879  28.552  30.990   6.142
 5596POPC   C2B70880  28.662  30.959   6.580
 5596POPC   C3B70881  28.532  30.985   7.031
 5596POPC   C4B70882  28.549  30.675   7.359
 5597POPC   NC370883  37.092  22.818   5.078
 5597POPC   PO470884  36.801  23.216   5.481
 5597POPC   GL170885  36.728  22.891   5.808
 5597POPC   GL270886  36.492  22.995   6.063
 5597POPC   C1A70887  36.900  22.702   6.206
 5597POPC   D2A70888  37.175  22.634   6.574
 5597POPC   C3A70889  36.960  22.767   6.968
 5597POPC   C4A70890  37.182  22.683   7.347
 5597POPC   C1B70891  36.747  23.207   6.408
 5597POPC   C2B70892  36.903  23.284   6.845
 5597POPC   C3B70893  37.229  23.318   7.139
 5597POPC   C4B70894  37.251  23.138   7.575
 5598POPC   NC370895  28.898  12.177   5.603
 5598POPC   PO470896  28.293  12.026   5.245
 5598POPC   GL170897  28.425  11.965   5.717
 5598POPC   GL270898  28.570  12.243   5.972
 5598POPC   C1A70899  28.300  11.871   6.164
 5598POPC   D2A70900  28.298  12.211   6.478
 5598POPC   C3A70901  28.052  12.132   6.845
 5598POPC   C4A70902  28.145  12.272   7.235
 5598POPC   C1B70903  28.816  11.927   6.196
 5598POPC   C2B70904  28.649  11.838   6.576
 5598POPC   C3B70905  28.573  12.093   6.942
 5598POPC   C4B70906  28.407  11.843   7.282
 5599POPC   NC370907  31.344  15.363   5.517
 5599POPC   PO470908  30.666  15.143   5.611
 5599POPC   GL170909  30.917  15.133   5.971
 5599POPC   GL270910  31.017  15.434   5.895
 5599POPC   C1A70911  30.896  15.226   6.440
 5599POPC   D2A70912  30.479  15.176   6.581
 5599POPC   C3A70913  30.471  15.031   6.990
 5599POPC   C4A70914  30.780  15.092   7.297
 5599POPC   C1B70915  30.638  15.547   6.147
 5599POPC   C2B70916  30.654  15.682   6.567
 5599POPC   C3B70917  30.721  15.480   6.947
 5599POPC   C4B70918  30.531  15.584   7.339
 5600POPC   NC370919   7.921  42.742   5.420
 5600POPC   PO470920   8.336  43.239   5.255
 5600POPC   GL170921   8.369  43.205   5.732
 5600POPC   GL270922   8.139  42.950   5.835
 5600POPC   C1A70923   8.476  43.064   6.209
 5600POPC   D2A70924   8.240  42.885   6.581
 5600POPC   C3A70925   8.402  42.860   7.016
 5600POPC   C4A70926   8.284  43.058   7.408
 5600POPC   C1B70927   7.980  43.141   6.206
 5600POPC   C2B70928   8.065  43.375   6.594
 5600POPC   C3B70929   7.983  43.193   7.018
 5600POPC   C4B70930   7.768  43.104   7.427
 5601POPC   NC370931  38.901  20.056   5.481
 5601POPC   PO470932  38.200  19.836   5.455
 5601POPC   GL170933  38.506  19.856   5.780
 5601POPC   GL270934  38.522  20.215   5.791
 5601POPC   C1A70935  38.499  19.697   6.214
 5601POPC   D2A70936  38.259  19.631   6.613
 5601POPC   C3A70937  38.401  19.760   7.057
 5601POPC   C4A70938  38.410  19.644   7.545
 5601POPC   C1B70939  38.645  20.191   6.202
 5601POPC   C2B70940  38.495  20.094   6.617
 5601POPC   C3B70941  38.690  20.199   7.028
 5601POPC   C4B70942  38.482  20.126   7.426
 5602POPC   NC370943  41.940  34.438   5.559
 5602POPC   PO470944  41.323  34.307   5.352
 5602POPC   GL170945  41.470  34.482   5.768
 5602POPC   GL270946  41.348  34.817   5.874
 5602POPC   C1A70947  41.656  34.530   6.185
 5602POPC   D2A70948  41.559  34.301   6.548
 5602POPC   C3A70949  41.696  34.444   6.937
 5602POPC   C4A70950  41.411  34.483   7.290
 5602POPC   C1B70951  41.456  34.992   6.251
 5602POPC   C2B70952  41.642  34.877   6.666
 5602POPC   C3B70953  41.568  34.929   7.132
 5602POPC   C4B70954  41.755  34.916   7.564
 5603POPC   NC370955  23.411   6.824   5.469
 5603POPC   PO470956  23.866   6.299   5.322
 5603POPC   GL170957  23.711   6.469   5.729
 5603POPC   GL270958  23.654   6.755   5.912
 5603POPC   C1A70959  23.929   6.390   6.135
 5603POPC   D2A70960  23.832   6.400   6.561
 5603POPC   C3A70961  23.880   6.727   6.850
 5603POPC   C4A70962  24.094   6.755   7.267
 5603POPC   C1B70963  23.688   6.844   6.331
 5603POPC   C2B70964  23.402   6.691   6.614
 5603POPC   C3B70965  23.361   6.538   7.012
 5603POPC   C4B70966  23.576   6.822   7.239
 5604POPC   NC370967  32.405  17.832   5.440
 5604POPC   PO470968  32.114  17.213   5.414
 5604POPC   GL170969  32.235  17.441   5.775
 5604POPC   GL270970  32.563  17.330   5.729
 5604POPC   C1A70971  32.179  17.493   6.226
 5604POPC   D2A70972  32.265  17.728   6.593
 5604POPC   C3A70973  32.115  17.539   6.928
 5604POPC   C4A70974  32.045  17.432   7.323
 5604POPC   C1B70975  32.664  17.604   6.085
 5604POPC   C2B70976  32.758  17.625   6.524
 5604POPC   C3B70977  32.642  17.547   6.951
 5604POPC   C4B70978  32.602  17.503   7.366
 5605POPC   NC370979  33.707  22.167   5.582
 5605POPC   PO470980  34.066  22.714   5.329
 5605POPC   GL170981  34.074  22.514   5.765
 5605POPC   GL270982  34.089  22.168   5.912
 5605POPC   C1A70983  34.118  22.541   6.244
 5605POPC   D2A70984  33.778  22.432   6.524
 5605POPC   C3A70985  33.809  22.241   6.919
 5605POPC   C4A70986  33.630  22.261   7.330
 5605POPC   C1B70987  33.814  22.006   6.237
 5605POPC   C2B70988  33.811  21.792   6.652
 5605POPC   C3B70989  33.646  21.796   7.082
 5605POPC   C4B70990  33.987  21.910   7.359
 5606POPC   NC370991  40.676   1.652   5.540
 5606POPC   PO470992  40.312   2.283   5.595
 5606POPC   GL170993  40.721   2.172   5.860
 5606POPC   GL270994  40.913   1.867   5.926
 5606POPC   C1A70995  40.971   2.250   6.236
 5606POPC   D2A70996  40.728   2.241   6.592
 5606POPC   C3A70997  40.953   2.279   6.922
 5606POPC   C4A70998  40.681   2.246   7.251
 5606POPC   C1B70999  40.649   1.833   6.263
 5606POPC   C2B71000  40.911   1.775   6.602
 5606POPC   C3B71001  40.757   1.802   6.979
 5606POPC   C4B71002  40.857   1.782   7.392
 5607POPC   NC371003  34.222  37.496   5.398
 5607POPC   PO471004  34.667  37.953   5.217
 5607POPC   GL171005  34.597  37.906   5.723
 5607POPC   GL271006  34.224  37.951   5.764
 5607POPC   C1A71007  34.768  37.639   6.133
 5607POPC   D2A71008  34.603  37.528   6.571
 5607POPC   C3A71009  34.861  37.634   6.946
 5607POPC   C4A71010  34.937  38.069   7.155
 5607POPC   C1B71011  34.286  37.791   6.194
 5607POPC   C2B71012  34.183  37.902   6.609
 5607POPC   C3B71013  34.473  37.970   6.916
 5607POPC   C4B71014  34.521  37.801   7.327
 5608POPC   NC371015   6.726   7.958   5.508
 5608POPC   PO471016   6.406   8.587   5.577
 5608POPC   GL171017   6.645   8.336   5.898
 5608POPC   GL271018   6.643   8.001   6.010
 5608POPC   C1A71019   6.860   8.377   6.304
 5608POPC   D2A71020   6.711   8.623   6.673
 5608POPC   C3A71021   6.494   8.336   6.939
 5608POPC   C4A71022   6.831   8.156   7.156
 5608POPC   C1B71023   6.447   7.813   6.359
 5608POPC   C2B71024   6.580   7.791   6.792
 5608POPC   C3B71025   6.356   7.881   7.151
 5608POPC   C4B71026   6.416   8.208   7.460
 5609POPC   NC371027  40.735   0.170   5.278
 5609POPC   PO471028  41.010  44.537   5.269
 5609POPC   GL171029  40.905  44.789   5.617
 5609POPC   GL271030  40.913  44.480   5.805
 5609POPC   C1A71031  40.647  44.889   5.996
 5609POPC   D2A71032  40.744  44.895   6.448
 5609POPC   C3A71033  40.588  44.812   6.859
 5609POPC   C4A71034  40.877  44.848   7.177
 5609POPC   C1B71035  40.701  44.427   6.226
 5609POPC   C2B71036  40.860  44.417   6.653
 5609POPC   C3B71037  40.813  44.351   7.101
 5609POPC   C4B71038  41.158  44.364   7.396
 5610POPC   NC371039  30.729  17.098   5.524
 5610POPC   PO471040  30.567  17.662   5.763
 5610POPC   GL171041  30.857  17.408   5.929
 5610POPC   GL271042  30.593  17.153   6.013
 5610POPC   C1A71043  30.891  17.433   6.370
 5610POPC   D2A71044  30.548  17.607   6.606
 5610POPC   C3A71045  30.606  17.744   7.012
 5610POPC   C4A71046  30.584  17.544   7.406
 5610POPC   C1B71047  30.987  16.964   6.125
 5610POPC   C2B71048  31.087  16.990   6.535
 5610POPC   C3B71049  30.868  17.222   6.885
 5610POPC   C4B71050  31.031  17.310   7.294
 5611POPC   NC371051  15.425   8.602   5.527
 5611POPC   PO471052  15.620   8.019   5.258
 5611POPC   GL171053  15.465   8.156   5.769
 5611POPC   GL271054  15.352   7.857   6.034
 5611POPC   C1A71055  15.339   8.336   6.213
 5611POPC   D2A71056  15.265   8.182   6.664
 5611POPC   C3A71057  15.336   8.330   7.062
 5611POPC   C4A71058  15.135   8.402   7.451
 5611POPC   C1B71059  14.983   7.949   6.300
 5611POPC   C2B71060  14.800   7.961   6.727
 5611POPC   C3B71061  14.905   8.013   7.187
 5611POPC   C4B71062  15.204   7.875   7.546
 5612POPC   NC371063  12.611  11.635   5.501
 5612POPC   PO471064  13.012  11.071   5.348
 5612POPC   GL171065  12.891  11.255   5.712
 5612POPC   GL271066  13.117  11.512   5.726
 5612POPC   C1A71067  12.724  11.332   6.145
 5612POPC   D2A71068  12.776  11.458   6.564
 5612POPC   C3A71069  12.612  11.406   7.003
 5612POPC   C4A71070  12.815  11.246   7.388
 5612POPC   C1B71071  13.222  11.209   6.066
 5612POPC   C2B71072  13.280  11.205   6.501
 5612POPC   C3B71073  13.092  11.217   6.901
 5612POPC   C4B71074  13.080  10.890   7.143
 5613POPC   NC371075  38.696  28.709   5.390
 5613POPC   PO471076  38.232  28.206   5.209
 5613POPC   GL171077  38.255  28.467   5.686
 5613POPC   GL271078  38.375  28.166   5.943
 5613POPC   C1A71079  38.440  28.640   6.118
 5613POPC   D2A71080  38.574  28.434   6.527
 5613POPC   C3A71081  38.486  28.584   6.968
 5613POPC   C4A71082  38.279  28.688   7.395
 5613POPC   C1B71083  38.110  27.860   6.166
 5613POPC   C2B71084  38.006  27.978   6.577
 5613POPC   C3B71085  38.202  28.180   6.913
 5613POPC   C4B71086  38.434  28.187   7.347
 5614POPC   NC371087  35.691  11.623   5.478
 5614POPC   PO471088  35.149  11.188   5.367
 5614POPC   GL171089  35.385  11.282   5.748
 5614POPC   GL271090  35.273  11.553   5.826
 5614POPC   C1A71091  35.187  11.184   6.174
 5614POPC   D2A71092  35.183  11.202   6.617
 5614POPC   C3A71093  35.470  11.173   6.955
 5614POPC   C4A71094  35.301  11.293   7.323
 5614POPC   C1B71095  35.504  11.605   6.198
 5614POPC   C2B71096  35.610  11.527   6.635
 5614POPC   C3B71097  35.402  11.701   7.054
 5614POPC   C4B71098  35.286  11.743   7.545
 5615POPC   NC371099  21.652  40.552   5.468
 5615POPC   PO471100  21.190  40.940   5.540
 5615POPC   GL171101  21.355  40.721   5.866
 5615POPC   GL271102  21.696  40.837   5.887
 5615POPC   C1A71103  21.453  40.641   6.299
 5615POPC   D2A71104  21.604  40.476   6.688
 5615POPC   C3A71105  21.345  40.658   7.015
 5615POPC   C4A71106  21.153  40.596   7.420
 5615POPC   C1B71107  21.737  41.067   6.267
 5615POPC   C2B71108  21.588  40.992   6.683
 5615POPC   C3B71109  21.725  40.991   7.115
 5615POPC   C4B71110  21.651  41.072   7.571
 5616POPC   NC371111  29.244  31.790   4.882
 5616POPC   PO471112  29.241  31.222   5.282
 5616POPC   GL171113  29.221  31.268   5.801
 5616POPC   GL271114  28.909  31.228   5.780
 5616POPC   C1A71115  29.359  31.541   6.183
 5616POPC   D2A71116  29.225  31.798   6.565
 5616POPC   C3A71117  29.323  31.617   6.966
 5616POPC   C4A71118  29.469  31.671   7.388
 5616POPC   C1B71119  28.883  31.375   6.177
 5616POPC   C2B71120  28.855  31.441   6.581
 5616POPC   C3B71121  28.767  31.636   6.934
 5616POPC   C4B71122  28.953  31.378   7.242
 5617POPC   NC371123   1.625   6.189   5.670
 5617POPC   PO471124   1.314   5.738   5.284
 5617POPC   GL171125   1.277   5.818   5.729
 5617POPC   GL271126   1.432   5.504   5.758
 5617POPC   C1A71127   1.335   5.954   6.197
 5617POPC   D2A71128   1.214   5.876   6.624
 5617POPC   C3A71129   1.379   6.135   7.000
 5617POPC   C4A71130   1.246   6.196   7.491
 5617POPC   C1B71131   1.143   5.474   6.121
 5617POPC   C2B71132   0.978   5.423   6.549
 5617POPC   C3B71133   1.131   5.471   6.956
 5617POPC   C4B71134   1.246   5.738   7.294
 5618POPC   NC371135  24.367  14.893   5.516
 5618POPC   PO471136  24.784  15.304   5.226
 5618POPC   GL171137  24.789  15.317   5.718
 5618POPC   GL271138  24.446  15.282   5.882
 5618POPC   C1A71139  24.880  15.348   6.182
 5618POPC   D2A71140  24.586  15.308   6.549
 5618POPC   C3A71141  24.681  15.165   6.993
 5618POPC   C4A71142  24.390  14.927   7.212
 5618POPC   C1B71143  24.180  15.157   6.250
 5618POPC   C2B71144  24.159  15.034   6.685
 5618POPC   C3B71145  24.160  15.325   7.028
 5618POPC   C4B71146  24.042  15.240   7.442
 5619POPC   NC371147  32.677   1.782   5.491
 5619POPC   PO471148  33.103   1.336   5.258
 5619POPC   GL171149  33.114   1.267   5.724
 5619POPC   GL271150  32.820   1.091   5.866
 5619POPC   C1A71151  33.173   1.276   6.196
 5619POPC   D2A71152  33.321   1.122   6.622
 5619POPC   C3A71153  33.094   1.182   7.020
 5619POPC   C4A71154  33.245   1.290   7.438
 5619POPC   C1B71155  32.709   0.893   6.248
 5619POPC   C2B71156  32.837   0.827   6.681
 5619POPC   C3B71157  32.715   0.805   7.115
 5619POPC   C4B71158  32.717   0.804   7.563
 5620POPC   NC371159  19.374  32.953   5.368
 5620POPC   PO471160  18.808  33.288   5.487
 5620POPC   GL171161  19.011  32.978   5.823
 5620POPC   GL271162  19.312  32.733   5.841
 5620POPC   C1A71163  19.059  33.051   6.299
 5620POPC   D2A71164  19.174  33.369   6.668
 5620POPC   C3A71165  18.981  33.326   7.100
 5620POPC   C4A71166  18.930  32.878   7.276
 5620POPC   C1B71167  19.477  32.761   6.263
 5620POPC   C2B71168  19.361  32.869   6.686
 5620POPC   C3B71169  19.404  33.063   7.089
 5620POPC   C4B71170  19.303  33.197   7.534
 5621POPC   NC371171  44.856  40.243   5.581
 5621POPC   PO471172  44.523  39.678   5.566
 5621POPC   GL171173  44.536  39.970   5.879
 5621POPC   GL271174  44.345  40.233   5.758
 5621POPC   C1A71175  44.628  40.025   6.317
 5621POPC   D2A71176  44.977  39.958   6.582
 5621POPC   C3A71177  44.959  39.743   6.996
 5621POPC   C4A71178  44.783  39.823   7.407
 5621POPC   C1B71179  44.450  40.454   6.107
 5621POPC   C2B71180  44.561  40.499   6.522
 5621POPC   C3B71181  44.657  40.234   6.890
 5621POPC   C4B71182  44.622  40.307   7.340
 5622POPC   NC371183  39.702  32.590   5.442
 5622POPC   PO471184  40.269  32.262   5.310
 5622POPC   GL171185  39.962  32.213   5.692
 5622POPC   GL271186  39.928  32.522   5.905
 5622POPC   C1A71187  39.792  32.040   6.118
 5622POPC   D2A71188  39.975  32.051   6.542
 5622POPC   C3A71189  39.754  32.090   6.929
 5622POPC   C4A71190  39.688  32.378   7.308
 5622POPC   C1B71191  40.244  32.299   6.147
 5622POPC   C2B71192  40.435  32.303   6.535
 5622POPC   C3B71193  40.262  32.250   6.944
 5622POPC   C4B71194  40.087  32.097   7.343
 5623POPC   NC371195  43.033   5.351   5.450
 5623POPC   PO471196  42.966   4.707   5.647
 5623POPC   GL171197  42.810   5.046   5.798
 5623POPC   GL271198  43.130   5.121   5.923
 5623POPC   C1A71199  42.682   5.106   6.197
 5623POPC   D2A71200  42.638   5.163   6.621
 5623POPC   C3A71201  42.953   4.978   6.848
 5623POPC   C4A71202  42.883   5.222   7.201
 5623POPC   C1B71203  43.163   5.354   6.335
 5623POPC   C2B71204  43.096   5.477   6.784
 5623POPC   C3B71205  43.318   5.465   7.176
 5623POPC   C4B71206  43.350   5.006   7.258
 5624POPC   NC371207  33.565  33.697   5.524
 5624POPC   PO471208  34.061  33.572   5.131
 5624POPC   GL171209  34.042  33.895   5.640
 5624POPC   GL271210  33.811  33.762   5.945
 5624POPC   C1A71211  34.150  33.997   6.175
 5624POPC   D2A71212  33.951  33.789   6.604
 5624POPC   C3A71213  33.944  34.009   7.071
 5624POPC   C4A71214  34.107  34.168   7.517
 5624POPC   C1B71215  33.552  33.583   6.260
 5624POPC   C2B71216  33.433  33.653   6.705
 5624POPC   C3B71217  33.602  33.622   7.138
 5624POPC   C4B71218  33.630  33.839   7.571
 5625POPC   NC371219  18.193  22.422   5.332
 5625POPC   PO471220  18.339  21.831   5.541
 5625POPC   GL171221  18.157  22.055   5.852
 5625POPC   GL271222  18.308  22.374   5.933
 5625POPC   C1A71223  18.262  21.973   6.272
 5625POPC   D2A71224  18.469  22.066   6.643
 5625POPC   C3A71225  18.183  22.303   6.831
 5625POPC   C4A71226  18.076  22.322   7.242
 5625POPC   C1B71227  18.636  22.424   6.290
 5625POPC   C2B71228  18.684  22.666   6.670
 5625POPC   C3B71229  18.537  22.559   7.089
 5625POPC   C4B71230  18.542  22.111   7.185
 5626POPC   NC371231  12.683  44.221   5.014
 5626POPC   PO471232  12.832  43.726   5.465
 5626POPC   GL171233  13.024  43.692   5.846
 5626POPC   GL271234  12.914  44.018   5.920
 5626POPC   C1A71235  12.836  43.551   6.214
 5626POPC   D2A71236  12.569  43.567   6.555
 5626POPC   C3A71237  12.799  43.662   6.893
 5626POPC   C4A71238  12.679  43.595   7.302
 5626POPC   C1B71239  12.664  44.032   6.317
 5626POPC   C2B71240  12.464  44.115   6.719
 5626POPC   C3B71241  12.582  44.054   7.142
 5626POPC   C4B71242  13.067  43.948   7.233
 5627POPC   NC371243  24.898  10.234   5.469
 5627POPC   PO471244  24.633  10.859   5.298
 5627POPC   GL171245  24.593  10.676   5.714
 5627POPC   GL271246  24.939  10.690   5.727
 5627POPC   C1A71247  24.314  10.533   6.108
 5627POPC   D2A71248  24.186  10.365   6.550
 5627POPC   C3A71249  24.417  10.477   6.944
 5627POPC   C4A71250  24.554  10.704   7.317
 5627POPC   C1B71251  24.816  10.443   6.095
 5627POPC   C2B71252  24.703  10.614   6.497
 5627POPC   C3B71253  24.936  10.553   6.857
 5627POPC   C4B71254  24.848  10.322   7.195
 5628POPC   NC371255  41.571  28.002   5.413
 5628POPC   PO471256  41.076  28.395   5.457
 5628POPC   GL171257  41.446  28.380   5.743
 5628POPC   GL271258  41.455  28.058   5.906
 5628POPC   C1A71259  41.688  28.544   6.108
 5628POPC   D2A71260  41.967  28.559   6.487
 5628POPC   C3A71261  41.775  28.392   6.864
 5628POPC   C4A71262  41.639  28.533   7.256
 5628POPC   C1B71263  41.575  28.089   6.324
 5628POPC   C2B71264  41.300  28.124   6.649
 5628POPC   C3B71265  41.376  28.075   7.060
 5628POPC   C4B71266  41.286  28.239   7.474
 5629POPC   NC371267  17.602  36.693   5.127
 5629POPC   PO471268  17.282  37.128   5.531
 5629POPC   GL171269  17.514  36.878   5.820
 5629POPC   GL271270  17.243  36.659   5.867
 5629POPC   C1A71271  17.651  36.916   6.265
 5629POPC   D2A71272  17.757  37.243   6.549
 5629POPC   C3A71273  17.710  37.174   7.010
 5629POPC   C4A71274  17.752  36.785   7.273
 5629POPC   C1B71275  17.138  36.920   6.241
 5629POPC   C2B71276  17.304  36.991   6.674
 5629POPC   C3B71277  17.275  36.851   7.101
 5629POPC   C4B71278  17.295  36.571   7.479
 5630POPC   NC371279  15.760   1.054   5.391
 5630POPC   PO471280  16.269   1.613   5.432
 5630POPC   GL171281  15.941   1.405   5.750
 5630POPC   GL271282  16.000   1.018   5.839
 5630POPC   C1A71283  16.010   1.382   6.213
 5630POPC   D2A71284  16.197   1.443   6.604
 5630POPC   C3A71285  15.978   1.168   6.865
 5630POPC   C4A71286  16.153   0.985   7.214
 5630POPC   C1B71287  15.628   1.074   6.130
 5630POPC   C2B71288  15.561   1.229   6.547
 5630POPC   C3B71289  15.453   1.022   6.936
 5630POPC   C4B71290  15.661   1.126   7.298
 5631POPC   NC371291   0.636   1.436   5.390
 5631POPC   PO471292   0.139   0.974   5.528
 5631POPC   GL171293   0.414   1.190   5.794
 5631POPC   GL271294   0.691   0.939   5.766
 5631POPC   C1A71295   0.378   1.412   6.207
 5631POPC   D2A71296   0.190   1.463   6.636
 5631POPC   C3A71297   0.463   1.297   6.988
 5631POPC   C4A71298   0.704   1.463   7.350
 5631POPC   C1B71299   0.471   0.889   6.187
 5631POPC   C2B71300   0.623   0.916   6.614
 5631POPC   C3B71301   0.832   0.863   6.994
 5631POPC   C4B71302   0.661   0.970   7.360
 5632POPC   NC371303  33.905  36.304   5.511
 5632POPC   PO471304  33.358  35.853   5.314
 5632POPC   GL171305  33.625  35.929   5.789
 5632POPC   GL271306  33.920  36.132   5.966
 5632POPC   C1A71307  33.671  35.834   6.259
 5632POPC   D2A71308  33.933  35.923   6.620
 5632POPC   C3A71309  33.731  36.157   6.941
 5632POPC   C4A71310  33.577  36.000   7.312
 5632POPC   C1B71311  34.052  36.470   6.238
 5632POPC   C2B71312  34.173  36.387   6.664
 5632POPC   C3B71313  34.106  36.549   7.045
 5632POPC   C4B71314  33.859  36.453   7.346
 5633POPC   NC371315  22.181  24.920   5.454
 5633POPC   PO471316  22.086  24.230   5.493
 5633POPC   GL171317  22.260  24.540   5.797
 5633POPC   GL271318  21.937  24.716   5.877
 5633POPC   C1A71319  22.457  24.618   6.215
 5633POPC   D2A71320  22.231  24.517   6.627
 5633POPC   C3A71321  22.351  24.558   7.066
 5633POPC   C4A71322  22.306  24.594   7.518
 5633POPC   C1B71323  21.983  24.372   6.197
 5633POPC   C2B71324  21.845  24.165   6.598
 5633POPC   C3B71325  21.917  24.277   7.016
 5633POPC   C4B71326  22.091  24.115   7.404
 5634POPC   NC371327  15.352  19.245   5.533
 5634POPC   PO471328  15.220  19.908   5.271
 5634POPC   GL171329  15.233  19.872   5.736
 5634POPC   GL271330  15.074  19.570   5.872
 5634POPC   C1A71331  15.278  20.068   6.170
 5634POPC   D2A71332  15.284  20.312   6.586
 5634POPC   C3A71333  14.895  20.184   6.825
 5634POPC   C4A71334  14.799  19.734   6.938
 5634POPC   C1B71335  15.383  19.550   6.220
 5634POPC   C2B71336  15.526  19.698   6.645
 5634POPC   C3B71337  15.324  19.779   7.053
 5634POPC   C4B71338  15.080  19.512   7.304
 5635POPC   NC371339  25.202  36.286   5.557
 5635POPC   PO471340  25.428  36.969   5.539
 5635POPC   GL171341  25.352  36.815   5.922
 5635POPC   GL271342  25.482  36.467   5.969
 5635POPC   C1A71343  25.218  37.022   6.292
 5635POPC   D2A71344  25.099  36.920   6.703
 5635POPC   C3A71345  25.208  37.266   6.967
 5635POPC   C4A71346  25.425  37.315   7.339
 5635POPC   C1B71347  25.141  36.499   6.277
 5635POPC   C2B71348  25.115  36.384   6.704
 5635POPC   C3B71349  25.333  36.570   7.017
 5635POPC   C4B71350  25.163  36.853   7.270
 5636POPC   NC371351  34.044   8.597   5.381
 5636POPC   PO471352  33.533   9.058   5.434
 5636POPC   GL171353  33.783   9.021   5.819
 5636POPC   GL271354  33.811   8.682   5.849
 5636POPC   C1A71355  33.762   9.120   6.274
 5636POPC   D2A71356  33.696   8.978   6.700
 5636POPC   C3A71357  33.468   9.182   7.019
 5636POPC   C4A71358  33.711   9.342   7.326
 5636POPC   C1B71359  34.124   8.769   6.167
 5636POPC   C2B71360  34.039   8.593   6.571
 5636POPC   C3B71361  33.723   8.524   6.914
 5636POPC   C4B71362  33.751   8.817   7.259
 5637POPC   NC371363  16.156  16.995   5.506
 5637POPC   PO471364  15.844  17.636   5.422
 5637POPC   GL171365  15.912  17.363   5.770
 5637POPC   GL271366  15.628  17.359   5.924
 5637POPC   C1A71367  16.092  17.264   6.172
 5637POPC   D2A71368  16.110  17.473   6.579
 5637POPC   C3A71369  16.417  17.300   6.851
 5637POPC   C4A71370  16.264  17.382   7.253
 5637POPC   C1B71371  15.674  17.518   6.308
 5637POPC   C2B71372  15.558  17.347   6.681
 5637POPC   C3B71373  15.798  17.401   7.040
 5637POPC   C4B71374  15.952  17.790   7.226
 5638POPC   NC371375   3.020  42.033   5.505
 5638POPC   PO471376   2.727  41.478   5.548
 5638POPC   GL171377   2.987  41.650   5.885
 5638POPC   GL271378   2.920  41.992   6.014
 5638POPC   C1A71379   2.841  41.547   6.286
 5638POPC   D2A71380   2.522  41.479   6.541
 5638POPC   C3A71381   2.589  41.521   6.959
 5638POPC   C4A71382   2.472  41.717   7.333
 5638POPC   C1B71383   3.153  41.922   6.402
 5638POPC   C2B71384   3.038  41.778   6.817
 5638POPC   C3B71385   2.970  41.806   7.260
 5638POPC   C4B71386   2.977  41.974   7.683
 5639POPC   NC371387  40.279  41.201   5.598
 5639POPC   PO471388  40.875  41.534   5.580
 5639POPC   GL171389  40.861  41.449   5.983
 5639POPC   GL271390  40.523  41.360   6.009
 5639POPC   C1A71391  40.672  41.760   6.276
 5639POPC   D2A71392  40.481  41.706   6.646
 5639POPC   C3A71393  40.518  41.854   7.044
 5639POPC   C4A71394  40.812  41.646   7.290
 5639POPC   C1B71395  40.653  41.150   6.371
 5639POPC   C2B71396  40.715  41.237   6.800
 5639POPC   C3B71397  41.002  41.095   7.108
 5639POPC   C4B71398  40.809  41.130   7.475
 5640POPC   NC371399   7.849  15.556   5.660
 5640POPC   PO471400   7.221  15.460   5.461
 5640POPC   GL171401   7.307  15.068   5.759
 5640POPC   GL271402   7.644  14.863   5.840
 5640POPC   C1A71403   7.281  15.035   6.214
 5640POPC   D2A71404   7.490  15.007   6.613
 5640POPC   C3A71405   7.231  15.116   6.989
 5640POPC   C4A71406   7.544  15.002   7.280
 5640POPC   C1B71407   7.789  15.131   6.184
 5640POPC   C2B71408   7.653  15.470   6.454
 5640POPC   C3B71409   7.651  15.406   6.899
 5640POPC   C4B71410   7.497  15.541   7.263
 5641POPC   NC371411  28.666  13.746   5.263
 5641POPC   PO471412  28.216  13.368   5.476
 5641POPC   GL171413  28.273  13.606   5.820
 5641POPC   GL271414  28.537  13.785   5.766
 5641POPC   C1A71415  28.474  13.463   6.202
 5641POPC   D2A71416  28.798  13.345   6.498
 5641POPC   C3A71417  28.576  13.398   6.907
 5641POPC   C4A71418  28.164  13.505   7.086
 5641POPC   C1B71419  28.468  13.991   6.178
 5641POPC   C2B71420  28.709  14.117   6.558
 5641POPC   C3B71421  28.649  13.947   6.989
 5641POPC   C4B71422  28.234  14.013   7.132
 5642POPC   NC371423  28.389   8.398   5.444
 5642POPC   PO471424  27.975   8.042   5.768
 5642POPC   GL171425  28.111   8.446   5.871
 5642POPC   GL271426  28.437   8.266   5.933
 5642POPC   C1A71427  28.137   8.560   6.280
 5642POPC   D2A71428  28.242   8.230   6.513
 5642POPC   C3A71429  28.249   8.251   6.936
 5642POPC   C4A71430  28.055   8.386   7.300
 5642POPC   C1B71431  28.661   8.026   6.248
 5642POPC   C2B71432  28.615   7.935   6.672
 5642POPC   C3B71433  28.611   7.885   7.101
 5642POPC   C4B71434  28.469   8.113   7.425
 5643POPC   NC371435   1.994  33.416   5.440
 5643POPC   PO471436   2.315  32.893   5.384
 5643POPC   GL171437   2.223  33.130   5.825
 5643POPC   GL271438   1.879  33.275   5.911
 5643POPC   C1A71439   2.118  33.117   6.324
 5643POPC   D2A71440   2.024  32.903   6.735
 5643POPC   C3A71441   2.236  33.095   7.065
 5643POPC   C4A71442   2.112  33.255   7.455
 5643POPC   C1B71443   1.638  33.390   6.290
 5643POPC   C2B71444   1.775  33.340   6.712
 5643POPC   C3B71445   1.729  33.141   7.137
 5643POPC   C4B71446   1.521  33.375   7.468
 5644POPC   NC371447  14.653   5.625   5.409
 5644POPC   PO471448  14.855   6.322   5.472
 5644POPC   GL171449  14.713   5.972   5.768
 5644POPC   GL271450  14.346   5.809   5.781
 5644POPC   C1A71451  14.656   5.924   6.212
 5644POPC   D2A71452  14.562   6.215   6.558
 5644POPC   C3A71453  14.553   6.005   6.958
 5644POPC   C4A71454  14.665   5.566   7.054
 5644POPC   C1B71455  14.154   5.739   6.198
 5644POPC   C2B71456  14.305   5.675   6.629
 5644POPC   C3B71457  14.148   5.693   7.039
 5644POPC   C4B71458  14.035   6.104   7.072
 5645POPC   NC371459  28.198  11.604   5.417
 5645POPC   PO471460  28.061  10.922   5.484
 5645POPC   GL171461  28.103  11.243   5.802
 5645POPC   GL271462  28.410  11.455   5.868
 5645POPC   C1A71463  28.047  11.399   6.218
 5645POPC   D2A71464  28.137  11.217   6.616
 5645POPC   C3A71465  28.169  11.430   7.017
 5645POPC   C4A71466  28.254  11.121   7.364
 5645POPC   C1B71467  28.492  11.120   6.141
 5645POPC   C2B71468  28.648  11.097   6.546
 5645POPC   C3B71469  28.641  11.390   6.853
 5645POPC   C4B71470  28.730  11.388   7.264
 5646POPC   NC371471  15.010  24.593   5.436
 5646POPC   PO471472  15.566  24.911   5.506
 5646POPC   GL171473  15.395  24.668   5.817
 5646POPC   GL271474  15.043  24.553   5.929
 5646POPC   C1A71475  15.343  24.770   6.242
 5646POPC   D2A71476  15.058  24.525   6.478
 5646POPC   C3A71477  15.172  24.302   6.862
 5646POPC   C4A71478  15.445  24.529   7.129
 5646POPC   C1B71479  14.821  24.894   6.150
 5646POPC   C2B71480  14.671  24.859   6.545
 5646POPC   C3B71481  14.876  24.746   6.920
 5646POPC   C4B71482  14.852  24.858   7.324
 5647POPC   NC371483  12.992  28.214   5.204
 5647POPC   PO471484  13.284  28.747   5.477
 5647POPC   GL171485  13.040  28.475   5.804
 5647POPC   GL271486  13.066  28.145   5.755
 5647POPC   C1A71487  12.836  28.291   6.208
 5647POPC   D2A71488  12.613  28.473   6.537
 5647POPC   C3A71489  12.766  28.346   6.907
 5647POPC   C4A71490  12.753  28.450   7.317
 5647POPC   C1B71491  13.308  28.116   6.175
 5647POPC   C2B71492  13.110  28.043   6.615
 5647POPC   C3B71493  13.156  28.065   7.098
 5647POPC   C4B71494  12.956  28.025   7.518
 5648POPC   NC371495  44.622   8.810   5.348
 5648POPC   PO471496   0.010   9.289   5.359
 5648POPC   GL171497  44.940   9.084   5.740
 5648POPC   GL271498  44.583   9.107   5.761
 5648POPC   C1A71499  44.867   9.051   6.209
 5648POPC   D2A71500  44.769   9.278   6.617
 5648POPC   C3A71501  44.916   9.076   6.998
 5648POPC   C4A71502  44.779   8.713   7.172
 5648POPC   C1B71503  44.420   9.314   6.144
 5648POPC   C2B71504  44.252   9.154   6.549
 5648POPC   C3B71505  44.394   9.021   6.965
 5648POPC   C4B71506  44.337   9.292   7.308
 5649POPC   NC371507   4.383  11.380   5.337
 5649POPC   PO471508   3.868  11.043   5.498
 5649POPC   GL171509   4.201  11.161   5.766
 5649POPC   GL271510   4.225  11.535   5.812
 5649POPC   C1A71511   4.458  11.188   6.120
 5649POPC   D2A71512   4.276  11.129   6.500
 5649POPC   C3A71513   4.556  11.155   6.831
 5649POPC   C4A71514   4.387  11.121   7.231
 5649POPC   C1B71515   4.179  11.606   6.274
 5649POPC   C2B71516   4.460  11.617   6.637
 5649POPC   C3B71517   4.478  11.611   7.094
 5649POPC   C4B71518   4.244  11.582   7.445
 5650POPC   NC371519   6.562  38.838   5.470
 5650POPC   PO471520   6.873  38.194   5.375
 5650POPC   GL171521   6.728  38.375   5.751
 5650POPC   GL271522   6.968  38.624   5.869
 5650POPC   C1A71523   6.577  38.284   6.174
 5650POPC   D2A71524   6.546  38.508   6.575
 5650POPC   C3A71525   6.524  38.373   7.014
 5650POPC   C4A71526   6.416  38.695   7.313
 5650POPC   C1B71527   7.062  38.858   6.253
 5650POPC   C2B71528   7.075  38.611   6.635
 5650POPC   C3B71529   7.062  38.478   7.057
 5650POPC   C4B71530   7.314  38.753   7.269
 5651POPC   NC371531  33.264   4.222   5.437
 5651POPC   PO471532  33.923   4.338   5.370
 5651POPC   GL171533  33.712   4.211   5.757
 5651POPC   GL271534  33.428   4.428   5.866
 5651POPC   C1A71535  33.587   4.060   6.173
 5651POPC   D2A71536  33.639   4.284   6.556
 5651POPC   C3A71537  33.705   4.117   6.958
 5651POPC   C4A71538  33.619   4.444   7.251
 5651POPC   C1B71539  33.723   4.605   6.159
 5651POPC   C2B71540  33.973   4.659   6.544
 5651POPC   C3B71541  34.068   4.507   6.967
 5651POPC   C4B71542  34.144   4.662   7.377
 5652POPC   NC371543  43.693  41.519   5.538
 5652POPC   PO471544  44.322  41.685   5.424
 5652POPC   GL171545  44.122  41.553   5.809
 5652POPC   GL271546  44.010  41.872   5.857
 5652POPC   C1A71547  44.065  41.272   6.187
 5652POPC   D2A71548  43.823  41.482   6.516
 5652POPC   C3A71549  43.887  41.465   6.994
 5652POPC   C4A71550  43.889  41.552   7.452
 5652POPC   C1B71551  43.899  41.992   6.276
 5652POPC   C2B71552  43.826  41.936   6.721
 5652POPC   C3B71553  43.497  41.779   6.964
 5652POPC   C4B71554  43.432  41.791   7.375
 5653POPC   NC371555  13.756  41.415   5.345
 5653POPC   PO471556  13.691  41.889   5.798
 5653POPC   GL171557  13.549  41.431   5.830
 5653POPC   GL271558  13.191  41.312   5.786
 5653POPC   C1A71559  13.493  41.214   6.227
 5653POPC   D2A71560  13.517  41.095   6.668
 5653POPC   C3A71561  13.744  41.421   6.899
 5653POPC   C4A71562  14.036  41.297   7.156
 5653POPC   C1B71563  13.166  41.619   6.150
 5653POPC   C2B71564  13.263  41.607   6.595
 5653POPC   C3B71565  13.255  41.406   6.982
 5653POPC   C4B71566  13.467  41.477   7.383
 5654POPC   NC371567  10.362  14.073   5.503
 5654POPC   PO471568  10.332  14.732   5.248
 5654POPC   GL171569  10.553  14.666   5.690
 5654POPC   GL271570  10.670  14.321   5.815
 5654POPC   C1A71571  10.534  14.743   6.149
 5654POPC   D2A71572  10.329  14.605   6.559
 5654POPC   C3A71573  10.542  14.571   6.978
 5654POPC   C4A71574  10.498  14.455   7.438
 5654POPC   C1B71575  10.560  14.223   6.232
 5654POPC   C2B71576  10.718  14.249   6.647
 5654POPC   C3B71577  10.563  14.056   7.077
 5654POPC   C4B71578  10.648  13.926   7.536
 5655POPC   NC371579   6.012  39.198   5.429
 5655POPC   PO471580   5.422  39.238   5.087
 5655POPC   GL171581   5.610  39.448   5.604
 5655POPC   GL271582   6.003  39.539   5.780
 5655POPC   C1A71583   5.656  39.487   6.116
 5655POPC   D2A71584   5.744  39.220   6.504
 5655POPC   C3A71585   5.646  39.264   6.934
 5655POPC   C4A71586   5.905  39.420   7.237
 5655POPC   C1B71587   6.048  39.135   6.098
 5655POPC   C2B71588   6.150  38.889   6.505
 5655POPC   C3B71589   6.263  39.090   6.915
 5655POPC   C4B71590   6.358  39.188   7.360
 5656POPC   NC371591  12.462  31.615   5.489
 5656POPC   PO471592  12.549  32.260   5.230
 5656POPC   GL171593  12.726  32.224   5.670
 5656POPC   GL271594  13.083  32.126   5.745
 5656POPC   C1A71595  12.747  32.333   6.136
 5656POPC   D2A71596  12.535  32.238   6.547
 5656POPC   C3A71597  12.712  32.127   6.968
 5656POPC   C4A71598  12.431  32.104   7.305
 5656POPC   C1B71599  13.106  31.979   6.198
 5656POPC   C2B71600  13.049  32.226   6.573
 5656POPC   C3B71601  13.128  32.423   6.976
 5656POPC   C4B71602  13.312  32.099   7.185
 5657POPC   NC371603  44.466  16.016   5.450
 5657POPC   PO471604   0.044  15.590   5.602
 5657POPC   GL171605  44.829  15.555   5.951
 5657POPC   GL271606  44.484  15.642   5.861
 5657POPC   C1A71607  44.844  15.677   6.364
 5657POPC   D2A71608  44.757  16.066   6.566
 5657POPC   C3A71609  44.728  16.002   6.991
 5657POPC   C4A71610   0.011  16.080   7.307
 5657POPC   C1B71611  44.315  15.771   6.271
 5657POPC   C2B71612  44.413  15.629   6.692
 5657POPC   C3B71613  44.267  15.782   7.080
 5657POPC   C4B71614  44.402  15.998   7.428
 5658POPC   NC371615  44.155   5.185   5.294
 5658POPC   PO471616  43.624   4.737   5.245
 5658POPC   GL171617  43.634   4.969   5.645
 5658POPC   GL271618  43.983   5.008   5.750
 5658POPC   C1A71619  43.597   5.150   6.070
 5658POPC   D2A71620  43.615   5.010   6.489
 5658POPC   C3A71621  43.950   5.130   6.776
 5658POPC   C4A71622  43.907   5.032   7.225
 5658POPC   C1B71623  44.067   5.061   6.213
 5658POPC   C2B71624  44.094   5.487   6.419
 5658POPC   C3B71625  44.311   5.609   6.796
 5658POPC   C4B71626  44.317   5.327   7.151
 5659POPC   NC371627  30.185   2.997   4.996
 5659POPC   PO471628  30.611   2.571   5.388
 5659POPC   GL171629  30.715   2.854   5.749
 5659POPC   GL271630  30.424   2.921   6.007
 5659POPC   C1A71631  30.905   2.791   6.153
 5659POPC   D2A71632  30.896   2.517   6.505
 5659POPC   C3A71633  30.984   2.768   6.849
 5659POPC   C4A71634  30.979   2.777   7.241
 5659POPC   C1B71635  30.414   2.624   6.360
 5659POPC   C2B71636  30.453   2.686   6.822
 5659POPC   C3B71637  30.460   2.830   7.283
 5659POPC   C4B71638  30.358   2.753   7.746
 5660POPC   NC371639  36.898  25.566   5.365
 5660POPC   PO471640  36.645  24.931   5.472
 5660POPC   GL171641  36.740  25.235   5.745
 5660POPC   GL271642  36.430  25.306   5.897
 5660POPC   C1A71643  36.884  25.406   6.149
 5660POPC   D2A71644  36.871  25.276   6.588
 5660POPC   C3A71645  37.200  25.185   6.897
 5660POPC   C4A71646  37.101  25.123   7.340
 5660POPC   C1B71647  36.396  25.228   6.332
 5660POPC   C2B71648  36.396  25.359   6.764
 5660POPC   C3B71649  36.697  25.347   7.100
 5660POPC   C4B71650  36.660  25.427   7.555
 5661POPC   NC371651   0.879  17.628   5.408
 5661POPC   PO471652   0.255  17.316   5.400
 5661POPC   GL171653   0.452  17.518   5.755
 5661POPC   GL271654   0.796  17.349   5.815
 5661POPC   C1A71655   0.272  17.459   6.190
 5661POPC   D2A71656   0.419  17.479   6.604
 5661POPC   C3A71657   0.342  17.731   6.949
 5661POPC   C4A71658   0.459  17.677   7.372
 5661POPC   C1B71659   0.764  17.585   6.169
 5661POPC   C2B71660   0.921  17.552   6.554
 5661POPC   C3B71661   0.861  17.249   6.860
 5661POPC   C4B71662   0.880  17.339   7.285
 5662POPC   NC371663  44.106  40.438   5.363
 5662POPC   PO471664  43.853  41.079   5.564
 5662POPC   GL171665  44.046  40.732   5.857
 5662POPC   GL271666  43.834  40.411   5.824
 5662POPC   C1A71667  44.108  40.752   6.342
 5662POPC   D2A71668  44.047  41.066   6.687
 5662POPC   C3A71669  44.292  41.171   7.057
 5662POPC   C4A71670  44.098  40.827   7.268
 5662POPC   C1B71671  43.697  40.394   6.268
 5662POPC   C2B71672  43.712  40.620   6.690
 5662POPC   C3B71673  43.594  40.804   7.101
 5662POPC   C4B71674  43.674  40.613   7.516
 5663POPC   NC371675  14.049  18.087   5.432
 5663POPC   PO471676  14.683  18.319   5.219
 5663POPC   GL171677  14.472  18.286   5.663
 5663POPC   GL271678  14.686  18.390   5.957
 5663POPC   C1A71679  14.222  18.371   6.077
 5663POPC   D2A71680  14.469  18.405   6.461
 5663POPC   C3A71681  14.229  18.317   6.813
 5663POPC   C4A71682  14.363  18.417   7.221
 5663POPC   C1B71683  14.557  17.994   6.178
 5663POPC   C2B71684  14.445  17.888   6.637
 5663POPC   C3B71685  14.534  17.944   7.114
 5663POPC   C4B71686  14.865  17.845   7.442
 5664POPC   NC371687   8.552   7.584   5.642
 5664POPC   PO471688   9.065   7.151   5.397
 5664POPC   GL171689   8.857   7.205   5.742
 5664POPC   GL271690   9.020   7.483   5.862
 5664POPC   C1A71691   8.689   7.188   6.146
 5664POPC   D2A71692   8.805   7.545   6.402
 5664POPC   C3A71693   8.796   7.456   6.839
 5664POPC   C4A71694   8.901   7.376   7.227
 5664POPC   C1B71695   9.336   7.557   6.147
 5664POPC   C2B71696   9.365   7.468   6.582
 5664POPC   C3B71697   9.328   7.562   7.014
 5664POPC   C4B71698   9.214   7.712   7.451
 5665POPC   NC371699   7.555  10.230   5.495
 5665POPC   PO471700   7.164  10.657   5.471
 5665POPC   GL171701   7.228  10.444   5.830
 5665POPC   GL271702   7.550  10.537   5.906
 5665POPC   C1A71703   7.169  10.626   6.230
 5665POPC   D2A71704   7.163  10.421   6.610
 5665POPC   C3A71705   7.108  10.682   6.952
 5665POPC   C4A71706   7.234  10.725   7.357
 5665POPC   C1B71707   7.524  10.264   6.267
 5665POPC   C2B71708   7.637  10.183   6.710
 5665POPC   C3B71709   7.467  10.281   7.127
 5665POPC   C4B71710   7.614  10.452   7.548
 5666POPC   NC371711   9.845   0.122   5.422
 5666POPC   PO471712   9.496   0.674   5.366
 5666POPC   GL171713   9.550   0.423   5.759
 5666POPC   GL271714   9.919   0.380   5.853
 5666POPC   C1A71715   9.561   0.318   6.227
 5666POPC   D2A71716   9.730   0.451   6.658
 5666POPC   C3A71717   9.675   0.296   7.085
 5666POPC   C4A71718   9.596   0.259   7.534
 5666POPC   C1B71719   9.973   0.652   6.212
 5666POPC   C2B71720  10.144   0.739   6.630
 5666POPC   C3B71721  10.057   0.783   7.052
 5666POPC   C4B71722  10.068   0.473   7.350
 5667POPC   NC371723  11.520  40.600   5.392
 5667POPC   PO471724  10.958  40.933   5.182
 5667POPC   GL171725  11.132  40.972   5.664
 5667POPC   GL271726  11.308  40.728   5.834
 5667POPC   C1A71727  11.120  41.085   6.142
 5667POPC   D2A71728  11.030  40.840   6.514
 5667POPC   C3A71729  10.891  40.967   6.910
 5667POPC   C4A71730  10.987  40.611   7.129
 5667POPC   C1B71731  11.546  40.731   6.159
 5667POPC   C2B71732  11.534  40.763   6.574
 5667POPC   C3B71733  11.476  40.703   6.974
 5667POPC   C4B71734  11.315  41.023   7.198
 5668POPC   NC371735   1.338  24.062   5.298
 5668POPC   PO471736   1.037  23.438   5.244
 5668POPC   GL171737   1.080  23.674   5.664
 5668POPC   GL271738   1.403  23.835   5.759
 5668POPC   C1A71739   1.033  23.819   6.110
 5668POPC   D2A71740   1.187  23.985   6.522
 5668POPC   C3A71741   1.368  23.766   6.858
 5668POPC   C4A71742   1.110  23.672   7.214
 5668POPC   C1B71743   1.466  24.146   6.116
 5668POPC   C2B71744   1.705  24.107   6.526
 5668POPC   C3B71745   1.566  24.243   6.931
 5668POPC   C4B71746   1.421  24.075   7.292
 5669POPC   NC371747  34.329  12.154   5.655
 5669POPC   PO471748  34.809  12.117   5.222
 5669POPC   GL171749  34.853  12.118   5.683
 5669POPC   GL271750  34.720  11.814   5.786
 5669POPC   C1A71751  34.781  12.115   6.199
 5669POPC   D2A71752  35.032  11.914   6.582
 5669POPC   C3A71753  34.885  12.054   7.004
 5669POPC   C4A71754  34.624  12.200   7.362
 5669POPC   C1B71755  34.431  11.757   6.203
 5669POPC   C2B71756  34.521  11.886   6.631
 5669POPC   C3B71757  34.423  11.819   7.067
 5669POPC   C4B71758  34.347  11.804   7.529
 5670POPC   NC371759   6.152  36.438   5.144
 5670POPC   PO471760   5.975  35.869   5.468
 5670POPC   GL171761   5.934  35.947   5.888
 5670POPC   GL271762   5.932  36.293   5.872
 5670POPC   C1A71763   5.934  35.887   6.315
 5670POPC   D2A71764   5.861  35.906   6.728
 5670POPC   C3A71765   5.936  36.235   7.008
 5670POPC   C4A71766   5.896  35.960   7.324
 5670POPC   C1B71767   5.570  36.359   6.165
 5670POPC   C2B71768   5.597  36.337   6.613
 5670POPC   C3B71769   5.409  36.271   6.993
 5670POPC   C4B71770   5.512  36.280   7.385
 5671POPC   NC371771  14.315  10.995   5.014
 5671POPC   PO471772  14.327  11.243   5.594
 5671POPC   GL171773  14.493  11.301   5.941
 5671POPC   GL271774  14.580  10.974   5.970
 5671POPC   C1A71775  14.363  11.462   6.333
 5671POPC   D2A71776  14.332  11.299   6.739
 5671POPC   C3A71777  14.075  11.556   6.987
 5671POPC   C4A71778  14.257  11.432   7.306
 5671POPC   C1B71779  14.661  11.043   6.385
 5671POPC   C2B71780  14.779  10.748   6.680
 5671POPC   C3B71781  14.717  10.890   7.063
 5671POPC   C4B71782  14.348  10.906   7.232
 5672POPC   NC371783  12.976  38.474   5.529
 5672POPC   PO471784  12.450  38.891   5.348
 5672POPC   GL171785  12.809  38.855   5.793
 5672POPC   GL271786  13.187  38.878   5.762
 5672POPC   C1A71787  12.817  38.651   6.224
 5672POPC   D2A71788  12.995  38.418   6.592
 5672POPC   C3A71789  12.794  38.485   7.012
 5672POPC   C4A71790  12.808  38.304   7.422
 5672POPC   C1B71791  13.334  38.672   6.153
 5672POPC   C2B71792  13.455  38.695   6.597
 5672POPC   C3B71793  13.222  38.793   6.972
 5672POPC   C4B71794  13.065  38.761   7.395
 5673POPC   NC371795  23.470  15.544   5.608
 5673POPC   PO471796  23.514  16.258   5.640
 5673POPC   GL171797  23.739  16.209   5.999
 5673POPC   GL271798  23.729  15.859   5.941
 5673POPC   C1A71799  23.786  16.087   6.417
 5673POPC   D2A71800  23.513  16.065   6.740
 5673POPC   C3A71801  23.665  16.246   7.138
 5673POPC   C4A71802  23.994  16.108   7.507
 5673POPC   C1B71803  24.033  15.663   6.198
 5673POPC   C2B71804  23.946  15.531   6.625
 5673POPC   C3B71805  23.850  15.775   7.006
 5673POPC   C4B71806  23.393  15.798   7.161
 5674POPC   NC371807   0.734  14.616   5.539
 5674POPC   PO471808   1.284  14.183   5.530
 5674POPC   GL171809   1.236  14.537   5.821
 5674POPC   GL271810   1.466  14.831   5.759
 5674POPC   C1A71811   1.192  14.423   6.254
 5674POPC   D2A71812   0.932  14.412   6.627
 5674POPC   C3A71813   1.136  14.441   7.055
 5674POPC   C4A71814   1.455  14.318   7.389
 5674POPC   C1B71815   1.457  14.888   6.209
 5674POPC   C2B71816   1.375  14.721   6.629
 5674POPC   C3B71817   1.379  14.897   7.023
 5674POPC   C4B71818   1.666  14.789   7.326
 5675POPC   NC371819   0.393   9.371   5.648
 5675POPC   PO471820   0.499   8.701   5.396
 5675POPC   GL171821   0.601   8.936   5.815
 5675POPC   GL271822   0.777   9.263   5.950
 5675POPC   C1A71823   0.420   9.077   6.241
 5675POPC   D2A71824   0.207   8.946   6.608
 5675POPC   C3A71825   0.392   8.790   7.001
 5675POPC   C4A71826   0.211   8.464   7.273
 5675POPC   C1B71827   0.923   9.276   6.349
 5675POPC   C2B71828   0.693   9.166   6.673
 5675POPC   C3B71829   0.682   9.306   7.054
 5675POPC   C4B71830   0.830   9.167   7.451
 5676POPC   NC371831   1.732  34.149   5.765
 5676POPC   PO471832   1.963  33.829   5.220
 5676POPC   GL171833   2.162  33.812   5.738
 5676POPC   GL271834   2.244  34.168   5.823
 5676POPC   C1A71835   2.055  33.673   6.227
 5676POPC   D2A71836   1.910  33.866   6.661
 5676POPC   C3A71837   1.780  33.668   7.096
 5676POPC   C4A71838   1.904  33.699   7.548
 5676POPC   C1B71839   2.183  34.161   6.284
 5676POPC   C2B71840   2.407  33.960   6.677
 5676POPC   C3B71841   2.182  33.980   7.115
 5676POPC   C4B71842   2.228  34.083   7.581
 5677POPC   NC371843  18.764   7.535   5.483
 5677POPC   PO471844  19.367   7.292   5.285
 5677POPC   GL171845  19.237   7.191   5.815
 5677POPC   GL271846  18.873   7.266   5.879
 5677POPC   C1A71847  19.120   7.160   6.281
 5677POPC   D2A71848  18.863   7.262   6.646
 5677POPC   C3A71849  19.167   7.346   6.985
 5677POPC   C4A71850  19.344   7.701   7.199
 5677POPC   C1B71851  18.862   7.604   6.227
 5677POPC   C2B71852  19.095   7.740   6.623
 5677POPC   C3B71853  18.882   7.758   7.008
 5677POPC   C4B71854  18.672   7.401   7.120
 5678POPC   NC371855   9.173  24.810   5.545
 5678POPC   PO471856   8.835  24.241   5.656
 5678POPC   GL171857   9.207  24.262   5.894
 5678POPC   GL271858   9.231  24.593   6.018
 5678POPC   C1A71859   9.189  24.128   6.309
 5678POPC   D2A71860   9.124  24.274   6.709
 5678POPC   C3A71861   8.791  24.114   6.967
 5678POPC   C4A71862   8.643  24.270   7.329
 5678POPC   C1B71863   8.826  24.582   6.242
 5678POPC   C2B71864   8.682  24.543   6.657
 5678POPC   C3B71865   8.834  24.650   7.042
 5678POPC   C4B71866   8.742  24.962   7.313
 5679POPC   NC371867  38.548   3.781   5.388
 5679POPC   PO471868  37.976   3.449   5.434
 5679POPC   GL171869  38.241   3.409   5.841
 5679POPC   GL271870  38.561   3.612   5.860
 5679POPC   C1A71871  38.130   3.165   6.254
 5679POPC   D2A71872  38.053   3.279   6.720
 5679POPC   C3A71873  38.350   3.211   7.096
 5679POPC   C4A71874  38.202   3.129   7.550
 5679POPC   C1B71875  38.523   3.482   6.272
 5679POPC   C2B71876  38.555   3.455   6.690
 5679POPC   C3B71877  38.564   3.706   7.023
 5679POPC   C4B71878  38.600   3.578   7.402
 5680POPC   NC371879  36.086  40.411   5.575
 5680POPC   PO471880  35.859  41.045   5.630
 5680POPC   GL171881  35.901  40.680   5.949
 5680POPC   GL271882  35.688  40.321   5.880
 5680POPC   C1A71883  36.250  40.610   6.272
 5680POPC   D2A71884  36.469  40.784   6.652
 5680POPC   C3A71885  36.265  40.756   7.046
 5680POPC   C4A71886  36.392  40.893   7.474
 5680POPC   C1B71887  35.794  40.324   6.291
 5680POPC   C2B71888  35.919  40.487   6.664
 5680POPC   C3B71889  35.976  40.358   7.075
 5680POPC   C4B71890  35.915  40.635   7.457
 5681POPC   NC371891  34.801  10.124   5.420
 5681POPC   PO471892  34.351   9.626   5.515
 5681POPC   GL171893  34.431   9.922   5.815
 5681POPC   GL271894  34.777   9.876   5.854
 5681POPC   C1A71895  34.426   9.779   6.238
 5681POPC   D2A71896  34.438   9.536   6.616
 5681POPC   C3A71897  34.302   9.728   6.986
 5681POPC   C4A71898  34.480   9.547   7.333
 5681POPC   C1B71899  34.828  10.105   6.214
 5681POPC   C2B71900  34.755   9.934   6.611
 5681POPC   C3B71901  34.814   9.835   7.024
 5681POPC   C4B71902  34.747  10.064   7.379
 5682POPC   NC371903   7.517  35.438   5.346
 5682POPC   PO471904   6.843  35.321   5.437
 5682POPC   GL171905   7.186  35.331   5.784
 5682POPC   GL271906   7.273  35.642   5.753
 5682POPC   C1A71907   7.347  35.193   6.208
 5682POPC   D2A71908   7.578  35.173   6.628
 5682POPC   C3A71909   7.343  35.165   7.024
 5682POPC   C4A71910   7.281  35.236   7.477
 5682POPC   C1B71911   7.496  35.699   6.129
 5682POPC   C2B71912   7.395  35.641   6.525
 5682POPC   C3B71913   7.577  35.615   6.916
 5682POPC   C4B71914   7.440  35.713   7.315
 5683POPC   NC371915  16.729  20.124   5.657
 5683POPC   PO471916  16.599  20.714   5.344
 5683POPC   GL171917  16.821  20.893   5.761
 5683POPC   GL271918  16.628  20.645   5.880
 5683POPC   C1A71919  16.650  21.051   6.204
 5683POPC   D2A71920  16.582  20.808   6.593
 5683POPC   C3A71921  16.634  20.850   7.071
 5683POPC   C4A71922  16.520  20.966   7.517
 5683POPC   C1B71923  16.515  20.406   6.214
 5683POPC   C2B71924  16.254  20.410   6.528
 5683POPC   C3B71925  16.444  20.396   6.885
 5683POPC   C4B71926  16.626  20.368   7.255
 5684POPC   NC371927  12.517  15.112   5.430
 5684POPC   PO471928  11.936  15.519   5.383
 5684POPC   GL171929  12.063  15.272   5.746
 5684POPC   GL271930  12.390  15.399   5.806
 5684POPC   C1A71931  11.901  15.191   6.187
 5684POPC   D2A71932  11.878  15.318   6.668
 5684POPC   C3A71933  11.896  14.994   7.020
 5684POPC   C4A71934  11.854  14.850   7.460
 5684POPC   C1B71935  12.427  15.068   6.096
 5684POPC   C2B71936  12.319  15.165   6.476
 5684POPC   C3B71937  12.372  15.108   6.882
 5684POPC   C4B71938  12.403  15.193   7.280
 5685POPC   NC371939  27.989   1.482   5.555
 5685POPC   PO471940  27.338   1.173   5.478
 5685POPC   GL171941  27.571   1.341   5.812
 5685POPC   GL271942  27.800   1.067   5.779
 5685POPC   C1A71943  27.838   1.444   6.195
 5685POPC   D2A71944  27.861   1.654   6.608
 5685POPC   C3A71945  27.693   1.442   6.958
 5685POPC   C4A71946  27.592   1.232   7.366
 5685POPC   C1B71947  27.620   0.978   6.180
 5685POPC   C2B71948  27.808   1.090   6.579
 5685POPC   C3B71949  27.759   0.938   6.978
 5685POPC   C4B71950  27.445   0.749   7.230
 5686POPC   NC371951  24.304  36.541   5.471
 5686POPC   PO471952  24.557  37.182   5.502
 5686POPC   GL171953  24.491  36.855   5.839
 5686POPC   GL271954  24.134  36.782   5.946
 5686POPC   C1A71955  24.567  36.730   6.267
 5686POPC   D2A71956  24.605  37.034   6.563
 5686POPC   C3A71957  24.316  37.172   6.820
 5686POPC   C4A71958  24.242  37.026   7.238
 5686POPC   C1B71959  24.064  36.861   6.408
 5686POPC   C2B71960  24.256  36.674   6.738
 5686POPC   C3B71961  24.664  36.638   6.871
 5686POPC   C4B71962  24.747  37.042   7.055
 5687POPC   NC371963   6.208  19.107   5.429
 5687POPC   PO471964   6.791  19.324   5.532
 5687POPC   GL171965   6.576  19.105   5.828
 5687POPC   GL271966   6.302  19.286   5.916
 5687POPC   C1A71967   6.673  19.137   6.272
 5687POPC   D2A71968   6.732  19.441   6.566
 5687POPC   C3A71969   6.631  19.263   6.955
 5687POPC   C4A71970   6.900  19.078   7.277
 5687POPC   C1B71971   6.235  18.907   6.166
 5687POPC   C2B71972   6.333  18.758   6.585
 5687POPC   C3B71973   6.253  18.927   7.004
 5687POPC   C4B71974   6.433  18.950   7.414
 5688POPC   NC371975  31.105  37.227   5.568
 5688POPC   PO471976  30.828  37.771   5.441
 5688POPC   GL171977  30.743  37.555   5.785
 5688POPC   GL271978  30.417  37.451   5.841
 5688POPC   C1A71979  30.809  37.410   6.180
 5688POPC   D2A71980  30.581  37.420   6.578
 5688POPC   C3A71981  30.861  37.480   6.903
 5688POPC   C4A71982  30.811  37.668   7.265
 5688POPC   C1B71983  30.440  37.743   6.205
 5688POPC   C2B71984  30.491  37.903   6.648
 5688POPC   C3B71985  30.365  37.723   7.049
 5688POPC   C4B71986  30.443  37.910   7.504
 5689POPC   NC371987  35.868  13.798   5.624
 5689POPC   PO471988  36.095  13.193   5.510
 5689POPC   GL171989  36.116  13.435   5.892
 5689POPC   GL271990  36.440  13.545   5.979
 5689POPC   C1A71991  36.057  13.619   6.319
 5689POPC   D2A71992  36.411  13.715   6.612
 5689POPC   C3A71993  36.242  13.822   7.014
 5689POPC   C4A71994  36.038  13.677   7.397
 5689POPC   C1B71995  36.430  13.254   6.300
 5689POPC   C2B71996  36.203  13.240   6.684
 5689POPC   C3B71997  36.265  13.301   7.115
 5689POPC   C4B71998  36.340  13.315   7.543
 5690POPC   NC371999  22.635   6.198   5.549
 5690POPC   PO472000  23.085   5.655   5.416
 5690POPC   GL172001  22.952   5.870   5.821
 5690POPC   GL272002  23.074   6.191   5.891
 5690POPC   C1A72003  22.741   6.074   6.240
 5690POPC   D2A72004  22.887   6.143   6.661
 5690POPC   C3A72005  22.863   5.743   6.866
 5690POPC   C4A72006  22.526   5.708   7.133
 5690POPC   C1B72007  23.224   5.858   6.244
 5690POPC   C2B72008  23.362   5.649   6.627
 5690POPC   C3B72009  23.332   5.796   7.049
 5690POPC   C4B72010  23.052   6.123   7.173
 5691POPC   NC372011  32.849  22.724   5.447
 5691POPC   PO472012  32.657  22.110   5.502
 5691POPC   GL172013  33.058  22.287   5.704
 5691POPC   GL272014  32.848  22.392   5.934
 5691POPC   C1A72015  33.317  22.261   6.129
 5691POPC   D2A72016  33.391  22.059   6.551
 5691POPC   C3A72017  33.289  22.176   6.976
 5691POPC   C4A72018  33.143  21.993   7.369
 5691POPC   C1B72019  32.943  22.570   6.321
 5691POPC   C2B72020  32.918  22.297   6.653
 5691POPC   C3B72021  32.794  22.261   7.078
 5691POPC   C4B72022  32.866  22.468   7.472
 5692POPC   NC372023  44.879  37.971   5.481
 5692POPC   PO472024  44.774  37.302   5.558
 5692POPC   GL172025  44.707  37.470   5.894
 5692POPC   GL272026  44.426  37.663   5.914
 5692POPC   C1A72027  44.894  37.554   6.254
 5692POPC   D2A72028  44.714  37.593   6.652
 5692POPC   C3A72029  44.977  37.666   7.013
 5692POPC   C4A72030  44.828  37.534   7.403
 5692POPC   C1B72031  44.366  37.315   6.253
 5692POPC   C2B72032  44.342  37.234   6.725
 5692POPC   C3B72033  44.441  37.527   7.085
 5692POPC   C4B72034  44.286  37.492   7.524
 5693POPC   NC372035  42.628  15.570   5.586
 5693POPC   PO472036  42.244  14.960   5.510
 5693POPC   GL172037  42.161  15.161   5.884
 5693POPC   GL272038  41.849  15.303   5.788
 5693POPC   C1A72039  42.379  15.333   6.258
 5693POPC   D2A72040  42.256  15.547   6.638
 5693POPC   C3A72041  42.291  15.271   6.966
 5693POPC   C4A72042  42.457  15.228   7.356
 5693POPC   C1B72043  41.902  15.509   6.179
 5693POPC   C2B72044  41.785  15.346   6.574
 5693POPC   C3B72045  41.839  15.522   6.966
 5693POPC   C4B72046  41.897  15.275   7.326
 5694POPC   NC372047  16.460   0.696   5.502
 5694POPC   PO472048  16.679   0.083   5.242
 5694POPC   GL172049  16.729   0.344   5.725
 5694POPC   GL272050  17.030   0.489   5.919
 5694POPC   C1A72051  16.589   0.495   6.186
 5694POPC   D2A72052  16.466   0.328   6.610
 5694POPC   C3A72053  16.780   0.331   6.956
 5694POPC   C4A72054  16.769   0.331   7.444
 5694POPC   C1B72055  16.993   0.772   6.312
 5694POPC   C2B72056  16.648   0.853   6.653
 5694POPC   C3B72057  16.624   0.780   7.109
 5694POPC   C4B72058  17.067   0.680   7.217
 5695POPC   NC372059  16.551  11.299   5.403
 5695POPC   PO472060  17.040  11.753   5.446
 5695POPC   GL172061  17.052  11.486   5.838
 5695POPC   GL272062  16.671  11.472   5.910
 5695POPC   C1A72063  16.970  11.159   6.192
 5695POPC   D2A72064  16.585  11.195   6.456
 5695POPC   C3A72065  16.675  11.252   6.879
 5695POPC   C4A72066  16.534  11.158   7.296
 5695POPC   C1B72067  16.857  11.650   6.307
 5695POPC   C2B72068  16.902  11.753   6.768
 5695POPC   C3B72069  16.767  11.669   7.197
 5695POPC   C4B72070  16.661  11.665   7.635
 5696POPC   NC372071   0.405  27.586   5.648
 5696POPC   PO472072   0.315  28.247   5.550
 5696POPC   GL172073   0.362  28.003   5.957
 5696POPC   GL272074   0.732  28.015   5.935
 5696POPC   C1A72075   0.250  27.613   6.267
 5696POPC   D2A72076   0.175  27.279   6.618
 5696POPC   C3A72077   0.381  27.402   6.991
 5696POPC   C4A72078   0.297  27.737   7.247
 5696POPC   C1B72079   0.842  27.677   6.186
 5696POPC   C2B72080   0.657  27.555   6.565
 5696POPC   C3B72081   0.673  27.822   6.896
 5696POPC   C4B72082   0.799  27.786   7.292
 5697POPC   NC372083   5.312   6.126   5.667
 5697POPC   PO472084   5.760   6.125   5.128
 5697POPC   GL172085   5.827   5.990   5.597
 5697POPC   GL272086   5.649   5.702   5.776
 5697POPC   C1A72087   5.996   6.000   6.040
 5697POPC   D2A72088   6.094   5.987   6.482
 5697POPC   C3A72089   5.905   6.138   6.850
 5697POPC   C4A72090   5.995   6.036   7.265
 5697POPC   C1B72091   5.524   5.724   6.211
 5697POPC   C2B72092   5.674   5.739   6.625
 5697POPC   C3B72093   5.503   5.760   7.012
 5697POPC   C4B72094   5.654   5.699   7.423
 5698POPC   NC372095   2.186  37.824   5.346
 5698POPC   PO472096   1.568  37.835   5.570
 5698POPC   GL172097   1.719  37.606   5.847
 5698POPC   GL272098   2.067  37.697   5.835
 5698POPC   C1A72099   1.620  37.611   6.267
 5698POPC   D2A72100   1.555  37.338   6.584
 5698POPC   C3A72101   1.591  37.563   6.925
 5698POPC   C4A72102   1.852  37.556   7.267
 5698POPC   C1B72103   2.309  37.814   6.189
 5698POPC   C2B72104   2.046  37.859   6.526
 5698POPC   C3B72105   2.108  37.825   6.928
 5698POPC   C4B72106   2.362  37.642   7.223
 5699POPC   NC372107  34.265  40.657   5.707
 5699POPC   PO472108  34.863  40.980   5.570
 5699POPC   GL172109  34.677  41.098   5.942
 5699POPC   GL272110  34.743  40.749   6.047
 5699POPC   C1A72111  34.808  41.188   6.375
 5699POPC   D2A72112  34.921  40.788   6.566
 5699POPC   C3A72113  34.707  40.707   6.976
 5699POPC   C4A72114  34.598  40.802   7.443
 5699POPC   C1B72115  34.436  40.816   6.357
 5699POPC   C2B72116  34.240  40.681   6.737
 5699POPC   C3B72117  34.214  40.600   7.179
 5699POPC   C4B72118  34.155  40.637   7.676
 5700POPC   NC372119  25.547  34.384   5.444
 5700POPC   PO472120  26.226  34.448   5.316
 5700POPC   GL172121  26.009  34.602   5.729
 5700POPC   GL272122  26.330  34.769   5.835
 5700POPC   C1A72123  25.791  34.510   6.159
 5700POPC   D2A72124  25.949  34.353   6.588
 5700POPC   C3A72125  25.973  34.536   7.023
 5700POPC   C4A72126  26.221  34.388   7.404
 5700POPC   C1B72127  26.290  34.593   6.215
 5700POPC   C2B72128  26.290  34.750   6.621
 5700POPC   C3B72129  26.354  34.918   7.022
 5700POPC   C4B72130  26.171  34.941   7.396
 5701POPC   NC372131  15.531  30.340   5.636
 5701POPC   PO472132  16.257  30.494   5.410
 5701POPC   GL172133  15.968  30.619   5.764
 5701POPC   GL272134  15.637  30.822   5.797
 5701POPC   C1A72135  15.945  30.708   6.230
 5701POPC   D2A72136  16.093  30.911   6.635
 5701POPC   C3A72137  15.874  30.877   7.088
 5701POPC   C4A72138  15.954  30.838   7.572
 5701POPC   C1B72139  15.439  30.782   6.212
 5701POPC   C2B72140  15.617  30.748   6.630
 5701POPC   C3B72141  15.563  30.469   6.953
 5701POPC   C4B72142  15.567  30.570   7.373
 5702POPC   NC372143  36.547  17.397   5.461
 5702POPC   PO472144  37.177  17.421   5.376
 5702POPC   GL172145  36.981  17.538   5.743
 5702POPC   GL272146  36.720  17.803   5.712
 5702POPC   C1A72147  37.003  17.252   6.112
 5702POPC   D2A72148  36.911  17.319   6.549
 5702POPC   C3A72149  37.123  17.342   6.961
 5702POPC   C4A72150  36.863  17.326   7.338
 5702POPC   C1B72151  36.665  17.654   6.134
 5702POPC   C2B72152  36.746  17.807   6.525
 5702POPC   C3B72153  36.643  17.594   6.914
 5702POPC   C4B72154  36.698  17.804   7.292
 5703POPC   NC372155  20.847   2.138   5.415
 5703POPC   PO472156  20.293   1.818   5.527
 5703POPC   GL172157  20.505   2.105   5.812
 5703POPC   GL272158  20.337   1.926   6.042
 5703POPC   C1A72159  20.749   2.190   6.206
 5703POPC   D2A72160  20.945   1.995   6.594
 5703POPC   C3A72161  20.767   2.159   7.005
 5703POPC   C4A72162  20.441   2.191   7.360
 5703POPC   C1B72163  20.264   2.235   6.365
 5703POPC   C2B72164  20.289   2.187   6.818
 5703POPC   C3B72165  20.419   1.775   7.000
 5703POPC   C4B72166  20.129   1.471   7.152
 5704POPC   NC372167  19.764  44.185   5.528
 5704POPC   PO472168  19.917  43.521   5.599
 5704POPC   GL172169  20.061  43.738   5.931
 5704POPC   GL272170  20.100  44.095   5.917
 5704POPC   C1A72171  20.075  43.712   6.374
 5704POPC   D2A72172  19.683  43.714   6.603
 5704POPC   C3A72173  19.693  43.630   7.028
 5704POPC   C4A72174  20.064  43.781   7.209
 5704POPC   C1B72175  19.760  44.084   6.213
 5704POPC   C2B72176  19.644  44.246   6.584
 5704POPC   C3B72177  19.829  44.146   6.928
 5704POPC   C4B72178  19.632  44.094   7.275
 5705POPC   NC372179   2.320   1.238   5.466
 5705POPC   PO472180   1.646   0.990   5.479
 5705POPC   GL172181   1.904   1.106   5.861
 5705POPC   GL272182   2.271   0.930   5.864
 5705POPC   C1A72183   1.952   1.473   6.195
 5705POPC   D2A72184   1.969   1.728   6.606
 5705POPC   C3A72185   2.072   1.426   6.930
 5705POPC   C4A72186   1.953   1.379   7.343
 5705POPC   C1B72187   2.176   1.005   6.287
 5705POPC   C2B72188   2.032   0.850   6.655
 5705POPC   C3B72189   2.306   0.932   6.965
 5705POPC   C4B72190   2.422   1.198   7.271
 5706POPC   NC372191  31.821   8.476   5.441
 5706POPC   PO472192  31.316   8.080   5.422
 5706POPC   GL172193  31.374   8.420   5.766
 5706POPC   GL272194  31.710   8.455   5.950
 5706POPC   C1A72195  31.279   8.360   6.219
 5706POPC   D2A72196  31.451   8.120   6.583
 5706POPC   C3A72197  31.385   8.268   7.007
 5706POPC   C4A72198  31.219   7.976   7.281
 5706POPC   C1B72199  31.784   8.028   6.183
 5706POPC   C2B72200  31.946   7.940   6.639
 5706POPC   C3B72201  31.839   8.031   7.072
 5706POPC   C4B72202  31.784   8.424   7.328
 5707POPC   NC372203  18.304  29.562   5.403
 5707POPC   PO472204  18.570  28.905   5.372
 5707POPC   GL172205  18.256  29.109   5.735
 5707POPC   GL272206  18.111  29.429   5.858
 5707POPC   C1A72207  18.006  29.001   6.115
 5707POPC   D2A72208  17.989  29.185   6.529
 5707POPC   C3A72209  18.275  29.153   6.860
 5707POPC   C4A72210  18.181  29.433   7.167
 5707POPC   C1B72211  18.402  29.340   6.223
 5707POPC   C2B72212  18.709  29.323   6.623
 5707POPC   C3B72213  18.699  29.430   7.104
 5707POPC   C4B72214  18.488  29.517   7.563
 5708POPC   NC372215  17.380   5.159   5.325
 5708POPC   PO472216  17.670   5.605   5.591
 5708POPC   GL172217  17.700   5.255   5.857
 5708POPC   GL272218  17.453   4.984   5.807
 5708POPC   C1A72219  17.541   5.280   6.273
 5708POPC   D2A72220  17.459   5.520   6.654
 5708POPC   C3A72221  17.613   5.322   7.021
 5708POPC   C4A72222  17.541   5.074   7.385
 5708POPC   C1B72223  17.172   4.922   6.140
 5708POPC   C2B72224  17.155   5.081   6.558
 5708POPC   C3B72225  17.218   4.984   6.986
 5708POPC   C4B72226  17.012   5.131   7.336
 5709POPC   NC372227  33.660  32.877   5.399
 5709POPC   PO472228  33.919  33.398   5.626
 5709POPC   GL172229  33.779  33.119   5.882
 5709POPC   GL272230  33.987  32.872   5.839
 5709POPC   C1A72231  33.583  33.073   6.263
 5709POPC   D2A72232  33.758  33.264   6.647
 5709POPC   C3A72233  33.674  33.073   7.030
 5709POPC   C4A72234  33.347  32.789   7.137
 5709POPC   C1B72235  34.062  32.874   6.285
 5709POPC   C2B72236  34.100  32.617   6.642
 5709POPC   C3B72237  34.104  32.768   7.024
 5709POPC   C4B72238  34.151  33.173   7.227
 5710POPC   NC372239  44.300  37.355   5.496
 5710POPC   PO472240  44.070  37.984   5.360
 5710POPC   GL172241  43.953  37.666   5.739
 5710POPC   GL272242  43.588  37.547   5.798
 5710POPC   C1A72243  43.978  37.665   6.184
 5710POPC   D2A72244  44.179  37.700   6.612
 5710POPC   C3A72245  43.953  37.520   6.997
 5710POPC   C4A72246  43.975  37.826   7.352
 5710POPC   C1B72247  43.443  37.676   6.187
 5710POPC   C2B72248  43.663  37.777   6.568
 5710POPC   C3B72249  43.749  37.971   6.909
 5710POPC   C4B72250  43.506  37.708   7.186
 5711POPC   NC372251  40.452   7.318   5.424
 5711POPC   PO472252  41.051   7.431   5.554
 5711POPC   GL172253  40.818   7.521   5.868
 5711POPC   GL272254  40.667   7.219   5.882
 5711POPC   C1A72255  40.973   7.538   6.284
 5711POPC   D2A72256  41.132   7.733   6.639
 5711POPC   C3A72257  41.066   7.439   6.923
 5711POPC   C4A72258  40.924   7.734   7.202
 5711POPC   C1B72259  40.468   7.473   6.246
 5711POPC   C2B72260  40.609   7.451   6.671
 5711POPC   C3B72261  40.528   7.413   7.099
 5711POPC   C4B72262  40.249   7.747   7.174
 5712POPC   NC372263   8.979  25.842   5.598
 5712POPC   PO472264   8.982  25.218   5.444
 5712POPC   GL172265   8.934  25.321   5.855
 5712POPC   GL272266   8.640  25.550   5.838
 5712POPC   C1A72267   9.066  25.056   6.225
 5712POPC   D2A72268   9.155  24.802   6.614
 5712POPC   C3A72269   9.245  25.024   7.011
 5712POPC   C4A72270   9.267  25.295   7.388
 5712POPC   C1B72271   8.718  25.474   6.285
 5712POPC   C2B72272   8.988  25.369   6.622
 5712POPC   C3B72273   8.850  25.359   7.025
 5712POPC   C4B72274   8.790  25.430   7.481
 5713POPC   NC372275  22.788  18.443   5.467
 5713POPC   PO472276  22.939  17.779   5.552
 5713POPC   GL172277  22.991  18.126   5.819
 5713POPC   GL272278  22.627  18.186   5.901
 5713POPC   C1A72279  23.052  18.184   6.247
 5713POPC   D2A72280  22.738  18.005   6.519
 5713POPC   C3A72281  22.817  18.194   6.889
 5713POPC   C4A72282  22.979  18.216   7.275
 5713POPC   C1B72283  22.631  18.470   6.258
 5713POPC   C2B72284  22.614  18.636   6.669
 5713POPC   C3B72285  22.617  18.607   7.119
 5713POPC   C4B72286  22.646  18.518   7.558
 5714POPC   NC372287  13.931  26.798   5.670
 5714POPC   PO472288  14.585  26.852   5.515
 5714POPC   GL172289  14.388  26.648   5.872
 5714POPC   GL272290  14.089  26.474   6.019
 5714POPC   C1A72291  14.354  26.869   6.255
 5714POPC   D2A72292  14.294  27.186   6.543
 5714POPC   C3A72293  14.446  27.011   6.892
 5714POPC   C4A72294  14.648  26.752   7.152
 5714POPC   C1B72295  14.358  26.359   6.347
 5714POPC   C2B72296  14.443  26.499   6.745
 5714POPC   C3B72297  14.190  26.542   7.106
 5714POPC   C4B72298  14.210  26.575   7.543
 5715POPC   NC372299  41.691  36.510   5.268
 5715POPC   PO472300  41.320  35.978   5.444
 5715POPC   GL172301  41.621  35.885   5.781
 5715POPC   GL272302  41.880  36.158   5.749
 5715POPC   C1A72303  41.537  36.059   6.188
 5715POPC   D2A72304  41.364  36.293   6.530
 5715POPC   C3A72305  41.518  36.134   6.904
 5715POPC   C4A72306  41.514  36.141   7.323
 5715POPC   C1B72307  42.054  36.312   6.160
 5715POPC   C2B72308  41.958  36.213   6.567
 5715POPC   C3B72309  41.970  36.417   6.927
 5715POPC   C4B72310  42.020  36.257   7.319
 5716POPC   NC372311  34.192  19.949   5.486
 5716POPC   PO472312  33.526  20.012   5.447
 5716POPC   GL172313  33.788  19.867   5.805
 5716POPC   GL272314  34.027  19.576   5.812
 5716POPC   C1A72315  33.717  19.649   6.197
 5716POPC   D2A72316  33.555  19.532   6.549
 5716POPC   C3A72317  33.677  19.798   6.831
 5716POPC   C4A72318  33.875  19.664   7.158
 5716POPC   C1B72319  34.179  19.874   6.171
 5716POPC   C2B72320  34.037  20.069   6.568
 5716POPC   C3B72321  34.024  20.135   7.032
 5716POPC   C4B72322  34.076  20.180   7.494
 5717POPC   NC372323  28.622  15.634   5.473
 5717POPC   PO472324  28.022  16.104   5.427
 5717POPC   GL172325  28.214  16.082   5.837
 5717POPC   GL272326  28.516  15.947   5.908
 5717POPC   C1A72327  28.083  16.025   6.259
 5717POPC   D2A72328  27.886  15.810   6.555
 5717POPC   C3A72329  27.995  16.017   6.928
 5717POPC   C4A72330  28.172  15.932   7.323
 5717POPC   C1B72331  28.312  15.609   6.102
 5717POPC   C2B72332  28.352  15.529   6.529
 5717POPC   C3B72333  28.462  15.807   6.861
 5717POPC   C4B72334  28.682  15.832   7.246
 5718POPC   NC372335   9.701  17.189   5.390
 5718POPC   PO472336   9.915  17.804   5.218
 5718POPC   GL172337   9.846  17.555   5.716
 5718POPC   GL272338   9.574  17.669   5.960
 5718POPC   C1A72339   9.887  17.363   6.175
 5718POPC   D2A72340   9.676  17.605   6.519
 5718POPC   C3A72341   9.834  17.503   6.924
 5718POPC   C4A72342  10.043  17.403   7.330
 5718POPC   C1B72343   9.263  17.440   6.223
 5718POPC   C2B72344   9.165  17.452   6.656
 5718POPC   C3B72345   9.329  17.720   6.954
 5718POPC   C4B72346   9.588  17.691   7.336
 5719POPC   NC372347  25.251  20.785   5.466
 5719POPC   PO472348  25.134  20.183   5.308
 5719POPC   GL172349  25.212  20.379   5.772
 5719POPC   GL272350  25.057  20.742   5.917
 5719POPC   C1A72351  25.216  20.394   6.218
 5719POPC   D2A72352  25.261  20.629   6.563
 5719POPC   C3A72353  25.315  20.405   6.915
 5719POPC   C4A72354  25.269  20.478   7.325
 5719POPC   C1B72355  25.246  20.999   6.196
 5719POPC   C2B72356  25.298  21.151   6.595
 5719POPC   C3B72357  25.237  20.929   6.984
 5719POPC   C4B72358  24.946  20.883   7.275
 5720POPC   NC372359  22.590  30.799   5.664
 5720POPC   PO472360  22.351  30.341   5.215
 5720POPC   GL172361  22.133  30.557   5.671
 5720POPC   GL272362  22.082  30.968   5.815
 5720POPC   C1A72363  22.172  30.588   6.173
 5720POPC   D2A72364  21.916  30.514   6.542
 5720POPC   C3A72365  22.024  30.554   6.988
 5720POPC   C4A72366  21.949  30.166   7.163
 5720POPC   C1B72367  21.987  31.051   6.303
 5720POPC   C2B72368  22.230  30.928   6.705
 5720POPC   C3B72369  22.292  31.104   7.153
 5720POPC   C4B72370  22.209  30.824   7.488
 5721POPC   NC372371  38.464  31.510   5.074
 5721POPC   PO472372  38.675  31.844   5.624
 5721POPC   GL172373  38.465  31.507   5.744
 5721POPC   GL272374  38.689  31.209   5.608
 5721POPC   C1A72375  38.304  31.494   6.190
 5721POPC   D2A72376  38.262  31.369   6.643
 5721POPC   C3A72377  38.319  31.516   7.078
 5721POPC   C4A72378  38.095  31.295   7.377
 5721POPC   C1B72379  38.729  31.220   6.058
 5721POPC   C2B72380  38.741  31.381   6.451
 5721POPC   C3B72381  38.758  31.343   6.874
 5721POPC   C4B72382  38.828  31.366   7.289
 5722POPC   NC372383  40.502   8.083   5.413
 5722POPC   PO472384  41.181   8.393   5.315
 5722POPC   GL172385  40.959   8.180   5.671
 5722POPC   GL272386  41.109   7.954   5.923
 5722POPC   C1A72387  40.715   8.265   6.047
 5722POPC   D2A72388  40.785   8.126   6.460
 5722POPC   C3A72389  40.599   8.390   6.795
 5722POPC   C4A72390  40.614   8.157   7.179
 5722POPC   C1B72391  41.209   8.338   6.168
 5722POPC   C2B72392  41.117   8.533   6.567
 5722POPC   C3B72393  41.063   8.216   6.886
 5722POPC   C4B72394  41.113   8.219   7.268
 5723POPC   NC372395  32.518  36.947   5.301
 5723POPC   PO472396  31.911  37.042   5.668
 5723POPC   GL172397  32.293  36.820   5.745
 5723POPC   GL272398  32.405  37.072   5.830
 5723POPC   C1A72399  32.336  36.672   6.167
 5723POPC   D2A72400  32.364  36.504   6.575
 5723POPC   C3A72401  32.178  36.731   6.904
 5723POPC   C4A72402  32.233  36.540   7.283
 5723POPC   C1B72403  32.275  37.188   6.213
 5723POPC   C2B72404  32.409  37.099   6.603
 5723POPC   C3B72405  32.632  37.125   6.970
 5723POPC   C4B72406  32.435  36.989   7.327
 5724POPC   NC372407  38.502  17.274   5.332
 5724POPC   PO472408  38.784  17.963   5.479
 5724POPC   GL172409  38.607  17.810   5.866
 5724POPC   GL272410  38.631  17.466   5.789
 5724POPC   C1A72411  38.271  17.627   6.141
 5724POPC   D2A72412  38.334  17.474   6.577
 5724POPC   C3A72413  38.258  17.696   6.938
 5724POPC   C4A72414  38.499  17.592   7.290
 5724POPC   C1B72415  38.657  17.291   6.200
 5724POPC   C2B72416  38.824  17.292   6.633
 5724POPC   C3B72417  38.570  17.197   6.969
 5724POPC   C4B72418  38.681  17.043   7.345
 5725POPC   NC372419  35.591  33.171   5.434
 5725POPC   PO472420  36.223  32.982   5.453
 5725POPC   GL172421  35.967  33.194   5.788
 5725POPC   GL272422  36.261  33.213   5.931
 5725POPC   C1A72423  35.891  33.019   6.228
 5725POPC   D2A72424  36.106  32.990   6.647
 5725POPC   C3A72425  35.874  32.939   7.056
 5725POPC   C4A72426  35.688  33.258   7.319
 5725POPC   C1B72427  36.215  33.423   6.307
 5725POPC   C2B72428  36.359  33.483   6.719
 5725POPC   C3B72429  36.283  33.227   7.085
 5725POPC   C4B72430  36.338  32.758   7.182
 5726POPC   NC372431   4.136   6.307   5.490
 5726POPC   PO472432   4.172   5.668   5.402
 5726POPC   GL172433   4.320   5.844   5.814
 5726POPC   GL272434   4.508   5.562   5.942
 5726POPC   C1A72435   4.451   6.007   6.261
 5726POPC   D2A72436   4.251   5.932   6.686
 5726POPC   C3A72437   4.373   5.896   7.123
 5726POPC   C4A72438   4.191   5.559   7.354
 5726POPC   C1B72439   4.424   5.508   6.403
 5726POPC   C2B72440   4.647   5.587   6.799
 5726POPC   C3B72441   4.690   5.464   7.249
 5726POPC   C4B72442   4.624   5.754   7.573
 5727POPC   NC372443  27.436  27.553   5.286
 5727POPC   PO472444  26.711  27.561   5.336
 5727POPC   GL172445  26.708  27.584   5.791
 5727POPC   GL272446  27.069  27.601   5.764
 5727POPC   C1A72447  26.642  27.400   6.243
 5727POPC   D2A72448  26.697  27.164   6.626
 5727POPC   C3A72449  26.854  27.305   7.040
 5727POPC   C4A72450  26.573  27.323   7.362
 5727POPC   C1B72451  27.096  27.620   6.220
 5727POPC   C2B72452  27.000  27.638   6.671
 5727POPC   C3B72453  26.837  27.836   7.070
 5727POPC   C4B72454  26.862  27.713   7.529
 5728POPC   NC372455   9.957  43.551   5.444
 5728POPC   PO472456   9.414  43.993   5.365
 5728POPC   GL172457   9.658  43.997   5.772
 5728POPC   GL272458   9.340  43.973   5.923
 5728POPC   C1A72459   9.750  43.785   6.218
 5728POPC   D2A72460   9.654  43.527   6.617
 5728POPC   C3A72461   9.743  43.687   7.051
 5728POPC   C4A72462   9.853  43.893   7.437
 5728POPC   C1B72463   9.440  44.185   6.303
 5728POPC   C2B72464   9.596  44.035   6.694
 5728POPC   C3B72465   9.491  44.149   7.134
 5728POPC   C4B72466   9.409  44.056   7.609
 5729POPC   NC372467  40.053   9.716   5.519
 5729POPC   PO472468  40.610   9.863   5.395
 5729POPC   GL172469  40.408   9.878   5.845
 5729POPC   GL272470  40.056  10.005   5.935
 5729POPC   C1A72471  40.377   9.770   6.281
 5729POPC   D2A72472  40.127   9.669   6.645
 5729POPC   C3A72473  40.156   9.811   7.045
 5729POPC   C4A72474  40.040   9.585   7.442
 5729POPC   C1B72475  39.852   9.729   6.205
 5729POPC   C2B72476  39.627   9.764   6.568
 5729POPC   C3B72477  39.696   9.573   6.931
 5729POPC   C4B72478  39.587   9.422   7.307
 5730POPC   NC372479  40.507  10.341   5.309
 5730POPC   PO472480  39.845  10.141   5.450
 5730POPC   GL172481  40.096  10.460   5.706
 5730POPC   GL272482  40.390  10.376   5.796
 5730POPC   C1A72483  40.178  10.685   6.119
 5730POPC   D2A72484  40.093  10.793   6.538
 5730POPC   C3A72485  40.057  10.554   6.900
 5730POPC   C4A72486  40.196  10.725   7.250
 5730POPC   C1B72487  40.540  10.250   6.199
 5730POPC   C2B72488  40.486  10.428   6.619
 5730POPC   C3B72489  40.442  10.269   7.062
 5730POPC   C4B72490  40.545  10.424   7.459
 5731POPC   NC372491   6.432  26.349   5.505
 5731POPC   PO472492   6.942  26.743   5.250
 5731POPC   GL172493   6.742  26.701   5.688
 5731POPC   GL272494   6.514  26.982   5.765
 5731POPC   C1A72495   6.559  26.560   6.110
 5731POPC   D2A72496   6.455  26.330   6.496
 5731POPC   C3A72497   6.596  26.402   6.916
 5731POPC   C4A72498   6.798  26.673   7.200
 5731POPC   C1B72499   6.723  27.037   6.163
 5731POPC   C2B72500   6.665  26.815   6.553
 5731POPC   C3B72501   6.440  26.893   6.894
 5731POPC   C4B72502   6.571  27.162   7.203
 5732POPC   NC372503  31.853  32.787   5.521
 5732POPC   PO472504  31.432  33.281   5.294
 5732POPC   GL172505  31.486  33.065   5.706
 5732POPC   GL272506  31.798  33.259   5.795
 5732POPC   C1A72507  31.611  32.936   6.146
 5732POPC   D2A72508  31.472  33.012   6.569
 5732POPC   C3A72509  31.564  32.754   6.914
 5732POPC   C4A72510  31.331  32.890   7.266
 5732POPC   C1B72511  31.953  33.302   6.228
 5732POPC   C2B72512  31.803  33.408   6.630
 5732POPC   C3B72513  31.766  33.226   7.033
 5732POPC   C4B72514  31.870  33.382   7.455
 5733POPC   NC372515   2.328  13.326   5.580
 5733POPC   PO472516   1.854  13.701   5.227
 5733POPC   GL172517   1.930  13.618   5.707
 5733POPC   GL272518   1.828  13.268   5.790
 5733POPC   C1A72519   2.095  13.510   6.172
 5733POPC   D2A72520   2.036  13.312   6.601
 5733POPC   C3A72521   2.243  13.491   6.980
 5733POPC   C4A72522   2.250  13.856   7.272
 5733POPC   C1B72523   1.583  13.489   6.105
 5733POPC   C2B72524   1.661  13.672   6.519
 5733POPC   C3B72525   1.657  13.550   6.958
 5733POPC   C4B72526   1.857  13.373   7.318
 5734POPC   NC372527  22.654  30.045   5.389
 5734POPC   PO472528  23.297  30.034   5.321
 5734POPC   GL172529  23.053  30.055   5.818
 5734POPC   GL272530  22.788  29.864   5.875
 5734POPC   C1A72531  22.856  30.172   6.292
 5734POPC   D2A72532  22.854  30.011   6.715
 5734POPC   C3A72533  22.781  30.220   7.128
 5734POPC   C4A72534  23.113  30.068   7.208
 5734POPC   C1B72535  22.821  29.682   6.279
 5734POPC   C2B72536  22.887  29.463   6.598
 5734POPC   C3B72537  23.059  29.591   6.940
 5734POPC   C4B72538  22.720  29.714   7.131
 5735POPC   NC372539  29.871  44.285   5.211
 5735POPC   PO472540  30.028  44.892   5.399
 5735POPC   GL172541  30.076  44.745   5.814
 5735POPC   GL272542  29.758  44.721   5.835
 5735POPC   C1A72543  30.059  44.657   6.251
 5735POPC   D2A72544  29.849  44.414   6.559
 5735POPC   C3A72545  30.037  44.494   6.946
 5735POPC   C4A72546  30.069  44.848   7.156
 5735POPC   C1B72547  29.509  44.670   6.213
 5735POPC   C2B72548  29.351  44.538   6.582
 5735POPC   C3B72549  29.514  44.555   6.948
 5735POPC   C4B72550  29.612  44.638   7.335
 5736POPC   NC372551   7.270  12.759   5.688
 5736POPC   PO472552   7.635  13.124   5.226
 5736POPC   GL172553   7.798  13.253   5.688
 5736POPC   GL272554   7.706  12.964   5.780
 5736POPC   C1A72555   7.781  13.211   6.198
 5736POPC   D2A72556   7.358  13.047   6.413
 5736POPC   C3A72557   7.325  12.867   6.840
 5736POPC   C4A72558   7.519  12.854   7.222
 5736POPC   C1B72559   7.694  12.700   6.171
 5736POPC   C2B72560   7.777  12.788   6.584
 5736POPC   C3B72561   7.814  12.567   6.930
 5736POPC   C4B72562   7.733  12.374   7.290
 5737POPC   NC372563  14.731  14.162   5.530
 5737POPC   PO472564  15.370  14.435   5.558
 5737POPC   GL172565  15.247  14.482   5.961
 5737POPC   GL272566  15.304  14.829   5.950
 5737POPC   C1A72567  15.398  14.493   6.387
 5737POPC   D2A72568  15.519  14.585   6.801
 5737POPC   C3A72569  15.535  14.353   7.166
 5737POPC   C4A72570  15.129  14.332   7.323
 5737POPC   C1B72571  14.838  14.783   6.050
 5737POPC   C2B72572  14.702  14.801   6.480
 5737POPC   C3B72573  15.014  14.735   6.819
 5737POPC   C4B72574  14.919  14.798   7.241
 5738POPC   NC372575  35.027  42.067   5.581
 5738POPC   PO472576  34.356  41.845   5.555
 5738POPC   GL172577  34.592  42.094   5.856
 5738POPC   GL272578  34.538  42.456   5.843
 5738POPC   C1A72579  34.857  42.213   6.208
 5738POPC   D2A72580  34.916  42.346   6.618
 5738POPC   C3A72581  34.712  42.108   6.945
 5738POPC   C4A72582  34.778  42.163   7.404
 5738POPC   C1B72583  34.299  42.611   6.213
 5738POPC   C2B72584  34.046  42.553   6.603
 5738POPC   C3B72585  34.157  42.277   6.931
 5738POPC   C4B72586  34.327  42.357   7.333
 5739POPC   NC372587  38.819  19.219   5.369
 5739POPC   PO472588  38.362  18.862   5.609
 5739POPC   GL172589  38.548  19.083   5.961
 5739POPC   GL272590  38.784  19.344   5.888
 5739POPC   C1A72591  38.565  18.900   6.369
 5739POPC   D2A72592  38.331  18.631   6.609
 5739POPC   C3A72593  38.439  18.667   7.020
 5739POPC   C4A72594  38.642  18.874   7.360
 5739POPC   C1B72595  38.830  19.335   6.354
 5739POPC   C2B72596  38.700  19.229   6.780
 5739POPC   C3B72597  38.689  19.363   7.217
 5739POPC   C4B72598  38.806  19.351   7.680
 5740POPC   NC372599  17.389  26.532   5.478
 5740POPC   PO472600  17.431  25.923   5.540
 5740POPC   GL172601  17.633  26.001   5.904
 5740POPC   GL272602  17.854  26.243   5.729
 5740POPC   C1A72603  17.414  26.022   6.328
 5740POPC   D2A72604  17.103  26.182   6.648
 5740POPC   C3A72605  17.293  26.161   7.056
 5740POPC   C4A72606  17.594  25.794   7.124
 5740POPC   C1B72607  17.841  26.416   6.175
 5740POPC   C2B72608  17.679  26.402   6.621
 5740POPC   C3B72609  17.815  26.272   7.038
 5740POPC   C4B72610  17.992  26.018   7.398
 5741POPC   NC372611   5.586   8.326   5.405
 5741POPC   PO472612   4.927   8.283   5.430
 5741POPC   GL172613   5.105   8.295   5.824
 5741POPC   GL272614   5.205   7.982   5.999
 5741POPC   C1A72615   5.204   8.467   6.242
 5741POPC   D2A72616   5.236   8.233   6.614
 5741POPC   C3A72617   5.372   8.372   7.005
 5741POPC   C4A72618   5.128   8.660   7.235
 5741POPC   C1B72619   4.881   8.070   6.261
 5741POPC   C2B72620   4.755   7.962   6.641
 5741POPC   C3B72621   4.918   8.136   7.018
 5741POPC   C4B72622   4.932   7.938   7.412
 5742POPC   NC372623  17.923   5.984   5.682
 5742POPC   PO472624  17.432   5.917   5.133
 5742POPC   GL172625  17.382   5.989   5.732
 5742POPC   GL272626  17.583   5.769   6.045
 5742POPC   C1A72627  17.281   6.094   6.256
 5742POPC   D2A72628  17.528   6.051   6.706
 5742POPC   C3A72629  17.452   5.810   7.104
 5742POPC   C4A72630  17.579   5.563   7.483
 5742POPC   C1B72631  17.833   6.090   6.293
 5742POPC   C2B72632  17.916   6.406   6.606
 5742POPC   C3B72633  17.968   6.201   7.013
 5742POPC   C4B72634  17.620   6.264   7.254
 5743POPC   NC372635   4.289  13.090   5.167
 5743POPC   PO472636   4.412  12.502   5.481
 5743POPC   GL172637   4.134  12.664   5.754
 5743POPC   GL272638   4.227  12.998   5.777
 5743POPC   C1A72639   4.260  12.678   6.174
 5743POPC   D2A72640   4.434  12.919   6.476
 5743POPC   C3A72641   4.287  12.858   6.878
 5743POPC   C4A72642   4.537  12.988   7.201
 5743POPC   C1B72643   4.024  13.139   6.215
 5743POPC   C2B72644   4.117  13.301   6.661
 5743POPC   C3B72645   4.161  13.307   7.121
 5743POPC   C4B72646   4.003  12.948   7.339
 5744POPC   NC372647  27.369  29.452   5.049
 5744POPC   PO472648  27.752  29.824   5.380
 5744POPC   GL172649  27.592  29.902   5.810
 5744POPC   GL272650  27.889  29.759   5.985
 5744POPC   C1A72651  27.402  29.850   6.246
 5744POPC   D2A72652  27.589  29.902   6.683
 5744POPC   C3A72653  27.332  29.868   7.049
 5744POPC   C4A72654  27.470  30.031   7.475
 5744POPC   C1B72655  27.763  29.525   6.362
 5744POPC   C2B72656  27.782  29.446   6.790
 5744POPC   C3B72657  27.756  29.671   7.203
 5744POPC   C4B72658  27.793  29.708   7.675
 5745POPC   NC372659   9.936  16.283   5.436
 5745POPC   PO472660   9.569  15.708   5.533
 5745POPC   GL172661   9.773  15.958   5.799
 5745POPC   GL272662  10.019  15.786   5.937
 5745POPC   C1A72663   9.752  16.139   6.201
 5745POPC   D2A72664   9.855  15.906   6.575
 5745POPC   C3A72665   9.943  16.060   6.976
 5745POPC   C4A72666   9.833  15.944   7.386
 5745POPC   C1B72667  10.123  15.534   6.286
 5745POPC   C2B72668  10.204  15.589   6.753
 5745POPC   C3B72669  10.323  15.767   7.165
 5745POPC   C4B72670  10.223  15.781   7.659
 5746POPC   NC372671  25.784  16.008   5.471
 5746POPC   PO472672  26.361  15.923   5.548
 5746POPC   GL172673  26.098  15.823   5.884
 5746POPC   GL272674  25.813  15.576   5.816
 5746POPC   C1A72675  26.194  16.029   6.278
 5746POPC   D2A72676  26.395  16.129   6.655
 5746POPC   C3A72677  26.159  16.042   6.990
 5746POPC   C4A72678  26.221  15.906   7.378
 5746POPC   C1B72679  26.018  15.451   6.228
 5746POPC   C2B72680  26.201  15.627   6.625
 5746POPC   C3B72681  25.966  15.572   7.012
 5746POPC   C4B72682  25.743  15.891   7.268
 5747POPC   NC372683   9.082  10.681   5.210
 5747POPC   PO472684   8.731  10.123   5.507
 5747POPC   GL172685   8.993  10.472   5.709
 5747POPC   GL272686   8.954  10.830   5.692
 5747POPC   C1A72687   9.127  10.530   6.133
 5747POPC   D2A72688   8.893  10.529   6.520
 5747POPC   C3A72689   9.083  10.691   6.908
 5747POPC   C4A72690   9.188  10.575   7.350
 5747POPC   C1B72691   8.785  10.911   6.106
 5747POPC   C2B72692   8.816  11.054   6.519
 5747POPC   C3B72693   8.671  11.059   6.922
 5747POPC   C4B72694   8.880  10.986   7.285
 5748POPC   NC372695  13.073  29.183   5.438
 5748POPC   PO472696  12.554  28.802   5.570
 5748POPC   GL172697  12.765  29.069   5.868
 5748POPC   GL272698  13.077  28.971   5.888
 5748POPC   C1A72699  12.927  29.295   6.262
 5748POPC   D2A72700  12.757  29.460   6.637
 5748POPC   C3A72701  12.918  29.294   7.020
 5748POPC   C4A72702  12.916  29.420   7.457
 5748POPC   C1B72703  12.949  28.789   6.257
 5748POPC   C2B72704  13.081  28.951   6.640
 5748POPC   C3B72705  13.032  28.784   7.028
 5748POPC   C4B72706  12.994  28.916   7.443
 5749POPC   NC372707   9.902  14.640   5.057
 5749POPC   PO472708   9.479  14.299   5.507
 5749POPC   GL172709   9.721  14.326   5.873
 5749POPC   GL272710  10.108  14.299   5.887
 5749POPC   C1A72711   9.563  14.450   6.273
 5749POPC   D2A72712   9.315  14.381   6.623
 5749POPC   C3A72713   9.517  14.687   6.844
 5749POPC   C4A72714   9.729  14.663   7.199
 5749POPC   C1B72715   9.944  14.117   6.281
 5749POPC   C2B72716   9.853  14.301   6.697
 5749POPC   C3B72717  10.093  14.312   7.083
 5749POPC   C4B72718  10.151  14.060   7.442
 5750POPC   NC372719  12.540  39.228   5.653
 5750POPC   PO472720  11.894  39.223   5.449
 5750POPC   GL172721  12.036  39.103   5.865
 5750POPC   GL272722  12.317  38.876   5.969
 5750POPC   C1A72723  12.127  39.275   6.275
 5750POPC   D2A72724  12.353  39.219   6.682
 5750POPC   C3A72725  12.104  39.282   7.046
 5750POPC   C4A72726  11.695  39.333   7.242
 5750POPC   C1B72727  12.104  38.786   6.396
 5750POPC   C2B72728  11.832  38.871   6.782
 5750POPC   C3B72729  11.883  38.855   7.241
 5750POPC   C4B72730  11.796  38.981   7.677
 5751POPC   NC372731  44.002  38.457   5.441
 5751POPC   PO472732  44.575  38.276   5.663
 5751POPC   GL172733  44.166  38.186   5.914
 5751POPC   GL272734  43.803  38.140   5.788
 5751POPC   C1A72735  43.986  38.530   6.216
 5751POPC   D2A72736  43.990  38.791   6.624
 5751POPC   C3A72737  44.031  38.660   7.076
 5751POPC   C4A72738  43.791  38.744   7.446
 5751POPC   C1B72739  43.685  38.131   6.207
 5751POPC   C2B72740  43.657  38.380   6.604
 5751POPC   C3B72741  43.544  38.515   7.008
 5751POPC   C4B72742  43.683  38.246   7.326
 5752POPC   NC372743  28.763  44.570   5.641
 5752POPC   PO472744  28.135  44.471   5.375
 5752POPC   GL172745  28.210  44.712   5.772
 5752POPC   GL272746  28.490  44.855   5.949
 5752POPC   C1A72747  28.124  44.649   6.211
 5752POPC   D2A72748  28.408  44.626   6.513
 5752POPC   C3A72749  28.215  44.633   6.882
 5752POPC   C4A72750  28.270  44.446   7.268
 5752POPC   C1B72751  28.660   0.099   6.255
 5752POPC   C2B72752  28.755  44.993   6.671
 5752POPC   C3B72753  28.656  44.795   7.056
 5752POPC   C4B72754  28.606  44.858   7.477
 5753POPC   NC372755  32.814   0.943   5.386
 5753POPC   PO472756  32.370   1.438   5.501
 5753POPC   GL172757  32.403   1.417   5.901
 5753POPC   GL272758  32.717   1.588   5.947
 5753POPC   C1A72759  32.185   1.256   6.281
 5753POPC   D2A72760  32.356   1.028   6.646
 5753POPC   C3A72761  32.127   1.102   7.027
 5753POPC   C4A72762  31.867   1.030   7.402
 5753POPC   C1B72763  32.670   1.389   6.337
 5753POPC   C2B72764  32.433   1.530   6.669
 5753POPC   C3B72765  32.535   1.454   7.093
 5753POPC   C4B72766  32.256   1.383   7.439
 5754POPC   NC372767  11.122  39.803   5.487
 5754POPC   PO472768  11.080  40.471   5.470
 5754POPC   GL172769  11.356  40.210   5.739
 5754POPC   GL272770  11.598  39.910   5.705
 5754POPC   C1A72771  11.452  40.216   6.191
 5754POPC   D2A72772  11.203  40.344   6.559
 5754POPC   C3A72773  11.355  40.206   6.951
 5754POPC   C4A72774  11.181  40.209   7.355
 5754POPC   C1B72775  11.741  39.784   6.145
 5754POPC   C2B72776  11.473  39.776   6.532
 5754POPC   C3B72777  11.653  39.778   6.944
 5754POPC   C4B72778  11.485  39.799   7.378
 5755POPC   NC372779   9.850  24.074   5.523
 5755POPC   PO472780   9.538  23.525   5.428
 5755POPC   GL172781   9.683  23.659   5.805
 5755POPC   GL272782  10.037  23.634   5.762
 5755POPC   C1A72783   9.613  23.828   6.204
 5755POPC   D2A72784   9.559  23.947   6.633
 5755POPC   C3A72785   9.580  23.682   7.023
 5755POPC   C4A72786   9.694  23.793   7.432
 5755POPC   C1B72787  10.027  23.527   6.233
 5755POPC   C2B72788   9.980  23.612   6.708
 5755POPC   C3B72789  10.084  23.824   7.128
 5755POPC   C4B72790  10.216  23.845   7.622
 5756POPC   NC372791   0.621  17.022   5.364
 5756POPC   PO472792   0.586  16.379   5.379
 5756POPC   GL172793   0.500  16.636   5.775
 5756POPC   GL272794   0.419  17.003   5.849
 5756POPC   C1A72795   0.379  16.627   6.217
 5756POPC   D2A72796   0.620  16.512   6.579
 5756POPC   C3A72797   0.419  16.557   6.958
 5756POPC   C4A72798   0.562  16.521   7.332
 5756POPC   C1B72799   0.614  17.090   6.282
 5756POPC   C2B72800   0.445  16.986   6.702
 5756POPC   C3B72801   0.432  17.037   7.183
 5756POPC   C4B72802   0.113  17.092   7.512
 5757POPC   NC372803  22.362  43.437   5.557
 5757POPC   PO472804  22.188  44.109   5.305
 5757POPC   GL172805  22.259  43.924   5.702
 5757POPC   GL272806  21.957  43.874   5.896
 5757POPC   C1A72807  22.361  44.015   6.146
 5757POPC   D2A72808  22.318  44.261   6.500
 5757POPC   C3A72809  22.470  44.122   6.875
 5757POPC   C4A72810  22.222  44.242   7.224
 5757POPC   C1B72811  21.934  43.637   6.227
 5757POPC   C2B72812  22.115  43.730   6.577
 5757POPC   C3B72813  22.067  43.807   6.982
 5757POPC   C4B72814  22.135  43.583   7.309
 5758POPC   NC372815  18.690  22.118   5.702
 5758POPC   PO472816  19.316  22.236   5.526
 5758POPC   GL172817  19.281  22.198   5.918
 5758POPC   GL272818  19.092  21.879   5.955
 5758POPC   C1A72819  19.360  22.503   6.225
 5758POPC   D2A72820  19.177  22.572   6.617
 5758POPC   C3A72821  18.928  22.253   6.830
 5758POPC   C4A72822  19.076  22.167   7.217
 5758POPC   C1B72823  19.120  22.067   6.382
 5758POPC   C2B72824  19.412  22.086   6.737
 5758POPC   C3B72825  19.461  21.825   7.108
 5758POPC   C4B72826  19.196  21.727   7.419
 5759POPC   NC372827   3.729   0.901   5.049
 5759POPC   PO472828   3.651   1.416   5.524
 5759POPC   GL172829   3.695   1.319   5.910
 5759POPC   GL272830   3.531   0.990   5.943
 5759POPC   C1A72831   3.788   1.260   6.315
 5759POPC   D2A72832   3.613   1.097   6.639
 5759POPC   C3A72833   3.894   1.246   6.916
 5759POPC   C4A72834   3.826   1.242   7.331
 5759POPC   C1B72835   3.283   1.213   6.265
 5759POPC   C2B72836   3.101   1.283   6.668
 5759POPC   C3B72837   3.324   1.293   7.055
 5759POPC   C4B72838   3.226   1.447   7.467
 5760POPC   NC372839  19.227  22.701   5.385
 5760POPC   PO472840  18.595  22.545   5.539
 5760POPC   GL172841  18.956  22.640   5.846
 5760POPC   GL272842  19.270  22.912   5.840
 5760POPC   C1A72843  18.934  22.875   6.242
 5760POPC   D2A72844  18.745  23.200   6.520
 5760POPC   C3A72845  18.887  23.078   6.922
 5760POPC   C4A72846  19.026  22.682   7.100
 5760POPC   C1B72847  19.443  23.063   6.238
 5760POPC   C2B72848  19.621  22.811   6.573
 5760POPC   C3B72849  19.543  22.718   7.003
 5760POPC   C4B72850  19.341  23.087   7.164
 5761POPC   NC372851  12.846  37.327   5.491
 5761POPC   PO472852  12.977  38.008   5.488
 5761POPC   GL172853  13.109  37.711   5.776
 5761POPC   GL272854  12.776  37.622   5.909
 5761POPC   C1A72855  13.179  37.658   6.212
 5761POPC   D2A72856  12.866  37.560   6.520
 5761POPC   C3A72857  13.007  37.780   6.897
 5761POPC   C4A72858  13.080  37.661   7.313
 5761POPC   C1B72859  12.812  38.016   6.193
 5761POPC   C2B72860  12.633  38.008   6.610
 5761POPC   C3B72861  12.508  37.659   6.901
 5761POPC   C4B72862  12.583  37.790   7.314
 5762POPC   NC372863  26.644   7.359   5.482
 5762POPC   PO472864  27.321   7.109   5.518
 5762POPC   GL172865  27.138   7.398   5.848
 5762POPC   GL272866  26.793   7.339   5.973
 5762POPC   C1A72867  27.094   7.663   6.250
 5762POPC   D2A72868  26.856   7.790   6.669
 5762POPC   C3A72869  26.667   7.478   6.991
 5762POPC   C4A72870  26.688   7.425   7.459
 5762POPC   C1B72871  26.751   7.330   6.444
 5762POPC   C2B72872  27.003   7.105   6.751
 5762POPC   C3B72873  26.932   6.998   7.183
 5762POPC   C4B72874  27.077   7.123   7.606
 5763POPC   NC372875  39.263  12.511   5.588
 5763POPC   PO472876  38.886  13.052   5.520
 5763POPC   GL172877  38.952  13.177   5.910
 5763POPC   GL272878  39.272  12.990   5.882
 5763POPC   C1A72879  39.035  13.053   6.333
 5763POPC   D2A72880  39.393  12.965   6.590
 5763POPC   C3A72881  39.278  12.876   6.962
 5763POPC   C4A72882  39.405  13.067   7.306
 5763POPC   C1B72883  39.425  12.677   6.180
 5763POPC   C2B72884  39.422  12.424   6.539
 5763POPC   C3B72885  39.664  12.458   6.876
 5763POPC   C4B72886  39.578  12.574   7.289
 5764POPC   NC372887  32.773  27.198   5.579
 5764POPC   PO472888  32.373  27.817   5.464
 5764POPC   GL172889  32.189  27.776   5.843
 5764POPC   GL272890  32.081  28.053   5.983
 5764POPC   C1A72891  32.045  27.595   6.266
 5764POPC   D2A72892  31.941  27.642   6.708
 5764POPC   C3A72893  32.205  27.612   7.080
 5764POPC   C4A72894  32.287  27.208   7.248
 5764POPC   C1B72895  32.463  27.902   6.226
 5764POPC   C2B72896  32.465  27.708   6.608
 5764POPC   C3B72897  32.674  27.831   6.947
 5764POPC   C4B72898  32.603  27.918   7.338
 5765POPC   NC372899   7.172  29.666   5.450
 5765POPC   PO472900   7.354  30.285   5.345
 5765POPC   GL172901   7.324  30.068   5.753
 5765POPC   GL272902   7.426  29.729   5.877
 5765POPC   C1A72903   7.170  30.125   6.177
 5765POPC   D2A72904   7.280  29.918   6.567
 5765POPC   C3A72905   7.337  30.159   6.940
 5765POPC   C4A72906   7.436  30.094   7.375
 5765POPC   C1B72907   7.579  29.456   6.209
 5765POPC   C2B72908   7.569  29.500   6.647
 5765POPC   C3B72909   7.479  29.671   7.044
 5765POPC   C4B72910   7.722  29.675   7.414
 5766POPC   NC372911  29.969  29.483   5.369
 5766POPC   PO472912  29.517  28.996   5.380
 5766POPC   GL172913  29.863  29.031   5.702
 5766POPC   GL272914  30.082  29.328   5.814
 5766POPC   C1A72915  29.909  28.970   6.150
 5766POPC   D2A72916  29.688  28.847   6.525
 5766POPC   C3A72917  29.777  29.044   6.919
 5766POPC   C4A72918  30.014  28.937   7.300
 5766POPC   C1B72919  29.739  29.447   6.066
 5766POPC   C2B72920  29.820  29.385   6.480
 5766POPC   C3B72921  29.858  29.572   6.873
 5766POPC   C4B72922  29.782  29.426   7.268
 5767POPC   NC372923  31.810   6.884   5.520
 5767POPC   PO472924  32.427   6.528   5.289
 5767POPC   GL172925  32.204   6.586   5.667
 5767POPC   GL272926  32.310   6.940   5.693
 5767POPC   C1A72927  32.099   6.677   6.120
 5767POPC   D2A72928  31.941   6.590   6.549
 5767POPC   C3A72929  32.197   6.512   6.920
 5767POPC   C4A72930  32.254   6.558   7.377
 5767POPC   C1B72931  32.362   7.158   6.112
 5767POPC   C2B72932  32.307   6.945   6.518
 5767POPC   C3B72933  32.247   7.014   6.928
 5767POPC   C4B72934  32.506   7.283   7.102
 5768POPC   NC372935  40.418  16.489   5.509
 5768POPC   PO472936  41.043  16.872   5.630
 5768POPC   GL172937  40.737  16.711   5.882
 5768POPC   GL272938  40.763  16.361   5.868
 5768POPC   C1A72939  40.703  16.646   6.330
 5768POPC   D2A72940  40.439  16.599   6.694
 5768POPC   C3A72941  40.588  16.604   7.134
 5768POPC   C4A72942  40.527  16.688   7.577
 5768POPC   C1B72943  41.086  16.290   6.179
 5768POPC   C2B72944  41.096  16.157   6.623
 5768POPC   C3B72945  41.286  16.425   6.952
 5768POPC   C4B72946  41.081  16.689   7.282
 5769POPC   NC372947  17.311  31.098   5.348
 5769POPC   PO472948  17.760  31.605   5.422
 5769POPC   GL172949  17.636  31.341   5.792
 5769POPC   GL272950  17.274  31.320   5.816
 5769POPC   C1A72951  17.687  31.298   6.261
 5769POPC   D2A72952  17.644  31.486   6.693
 5769POPC   C3A72953  17.516  31.180   6.999
 5769POPC   C4A72954  17.813  30.980   7.199
 5769POPC   C1B72955  17.186  31.444   6.240
 5769POPC   C2B72956  17.167  31.278   6.653
 5769POPC   C3B72957  17.052  31.433   7.076
 5769POPC   C4B72958  17.203  31.348   7.498
 5770POPC   NC372959  44.980  39.611   5.438
 5770POPC   PO472960  44.623  39.046   5.602
 5770POPC   GL172961  44.919  39.240   5.815
 5770POPC   GL272962  44.831  39.546   5.943
 5770POPC   C1A72963  44.977  39.183   6.241
 5770POPC   D2A72964   0.065  39.400   6.593
 5770POPC   C3A72965  44.773  39.274   6.847
 5770POPC   C4A72966  44.565  39.039   7.136
 5770POPC   C1B72967  44.610  39.527   6.357
 5770POPC   C2B72968  44.526  39.730   6.741
 5770POPC   C3B72969  44.433  39.556   7.129
 5770POPC   C4B72970  44.113  39.231   7.216
 5771POPC   NC372971  10.339  21.406   5.433
 5771POPC   PO472972  10.986  21.443   5.396
 5771POPC   GL172973  10.777  21.272   5.792
 5771POPC   GL272974  10.406  21.171   5.895
 5771POPC   C1A72975  10.768  21.171   6.248
 5771POPC   D2A72976  10.455  21.218   6.553
 5771POPC   C3A72977  10.583  21.200   6.972
 5771POPC   C4A72978  10.635  21.394   7.357
 5771POPC   C1B72979  10.330  21.569   6.185
 5771POPC   C2B72980  10.245  21.715   6.655
 5771POPC   C3B72981  10.458  21.786   7.090
 5771POPC   C4B72982  10.340  21.763   7.582
 5772POPC   NC372983  38.200  16.387   5.371
 5772POPC   PO472984  37.542  16.521   5.613
 5772POPC   GL172985  37.408  16.776   5.970
 5772POPC   GL272986  37.721  16.970   5.965
 5772POPC   C1A72987  37.156  16.598   6.316
 5772POPC   D2A72988  37.283  16.276   6.625
 5772POPC   C3A72989  37.435  16.489   7.019
 5772POPC   C4A72990  37.869  16.554   7.149
 5772POPC   C1B72991  37.487  17.157   6.334
 5772POPC   C2B72992  37.506  17.040   6.785
 5772POPC   C3B72993  37.680  17.036   7.203
 5772POPC   C4B72994  37.799  17.103   7.665
 5773POPC   NC372995  19.351  37.797   5.555
 5773POPC   PO472996  18.871  37.431   5.297
 5773POPC   GL172997  18.910  37.464   5.756
 5773POPC   GL272998  19.261  37.418   5.899
 5773POPC   C1A72999  18.728  37.605   6.165
 5773POPC   D2A73000  18.672  37.451   6.561
 5773POPC   C3A73001  18.942  37.617   6.863
 5773POPC   C4A73002  18.774  37.560   7.257
 5773POPC   C1B73003  19.179  37.822   6.165
 5773POPC   C2B73004  19.266  38.063   6.509
 5773POPC   C3B73005  19.266  38.123   6.924
 5773POPC   C4B73006  19.182  37.863   7.257
 5774POPC   NC373007  21.111  33.333   5.075
 5774POPC   PO473008  20.838  32.825   5.350
 5774POPC   GL173009  20.678  33.029   5.733
 5774POPC   GL273010  20.331  33.066   5.786
 5774POPC   C1A73011  20.619  33.257   6.146
 5774POPC   D2A73012  20.564  33.110   6.581
 5774POPC   C3A73013  20.491  33.336   6.941
 5774POPC   C4A73014  20.699  33.271   7.313
 5774POPC   C1B73015  20.343  32.835   6.218
 5774POPC   C2B73016  20.248  32.732   6.689
 5774POPC   C3B73017  20.505  32.844   7.075
 5774POPC   C4B73018  20.474  32.866   7.557
 5775POPC   NC373019  16.098  27.923   5.370
 5775POPC   PO473020  15.578  27.525   5.602
 5775POPC   GL173021  15.792  27.770   5.798
 5775POPC   GL273022  16.119  27.660   5.796
 5775POPC   C1A73023  15.735  27.748   6.216
 5775POPC   D2A73024  15.896  27.870   6.571
 5775POPC   C3A73025  15.683  27.825   6.942
 5775POPC   C4A73026  15.911  27.816   7.299
 5775POPC   C1B73027  16.108  27.388   6.141
 5775POPC   C2B73028  16.189  27.439   6.559
 5775POPC   C3B73029  16.168  27.553   6.958
 5775POPC   C4B73030  16.220  27.408   7.412
 5776POPC   NC373031   3.686  38.779   5.634
 5776POPC   PO473032   3.477  39.316   5.402
 5776POPC   GL173033   3.559  39.368   5.876
 5776POPC   GL273034   3.576  39.043   6.049
 5776POPC   C1A73035   3.725  39.458   6.318
 5776POPC   D2A73036   3.577  39.234   6.694
 5776POPC   C3A73037   3.572  39.312   7.127
 5776POPC   C4A73038   3.846  38.981   7.266
 5776POPC   C1B73039   3.249  39.199   6.292
 5776POPC   C2B73040   3.054  39.189   6.702
 5776POPC   C3B73041   3.082  39.074   7.135
 5776POPC   C4B73042   3.185  39.289   7.540
 5777POPC   NC373043  24.048  13.237   5.351
 5777POPC   PO473044  23.598  13.658   5.464
 5777POPC   GL173045  23.822  13.626   5.830
 5777POPC   GL273046  24.180  13.492   5.786
 5777POPC   C1A73047  23.695  13.738   6.212
 5777POPC   D2A73048  23.783  13.489   6.536
 5777POPC   C3A73049  23.782  13.497   6.964
 5777POPC   C4A73050  23.556  13.478   7.381
 5777POPC   C1B73051  24.221  13.732   6.159
 5777POPC   C2B73052  24.047  13.983   6.493
 5777POPC   C3B73053  24.052  14.002   6.923
 5777POPC   C4B73054  24.013  13.759   7.306
 5778POPC   NC373055  40.319  23.896   5.475
 5778POPC   PO473056  39.800  23.465   5.598
 5778POPC   GL173057  40.056  23.710   5.869
 5778POPC   GL273058  39.947  24.069   5.819
 5778POPC   C1A73059  40.302  23.609   6.228
 5778POPC   D2A73060  40.434  23.758   6.609
 5778POPC   C3A73061  40.276  23.561   7.008
 5778POPC   C4A73062  39.840  23.606   7.156
 5778POPC   C1B73063  39.860  23.953   6.267
 5778POPC   C2B73064  39.939  23.830   6.701
 5778POPC   C3B73065  39.996  24.077   7.097
 5778POPC   C4B73066  39.783  24.117   7.544
 5779POPC   NC373067   6.155  13.680   5.430
 5779POPC   PO473068   5.500  13.411   5.420
 5779POPC   GL173069   5.608  13.771   5.740
 5779POPC   GL273070   5.940  13.656   5.888
 5779POPC   C1A73071   5.672  13.938   6.204
 5779POPC   D2A73072   6.042  13.839   6.493
 5779POPC   C3A73073   5.954  13.795   6.951
 5779POPC   C4A73074   5.852  13.507   7.313
 5779POPC   C1B73075   5.950  13.387   6.251
 5779POPC   C2B73076   5.994  13.333   6.705
 5779POPC   C3B73077   6.141  13.159   7.094
 5779POPC   C4B73078   6.182  13.220   7.574
 5780POPC   NC373079  40.367  27.429   5.567
 5780POPC   PO473080  39.846  27.719   5.173
 5780POPC   GL173081  39.896  27.616   5.680
 5780POPC   GL273082  40.033  27.358   5.943
 5780POPC   C1A73083  39.832  27.776   6.140
 5780POPC   D2A73084  39.914  27.990   6.529
 5780POPC   C3A73085  40.058  27.727   6.871
 5780POPC   C4A73086  39.797  27.487   7.146
 5780POPC   C1B73087  40.168  27.455   6.402
 5780POPC   C2B73088  40.536  27.487   6.704
 5780POPC   C3B73089  40.504  27.642   7.132
 5780POPC   C4B73090  40.186  27.499   7.459
 5781POPC   NC373091  27.470  33.140   5.321
 5781POPC   PO473092  27.925  32.724   5.463
 5781POPC   GL173093  27.620  32.850   5.772
 5781POPC   GL273094  27.638  33.200   5.813
 5781POPC   C1A73095  27.552  32.855   6.243
 5781POPC   D2A73096  27.647  33.162   6.599
 5781POPC   C3A73097  27.609  33.057   7.041
 5781POPC   C4A73098  27.592  32.717   7.335
 5781POPC   C1B73099  27.492  33.441   6.186
 5781POPC   C2B73100  27.215  33.485   6.578
 5781POPC   C3B73101  27.271  33.423   7.045
 5781POPC   C4B73102  27.274  33.105   7.439
 5782POPC   NC373103  31.948  31.174   5.493
 5782POPC   PO473104  31.302  31.543   5.376
 5782POPC   GL173105  31.475  31.406   5.791
 5782POPC   GL273106  31.697  31.139   5.946
 5782POPC   C1A73107  31.526  31.552   6.218
 5782POPC   D2A73108  31.700  31.417   6.581
 5782POPC   C3A73109  31.540  31.645   6.908
 5782POPC   C4A73110  31.528  31.693   7.366
 5782POPC   C1B73111  31.293  31.096   6.199
 5782POPC   C2B73112  31.184  31.271   6.620
 5782POPC   C3B73113  31.355  31.195   7.050
 5782POPC   C4B73114  31.222  31.278   7.485
 5783POPC   NC373115  35.417  14.884   5.426
 5783POPC   PO473116  34.767  15.138   5.391
 5783POPC   GL173117  35.049  15.092   5.763
 5783POPC   GL273118  35.361  15.329   5.760
 5783POPC   C1A73119  35.317  14.920   6.102
 5783POPC   D2A73120  35.576  14.974   6.486
 5783POPC   C3A73121  35.349  14.958   6.857
 5783POPC   C4A73122  35.465  14.893   7.253
 5783POPC   C1B73123  35.518  15.417   6.205
 5783POPC   C2B73124  35.555  15.474   6.685
 5783POPC   C3B73125  35.382  15.442   7.121
 5783POPC   C4B73126  35.453  15.322   7.559
 5784POPC   NC373127  44.457  23.604   5.413
 5784POPC   PO473128  44.660  24.261   5.210
 5784POPC   GL173129  44.734  23.939   5.639
 5784POPC   GL273130  44.836  23.580   5.755
 5784POPC   C1A73131  44.696  23.886   6.145
 5784POPC   D2A73132  44.724  24.012   6.626
 5784POPC   C3A73133  44.609  23.845   7.063
 5784POPC   C4A73134  44.512  23.984   7.505
 5784POPC   C1B73135  44.681  23.376   6.152
 5784POPC   C2B73136  44.520  23.521   6.548
 5784POPC   C3B73137  44.365  23.376   6.952
 5784POPC   C4B73138  44.388  23.474   7.382
 5785POPC   NC373139  38.958  14.129   5.406
 5785POPC   PO473140  39.508  14.611   5.544
 5785POPC   GL173141  39.298  14.408   5.895
 5785POPC   GL273142  38.952  14.354   5.855
 5785POPC   C1A73143  39.175  14.130   6.263
 5785POPC   D2A73144  39.013  13.973   6.675
 5785POPC   C3A73145  39.281  14.178   6.990
 5785POPC   C4A73146  39.356  14.661   7.117
 5785POPC   C1B73147  38.864  14.546   6.241
 5785POPC   C2B73148  39.023  14.514   6.651
 5785POPC   C3B73149  38.883  14.485   7.060
 5785POPC   C4B73150  38.918  14.103   7.330
 5786POPC   NC373151  31.999  27.397   5.558
 5786POPC   PO473152  31.397  27.606   5.406
 5786POPC   GL173153  31.337  27.806   5.794
 5786POPC   GL273154  31.686  27.728   5.845
 5786POPC   C1A73155  31.172  27.738   6.219
 5786POPC   D2A73156  31.442  27.711   6.567
 5786POPC   C3A73157  31.550  27.780   6.995
 5786POPC   C4A73158  31.290  27.719   7.296
 5786POPC   C1B73159  31.573  27.370   6.129
 5786POPC   C2B73160  31.311  27.217   6.495
 5786POPC   C3B73161  31.362  27.180   6.941
 5786POPC   C4B73162  31.775  27.293   7.098
 5787POPC   NC373163   9.444  31.180   5.361
 5787POPC   PO473164   9.951  31.690   5.424
 5787POPC   GL173165   9.820  31.441   5.810
 5787POPC   GL273166   9.615  31.158   5.899
 5787POPC   C1A73167   9.972  31.361   6.257
 5787POPC   D2A73168   9.793  31.428   6.695
 5787POPC   C3A73169  10.017  31.299   7.054
 5787POPC   C4A73170  10.039  31.103   7.462
 5787POPC   C1B73171   9.460  31.369   6.280
 5787POPC   C2B73172   9.284  31.253   6.669
 5787POPC   C3B73173   9.288  31.272   7.090
 5787POPC   C4B73174   9.608  31.464   7.353
 5788POPC   NC373175  16.837  39.953   5.141
 5788POPC   PO473176  16.360  40.082   5.459
 5788POPC   GL173177  16.443  40.219   5.840
 5788POPC   GL273178  16.793  40.168   5.763
 5788POPC   C1A73179  16.466  40.048   6.245
 5788POPC   D2A73180  16.465  39.742   6.573
 5788POPC   C3A73181  16.476  39.978   6.924
 5788POPC   C4A73182  16.635  39.940   7.303
 5788POPC   C1B73183  16.953  39.967   6.110
 5788POPC   C2B73184  16.929  39.957   6.532
 5788POPC   C3B73185  16.991  39.912   6.948
 5788POPC   C4B73186  17.177  40.066   7.301
 5789POPC   NC373187  10.089  26.383   5.491
 5789POPC   PO473188   9.384  26.132   5.498
 5789POPC   GL173189   9.483  26.033   5.910
 5789POPC   GL273190   9.853  26.041   5.859
 5789POPC   C1A73191   9.644  26.212   6.313
 5789POPC   D2A73192   9.907  26.337   6.681
 5789POPC   C3A73193   9.701  26.190   7.040
 5789POPC   C4A73194   9.286  26.090   7.211
 5789POPC   C1B73195   9.804  25.742   6.196
 5789POPC   C2B73196   9.743  25.832   6.657
 5789POPC   C3B73197  10.079  25.855   6.981
 5789POPC   C4B73198  10.122  25.522   7.300
 5790POPC   NC373199   4.632   8.576   5.194
 5790POPC   PO473200   4.373   7.919   5.342
 5790POPC   GL173201   4.289   8.071   5.771
 5790POPC   GL273202   4.598   8.065   5.864
 5790POPC   C1A73203   4.254   7.905   6.218
 5790POPC   D2A73204   4.101   8.080   6.631
 5790POPC   C3A73205   4.401   8.154   6.968
 5790POPC   C4A73206   4.607   7.734   7.081
 5790POPC   C1B73207   4.453   8.352   6.266
 5790POPC   C2B73208   4.738   8.477   6.573
 5790POPC   C3B73209   4.663   8.621   6.962
 5790POPC   C4B73210   4.303   8.636   7.233
 5791POPC   NC373211  40.729  31.435   5.455
 5791POPC   PO473212  41.108  30.982   5.773
 5791POPC   GL173213  40.857  31.361   5.940
 5791POPC   GL273214  40.516  31.508   5.898
 5791POPC   C1A73215  40.754  31.536   6.338
 5791POPC   D2A73216  40.563  31.338   6.660
 5791POPC   C3A73217  40.691  31.597   7.000
 5791POPC   C4A73218  40.904  31.453   7.295
 5791POPC   C1B73219  40.324  31.796   6.203
 5791POPC   C2B73220  40.420  31.825   6.636
 5791POPC   C3B73221  40.199  31.746   7.014
 5791POPC   C4B73222  40.352  31.613   7.435
 5792POPC   NC373223   3.442   1.802   5.375
 5792POPC   PO473224   3.408   2.489   5.197
 5792POPC   GL173225   3.377   2.236   5.668
 5792POPC   GL273226   3.579   1.913   5.852
 5792POPC   C1A73227   3.387   2.232   6.173
 5792POPC   D2A73228   3.639   2.113   6.543
 5792POPC   C3A73229   3.475   2.173   6.956
 5792POPC   C4A73230   3.680   2.136   7.343
 5792POPC   C1B73231   3.492   1.710   6.258
 5792POPC   C2B73232   3.503   1.602   6.675
 5792POPC   C3B73233   3.680   1.687   7.064
 5792POPC   C4B73234   3.645   1.685   7.511
 5793POPC   NC373235  16.753  35.341   5.438
 5793POPC   PO473236  16.376  35.024   5.796
 5793POPC   GL173237  16.651  35.376   5.933
 5793POPC   GL273238  16.976  35.198   5.887
 5793POPC   C1A73239  16.867  35.489   6.316
 5793POPC   D2A73240  16.702  35.309   6.733
 5793POPC   C3A73241  16.693  35.516   7.137
 5793POPC   C4A73242  16.338  35.642   7.395
 5793POPC   C1B73243  17.038  35.023   6.327
 5793POPC   C2B73244  17.211  35.230   6.697
 5793POPC   C3B73245  17.067  35.187   7.106
 5793POPC   C4B73246  16.703  34.962   7.244
 5794POPC   NC373247  23.230   3.788   5.409
 5794POPC   PO473248  22.943   3.171   5.246
 5794POPC   GL173249  22.963   3.428   5.673
 5794POPC   GL273250  22.637   3.519   5.851
 5794POPC   C1A73251  23.115   3.620   6.083
 5794POPC   D2A73252  23.204   3.339   6.456
 5794POPC   C3A73253  23.025   3.315   6.885
 5794POPC   C4A73254  22.917   3.569   7.218
 5794POPC   C1B73255  22.704   3.441   6.316
 5794POPC   C2B73256  22.890   3.738   6.614
 5794POPC   C3B73257  22.614   3.815   6.909
 5794POPC   C4B73258  22.518   3.368   6.961
 5795POPC   NC373259  24.452  15.552   5.423
 5795POPC   PO473260  24.486  16.242   5.407
 5795POPC   GL173261  24.495  16.107   5.821
 5795POPC   GL273262  24.715  15.829   5.776
 5795POPC   C1A73263  24.272  16.191   6.223
 5795POPC   D2A73264  24.247  15.935   6.596
 5795POPC   C3A73265  24.314  16.056   7.001
 5795POPC   C4A73266  24.503  16.194   7.381
 5795POPC   C1B73267  24.558  15.749   6.181
 5795POPC   C2B73268  24.739  15.796   6.563
 5795POPC   C3B73269  24.596  15.653   6.944
 5795POPC   C4B73270  24.738  15.758   7.325
 5796POPC   NC373271   4.916  28.485   5.458
 5796POPC   PO473272   5.421  28.020   5.502
 5796POPC   GL173273   5.109  28.156   5.802
 5796POPC   GL273274   5.303  28.059   6.050
 5796POPC   C1A73275   4.957  28.390   6.210
 5796POPC   D2A73276   5.130  28.367   6.661
 5796POPC   C3A73277   4.896  28.328   7.060
 5796POPC   C4A73278   4.686  28.608   7.334
 5796POPC   C1B73279   5.011  27.890   6.314
 5796POPC   C2B73280   4.935  27.870   6.729
 5796POPC   C3B73281   5.261  27.981   6.989
 5796POPC   C4B73282   5.281  28.074   7.369
 5797POPC   NC373283  34.725  22.788   5.423
 5797POPC   PO473284  34.376  23.408   5.520
 5797POPC   GL173285  34.539  23.091   5.823
 5797POPC   GL273286  34.535  22.705   5.872
 5797POPC   C1A73287  34.487  23.017   6.263
 5797POPC   D2A73288  34.784  23.047   6.609
 5797POPC   C3A73289  34.701  23.188   7.038
 5797POPC   C4A73290  34.937  23.227   7.428
 5797POPC   C1B73291  34.715  22.573   6.256
 5797POPC   C2B73292  34.517  22.613   6.641
 5797POPC   C3B73293  34.685  22.608   7.067
 5797POPC   C4B73294  34.924  22.717   7.431
 5798POPC   NC373295  25.551  16.961   5.280
 5798POPC   PO473296  24.970  16.658   5.291
 5798POPC   GL173297  25.164  16.797   5.678
 5798POPC   GL273298  25.316  16.484   5.787
 5798POPC   C1A73299  25.104  16.804   6.158
 5798POPC   D2A73300  25.037  16.670   6.603
 5798POPC   C3A73301  25.009  16.950   7.003
 5798POPC   C4A73302  25.251  16.856   7.425
 5798POPC   C1B73303  25.407  16.378   6.219
 5798POPC   C2B73304  25.604  16.569   6.573
 5798POPC   C3B73305  25.421  16.661   6.959
 5798POPC   C4B73306  25.185  16.390   7.234
 5799POPC   NC373307   7.980  44.233   5.479
 5799POPC   PO473308   8.319  44.769   5.395
 5799POPC   GL173309   8.355  44.644   5.836
 5799POPC   GL273310   8.164  44.366   5.928
 5799POPC   C1A73311   8.451  44.613   6.277
 5799POPC   D2A73312   8.283  44.726   6.680
 5799POPC   C3A73313   8.547  44.620   7.039
 5799POPC   C4A73314   8.486  44.377   7.410
 5799POPC   C1B73315   7.813  44.445   6.181
 5799POPC   C2B73316   7.731  44.604   6.614
 5799POPC   C3B73317   7.883  44.693   7.023
 5799POPC   C4B73318   8.015  44.564   7.416
 5800POPC   NC373319   4.222  31.949   5.384
 5800POPC   PO473320   4.621  32.464   5.440
 5800POPC   GL173321   4.370  32.206   5.797
 5800POPC   GL273322   4.077  32.005   5.865
 5800POPC   C1A73323   4.467  32.016   6.241
 5800POPC   D2A73324   4.639  32.130   6.675
 5800POPC   C3A73325   4.444  32.399   7.047
 5800POPC   C4A73326   4.550  32.156   7.421
 5800POPC   C1B73327   4.090  32.347   6.190
 5800POPC   C2B73328   4.182  32.321   6.603
 5800POPC   C3B73329   4.140  32.037   6.948
 5800POPC   C4B73330   3.820  32.374   7.085
 5801POPC   NC373331  23.212   1.950   5.486
 5801POPC   PO473332  22.536   2.017   5.616
 5801POPC   GL173333  22.712   1.845   5.949
 5801POPC   GL273334  23.047   1.705   5.917
 5801POPC   C1A73335  22.833   1.957   6.371
 5801POPC   D2A73336  23.031   1.895   6.775
 5801POPC   C3A73337  22.783   1.955   7.130
 5801POPC   C4A73338  22.807   1.756   7.541
 5801POPC   C1B73339  23.272   2.048   6.123
 5801POPC   C2B73340  23.424   2.100   6.534
 5801POPC   C3B73341  23.413   2.198   6.986
 5801POPC   C4B73342  23.248   2.011   7.347
 5802POPC   NC373343  36.909  42.570   5.448
 5802POPC   PO473344  37.283  41.926   5.442
 5802POPC   GL173345  37.098  42.190   5.811
 5802POPC   GL273346  36.703  42.272   5.819
 5802POPC   C1A73347  36.953  42.193   6.271
 5802POPC   D2A73348  37.034  42.417   6.686
 5802POPC   C3A73349  36.943  42.192   7.091
 5802POPC   C4A73350  36.828  42.315   7.520
 5802POPC   C1B73351  36.693  42.635   6.119
 5802POPC   C2B73352  36.637  42.746   6.560
 5802POPC   C3B73353  36.659  42.618   7.018
 5802POPC   C4B73354  36.460  42.675   7.431
 5803POPC   NC373355  10.656  33.613   5.441
 5803POPC   PO473356  10.129  34.071   5.364
 5803POPC   GL173357  10.385  33.903   5.776
 5803POPC   GL273358  10.778  33.801   5.884
 5803POPC   C1A73359  10.384  33.600   6.155
 5803POPC   D2A73360  10.534  33.460   6.604
 5803POPC   C3A73361  10.539  33.706   7.001
 5803POPC   C4A73362  10.447  33.584   7.458
 5803POPC   C1B73363  10.850  33.762   6.314
 5803POPC   C2B73364  10.808  34.005   6.638
 5803POPC   C3B73365  10.932  34.107   7.032
 5803POPC   C4B73366  10.700  34.035   7.346
 5804POPC   NC373367  31.743  17.550   5.315
 5804POPC   PO473368  31.189  17.184   5.527
 5804POPC   GL173369  31.430  17.178   5.894
 5804POPC   GL273370  31.741  17.289   5.778
 5804POPC   C1A73371  31.444  17.272   6.334
 5804POPC   D2A73372  31.288  17.468   6.715
 5804POPC   C3A73373  31.534  17.496   7.088
 5804POPC   C4A73374  31.428  17.553   7.518
 5804POPC   C1B73375  31.714  17.632   6.097
 5804POPC   C2B73376  31.728  17.722   6.568
 5804POPC   C3B73377  31.798  17.920   6.985
 5804POPC   C4B73378  31.837  17.843   7.482
 5805POPC   NC373379  10.032  28.005   5.659
 5805POPC   PO473380   9.753  28.498   5.304
 5805POPC   GL173381   9.930  28.537   5.730
 5805POPC   GL273382   9.582  28.651   5.788
 5805POPC   C1A73383   9.836  28.381   6.184
 5805POPC   D2A73384   9.771  28.151   6.585
 5805POPC   C3A73385   9.995  28.261   6.954
 5805POPC   C4A73386   9.855  28.404   7.339
 5805POPC   C1B73387   9.498  28.788   6.197
 5805POPC   C2B73388   9.363  28.636   6.574
 5805POPC   C3B73389   9.509  28.475   6.950
 5805POPC   C4B73390   9.383  28.638   7.321
 5806POPC   NC373391  16.135  10.761   5.441
 5806POPC   PO473392  15.758  10.219   5.320
 5806POPC   GL173393  16.057  10.366   5.732
 5806POPC   GL273394  16.036  10.711   5.946
 5806POPC   C1A73395  16.198  10.273   6.184
 5806POPC   D2A73396  16.010  10.505   6.535
 5806POPC   C3A73397  15.899  10.327   6.902
 5806POPC   C4A73398  15.929  10.362   7.357
 5806POPC   C1B73399  15.968  10.987   6.323
 5806POPC   C2B73400  16.159  10.963   6.752
 5806POPC   C3B73401  16.029  10.822   7.155
 5806POPC   C4B73402  16.017  10.837   7.627
 5807POPC   NC373403   6.268  44.712   5.561
 5807POPC   PO473404   6.828  44.297   5.389
 5807POPC   GL173405   6.792  44.500   5.792
 5807POPC   GL273406   6.713  44.845   5.785
 5807POPC   C1A73407   6.849  44.651   6.236
 5807POPC   D2A73408   6.595  44.765   6.577
 5807POPC   C3A73409   6.588  44.561   6.954
 5807POPC   C4A73410   6.890  44.767   7.228
 5807POPC   C1B73411   6.438   0.017   6.142
 5807POPC   C2B73412   6.203   0.095   6.524
 5807POPC   C3B73413   6.344   0.049   6.937
 5807POPC   C4B73414   6.392  44.865   7.318
 5808POPC   NC373415   3.851  42.450   5.487
 5808POPC   PO473416   3.199  42.457   5.502
 5808POPC   GL173417   3.390  42.188   5.833
 5808POPC   GL273418   3.735  42.027   5.819
 5808POPC   C1A73419   3.381  42.354   6.250
 5808POPC   D2A73420   3.093  42.383   6.614
 5808POPC   C3A73421   3.341  42.568   6.939
 5808POPC   C4A73422   3.625  42.348   7.229
 5808POPC   C1B73423   3.656  41.926   6.283
 5808POPC   C2B73424   3.630  42.059   6.744
 5808POPC   C3B73425   3.955  41.985   7.102
 5808POPC   C4B73426   3.968  42.116   7.545
 5809POPC   NC373427   2.570  40.299   5.469
 5809POPC   PO473428   3.052  39.846   5.492
 5809POPC   GL173429   2.876  40.105   5.855
 5809POPC   GL273430   2.512  40.007   5.876
 5809POPC   C1A73431   2.915  40.011   6.318
 5809POPC   D2A73432   3.055  40.059   6.742
 5809POPC   C3A73433   2.889  40.347   6.988
 5809POPC   C4A73434   2.864  40.238   7.427
 5809POPC   C1B73435   2.428  40.172   6.282
 5809POPC   C2B73436   2.550  40.068   6.682
 5809POPC   C3B73437   2.559  39.952   7.117
 5809POPC   C4B73438   2.346  40.286   7.372
 5810POPC   NC373439   9.556  13.917   5.250
 5810POPC   PO473440  10.203  13.612   5.445
 5810POPC   GL173441   9.993  13.792   5.804
 5810POPC   GL273442   9.626  13.827   5.757
 5810POPC   C1A73443   9.825  13.622   6.193
 5810POPC   D2A73444   9.972  13.552   6.598
 5810POPC   C3A73445   9.655  13.426   6.853
 5810POPC   C4A73446   9.486  13.454   7.228
 5810POPC   C1B73447   9.435  13.974   6.158
 5810POPC   C2B73448   9.538  13.879   6.600
 5810POPC   C3B73449   9.706  13.922   7.039
 5810POPC   C4B73450   9.659  14.208   7.396
 5811POPC   NC373451  16.141  26.206   5.529
 5811POPC   PO473452  15.574  25.744   5.501
 5811POPC   GL173453  15.630  25.856   5.908
 5811POPC   GL273454  15.789  26.171   5.906
 5811POPC   C1A73455  15.786  25.875   6.335
 5811POPC   D2A73456  16.067  25.932   6.673
 5811POPC   C3A73457  15.846  25.846   7.064
 5811POPC   C4A73458  15.697  25.788   7.507
 5811POPC   C1B73459  16.166  26.224   6.213
 5811POPC   C2B73460  16.232  26.420   6.626
 5811POPC   C3B73461  16.207  26.258   7.072
 5811POPC   C4B73462  15.810  26.274   7.358
 5812POPC   NC373463   2.807  27.122   5.196
 5812POPC   PO473464   2.926  27.748   5.331
 5812POPC   GL173465   2.687  27.605   5.722
 5812POPC   GL273466   2.672  27.918   5.901
 5812POPC   C1A73467   2.842  27.483   6.177
 5812POPC   D2A73468   3.050  27.384   6.609
 5812POPC   C3A73469   2.845  27.416   7.050
 5812POPC   C4A73470   2.779  27.446   7.543
 5812POPC   C1B73471   2.541  27.881   6.336
 5812POPC   C2B73472   2.640  27.811   6.770
 5812POPC   C3B73473   2.548  27.810   7.230
 5812POPC   C4B73474   2.522  27.889   7.683
 5813POPC   NC373475  31.702  11.068   5.405
 5813POPC   PO473476  31.369  11.667   5.365
 5813POPC   GL173477  31.443  11.494   5.760
 5813POPC   GL273478  31.767  11.478   5.878
 5813POPC   C1A73479  31.388  11.306   6.179
 5813POPC   D2A73480  31.585  11.208   6.588
 5813POPC   C3A73481  31.457  11.381   7.002
 5813POPC   C4A73482  31.725  11.407   7.378
 5813POPC   C1B73483  31.867  11.076   6.115
 5813POPC   C2B73484  31.841  10.780   6.469
 5813POPC   C3B73485  31.624  10.772   6.848
 5813POPC   C4B73486  31.689  10.914   7.235
 5814POPC   NC373487  41.994  44.734   5.395
 5814POPC   PO473488  42.586  44.544   5.533
 5814POPC   GL173489  42.307  44.582   5.886
 5814POPC   GL273490  41.952  44.682   5.896
 5814POPC   C1A73491  42.352  44.840   6.249
 5814POPC   D2A73492  42.670  44.909   6.553
 5814POPC   C3A73493  42.491  44.724   6.893
 5814POPC   C4A73494  42.545  44.793   7.280
 5814POPC   C1B73495  41.970  44.477   6.275
 5814POPC   C2B73496  42.031  44.682   6.624
 5814POPC   C3B73497  42.172   0.067   6.702
 5814POPC   C4B73498  42.098   0.027   7.132
 5815POPC   NC373499  44.710  27.377   5.247
 5815POPC   PO473500  44.877  26.625   5.266
 5815POPC   GL173501  44.857  26.736   5.734
 5815POPC   GL273502  44.773  27.069   5.799
 5815POPC   C1A73503  44.955  26.828   6.213
 5815POPC   D2A73504  44.741  26.912   6.631
 5815POPC   C3A73505   0.015  26.877   7.002
 5815POPC   C4A73506   0.036  26.587   7.350
 5815POPC   C1B73507  44.464  26.936   6.162
 5815POPC   C2B73508  44.176  26.846   6.496
 5815POPC   C3B73509  44.256  26.759   6.907
 5815POPC   C4B73510  44.539  26.916   7.182
 5816POPC   NC373511   5.445   9.105   5.450
 5816POPC   PO473512   4.754   8.951   5.463
 5816POPC   GL173513   5.053   8.876   5.820
 5816POPC   GL273514   5.316   9.111   5.929
 5816POPC   C1A73515   5.012   8.931   6.295
 5816POPC   D2A73516   5.145   8.761   6.696
 5816POPC   C3A73517   4.940   9.046   6.950
 5816POPC   C4A73518   4.742   9.012   7.330
 5816POPC   C1B73519   5.539   9.021   6.296
 5816POPC   C2B73520   5.403   9.204   6.669
 5816POPC   C3B73521   5.397   9.189   7.095
 5816POPC   C4B73522   5.139   9.343   7.380
 5817POPC   NC373523  38.677  36.340   5.626
 5817POPC   PO473524  38.383  35.818   5.353
 5817POPC   GL173525  38.469  35.864   5.779
 5817POPC   GL273526  38.253  36.116   5.860
 5817POPC   C1A73527  38.553  35.925   6.234
 5817POPC   D2A73528  38.637  36.258   6.570
 5817POPC   C3A73529  38.408  36.154   6.957
 5817POPC   C4A73530  38.539  36.087   7.380
 5817POPC   C1B73531  38.250  36.363   6.240
 5817POPC   C2B73532  38.127  36.493   6.632
 5817POPC   C3B73533  37.920  36.454   6.996
 5817POPC   C4B73534  38.026  36.153   7.321
 5818POPC   NC373535  15.174  43.754   5.359
 5818POPC   PO473536  14.576  44.173   5.417
 5818POPC   GL173537  14.974  44.034   5.749
 5818POPC   GL273538  15.161  43.715   5.859
 5818POPC   C1A73539  15.160  44.059   6.226
 5818POPC   D2A73540  15.071  44.038   6.701
 5818POPC   C3A73541  15.227  43.960   7.145
 5818POPC   C4A73542  15.325  44.070   7.594
 5818POPC   C1B73543  15.346  43.567   6.237
 5818POPC   C2B73544  15.290  43.552   6.693
 5818POPC   C3B73545  15.184  43.447   7.108
 5818POPC   C4B73546  15.251  43.510   7.535
 5819POPC   NC373547  39.922   0.176   5.348
 5819POPC   PO473548  40.083   0.756   5.450
 5819POPC   GL173549  40.170   0.415   5.758
 5819POPC   GL273550  39.818   0.350   5.838
 5819POPC   C1A73551  40.151   0.291   6.207
 5819POPC   D2A73552  40.037   0.551   6.578
 5819POPC   C3A73553  40.152   0.418   7.007
 5819POPC   C4A73554  39.849   0.416   7.349
 5819POPC   C1B73555  39.630   0.568   6.197
 5819POPC   C2B73556  39.531   0.732   6.592
 5819POPC   C3B73557  39.728   0.781   6.983
 5819POPC   C4B73558  39.682   1.095   7.306
 5820POPC   NC373559   4.657   8.545   5.703
 5820POPC   PO473560   4.196   8.790   5.320
 5820POPC   GL173561   4.259   8.869   5.753
 5820POPC   GL273562   4.136   8.566   5.875
 5820POPC   C1A73563   4.317   9.054   6.175
 5820POPC   D2A73564   4.126   9.072   6.606
 5820POPC   C3A73565   4.359   9.061   6.967
 5820POPC   C4A73566   4.232   9.257   7.345
 5820POPC   C1B73567   3.995   8.649   6.295
 5820POPC   C2B73568   4.116   8.583   6.740
 5820POPC   C3B73569   3.838   8.723   7.066
 5820POPC   C4B73570   3.924   8.875   7.494
 5821POPC   NC373571   9.598  20.769   5.570
 5821POPC   PO473572  10.068  20.274   5.477
 5821POPC   GL173573  10.013  20.481   5.895
 5821POPC   GL273574   9.962  20.827   5.944
 5821POPC   C1A73575   9.899  20.485   6.352
 5821POPC   D2A73576   9.577  20.224   6.584
 5821POPC   C3A73577   9.595  20.293   7.027
 5821POPC   C4A73578   9.996  20.502   7.127
 5821POPC   C1B73579   9.592  20.889   6.286
 5821POPC   C2B73580   9.560  20.746   6.752
 5821POPC   C3B73581   9.539  20.768   7.238
 5821POPC   C4B73582   9.338  20.873   7.670
 5822POPC   NC373583  39.456   5.322   5.453
 5822POPC   PO473584  39.051   4.856   5.565
 5822POPC   GL173585  39.198   5.114   5.907
 5822POPC   GL273586  39.544   5.042   5.876
 5822POPC   C1A73587  39.352   5.061   6.338
 5822POPC   D2A73588  39.191   5.188   6.685
 5822POPC   C3A73589  39.234   4.957   7.013
 5822POPC   C4A73590  39.135   5.054   7.404
 5822POPC   C1B73591  39.588   5.458   6.124
 5822POPC   C2B73592  39.530   5.574   6.589
 5822POPC   C3B73593  39.504   5.407   7.020
 5822POPC   C4B73594  39.640   5.085   7.309
 5823POPC   NC373595  35.420  44.445   5.240
 5823POPC   PO473596  35.789   0.070   5.435
 5823POPC   GL173597  35.692  44.876   5.870
 5823POPC   GL273598  35.741  44.498   5.908
 5823POPC   C1A73599  35.466  44.787   6.289
 5823POPC   D2A73600  35.280  44.976   6.667
 5823POPC   C3A73601  35.303  44.742   7.022
 5823POPC   C4A73602  35.650  44.620   7.201
 5823POPC   C1B73603  35.642  44.300   6.327
 5823POPC   C2B73604  35.557  44.300   6.786
 5823POPC   C3B73605  35.280  44.197   7.156
 5823POPC   C4B73606  35.428  43.967   7.538
 5824POPC   NC373607  21.107   6.434   5.294
 5824POPC   PO473608  20.436   6.645   5.470
 5824POPC   GL173609  20.652   6.580   5.865
 5824POPC   GL273610  20.930   6.828   5.819
 5824POPC   C1A73611  20.673   6.645   6.338
 5824POPC   D2A73612  20.418   6.780   6.725
 5824POPC   C3A73613  20.497   6.574   7.132
 5824POPC   C4A73614  20.407   6.566   7.575
 5824POPC   C1B73615  21.058   7.011   6.222
 5824POPC   C2B73616  21.050   6.836   6.659
 5824POPC   C3B73617  20.869   6.970   7.055
 5824POPC   C4B73618  20.861   6.936   7.516
 5825POPC   NC373619  26.851  36.418   5.514
 5825POPC   PO473620  27.261  35.826   5.469
 5825POPC   GL173621  26.828  35.939   5.743
 5825POPC   GL273622  26.780  36.270   5.977
 5825POPC   C1A73623  26.663  35.844   6.189
 5825POPC   D2A73624  26.805  36.039   6.569
 5825POPC   C3A73625  26.734  35.962   6.985
 5825POPC   C4A73626  26.768  36.236   7.352
 5825POPC   C1B73627  26.506  36.373   6.330
 5825POPC   C2B73628  26.535  36.448   6.780
 5825POPC   C3B73629  26.316  36.252   7.113
 5825POPC   C4B73630  26.337  35.849   7.309
 5826POPC   NC373631  21.174   7.301   5.321
 5826POPC   PO473632  21.540   7.820   5.490
 5826POPC   GL173633  21.335   7.552   5.793
 5826POPC   GL273634  21.356   7.169   5.770
 5826POPC   C1A73635  21.500   7.512   6.224
 5826POPC   D2A73636  21.658   7.704   6.603
 5826POPC   C3A73637  21.503   7.641   7.024
 5826POPC   C4A73638  21.601   7.370   7.358
 5826POPC   C1B73639  21.622   7.040   6.088
 5826POPC   C2B73640  21.522   6.984   6.517
 5826POPC   C3B73641  21.402   7.134   6.920
 5826POPC   C4B73642  21.334   6.932   7.284
 5827POPC   NC373643   0.591   4.965   5.069
 5827POPC   PO473644   0.450   5.466   5.521
 5827POPC   GL173645   0.639   5.141   5.755
 5827POPC   GL273646   0.338   4.944   5.757
 5827POPC   C1A73647   0.732   5.153   6.189
 5827POPC   D2A73648   0.475   5.240   6.578
 5827POPC   C3A73649   0.666   5.230   6.993
 5827POPC   C4A73650   0.835   5.449   7.370
 5827POPC   C1B73651   0.320   4.874   6.219
 5827POPC   C2B73652   0.383   4.715   6.670
 5827POPC   C3B73653   0.269   4.873   7.098
 5827POPC   C4B73654   0.192   4.723   7.546
 5828POPC   NC373655  33.420  32.264   5.363
 5828POPC   PO473656  32.798  32.041   5.364
 5828POPC   GL173657  33.063  32.231   5.741
 5828POPC   GL273658  33.383  32.024   5.819
 5828POPC   C1A73659  33.124  32.221   6.210
 5828POPC   D2A73660  33.366  32.236   6.595
 5828POPC   C3A73661  33.135  32.354   6.959
 5828POPC   C4A73662  33.146  32.391   7.388
 5828POPC   C1B73663  33.394  31.725   6.190
 5828POPC   C2B73664  33.502  31.737   6.638
 5828POPC   C3B73665  33.303  31.807   7.039
 5828POPC   C4B73666  33.320  31.938   7.489
 5829POPC   NC373667  27.804   3.465   5.217
 5829POPC   PO473668  28.299   3.303   5.667
 5829POPC   GL173669  28.153   3.651   5.851
 5829POPC   GL273670  27.843   3.802   5.733
 5829POPC   C1A73671  28.350   3.742   6.236
 5829POPC   D2A73672  28.586   3.517   6.528
 5829POPC   C3A73673  28.583   3.531   6.968
 5829POPC   C4A73674  28.465   3.276   7.311
 5829POPC   C1B73675  27.976   4.070   6.103
 5829POPC   C2B73676  28.007   3.955   6.555
 5829POPC   C3B73677  28.104   3.579   6.827
 5829POPC   C4B73678  28.207   3.723   7.259
 5830POPC   NC373679  32.452  10.757   5.528
 5830POPC   PO473680  31.788  10.610   5.511
 5830POPC   GL173681  32.085  10.463   5.768
 5830POPC   GL273682  32.319  10.222   5.734
 5830POPC   C1A73683  32.193  10.585   6.160
 5830POPC   D2A73684  32.216  10.402   6.547
 5830POPC   C3A73685  32.125  10.662   6.909
 5830POPC   C4A73686  32.298  10.627   7.284
 5830POPC   C1B73687  32.575  10.237   6.118
 5830POPC   C2B73688  32.728  10.361   6.540
 5830POPC   C3B73689  32.551  10.293   6.947
 5830POPC   C4B73690  32.527  10.099   7.330
 5831POPC   NC373691  41.857   7.448   5.337
 5831POPC   PO473692  42.527   7.348   5.510
 5831POPC   GL173693  42.156   7.474   5.773
 5831POPC   GL273694  42.029   7.119   5.818
 5831POPC   C1A73695  42.073   7.672   6.189
 5831POPC   D2A73696  42.255   7.544   6.593
 5831POPC   C3A73697  42.044   7.518   7.002
 5831POPC   C4A73698  42.153   7.665   7.431
 5831POPC   C1B73699  42.301   7.184   6.184
 5831POPC   C2B73700  42.585   7.154   6.526
 5831POPC   C3B73701  42.375   7.120   6.889
 5831POPC   C4B73702  42.407   7.234   7.277
 5832POPC   NC373703  23.044  26.952   5.315
 5832POPC   PO473704  22.624  26.392   5.392
 5832POPC   GL173705  22.976  26.609   5.692
 5832POPC   GL273706  22.959  26.972   5.825
 5832POPC   C1A73707  23.071  26.538   6.139
 5832POPC   D2A73708  23.017  26.718   6.559
 5832POPC   C3A73709  22.957  26.605   6.986
 5832POPC   C4A73710  22.883  26.786   7.389
 5832POPC   C1B73711  23.157  27.072   6.216
 5832POPC   C2B73712  23.250  27.174   6.656
 5832POPC   C3B73713  23.065  27.125   7.065
 5832POPC   C4B73714  23.135  27.198   7.523
 5833POPC   NC373715  25.346  25.991   5.500
 5833POPC   PO473716  24.879  25.493   5.666
 5833POPC   GL173717  25.083  25.762   5.927
 5833POPC   GL273718  25.062  26.108   5.937
 5833POPC   C1A73719  25.257  25.867   6.338
 5833POPC   D2A73720  25.503  26.037   6.684
 5833POPC   C3A73721  25.386  25.806   7.012
 5833POPC   C4A73722  24.989  25.841   7.205
 5833POPC   C1B73723  25.412  26.344   6.149
 5833POPC   C2B73724  25.522  26.546   6.558
 5833POPC   C3B73725  25.231  26.450   6.887
 5833POPC   C4B73726  25.313  26.266   7.282
 5834POPC   NC373727   4.269  17.731   5.380
 5834POPC   PO473728   4.740  17.242   5.503
 5834POPC   GL173729   4.293  17.314   5.734
 5834POPC   GL273730   4.139  17.650   5.849
 5834POPC   C1A73731   4.099  17.301   6.191
 5834POPC   D2A73732   4.126  17.535   6.578
 5834POPC   C3A73733   4.114  17.293   6.938
 5834POPC   C4A73734   4.236  17.428   7.327
 5834POPC   C1B73735   4.511  17.597   6.106
 5834POPC   C2B73736   4.603  17.722   6.512
 5834POPC   C3B73737   4.577  17.547   6.935
 5834POPC   C4B73738   4.756  17.433   7.329
 5835POPC   NC373739  41.586   8.529   5.104
 5835POPC   PO473740  41.766   7.938   5.411
 5835POPC   GL173741  41.665   7.965   5.834
 5835POPC   GL273742  41.481   8.254   5.726
 5835POPC   C1A73743  41.779   8.107   6.260
 5835POPC   D2A73744  41.469   8.160   6.589
 5835POPC   C3A73745  41.565   8.172   7.022
 5835POPC   C4A73746  41.920   8.014   7.151
 5835POPC   C1B73747  41.654   8.533   6.013
 5835POPC   C2B73748  41.703   8.599   6.432
 5835POPC   C3B73749  41.731   8.598   6.832
 5835POPC   C4B73750  41.416   8.650   7.156
 5836POPC   NC373751  17.090   4.673   5.489
 5836POPC   PO473752  16.703   4.220   5.164
 5836POPC   GL173753  16.749   4.325   5.630
 5836POPC   GL273754  16.505   4.202   5.816
 5836POPC   C1A73755  16.945   4.244   6.073
 5836POPC   D2A73756  16.924   4.132   6.541
 5836POPC   C3A73757  16.733   4.406   6.876
 5836POPC   C4A73758  16.911   4.630   7.230
 5836POPC   C1B73759  16.476   4.320   6.272
 5836POPC   C2B73760  16.382   4.104   6.631
 5836POPC   C3B73761  16.337   4.139   7.056
 5836POPC   C4B73762  16.410   4.487   7.311
 5837POPC   NC373763  22.774  22.014   5.510
 5837POPC   PO473764  23.078  22.643   5.420
 5837POPC   GL173765  22.947  22.392   5.827
 5837POPC   GL273766  23.066  22.009   5.898
 5837POPC   C1A73767  22.928  22.293   6.288
 5837POPC   D2A73768  22.704  22.483   6.612
 5837POPC   C3A73769  22.870  22.399   6.995
 5837POPC   C4A73770  22.676  22.235   7.336
 5837POPC   C1B73771  22.983  21.768   6.268
 5837POPC   C2B73772  22.927  21.908   6.700
 5837POPC   C3B73773  22.969  21.880   7.152
 5837POPC   C4B73774  23.104  21.762   7.566
 5838POPC   NC373775   7.906  31.529   5.464
 5838POPC   PO473776   8.372  31.100   5.388
 5838POPC   GL173777   8.292  31.381   5.767
 5838POPC   GL273778   7.947  31.259   5.885
 5838POPC   C1A73779   8.263  31.520   6.194
 5838POPC   D2A73780   8.271  31.287   6.567
 5838POPC   C3A73781   8.274  31.555   6.958
 5838POPC   C4A73782   8.544  31.803   7.227
 5838POPC   C1B73783   7.776  31.385   6.274
 5838POPC   C2B73784   7.820  31.546   6.669
 5838POPC   C3B73785   7.914  31.165   6.902
 5838POPC   C4B73786   8.224  31.061   7.158
 5839POPC   NC373787  42.037  43.446   5.525
 5839POPC   PO473788  41.414  43.067   5.438
 5839POPC   GL173789  41.382  43.166   5.861
 5839POPC   GL273790  41.722  43.327   5.909
 5839POPC   C1A73791  41.112  43.108   6.221
 5839POPC   D2A73792  40.981  42.992   6.632
 5839POPC   C3A73793  41.292  42.982   6.940
 5839POPC   C4A73794  41.512  43.197   7.287
 5839POPC   C1B73795  41.812  43.377   6.361
 5839POPC   C2B73796  41.765  43.118   6.764
 5839POPC   C3B73797  41.974  43.039   7.170
 5839POPC   C4B73798  41.905  43.190   7.625
 5840POPC   NC373799  31.863  36.586   5.693
 5840POPC   PO473800  31.362  36.936   5.310
 5840POPC   GL173801  31.421  36.878   5.773
 5840POPC   GL273802  31.062  36.759   5.777
 5840POPC   C1A73803  31.615  36.900   6.232
 5840POPC   D2A73804  31.666  36.608   6.589
 5840POPC   C3A73805  31.656  36.876   6.951
 5840POPC   C4A73806  31.894  36.913   7.309
 5840POPC   C1B73807  31.122  36.967   6.178
 5840POPC   C2B73808  31.198  36.854   6.625
 5840POPC   C3B73809  31.157  36.934   7.064
 5840POPC   C4B73810  31.228  36.991   7.488
 5841POPC   NC373811  39.476  17.054   5.293
 5841POPC   PO473812  39.349  16.478   5.609
 5841POPC   GL173813  39.231  16.878   5.847
 5841POPC   GL273814  39.501  17.070   6.006
 5841POPC   C1A73815  39.064  16.972   6.284
 5841POPC   D2A73816  38.894  16.707   6.633
 5841POPC   C3A73817  39.166  16.515   6.951
 5841POPC   C4A73818  39.167  16.885   7.236
 5841POPC   C1B73819  39.529  16.782   6.363
 5841POPC   C2B73820  39.473  16.873   6.786
 5841POPC   C3B73821  39.656  17.002   7.180
 5841POPC   C4B73822  39.543  16.840   7.596
 5842POPC   NC373823  18.004   0.779   5.189
 5842POPC   PO473824  18.317   0.159   5.291
 5842POPC   GL173825  18.277   0.322   5.779
 5842POPC   GL273826  18.066   0.588   5.703
 5842POPC   C1A73827  18.367   0.308   6.197
 5842POPC   D2A73828  18.365  44.973   6.488
 5842POPC   C3A73829  18.524   0.068   6.848
 5842POPC   C4A73830  18.413   0.079   7.235
 5842POPC   C1B73831  17.995   0.682   6.141
 5842POPC   C2B73832  18.049   0.488   6.552
 5842POPC   C3B73833  17.897   0.445   6.956
 5842POPC   C4B73834  18.127   0.479   7.334
 5843POPC   NC373835  18.755   8.256   5.420
 5843POPC   PO473836  19.163   7.703   5.645
 5843POPC   GL173837  18.953   8.080   5.916
 5843POPC   GL273838  18.729   8.419   5.899
 5843POPC   C1A73839  19.169   8.355   6.248
 5843POPC   D2A73840  19.120   8.515   6.704
 5843POPC   C3A73841  19.198   8.160   6.980
 5843POPC   C4A73842  19.125   8.114   7.437
 5843POPC   C1B73843  18.697   8.500   6.338
 5843POPC   C2B73844  18.777   8.143   6.595
 5843POPC   C3B73845  18.696   8.222   6.991
 5843POPC   C4B73846  18.848   8.531   7.282
 5844POPC   NC373847  34.967  33.023   5.369
 5844POPC   PO473848  35.380  33.448   5.720
 5844POPC   GL173849  35.457  33.093   5.936
 5844POPC   GL273850  35.130  32.976   5.849
 5844POPC   C1A73851  35.408  33.033   6.383
 5844POPC   D2A73852  35.468  33.123   6.820
 5844POPC   C3A73853  35.124  33.207   7.076
 5844POPC   C4A73854  35.213  33.206   7.525
 5844POPC   C1B73855  34.971  32.820   6.259
 5844POPC   C2B73856  35.098  32.753   6.715
 5844POPC   C3B73857  35.022  32.726   7.188
 5844POPC   C4B73858  35.067  32.746   7.689
 5845POPC   NC373859  40.167   4.092   5.151
 5845POPC   PO473860  40.023   4.619   5.539
 5845POPC   GL173861  40.202   4.289   5.817
 5845POPC   GL273862  39.918   4.327   6.027
 5845POPC   C1A73863  40.340   4.190   6.269
 5845POPC   D2A73864  39.988   4.358   6.571
 5845POPC   C3A73865  39.941   4.211   7.008
 5845POPC   C4A73866  40.243   4.216   7.340
 5845POPC   C1B73867  39.628   4.618   6.228
 5845POPC   C2B73868  39.445   4.645   6.646
 5845POPC   C3B73869  39.575   4.595   7.074
 5845POPC   C4B73870  39.907   4.629   7.330
 5846POPC   NC373871  40.246  23.166   5.425
 5846POPC   PO473872  39.855  22.686   5.610
 5846POPC   GL173873  40.164  22.843   5.877
 5846POPC   GL273874  40.151  23.206   5.931
 5846POPC   C1A73875  40.137  22.836   6.325
 5846POPC   D2A73876  40.233  23.110   6.685
 5846POPC   C3A73877  40.272  22.811   6.984
 5846POPC   C4A73878  39.992  22.622   7.235
 5846POPC   C1B73879  39.917  23.300   6.333
 5846POPC   C2B73880  39.728  23.189   6.746
 5846POPC   C3B73881  39.929  23.122   7.147
 5846POPC   C4B73882  40.104  23.281   7.526
 5847POPC   NC373883   5.650  33.176   5.426
 5847POPC   PO473884   6.155  32.755   5.461
 5847POPC   GL173885   5.900  32.786   5.849
 5847POPC   GL273886   5.559  32.958   5.899
 5847POPC   C1A73887   5.926  32.885   6.289
 5847POPC   D2A73888   6.075  33.163   6.599
 5847POPC   C3A73889   6.050  32.990   7.014
 5847POPC   C4A73890   5.825  32.688   7.258
 5847POPC   C1B73891   5.443  32.733   6.305
 5847POPC   C2B73892   5.628  32.765   6.737
 5847POPC   C3B73893   5.539  33.053   7.083
 5847POPC   C4B73894   5.485  32.966   7.558
 5848POPC   NC373895  10.652  26.094   5.181
 5848POPC   PO473896  10.084  25.920   5.424
 5848POPC   GL173897  10.426  25.986   5.696
 5848POPC   GL273898  10.347  26.241   5.912
 5848POPC   C1A73899  10.602  25.872   6.125
 5848POPC   D2A73900  10.354  25.906   6.524
 5848POPC   C3A73901  10.569  26.028   6.924
 5848POPC   C4A73902  10.481  25.882   7.327
 5848POPC   C1B73903  10.717  26.376   6.169
 5848POPC   C2B73904  10.933  26.274   6.591
 5848POPC   C3B73905  10.997  26.317   7.036
 5848POPC   C4B73906  10.695  26.319   7.428
 5849POPC   NC373907  17.927   0.097   5.535
 5849POPC   PO473908  17.543   0.556   5.414
 5849POPC   GL173909  17.447   0.255   5.740
 5849POPC   GL273910  17.718   0.287   5.957
 5849POPC   C1A73911  17.290   0.124   6.186
 5849POPC   D2A73912  17.202   0.364   6.562
 5849POPC   C3A73913  17.426   0.254   6.911
 5849POPC   C4A73914  17.321   0.211   7.327
 5849POPC   C1B73915  17.490   0.603   6.179
 5849POPC   C2B73916  17.589   0.730   6.576
 5849POPC   C3B73917  17.497   0.786   6.976
 5849POPC   C4B73918  17.685   0.699   7.357
 5850POPC   NC373919   3.452  28.656   5.489
 5850POPC   PO473920   3.880  28.133   5.413
 5850POPC   GL173921   3.639  28.196   5.791
 5850POPC   GL273922   3.313  28.183   5.818
 5850POPC   C1A73923   3.604  28.019   6.227
 5850POPC   D2A73924   3.579  28.239   6.639
 5850POPC   C3A73925   3.611  28.022   7.038
 5850POPC   C4A73926   3.938  28.045   7.362
 5850POPC   C1B73927   3.294  28.423   6.201
 5850POPC   C2B73928   3.282  28.639   6.597
 5850POPC   C3B73929   3.261  28.456   7.013
 5850POPC   C4B73930   3.373  28.740   7.324
 5851POPC   NC373931  38.360   0.692   5.312
 5851POPC   PO473932  38.999   0.750   5.667
 5851POPC   GL173933  38.692   0.462   5.880
 5851POPC   GL273934  38.325   0.381   5.837
 5851POPC   C1A73935  38.640   0.282   6.230
 5851POPC   D2A73936  38.305   0.266   6.474
 5851POPC   C3A73937  38.426   0.086   6.853
 5851POPC   C4A73938  38.243   0.198   7.245
 5851POPC   C1B73939  38.212   0.713   6.077
 5851POPC   C2B73940  38.114   0.746   6.502
 5851POPC   C3B73941  38.183   0.566   6.892
 5851POPC   C4B73942  38.052   0.653   7.292
 5852POPC   NC373943  44.441  43.078   5.467
 5852POPC   PO473944   0.159  43.045   5.443
 5852POPC   GL173945  44.919  43.273   5.770
 5852POPC   GL273946  44.706  43.056   5.905
 5852POPC   C1A73947  44.808  43.444   6.216
 5852POPC   D2A73948  44.543  43.585   6.562
 5852POPC   C3A73949  44.672  43.423   6.954
 5852POPC   C4A73950  44.443  43.429   7.322
 5852POPC   C1B73951  44.859  42.955   6.335
 5852POPC   C2B73952  44.754  42.956   6.763
 5852POPC   C3B73953  44.784  42.980   7.221
 5852POPC   C4B73954  44.839  42.739   7.628
 5853POPC   NC373955   6.126  32.297   5.465
 5853POPC   PO473956   5.748  31.876   5.708
 5853POPC   GL173957   5.839  32.274   5.893
 5853POPC   GL273958   5.484  32.432   5.890
 5853POPC   C1A73959   6.101  32.397   6.261
 5853POPC   D2A73960   6.162  32.590   6.689
 5853POPC   C3A73961   6.069  32.300   7.061
 5853POPC   C4A73962   5.846  32.059   7.391
 5853POPC   C1B73963   5.548  32.178   6.288
 5853POPC   C2B73964   5.749  32.225   6.669
 5853POPC   C3B73965   5.549  32.267   7.053
 5853POPC   C4B73966   5.335  32.605   7.158
 5854POPC   NC373967  41.560  31.986   5.386
 5854POPC   PO473968  41.189  32.587   5.502
 5854POPC   GL173969  41.479  32.491   5.858
 5854POPC   GL273970  41.655  32.143   5.875
 5854POPC   C1A73971  41.358  32.364   6.276
 5854POPC   D2A73972  41.425  32.276   6.726
 5854POPC   C3A73973  41.151  32.460   7.036
 5854POPC   C4A73974  41.227  32.451   7.484
 5854POPC   C1B73975  41.715  32.010   6.323
 5854POPC   C2B73976  41.671  31.820   6.723
 5854POPC   C3B73977  41.618  32.007   7.173
 5854POPC   C4B73978  41.808  31.805   7.552
 5855POPC   NC373979  41.749  14.000   5.576
 5855POPC   PO473980  41.308  13.565   5.438
 5855POPC   GL173981  41.485  13.427   5.857
 5855POPC   GL273982  41.855  13.410   5.875
 5855POPC   C1A73983  41.598  13.271   6.306
 5855POPC   D2A73984  41.435  13.203   6.739
 5855POPC   C3A73985  41.609  13.497   7.024
 5855POPC   C4A73986  41.396  13.778   7.283
 5855POPC   C1B73987  41.761  13.765   6.189
 5855POPC   C2B73988  41.970  13.897   6.581
 5855POPC   C3B73989  41.844  13.945   6.979
 5855POPC   C4B73990  41.937  13.868   7.382
 5856POPC   NC373991  14.192  43.916   5.300
 5856POPC   PO473992  14.348  43.324   5.511
 5856POPC   GL173993  14.203  43.640   5.821
 5856POPC   GL273994  14.334  43.983   5.813
 5856POPC   C1A73995  14.189  43.775   6.259
 5856POPC   D2A73996  14.322  43.649   6.639
 5856POPC   C3A73997  14.125  43.836   6.967
 5856POPC   C4A73998  14.041  43.552   7.244
 5856POPC   C1B73999  14.631  44.001   6.131
 5856POPC   C2B74000  14.596  44.065   6.542
 5856POPC   C3B74001  14.620  44.000   6.981
 5856POPC   C4B74002  14.847  44.313   7.159
 5857POPC   NC374003  34.189  26.947   5.629
 5857POPC   PO474004  33.554  26.660   5.482
 5857POPC   GL174005  33.754  26.761   5.846
 5857POPC   GL274006  34.054  26.567   5.962
 5857POPC   C1A74007  33.600  26.596   6.227
 5857POPC   D2A74008  33.607  26.758   6.640
 5857POPC   C3A74009  33.855  26.551   6.952
 5857POPC   C4A74010  33.691  26.603   7.336
 5857POPC   C1B74011  34.028  26.896   6.284
 5857POPC   C2B74012  34.129  27.172   6.629
 5857POPC   C3B74013  33.950  27.059   7.028
 5857POPC   C4B74014  33.972  27.036   7.465
 5858POPC   NC374015  36.835  41.901   5.483
 5858POPC   PO474016  36.823  41.259   5.275
 5858POPC   GL174017  36.831  41.405   5.713
 5858POPC   GL274018  37.100  41.620   5.829
 5858POPC   C1A74019  36.750  41.460   6.180
 5858POPC   D2A74020  36.996  41.555   6.570
 5858POPC   C3A74021  36.780  41.517   6.978
 5858POPC   C4A74022  36.461  41.219   7.066
 5858POPC   C1B74023  37.243  41.305   6.143
 5858POPC   C2B74024  37.454  41.315   6.547
 5858POPC   C3B74025  37.280  41.355   6.967
 5858POPC   C4B74026  37.087  41.446   7.393
 5859POPC   NC374027  43.331  13.129   5.449
 5859POPC   PO474028  43.042  13.809   5.344
 5859POPC   GL174029  43.074  13.713   5.826
 5859POPC   GL274030  43.363  13.519   5.876
 5859POPC   C1A74031  43.147  13.774   6.291
 5859POPC   D2A74032  43.234  13.586   6.693
 5859POPC   C3A74033  43.156  13.608   7.126
 5859POPC   C4A74034  43.215  13.838   7.535
 5859POPC   C1B74035  43.576  13.462   6.276
 5859POPC   C2B74036  43.525  13.183   6.647
 5859POPC   C3B74037  43.579  13.344   7.049
 5859POPC   C4B74038  43.597  13.502   7.442
 5860POPC   NC374039   3.238  12.887   5.225
 5860POPC   PO474040   2.604  13.019   5.381
 5860POPC   GL174041   2.875  12.854   5.631
 5860POPC   GL274042   2.832  12.502   5.711
 5860POPC   C1A74043   2.947  12.936   6.097
 5860POPC   D2A74044   2.848  12.794   6.542
 5860POPC   C3A74045   3.043  12.901   6.934
 5860POPC   C4A74046   2.893  12.983   7.338
 5860POPC   C1B74047   2.891  12.419   6.153
 5860POPC   C2B74048   2.988  12.306   6.599
 5860POPC   C3B74049   2.780  12.449   6.981
 5860POPC   C4B74050   2.708  12.472   7.437
 5861POPC   NC374051  25.210  41.978   5.490
 5861POPC   PO474052  25.580  41.355   5.441
 5861POPC   GL174053  25.305  41.490   5.780
 5861POPC   GL274054  25.634  41.492   5.929
 5861POPC   C1A74055  24.975  41.511   6.136
 5861POPC   D2A74056  25.007  41.841   6.466
 5861POPC   C3A74057  24.925  41.744   6.901
 5861POPC   C4A74058  25.015  41.428   7.238
 5861POPC   C1B74059  25.436  41.403   6.293
 5861POPC   C2B74060  25.211  41.403   6.642
 5861POPC   C3B74061  25.410  41.673   6.933
 5861POPC   C4B74062  25.512  41.700   7.354
 5862POPC   NC374063  24.137   6.617   5.516
 5862POPC   PO474064  24.753   6.518   5.392
 5862POPC   GL174065  24.722   6.590   5.834
 5862POPC   GL274066  24.886   6.914   5.804
 5862POPC   C1A74067  24.466   6.787   6.144
 5862POPC   D2A74068  24.217   6.917   6.490
 5862POPC   C3A74069  24.390   6.753   6.869
 5862POPC   C4A74070  24.519   6.488   7.241
 5862POPC   C1B74071  24.929   7.017   6.226
 5862POPC   C2B74072  24.782   6.875   6.593
 5862POPC   C3B74073  24.872   6.834   7.029
 5862POPC   C4B74074  24.556   6.991   7.289
 5863POPC   NC374075  13.931  27.667   5.439
 5863POPC   PO474076  13.362  27.990   5.346
 5863POPC   GL174077  13.396  27.765   5.794
 5863POPC   GL274078  13.613  27.499   5.824
 5863POPC   C1A74079  13.406  27.621   6.281
 5863POPC   D2A74080  13.330  27.609   6.752
 5863POPC   C3A74081  13.488  27.361   7.103
 5863POPC   C4A74082  13.508  27.726   7.365
 5863POPC   C1B74083  13.892  27.474   6.205
 5863POPC   C2B74084  13.813  27.412   6.645
 5863POPC   C3B74085  13.926  27.620   7.021
 5863POPC   C4B74086  13.947  27.454   7.416
 5864POPC   NC374087  24.779  20.154   5.621
 5864POPC   PO474088  24.298  19.780   5.249
 5864POPC   GL174089  24.401  19.804   5.720
 5864POPC   GL274090  24.671  19.625   5.871
 5864POPC   C1A74091  24.409  20.018   6.165
 5864POPC   D2A74092  24.354  20.228   6.573
 5864POPC   C3A74093  24.462  20.044   6.976
 5864POPC   C4A74094  24.352  19.809   7.349
 5864POPC   C1B74095  24.766  19.453   6.254
 5864POPC   C2B74096  25.010  19.570   6.614
 5864POPC   C3B74097  24.741  19.566   6.953
 5864POPC   C4B74098  24.701  19.408   7.339
 5865POPC   NC374099  19.927  40.944   5.381
 5865POPC   PO474100  19.559  40.382   5.639
 5865POPC   GL174101  19.693  40.783   5.833
 5865POPC   GL274102  20.008  40.936   5.899
 5865POPC   C1A74103  19.648  40.979   6.267
 5865POPC   D2A74104  19.977  40.967   6.581
 5865POPC   C3A74105  19.864  40.804   6.981
 5865POPC   C4A74106  19.849  40.967   7.395
 5865POPC   C1B74107  19.975  40.586   6.207
 5865POPC   C2B74108  20.015  40.397   6.604
 5865POPC   C3B74109  20.220  40.412   6.991
 5865POPC   C4B74110  19.968  40.417   7.326
 5866POPC   NC374111  22.816  21.063   5.501
 5866POPC   PO474112  23.231  21.671   5.548
 5866POPC   GL174113  23.037  21.443   5.824
 5866POPC   GL274114  22.706  21.536   5.752
 5866POPC   C1A74115  22.921  21.255   6.185
 5866POPC   D2A74116  22.744  21.413   6.563
 5866POPC   C3A74117  22.932  21.326   6.971
 5866POPC   C4A74118  23.272  21.330   7.303
 5866POPC   C1B74119  22.484  21.575   6.137
 5866POPC   C2B74120  22.283  21.602   6.551
 5866POPC   C3B74121  22.515  21.620   6.956
 5866POPC   C4B74122  22.688  21.514   7.374
 5867POPC   NC374123  18.599  21.496   5.334
 5867POPC   PO474124  18.381  20.916   5.406
 5867POPC   GL174125  18.102  21.038   5.767
 5867POPC   GL274126  18.184  21.406   5.851
 5867POPC   C1A74127  18.179  21.075   6.219
 5867POPC   D2A74128  18.425  21.431   6.374
 5867POPC   C3A74129  18.432  21.562   6.783
 5867POPC   C4A74130  18.266  21.386   7.117
 5867POPC   C1B74131  17.946  21.558   6.246
 5867POPC   C2B74132  17.966  21.790   6.663
 5867POPC   C3B74133  18.086  21.849   7.103
 5867POPC   C4B74134  17.840  21.807   7.498
 5868POPC   NC374135  10.486  42.893   5.482
 5868POPC   PO474136  10.317  43.523   5.732
 5868POPC   GL174137  10.286  43.128   5.885
 5868POPC   GL274138  10.644  43.116   5.918
 5868POPC   C1A74139  10.294  42.970   6.299
 5868POPC   D2A74140  10.251  43.281   6.622
 5868POPC   C3A74141  10.448  43.223   7.040
 5868POPC   C4A74142  10.441  43.369   7.470
 5868POPC   C1B74143  10.823  42.934   6.247
 5868POPC   C2B74144  10.694  42.973   6.641
 5868POPC   C3B74145  10.890  42.946   6.992
 5868POPC   C4B74146  10.900  43.243   7.317
 5869POPC   NC374147   5.671  20.032   5.680
 5869POPC   PO474148   6.141  19.591   5.422
 5869POPC   GL174149   5.916  19.599   5.819
 5869POPC   GL274150   5.590  19.499   5.720
 5869POPC   C1A74151   5.976  19.828   6.243
 5869POPC   D2A74152   5.887  20.137   6.605
 5869POPC   C3A74153   5.819  19.981   7.035
 5869POPC   C4A74154   5.694  20.117   7.442
 5869POPC   C1B74155   5.508  19.618   6.177
 5869POPC   C2B74156   5.660  19.671   6.618
 5869POPC   C3B74157   5.507  19.579   7.037
 5869POPC   C4B74158   5.371  19.350   7.372
 5870POPC   NC374159  17.374  19.916   5.374
 5870POPC   PO474160  17.837  19.479   5.641
 5870POPC   GL174161  17.520  19.722   5.827
 5870POPC   GL274162  17.632  20.055   5.881
 5870POPC   C1A74163  17.288  19.800   6.207
 5870POPC   D2A74164  17.226  19.978   6.607
 5870POPC   C3A74165  17.517  19.847   6.909
 5870POPC   C4A74166  17.478  20.101   7.246
 5870POPC   C1B74167  17.762  20.128   6.313
 5870POPC   C2B74168  17.718  20.282   6.742
 5870POPC   C3B74169  17.962  20.088   7.108
 5870POPC   C4B74170  17.860  19.961   7.572
 5871POPC   NC374171  25.600  35.382   5.405
 5871POPC   PO474172  25.139  35.422   5.773
 5871POPC   GL174173  25.571  35.455   5.939
 5871POPC   GL274174  25.790  35.760   5.897
 5871POPC   C1A74175  25.594  35.295   6.352
 5871POPC   D2A74176  25.237  35.162   6.595
 5871POPC   C3A74177  25.273  35.241   7.014
 5871POPC   C4A74178  25.095  34.991   7.338
 5871POPC   C1B74179  25.798  35.762   6.384
 5871POPC   C2B74180  25.566  35.623   6.787
 5871POPC   C3B74181  25.470  35.692   7.258
 5871POPC   C4B74182  25.471  35.825   7.728
 5872POPC   NC374183  34.128   3.735   5.310
 5872POPC   PO474184  34.725   3.451   5.273
 5872POPC   GL174185  34.562   3.681   5.649
 5872POPC   GL274186  34.292   3.472   5.764
 5872POPC   C1A74187  34.519   3.791   6.122
 5872POPC   D2A74188  34.690   3.617   6.510
 5872POPC   C3A74189  34.475   3.548   6.915
 5872POPC   C4A74190  34.761   3.433   7.259
 5872POPC   C1B74191  34.336   3.313   6.217
 5872POPC   C2B74192  34.080   3.325   6.604
 5872POPC   C3B74193  34.010   3.185   7.036
 5872POPC   C4B74194  34.279   3.319   7.365
 5873POPC   NC374195   3.643  13.808   5.428
 5873POPC   PO474196   3.272  13.244   5.502
 5873POPC   GL174197   3.274  13.572   5.764
 5873POPC   GL274198   3.600  13.487   5.852
 5873POPC   C1A74199   3.190  13.541   6.203
 5873POPC   D2A74200   3.100  13.236   6.527
 5873POPC   C3A74201   3.262  13.377   6.924
 5873POPC   C4A74202   3.208  13.631   7.266
 5873POPC   C1B74203   3.588  13.862   6.132
 5873POPC   C2B74204   3.413  13.904   6.550
 5873POPC   C3B74205   3.583  13.839   6.952
 5873POPC   C4B74206   3.734  13.561   7.244
 5874POPC   NC374207  28.530  10.879   5.425
 5874POPC   PO474208  29.114  10.540   5.397
 5874POPC   GL174209  29.007  10.469   5.785
 5874POPC   GL274210  29.328  10.586   5.937
 5874POPC   C1A74211  28.845  10.736   6.087
 5874POPC   D2A74212  29.103  10.825   6.440
 5874POPC   C3A74213  29.056  10.617   6.801
 5874POPC   C4A74214  28.935  10.641   7.200
 5874POPC   C1B74215  29.554  10.364   6.289
 5874POPC   C2B74216  29.461  10.299   6.733
 5874POPC   C3B74217  29.443  10.525   7.121
 5874POPC   C4B74218  29.353  10.563   7.551
 5875POPC   NC374219  27.099  17.172   5.367
 5875POPC   PO474220  26.912  16.480   5.297
 5875POPC   GL174221  26.912  16.504   5.758
 5875POPC   GL274222  26.945  16.874   5.789
 5875POPC   C1A74223  26.650  16.626   6.137
 5875POPC   D2A74224  26.658  16.794   6.552
 5875POPC   C3A74225  26.611  16.533   6.918
 5875POPC   C4A74226  26.655  16.703   7.333
 5875POPC   C1B74227  26.929  17.092   6.199
 5875POPC   C2B74228  27.104  17.154   6.596
 5875POPC   C3B74229  26.922  16.976   6.959
 5875POPC   C4B74230  27.129  16.946   7.343
 5876POPC   NC374231   7.159  27.414   5.049
 5876POPC   PO474232   7.525  27.732   5.393
 5876POPC   GL174233   7.561  27.658   5.803
 5876POPC   GL274234   7.240  27.481   5.756
 5876POPC   C1A74235   7.693  27.723   6.213
 5876POPC   D2A74236   7.544  27.371   6.462
 5876POPC   C3A74237   7.484  27.516   6.839
 5876POPC   C4A74238   7.613  27.743   7.199
 5876POPC   C1B74239   7.201  27.219   6.120
 5876POPC   C2B74240   7.086  27.128   6.539
 5876POPC   C3B74241   7.034  27.177   6.961
 5876POPC   C4B74242   7.048  27.603   7.118
 5877POPC   NC374243   5.241  39.831   5.499
 5877POPC   PO474244   4.598  39.790   5.216
 5877POPC   GL174245   4.853  40.107   5.627
 5877POPC   GL274246   5.303  40.198   5.822
 5877POPC   C1A74247   4.913  40.076   6.093
 5877POPC   D2A74248   4.860  39.807   6.477
 5877POPC   C3A74249   4.934  39.972   6.916
 5877POPC   C4A74250   4.981  39.860   7.374
 5877POPC   C1B74251   5.374  39.916   6.175
 5877POPC   C2B74252   5.360  39.867   6.612
 5877POPC   C3B74253   5.473  39.755   6.992
 5877POPC   C4B74254   5.406  39.581   7.350
 5878POPC   NC374255   6.582   6.003   5.482
 5878POPC   PO474256   6.336   5.503   5.617
 5878POPC   GL174257   6.687   5.724   5.892
 5878POPC   GL274258   6.892   6.084   5.900
 5878POPC   C1A74259   6.525   5.986   6.220
 5878POPC   D2A74260   6.604   5.894   6.614
 5878POPC   C3A74261   6.386   5.947   6.934
 5878POPC   C4A74262   6.459   5.659   7.246
 5878POPC   C1B74263   7.028   5.836   6.293
 5878POPC   C2B74264   7.042   5.725   6.754
 5878POPC   C3B74265   6.918   5.937   7.138
 5878POPC   C4B74266   6.947   5.937   7.603
 5879POPC   NC374267  33.719  18.604   5.575
 5879POPC   PO474268  33.580  17.892   5.486
 5879POPC   GL174269  33.425  18.065   5.902
 5879POPC   GL274270  33.693  18.264   5.963
 5879POPC   C1A74271  33.541  18.009   6.370
 5879POPC   D2A74272  33.853  18.160   6.681
 5879POPC   C3A74273  33.886  18.234   7.133
 5879POPC   C4A74274  33.629  18.178   7.536
 5879POPC   C1B74275  33.812  18.539   6.273
 5879POPC   C2B74276  33.878  18.667   6.667
 5879POPC   C3B74277  33.672  18.730   7.053
 5879POPC   C4B74278  33.837  18.636   7.460
 5880POPC   NC374279  35.452  41.172   5.440
 5880POPC   PO474280  35.780  41.740   5.270
 5880POPC   GL174281  35.559  41.805   5.730
 5880POPC   GL274282  35.388  41.501   5.829
 5880POPC   C1A74283  35.457  41.772   6.245
 5880POPC   D2A74284  35.176  41.598   6.626
 5880POPC   C3A74285  35.391  41.559   7.001
 5880POPC   C4A74286  35.415  41.902   7.259
 5880POPC   C1B74287  35.301  41.293   6.244
 5880POPC   C2B74288  35.336  41.089   6.646
 5880POPC   C3B74289  35.000  41.169   6.888
 5880POPC   C4B74290  34.907  41.163   7.269
 5881POPC   NC374291  32.026   0.327   5.386
 5881POPC   PO474292  32.647   0.483   5.395
 5881POPC   GL174293  32.402   0.686   5.763
 5881POPC   GL274294  32.163   0.418   5.857
 5881POPC   C1A74295  32.224   0.739   6.220
 5881POPC   D2A74296  32.422   0.518   6.530
 5881POPC   C3A74297  32.289   0.584   6.925
 5881POPC   C4A74298  32.446   0.314   7.200
 5881POPC   C1B74299  32.030   0.225   6.247
 5881POPC   C2B74300  31.944   0.307   6.653
 5881POPC   C3B74301  32.013   0.130   7.034
 5881POPC   C4B74302  32.020   0.263   7.490
 5882POPC   NC374303  18.116  25.845   5.476
 5882POPC   PO474304  18.246  26.455   5.343
 5882POPC   GL174305  18.349  26.392   5.807
 5882POPC   GL274306  18.322  26.045   5.879
 5882POPC   C1A74307  18.350  26.335   6.282
 5882POPC   D2A74308  18.126  26.084   6.576
 5882POPC   C3A74309  18.322  26.100   6.967
 5882POPC   C4A74310  18.395  26.340   7.353
 5882POPC   C1B74311  18.399  25.790   6.216
 5882POPC   C2B74312  18.683  25.795   6.569
 5882POPC   C3B74313  18.679  25.671   6.966
 5882POPC   C4B74314  18.546  25.858   7.353
 5883POPC   NC374315  29.131  10.080   5.410
 5883POPC   PO474316  29.001   9.480   5.606
 5883POPC   GL174317  28.976   9.847   5.865
 5883POPC   GL274318  29.286  10.053   5.933
 5883POPC   C1A74319  28.871   9.827   6.300
 5883POPC   D2A74320  29.097   9.714   6.667
 5883POPC   C3A74321  28.868   9.699   7.038
 5883POPC   C4A74322  28.915   9.748   7.495
 5883POPC   C1B74323  29.041  10.299   6.291
 5883POPC   C2B74324  28.840  10.175   6.702
 5883POPC   C3B74325  29.067  10.156   7.085
 5883POPC   C4B74326  29.374   9.831   7.100
 5884POPC   NC374327  41.489  12.431   5.390
 5884POPC   PO474328  41.762  11.803   5.429
 5884POPC   GL174329  41.720  12.063   5.780
 5884POPC   GL274330  41.382  12.151   5.822
 5884POPC   C1A74331  41.676  11.936   6.216
 5884POPC   D2A74332  41.484  11.832   6.634
 5884POPC   C3A74333  41.720  12.051   6.979
 5884POPC   C4A74334  41.723  12.045   7.402
 5884POPC   C1B74335  41.313  12.301   6.214
 5884POPC   C2B74336  41.146  12.223   6.616
 5884POPC   C3B74337  41.232  12.098   7.042
 5884POPC   C4B74338  41.320  12.360   7.412
 5885POPC   NC374339  31.001   4.432   5.462
 5885POPC   PO474340  30.536   3.946   5.297
 5885POPC   GL174341  30.792   4.129   5.776
 5885POPC   GL274342  30.544   4.404   5.904
 5885POPC   C1A74343  30.838   4.271   6.267
 5885POPC   D2A74344  30.605   4.585   6.546
 5885POPC   C3A74345  30.678   4.524   6.996
 5885POPC   C4A74346  31.016   4.511   7.318
 5885POPC   C1B74347  30.333   4.219   6.325
 5885POPC   C2B74348  30.189   4.196   6.693
 5885POPC   C3B74349  30.456   4.020   6.948
 5885POPC   C4B74350  30.503   4.016   7.362
 5886POPC   NC374351   0.144  18.476   5.615
 5886POPC   PO474352   0.539  17.955   5.446
 5886POPC   GL174353   0.446  18.092   5.832
 5886POPC   GL274354   0.638  18.419   5.863
 5886POPC   C1A74355   0.311  18.255   6.219
 5886POPC   D2A74356   0.251  18.537   6.554
 5886POPC   C3A74357   0.256  18.280   6.886
 5886POPC   C4A74358   0.407  18.186   7.282
 5886POPC   C1B74359   0.716  18.573   6.301
 5886POPC   C2B74360   0.756  18.503   6.748
 5886POPC   C3B74361   0.613  18.646   7.179
 5886POPC   C4B74362   0.805  18.555   7.604
 5887POPC   NC374363  21.630  32.490   5.417
 5887POPC   PO474364  21.067  32.139   5.511
 5887POPC   GL174365  21.372  32.225   5.814
 5887POPC   GL274366  21.745  32.136   5.750
 5887POPC   C1A74367  21.224  32.415   6.224
 5887POPC   D2A74368  21.313  32.589   6.635
 5887POPC   C3A74369  21.171  32.439   6.996
 5887POPC   C4A74370  20.977  32.718   7.265
 5887POPC   C1B74371  21.720  32.366   6.148
 5887POPC   C2B74372  21.573  32.172   6.539
 5887POPC   C3B74373  21.626  32.191   6.997
 5887POPC   C4B74374  21.572  31.834   7.289
 5888POPC   NC374375  28.646  26.455   5.459
 5888POPC   PO474376  28.427  25.845   5.381
 5888POPC   GL174377  28.355  26.099   5.754
 5888POPC   GL274378  28.663  26.142   5.876
 5888POPC   C1A74379  28.204  26.124   6.189
 5888POPC   D2A74380  28.081  26.296   6.598
 5888POPC   C3A74381  28.297  26.083   6.881
 5888POPC   C4A74382  28.478  26.040   7.264
 5888POPC   C1B74383  28.592  25.784   6.169
 5888POPC   C2B74384  28.581  25.719   6.634
 5888POPC   C3B74385  28.707  25.639   7.085
 5888POPC   C4B74386  28.859  25.828   7.531
 5889POPC   NC374387  11.483  15.607   5.397
 5889POPC   PO474388  11.210  16.191   5.529
 5889POPC   GL174389  11.564  15.954   5.788
 5889POPC   GL274390  11.659  15.580   5.875
 5889POPC   C1A74391  11.520  15.954   6.243
 5889POPC   D2A74392  11.337  16.279   6.491
 5889POPC   C3A74393  11.457  16.237   6.897
 5889POPC   C4A74394  11.344  15.975   7.261
 5889POPC   C1B74395  11.271  15.515   6.106
 5889POPC   C2B74396  11.185  15.605   6.556
 5889POPC   C3B74397  11.207  15.560   7.009
 5889POPC   C4B74398  11.172  15.530   7.482
 5890POPC   NC374399  27.338   5.124   5.265
 5890POPC   PO474400  26.716   5.183   5.476
 5890POPC   GL174401  26.767   5.263   5.862
 5890POPC   GL274402  27.070   5.086   5.846
 5890POPC   C1A74403  26.585   5.320   6.250
 5890POPC   D2A74404  26.385   5.143   6.593
 5890POPC   C3A74405  26.594   4.968   6.960
 5890POPC   C4A74406  26.905   4.994   7.295
 5890POPC   C1B74407  26.876   4.907   6.214
 5890POPC   C2B74408  26.981   5.056   6.612
 5890POPC   C3B74409  27.160   4.759   6.892
 5890POPC   C4B74410  27.112   4.536   7.289
 5891POPC   NC374411  30.033   6.717   5.262
 5891POPC   PO474412  29.504   6.427   5.570
 5891POPC   GL174413  29.803   6.638   5.851
 5891POPC   GL274414  30.165   6.733   5.740
 5891POPC   C1A74415  29.756   6.599   6.309
 5891POPC   D2A74416  29.624   6.388   6.720
 5891POPC   C3A74417  29.812   6.622   7.065
 5891POPC   C4A74418  29.879   6.935   7.383
 5891POPC   C1B74419  30.199   6.797   6.149
 5891POPC   C2B74420  30.099   6.920   6.548
 5891POPC   C3B74421  30.230   6.952   6.945
 5891POPC   C4B74422  30.309   6.696   7.275
 5892POPC   NC374423  32.367  38.894   5.046
 5892POPC   PO474424  31.993  39.240   5.526
 5892POPC   GL174425  32.363  39.184   5.824
 5892POPC   GL274426  32.392  39.522   6.025
 5892POPC   C1A74427  32.561  39.097   6.218
 5892POPC   D2A74428  32.497  39.407   6.554
 5892POPC   C3A74429  32.406  39.333   6.993
 5892POPC   C4A74430  32.297  39.478   7.443
 5892POPC   C1B74431  32.043  39.438   6.284
 5892POPC   C2B74432  31.936  39.376   6.729
 5892POPC   C3B74433  31.891  39.346   7.175
 5892POPC   C4B74434  31.850  39.114   7.550
 5893POPC   NC374435  27.814  10.602   5.694
 5893POPC   PO474436  28.245  10.228   5.366
 5893POPC   GL174437  28.266  10.357   5.809
 5893POPC   GL274438  28.329  10.717   5.877
 5893POPC   C1A74439  28.495  10.320   6.211
 5893POPC   D2A74440  28.623  10.601   6.527
 5893POPC   C3A74441  28.486  10.582   6.952
 5893POPC   C4A74442  28.533  10.243   7.225
 5893POPC   C1B74443  28.177  10.745   6.305
 5893POPC   C2B74444  28.121  10.416   6.617
 5893POPC   C3B74445  28.024  10.287   7.045
 5893POPC   C4B74446  28.097  10.513   7.434
 5894POPC   NC374447   2.324  41.229   5.533
 5894POPC   PO474448   1.770  41.731   5.484
 5894POPC   GL174449   2.051  41.709   5.841
 5894POPC   GL274450   1.881  41.994   5.946
 5894POPC   C1A74451   2.116  41.419   6.216
 5894POPC   D2A74452   1.807  41.164   6.475
 5894POPC   C3A74453   1.829  41.154   6.934
 5894POPC   C4A74454   2.163  41.308   7.181
 5894POPC   C1B74455   1.825  41.826   6.358
 5894POPC   C2B74456   2.047  41.602   6.714
 5894POPC   C3B74457   2.025  41.812   7.108
 5894POPC   C4B74458   1.665  41.935   7.336
 5895POPC   NC374459   0.201  21.957   5.444
 5895POPC   PO474460   0.791  22.192   5.655
 5895POPC   GL174461   0.645  21.909   5.988
 5895POPC   GL274462   0.311  21.750   5.993
 5895POPC   C1A74463   0.576  21.896   6.446
 5895POPC   D2A74464   0.317  22.096   6.784
 5895POPC   C3A74465   0.540  22.324   7.095
 5895POPC   C4A74466   0.577  22.128   7.461
 5895POPC   C1B74467   0.119  22.105   6.288
 5895POPC   C2B74468  44.921  22.395   6.632
 5895POPC   C3B74469   0.054  22.526   7.082
 5895POPC   C4B74470   0.152  22.412   7.509
 5896POPC   NC374471  13.018  21.006   5.591
 5896POPC   PO474472  13.348  20.371   5.553
 5896POPC   GL174473  13.577  20.413   5.949
 5896POPC   GL274474  13.714  20.753   5.955
 5896POPC   C1A74475  13.659  20.314   6.403
 5896POPC   D2A74476  13.485  20.617   6.703
 5896POPC   C3A74477  13.479  20.495   7.085
 5896POPC   C4A74478  13.729  20.365   7.406
 5896POPC   C1B74479  14.021  20.655   6.285
 5896POPC   C2B74480  13.938  20.844   6.719
 5896POPC   C3B74481  13.885  20.826   7.174
 5896POPC   C4B74482  14.027  20.713   7.604
 5897POPC   NC374483  40.525  30.518   5.406
 5897POPC   PO474484  41.134  30.842   5.274
 5897POPC   GL174485  40.654  30.950   5.614
 5897POPC   GL274486  40.687  30.652   5.868
 5897POPC   C1A74487  40.511  31.033   6.119
 5897POPC   D2A74488  40.738  30.806   6.474
 5897POPC   C3A74489  40.809  30.949   6.898
 5897POPC   C4A74490  40.855  30.908   7.333
 5897POPC   C1B74491  40.495  30.349   6.164
 5897POPC   C2B74492  40.500  30.364   6.630
 5897POPC   C3B74493  40.831  30.408   6.940
 5897POPC   C4B74494  40.859  30.334   7.383
 5898POPC   NC374495  27.664  35.967   5.720
 5898POPC   PO474496  27.608  35.303   5.430
 5898POPC   GL174497  27.676  35.342   5.851
 5898POPC   GL274498  27.382  35.549   5.886
 5898POPC   C1A74499  27.797  35.120   6.246
 5898POPC   D2A74500  27.566  34.975   6.604
 5898POPC   C3A74501  27.759  34.989   6.991
 5898POPC   C4A74502  27.594  35.129   7.414
 5898POPC   C1B74503  27.598  35.619   6.276
 5898POPC   C2B74504  27.741  35.461   6.638
 5898POPC   C3B74505  27.627  35.496   7.018
 5898POPC   C4B74506  27.731  35.773   7.326
 5899POPC   NC374507  42.671   4.355   5.653
 5899POPC   PO474508  42.108   4.542   5.460
 5899POPC   GL174509  42.225   4.407   5.908
 5899POPC   GL274510  42.444   4.076   5.997
 5899POPC   C1A74511  42.217   4.364   6.358
 5899POPC   D2A74512  41.966   4.214   6.701
 5899POPC   C3A74513  42.155   4.361   7.067
 5899POPC   C4A74514  42.338   4.597   7.380
 5899POPC   C1B74515  42.750   4.269   6.322
 5899POPC   C2B74516  42.743   4.459   6.752
 5899POPC   C3B74517  42.657   4.233   7.142
 5899POPC   C4B74518  42.617   3.926   7.478
 5900POPC   NC374519  34.614  27.644   5.052
 5900POPC   PO474520  34.193  28.016   5.357
 5900POPC   GL174521  34.186  27.637   5.650
 5900POPC   GL274522  34.491  27.390   5.747
 5900POPC   C1A74523  34.233  27.670   6.093
 5900POPC   D2A74524  34.462  27.848   6.465
 5900POPC   C3A74525  34.297  27.749   6.881
 5900POPC   C4A74526  34.289  27.449   7.205
 5900POPC   C1B74527  34.690  27.447   6.196
 5900POPC   C2B74528  34.651  27.406   6.678
 5900POPC   C3B74529  34.769  27.638   7.071
 5900POPC   C4B74530  35.037  27.536   7.460
 5901POPC   NC374531  35.966  29.814   5.177
 5901POPC   PO474532  35.246  29.846   5.297
 5901POPC   GL174533  35.466  29.893   5.702
 5901POPC   GL274534  35.612  29.561   5.852
 5901POPC   C1A74535  35.470  30.167   6.095
 5901POPC   D2A74536  35.347  30.063   6.536
 5901POPC   C3A74537  35.441  30.221   6.959
 5901POPC   C4A74538  35.097  30.221   7.237
 5901POPC   C1B74539  35.257  29.641   6.162
 5901POPC   C2B74540  35.045  29.627   6.590
 5901POPC   C3B74541  35.250  29.706   7.000
 5901POPC   C4B74542  35.627  29.440   7.157
 5902POPC   NC374543  20.599  12.628   5.438
 5902POPC   PO474544  20.793  13.308   5.528
 5902POPC   GL174545  20.576  13.035   5.792
 5902POPC   GL274546  20.890  13.070   5.973
 5902POPC   C1A74547  20.372  12.728   6.093
 5902POPC   D2A74548  20.321  12.580   6.534
 5902POPC   C3A74549  20.287  12.726   6.994
 5902POPC   C4A74550  20.486  12.503   7.365
 5902POPC   C1B74551  20.607  13.122   6.322
 5902POPC   C2B74552  20.654  12.934   6.715
 5902POPC   C3B74553  20.836  12.754   7.075
 5902POPC   C4B74554  21.170  12.926   7.311
 5903POPC   NC374555  22.792   7.814   5.540
 5903POPC   PO474556  23.149   7.214   5.326
 5903POPC   GL174557  23.073   7.440   5.738
 5903POPC   GL274558  22.677   7.391   5.807
 5903POPC   C1A74559  22.979   7.495   6.205
 5903POPC   D2A74560  23.213   7.576   6.604
 5903POPC   C3A74561  23.012   7.718   6.963
 5903POPC   C4A74562  22.896   7.450   7.243
 5903POPC   C1B74563  22.667   7.066   6.174
 5903POPC   C2B74564  22.514   6.981   6.627
 5903POPC   C3B74565  22.555   7.085   7.109
 5903POPC   C4B74566  22.519   7.352   7.549
 5904POPC   NC374567  12.423   8.389   5.502
 5904POPC   PO474568  11.847   8.034   5.511
 5904POPC   GL174569  11.959   7.875   5.894
 5904POPC   GL274570  12.277   8.005   5.871
 5904POPC   C1A74571  11.927   8.046   6.312
 5904POPC   D2A74572  11.715   8.162   6.715
 5904POPC   C3A74573  11.851   8.237   7.139
 5904POPC   C4A74574  12.077   8.331   7.544
 5904POPC   C1B74575  12.271   8.381   6.127
 5904POPC   C2B74576  12.203   8.409   6.560
 5904POPC   C3B74577  12.257   8.496   6.969
 5904POPC   C4B74578  12.600   8.514   7.214
 5905POPC   NC374579   4.735  12.873   5.605
 5905POPC   PO474580   5.143  12.479   5.363
 5905POPC   GL174581   5.303  12.698   5.730
 5905POPC   GL274582   5.222  13.070   5.747
 5905POPC   C1A74583   5.323  12.598   6.166
 5905POPC   D2A74584   5.172  12.685   6.581
 5905POPC   C3A74585   4.863  12.882   6.805
 5905POPC   C4A74586   5.013  12.822   7.214
 5905POPC   C1B74587   5.090  13.072   6.207
 5905POPC   C2B74588   5.141  13.288   6.612
 5905POPC   C3B74589   5.009  13.333   7.027
 5905POPC   C4B74590   4.859  13.304   7.446
 5906POPC   NC374591  35.006  34.665   5.631
 5906POPC   PO474592  34.497  34.316   5.372
 5906POPC   GL174593  34.400  34.312   5.829
 5906POPC   GL274594  34.417  34.670   5.882
 5906POPC   C1A74595  34.523  34.337   6.303
 5906POPC   D2A74596  34.849  34.193   6.625
 5906POPC   C3A74597  34.755  34.401   7.028
 5906POPC   C4A74598  34.330  34.505   7.202
 5906POPC   C1B74599  34.653  34.823   6.244
 5906POPC   C2B74600  34.711  34.804   6.695
 5906POPC   C3B74601  34.429  34.972   7.036
 5906POPC   C4B74602  34.312  35.061   7.470
 5907POPC   NC374603  42.349  27.046   5.055
 5907POPC   PO474604  42.632  26.536   5.314
 5907POPC   GL174605  42.528  26.818   5.683
 5907POPC   GL274606  42.476  26.545   5.881
 5907POPC   C1A74607  42.352  27.016   6.108
 5907POPC   D2A74608  42.333  27.246   6.543
 5907POPC   C3A74609  42.283  27.012   6.915
 5907POPC   C4A74610  41.953  26.807   7.128
 5907POPC   C1B74611  42.249  26.442   6.208
 5907POPC   C2B74612  42.335  26.595   6.599
 5907POPC   C3B74613  42.352  26.506   7.004
 5907POPC   C4B74614  42.249  26.434   7.393
 5908POPC   NC374615  13.535  13.857   5.467
 5908POPC   PO474616  13.920  13.360   5.226
 5908POPC   GL174617  13.881  13.507   5.671
 5908POPC   GL274618  13.570  13.525   5.885
 5908POPC   C1A74619  13.985  13.623   6.123
 5908POPC   D2A74620  13.745  13.691   6.499
 5908POPC   C3A74621  13.887  13.545   6.922
 5908POPC   C4A74622  13.573  13.281   7.134
 5908POPC   C1B74623  13.306  13.784   6.098
 5908POPC   C2B74624  13.205  13.814   6.511
 5908POPC   C3B74625  13.399  13.701   6.891
 5908POPC   C4B74626  13.364  13.759   7.306
 5909POPC   NC374627   3.989  18.342   5.502
 5909POPC   PO474628   4.578  18.127   5.359
 5909POPC   GL174629   4.448  18.339   5.732
 5909POPC   GL274630   4.447  18.057   5.883
 5909POPC   C1A74631   4.248  18.507   6.114
 5909POPC   D2A74632   4.048  18.634   6.515
 5909POPC   C3A74633   4.338  18.575   6.898
 5909POPC   C4A74634   4.300  18.287   7.273
 5909POPC   C1B74635   4.198  18.001   6.227
 5909POPC   C2B74636   4.383  18.223   6.529
 5909POPC   C3B74637   4.460  18.053   6.874
 5909POPC   C4B74638   4.119  17.818   7.039
 5910POPC   NC374639  34.334  33.921   5.215
 5910POPC   PO474640  34.823  33.482   5.429
 5910POPC   GL174641  34.575  33.789   5.682
 5910POPC   GL274642  34.329  33.575   5.906
 5910POPC   C1A74643  34.664  33.886   6.113
 5910POPC   D2A74644  34.473  33.749   6.487
 5910POPC   C3A74645  34.368  34.080   6.766
 5910POPC   C4A74646  34.455  34.002   7.179
 5910POPC   C1B74647  34.093  33.406   6.254
 5910POPC   C2B74648  34.265  33.257   6.632
 5910POPC   C3B74649  34.314  33.562   6.942
 5910POPC   C4B74650  34.575  33.509   7.279
 5911POPC   NC374651   2.822  35.770   5.371
 5911POPC   PO474652   2.761  35.133   5.579
 5911POPC   GL174653   2.745  35.505   5.813
 5911POPC   GL274654   2.403  35.632   5.663
 5911POPC   C1A74655   2.815  35.425   6.290
 5911POPC   D2A74656   2.663  35.165   6.660
 5911POPC   C3A74657   2.848  35.213   7.084
 5911POPC   C4A74658   2.981  35.576   7.347
 5911POPC   C1B74659   2.360  35.532   6.113
 5911POPC   C2B74660   2.378  35.588   6.548
 5911POPC   C3B74661   2.533  35.606   6.969
 5911POPC   C4B74662   2.508  35.784   7.372
 5912POPC   NC374663  13.145   8.208   5.183
 5912POPC   PO474664  12.607   7.922   5.491
 5912POPC   GL174665  12.771   8.154   5.847
 5912POPC   GL274666  13.115   8.087   5.757
 5912POPC   C1A74667  12.714   8.228   6.314
 5912POPC   D2A74668  12.713   8.512   6.697
 5912POPC   C3A74669  13.075   8.438   6.983
 5912POPC   C4A74670  13.015   8.130   7.308
 5912POPC   C1B74671  13.145   7.922   6.197
 5912POPC   C2B74672  12.872   7.803   6.556
 5912POPC   C3B74673  12.503   8.022   6.770
 5912POPC   C4B74674  12.362   8.044   7.208
 5913POPC   NC374675   4.213  33.840   5.292
 5913POPC   PO474676   4.708  34.011   5.632
 5913POPC   GL174677   4.408  33.767   5.840
 5913POPC   GL274678   4.044  33.764   5.797
 5913POPC   C1A74679   4.385  33.817   6.265
 5913POPC   D2A74680   4.237  34.066   6.594
 5913POPC   C3A74681   4.473  33.853   6.877
 5913POPC   C4A74682   4.441  33.746   7.297
 5913POPC   C1B74683   3.877  33.869   6.215
 5913POPC   C2B74684   3.890  33.695   6.650
 5913POPC   C3B74685   3.980  33.811   7.083
 5913POPC   C4B74686   3.919  33.734   7.520
 5914POPC   NC374687  40.815  11.695   5.437
 5914POPC   PO474688  41.114  11.045   5.496
 5914POPC   GL174689  40.950  11.362   5.792
 5914POPC   GL274690  41.143  11.684   5.855
 5914POPC   C1A74691  40.645  11.574   6.091
 5914POPC   D2A74692  40.363  11.689   6.440
 5914POPC   C3A74693  40.540  11.533   6.813
 5914POPC   C4A74694  40.433  11.656   7.209
 5914POPC   C1B74695  41.149  11.412   6.254
 5914POPC   C2B74696  41.008  11.328   6.682
 5914POPC   C3B74697  40.864  11.193   7.082
 5914POPC   C4B74698  41.094  11.074   7.484
 5915POPC   NC374699  18.762  15.016   5.520
 5915POPC   PO474700  19.362  15.383   5.526
 5915POPC   GL174701  19.060  15.316   5.843
 5915POPC   GL274702  19.109  14.950   5.896
 5915POPC   C1A74703  18.899  15.373   6.266
 5915POPC   D2A74704  18.724  15.040   6.554
 5915POPC   C3A74705  18.713  15.024   7.012
 5915POPC   C4A74706  18.893  15.300   7.298
 5915POPC   C1B74707  19.247  14.979   6.335
 5915POPC   C2B74708  19.204  15.005   6.787
 5915POPC   C3B74709  19.372  15.191   7.150
 5915POPC   C4B74710  19.502  14.968   7.538
 5916POPC   NC374711  21.797  36.639   5.469
 5916POPC   PO474712  22.097  37.236   5.361
 5916POPC   GL174713  22.172  37.087   5.770
 5916POPC   GL274714  22.216  36.729   5.784
 5916POPC   C1A74715  22.438  37.013   6.156
 5916POPC   D2A74716  22.276  36.949   6.579
 5916POPC   C3A74717  22.486  36.910   6.969
 5916POPC   C4A74718  22.275  37.021   7.317
 5916POPC   C1B74719  21.963  36.805   6.172
 5916POPC   C2B74720  21.848  36.679   6.600
 5916POPC   C3B74721  21.993  36.610   7.030
 5916POPC   C4B74722  22.344  36.512   7.304
 5917POPC   NC374723  22.370  31.818   5.430
 5917POPC   PO474724  22.075  32.413   5.397
 5917POPC   GL174725  22.138  32.446   5.831
 5917POPC   GL274726  22.294  32.143   5.825
 5917POPC   C1A74727  22.216  32.386   6.262
 5917POPC   D2A74728  22.076  32.179   6.622
 5917POPC   C3A74729  22.096  32.461   6.965
 5917POPC   C4A74730  22.292  32.496   7.346
 5917POPC   C1B74731  22.487  31.934   6.167
 5917POPC   C2B74732  22.517  31.903   6.621
 5917POPC   C3B74733  22.439  32.076   7.040
 5917POPC   C4B74734  22.064  32.048   7.289
 5918POPC   NC374735  14.316   9.975   5.221
 5918POPC   PO474736  14.480   9.344   5.426
 5918POPC   GL174737  14.448   9.643   5.737
 5918POPC   GL274738  14.826   9.606   5.776
 5918POPC   C1A74739  14.242   9.746   6.179
 5918POPC   D2A74740  14.127   9.634   6.615
 5918POPC   C3A74741  14.155   9.994   6.907
 5918POPC   C4A74742  14.438   9.965   7.234
 5918POPC   C1B74743  14.657   9.468   6.146
 5918POPC   C2B74744  14.721   9.556   6.547
 5918POPC   C3B74745  14.550   9.572   6.919
 5918POPC   C4B74746  14.651   9.520   7.334
 5919POPC   NC374747  20.238  11.200   5.280
 5919POPC   PO474748  19.750  10.787   5.480
 5919POPC   GL174749  19.751  11.154   5.781
 5919POPC   GL274750  19.903  11.500   5.682
 5919POPC   C1A74751  19.769  11.218   6.257
 5919POPC   D2A74752  19.851  11.080   6.701
 5919POPC   C3A74753  19.680  11.212   7.091
 5919POPC   C4A74754  19.804  11.207   7.511
 5919POPC   C1B74755  19.954  11.678   6.148
 5919POPC   C2B74756  20.104  11.564   6.599
 5919POPC   C3B74757  20.193  11.768   7.013
 5919POPC   C4B74758  20.003  11.643   7.404
 5920POPC   NC374759   0.560  38.030   5.167
 5920POPC   PO474760   0.109  37.590   5.247
 5920POPC   GL174761   0.174  37.682   5.794
 5920POPC   GL274762   0.567  37.680   5.872
 5920POPC   C1A74763   0.297  37.884   6.243
 5920POPC   D2A74764   0.665  37.708   6.510
 5920POPC   C3A74765   0.575  37.710   6.954
 5920POPC   C4A74766   0.343  38.057   7.154
 5920POPC   C1B74767   0.391  37.378   6.203
 5920POPC   C2B74768   0.218  37.397   6.626
 5920POPC   C3B74769   0.306  37.243   7.040
 5920POPC   C4B74770   0.549  37.355   7.374
 5921POPC   NC374771  14.009  12.990   5.472
 5921POPC   PO474772  13.655  12.569   5.045
 5921POPC   GL174773  13.431  12.725   5.544
 5921POPC   GL274774  13.565  13.031   5.722
 5921POPC   C1A74775  13.347  12.712   6.045
 5921POPC   D2A74776  13.569  12.661   6.474
 5921POPC   C3A74777  13.440  12.896   6.822
 5921POPC   C4A74778  13.190  12.941   7.196
 5921POPC   C1B74779  13.698  13.106   6.170
 5921POPC   C2B74780  13.919  13.137   6.575
 5921POPC   C3B74781  14.034  13.044   7.004
 5921POPC   C4B74782  13.748  12.763   7.200
 5922POPC   NC374783   4.672   4.401   5.418
 5922POPC   PO474784   4.048   4.109   5.304
 5922POPC   GL174785   4.100   4.366   5.723
 5922POPC   GL274786   4.449   4.463   5.859
 5922POPC   C1A74787   4.059   4.424   6.188
 5922POPC   D2A74788   4.293   4.333   6.564
 5922POPC   C3A74789   4.045   4.368   6.935
 5922POPC   C4A74790   4.100   4.249   7.363
 5922POPC   C1B74791   4.711   4.450   6.210
 5922POPC   C2B74792   4.727   4.633   6.617
 5922POPC   C3B74793   4.507   4.602   7.000
 5922POPC   C4B74794   4.609   4.338   7.284
 5923POPC   NC374795   3.510  39.759   5.548
 5923POPC   PO474796   3.911  40.349   5.521
 5923POPC   GL174797   3.637  40.168   5.847
 5923POPC   GL274798   3.639  39.880   6.021
 5923POPC   C1A74799   3.311  40.266   6.130
 5923POPC   D2A74800   3.491  40.104   6.502
 5923POPC   C3A74801   3.568  40.349   6.886
 5923POPC   C4A74802   3.928  40.345   7.213
 5923POPC   C1B74803   3.293  39.712   6.174
 5923POPC   C2B74804   3.270  39.631   6.577
 5923POPC   C3B74805   3.463  39.792   6.926
 5923POPC   C4B74806   3.303  40.086   7.233
 5924POPC   NC374807  11.125   9.755   5.514
 5924POPC   PO474808  11.756   9.923   5.490
 5924POPC   GL174809  11.556   9.743   5.837
 5924POPC   GL274810  11.369  10.022   5.897
 5924POPC   C1A74811  11.605   9.635   6.272
 5924POPC   D2A74812  11.711   9.780   6.698
 5924POPC   C3A74813  11.516   9.496   7.025
 5924POPC   C4A74814  11.441   9.562   7.467
 5924POPC   C1B74815  11.161   9.879   6.254
 5924POPC   C2B74816  11.201   9.684   6.646
 5924POPC   C3B74817  11.182   9.877   7.062
 5924POPC   C4B74818  11.082   9.918   7.502
 5925POPC   NC374819  26.938   6.567   5.306
 5925POPC   PO474820  26.351   6.894   5.449
 5925POPC   GL174821  26.670   6.666   5.750
 5925POPC   GL274822  26.971   6.861   5.784
 5925POPC   C1A74823  26.903   6.415   6.119
 5925POPC   D2A74824  26.944   6.179   6.545
 5925POPC   C3A74825  26.586   6.260   6.846
 5925POPC   C4A74826  26.537   6.615   7.153
 5925POPC   C1B74827  26.963   6.917   6.240
 5925POPC   C2B74828  26.791   6.674   6.606
 5925POPC   C3B74829  27.035   6.504   6.958
 5925POPC   C4B74830  27.357   6.675   7.210
 5926POPC   NC374831  35.547   2.410   5.636
 5926POPC   PO474832  35.650   1.786   5.515
 5926POPC   GL174833  35.303   1.898   5.779
 5926POPC   GL274834  35.050   1.644   5.646
 5926POPC   C1A74835  35.218   2.103   6.174
 5926POPC   D2A74836  35.130   2.194   6.631
 5926POPC   C3A74837  35.453   1.993   6.943
 5926POPC   C4A74838  35.690   2.120   7.337
 5926POPC   C1B74839  34.944   1.648   6.074
 5926POPC   C2B74840  35.146   1.696   6.458
 5926POPC   C3B74841  35.000   1.734   6.855
 5926POPC   C4B74842  34.972   1.754   7.277
 5927POPC   NC374843   3.989  21.788   5.688
 5927POPC   PO474844   4.547  21.611   5.331
 5927POPC   GL174845   4.341  21.400   5.718
 5927POPC   GL274846   4.019  21.230   5.864
 5927POPC   C1A74847   4.333  21.492   6.181
 5927POPC   D2A74848   4.595  21.403   6.518
 5927POPC   C3A74849   4.452  21.397   6.951
 5927POPC   C4A74850   4.293  21.641   7.297
 5927POPC   C1B74851   4.112  21.027   6.199
 5927POPC   C2B74852   4.168  21.139   6.580
 5927POPC   C3B74853   4.102  20.976   6.956
 5927POPC   C4B74854   4.088  21.180   7.337
 5928POPC   NC374855   3.742  12.991   5.601
 5928POPC   PO474856   3.454  12.478   5.195
 5928POPC   GL174857   3.330  12.770   5.783
 5928POPC   GL274858   3.704  12.768   6.042
 5928POPC   C1A74859   3.308  12.658   6.296
 5928POPC   D2A74860   3.465  12.870   6.646
 5928POPC   C3A74861   3.549  12.685   7.076
 5928POPC   C4A74862   3.196  12.547   7.303
 5928POPC   C1B74863   3.495  13.132   6.198
 5928POPC   C2B74864   3.617  13.387   6.552
 5928POPC   C3B74865   3.713  13.159   6.960
 5928POPC   C4B74866   3.453  13.114   7.368
 5929POPC   NC374867  17.689   8.896   5.462
 5929POPC   PO474868  17.100   9.327   5.652
 5929POPC   GL174869  17.281   8.934   5.799
 5929POPC   GL274870  17.608   8.986   5.963
 5929POPC   C1A74871  17.181   8.802   6.213
 5929POPC   D2A74872  17.084   9.100   6.543
 5929POPC   C3A74873  17.388   9.048   6.873
 5929POPC   C4A74874  17.404   8.758   7.218
 5929POPC   C1B74875  17.620   8.971   6.405
 5929POPC   C2B74876  17.789   8.743   6.734
 5929POPC   C3B74877  17.899   8.886   7.089
 5929POPC   C4B74878  17.652   9.203   7.310
 5930POPC   NC374879  21.308  36.442   5.057
 5930POPC   PO474880  21.456  36.967   5.378
 5930POPC   GL174881  21.589  37.044   5.760
 5930POPC   GL274882  21.410  37.365   5.735
 5930POPC   C1A74883  21.460  36.811   6.132
 5930POPC   D2A74884  21.169  36.771   6.498
 5930POPC   C3A74885  21.423  36.728   6.860
 5930POPC   C4A74886  21.529  36.554   7.246
 5930POPC   C1B74887  21.316  37.312   6.173
 5930POPC   C2B74888  21.550  37.122   6.516
 5930POPC   C3B74889  21.626  37.185   6.935
 5930POPC   C4B74890  21.772  37.021   7.297
 5931POPC   NC374891  14.705  21.257   5.089
 5931POPC   PO474892  15.148  21.597   5.414
 5931POPC   GL174893  14.902  21.377   5.726
 5931POPC   GL274894  15.114  21.145   5.909
 5931POPC   C1A74895  14.792  21.493   6.152
 5931POPC   D2A74896  15.039  21.566   6.554
 5931POPC   C3A74897  14.953  21.516   7.012
 5931POPC   C4A74898  15.152  21.495   7.409
 5931POPC   C1B74899  14.993  21.090   6.354
 5931POPC   C2B74900  15.178  21.134   6.783
 5931POPC   C3B74901  15.402  21.126   7.179
 5931POPC   C4B74902  15.326  20.848   7.555
 5932POPC   NC374903  13.673  36.206   5.302
 5932POPC   PO474904  13.918  35.618   5.453
 5932POPC   GL174905  13.757  35.978   5.769
 5932POPC   GL274906  13.641  36.344   5.805
 5932POPC   C1A74907  13.852  36.131   6.207
 5932POPC   D2A74908  14.107  36.048   6.585
 5932POPC   C3A74909  13.918  36.060   6.987
 5932POPC   C4A74910  13.827  35.852   7.394
 5932POPC   C1B74911  13.343  36.253   6.145
 5932POPC   C2B74912  13.151  36.214   6.531
 5932POPC   C3B74913  13.163  36.313   6.960
 5932POPC   C4B74914  13.432  36.038   7.125
 5933POPC   NC374915  18.797   1.325   5.458
 5933POPC   PO474916  19.495   1.188   5.411
 5933POPC   GL174917  19.219   1.225   5.795
 5933POPC   GL274918  18.994   0.909   5.790
 5933POPC   C1A74919  19.040   1.539   6.141
 5933POPC   D2A74920  18.910   1.723   6.594
 5933POPC   C3A74921  19.129   1.460   6.934
 5933POPC   C4A74922  19.190   1.305   7.378
 5933POPC   C1B74923  19.273   0.881   6.182
 5933POPC   C2B74924  19.326   1.086   6.603
 5933POPC   C3B74925  19.403   0.927   7.025
 5933POPC   C4B74926  19.057   0.762   7.228
 5934POPC   NC374927   6.806   0.650   5.177
 5934POPC   PO474928   6.499   0.074   5.346
 5934POPC   GL174929   6.577   0.331   5.762
 5934POPC   GL274930   6.724   0.656   5.766
 5934POPC   C1A74931   6.798   0.375   6.181
 5934POPC   D2A74932   6.660   0.289   6.587
 5934POPC   C3A74933   6.656   0.466   7.002
 5934POPC   C4A74934   6.748   0.253   7.398
 5934POPC   C1B74935   6.986   0.843   6.131
 5934POPC   C2B74936   6.838   0.787   6.548
 5934POPC   C3B74937   7.084   0.757   6.908
 5934POPC   C4B74938   6.952   0.734   7.316
 5935POPC   NC374939  14.651   0.410   5.537
 5935POPC   PO474940  14.435   0.999   5.427
 5935POPC   GL174941  14.458   0.729   5.875
 5935POPC   GL274942  14.290   0.357   5.903
 5935POPC   C1A74943  14.661   0.458   6.222
 5935POPC   D2A74944  14.730   0.252   6.653
 5935POPC   C3A74945  14.538   0.476   7.018
 5935POPC   C4A74946  14.316   0.698   7.352
 5935POPC   C1B74947  14.374   0.006   6.237
 5935POPC   C2B74948  14.256  44.781   6.619
 5935POPC   C3B74949  14.183   0.089   6.924
 5935POPC   C4B74950  14.059   0.256   7.315
 5936POPC   NC374951  21.050  18.589   5.620
 5936POPC   PO474952  21.565  18.390   5.208
 5936POPC   GL174953  21.442  18.230   5.643
 5936POPC   GL274954  21.122  18.155   5.863
 5936POPC   C1A74955  21.575  18.119   6.089
 5936POPC   D2A74956  21.358  18.103   6.506
 5936POPC   C3A74957  21.533  18.048   6.902
 5936POPC   C4A74958  21.400  18.083   7.318
 5936POPC   C1B74959  21.214  18.490   6.212
 5936POPC   C2B74960  21.063  18.626   6.601
 5936POPC   C3B74961  21.203  18.475   6.977
 5936POPC   C4B74962  21.099  18.478   7.399
 5937POPC   NC374963  42.077  41.139   5.514
 5937POPC   PO474964  42.045  40.456   5.368
 5937POPC   GL174965  42.202  40.687   5.755
 5937POPC   GL274966  42.534  40.598   5.829
 5937POPC   C1A74967  42.261  40.911   6.162
 5937POPC   D2A74968  42.458  41.070   6.503
 5937POPC   C3A74969  42.358  40.892   6.873
 5937POPC   C4A74970  42.126  41.112   7.134
 5937POPC   C1B74971  42.471  40.443   6.209
 5937POPC   C2B74972  42.274  40.489   6.569
 5937POPC   C3B74973  42.275  40.379   6.987
 5937POPC   C4B74974  42.244  40.632   7.322
 5938POPC   NC374975  41.892  18.110   5.551
 5938POPC   PO474976  41.398  18.491   5.308
 5938POPC   GL174977  41.529  18.440   5.783
 5938POPC   GL274978  41.901  18.533   5.863
 5938POPC   C1A74979  41.638  18.157   6.183
 5938POPC   D2A74980  41.799  17.968   6.575
 5938POPC   C3A74981  41.458  18.009   6.853
 5938POPC   C4A74982  41.283  17.992   7.251
 5938POPC   C1B74983  42.020  18.453   6.293
 5938POPC   C2B74984  41.784  18.470   6.681
 5938POPC   C3B74985  41.868  18.285   7.069
 5938POPC   C4B74986  42.047  18.517   7.420
 5939POPC   NC374987  44.156  12.571   5.543
 5939POPC   PO474988  43.423  12.661   5.394
 5939POPC   GL174989  43.555  12.843   5.798
 5939POPC   GL274990  43.837  13.111   5.772
 5939POPC   C1A74991  43.611  12.932   6.219
 5939POPC   D2A74992  43.754  12.703   6.590
 5939POPC   C3A74993  43.795  12.894   7.005
 5939POPC   C4A74994  43.620  12.979   7.414
 5939POPC   C1B74995  44.043  13.244   6.178
 5939POPC   C2B74996  44.140  13.076   6.579
 5939POPC   C3B74997  44.230  12.712   6.805
 5939POPC   C4B74998  44.266  12.829   7.226
 5940POPC   NC374999   4.374  40.144   5.447
 5940POPC   PO475000   3.950  39.665   5.677
 5940POPC   GL175001   4.126  39.986   5.905
 5940POPC   GL275002   4.464  39.889   5.891
 5940POPC   C1A75003   3.991  39.994   6.355
 5940POPC   D2A75004   3.921  40.013   6.801
 5940POPC   C3A75005   4.171  39.837   7.099
 5940POPC   C4A75006   4.564  39.663   7.120
 5940POPC   C1B75007   4.464  40.143   6.266
 5940POPC   C2B75008   4.440  40.011   6.688
 5940POPC   C3B75009   4.477  40.232   7.045
 5940POPC   C4B75010   4.587  40.185   7.457
 5941POPC   NC375011  40.339  36.531   5.544
 5941POPC   PO475012  39.904  36.983   5.729
 5941POPC   GL175013  40.122  36.962   6.008
 5941POPC   GL275014  40.434  36.958   5.848
 5941POPC   C1A75015  39.954  37.035   6.395
 5941POPC   D2A75016  40.133  37.041   6.741
 5941POPC   C3A75017  39.909  36.959   7.079
 5941POPC   C4A75018  39.620  37.194   7.248
 5941POPC   C1B75019  40.490  36.743   6.250
 5941POPC   C2B75020  40.220  36.547   6.554
 5941POPC   C3B75021  40.322  36.640   6.974
 5941POPC   C4B75022  40.247  36.696   7.390
 5942POPC   NC375023  23.192  39.379   5.714
 5942POPC   PO475024  23.602  39.199   5.237
 5942POPC   GL175025  23.789  39.246   5.691
 5942POPC   GL275026  23.999  39.566   5.750
 5942POPC   C1A75027  23.647  39.144   6.143
 5942POPC   D2A75028  23.542  39.281   6.567
 5942POPC   C3A75029  23.436  39.020   6.914
 5942POPC   C4A75030  23.402  39.251   7.289
 5942POPC   C1B75031  24.009  39.519   6.207
 5942POPC   C2B75032  23.950  39.601   6.642
 5942POPC   C3B75033  23.853  39.347   6.982
 5942POPC   C4B75034  23.856  39.578   7.326
 5943POPC   NC375035  10.253  19.075   5.449
 5943POPC   PO475036   9.687  18.937   5.064
 5943POPC   GL175037   9.769  18.882   5.577
 5943POPC   GL275038   9.896  19.205   5.791
 5943POPC   C1A75039   9.681  18.814   6.065
 5943POPC   D2A75040   9.518  19.060   6.442
 5943POPC   C3A75041   9.663  18.965   6.869
 5943POPC   C4A75042   9.576  18.962   7.292
 5943POPC   C1B75043  10.119  19.376   6.175
 5943POPC   C2B75044   9.980  19.304   6.597
 5943POPC   C3B75045   9.897  19.406   7.035
 5943POPC   C4B75046   9.942  19.273   7.448
 5944POPC   NC375047  40.369  29.173   5.304
 5944POPC   PO475048  41.037  29.215   5.462
 5944POPC   GL175049  40.979  29.042   5.841
 5944POPC   GL275050  40.647  29.020   5.788
 5944POPC   C1A75051  40.909  28.881   6.246
 5944POPC   D2A75052  41.066  29.063   6.601
 5944POPC   C3A75053  40.845  28.875   6.892
 5944POPC   C4A75054  40.811  29.013   7.262
 5944POPC   C1B75055  40.457  29.152   6.186
 5944POPC   C2B75056  40.432  28.942   6.593
 5944POPC   C3B75057  40.399  29.134   7.011
 5944POPC   C4B75058  40.378  29.079   7.480
 5945POPC   NC375059  41.188  15.824   5.278
 5945POPC   PO475060  40.606  16.011   5.412
 5945POPC   GL175061  40.888  15.866   5.767
 5945POPC   GL275062  40.926  15.499   5.833
 5945POPC   C1A75063  40.766  15.849   6.215
 5945POPC   D2A75064  40.498  15.809   6.586
 5945POPC   C3A75065  40.620  16.138   6.893
 5945POPC   C4A75066  40.929  16.185   7.242
 5945POPC   C1B75067  40.920  15.348   6.288
 5945POPC   C2B75068  40.905  15.461   6.743
 5945POPC   C3B75069  40.620  15.665   7.074
 5945POPC   C4B75070  40.675  15.810   7.499
 5946POPC   NC375071  35.921  37.557   5.467
 5946POPC   PO475072  36.451  37.825   5.720
 5946POPC   GL175073  36.438  37.624   6.042
 5946POPC   GL275074  36.421  37.274   6.020
 5946POPC   C1A75075  36.472  37.595   6.459
 5946POPC   D2A75076  36.180  37.710   6.724
 5946POPC   C3A75077  36.319  37.662   7.102
 5946POPC   C4A75078  36.059  37.641   7.458
 5946POPC   C1B75079  36.032  37.394   6.233
 5946POPC   C2B75080  35.718  37.489   6.558
 5946POPC   C3B75081  35.816  37.475   7.003
 5946POPC   C4B75082  36.119  37.179   7.152
 5947POPC   NC375083  18.831  20.860   5.450
 5947POPC   PO475084  19.240  20.404   5.419
 5947POPC   GL175085  19.199  20.706   5.769
 5947POPC   GL275086  18.910  20.503   5.849
 5947POPC   C1A75087  19.120  20.859   6.189
 5947POPC   D2A75088  19.030  20.632   6.581
 5947POPC   C3A75089  19.131  20.782   7.000
 5947POPC   C4A75090  18.897  20.841   7.363
 5947POPC   C1B75091  18.684  20.439   6.226
 5947POPC   C2B75092  18.498  20.536   6.590
 5947POPC   C3B75093  18.662  20.580   6.948
 5947POPC   C4B75094  18.870  20.354   7.231
 5948POPC   NC375095   8.044  41.897   5.133
 5948POPC   PO475096   8.306  42.540   5.249
 5948POPC   GL175097   8.408  42.504   5.741
 5948POPC   GL275098   8.099  42.421   5.929
 5948POPC   C1A75099   8.510  42.121   6.070
 5948POPC   D2A75100   8.290  42.110   6.485
 5948POPC   C3A75101   8.431  41.985   6.924
 5948POPC   C4A75102   8.035  41.920   7.156
 5948POPC   C1B75103   7.881  42.641   6.247
 5948POPC   C2B75104   7.885  42.524   6.675
 5948POPC   C3B75105   8.136  42.407   7.000
 5948POPC   C4B75106   7.987  42.689   7.252
 5949POPC   NC375107  23.617  34.363   5.396
 5949POPC   PO475108  24.033  34.884   5.125
 5949POPC   GL175109  23.918  34.828   5.638
 5949POPC   GL275110  23.549  34.743   5.744
 5949POPC   C1A75111  23.870  34.789   6.141
 5949POPC   D2A75112  23.794  34.504   6.539
 5949POPC   C3A75113  23.877  34.602   6.962
 5949POPC   C4A75114  23.662  34.718   7.288
 5949POPC   C1B75115  23.441  34.528   6.149
 5949POPC   C2B75116  23.311  34.315   6.546
 5949POPC   C3B75117  23.313  34.527   6.966
 5949POPC   C4B75118  23.178  34.722   7.370
 5950POPC   NC375119  37.621   3.490   5.149
 5950POPC   PO475120  37.397   3.679   5.720
 5950POPC   GL175121  37.756   3.567   5.938
 5950POPC   GL275122  38.019   3.846   5.991
 5950POPC   C1A75123  37.679   3.401   6.351
 5950POPC   D2A75124  37.573   3.045   6.606
 5950POPC   C3A75125  37.499   3.280   6.934
 5950POPC   C4A75126  37.694   3.552   7.157
 5950POPC   C1B75127  37.645   3.936   6.288
 5950POPC   C2B75128  37.523   3.811   6.723
 5950POPC   C3B75129  37.744   4.034   7.071
 5950POPC   C4B75130  38.207   4.024   7.182
 5951POPC   NC375131   3.850  17.034   5.546
 5951POPC   PO475132   3.311  16.565   5.464
 5951POPC   GL175133   3.463  16.751   5.795
 5951POPC   GL275134   3.786  16.617   5.916
 5951POPC   C1A75135   3.348  16.636   6.202
 5951POPC   D2A75136   3.603  16.633   6.568
 5951POPC   C3A75137   3.401  16.421   6.886
 5951POPC   C4A75138   3.448  16.599   7.260
 5951POPC   C1B75139   3.694  17.010   6.195
 5951POPC   C2B75140   3.660  17.258   6.594
 5951POPC   C3B75141   3.634  16.991   6.953
 5951POPC   C4B75142   3.955  16.782   7.125
 5952POPC   NC375143   7.835  16.863   5.142
 5952POPC   PO475144   7.205  16.453   5.343
 5952POPC   GL175145   7.208  16.571   5.808
 5952POPC   GL275146   7.342  16.920   5.734
 5952POPC   C1A75147   7.439  16.460   6.199
 5952POPC   D2A75148   7.514  16.676   6.592
 5952POPC   C3A75149   7.482  16.460   6.944
 5952POPC   C4A75150   7.279  16.467   7.289
 5952POPC   C1B75151   7.456  16.980   6.176
 5952POPC   C2B75152   7.368  17.165   6.610
 5952POPC   C3B75153   7.367  16.997   7.042
 5952POPC   C4B75154   7.648  16.837   7.319
 5953POPC   NC375155   2.792  15.842   5.448
 5953POPC   PO475156   2.326  16.202   5.441
 5953POPC   GL175157   2.516  16.051   5.837
 5953POPC   GL275158   2.457  15.707   5.876
 5953POPC   C1A75159   2.788  15.944   6.228
 5953POPC   D2A75160   3.068  16.122   6.589
 5953POPC   C3A75161   2.889  16.006   6.987
 5953POPC   C4A75162   2.566  16.179   7.236
 5953POPC   C1B75163   2.224  15.513   6.195
 5953POPC   C2B75164   2.201  15.634   6.603
 5953POPC   C3B75165   2.428  15.748   6.973
 5953POPC   C4B75166   2.555  15.689   7.407
 5954POPC   NC375167   5.726  16.684   5.260
 5954POPC   PO475168   5.095  16.657   5.465
 5954POPC   GL175169   5.096  16.683   5.924
 5954POPC   GL275170   5.265  16.414   6.060
 5954POPC   C1A75171   4.943  16.698   6.372
 5954POPC   D2A75172   5.191  16.473   6.653
 5954POPC   C3A75173   5.180  16.628   7.050
 5954POPC   C4A75174   4.974  17.006   7.135
 5954POPC   C1B75175   5.420  16.820   6.313
 5954POPC   C2B75176   5.548  16.862   6.751
 5954POPC   C3B75177   5.488  17.070   7.158
 5954POPC   C4B75178   5.455  16.985   7.641
 5955POPC   NC375179   9.819   0.937   5.536
 5955POPC   PO475180   9.627   1.539   5.338
 5955POPC   GL175181   9.591   1.315   5.783
 5955POPC   GL275182   9.358   0.996   5.742
 5955POPC   C1A75183   9.870   1.251   6.148
 5955POPC   D2A75184   9.913   1.482   6.537
 5955POPC   C3A75185   9.842   1.259   6.914
 5955POPC   C4A75186   9.829   1.214   7.324
 5955POPC   C1B75187   9.513   0.879   6.135
 5955POPC   C2B75188   9.688   0.948   6.548
 5955POPC   C3B75189   9.547   0.834   6.998
 5955POPC   C4B75190   9.656   0.754   7.459
 5956POPC   NC375191   1.559  17.214   5.267
 5956POPC   PO475192   1.305  17.869   5.444
 5956POPC   GL175193   1.304  17.577   5.777
 5956POPC   GL275194   1.348  17.231   5.780
 5956POPC   C1A75195   1.268  17.683   6.203
 5956POPC   D2A75196   1.445  17.690   6.614
 5956POPC   C3A75197   1.209  17.629   6.967
 5956POPC   C4A75198   1.317  17.719   7.358
 5956POPC   C1B75199   1.140  17.180   6.189
 5956POPC   C2B75200   1.344  17.201   6.613
 5956POPC   C3B75201   1.325  17.149   7.069
 5956POPC   C4B75202   1.406  17.245   7.501
 5957POPC   NC375203  43.219  35.333   5.441
 5957POPC   PO475204  42.557  35.049   5.471
 5957POPC   GL175205  42.900  35.092   5.787
 5957POPC   GL275206  43.269  35.166   5.916
 5957POPC   C1A75207  42.857  35.270   6.183
 5957POPC   D2A75208  43.098  35.287   6.541
 5957POPC   C3A75209  42.894  35.344   6.901
 5957POPC   C4A75210  42.986  35.339   7.321
 5957POPC   C1B75211  43.286  35.571   6.146
 5957POPC   C2B75212  43.370  35.719   6.577
 5957POPC   C3B75213  43.397  35.473   6.984
 5957POPC   C4B75214  43.565  35.636   7.371
 5958POPC   NC375215   5.065   7.817   5.471
 5958POPC   PO475216   5.554   7.468   5.207
 5958POPC   GL175217   5.308   7.496   5.763
 5958POPC   GL275218   4.913   7.577   5.892
 5958POPC   C1A75219   5.181   7.186   6.100
 5958POPC   D2A75220   4.952   7.084   6.500
 5958POPC   C3A75221   4.921   7.412   6.827
 5958POPC   C4A75222   4.986   7.455   7.289
 5958POPC   C1B75223   4.990   7.585   6.334
 5958POPC   C2B75224   5.263   7.733   6.624
 5958POPC   C3B75225   5.314   7.765   7.044
 5958POPC   C4B75226   5.466   7.964   7.375
 5959POPC   NC375227  42.821   8.766   5.603
 5959POPC   PO475228  43.103   9.168   5.230
 5959POPC   GL175229  43.097   9.162   5.738
 5959POPC   GL275230  43.262   8.901   5.886
 5959POPC   C1A75231  42.858   9.083   6.150
 5959POPC   D2A75232  42.911   9.253   6.546
 5959POPC   C3A75233  43.070   9.075   6.903
 5959POPC   C4A75234  42.807   9.130   7.239
 5959POPC   C1B75235  43.117   8.635   6.190
 5959POPC   C2B75236  43.243   8.741   6.558
 5959POPC   C3B75237  43.167   8.488   6.861
 5959POPC   C4B75238  43.155   8.463   7.265
 5960POPC   NC375239  26.621  32.916   5.106
 5960POPC   PO475240  27.207  32.755   5.290
 5960POPC   GL175241  27.128  33.020   5.688
 5960POPC   GL275242  26.812  32.904   5.795
 5960POPC   C1A75243  27.109  33.100   6.172
 5960POPC   D2A75244  27.176  32.942   6.615
 5960POPC   C3A75245  26.982  32.978   7.036
 5960POPC   C4A75246  26.867  32.643   7.334
 5960POPC   C1B75247  26.669  32.851   6.239
 5960POPC   C2B75248  26.617  32.959   6.678
 5960POPC   C3B75249  26.453  32.933   7.106
 5960POPC   C4B75250  26.204  33.169   7.419
 5961POPC   NC375251   2.317   2.907   5.386
 5961POPC   PO475252   1.660   2.611   5.344
 5961POPC   GL175253   1.952   2.707   5.702
 5961POPC   GL275254   1.842   2.537   6.017
 5961POPC   C1A75255   2.206   2.869   6.066
 5961POPC   D2A75256   2.221   2.688   6.464
 5961POPC   C3A75257   2.061   2.914   6.780
 5961POPC   C4A75258   2.221   2.937   7.186
 5961POPC   C1B75259   1.595   2.765   6.320
 5961POPC   C2B75260   1.579   2.743   6.757
 5961POPC   C3B75261   1.741   2.763   7.168
 5961POPC   C4B75262   1.763   2.405   7.425
 5962POPC   NC375263   8.666  11.676   5.452
 5962POPC   PO475264   8.994  11.122   5.267
 5962POPC   GL175265   9.006  11.353   5.688
 5962POPC   GL275266   8.672  11.305   5.801
 5962POPC   C1A75267   9.089  11.367   6.141
 5962POPC   D2A75268   9.025  11.515   6.571
 5962POPC   C3A75269   9.149  11.258   6.918
 5962POPC   C4A75270   9.137  11.422   7.324
 5962POPC   C1B75271   8.507  11.347   6.205
 5962POPC   C2B75272   8.474  11.474   6.610
 5962POPC   C3B75273   8.718  11.562   6.973
 5962POPC   C4B75274   8.622  11.475   7.370
 5963POPC   NC375275  13.489  44.615   5.179
 5963POPC   PO475276  13.137   0.112   5.449
 5963POPC   GL175277  13.508  44.854   5.703
 5963POPC   GL275278  13.517  44.488   5.683
 5963POPC   C1A75279  13.811  44.701   6.096
 5963POPC   D2A75280  13.766  44.548   6.561
 5963POPC   C3A75281  13.874  44.685   7.018
 5963POPC   C4A75282  13.771  44.866   7.463
 5963POPC   C1B75283  13.410  44.371   6.093
 5963POPC   C2B75284  13.306  44.338   6.548
 5963POPC   C3B75285  13.379  44.561   6.948
 5963POPC   C4B75286  13.531  44.435   7.348
 5964POPC   NC375287  36.890   0.187   5.381
 5964POPC   PO475288  37.250   0.810   5.339
 5964POPC   GL175289  37.043   0.533   5.724
 5964POPC   GL275290  37.088   0.158   5.840
 5964POPC   C1A75291  36.829   0.449   6.175
 5964POPC   D2A75292  36.566   0.555   6.575
 5964POPC   C3A75293  36.735   0.511   6.988
 5964POPC   C4A75294  36.545   0.505   7.402
 5964POPC   C1B75295  37.276   0.155   6.237
 5964POPC   C2B75296  37.179   0.354   6.618
 5964POPC   C3B75297  37.165   0.198   7.022
 5964POPC   C4B75298  37.022   0.355   7.382
 5965POPC   NC375299  20.365   7.844   5.357
 5965POPC   PO475300  20.730   8.406   5.471
 5965POPC   GL175301  20.829   8.276   5.859
 5965POPC   GL275302  20.886   7.932   5.884
 5965POPC   C1A75303  20.820   8.261   6.270
 5965POPC   D2A75304  20.572   8.193   6.617
 5965POPC   C3A75305  20.664   8.431   6.943
 5965POPC   C4A75306  20.397   8.467   7.224
 5965POPC   C1B75307  20.574   7.835   6.212
 5965POPC   C2B75308  20.676   7.700   6.647
 5965POPC   C3B75309  20.609   7.842   7.109
 5965POPC   C4B75310  20.798   7.790   7.551
 5966POPC   NC375311  44.682  30.238   5.365
 5966POPC   PO475312  44.845  29.573   5.366
 5966POPC   GL175313  44.874  29.872   5.734
 5966POPC   GL275314  44.544  30.072   5.830
 5966POPC   C1A75315  44.948  30.022   6.170
 5966POPC   D2A75316  44.736  30.006   6.571
 5966POPC   C3A75317  44.904  30.153   6.957
 5966POPC   C4A75318   0.073  29.939   7.274
 5966POPC   C1B75319  44.421  29.835   6.198
 5966POPC   C2B75320  44.270  29.753   6.629
 5966POPC   C3B75321  44.427  29.932   7.008
 5966POPC   C4B75322  44.370  30.071   7.395
 5967POPC   NC375323  24.213  12.356   5.377
 5967POPC   PO475324  24.839  12.386   5.184
 5967POPC   GL175325  24.759  12.379   5.663
 5967POPC   GL275326  24.539  12.110   5.801
 5967POPC   C1A75327  24.823  12.414   6.147
 5967POPC   D2A75328  24.937  12.170   6.582
 5967POPC   C3A75329  24.712  12.170   7.035
 5967POPC   C4A75330  24.446  12.255   7.436
 5967POPC   C1B75331  24.811  11.881   6.162
 5967POPC   C2B75332  24.839  11.630   6.600
 5967POPC   C3B75333  24.685  11.509   7.040
 5967POPC   C4B75334  24.605  11.237   7.417
 5968POPC   NC375335  19.701  28.687   5.420
 5968POPC   PO475336  20.021  28.179   5.231
 5968POPC   GL175337  19.957  28.192   5.646
 5968POPC   GL275338  20.062  28.503   5.749
 5968POPC   C1A75339  19.931  28.078   6.081
 5968POPC   D2A75340  19.821  28.317   6.454
 5968POPC   C3A75341  19.938  28.138   6.844
 5968POPC   C4A75342  19.761  28.295   7.197
 5968POPC   C1B75343  20.200  28.519   6.167
 5968POPC   C2B75344  20.298  28.462   6.589
 5968POPC   C3B75345  20.167  28.584   6.996
 5968POPC   C4B75346  20.335  28.612   7.369
 5969POPC   NC375347  41.959  25.602   5.395
 5969POPC   PO475348  42.662  25.723   5.458
 5969POPC   GL175349  42.487  25.533   5.846
 5969POPC   GL275350  42.230  25.321   5.734
 5969POPC   C1A75351  42.399  25.220   6.204
 5969POPC   D2A75352  42.256  24.981   6.579
 5969POPC   C3A75353  42.462  25.176   6.928
 5969POPC   C4A75354  42.671  25.197   7.326
 5969POPC   C1B75355  42.000  25.537   6.069
 5969POPC   C2B75356  41.994  25.448   6.508
 5969POPC   C3B75357  42.159  25.600   6.864
 5969POPC   C4B75358  42.318  25.528   7.266
 5970POPC   NC375359  33.324  17.441   5.397
 5970POPC   PO475360  32.850  17.890   5.384
 5970POPC   GL175361  33.067  17.732   5.752
 5970POPC   GL275362  33.065  17.371   5.815
 5970POPC   C1A75363  33.172  17.690   6.192
 5970POPC   D2A75364  33.238  17.467   6.584
 5970POPC   C3A75365  33.134  17.688   6.896
 5970POPC   C4A75366  33.104  17.508   7.240
 5970POPC   C1B75367  33.146  17.151   6.171
 5970POPC   C2B75368  32.892  17.097   6.531
 5970POPC   C3B75369  33.024  17.100   6.944
 5970POPC   C4B75370  32.798  17.053   7.312
 5971POPC   NC375371  13.640  30.687   5.383
 5971POPC   PO475372  13.062  30.379   5.511
 5971POPC   GL175373  13.456  30.516   5.820
 5971POPC   GL275374  13.807  30.767   5.847
 5971POPC   C1A75375  13.472  30.766   6.216
 5971POPC   D2A75376  13.742  30.792   6.577
 5971POPC   C3A75377  13.523  30.679   6.935
 5971POPC   C4A75378  13.426  30.671   7.356
 5971POPC   C1B75379  13.880  30.402   6.145
 5971POPC   C2B75380  13.796  30.279   6.582
 5971POPC   C3B75381  13.940  30.406   6.989
 5971POPC   C4B75382  13.910  30.815   7.239
 5972POPC   NC375383  13.420  33.063   5.348
 5972POPC   PO475384  13.994  32.751   5.434
 5972POPC   GL175385  13.786  32.851   5.838
 5972POPC   GL275386  13.542  33.126   5.861
 5972POPC   C1A75387  13.795  32.761   6.293
 5972POPC   D2A75388  13.853  32.844   6.744
 5972POPC   C3A75389  13.458  32.846   6.922
 5972POPC   C4A75390  13.224  32.848   7.270
 5972POPC   C1B75391  13.600  33.295   6.297
 5972POPC   C2B75392  13.687  33.369   6.748
 5972POPC   C3B75393  13.477  33.300   7.132
 5972POPC   C4B75394  13.442  33.325   7.576
 5973POPC   NC375395  27.692  29.440   5.626
 5973POPC   PO475396  27.166  29.154   5.349
 5973POPC   GL175397  27.418  28.998   5.758
 5973POPC   GL275398  27.756  28.844   5.740
 5973POPC   C1A75399  27.472  29.128   6.211
 5973POPC   D2A75400  27.469  29.047   6.671
 5973POPC   C3A75401  27.410  29.289   7.092
 5973POPC   C4A75402  27.331  29.525   7.470
 5973POPC   C1B75403  27.792  28.737   6.210
 5973POPC   C2B75404  27.880  28.721   6.673
 5973POPC   C3B75405  27.831  28.996   7.040
 5973POPC   C4B75406  27.645  28.926   7.464
 5974POPC   NC375407  27.274  43.276   5.327
 5974POPC   PO475408  26.638  43.070   5.456
 5974POPC   GL175409  26.721  43.289   5.827
 5974POPC   GL275410  27.068  43.366   5.798
 5974POPC   C1A75411  26.523  43.117   6.228
 5974POPC   D2A75412  26.379  42.875   6.560
 5974POPC   C3A75413  26.477  43.091   6.880
 5974POPC   C4A75414  26.605  43.018   7.247
 5974POPC   C1B75415  27.009  43.295   6.237
 5974POPC   C2B75416  26.913  43.052   6.576
 5974POPC   C3B75417  26.994  43.156   6.970
 5974POPC   C4B75418  27.115  42.972   7.322
 5975POPC   NC375419  41.931  23.948   5.773
 5975POPC   PO475420  42.396  23.649   5.378
 5975POPC   GL175421  42.379  23.745   5.795
 5975POPC   GL275422  42.425  24.101   5.783
 5975POPC   C1A75423  42.314  23.644   6.247
 5975POPC   D2A75424  42.490  23.517   6.651
 5975POPC   C3A75425  42.283  23.668   7.008
 5975POPC   C4A75426  42.061  23.592   7.416
 5975POPC   C1B75427  42.571  24.110   6.201
 5975POPC   C2B75428  42.653  24.000   6.621
 5975POPC   C3B75429  42.548  24.141   7.031
 5975POPC   C4B75430  42.196  24.069   7.306
 5976POPC   NC375431  32.769  14.393   5.289
 5976POPC   PO475432  33.330  14.123   5.563
 5976POPC   GL175433  32.962  14.202   5.738
 5976POPC   GL275434  32.922  14.577   5.753
 5976POPC   C1A75435  32.865  14.300   6.174
 5976POPC   D2A75436  32.994  14.490   6.589
 5976POPC   C3A75437  32.974  14.245   6.988
 5976POPC   C4A75438  33.191  14.202   7.407
 5976POPC   C1B75439  32.777  14.794   6.156
 5976POPC   C2B75440  32.570  14.774   6.586
 5976POPC   C3B75441  32.773  14.754   7.003
 5976POPC   C4B75442  32.843  14.583   7.450
 5977POPC   NC375443   1.876  22.384   5.452
 5977POPC   PO475444   1.541  21.836   5.402
 5977POPC   GL175445   1.948  21.867   5.672
 5977POPC   GL275446   1.862  22.117   5.916
 5977POPC   C1A75447   2.268  21.874   6.073
 5977POPC   D2A75448   2.071  22.074   6.460
 5977POPC   C3A75449   2.112  22.088   6.927
 5977POPC   C4A75450   1.972  22.205   7.366
 5977POPC   C1B75451   1.698  22.351   6.257
 5977POPC   C2B75452   1.606  22.412   6.694
 5977POPC   C3B75453   1.596  22.145   7.039
 5977POPC   C4B75454   1.449  22.192   7.437
 5978POPC   NC375455  42.371  24.877   5.497
 5978POPC   PO475456  42.020  24.304   5.487
 5978POPC   GL175457  42.169  24.551   5.831
 5978POPC   GL275458  42.066  24.347   6.067
 5978POPC   C1A75459  42.445  24.627   6.225
 5978POPC   D2A75460  42.371  24.453   6.649
 5978POPC   C3A75461  42.495  24.672   7.039
 5978POPC   C4A75462  42.249  24.877   7.368
 5978POPC   C1B75463  42.096  24.074   6.411
 5978POPC   C2B75464  42.022  24.109   6.833
 5978POPC   C3B75465  42.020  24.496   7.089
 5978POPC   C4B75466  41.954  24.467   7.548
 5979POPC   NC375467  18.809   4.469   5.372
 5979POPC   PO475468  19.431   4.372   5.707
 5979POPC   GL175469  19.127   4.173   5.922
 5979POPC   GL275470  18.784   4.230   5.845
 5979POPC   C1A75471  19.105   4.310   6.343
 5979POPC   D2A75472  18.951   4.178   6.714
 5979POPC   C3A75473  19.152   4.392   7.029
 5979POPC   C4A75474  19.014   4.216   7.444
 5979POPC   C1B75475  18.916   4.667   6.004
 5979POPC   C2B75476  18.896   4.828   6.429
 5979POPC   C3B75477  18.764   4.669   6.815
 5979POPC   C4B75478  18.748   4.594   7.246
 5980POPC   NC375479  17.022  38.099   5.494
 5980POPC   PO475480  16.657  37.622   5.209
 5980POPC   GL175481  16.649  37.542   5.670
 5980POPC   GL275482  16.714  37.838   5.818
 5980POPC   C1A75483  16.361  37.525   6.051
 5980POPC   D2A75484  16.465  37.581   6.466
 5980POPC   C3A75485  16.434  37.437   6.869
 5980POPC   C4A75486  16.766  37.601   7.110
 5980POPC   C1B75487  16.699  37.964   6.203
 5980POPC   C2B75488  16.959  37.812   6.510
 5980POPC   C3B75489  17.031  37.976   6.896
 5980POPC   C4B75490  16.755  38.126   7.207
 5981POPC   NC375491  15.508  17.317   5.429
 5981POPC   PO475492  14.815  17.234   5.476
 5981POPC   GL175493  15.130  17.479   5.752
 5981POPC   GL275494  15.383  17.784   5.763
 5981POPC   C1A75495  15.175  17.483   6.190
 5981POPC   D2A75496  14.813  17.614   6.425
 5981POPC   C3A75497  14.836  17.615   6.884
 5981POPC   C4A75498  14.891  17.376   7.260
 5981POPC   C1B75499  15.400  17.932   6.234
 5981POPC   C2B75500  15.249  17.817   6.636
 5981POPC   C3B75501  15.338  17.637   7.046
 5981POPC   C4B75502  15.473  17.791   7.439
 5982POPC   NC375503  30.801  13.783   5.532
 5982POPC   PO475504  30.214  13.719   5.163
 5982POPC   GL175505  30.330  13.807   5.688
 5982POPC   GL275506  30.596  13.569   5.941
 5982POPC   C1A75507  30.461  14.000   6.109
 5982POPC   D2A75508  30.759  13.758   6.419
 5982POPC   C3A75509  30.602  13.752   6.861
 5982POPC   C4A75510  30.343  13.975   7.250
 5982POPC   C1B75511  30.551  13.294   6.289
 5982POPC   C2B75512  30.720  13.232   6.690
 5982POPC   C3B75513  30.740  13.334   7.114
 5982POPC   C4B75514  30.808  13.768   7.320
 5983POPC   NC375515  23.466  37.008   5.189
 5983POPC   PO475516  23.840  36.488   5.444
 5983POPC   GL175517  23.660  36.830   5.723
 5983POPC   GL275518  23.843  37.177   5.723
 5983POPC   C1A75519  23.631  36.998   6.166
 5983POPC   D2A75520  23.530  36.899   6.594
 5983POPC   C3A75521  23.838  36.959   6.898
 5983POPC   C4A75522  23.726  37.117   7.280
 5983POPC   C1B75523  24.064  37.297   6.136
 5983POPC   C2B75524  23.906  37.372   6.566
 5983POPC   C3B75525  23.997  37.502   7.008
 5983POPC   C4B75526  24.033  37.449   7.474
 5984POPC   NC375527  15.236   6.421   5.236
 5984POPC   PO475528  15.273   7.082   5.280
 5984POPC   GL175529  15.071   6.773   5.631
 5984POPC   GL275530  14.943   6.979   5.895
 5984POPC   C1A75531  15.043   6.512   6.066
 5984POPC   D2A75532  15.035   6.429   6.536
 5984POPC   C3A75533  14.833   6.457   6.946
 5984POPC   C4A75534  15.077   6.516   7.290
 5984POPC   C1B75535  15.068   6.934   6.355
 5984POPC   C2B75536  15.113   6.883   6.818
 5984POPC   C3B75537  15.036   7.023   7.256
 5984POPC   C4B75538  14.804   7.093   7.664
 5985POPC   NC375539  18.571   2.290   5.322
 5985POPC   PO475540  18.039   1.911   5.306
 5985POPC   GL175541  18.273   1.951   5.744
 5985POPC   GL275542  18.549   2.174   5.809
 5985POPC   C1A75543  18.407   1.833   6.184
 5985POPC   D2A75544  18.281   2.026   6.590
 5985POPC   C3A75545  18.462   1.838   6.971
 5985POPC   C4A75546  18.400   1.797   7.427
 5985POPC   C1B75547  18.498   2.348   6.188
 5985POPC   C2B75548  18.681   2.423   6.571
 5985POPC   C3B75549  18.465   2.358   6.946
 5985POPC   C4B75550  18.586   2.237   7.308
 5986POPC   NC375551  39.670  39.113   5.404
 5986POPC   PO475552  40.238  39.395   5.222
 5986POPC   GL175553  40.062  39.376   5.645
 5986POPC   GL275554  40.233  39.078   5.736
 5986POPC   C1A75555  39.904  39.272   6.084
 5986POPC   D2A75556  40.147  39.290   6.480
 5986POPC   C3A75557  39.947  39.349   6.872
 5986POPC   C4A75558  39.681  39.132   7.129
 5986POPC   C1B75559  40.304  38.879   6.119
 5986POPC   C2B75560  40.535  38.911   6.479
 5986POPC   C3B75561  40.334  38.966   6.878
 5986POPC   C4B75562  40.486  39.003   7.281
 5987POPC   NC375563  35.615  26.019   5.526
 5987POPC   PO475564  36.248  25.640   5.445
 5987POPC   GL175565  36.079  25.938   5.747
 5987POPC   GL275566  36.341  26.162   5.867
 5987POPC   C1A75567  35.928  26.021   6.156
 5987POPC   D2A75568  36.132  25.920   6.538
 5987POPC   C3A75569  36.075  26.205   6.843
 5987POPC   C4A75570  36.054  26.014   7.224
 5987POPC   C1B75571  36.397  26.287   6.294
 5987POPC   C2B75572  36.596  26.263   6.714
 5987POPC   C3B75573  36.472  26.343   7.161
 5987POPC   C4B75574  36.632  26.566   7.518
 5988POPC   NC375575  27.997  17.283   5.544
 5988POPC   PO475576  27.323  17.602   5.394
 5988POPC   GL175577  27.446  17.772   5.817
 5988POPC   GL275578  27.639  17.470   5.857
 5988POPC   C1A75579  27.609  17.783   6.271
 5988POPC   D2A75580  27.457  17.586   6.687
 5988POPC   C3A75581  27.728  17.570   7.087
 5988POPC   C4A75582  27.735  17.711   7.548
 5988POPC   C1B75583  27.480  17.241   6.217
 5988POPC   C2B75584  27.636  17.087   6.620
 5988POPC   C3B75585  27.819  17.054   7.053
 5988POPC   C4B75586  27.613  17.195   7.436
 5989POPC   NC375587  34.330  32.436   5.082
 5989POPC   PO475588  34.698  31.944   5.373
 5989POPC   GL175589  34.686  32.140   5.756
 5989POPC   GL275590  34.999  32.236   5.888
 5989POPC   C1A75591  34.503  32.077   6.142
 5989POPC   D2A75592  34.428  32.207   6.544
 5989POPC   C3A75593  34.501  31.868   6.800
 5989POPC   C4A75594  34.644  32.024   7.166
 5989POPC   C1B75595  34.918  32.320   6.328
 5989POPC   C2B75596  34.897  32.266   6.777
 5989POPC   C3B75597  35.108  32.220   7.182
 5989POPC   C4B75598  35.170  32.252   7.648
 5990POPC   NC375599  11.365  33.618   5.604
 5990POPC   PO475600  10.960  34.076   5.487
 5990POPC   GL175601  11.254  34.054   5.859
 5990POPC   GL275602  11.630  34.005   5.862
 5990POPC   C1A75603  11.341  33.750   6.214
 5990POPC   D2A75604  11.344  33.805   6.623
 5990POPC   C3A75605  11.021  33.613   6.872
 5990POPC   C4A75606  10.935  33.588   7.311
 5990POPC   C1B75607  11.612  34.175   6.300
 5990POPC   C2B75608  11.810  34.068   6.704
 5990POPC   C3B75609  11.860  34.004   7.153
 5990POPC   C4B75610  11.654  33.991   7.580
 5991POPC   NC375611   0.282  29.737   5.389
 5991POPC   PO475612   0.142  30.343   5.458
 5991POPC   GL175613   0.345  30.113   5.825
 5991POPC   GL275614   0.608  29.859   5.797
 5991POPC   C1A75615   0.546  30.057   6.277
 5991POPC   D2A75616   0.771  30.126   6.688
 5991POPC   C3A75617   0.491  30.110   7.049
 5991POPC   C4A75618   0.323  30.374   7.389
 5991POPC   C1B75619   0.308  29.659   6.086
 5991POPC   C2B75620   0.190  29.713   6.549
 5991POPC   C3B75621   0.342  29.601   6.998
 5991POPC   C4B75622   0.506  29.726   7.413
 5992POPC   NC375623  35.141  13.186   5.529
 5992POPC   PO475624  35.438  13.809   5.472
 5992POPC   GL175625  35.402  13.564   5.818
 5992POPC   GL275626  35.121  13.759   5.936
 5992POPC   C1A75627  35.593  13.384   6.208
 5992POPC   D2A75628  35.648  13.488   6.671
 5992POPC   C3A75629  35.272  13.665   6.883
 5992POPC   C4A75630  35.060  13.511   7.256
 5992POPC   C1B75631  35.477  13.915   6.208
 5992POPC   C2B75632  35.695  13.991   6.630
 5992POPC   C3B75633  35.663  13.950   7.065
 5992POPC   C4B75634  35.255  14.002   7.285
 5993POPC   NC375635   4.077  21.743   5.180
 5993POPC   PO475636   4.381  22.206   5.576
 5993POPC   GL175637   4.077  22.248   5.876
 5993POPC   GL275638   3.943  22.567   5.782
 5993POPC   C1A75639   4.073  22.020   6.278
 5993POPC   D2A75640   4.438  21.897   6.515
 5993POPC   C3A75641   4.380  21.989   6.926
 5993POPC   C4A75642   4.648  22.025   7.265
 5993POPC   C1B75643   4.112  22.585   6.232
 5993POPC   C2B75644   4.159  22.378   6.633
 5993POPC   C3B75645   4.139  22.493   7.039
 5993POPC   C4B75646   4.500  22.521   7.330
 5994POPC   NC375647  14.809  27.206   5.316
 5994POPC   PO475648  14.346  27.758   5.264
 5994POPC   GL175649  14.437  27.608   5.716
 5994POPC   GL275650  14.616  27.288   5.796
 5994POPC   C1A75651  14.406  27.569   6.189
 5994POPC   D2A75652  14.244  27.699   6.597
 5994POPC   C3A75653  14.420  27.513   6.976
 5994POPC   C4A75654  14.446  27.595   7.419
 5994POPC   C1B75655  14.796  27.218   6.206
 5994POPC   C2B75656  14.788  27.363   6.639
 5994POPC   C3B75657  14.869  27.237   7.072
 5994POPC   C4B75658  14.675  27.148   7.486
 5995POPC   NC375659  36.356  10.994   5.610
 5995POPC   PO475660  35.871  10.532   5.414
 5995POPC   GL175661  36.117  10.570   5.760
 5995POPC   GL275662  35.901  10.843   5.873
 5995POPC   C1A75663  36.362  10.544   6.148
 5995POPC   D2A75664  36.399  10.743   6.530
 5995POPC   C3A75665  36.310  10.550   6.917
 5995POPC   C4A75666  36.398  10.733   7.294
 5995POPC   C1B75667  35.841  10.493   6.186
 5995POPC   C2B75668  35.893  10.610   6.616
 5995POPC   C3B75669  35.813  10.665   7.056
 5995POPC   C4B75670  36.024  10.379   7.339
 5996POPC   NC375671  17.450   6.729   5.212
 5996POPC   PO475672  17.853   6.441   5.629
 5996POPC   GL175673  17.580   6.713   5.893
 5996POPC   GL275674  17.213   6.769   5.854
 5996POPC   C1A75675  17.515   6.804   6.329
 5996POPC   D2A75676  17.338   6.983   6.722
 5996POPC   C3A75677  17.457   6.708   7.019
 5996POPC   C4A75678  17.629   6.756   7.378
 5996POPC   C1B75679  17.046   6.590   6.233
 5996POPC   C2B75680  17.229   6.463   6.629
 5996POPC   C3B75681  17.163   6.267   7.032
 5996POPC   C4B75682  17.211   6.461   7.461
 5997POPC   NC375683   4.314   7.455   5.317
 5997POPC   PO475684   4.942   7.284   5.473
 5997POPC   GL175685   4.536   7.246   5.747
 5997POPC   GL275686   4.293   7.559   5.818
 5997POPC   C1A75687   4.456   7.264   6.206
 5997POPC   D2A75688   4.412   7.560   6.560
 5997POPC   C3A75689   4.319   7.331   6.897
 5997POPC   C4A75690   4.602   7.164   7.131
 5997POPC   C1B75691   3.972   7.491   6.196
 5997POPC   C2B75692   3.894   7.561   6.662
 5997POPC   C3B75693   4.099   7.751   7.047
 5997POPC   C4B75694   4.290   7.478   7.390
 5998POPC   NC375695   1.177   8.770   5.313
 5998POPC   PO475696   0.854   9.341   5.462
 5998POPC   GL175697   1.203   9.118   5.748
 5998POPC   GL275698   1.102   8.798   5.815
 5998POPC   C1A75699   1.365   9.046   6.214
 5998POPC   D2A75700   1.326   9.231   6.675
 5998POPC   C3A75701   1.384   8.984   7.068
 5998POPC   C4A75702   1.322   9.005   7.524
 5998POPC   C1B75703   0.911   8.790   6.197
 5998POPC   C2B75704   1.081   8.789   6.597
 5998POPC   C3B75705   0.905   8.834   6.998
 5998POPC   C4B75706   0.960   8.673   7.374
 5999POPC   NC375707  44.111  35.740   5.638
 5999POPC   PO475708  43.803  36.208   5.213
 5999POPC   GL175709  43.808  36.153   5.633
 5999POPC   GL275710  44.145  36.271   5.662
 5999POPC   C1A75711  43.610  36.159   6.043
 5999POPC   D2A75712  43.624  36.480   6.397
 5999POPC   C3A75713  43.473  36.306   6.797
 5999POPC   C4A75714  43.678  36.089   7.157
 5999POPC   C1B75715  44.112  36.309   6.105
 5999POPC   C2B75716  44.224  36.454   6.516
 5999POPC   C3B75717  44.043  36.412   6.921
 5999POPC   C4B75718  44.206  36.208   7.247
 6000POPC   NC375719  11.820  11.476   5.448
 6000POPC   PO475720  12.413  11.212   5.567
 6000POPC   GL175721  12.272  11.500   5.883
 6000POPC   GL275722  11.924  11.462   5.941
 6000POPC   C1A75723  12.269  11.489   6.321
 6000POPC   D2A75724  12.346  11.163   6.604
 6000POPC   C3A75725  12.159  11.119   7.000
 6000POPC   C4A75726  12.340  11.082   7.385
 6000POPC   C1B75727  11.711  11.426   6.317
 6000POPC   C2B75728  11.915  11.498   6.697
 6000POPC   C3B75729  12.123  11.627   7.060
 6000POPC   C4B75730  11.964  11.430   7.367
 6001POPC   NC375731   4.443   3.122   5.583
 6001POPC   PO475732   4.295   2.595   5.162
 6001POPC   GL175733   4.208   2.617   5.651
 6001POPC   GL275734   4.014   2.900   5.773
 6001POPC   C1A75735   4.364   2.716   6.111
 6001POPC   D2A75736   4.301   2.732   6.562
 6001POPC   C3A75737   4.498   2.829   6.944
 6001POPC   C4A75738   4.222   2.541   7.136
 6001POPC   C1B75739   3.980   3.003   6.241
 6001POPC   C2B75740   3.870   3.165   6.634
 6001POPC   C3B75741   4.007   2.987   6.984
 6001POPC   C4B75742   3.945   2.958   7.400
 6002POPC   NC375743  32.452  40.810   5.422
 6002POPC   PO475744  31.851  41.161   5.477
 6002POPC   GL175745  32.053  40.927   5.823
 6002POPC   GL275746  32.250  40.597   5.842
 6002POPC   C1A75747  32.269  40.943   6.238
 6002POPC   D2A75748  32.219  41.149   6.648
 6002POPC   C3A75749  32.337  40.931   7.032
 6002POPC   C4A75750  32.557  41.171   7.354
 6002POPC   C1B75751  32.416  40.408   6.216
 6002POPC   C2B75752  32.408  40.587   6.629
 6002POPC   C3B75753  32.523  40.449   7.035
 6002POPC   C4B75754  32.368  40.483   7.436
 6003POPC   NC375755  39.508  24.313   5.584
 6003POPC   PO475756  40.121  24.368   5.312
 6003POPC   GL175757  40.192  24.552   5.704
 6003POPC   GL275758  40.405  24.302   5.813
 6003POPC   C1A75759  39.998  24.505   6.119
 6003POPC   D2A75760  39.743  24.430   6.480
 6003POPC   C3A75761  39.917  24.550   6.852
 6003POPC   C4A75762  39.783  24.524   7.235
 6003POPC   C1B75763  40.345  24.124   6.195
 6003POPC   C2B75764  40.234  24.248   6.591
 6003POPC   C3B75765  40.435  24.410   6.962
 6003POPC   C4B75766  40.383  24.259   7.381
 6004POPC   NC375767  21.836  27.337   5.533
 6004POPC   PO475768  21.280  27.666   5.350
 6004POPC   GL175769  21.335  27.401   5.707
 6004POPC   GL275770  20.990  27.335   5.836
 6004POPC   C1A75771  21.576  27.383   6.115
 6004POPC   D2A75772  21.819  27.327   6.492
 6004POPC   C3A75773  21.640  27.356   6.919
 6004POPC   C4A75774  21.589  27.594   7.307
 6004POPC   C1B75775  21.132  27.621   6.140
 6004POPC   C2B75776  21.322  27.566   6.536
 6004POPC   C3B75777  21.178  27.599   6.940
 6004POPC   C4B75778  21.088  27.459   7.338
 6005POPC   NC375779  29.517  10.724   5.472
 6005POPC   PO475780  30.114  10.459   5.490
 6005POPC   GL175781  29.879  10.570   5.852
 6005POPC   GL275782  29.808  10.893   5.873
 6005POPC   C1A75783  30.026  10.618   6.279
 6005POPC   D2A75784  30.020  10.332   6.641
 6005POPC   C3A75785  29.969  10.474   7.073
 6005POPC   C4A75786  29.753  10.263   7.414
 6005POPC   C1B75787  29.584  10.879   6.264
 6005POPC   C2B75788  29.539  10.840   6.720
 6005POPC   C3B75789  29.757  10.962   7.104
 6005POPC   C4B75790  29.821  10.749   7.514
 6006POPC   NC375791  25.579  20.024   5.390
 6006POPC   PO475792  24.928  19.737   5.467
 6006POPC   GL175793  25.224  19.837   5.757
 6006POPC   GL275794  25.202  19.550   6.006
 6006POPC   C1A75795  25.468  19.969   6.111
 6006POPC   D2A75796  25.352  20.016   6.540
 6006POPC   C3A75797  25.486  19.777   6.877
 6006POPC   C4A75798  25.377  19.985   7.258
 6006POPC   C1B75799  24.956  19.926   6.197
 6006POPC   C2B75800  24.865  20.192   6.543
 6006POPC   C3B75801  24.988  20.018   6.910
 6006POPC   C4B75802  24.876  19.912   7.291
 6007POPC   NC375803  10.335   3.115   5.375
 6007POPC   PO475804  10.225   3.806   5.303
 6007POPC   GL175805  10.509   3.520   5.606
 6007POPC   GL275806  10.516   3.666   5.894
 6007POPC   C1A75807  10.430   3.215   6.035
 6007POPC   D2A75808  10.498   3.480   6.414
 6007POPC   C3A75809  10.515   3.379   6.900
 6007POPC   C4A75810  10.414   3.110   7.302
 6007POPC   C1B75811  10.824   3.853   6.150
 6007POPC   C2B75812  10.780   3.942   6.541
 6007POPC   C3B75813  10.852   3.760   6.933
 6007POPC   C4B75814  10.824   3.868   7.369
 6008POPC   NC375815  16.462   6.982   5.350
 6008POPC   PO475816  17.090   6.999   5.305
 6008POPC   GL175817  16.790   7.009   5.717
 6008POPC   GL275818  16.621   6.678   5.763
 6008POPC   C1A75819  16.602   7.034   6.132
 6008POPC   D2A75820  16.498   6.952   6.562
 6008POPC   C3A75821  16.847   6.801   6.737
 6008POPC   C4A75822  16.952   6.758   7.146
 6008POPC   C1B75823  16.605   6.332   6.096
 6008POPC   C2B75824  16.780   6.247   6.519
 6008POPC   C3B75825  16.675   6.361   6.932
 6008POPC   C4B75826  16.430   6.340   7.300
 6009POPC   NC375827  10.210  35.098   5.583
 6009POPC   PO475828  10.558  35.711   5.338
 6009POPC   GL175829  10.730  35.412   5.715
 6009POPC   GL275830  10.448  35.348   5.942
 6009POPC   C1A75831  10.882  35.230   6.141
 6009POPC   D2A75832  10.552  35.335   6.481
 6009POPC   C3A75833  10.650  35.191   6.877
 6009POPC   C4A75834  10.778  35.027   7.258
 6009POPC   C1B75835  10.191  35.613   6.182
 6009POPC   C2B75836  10.128  35.790   6.589
 6009POPC   C3B75837  10.305  35.560   6.902
 6009POPC   C4B75838  10.400  35.390   7.304
 6010POPC   NC375839   5.557  36.072   5.550
 6010POPC   PO475840   4.900  36.411   5.489
 6010POPC   GL175841   4.874  36.120   5.849
 6010POPC   GL275842   5.210  36.020   5.897
 6010POPC   C1A75843   4.908  36.109   6.296
 6010POPC   D2A75844   5.089  36.390   6.572
 6010POPC   C3A75845   4.901  36.274   6.934
 6010POPC   C4A75846   5.020  35.985   7.228
 6010POPC   C1B75847   5.405  35.893   6.263
 6010POPC   C2B75848   5.266  35.902   6.668
 6010POPC   C3B75849   5.471  35.755   7.025
 6010POPC   C4B75850   5.435  35.772   7.423
 6011POPC   NC375851   4.988   2.288   5.665
 6011POPC   PO475852   4.614   1.778   5.455
 6011POPC   GL175853   4.900   1.747   5.785
 6011POPC   GL275854   5.242   1.874   5.801
 6011POPC   C1A75855   4.913   1.918   6.204
 6011POPC   D2A75856   5.112   2.129   6.528
 6011POPC   C3A75857   4.968   1.959   6.912
 6011POPC   C4A75858   5.078   2.065   7.307
 6011POPC   C1B75859   5.374   1.714   6.232
 6011POPC   C2B75860   5.242   1.594   6.675
 6011POPC   C3B75861   5.449   1.810   7.043
 6011POPC   C4B75862   5.563   2.132   7.356
 6012POPC   NC375863   4.746  12.211   5.301
 6012POPC   PO475864   5.189  11.864   5.633
 6012POPC   GL175865   5.116  12.220   5.860
 6012POPC   GL275866   4.811  12.397   5.804
 6012POPC   C1A75867   5.040  12.176   6.294
 6012POPC   D2A75868   5.269  12.175   6.655
 6012POPC   C3A75869   5.054  12.338   6.987
 6012POPC   C4A75870   4.800  12.006   7.158
 6012POPC   C1B75871   4.782  12.608   6.223
 6012POPC   C2B75872   4.646  12.455   6.636
 6012POPC   C3B75873   4.582  12.493   7.093
 6012POPC   C4B75874   4.794  12.394   7.484
 6013POPC   NC375875  28.063  44.019   5.401
 6013POPC   PO475876  28.766  44.190   5.355
 6013POPC   GL175877  28.428  44.179   5.705
 6013POPC   GL275878  28.361  43.804   5.776
 6013POPC   C1A75879  28.244  44.160   6.125
 6013POPC   D2A75880  28.520  44.099   6.462
 6013POPC   C3A75881  28.426  44.154   6.883
 6013POPC   C4A75882  28.637  44.061   7.265
 6013POPC   C1B75883  28.305  43.654   6.223
 6013POPC   C2B75884  28.202  43.736   6.660
 6013POPC   C3B75885  28.447  43.630   7.010
 6013POPC   C4B75886  28.457  43.595   7.431
 6014POPC   NC375887  24.579   7.813   4.957
 6014POPC   PO475888  24.725   8.465   5.287
 6014POPC   GL175889  24.513   8.236   5.696
 6014POPC   GL275890  24.266   8.393   5.874
 6014POPC   C1A75891  24.395   7.947   6.108
 6014POPC   D2A75892  24.705   7.859   6.449
 6014POPC   C3A75893  24.732   8.104   6.827
 6014POPC   C4A75894  24.744   8.100   7.242
 6014POPC   C1B75895  24.519   8.398   6.266
 6014POPC   C2B75896  24.298   8.157   6.579
 6014POPC   C3B75897  24.232   8.142   7.008
 6014POPC   C4B75898  24.337   8.414   7.343
 6015POPC   NC375899  10.486  13.407   5.144
 6015POPC   PO475900  10.801  13.886   5.501
 6015POPC   GL175901  10.524  13.739   5.846
 6015POPC   GL275902  10.398  13.408   5.890
 6015POPC   C1A75903  10.324  13.765   6.255
 6015POPC   D2A75904  10.263  13.987   6.658
 6015POPC   C3A75905  10.189  13.735   7.022
 6015POPC   C4A75906  10.533  13.544   7.243
 6015POPC   C1B75907  10.300  13.248   6.319
 6015POPC   C2B75908  10.454  13.357   6.748
 6015POPC   C3B75909  10.886  13.384   6.910
 6015POPC   C4B75910  11.092  13.167   7.226
 6016POPC   NC375911  11.007  31.088   5.496
 6016POPC   PO475912  11.441  31.551   5.290
 6016POPC   GL175913  11.401  31.438   5.769
 6016POPC   GL275914  11.062  31.545   5.845
 6016POPC   C1A75915  11.648  31.465   6.209
 6016POPC   D2A75916  11.684  31.807   6.575
 6016POPC   C3A75917  11.517  31.726   6.992
 6016POPC   C4A75918  11.370  31.383   7.213
 6016POPC   C1B75919  11.160  31.298   6.234
 6016POPC   C2B75920  11.211  31.314   6.692
 6016POPC   C3B75921  10.908  31.298   7.031
 6016POPC   C4B75922  10.925  31.370   7.520
 6017POPC   NC375923  37.391   2.843   5.359
 6017POPC   PO475924  36.889   3.020   5.731
 6017POPC   GL175925  36.857   2.759   6.013
 6017POPC   GL275926  36.818   2.475   5.804
 6017POPC   C1A75927  37.106   2.867   6.357
 6017POPC   D2A75928  36.871   2.932   6.690
 6017POPC   C3A75929  37.039   3.053   7.014
 6017POPC   C4A75930  36.950   2.818   7.324
 6017POPC   C1B75931  36.695   2.305   6.215
 6017POPC   C2B75932  36.509   2.386   6.625
 6017POPC   C3B75933  36.645   2.562   6.993
 6017POPC   C4B75934  36.758   2.349   7.359
 6018POPC   NC375935   4.057  23.589   5.180
 6018POPC   PO475936   3.361  23.690   5.391
 6018POPC   GL175937   3.498  23.855   5.798
 6018POPC   GL275938   3.362  23.552   5.924
 6018POPC   C1A75939   3.577  23.839   6.267
 6018POPC   D2A75940   3.557  23.617   6.659
 6018POPC   C3A75941   3.620  23.816   7.040
 6018POPC   C4A75942   3.276  23.957   7.257
 6018POPC   C1B75943   3.144  23.490   6.302
 6018POPC   C2B75944   3.138  23.304   6.697
 6018POPC   C3B75945   3.218  23.464   7.095
 6018POPC   C4B75946   3.028  23.295   7.462
 6019POPC   NC375947  32.447  42.606   5.411
 6019POPC   PO475948  32.072  42.061   5.605
 6019POPC   GL175949  32.268  42.435   5.886
 6019POPC   GL275950  32.639  42.640   5.873
 6019POPC   C1A75951  32.127  42.388   6.329
 6019POPC   D2A75952  32.131  42.218   6.755
 6019POPC   C3A75953  32.028  42.480   7.112
 6019POPC   C4A75954  31.956  42.205   7.423
 6019POPC   C1B75955  32.650  42.421   6.242
 6019POPC   C2B75956  32.534  42.525   6.626
 6019POPC   C3B75957  32.565  42.334   7.016
 6019POPC   C4B75958  32.465  42.432   7.405
 6020POPC   NC375959  27.503  14.298   5.411
 6020POPC   PO475960  28.063  14.618   5.403
 6020POPC   GL175961  27.748  14.551   5.779
 6020POPC   GL275962  27.655  14.182   5.880
 6020POPC   C1A75963  27.476  14.583   6.167
 6020POPC   D2A75964  27.343  14.352   6.558
 6020POPC   C3A75965  27.328  14.541   6.975
 6020POPC   C4A75966  27.617  14.610   7.296
 6020POPC   C1B75967  27.903  14.207   6.237
 6020POPC   C2B75968  28.082  14.232   6.632
 6020POPC   C3B75969  27.793  14.255   6.968
 6020POPC   C4B75970  27.827  14.139   7.405
 6021POPC   NC375971  16.028   6.160   5.586
 6021POPC   PO475972  15.977   5.554   5.251
 6021POPC   GL175973  16.030   5.640   5.735
 6021POPC   GL275974  15.700   5.575   5.822
 6021POPC   C1A75975  16.124   5.876   6.161
 6021POPC   D2A75976  15.952   5.971   6.575
 6021POPC   C3A75977  16.110   6.109   6.974
 6021POPC   C4A75978  15.793   6.081   7.271
 6021POPC   C1B75979  15.654   5.623   6.275
 6021POPC   C2B75980  15.884   5.475   6.649
 6021POPC   C3B75981  15.961   5.605   7.097
 6021POPC   C4B75982  15.821   5.660   7.570
 6022POPC   NC375983  20.065  37.098   5.571
 6022POPC   PO475984  19.988  36.460   5.463
 6022POPC   GL175985  19.840  36.709   5.856
 6022POPC   GL275986  19.634  37.036   5.886
 6022POPC   C1A75987  19.813  36.677   6.312
 6022POPC   D2A75988  19.573  36.914   6.629
 6022POPC   C3A75989  19.747  36.868   7.019
 6022POPC   C4A75990  20.151  36.784   7.113
 6022POPC   C1B75991  19.872  37.203   6.262
 6022POPC   C2B75992  19.855  37.412   6.676
 6022POPC   C3B75993  19.926  37.335   7.127
 6022POPC   C4B75994  19.749  37.353   7.542
 6023POPC   NC375995  44.235   1.983   5.374
 6023POPC   PO475996  43.600   2.198   5.358
 6023POPC   GL175997  43.878   2.064   5.769
 6023POPC   GL275998  44.147   1.769   5.816
 6023POPC   C1A75999  43.968   2.194   6.239
 6023POPC   D2A76000  43.722   2.162   6.645
 6023POPC   C3A76001  43.877   1.972   7.032
 6023POPC   C4A76002  44.188   2.072   7.346
 6023POPC   C1B76003  44.362   1.833   6.219
 6023POPC   C2B76004  44.223   1.918   6.628
 6023POPC   C3B76005  44.339   1.723   7.002
 6023POPC   C4B76006  44.145   1.552   7.361
 6024POPC   NC376007   8.780  15.488   5.616
 6024POPC   PO476008   8.135  15.197   5.613
 6024POPC   GL176009   8.326  15.288   5.956
 6024POPC   GL276010   8.324  15.618   5.878
 6024POPC   C1A76011   8.277  15.078   6.337
 6024POPC   D2A76012   8.038  15.150   6.663
 6024POPC   C3A76013   8.276  15.224   6.997
 6024POPC   C4A76014   7.992  15.251   7.286
 6024POPC   C1B76015   8.556  15.759   6.218
 6024POPC   C2B76016   8.558  15.602   6.612
 6024POPC   C3B76017   8.458  15.748   6.993
 6024POPC   C4B76018   8.369  15.578   7.351
 6025POPC   NC376019  40.723  37.907   5.455
 6025POPC   PO476020  40.801  38.570   5.287
 6025POPC   GL176021  40.811  38.377   5.696
 6025POPC   GL276022  41.096  38.119   5.719
 6025POPC   C1A76023  40.725  38.562   6.106
 6025POPC   D2A76024  40.726  38.373   6.503
 6025POPC   C3A76025  40.739  38.636   6.862
 6025POPC   C4A76026  40.783  38.483   7.245
 6025POPC   C1B76027  41.117  38.242   6.136
 6025POPC   C2B76028  41.178  38.125   6.539
 6025POPC   C3B76029  41.151  38.326   6.908
 6025POPC   C4B76030  41.231  38.152   7.251
 6026POPC   NC376031   5.238   2.929   5.313
 6026POPC   PO476032   4.697   2.630   5.584
 6026POPC   GL176033   5.072   2.770   5.817
 6026POPC   GL276034   5.259   3.090   5.802
 6026POPC   C1A76035   5.212   2.641   6.237
 6026POPC   D2A76036   5.382   2.726   6.674
 6026POPC   C3A76037   5.145   2.439   6.965
 6026POPC   C4A76038   4.753   2.464   7.247
 6026POPC   C1B76039   5.420   3.123   6.234
 6026POPC   C2B76040   5.474   3.351   6.654
 6026POPC   C3B76041   5.333   3.195   7.053
 6026POPC   C4B76042   5.070   2.865   7.221
 6027POPC   NC376043  10.500  36.181   5.353
 6027POPC   PO476044  10.682  36.556   5.804
 6027POPC   GL176045  10.430  36.215   5.895
 6027POPC   GL276046  10.507  35.876   5.819
 6027POPC   C1A76047  10.406  36.115   6.304
 6027POPC   D2A76048  10.311  36.298   6.664
 6027POPC   C3A76049  10.508  36.171   7.009
 6027POPC   C4A76050  10.235  36.368   7.290
 6027POPC   C1B76051  10.707  35.725   6.188
 6027POPC   C2B76052  10.673  35.824   6.641
 6027POPC   C3B76053  10.808  35.665   7.056
 6027POPC   C4B76054  10.827  35.738   7.503
 6028POPC   NC376055   9.282  42.891   5.689
 6028POPC   PO476056   9.871  42.998   5.330
 6028POPC   GL176057   9.756  43.171   5.763
 6028POPC   GL276058   9.558  43.487   5.813
 6028POPC   C1A76059   9.865  43.262   6.208
 6028POPC   D2A76060   9.768  43.041   6.607
 6028POPC   C3A76061   9.928  43.207   7.004
 6028POPC   C4A76062  10.098  42.970   7.331
 6028POPC   C1B76063   9.351  43.324   6.204
 6028POPC   C2B76064   9.238  43.200   6.622
 6028POPC   C3B76065   9.422  43.276   7.007
 6028POPC   C4B76066   9.581  43.123   7.371
 6029POPC   NC376067  14.089   5.962   5.306
 6029POPC   PO476068  13.535   5.660   5.444
 6029POPC   GL176069  13.761   5.716   5.831
 6029POPC   GL276070  13.855   6.067   5.813
 6029POPC   C1A76071  13.641   5.864   6.258
 6029POPC   D2A76072  13.669   6.049   6.645
 6029POPC   C3A76073  13.463   5.820   6.966
 6029POPC   C4A76074  13.664   5.841   7.356
 6029POPC   C1B76075  13.441   6.244   6.013
 6029POPC   C2B76076  13.236   6.240   6.451
 6029POPC   C3B76077  13.342   6.333   6.898
 6029POPC   C4B76078  13.273   6.163   7.285
 6030POPC   NC376079  43.070  31.380   5.364
 6030POPC   PO476080  43.531  30.965   5.434
 6030POPC   GL176081  43.204  31.065   5.777
 6030POPC   GL276082  42.979  31.399   5.895
 6030POPC   C1A76083  43.265  31.171   6.235
 6030POPC   D2A76084  43.418  31.238   6.642
 6030POPC   C3A76085  43.289  31.071   7.024
 6030POPC   C4A76086  43.089  31.260   7.349
 6030POPC   C1B76087  43.034  31.664   6.343
 6030POPC   C2B76088  42.767  31.801   6.727
 6030POPC   C3B76089  42.824  31.656   7.194
 6030POPC   C4B76090  43.172  31.831   7.454
 6031POPC   NC376091  41.227   7.049   5.745
 6031POPC   PO476092  41.226   6.431   5.657
 6031POPC   GL176093  41.508   6.448   5.941
 6031POPC   GL276094  41.701   6.712   5.774
 6031POPC   C1A76095  41.440   6.399   6.348
 6031POPC   D2A76096  41.348   6.761   6.579
 6031POPC   C3A76097  41.551   6.610   6.893
 6031POPC   C4A76098  41.405   6.450   7.258
 6031POPC   C1B76099  41.742   6.818   6.217
 6031POPC   C2B76100  41.939   7.018   6.588
 6031POPC   C3B76101  41.971   6.843   7.025
 6031POPC   C4B76102  41.933   6.404   7.228
 6032POPC   NC376103  25.861  43.434   5.511
 6032POPC   PO476104  26.165  42.883   5.413
 6032POPC   GL176105  26.294  42.921   5.801
 6032POPC   GL276106  26.222  43.268   5.820
 6032POPC   C1A76107  26.068  42.810   6.150
 6032POPC   D2A76108  25.798  42.986   6.462
 6032POPC   C3A76109  25.963  43.073   6.841
 6032POPC   C4A76110  26.106  42.960   7.233
 6032POPC   C1B76111  26.080  43.366   6.230
 6032POPC   C2B76112  26.219  43.500   6.646
 6032POPC   C3B76113  26.040  43.572   7.053
 6032POPC   C4B76114  25.748  43.324   7.235
 6033POPC   NC376115   8.795  34.245   5.559
 6033POPC   PO476116   9.061  34.838   5.470
 6033POPC   GL176117   8.887  34.681   5.820
 6033POPC   GL276118   9.137  34.432   5.901
 6033POPC   C1A76119   8.674  34.585   6.200
 6033POPC   D2A76120   8.724  34.690   6.648
 6033POPC   C3A76121   8.802  34.335   6.906
 6033POPC   C4A76122   8.769  34.303   7.325
 6033POPC   C1B76123   9.179  34.665   6.276
 6033POPC   C2B76124   9.226  34.617   6.722
 6033POPC   C3B76125   9.046  34.761   7.114
 6033POPC   C4B76126   8.941  34.716   7.551
 6034POPC   NC376127  23.906  40.055   5.529
 6034POPC   PO476128  23.319  39.804   5.531
 6034POPC   GL176129  23.549  39.844   5.859
 6034POPC   GL276130  23.553  40.200   5.889
 6034POPC   C1A76131  23.529  39.696   6.250
 6034POPC   D2A76132  23.511  39.867   6.627
 6034POPC   C3A76133  23.468  39.664   6.952
 6034POPC   C4A76134  23.410  39.892   7.268
 6034POPC   C1B76135  23.633  40.248   6.317
 6034POPC   C2B76136  23.948  40.129   6.617
 6034POPC   C3B76137  23.852  40.029   7.016
 6034POPC   C4B76138  23.720  40.326   7.326
 6035POPC   NC376139  37.055  36.366   5.511
 6035POPC   PO476140  36.713  35.795   5.356
 6035POPC   GL176141  36.754  36.007   5.771
 6035POPC   GL276142  36.540  36.287   5.779
 6035POPC   C1A76143  37.064  36.044   6.134
 6035POPC   D2A76144  37.173  36.281   6.528
 6035POPC   C3A76145  37.088  36.068   6.930
 6035POPC   C4A76146  37.015  36.271   7.328
 6035POPC   C1B76147  36.696  36.383   6.214
 6035POPC   C2B76148  36.699  36.092   6.588
 6035POPC   C3B76149  36.569  36.124   7.039
 6035POPC   C4B76150  36.509  36.344   7.443
 6036POPC   NC376151  21.148  18.565   5.120
 6036POPC   PO476152  20.552  18.533   5.428
 6036POPC   GL176153  20.610  18.430   5.823
 6036POPC   GL276154  20.627  18.099   5.699
 6036POPC   C1A76155  20.694  18.418   6.243
 6036POPC   D2A76156  20.406  18.454   6.547
 6036POPC   C3A76157  20.608  18.557   6.857
 6036POPC   C4A76158  20.615  18.494   7.225
 6036POPC   C1B76159  20.440  17.987   6.066
 6036POPC   C2B76160  20.439  17.961   6.514
 6036POPC   C3B76161  20.402  18.062   6.941
 6036POPC   C4B76162  20.305  18.096   7.372
 6037POPC   NC376163   8.830  20.838   5.497
 6037POPC   PO476164   9.352  20.357   5.586
 6037POPC   GL176165   8.951  20.492   5.852
 6037POPC   GL276166   8.725  20.222   5.975
 6037POPC   C1A76167   8.770  20.622   6.283
 6037POPC   D2A76168   8.778  20.829   6.685
 6037POPC   C3A76169   9.099  20.849   6.979
 6037POPC   C4A76170   8.928  20.866   7.352
 6037POPC   C1B76171   9.104  20.249   6.267
 6037POPC   C2B76172   9.115  20.419   6.690
 6037POPC   C3B76173   8.988  20.347   7.122
 6037POPC   C4B76174   9.213  20.031   7.412
 6038POPC   NC376175  21.235  14.654   5.428
 6038POPC   PO476176  21.518  15.318   5.530
 6038POPC   GL176177  21.258  15.225   5.890
 6038POPC   GL276178  21.166  14.895   5.874
 6038POPC   C1A76179  21.282  15.284   6.339
 6038POPC   D2A76180  21.602  15.278   6.710
 6038POPC   C3A76181  21.432  15.387   7.133
 6038POPC   C4A76182  21.131  15.442   7.493
 6038POPC   C1B76183  21.387  14.776   6.240
 6038POPC   C2B76184  21.244  14.887   6.658
 6038POPC   C3B76185  21.253  14.914   7.093
 6038POPC   C4B76186  21.624  14.832   7.331
 6039POPC   NC376187  17.031  13.400   5.637
 6039POPC   PO476188  16.837  13.996   5.453
 6039POPC   GL176189  16.715  13.760   5.855
 6039POPC   GL276190  16.466  14.002   5.905
 6039POPC   C1A76191  16.704  13.413   6.191
 6039POPC   D2A76192  16.716  13.275   6.613
 6039POPC   C3A76193  16.648  13.565   6.964
 6039POPC   C4A76194  16.859  13.534   7.363
 6039POPC   C1B76195  16.395  13.788   6.323
 6039POPC   C2B76196  16.180  13.865   6.712
 6039POPC   C3B76197  16.338  13.943   7.140
 6039POPC   C4B76198  16.358  13.690   7.479
 6040POPC   NC376199  21.410  26.440   5.414
 6040POPC   PO476200  21.838  26.908   5.281
 6040POPC   GL176201  21.680  26.865   5.741
 6040POPC   GL276202  21.306  26.901   5.831
 6040POPC   C1A76203  21.631  26.869   6.236
 6040POPC   D2A76204  21.484  26.683   6.636
 6040POPC   C3A76205  21.514  26.862   7.075
 6040POPC   C4A76206  21.512  26.654   7.498
 6040POPC   C1B76207  21.161  27.096   6.265
 6040POPC   C2B76208  21.156  27.105   6.748
 6040POPC   C3B76209  21.004  26.971   7.180
 6040POPC   C4B76210  21.162  27.008   7.612
 6041POPC   NC376211   3.082  20.693   5.458
 6041POPC   PO476212   2.507  20.935   5.635
 6041POPC   GL176213   2.806  20.714   5.897
 6041POPC   GL276214   2.940  20.394   5.832
 6041POPC   C1A76215   2.838  20.552   6.313
 6041POPC   D2A76216   2.634  20.776   6.632
 6041POPC   C3A76217   2.677  20.630   7.056
 6041POPC   C4A76218   2.836  20.798   7.454
 6041POPC   C1B76219   3.226  20.214   6.122
 6041POPC   C2B76220   3.202  20.264   6.544
 6041POPC   C3B76221   3.154  20.517   6.885
 6041POPC   C4B76222   3.063  20.363   7.263
 6042POPC   NC376223   3.171   5.196   5.122
 6042POPC   PO476224   2.706   5.502   5.496
 6042POPC   GL176225   2.590   5.251   5.827
 6042POPC   GL276226   2.789   4.952   5.776
 6042POPC   C1A76227   2.683   5.233   6.268
 6042POPC   D2A76228   2.484   5.064   6.644
 6042POPC   C3A76229   2.553   5.202   7.070
 6042POPC   C4A76230   2.400   4.981   7.466
 6042POPC   C1B76231   2.885   4.761   6.193
 6042POPC   C2B76232   2.999   4.918   6.601
 6042POPC   C3B76233   2.906   4.847   7.022
 6042POPC   C4B76234   3.095   4.640   7.357
 6043POPC   NC376235  39.152  37.812   5.543
 6043POPC   PO476236  39.683  37.465   5.452
 6043POPC   GL176237  39.454  37.547   5.859
 6043POPC   GL276238  39.364  37.910   6.009
 6043POPC   C1A76239  39.266  37.476   6.254
 6043POPC   D2A76240  39.295  37.632   6.666
 6043POPC   C3A76241  39.213  37.382   7.020
 6043POPC   C4A76242  39.241  37.444   7.472
 6043POPC   C1B76243  38.918  37.937   6.202
 6043POPC   C2B76244  38.672  37.909   6.598
 6043POPC   C3B76245  38.889  37.769   6.959
 6043POPC   C4B76246  39.067  37.894   7.342
 6044POPC   NC376247  18.563  41.529   5.556
 6044POPC   PO476248  17.991  41.225   5.323
 6044POPC   GL176249  18.144  41.285   5.873
 6044POPC   GL276250  18.468  41.380   6.013
 6044POPC   C1A76251  18.083  41.475   6.322
 6044POPC   D2A76252  18.330  41.584   6.707
 6044POPC   C3A76253  18.112  41.636   7.113
 6044POPC   C4A76254  18.233  41.766   7.489
 6044POPC   C1B76255  18.532  41.775   6.246
 6044POPC   C2B76256  18.633  42.015   6.619
 6044POPC   C3B76257  18.738  41.867   7.019
 6044POPC   C4B76258  18.601  41.505   7.156
 6045POPC   NC376259   5.761  17.904   5.654
 6045POPC   PO476260   5.805  17.138   5.459
 6045POPC   GL176261   5.802  17.393   5.830
 6045POPC   GL276262   5.489  17.330   5.978
 6045POPC   C1A76263   5.861  17.451   6.309
 6045POPC   D2A76264   5.706  17.350   6.699
 6045POPC   C3A76265   6.003  17.354   7.019
 6045POPC   C4A76266   6.204  17.692   7.253
 6045POPC   C1B76267   5.465  17.749   6.204
 6045POPC   C2B76268   5.599  17.877   6.648
 6045POPC   C3B76269   5.589  17.660   7.075
 6045POPC   C4B76270   5.748  17.410   7.454
 6046POPC   NC376271  41.379   5.704   5.336
 6046POPC   PO476272  41.620   4.994   5.447
 6046POPC   GL176273  41.744   4.899   5.869
 6046POPC   GL276274  41.429   5.067   5.935
 6046POPC   C1A76275  41.750   5.096   6.305
 6046POPC   D2A76276  41.592   5.396   6.597
 6046POPC   C3A76277  41.595   5.186   6.984
 6046POPC   C4A76278  41.932   4.944   7.179
 6046POPC   C1B76279  41.214   5.043   6.314
 6046POPC   C2B76280  41.037   5.328   6.601
 6046POPC   C3B76281  41.200   5.580   6.897
 6046POPC   C4B76282  41.227   5.422   7.258
 6047POPC   NC376283   5.352  44.594   5.176
 6047POPC   PO476284   4.984   0.117   5.489
 6047POPC   GL176285   4.913  44.873   5.863
 6047POPC   GL276286   5.296  44.865   5.896
 6047POPC   C1A76287   4.796  44.987   6.298
 6047POPC   D2A76288   5.006  44.884   6.684
 6047POPC   C3A76289   4.864  44.992   7.052
 6047POPC   C4A76290   4.997  44.821   7.460
 6047POPC   C1B76291   5.192  44.639   6.276
 6047POPC   C2B76292   5.435  44.614   6.683
 6047POPC   C3B76293   5.313  44.634   7.086
 6047POPC   C4B76294   5.158  44.284   7.270
 6048POPC   NC376295   3.612  22.608   5.368
 6048POPC   PO476296   3.656  21.940   5.395
 6048POPC   GL176297   3.588  22.204   5.752
 6048POPC   GL276298   3.386  22.492   5.808
 6048POPC   C1A76299   3.568  22.132   6.203
 6048POPC   D2A76300   3.702  22.119   6.639
 6048POPC   C3A76301   3.362  22.074   6.928
 6048POPC   C4A76302   3.317  21.863   7.293
 6048POPC   C1B76303   3.607  22.638   6.148
 6048POPC   C2B76304   3.700  22.622   6.561
 6048POPC   C3B76305   3.612  22.547   6.988
 6048POPC   C4B76306   3.680  22.251   7.332
 6049POPC   NC376307  44.321  11.762   5.652
 6049POPC   PO476308  44.671  12.371   5.459
 6049POPC   GL176309  44.623  12.154   5.848
 6049POPC   GL276310  44.931  11.947   5.835
 6049POPC   C1A76311  44.483  12.034   6.281
 6049POPC   D2A76312  44.679  11.833   6.671
 6049POPC   C3A76313  44.774  12.076   7.041
 6049POPC   C4A76314  44.410  12.176   7.297
 6049POPC   C1B76315  44.994  12.081   6.279
 6049POPC   C2B76316   0.184  11.890   6.667
 6049POPC   C3B76317   0.060  11.629   7.013
 6049POPC   C4B76318  44.895  11.755   7.417
 6050POPC   NC376319  13.497  13.073   5.197
 6050POPC   PO476320  12.794  13.006   5.306
 6050POPC   GL176321  12.956  12.865   5.688
 6050POPC   GL276322  12.986  12.502   5.728
 6050POPC   C1A76323  12.872  12.909   6.110
 6050POPC   D2A76324  13.060  12.810   6.489
 6050POPC   C3A76325  12.819  12.994   6.820
 6050POPC   C4A76326  12.690  12.855   7.204
 6050POPC   C1B76327  12.769  12.401   6.107
 6050POPC   C2B76328  12.865  12.323   6.522
 6050POPC   C3B76329  12.961  12.516   6.918
 6050POPC   C4B76330  13.258  12.420   7.243
 6051POPC   NC376331  37.135  32.161   5.556
 6051POPC   PO476332  36.583  32.473   5.397
 6051POPC   GL176333  36.737  32.321   5.821
 6051POPC   GL276334  36.738  32.638   5.999
 6051POPC   C1A76335  37.006  32.033   6.166
 6051POPC   D2A76336  36.984  31.804   6.580
 6051POPC   C3A76337  36.955  32.049   6.965
 6051POPC   C4A76338  36.766  32.027   7.367
 6051POPC   C1B76339  36.579  32.293   6.289
 6051POPC   C2B76340  36.518  32.051   6.646
 6051POPC   C3B76341  36.459  32.257   7.029
 6051POPC   C4B76342  36.794  32.521   7.173
 6052POPC   NC376343  25.656  13.936   5.191
 6052POPC   PO476344  25.323  13.345   5.390
 6052POPC   GL176345  25.224  13.479   5.809
 6052POPC   GL276346  25.354  13.809   5.749
 6052POPC   C1A76347  25.295  13.475   6.264
 6052POPC   D2A76348  25.530  13.806   6.532
 6052POPC   C3A76349  25.495  13.749   6.967
 6052POPC   C4A76350  25.577  13.348   7.186
 6052POPC   C1B76351  25.222  13.996   6.131
 6052POPC   C2B76352  25.025  13.856   6.493
 6052POPC   C3B76353  24.923  13.827   6.885
 6052POPC   C4B76354  25.114  13.831   7.300
 6053POPC   NC376355  35.742  15.611   5.426
 6053POPC   PO476356  36.180  16.076   5.342
 6053POPC   GL176357  36.237  15.957   5.777
 6053POPC   GL276358  35.914  15.867   5.814
 6053POPC   C1A76359  36.062  16.154   6.199
 6053POPC   D2A76360  36.252  16.221   6.596
 6053POPC   C3A76361  36.047  16.211   6.999
 6053POPC   C4A76362  36.273  16.265   7.349
 6053POPC   C1B76363  35.983  15.663   6.197
 6053POPC   C2B76364  35.918  15.830   6.558
 6053POPC   C3B76365  35.957  15.721   6.956
 6053POPC   C4B76366  35.817  15.600   7.342
 6054POPC   NC376367   9.866  38.817   5.474
 6054POPC   PO476368   9.609  39.411   5.261
 6054POPC   GL176369   9.813  39.317   5.662
 6054POPC   GL276370   9.533  39.109   5.758
 6054POPC   C1A76371   9.978  39.252   6.114
 6054POPC   D2A76372   9.750  39.214   6.527
 6054POPC   C3A76373   9.826  39.391   6.980
 6054POPC   C4A76374  10.042  39.429   7.384
 6054POPC   C1B76375   9.434  38.967   6.167
 6054POPC   C2B76376   9.475  38.789   6.584
 6054POPC   C3B76377   9.414  38.971   6.973
 6054POPC   C4B76378   9.588  39.091   7.336
 6055POPC   NC376379  28.363  18.390   5.412
 6055POPC   PO476380  28.298  17.709   5.199
 6055POPC   GL176381  28.524  17.955   5.631
 6055POPC   GL276382  28.244  18.191   5.844
 6055POPC   C1A76383  28.570  17.989   6.129
 6055POPC   D2A76384  28.221  18.053   6.433
 6055POPC   C3A76385  28.308  18.191   6.854
 6055POPC   C4A76386  28.486  18.204   7.272
 6055POPC   C1B76387  28.367  18.491   6.199
 6055POPC   C2B76388  28.319  18.691   6.628
 6055POPC   C3B76389  28.364  18.658   7.092
 6055POPC   C4B76390  28.147  18.534   7.480
 6056POPC   NC376391  43.068  37.172   5.557
 6056POPC   PO476392  43.155  36.578   5.409
 6056POPC   GL176393  43.153  36.695   5.833
 6056POPC   GL276394  42.832  36.719   5.973
 6056POPC   C1A76395  43.286  36.862   6.241
 6056POPC   D2A76396  43.183  37.034   6.648
 6056POPC   C3A76397  43.181  36.753   6.973
 6056POPC   C4A76398  42.877  36.652   7.303
 6056POPC   C1B76399  42.780  37.090   6.273
 6056POPC   C2B76400  42.746  37.294   6.699
 6056POPC   C3B76401  42.909  37.167   7.121
 6056POPC   C4B76402  42.749  37.087   7.527
 6057POPC   NC376403  41.982  16.429   5.222
 6057POPC   PO476404  42.292  15.868   5.477
 6057POPC   GL176405  42.179  16.044   5.844
 6057POPC   GL276406  41.977  16.381   5.752
 6057POPC   C1A76407  42.369  15.869   6.235
 6057POPC   D2A76408  42.724  15.730   6.537
 6057POPC   C3A76409  42.612  15.759   6.991
 6057POPC   C4A76410  42.243  15.682   7.267
 6057POPC   C1B76411  42.055  16.390   6.209
 6057POPC   C2B76412  42.092  16.148   6.571
 6057POPC   C3B76413  42.173  16.228   6.982
 6057POPC   C4B76414  41.999  16.105   7.332
 6058POPC   NC376415  20.427  26.483   5.502
 6058POPC   PO476416  21.017  26.787   5.400
 6058POPC   GL176417  20.783  26.825   5.757
 6058POPC   GL276418  20.824  26.478   5.877
 6058POPC   C1A76419  20.640  27.051   6.131
 6058POPC   D2A76420  20.644  26.926   6.561
 6058POPC   C3A76421  20.354  27.032   6.882
 6058POPC   C4A76422  20.488  26.787   7.201
 6058POPC   C1B76423  20.465  26.492   6.195
 6058POPC   C2B76424  20.247  26.567   6.607
 6058POPC   C3B76425  20.225  26.379   7.032
 6058POPC   C4B76426  20.575  26.312   7.358
 6059POPC   NC376427  44.094  35.832   5.130
 6059POPC   PO476428  43.512  35.697   5.464
 6059POPC   GL176429  43.683  35.489   5.823
 6059POPC   GL276430  43.798  35.135   5.877
 6059POPC   C1A76431  43.786  35.588   6.253
 6059POPC   D2A76432  43.814  35.468   6.684
 6059POPC   C3A76433  44.018  35.766   6.937
 6059POPC   C4A76434  44.067  35.755   7.372
 6059POPC   C1B76435  44.135  35.213   6.241
 6059POPC   C2B76436  44.303  35.303   6.692
 6059POPC   C3B76437  44.118  35.291   7.134
 6059POPC   C4B76438  43.723  35.151   7.222
 6060POPC   NC376439  42.004   9.359   5.497
 6060POPC   PO476440  42.119   8.708   5.252
 6060POPC   GL176441  41.924   8.875   5.704
 6060POPC   GL276442  41.542   8.957   5.744
 6060POPC   C1A76443  41.822   9.022   6.173
 6060POPC   D2A76444  41.952   9.031   6.647
 6060POPC   C3A76445  41.812   9.017   7.101
 6060POPC   C4A76446  41.825   9.357   7.398
 6060POPC   C1B76447  41.320   8.859   6.181
 6060POPC   C2B76448  41.420   9.026   6.587
 6060POPC   C3B76449  41.474   9.337   6.925
 6060POPC   C4B76450  41.315   9.140   7.324
 6061POPC   NC376451  14.960   9.222   5.397
 6061POPC   PO476452  15.577   9.010   5.381
 6061POPC   GL176453  15.295   9.025   5.771
 6061POPC   GL276454  15.279   9.345   5.843
 6061POPC   C1A76455  15.221   8.844   6.207
 6061POPC   D2A76456  15.384   8.672   6.618
 6061POPC   C3A76457  15.318   8.852   7.019
 6061POPC   C4A76458  14.956   8.837   7.272
 6061POPC   C1B76459  15.121   9.331   6.272
 6061POPC   C2B76460  14.986   9.134   6.681
 6061POPC   C3B76461  15.034   9.296   7.082
 6061POPC   C4B76462  15.410   9.237   7.383
 6062POPC   NC376463  38.425  37.211   5.500
 6062POPC   PO476464  38.284  36.574   5.632
 6062POPC   GL176465  38.607  36.797   5.844
 6062POPC   GL276466  38.436  37.084   5.996
 6062POPC   C1A76467  38.648  36.704   6.269
 6062POPC   D2A76468  38.490  36.877   6.615
 6062POPC   C3A76469  38.527  36.643   6.966
 6062POPC   C4A76470  38.286  36.590   7.326
 6062POPC   C1B76471  38.874  37.149   6.143
 6062POPC   C2B76472  39.028  37.149   6.570
 6062POPC   C3B76473  38.800  37.091   6.939
 6062POPC   C4B76474  38.407  37.086   7.194
 6063POPC   NC376475   4.301   9.245   5.410
 6063POPC   PO476476   4.492   9.894   5.258
 6063POPC   GL176477   4.429   9.700   5.646
 6063POPC   GL276478   4.703   9.874   5.800
 6063POPC   C1A76479   4.265   9.660   6.076
 6063POPC   D2A76480   4.387   9.501   6.486
 6063POPC   C3A76481   4.172   9.533   6.879
 6063POPC   C4A76482   3.913   9.704   7.190
 6063POPC   C1B76483   4.694   9.895   6.273
 6063POPC   C2B76484   4.450   9.995   6.643
 6063POPC   C3B76485   4.426   9.946   7.060
 6063POPC   C4B76486   4.560  10.008   7.442
 6064POPC   NC376487  37.247  18.748   5.313
 6064POPC   PO476488  36.794  19.345   5.325
 6064POPC   GL176489  36.786  19.117   5.718
 6064POPC   GL276490  37.151  19.058   5.722
 6064POPC   C1A76491  36.646  19.211   6.171
 6064POPC   D2A76492  36.604  19.416   6.600
 6064POPC   C3A76493  36.823  19.125   6.876
 6064POPC   C4A76494  36.824  18.930   7.305
 6064POPC   C1B76495  37.078  18.907   6.142
 6064POPC   C2B76496  37.117  18.792   6.580
 6064POPC   C3B76497  37.289  18.932   6.995
 6064POPC   C4B76498  37.179  19.330   7.177
 6065POPC   NC376499  39.926   1.996   5.599
 6065POPC   PO476500  40.165   1.479   5.390
 6065POPC   GL176501  40.178   1.696   5.895
 6065POPC   GL276502  39.832   1.734   6.025
 6065POPC   C1A76503  40.148   1.661   6.397
 6065POPC   D2A76504  39.773   1.883   6.643
 6065POPC   C3A76505  39.889   2.003   7.078
 6065POPC   C4A76506  40.320   1.869   7.214
 6065POPC   C1B76507  40.032   2.135   6.241
 6065POPC   C2B76508  40.238   2.122   6.642
 6065POPC   C3B76509  40.257   2.346   7.007
 6065POPC   C4B76510  40.148   2.274   7.463
 6066POPC   NC376511   5.300   3.684   5.348
 6066POPC   PO476512   4.678   3.475   5.363
 6066POPC   GL176513   4.913   3.488   5.790
 6066POPC   GL276514   5.234   3.644   5.846
 6066POPC   C1A76515   5.020   3.450   6.269
 6066POPC   D2A76516   4.768   3.536   6.644
 6066POPC   C3A76517   4.820   3.246   6.950
 6066POPC   C4A76518   4.968   3.529   7.207
 6066POPC   C1B76519   5.366   3.810   6.241
 6066POPC   C2B76520   5.209   3.814   6.667
 6066POPC   C3B76521   5.396   3.746   7.045
 6066POPC   C4B76522   5.677   3.904   7.331
 6067POPC   NC376523  20.219  41.789   5.455
 6067POPC   PO476524  20.673  41.326   5.334
 6067POPC   GL176525  20.592  41.472   5.744
 6067POPC   GL276526  20.871  41.669   5.896
 6067POPC   C1A76527  20.463  41.308   6.141
 6067POPC   D2A76528  20.370  41.502   6.521
 6067POPC   C3A76529  20.613  41.404   6.809
 6067POPC   C4A76530  20.478  41.310   7.205
 6067POPC   C1B76531  20.888  41.567   6.347
 6067POPC   C2B76532  21.067  41.719   6.745
 6067POPC   C3B76533  20.826  41.802   7.141
 6067POPC   C4B76534  20.890  41.775   7.589
 6068POPC   NC376535   0.186   0.517   5.508
 6068POPC   PO476536   0.864   0.419   5.625
 6068POPC   GL176537   0.536   0.420   5.910
 6068POPC   GL276538   0.392   0.109   5.750
 6068POPC   C1A76539   0.648   0.450   6.359
 6068POPC   D2A76540   0.581   0.426   6.823
 6068POPC   C3A76541   0.322   0.719   7.064
 6068POPC   C4A76542   0.299   0.654   7.533
 6068POPC   C1B76543   0.438  44.974   6.158
 6068POPC   C2B76544   0.433   0.013   6.562
 6068POPC   C3B76545   0.323  44.956   6.945
 6068POPC   C4B76546   0.181   0.246   7.242
 6069POPC   NC376547   5.684  43.907   5.451
 6069POPC   PO476548   6.198  43.520   5.384
 6069POPC   GL176549   6.024  43.591   5.777
 6069POPC   GL276550   6.235  43.898   5.856
 6069POPC   C1A76551   5.862  43.655   6.195
 6069POPC   D2A76552   5.781  44.056   6.439
 6069POPC   C3A76553   5.966  44.109   6.848
 6069POPC   C4A76554   5.770  44.045   7.242
 6069POPC   C1B76555   6.300  43.942   6.321
 6069POPC   C2B76556   6.148  43.666   6.636
 6069POPC   C3B76557   5.879  43.607   6.966
 6069POPC   C4B76558   6.119  43.672   7.314
 6070POPC   NC376559  43.541  25.931   5.390
 6070POPC   PO476560  44.149  26.133   5.553
 6070POPC   GL176561  44.102  25.973   5.892
 6070POPC   GL276562  43.777  25.828   5.871
 6070POPC   C1A76563  44.152  26.191   6.266
 6070POPC   D2A76564  44.117  26.018   6.633
 6070POPC   C3A76565  44.189  26.227   6.961
 6070POPC   C4A76566  43.959  26.260   7.267
 6070POPC   C1B76567  43.653  26.058   6.238
 6070POPC   C2B76568  43.642  25.821   6.607
 6070POPC   C3B76569  43.709  25.861   7.044
 6070POPC   C4B76570  43.714  25.542   7.386
 6071POPC   NC376571  22.631  15.364   5.395
 6071POPC   PO476572  23.235  15.080   5.679
 6071POPC   GL176573  22.875  15.275   5.823
 6071POPC   GL276574  22.882  15.079   6.070
 6071POPC   C1A76575  22.632  15.503   6.137
 6071POPC   D2A76576  22.933  15.438   6.466
 6071POPC   C3A76577  22.913  15.534   6.902
 6071POPC   C4A76578  22.814  15.345   7.299
 6071POPC   C1B76579  23.228  15.025   6.342
 6071POPC   C2B76580  23.103  14.944   6.740
 6071POPC   C3B76581  23.202  15.014   7.144
 6071POPC   C4B76582  23.460  14.720   7.381
 6072POPC   NC376583  44.329  39.332   5.799
 6072POPC   PO476584  43.919  38.973   5.372
 6072POPC   GL176585  43.843  39.072   5.817
 6072POPC   GL276586  43.834  39.402   5.981
 6072POPC   C1A76587  43.660  38.976   6.233
 6072POPC   D2A76588  43.472  38.895   6.647
 6072POPC   C3A76589  43.674  39.051   7.002
 6072POPC   C4A76590  43.658  39.240   7.405
 6072POPC   C1B76591  43.999  39.534   6.375
 6072POPC   C2B76592  44.022  39.618   6.826
 6072POPC   C3B76593  43.840  39.689   7.230
 6072POPC   C4B76594  43.473  39.694   7.547
 6073POPC   NC376595  12.180  41.465   5.301
 6073POPC   PO476596  12.362  42.039   5.645
 6073POPC   GL176597  12.190  41.641   5.775
 6073POPC   GL276598  11.828  41.524   5.679
 6073POPC   C1A76599  12.070  41.451   6.134
 6073POPC   D2A76600  11.893  41.622   6.482
 6073POPC   C3A76601  12.089  41.513   6.820
 6073POPC   C4A76602  12.396  41.663   7.099
 6073POPC   C1B76603  11.592  41.242   5.966
 6073POPC   C2B76604  11.542  41.245   6.394
 6073POPC   C3B76605  11.597  41.302   6.808
 6073POPC   C4B76606  11.801  41.188   7.133
 6074POPC   NC376607  26.522  42.618   5.317
 6074POPC   PO476608  25.889  42.203   5.442
 6074POPC   GL176609  25.919  42.362   5.827
 6074POPC   GL276610  25.562  42.324   5.852
 6074POPC   C1A76611  25.965  42.278   6.227
 6074POPC   D2A76612  26.037  42.487   6.576
 6074POPC   C3A76613  26.003  42.215   6.916
 6074POPC   C4A76614  26.126  42.165   7.329
 6074POPC   C1B76615  25.553  42.641   6.161
 6074POPC   C2B76616  25.363  42.731   6.558
 6074POPC   C3B76617  25.658  42.636   6.858
 6074POPC   C4B76618  25.803  42.543   7.246
 6075POPC   NC376619  10.347   7.591   5.297
 6075POPC   PO476620  10.912   7.708   5.593
 6075POPC   GL176621  10.642   7.553   5.885
 6075POPC   GL276622  10.315   7.495   5.815
 6075POPC   C1A76623  10.647   7.386   6.310
 6075POPC   D2A76624  10.391   7.467   6.664
 6075POPC   C3A76625  10.479   7.437   7.074
 6075POPC   C4A76626  10.146   7.198   7.270
 6075POPC   C1B76627  10.298   7.745   6.215
 6075POPC   C2B76628  10.158   7.929   6.599
 6075POPC   C3B76629  10.338   7.944   7.023
 6075POPC   C4B76630  10.522   7.784   7.444
 6076POPC   NC376631   5.022  27.702   5.509
 6076POPC   PO476632   5.609  27.333   5.404
 6076POPC   GL176633   5.307  27.326   5.757
 6076POPC   GL276634   5.414  27.625   5.832
 6076POPC   C1A76635   4.998  27.420   6.140
 6076POPC   D2A76636   4.957  27.280   6.599
 6076POPC   C3A76637   4.702  27.465   6.963
 6076POPC   C4A76638   4.855  27.805   7.240
 6076POPC   C1B76639   5.464  27.560   6.236
 6076POPC   C2B76640   5.382  27.645   6.625
 6076POPC   C3B76641   5.235  27.472   7.008
 6076POPC   C4B76642   5.444  27.595   7.353
 6077POPC   NC376643  28.719  12.179   5.121
 6077POPC   PO476644  29.272  11.929   5.483
 6077POPC   GL176645  29.396  12.071   5.870
 6077POPC   GL276646  29.368  12.407   5.877
 6077POPC   C1A76647  29.326  12.089   6.324
 6077POPC   D2A76648  29.367  11.820   6.687
 6077POPC   C3A76649  29.010  11.744   6.909
 6077POPC   C4A76650  28.919  11.877   7.251
 6077POPC   C1B76651  29.011  12.480   6.152
 6077POPC   C2B76652  28.838  12.338   6.514
 6077POPC   C3B76653  29.082  12.236   6.844
 6077POPC   C4B76654  29.072  12.360   7.241
 6078POPC   NC376655  32.169  34.266   5.441
 6078POPC   PO476656  32.390  33.566   5.302
 6078POPC   GL176657  32.108  33.680   5.687
 6078POPC   GL276658  32.326  33.936   5.787
 6078POPC   C1A76659  32.024  33.800   6.169
 6078POPC   D2A76660  32.239  33.709   6.548
 6078POPC   C3A76661  32.139  33.597   6.981
 6078POPC   C4A76662  32.411  33.678   7.308
 6078POPC   C1B76663  32.588  33.876   6.136
 6078POPC   C2B76664  32.557  34.098   6.513
 6078POPC   C3B76665  32.506  33.991   6.919
 6078POPC   C4B76666  32.800  34.114   7.234
 6079POPC   NC376667   6.762  16.456   5.562
 6079POPC   PO476668   6.717  15.946   5.129
 6079POPC   GL176669   6.706  15.733   5.539
 6079POPC   GL276670   6.509  15.988   5.679
 6079POPC   C1A76671   6.757  15.697   6.023
 6079POPC   D2A76672   6.497  15.743   6.442
 6079POPC   C3A76673   6.644  15.858   6.885
 6079POPC   C4A76674   6.545  15.713   7.321
 6079POPC   C1B76675   6.505  16.140   6.105
 6079POPC   C2B76676   6.551  16.277   6.530
 6079POPC   C3B76677   6.258  16.214   6.873
 6079POPC   C4B76678   6.478  16.234   7.253
 6080POPC   NC376679  18.832  11.821   5.473
 6080POPC   PO476680  19.435  12.144   5.433
 6080POPC   GL176681  19.201  11.995   5.861
 6080POPC   GL276682  18.939  11.722   5.955
 6080POPC   C1A76683  19.043  12.142   6.294
 6080POPC   D2A76684  18.830  12.061   6.729
 6080POPC   C3A76685  18.975  12.332   7.083
 6080POPC   C4A76686  18.884  12.465   7.486
 6080POPC   C1B76687  18.970  11.639   6.389
 6080POPC   C2B76688  19.294  11.850   6.627
 6080POPC   C3B76689  19.262  11.934   7.022
 6080POPC   C4B76690  18.898  11.801   7.196
 6081POPC   NC376691  15.236  30.090   4.996
 6081POPC   PO476692  15.076  30.084   5.671
 6081POPC   GL176693  15.389  29.947   5.958
 6081POPC   GL276694  15.434  30.254   6.154
 6081POPC   C1A76695  15.320  29.787   6.368
 6081POPC   D2A76696  15.216  30.039   6.743
 6081POPC   C3A76697  15.210  29.779   7.077
 6081POPC   C4A76698  15.455  29.728   7.431
 6081POPC   C1B76699  14.975  30.145   6.300
 6081POPC   C2B76700  14.698  30.333   6.617
 6081POPC   C3B76701  14.744  30.161   7.015
 6081POPC   C4B76702  14.688  29.740   7.101
 6082POPC   NC376703  12.987  26.519   5.493
 6082POPC   PO476704  12.822  27.165   5.469
 6082POPC   GL176705  12.689  26.908   5.846
 6082POPC   GL276706  12.432  26.617   5.850
 6082POPC   C1A76707  12.789  26.832   6.296
 6082POPC   D2A76708  12.962  26.842   6.709
 6082POPC   C3A76709  12.714  26.869   7.115
 6082POPC   C4A76710  12.918  26.667   7.507
 6082POPC   C1B76711  12.400  26.488   6.305
 6082POPC   C2B76712  12.632  26.455   6.709
 6082POPC   C3B76713  12.828  26.374   7.102
 6082POPC   C4B76714  12.625  26.233   7.500
 6083POPC   NC376715  44.027  10.944   5.587
 6083POPC   PO476716  44.121  11.555   5.282
 6083POPC   GL176717  43.776  11.446   5.712
 6083POPC   GL276718  43.627  11.108   5.845
 6083POPC   C1A76719  43.676  11.481   6.192
 6083POPC   D2A76720  43.492  11.572   6.638
 6083POPC   C3A76721  43.771  11.472   7.010
 6083POPC   C4A76722  44.164  11.215   7.141
 6083POPC   C1B76723  43.854  10.957   6.244
 6083POPC   C2B76724  43.905  11.026   6.697
 6083POPC   C3B76725  43.738  10.971   7.100
 6083POPC   C4B76726  43.554  11.192   7.393
 6084POPC   NC376727  22.166  13.431   5.390
 6084POPC   PO476728  21.986  14.024   5.194
 6084POPC   GL176729  22.198  13.913   5.648
 6084POPC   GL276730  22.070  13.588   5.875
 6084POPC   C1A76731  22.176  14.008   6.120
 6084POPC   D2A76732  22.057  13.749   6.506
 6084POPC   C3A76733  22.267  13.782   6.905
 6084POPC   C4A76734  22.206  13.684   7.367
 6084POPC   C1B76735  21.978  13.298   6.282
 6084POPC   C2B76736  21.964  13.120   6.733
 6084POPC   C3B76737  22.065  13.163   7.168
 6084POPC   C4B76738  21.796  13.322   7.466
 6085POPC   NC376739   0.875  25.770   5.139
 6085POPC   PO476740   1.403  26.146   5.332
 6085POPC   GL176741   1.238  26.015   5.766
 6085POPC   GL276742   1.431  25.736   5.874
 6085POPC   C1A76743   1.050  26.255   6.139
 6085POPC   D2A76744   1.181  26.280   6.566
 6085POPC   C3A76745   0.884  26.128   6.882
 6085POPC   C4A76746   0.863  26.224   7.348
 6085POPC   C1B76747   1.537  26.113   6.167
 6085POPC   C2B76748   1.697  26.133   6.575
 6085POPC   C3B76749   1.543  26.293   6.927
 6085POPC   C4B76750   1.300  26.060   7.163
 6086POPC   NC376751  41.238  29.634   5.483
 6086POPC   PO476752  40.849  30.197   5.477
 6086POPC   GL176753  40.673  29.925   5.806
 6086POPC   GL276754  40.749  29.550   5.761
 6086POPC   C1A76755  40.755  29.873   6.236
 6086POPC   D2A76756  41.091  29.740   6.515
 6086POPC   C3A76757  40.917  29.915   6.845
 6086POPC   C4A76758  40.622  29.950   7.152
 6086POPC   C1B76759  40.902  29.396   6.181
 6086POPC   C2B76760  40.684  29.410   6.589
 6086POPC   C3B76761  40.825  29.447   7.006
 6086POPC   C4B76762  40.641  29.497   7.407
 6087POPC   NC376763  26.338  40.307   5.456
 6087POPC   PO476764  25.833  39.879   5.237
 6087POPC   GL176765  25.786  39.837   5.731
 6087POPC   GL276766  26.100  39.681   5.859
 6087POPC   C1A76767  25.774  39.976   6.198
 6087POPC   D2A76768  26.126  40.041   6.505
 6087POPC   C3A76769  26.316  40.220   6.892
 6087POPC   C4A76770  26.330  40.360   7.311
 6087POPC   C1B76771  26.109  39.561   6.304
 6087POPC   C2B76772  25.831  39.653   6.674
 6087POPC   C3B76773  25.955  39.898   7.035
 6087POPC   C4B76774  26.340  39.821   7.222
 6088POPC   NC376775  37.855  15.348   5.156
 6088POPC   PO476776  37.535  15.526   5.711
 6088POPC   GL176777  37.594  15.115   5.796
 6088POPC   GL276778  37.924  15.176   5.638
 6088POPC   C1A76779  37.443  15.043   6.220
 6088POPC   D2A76780  37.622  15.188   6.620
 6088POPC   C3A76781  37.363  15.098   6.965
 6088POPC   C4A76782  37.354  15.066   7.387
 6088POPC   C1B76783  38.065  15.173   6.052
 6088POPC   C2B76784  38.130  15.128   6.504
 6088POPC   C3B76785  38.113  15.138   6.940
 6088POPC   C4B76786  37.836  15.119   7.266
 6089POPC   NC376787  18.040  36.261   5.399
 6089POPC   PO476788  18.507  35.862   5.504
 6089POPC   GL176789  18.287  36.106   5.823
 6089POPC   GL276790  18.382  36.449   5.745
 6089POPC   C1A76791  18.064  36.041   6.219
 6089POPC   D2A76792  17.951  35.902   6.648
 6089POPC   C3A76793  18.189  35.788   7.051
 6089POPC   C4A76794  18.048  35.961   7.450
 6089POPC   C1B76795  18.185  36.557   6.127
 6089POPC   C2B76796  18.072  36.432   6.538
 6089POPC   C3B76797  18.061  36.298   6.952
 6089POPC   C4B76798  18.176  36.498   7.290
 6090POPC   NC376799  36.532  18.141   5.367
 6090POPC   PO476800  37.183  18.077   5.314
 6090POPC   GL176801  37.020  18.212   5.726
 6090POPC   GL276802  36.922  18.566   5.757
 6090POPC   C1A76803  36.689  18.177   6.088
 6090POPC   D2A76804  36.496  18.305   6.503
 6090POPC   C3A76805  36.625  18.147   6.900
 6090POPC   C4A76806  36.605  18.322   7.307
 6090POPC   C1B76807  37.134  18.400   6.182
 6090POPC   C2B76808  37.036  18.283   6.609
 6090POPC   C3B76809  37.003  18.497   7.004
 6090POPC   C4B76810  37.185  18.598   7.404
 6091POPC   NC376811  22.641  41.044   5.628
 6091POPC   PO476812  22.121  40.591   5.434
 6091POPC   GL176813  22.173  40.628   5.852
 6091POPC   GL276814  22.198  40.982   5.929
 6091POPC   C1A76815  21.972  40.572   6.251
 6091POPC   D2A76816  22.067  40.779   6.615
 6091POPC   C3A76817  21.996  40.589   6.999
 6091POPC   C4A76818  22.154  40.671   7.375
 6091POPC   C1B76819  22.235  41.212   6.322
 6091POPC   C2B76820  22.147  41.267   6.766
 6091POPC   C3B76821  22.410  41.243   7.129
 6091POPC   C4B76822  22.446  41.060   7.529
 6092POPC   NC376823  31.124  29.794   5.430
 6092POPC   PO476824  31.761  30.062   5.439
 6092POPC   GL176825  31.478  29.948   5.791
 6092POPC   GL276826  31.365  30.238   5.970
 6092POPC   C1A76827  31.569  29.792   6.228
 6092POPC   D2A76828  31.759  29.992   6.610
 6092POPC   C3A76829  31.506  30.074   6.997
 6092POPC   C4A76830  31.464  29.639   7.239
 6092POPC   C1B76831  31.110  30.036   6.276
 6092POPC   C2B76832  31.234  29.801   6.637
 6092POPC   C3B76833  31.058  29.860   7.039
 6092POPC   C4B76834  31.193  30.002   7.469
 6093POPC   NC376835  43.266   3.552   5.602
 6093POPC   PO476836  42.633   3.466   5.383
 6093POPC   GL176837  42.770   3.603   5.853
 6093POPC   GL276838  43.117   3.776   6.027
 6093POPC   C1A76839  42.698   3.735   6.291
 6093POPC   D2A76840  42.543   3.525   6.632
 6093POPC   C3A76841  42.783   3.550   7.012
 6093POPC   C4A76842  42.864   3.158   7.173
 6093POPC   C1B76843  43.308   3.526   6.331
 6093POPC   C2B76844  43.234   3.522   6.772
 6093POPC   C3B76845  43.320   3.458   7.176
 6093POPC   C4B76846  43.407   3.652   7.575
 6094POPC   NC376847  35.446  25.145   5.445
 6094POPC   PO476848  35.034  25.757   5.425
 6094POPC   GL176849  35.225  25.498   5.746
 6094POPC   GL276850  35.045  25.173   5.764
 6094POPC   C1A76851  35.456  25.293   6.097
 6094POPC   D2A76852  35.374  25.402   6.523
 6094POPC   C3A76853  35.451  25.040   6.762
 6094POPC   C4A76854  35.698  25.193   7.071
 6094POPC   C1B76855  34.979  25.135   6.218
 6094POPC   C2B76856  34.937  25.186   6.682
 6094POPC   C3B76857  35.162  25.300   7.092
 6094POPC   C4B76858  35.371  25.279   7.493
 6095POPC   NC376859  14.459  38.122   5.393
 6095POPC   PO476860  14.378  38.771   5.677
 6095POPC   GL176861  14.209  38.522   5.932
 6095POPC   GL276862  14.441  38.283   5.891
 6095POPC   C1A76863  14.323  38.519   6.339
 6095POPC   D2A76864  14.314  38.774   6.673
 6095POPC   C3A76865  14.520  38.457   6.902
 6095POPC   C4A76866  14.415  38.342   7.296
 6095POPC   C1B76867  14.534  38.029   6.302
 6095POPC   C2B76868  14.685  37.935   6.745
 6095POPC   C3B76869  14.930  38.054   7.133
 6095POPC   C4B76870  14.785  38.160   7.589
 6096POPC   NC376871  27.718  15.718   5.379
 6096POPC   PO476872  27.222  16.097   5.630
 6096POPC   GL176873  27.418  15.757   5.813
 6096POPC   GL276874  27.754  15.864   5.871
 6096POPC   C1A76875  27.447  15.653   6.242
 6096POPC   D2A76876  27.367  15.884   6.609
 6096POPC   C3A76877  27.567  15.747   6.981
 6096POPC   C4A76878  27.374  15.858   7.355
 6096POPC   C1B76879  27.605  16.175   6.169
 6096POPC   C2B76880  27.689  16.304   6.576
 6096POPC   C3B76881  27.525  16.267   6.965
 6096POPC   C4B76882  27.733  16.194   7.322
 6097POPC   NC376883   4.707  34.465   5.602
 6097POPC   PO476884   4.072  34.596   5.358
 6097POPC   GL176885   4.216  34.318   5.703
 6097POPC   GL276886   4.292  34.671   5.841
 6097POPC   C1A76887   4.396  34.306   6.158
 6097POPC   D2A76888   4.388  34.644   6.442
 6097POPC   C3A76889   4.338  34.518   6.864
 6097POPC   C4A76890   4.442  34.245   7.185
 6097POPC   C1B76891   4.051  34.916   6.144
 6097POPC   C2B76892   3.944  34.878   6.581
 6097POPC   C3B76893   4.091  34.941   7.005
 6097POPC   C4B76894   3.841  34.816   7.361
 6098POPC   NC376895  32.046  14.411   5.439
 6098POPC   PO476896  32.627  13.964   5.365
 6098POPC   GL176897  32.452  14.249   5.738
 6098POPC   GL276898  32.114  14.161   5.871
 6098POPC   C1A76899  32.328  14.545   6.131
 6098POPC   D2A76900  32.142  14.485   6.535
 6098POPC   C3A76901  32.137  14.747   6.903
 6098POPC   C4A76902  32.063  14.499   7.274
 6098POPC   C1B76903  32.415  14.058   6.209
 6098POPC   C2B76904  32.570  14.184   6.583
 6098POPC   C3B76905  32.461  14.357   6.936
 6098POPC   C4B76906  32.534  14.190   7.297
 6099POPC   NC376907  19.873  43.609   5.149
 6099POPC   PO476908  19.919  42.961   5.363
 6099POPC   GL176909  19.952  43.058   5.814
 6099POPC   GL276910  20.217  43.242   5.971
 6099POPC   C1A76911  19.775  43.277   6.212
 6099POPC   D2A76912  19.949  43.248   6.621
 6099POPC   C3A76913  19.718  43.103   6.972
 6099POPC   C4A76914  19.930  43.266   7.329
 6099POPC   C1B76915  20.124  42.886   6.268
 6099POPC   C2B76916  20.157  42.751   6.694
 6099POPC   C3B76917  20.109  42.823   7.126
 6099POPC   C4B76918  20.155  42.883   7.575
 6100POPC   NC376919  26.305  15.438   5.573
 6100POPC   PO476920  25.727  15.154   5.521
 6100POPC   GL176921  26.060  15.083   5.831
 6100POPC   GL276922  25.964  14.771   5.826
 6100POPC   C1A76923  26.234  14.961   6.256
 6100POPC   D2A76924  26.109  15.127   6.660
 6100POPC   C3A76925  26.249  15.027   7.066
 6100POPC   C4A76926  26.257  15.362   7.368
 6100POPC   C1B76927  25.717  14.989   6.198
 6100POPC   C2B76928  25.600  15.151   6.642
 6100POPC   C3B76929  25.726  15.079   7.100
 6100POPC   C4B76930  25.851  15.115   7.585
 6101POPC   NC376931  36.665   3.593   5.428
 6101POPC   PO476932  37.235   3.293   5.310
 6101POPC   GL176933  36.956   3.513   5.801
 6101POPC   GL276934  36.642   3.434   5.917
 6101POPC   C1A76935  37.059   3.612   6.252
 6101POPC   D2A76936  37.149   3.369   6.581
 6101POPC   C3A76937  37.107   3.580   6.965
 6101POPC   C4A76938  37.193   3.385   7.372
 6101POPC   C1B76939  36.682   3.285   6.347
 6101POPC   C2B76940  36.657   3.410   6.779
 6101POPC   C3B76941  36.678   3.507   7.226
 6101POPC   C4B76942  36.430   3.409   7.582
 6102POPC   NC376943   7.421  14.661   5.433
 6102POPC   PO476944   7.602  13.967   5.506
 6102POPC   GL176945   7.604  14.312   5.773
 6102POPC   GL276946   7.269  14.392   5.835
 6102POPC   C1A76947   7.621  14.490   6.207
 6102POPC   D2A76948   7.416  14.376   6.607
 6102POPC   C3A76949   7.656  14.349   6.981
 6102POPC   C4A76950   7.594  14.518   7.393
 6102POPC   C1B76951   7.115  14.555   6.214
 6102POPC   C2B76952   7.071  14.740   6.633
 6102POPC   C3B76953   7.200  14.611   7.050
 6102POPC   C4B76954   7.076  14.795   7.434
 6103POPC   NC376955  42.668  10.107   5.498
 6103POPC   PO476956  43.265   9.621   5.553
 6103POPC   GL176957  43.071   9.847   5.806
 6103POPC   GL276958  42.850   9.592   5.942
 6103POPC   C1A76959  43.108   9.970   6.225
 6103POPC   D2A76960  42.828   9.834   6.495
 6103POPC   C3A76961  42.783  10.028   6.896
 6103POPC   C4A76962  42.985  10.010   7.303
 6103POPC   C1B76963  43.215   9.454   6.172
 6103POPC   C2B76964  43.284   9.610   6.567
 6103POPC   C3B76965  43.025   9.592   6.918
 6103POPC   C4B76966  43.146   9.509   7.285
 6104POPC   NC376967   4.767  33.562   5.525
 6104POPC   PO476968   5.168  32.920   5.456
 6104POPC   GL176969   5.053  32.894   5.846
 6104POPC   GL276970   4.784  33.117   5.838
 6104POPC   C1A76971   4.937  32.845   6.254
 6104POPC   D2A76972   4.846  33.071   6.569
 6104POPC   C3A76973   5.087  32.967   6.879
 6104POPC   C4A76974   5.061  33.057   7.264
 6104POPC   C1B76975   4.713  33.411   6.170
 6104POPC   C2B76976   4.515  33.433   6.572
 6104POPC   C3B76977   4.766  33.437   6.991
 6104POPC   C4B76978   4.715  33.363   7.461
 6105POPC   NC376979  32.154   2.371   5.486
 6105POPC   PO476980  32.157   3.042   5.547
 6105POPC   GL176981  32.118   2.754   5.879
 6105POPC   GL276982  31.827   2.549   5.880
 6105POPC   C1A76983  32.307   2.732   6.277
 6105POPC   D2A76984  32.428   2.994   6.617
 6105POPC   C3A76985  32.354   2.804   7.025
 6105POPC   C4A76986  32.607   2.953   7.342
 6105POPC   C1B76987  31.798   2.671   6.301
 6105POPC   C2B76988  31.986   2.635   6.724
 6105POPC   C3B76989  32.048   2.348   7.129
 6105POPC   C4B76990  31.972   2.381   7.616
 6106POPC   NC376991   1.680  17.980   5.747
 6106POPC   PO476992   1.934  17.555   5.310
 6106POPC   GL176993   2.039  17.587   5.783
 6106POPC   GL276994   1.880  17.277   5.850
 6106POPC   C1A76995   2.218  17.588   6.248
 6106POPC   D2A76996   2.244  17.883   6.648
 6106POPC   C3A76997   2.188  17.682   7.069
 6106POPC   C4A76998   2.224  17.215   7.189
 6106POPC   C1B76999   1.712  17.408   6.260
 6106POPC   C2B77000   1.875  17.451   6.707
 6106POPC   C3B77001   1.748  17.419   7.154
 6106POPC   C4B77002   1.787  17.662   7.544
 6107POPC   NC377003  30.929  35.285   5.434
 6107POPC   PO477004  31.484  35.584   5.298
 6107POPC   GL177005  31.416  35.548   5.774
 6107POPC   GL277006  31.609  35.259   5.958
 6107POPC   C1A77007  31.217  35.507   6.186
 6107POPC   D2A77008  31.360  35.545   6.604
 6107POPC   C3A77009  31.532  35.203   6.807
 6107POPC   C4A77010  31.437  35.352   7.180
 6107POPC   C1B77011  31.729  35.602   6.243
 6107POPC   C2B77012  31.874  35.586   6.675
 6107POPC   C3B77013  31.856  35.692   7.107
 6107POPC   C4B77014  31.679  35.666   7.533
 6108POPC   NC377015   5.327  20.384   5.270
 6108POPC   PO477016   4.776  20.705   5.436
 6108POPC   GL177017   5.161  20.743   5.684
 6108POPC   GL277018   5.369  20.448   5.814
 6108POPC   C1A77019   5.177  20.795   6.137
 6108POPC   D2A77020   5.036  20.529   6.481
 6108POPC   C3A77021   5.005  20.644   6.921
 6108POPC   C4A77022   4.855  20.396   7.277
 6108POPC   C1B77023   5.569  20.472   6.254
 6108POPC   C2B77024   5.491  20.467   6.713
 6108POPC   C3B77025   5.422  20.432   7.133
 6108POPC   C4B77026   5.649  20.612   7.478
 6109POPC   NC377027  10.332  42.016   5.028
 6109POPC   PO477028  10.721  42.484   5.441
 6109POPC   GL177029  10.429  42.347   5.727
 6109POPC   GL277030  10.454  42.631   5.927
 6109POPC   C1A77031  10.241  42.204   6.139
 6109POPC   D2A77032  10.451  42.216   6.573
 6109POPC   C3A77033  10.309  42.035   6.975
 6109POPC   C4A77034  10.484  42.196   7.373
 6109POPC   C1B77035  10.743  42.425   6.186
 6109POPC   C2B77036  10.903  42.518   6.591
 6109POPC   C3B77037  10.757  42.434   6.993
 6109POPC   C4B77038  10.570  42.723   7.297
 6110POPC   NC377039  40.798  32.367   5.393
 6110POPC   PO477040  41.097  31.708   5.390
 6110POPC   GL177041  40.873  31.877   5.747
 6110POPC   GL277042  41.073  32.180   5.802
 6110POPC   C1A77043  40.776  32.041   6.193
 6110POPC   D2A77044  40.936  32.282   6.548
 6110POPC   C3A77045  40.778  32.110   6.904
 6110POPC   C4A77046  40.592  32.086   7.300
 6110POPC   C1B77047  41.260  31.876   6.091
 6110POPC   C2B77048  41.195  31.827   6.518
 6110POPC   C3B77049  41.205  31.790   6.961
 6110POPC   C4B77050  41.083  31.985   7.307
 6111POPC   NC377051  37.132  39.069   5.525
 6111POPC   PO477052  36.498  39.298   5.161
 6111POPC   GL177053  36.522  39.065   5.645
 6111POPC   GL277054  36.799  39.234   5.877
 6111POPC   C1A77055  36.439  39.033   6.146
 6111POPC   D2A77056  36.635  39.252   6.521
 6111POPC   C3A77057  36.561  39.087   6.953
 6111POPC   C4A77058  36.752  39.132   7.370
 6111POPC   C1B77059  37.081  39.327   6.239
 6111POPC   C2B77060  37.141  39.118   6.656
 6111POPC   C3B77061  37.145  39.293   7.080
 6111POPC   C4B77062  37.219  39.588   7.416
 6112POPC   NC377063   5.858  15.047   5.532
 6112POPC   PO477064   5.554  15.694   5.534
 6112POPC   GL177065   5.660  15.489   5.919
 6112POPC   GL277066   5.962  15.252   5.988
 6112POPC   C1A77067   5.597  15.312   6.337
 6112POPC   D2A77068   5.913  15.203   6.642
 6112POPC   C3A77069   5.767  15.336   7.042
 6112POPC   C4A77070   5.614  15.126   7.401
 6112POPC   C1B77071   6.174  14.909   6.257
 6112POPC   C2B77072   6.125  14.719   6.681
 6112POPC   C3B77073   6.220  15.026   7.045
 6112POPC   C4B77074   6.112  15.277   7.432
 6113POPC   NC377075   4.589  38.191   5.103
 6113POPC   PO477076   5.086  38.610   5.435
 6113POPC   GL177077   5.106  38.313   5.758
 6113POPC   GL277078   5.118  38.604   5.971
 6113POPC   C1A77079   5.170  38.127   6.158
 6113POPC   D2A77080   5.245  38.360   6.548
 6113POPC   C3A77081   5.153  38.193   6.941
 6113POPC   C4A77082   5.111  38.373   7.308
 6113POPC   C1B77083   5.534  38.532   6.139
 6113POPC   C2B77084   5.709  38.598   6.549
 6113POPC   C3B77085   5.530  38.582   6.961
 6113POPC   C4B77086   5.523  38.633   7.386
 6114POPC   NC377087  15.722  41.670   5.342
 6114POPC   PO477088  16.341  41.683   5.456
 6114POPC   GL177089  16.075  41.605   5.792
 6114POPC   GL277090  15.715  41.441   5.798
 6114POPC   C1A77091  16.202  41.711   6.201
 6114POPC   D2A77092  15.978  41.612   6.562
 6114POPC   C3A77093  16.223  41.460   6.885
 6114POPC   C4A77094  16.216  41.598   7.283
 6114POPC   C1B77095  15.927  41.246   6.143
 6114POPC   C2B77096  15.795  41.142   6.541
 6114POPC   C3B77097  15.709  41.359   6.956
 6114POPC   C4B77098  15.550  41.220   7.363
 6115POPC   NC377099  22.599  17.462   5.494
 6115POPC   PO477100  22.003  17.651   5.240
 6115POPC   GL177101  22.124  17.638   5.664
 6115POPC   GL277102  22.101  17.294   5.651
 6115POPC   C1A77103  22.328  17.553   6.102
 6115POPC   D2A77104  22.252  17.770   6.499
 6115POPC   C3A77105  22.311  17.583   6.918
 6115POPC   C4A77106  22.135  17.773   7.283
 6115POPC   C1B77107  21.953  17.174   6.063
 6115POPC   C2B77108  22.089  17.260   6.487
 6115POPC   C3B77109  21.935  17.115   6.885
 6115POPC   C4B77110  22.024  17.285   7.238
 6116POPC   NC377111  33.138  16.475   5.220
 6116POPC   PO477112  33.096  17.019   5.425
 6116POPC   GL177113  33.038  16.685   5.770
 6116POPC   GL277114  32.681  16.631   5.835
 6116POPC   C1A77115  33.276  16.649   6.201
 6116POPC   D2A77116  33.357  16.900   6.588
 6116POPC   C3A77117  33.351  16.637   6.956
 6116POPC   C4A77118  33.031  16.616   7.224
 6116POPC   C1B77119  32.778  16.685   6.244
 6116POPC   C2B77120  32.936  16.582   6.627
 6116POPC   C3B77121  32.656  16.735   6.903
 6116POPC   C4B77122  32.508  16.616   7.291
 6117POPC   NC377123   2.793  38.436   5.344
 6117POPC   PO477124   2.581  38.965   5.674
 6117POPC   GL177125   2.608  38.600   5.928
 6117POPC   GL277126   2.762  38.271   5.825
 6117POPC   C1A77127   2.696  38.634   6.375
 6117POPC   D2A77128   2.867  38.724   6.764
 6117POPC   C3A77129   2.657  38.514   7.053
 6117POPC   C4A77130   2.550  38.734   7.382
 6117POPC   C1B77131   2.772  38.129   6.237
 6117POPC   C2B77132   2.930  38.238   6.639
 6117POPC   C3B77133   2.949  38.096   7.041
 6117POPC   C4B77134   2.640  38.041   7.372
 6118POPC   NC377135  38.548  25.508   5.353
 6118POPC   PO477136  38.325  24.916   5.550
 6118POPC   GL177137  38.311  25.282   5.773
 6118POPC   GL277138  38.662  25.292   5.865
 6118POPC   C1A77139  38.283  25.585   6.125
 6118POPC   D2A77140  38.030  25.579   6.523
 6118POPC   C3A77141  38.168  25.736   6.911
 6118POPC   C4A77142  38.200  25.562   7.292
 6118POPC   C1B77143  38.599  25.194   6.341
 6118POPC   C2B77144  38.529  25.393   6.775
 6118POPC   C3B77145  38.646  25.345   7.227
 6118POPC   C4B77146  38.691  25.094   7.625
 6119POPC   NC377147  37.915  19.451   5.498
 6119POPC   PO477148  37.465  19.911   5.568
 6119POPC   GL177149  37.664  19.706   5.929
 6119POPC   GL277150  38.025  19.690   5.934
 6119POPC   C1A77151  37.679  19.718   6.392
 6119POPC   D2A77152  37.389  20.005   6.631
 6119POPC   C3A77153  37.414  20.063   7.057
 6119POPC   C4A77154  37.531  19.691   7.249
 6119POPC   C1B77155  38.122  20.038   6.166
 6119POPC   C2B77156  38.001  20.103   6.570
 6119POPC   C3B77157  37.857  19.855   6.872
 6119POPC   C4B77158  37.965  19.993   7.241
 6120POPC   NC377159  39.266  23.365   5.437
 6120POPC   PO477160  39.161  24.095   5.375
 6120POPC   GL177161  39.221  23.814   5.720
 6120POPC   GL277162  38.879  23.797   5.721
 6120POPC   C1A77163  39.199  23.544   6.107
 6120POPC   D2A77164  39.491  23.540   6.440
 6120POPC   C3A77165  39.403  23.572   6.872
 6120POPC   C4A77166  39.361  23.774   7.256
 6120POPC   C1B77167  38.805  23.863   6.176
 6120POPC   C2B77168  39.014  23.781   6.585
 6120POPC   C3B77169  38.909  23.610   7.013
 6120POPC   C4B77170  38.876  23.750   7.432
 6121POPC   NC377171   7.923  22.473   5.561
 6121POPC   PO477172   8.420  21.961   5.470
 6121POPC   GL177173   8.353  22.024   5.868
 6121POPC   GL277174   8.712  21.999   5.907
 6121POPC   C1A77175   8.112  22.218   6.204
 6121POPC   D2A77176   8.260  22.456   6.556
 6121POPC   C3A77177   8.096  22.261   6.924
 6121POPC   C4A77178   7.896  22.430   7.262
 6121POPC   C1B77179   8.612  22.114   6.310
 6121POPC   C2B77180   8.394  21.948   6.634
 6121POPC   C3B77181   8.512  21.867   7.031
 6121POPC   C4B77182   8.300  22.069   7.371
 6122POPC   NC377183  36.855   1.909   5.332
 6122POPC   PO477184  37.317   2.390   5.463
 6122POPC   GL177185  37.094   2.050   5.767
 6122POPC   GL277186  36.703   1.960   5.800
 6122POPC   C1A77187  37.014   1.898   6.192
 6122POPC   D2A77188  37.204   1.902   6.579
 6122POPC   C3A77189  36.954   2.026   6.908
 6122POPC   C4A77190  36.935   1.878   7.285
 6122POPC   C1B77191  36.531   1.734   6.151
 6122POPC   C2B77192  36.601   1.886   6.555
 6122POPC   C3B77193  36.496   1.816   6.980
 6122POPC   C4B77194  36.425   1.965   7.390
 6123POPC   NC377195   9.079  37.505   5.613
 6123POPC   PO477196   8.508  37.860   5.469
 6123POPC   GL177197   8.749  37.871   5.863
 6123POPC   GL277198   9.123  37.945   5.892
 6123POPC   C1A77199   8.879  37.597   6.241
 6123POPC   D2A77200   9.132  37.670   6.619
 6123POPC   C3A77201   8.920  37.592   7.003
 6123POPC   C4A77202   9.193  37.443   7.317
 6123POPC   C1B77203   8.919  38.092   6.299
 6123POPC   C2B77204   8.855  38.090   6.741
 6123POPC   C3B77205   9.164  38.038   7.053
 6123POPC   C4B77206   9.056  37.932   7.445
 6124POPC   NC377207  19.332  13.421   5.401
 6124POPC   PO477208  18.697  13.684   5.358
 6124POPC   GL177209  18.813  13.691   5.773
 6124POPC   GL277210  19.123  13.670   5.779
 6124POPC   C1A77211  18.873  13.868   6.182
 6124POPC   D2A77212  19.028  13.627   6.527
 6124POPC   C3A77213  19.177  13.785   6.887
 6124POPC   C4A77214  18.908  13.694   7.198
 6124POPC   C1B77215  19.142  13.370   6.106
 6124POPC   C2B77216  19.132  13.122   6.518
 6124POPC   C3B77217  19.098  13.270   6.946
 6124POPC   C4B77218  19.334  13.177   7.292
 6125POPC   NC377219  20.441  23.885   5.279
 6125POPC   PO477220  20.734  23.336   5.299
 6125POPC   GL177221  20.572  23.585   5.723
 6125POPC   GL277222  20.321  23.902   5.768
 6125POPC   C1A77223  20.755  23.651   6.183
 6125POPC   D2A77224  20.750  23.454   6.618
 6125POPC   C3A77225  20.682  23.657   7.039
 6125POPC   C4A77226  20.801  23.774   7.475
 6125POPC   C1B77227  20.436  24.063   6.170
 6125POPC   C2B77228  20.598  23.993   6.586
 6125POPC   C3B77229  20.372  24.062   6.959
 6125POPC   C4B77230  20.279  23.841   7.366
 6126POPC   NC377231  25.710  24.065   5.559
 6126POPC   PO477232  26.203  23.571   5.367
 6126POPC   GL177233  26.112  23.726   5.728
 6126POPC   GL277234  25.799  23.601   5.782
 6126POPC   C1A77235  26.235  23.582   6.127
 6126POPC   D2A77236  26.032  23.524   6.508
 6126POPC   C3A77237  26.317  23.413   6.790
 6126POPC   C4A77238  26.312  23.623   7.154
 6126POPC   C1B77239  25.827  23.878   6.164
 6126POPC   C2B77240  25.744  23.957   6.569
 6126POPC   C3B77241  25.746  23.754   6.938
 6126POPC   C4B77242  25.925  23.907   7.294
 6127POPC   NC377243  20.306   6.193   5.576
 6127POPC   PO477244  20.728   5.689   5.433
 6127POPC   GL177245  20.488   5.591   5.813
 6127POPC   GL277246  20.397   5.904   5.977
 6127POPC   C1A77247  20.369   5.485   6.242
 6127POPC   D2A77248  20.345   5.766   6.589
 6127POPC   C3A77249  20.314   5.531   6.950
 6127POPC   C4A77250  20.537   5.561   7.315
 6127POPC   C1B77251  20.640   6.110   6.286
 6127POPC   C2B77252  20.501   6.258   6.679
 6127POPC   C3B77253  20.398   6.052   7.046
 6127POPC   C4B77254  20.680   6.137   7.385
 6128POPC   NC377255   2.944  23.960   5.215
 6128POPC   PO477256   2.452  24.332   5.540
 6128POPC   GL177257   2.820  24.357   5.788
 6128POPC   GL277258   2.651  24.598   5.958
 6128POPC   C1A77259   3.000  24.398   6.237
 6128POPC   D2A77260   2.756  24.302   6.609
 6128POPC   C3A77261   2.990  24.298   7.005
 6128POPC   C4A77262   3.073  24.461   7.427
 6128POPC   C1B77263   2.356  24.351   6.219
 6128POPC   C2B77264   2.208  24.246   6.635
 6128POPC   C3B77265   2.434  24.370   6.999
 6128POPC   C4B77266   2.622  24.230   7.341
 6129POPC   NC377267  38.289   3.066   5.477
 6129POPC   PO477268  38.818   2.595   5.449
 6129POPC   GL177269  38.508   2.578   5.794
 6129POPC   GL277270  38.203   2.335   5.800
 6129POPC   C1A77271  38.607   2.682   6.229
 6129POPC   D2A77272  38.521   2.972   6.547
 6129POPC   C3A77273  38.720   2.848   6.915
 6129POPC   C4A77274  38.596   2.820   7.326
 6129POPC   C1B77275  38.110   2.631   6.164
 6129POPC   C2B77276  38.040   2.767   6.612
 6129POPC   C3B77277  38.072   2.627   7.047
 6129POPC   C4B77278  37.745   2.392   7.243
 6130POPC   NC377279  35.104  43.720   5.165
 6130POPC   PO477280  35.483  44.126   5.558
 6130POPC   GL177281  35.209  43.801   5.711
 6130POPC   GL277282  35.483  43.607   5.791
 6130POPC   C1A77283  34.991  43.857   6.123
 6130POPC   D2A77284  35.185  43.997   6.539
 6130POPC   C3A77285  35.170  43.719   6.915
 6130POPC   C4A77286  35.027  43.741   7.314
 6130POPC   C1B77287  35.483  43.714   6.218
 6130POPC   C2B77288  35.618  43.741   6.646
 6130POPC   C3B77289  35.628  43.853   7.057
 6130POPC   C4B77290  35.572  43.541   7.345
 6131POPC   NC377291   6.480  41.845   5.394
 6131POPC   PO477292   6.757  41.220   5.355
 6131POPC   GL177293   6.666  41.341   5.797
 6131POPC   GL277294   6.655  41.710   5.868
 6131POPC   C1A77295   6.536  41.381   6.228
 6131POPC   D2A77296   6.780  41.365   6.568
 6131POPC   C3A77297   6.517  41.323   6.900
 6131POPC   C4A77298   6.697  41.418   7.264
 6131POPC   C1B77299   6.889  41.811   6.240
 6131POPC   C2B77300   6.909  41.961   6.666
 6131POPC   C3B77301   6.983  41.799   7.070
 6131POPC   C4B77302   6.805  41.918   7.482
 6132POPC   NC377303  30.949   8.373   5.456
 6132POPC   PO477304  30.341   8.085   5.644
 6132POPC   GL177305  30.645   8.240   5.910
 6132POPC   GL277306  30.629   8.573   5.785
 6132POPC   C1A77307  30.645   8.192   6.376
 6132POPC   D2A77308  30.321   8.231   6.723
 6132POPC   C3A77309  30.350   7.950   7.054
 6132POPC   C4A77310  30.669   8.071   7.278
 6132POPC   C1B77311  30.838   8.656   6.157
 6132POPC   C2B77312  30.726   8.652   6.579
 6132POPC   C3B77313  30.875   8.334   6.881
 6132POPC   C4B77314  30.993   8.439   7.320
 6133POPC   NC377315  37.062  28.944   5.621
 6133POPC   PO477316  36.625  29.432   5.399
 6133POPC   GL177317  36.882  29.393   5.763
 6133POPC   GL277318  36.575  29.297   5.946
 6133POPC   C1A77319  37.020  29.309   6.223
 6133POPC   D2A77320  37.194  29.025   6.569
 6133POPC   C3A77321  37.287  29.201   6.980
 6133POPC   C4A77322  36.975  29.351   7.289
 6133POPC   C1B77323  36.578  29.055   6.355
 6133POPC   C2B77324  36.692  29.067   6.785
 6133POPC   C3B77325  36.874  28.869   7.122
 6133POPC   C4B77326  36.879  28.907   7.563
 6134POPC   NC377327  36.380  28.933   5.406
 6134POPC   PO477328  35.921  29.432   5.441
 6134POPC   GL177329  36.068  29.208   5.783
 6134POPC   GL277330  35.763  29.039   5.854
 6134POPC   C1A77331  36.126  29.281   6.231
 6134POPC   D2A77332  36.063  29.501   6.630
 6134POPC   C3A77333  36.384  29.465   6.933
 6134POPC   C4A77334  36.483  29.210   7.284
 6134POPC   C1B77335  35.616  29.219   6.258
 6134POPC   C2B77336  35.717  29.110   6.698
 6134POPC   C3B77337  36.000  29.123   7.064
 6134POPC   C4B77338  35.953  28.982   7.464
 6135POPC   NC377339  26.131   3.982   5.551
 6135POPC   PO477340  26.074   4.613   5.457
 6135POPC   GL177341  25.873   4.491   5.875
 6135POPC   GL277342  25.590   4.761   5.995
 6135POPC   C1A77343  25.962   4.121   6.188
 6135POPC   D2A77344  26.300   4.021   6.486
 6135POPC   C3A77345  26.274   4.223   6.886
 6135POPC   C4A77346  25.963   4.183   7.199
 6135POPC   C1B77347  25.697   4.527   6.350
 6135POPC   C2B77348  25.791   4.298   6.701
 6135POPC   C3B77349  25.625   4.540   7.035
 6135POPC   C4B77350  25.678   4.496   7.455
 6136POPC   NC377351  29.993  42.342   5.436
 6136POPC   PO477352  29.572  41.892   5.561
 6136POPC   GL177353  29.802  42.184   5.899
 6136POPC   GL277354  30.172  42.256   5.900
 6136POPC   C1A77355  29.840  42.559   6.212
 6136POPC   D2A77356  29.824  42.563   6.692
 6136POPC   C3A77357  29.612  42.739   7.039
 6136POPC   C4A77358  29.561  42.367   7.227
 6136POPC   C1B77359  30.153  42.176   6.348
 6136POPC   C2B77360  30.278  42.302   6.745
 6136POPC   C3B77361  30.251  42.234   7.183
 6136POPC   C4B77362  29.919  42.089   7.478
 6137POPC   NC377363  34.856  20.071   5.515
 6137POPC   PO477364  34.395  19.517   5.471
 6137POPC   GL177365  34.536  19.735   5.840
 6137POPC   GL277366  34.739  20.006   5.986
 6137POPC   C1A77367  34.633  19.627   6.271
 6137POPC   D2A77368  34.969  19.678   6.579
 6137POPC   C3A77369  34.795  19.755   6.994
 6137POPC   C4A77370  34.394  19.850   7.216
 6137POPC   C1B77371  34.596  20.157   6.370
 6137POPC   C2B77372  34.500  20.131   6.798
 6137POPC   C3B77373  34.631  20.376   7.162
 6137POPC   C4B77374  34.530  20.388   7.607
 6138POPC   NC377375  10.214  11.078   5.279
 6138POPC   PO477376  10.753  11.394   5.539
 6138POPC   GL177377  10.522  11.379   5.887
 6138POPC   GL277378  10.408  11.057   5.779
 6138POPC   C1A77379  10.698  11.290   6.287
 6138POPC   D2A77380  10.870  11.116   6.689
 6138POPC   C3A77381  10.670  11.309   7.052
 6138POPC   C4A77382  10.235  11.293   7.118
 6138POPC   C1B77383  10.399  10.890   6.185
 6138POPC   C2B77384  10.355  11.044   6.621
 6138POPC   C3B77385  10.484  10.830   6.976
 6138POPC   C4B77386  10.487  10.915   7.398
 6139POPC   NC377387  16.339  28.581   5.453
 6139POPC   PO477388  15.742  28.235   5.348
 6139POPC   GL177389  15.904  28.268   5.754
 6139POPC   GL277390  15.935  28.605   5.799
 6139POPC   C1A77391  15.869  28.297   6.224
 6139POPC   D2A77392  16.189  28.340   6.559
 6139POPC   C3A77393  16.148  28.110   6.941
 6139POPC   C4A77394  16.170  28.268   7.352
 6139POPC   C1B77395  15.739  28.833   6.153
 6139POPC   C2B77396  15.814  28.727   6.584
 6139POPC   C3B77397  16.034  28.616   6.974
 6139POPC   C4B77398  15.955  28.728   7.382
 6140POPC   NC377399  30.040  36.254   5.064
 6140POPC   PO477400  29.829  35.921   5.596
 6140POPC   GL177401  29.751  36.051   5.974
 6140POPC   GL277402  29.694  36.415   5.860
 6140POPC   C1A77403  30.014  35.954   6.349
 6140POPC   D2A77404  30.025  35.775   6.760
 6140POPC   C3A77405  30.191  35.809   7.179
 6140POPC   C4A77406  29.920  35.953   7.496
 6140POPC   C1B77407  29.917  36.430   6.237
 6140POPC   C2B77408  30.169  36.353   6.599
 6140POPC   C3B77409  30.047  36.252   6.982
 6140POPC   C4B77410  30.046  36.431   7.359
 6141POPC   NC377411  33.240  19.645   5.507
 6141POPC   PO477412  32.579  19.776   5.516
 6141POPC   GL177413  32.799  20.061   5.811
 6141POPC   GL277414  33.142  20.131   5.750
 6141POPC   C1A77415  32.975  19.856   6.185
 6141POPC   D2A77416  32.678  19.681   6.480
 6141POPC   C3A77417  32.612  19.808   6.881
 6141POPC   C4A77418  32.847  19.726   7.254
 6141POPC   C1B77419  33.458  20.119   6.095
 6141POPC   C2B77420  33.355  20.041   6.509
 6141POPC   C3B77421  33.142  19.794   6.817
 6141POPC   C4B77422  33.353  19.709   7.212
 6142POPC   NC377423   6.263   9.081   5.422
 6142POPC   PO477424   5.724   8.733   5.567
 6142POPC   GL177425   5.880   8.925   5.899
 6142POPC   GL277426   5.802   9.258   5.818
 6142POPC   C1A77427   6.185   8.848   6.214
 6142POPC   D2A77428   6.213   8.574   6.552
 6142POPC   C3A77429   6.138   8.750   6.935
 6142POPC   C4A77430   6.105   8.556   7.313
 6142POPC   C1B77431   5.981   9.315   6.261
 6142POPC   C2B77432   5.929   9.174   6.671
 6142POPC   C3B77433   5.876   9.361   7.064
 6142POPC   C4B77434   5.741   9.267   7.485
 6143POPC   NC377435  30.066  16.464   5.348
 6143POPC   PO477436  29.641  16.968   5.519
 6143POPC   GL177437  29.940  16.807   5.769
 6143POPC   GL277438  29.809  16.491   5.796
 6143POPC   C1A77439  29.905  16.824   6.216
 6143POPC   D2A77440  29.650  16.675   6.571
 6143POPC   C3A77441  29.848  16.747   6.974
 6143POPC   C4A77442  30.166  17.019   7.205
 6143POPC   C1B77443  30.199  16.424   6.049
 6143POPC   C2B77444  30.182  16.528   6.521
 6143POPC   C3B77445  30.289  16.465   6.962
 6143POPC   C4B77446  29.981  16.373   7.295
 6144POPC   NC377447   0.642  34.868   5.533
 6144POPC   PO477448   1.178  34.418   5.408
 6144POPC   GL177449   1.392  34.557   5.819
 6144POPC   GL277450   1.279  34.898   5.890
 6144POPC   C1A77451   1.468  34.576   6.284
 6144POPC   D2A77452   1.512  34.268   6.639
 6144POPC   C3A77453   1.277  34.414   7.010
 6144POPC   C4A77454   1.430  34.776   7.195
 6144POPC   C1B77455   0.995  34.731   6.201
 6144POPC   C2B77456   1.070  34.757   6.658
 6144POPC   C3B77457   0.907  34.835   7.084
 6144POPC   C4B77458   1.043  34.844   7.509
 6145POPC   NC377459   0.816  38.285   5.628
 6145POPC   PO477460   0.275  38.574   5.306
 6145POPC   GL177461   0.375  38.596   5.779
 6145POPC   GL277462   0.696  38.674   5.906
 6145POPC   C1A77463   0.285  38.476   6.253
 6145POPC   D2A77464   0.267  38.378   6.720
 6145POPC   C3A77465   0.428  38.561   7.119
 6145POPC   C4A77466   0.186  38.502   7.531
 6145POPC   C1B77467   0.764  38.367   6.279
 6145POPC   C2B77468   0.760  38.204   6.710
 6145POPC   C3B77469   0.898  38.153   7.134
 6145POPC   C4B77470   0.676  38.312   7.495
 6146POPC   NC377471  44.695  11.163   5.404
 6146POPC   PO477472  44.245  11.315   5.810
 6146POPC   GL177473  44.688  11.464   5.823
 6146POPC   GL277474  44.974  11.250   5.871
 6146POPC   C1A77475  44.767  11.604   6.208
 6146POPC   D2A77476  44.918  11.385   6.561
 6146POPC   C3A77477  44.588  11.297   6.822
 6146POPC   C4A77478  44.616  11.411   7.231
 6146POPC   C1B77479  44.773  11.046   6.199
 6146POPC   C2B77480  44.914  10.860   6.584
 6146POPC   C3B77481   0.002  11.023   6.947
 6146POPC   C4B77482  44.693  10.920   7.189
 6147POPC   NC377483  15.970  24.318   5.394
 6147POPC   PO477484  16.155  24.940   5.385
 6147POPC   GL177485  15.952  24.657   5.766
 6147POPC   GL277486  16.143  24.346   5.875
 6147POPC   C1A77487  15.695  24.393   6.108
 6147POPC   D2A77488  15.578  24.439   6.560
 6147POPC   C3A77489  15.908  24.411   6.843
 6147POPC   C4A77490  15.941  24.463   7.268
 6147POPC   C1B77491  16.358  24.168   6.232
 6147POPC   C2B77492  16.505  24.245   6.665
 6147POPC   C3B77493  16.358  24.241   7.090
 6147POPC   C4B77494  16.404  24.452   7.465
 6148POPC   NC377495  33.661  38.828   5.363
 6148POPC   PO477496  33.629  39.484   5.356
 6148POPC   GL177497  33.664  39.295   5.742
 6148POPC   GL277498  33.429  39.028   5.771
 6148POPC   C1A77499  33.867  39.289   6.163
 6148POPC   D2A77500  34.006  39.190   6.584
 6148POPC   C3A77501  33.849  39.395   6.939
 6148POPC   C4A77502  33.996  39.392   7.328
 6148POPC   C1B77503  33.548  38.897   6.195
 6148POPC   C2B77504  33.354  38.880   6.578
 6148POPC   C3B77505  33.493  39.002   6.968
 6148POPC   C4B77506  33.529  38.805   7.356
 6149POPC   NC377507  29.612  34.519   5.355
 6149POPC   PO477508  29.461  35.116   5.630
 6149POPC   GL177509  29.750  34.764   5.789
 6149POPC   GL277510  29.702  34.377   5.878
 6149POPC   C1A77511  30.017  34.700   6.164
 6149POPC   D2A77512  30.023  34.594   6.626
 6149POPC   C3A77513  29.873  34.922   6.937
 6149POPC   C4A77514  30.197  34.907   7.221
 6149POPC   C1B77515  30.071  34.173   6.190
 6149POPC   C2B77516  30.387  34.199   6.571
 6149POPC   C3B77517  30.243  34.211   7.017
 6149POPC   C4B77518  29.872  34.461   7.146
 6150POPC   NC377519  19.860  11.967   5.308
 6150POPC   PO477520  20.141  12.570   5.377
 6150POPC   GL177521  19.986  12.266   5.741
 6150POPC   GL277522  19.729  11.986   5.810
 6150POPC   C1A77523  20.098  12.190   6.200
 6150POPC   D2A77524  20.307  12.072   6.603
 6150POPC   C3A77525  20.135  12.252   7.003
 6150POPC   C4A77526  20.166  12.110   7.470
 6150POPC   C1B77527  19.581  12.085   6.221
 6150POPC   C2B77528  19.788  11.953   6.578
 6150POPC   C3B77529  19.709  11.721   6.929
 6150POPC   C4B77530  19.702  12.054   7.242
 6151POPC   NC377531   7.141  44.728   5.373
 6151POPC   PO477532   7.549  44.132   5.347
 6151POPC   GL177533   7.558  44.500   5.662
 6151POPC   GL277534   7.858  44.728   5.720
 6151POPC   C1A77535   7.349  44.612   6.061
 6151POPC   D2A77536   7.274  44.415   6.471
 6151POPC   C3A77537   7.195  44.656   6.821
 6151POPC   C4A77538   7.387  44.617   7.221
 6151POPC   C1B77539   8.003  44.911   6.162
 6151POPC   C2B77540   7.917   0.093   6.591
 6151POPC   C3B77541   7.578   0.081   6.904
 6151POPC   C4B77542   7.630   0.029   7.359
 6152POPC   NC377543  25.494  44.889   5.413
 6152POPC   PO477544  25.138  44.321   5.402
 6152POPC   GL177545  25.039  44.483   5.818
 6152POPC   GL277546  25.256  44.767   5.879
 6152POPC   C1A77547  25.091  44.395   6.259
 6152POPC   D2A77548  24.987  44.623   6.623
 6152POPC   C3A77549  25.234  44.550   6.999
 6152POPC   C4A77550  25.124  44.621   7.443
 6152POPC   C1B77551  25.432  44.826   6.313
 6152POPC   C2B77552  25.345  44.984   6.745
 6152POPC   C3B77553  25.319   0.029   7.190
 6152POPC   C4B77554  25.398   0.045   7.621
 6153POPC   NC377555  32.593   9.972   5.392
 6153POPC   PO477556  31.910   9.890   5.372
 6153POPC   GL177557  32.052   9.776   5.794
 6153POPC   GL277558  32.383   9.699   5.861
 6153POPC   C1A77559  32.133   9.972   6.227
 6153POPC   D2A77560  32.391   9.917   6.621
 6153POPC   C3A77561  32.140   9.930   7.034
 6153POPC   C4A77562  32.063  10.062   7.490
 6153POPC   C1B77563  32.380   9.507   6.277
 6153POPC   C2B77564  32.410   9.373   6.720
 6153POPC   C3B77565  32.600   9.647   7.017
 6153POPC   C4B77566  32.718   9.643   7.403
 6154POPC   NC377567   8.631  18.335   5.448
 6154POPC   PO477568   7.937  18.195   5.413
 6154POPC   GL177569   8.095  18.312   5.839
 6154POPC   GL277570   8.422  18.119   5.866
 6154POPC   C1A77571   8.246  18.450   6.260
 6154POPC   D2A77572   8.279  18.722   6.607
 6154POPC   C3A77573   8.285  18.429   6.943
 6154POPC   C4A77574   8.064  18.285   7.262
 6154POPC   C1B77575   8.259  17.952   6.248
 6154POPC   C2B77576   8.317  17.897   6.699
 6154POPC   C3B77577   8.447  17.960   7.144
 6154POPC   C4B77578   8.292  17.887   7.586
 6155POPC   NC377579  43.060  27.868   5.475
 6155POPC   PO477580  43.313  27.227   5.558
 6155POPC   GL177581  43.363  27.450   5.956
 6155POPC   GL277582  43.058  27.674   5.949
 6155POPC   C1A77583  43.304  27.450   6.426
 6155POPC   D2A77584  43.024  27.213   6.704
 6155POPC   C3A77585  42.839  27.367   7.089
 6155POPC   C4A77586  43.162  27.393   7.400
 6155POPC   C1B77587  42.898  27.949   6.265
 6155POPC   C2B77588  43.177  27.923   6.611
 6155POPC   C3B77589  43.227  27.692   6.973
 6155POPC   C4B77590  42.958  27.840   7.336
 6156POPC   NC377591   8.540   9.681   5.414
 6156POPC   PO477592   7.914   9.934   5.429
 6156POPC   GL177593   7.947   9.685   5.790
 6156POPC   GL277594   8.277   9.801   5.820
 6156POPC   C1A77595   8.127   9.517   6.192
 6156POPC   D2A77596   8.275   9.678   6.616
 6156POPC   C3A77597   7.965   9.829   6.928
 6156POPC   C4A77598   8.087   9.731   7.335
 6156POPC   C1B77599   8.337  10.016   6.204
 6156POPC   C2B77600   8.470  10.185   6.593
 6156POPC   C3B77601   8.422  10.047   7.004
 6156POPC   C4B77602   8.502  10.010   7.424
 6157POPC   NC377603  33.186  36.150   4.959
 6157POPC   PO477604  33.417  36.342   5.555
 6157POPC   GL177605  33.141  36.071   5.832
 6157POPC   GL277606  33.049  36.298   6.071
 6157POPC   C1A77607  33.164  35.850   6.248
 6157POPC   D2A77608  33.336  36.045   6.626
 6157POPC   C3A77609  33.135  36.021   7.046
 6157POPC   C4A77610  33.099  36.079   7.535
 6157POPC   C1B77611  32.818  36.599   6.247
 6157POPC   C2B77612  32.788  36.767   6.630
 6157POPC   C3B77613  32.677  36.614   7.007
 6157POPC   C4B77614  32.746  36.428   7.402
 6158POPC   NC377615  44.955  12.845   5.386
 6158POPC   PO477616  44.334  13.052   5.525
 6158POPC   GL177617  44.557  12.770   5.820
 6158POPC   GL277618  44.869  12.612   5.859
 6158POPC   C1A77619  44.494  12.561   6.237
 6158POPC   D2A77620  44.716  12.369   6.611
 6158POPC   C3A77621  44.673  12.574   6.996
 6158POPC   C4A77622  44.773  12.952   7.152
 6158POPC   C1B77623  44.994  12.649   6.279
 6158POPC   C2B77624   0.080  12.776   6.678
 6158POPC   C3B77625   0.173  12.563   7.008
 6158POPC   C4B77626   0.091  12.535   7.398
 6159POPC   NC377627  18.078   4.782   5.430
 6159POPC   PO477628  18.256   5.415   5.393
 6159POPC   GL177629  18.244   5.122   5.771
 6159POPC   GL277630  18.575   5.045   5.878
 6159POPC   C1A77631  18.211   4.944   6.202
 6159POPC   D2A77632  18.449   5.039   6.589
 6159POPC   C3A77633  18.132   5.194   6.846
 6159POPC   C4A77634  18.016   5.016   7.226
 6159POPC   C1B77635  18.481   5.384   6.188
 6159POPC   C2B77636  18.424   5.567   6.611
 6159POPC   C3B77637  18.554   5.456   7.004
 6159POPC   C4B77638  18.521   5.030   7.152
 6160POPC   NC377639   9.476  34.575   5.484
 6160POPC   PO477640  10.018  34.910   5.189
 6160POPC   GL177641   9.985  34.565   5.677
 6160POPC   GL277642   9.662  34.517   5.933
 6160POPC   C1A77643  10.048  34.617   6.215
 6160POPC   D2A77644  10.092  34.391   6.624
 6160POPC   C3A77645  10.002  34.459   7.087
 6160POPC   C4A77646   9.958  34.347   7.559
 6160POPC   C1B77647   9.615  34.449   6.387
 6160POPC   C2B77648   9.741  34.767   6.702
 6160POPC   C3B77649   9.561  34.689   7.108
 6160POPC   C4B77650   9.286  34.312   7.170
 6161POPC   NC377651  30.361   2.137   5.474
 6161POPC   PO477652  30.923   1.777   5.534
 6161POPC   GL177653  31.021   2.124   5.807
 6161POPC   GL277654  30.763   2.350   5.827
 6161POPC   C1A77655  31.063   2.060   6.263
 6161POPC   D2A77656  30.854   1.686   6.473
 6161POPC   C3A77657  30.595   1.698   6.853
 6161POPC   C4A77658  30.760   1.844   7.233
 6161POPC   C1B77659  30.550   2.125   6.158
 6161POPC   C2B77660  30.560   2.147   6.592
 6161POPC   C3B77661  30.251   2.200   6.878
 6161POPC   C4B77662  30.274   2.341   7.299
 6162POPC   NC377663  28.426  27.366   5.606
 6162POPC   PO477664  28.265  26.691   5.593
 6162POPC   GL177665  28.494  26.748   5.904
 6162POPC   GL277666  28.738  26.966   5.843
 6162POPC   C1A77667  28.313  26.641   6.281
 6162POPC   D2A77668  28.061  26.808   6.573
 6162POPC   C3A77669  28.298  26.800   6.948
 6162POPC   C4A77670  28.498  26.575   7.281
 6162POPC   C1B77671  28.888  27.003   6.274
 6162POPC   C2B77672  28.673  27.017   6.657
 6162POPC   C3B77673  28.600  27.238   7.040
 6162POPC   C4B77674  28.641  27.075   7.423
 6163POPC   NC377675  44.268   0.630   5.455
 6163POPC   PO477676  44.028   0.022   5.321
 6163POPC   GL177677  43.950   0.226   5.762
 6163POPC   GL277678  44.037   0.580   5.909
 6163POPC   C1A77679  43.812   0.128   6.211
 6163POPC   D2A77680  43.715   0.039   6.676
 6163POPC   C3A77681  43.942   0.349   6.963
 6163POPC   C4A77682  43.787   0.584   7.320
 6163POPC   C1B77683  44.326   0.764   6.241
 6163POPC   C2B77684  44.359   0.633   6.702
 6163POPC   C3B77685  44.293   0.734   7.134
 6163POPC   C4B77686  44.219   0.679   7.561
 6164POPC   NC377687   6.407  35.522   5.455
 6164POPC   PO477688   6.497  34.873   5.794
 6164POPC   GL177689   6.680  35.292   5.931
 6164POPC   GL277690   6.758  35.651   5.810
 6164POPC   C1A77691   6.916  35.478   6.266
 6164POPC   D2A77692   7.004  35.360   6.688
 6164POPC   C3A77693   6.846  35.046   6.957
 6164POPC   C4A77694   6.756  35.175   7.358
 6164POPC   C1B77695   6.429  35.682   6.139
 6164POPC   C2B77696   6.442  35.436   6.535
 6164POPC   C3B77697   6.473  35.414   6.990
 6164POPC   C4B77698   6.447  35.590   7.437
 6165POPC   NC377699  13.357  18.417   5.524
 6165POPC   PO477700  14.093  18.572   5.455
 6165POPC   GL177701  13.785  18.460   5.828
 6165POPC   GL277702  13.560  18.156   5.933
 6165POPC   C1A77703  13.640  18.493   6.281
 6165POPC   D2A77704  13.570  18.183   6.626
 6165POPC   C3A77705  13.556  18.265   7.060
 6165POPC   C4A77706  13.890  18.542   7.149
 6165POPC   C1B77707  13.885  18.016   6.187
 6165POPC   C2B77708  13.946  17.847   6.586
 6165POPC   C3B77709  14.031  17.896   6.998
 6165POPC   C4B77710  13.963  18.055   7.361
 6166POPC   NC377711   2.086  35.980   5.393
 6166POPC   PO477712   1.748  36.538   5.280
 6166POPC   GL177713   1.734  36.281   5.717
 6166POPC   GL277714   2.069  36.177   5.868
 6166POPC   C1A77715   1.689  36.170   6.207
 6166POPC   D2A77716   1.772  35.972   6.647
 6166POPC   C3A77717   1.765  36.237   7.004
 6166POPC   C4A77718   2.098  36.446   7.244
 6166POPC   C1B77719   2.321  36.040   6.241
 6166POPC   C2B77720   2.432  36.078   6.709
 6166POPC   C3B77721   2.165  35.960   7.069
 6166POPC   C4B77722   1.899  36.001   7.463
 6167POPC   NC377723  22.631   5.392   5.571
 6167POPC   PO477724  21.896   5.404   5.437
 6167POPC   GL177725  22.067   5.231   5.836
 6167POPC   GL277726  22.372   5.001   5.795
 6167POPC   C1A77727  22.210   5.164   6.256
 6167POPC   D2A77728  22.074   5.094   6.643
 6167POPC   C3A77729  22.259   5.283   6.967
 6167POPC   C4A77730  22.036   5.092   7.257
 6167POPC   C1B77731  22.428   4.708   6.144
 6167POPC   C2B77732  22.514   4.793   6.564
 6167POPC   C3B77733  22.368   4.767   6.958
 6167POPC   C4B77734  22.415   4.555   7.310
 6168POPC   NC377735   3.993  30.747   5.329
 6168POPC   PO477736   4.586  30.658   5.443
 6168POPC   GL177737   4.296  30.767   5.788
 6168POPC   GL277738   4.107  30.486   5.887
 6168POPC   C1A77739   4.221  30.873   6.237
 6168POPC   D2A77740   4.104  30.625   6.623
 6168POPC   C3A77741   4.291  30.852   6.985
 6168POPC   C4A77742   4.478  30.970   7.371
 6168POPC   C1B77743   4.477  30.431   6.188
 6168POPC   C2B77744   4.619  30.563   6.636
 6168POPC   C3B77745   4.464  30.367   7.032
 6168POPC   C4B77746   4.409  30.385   7.481
 6169POPC   NC377747  40.059  33.524   5.450
 6169POPC   PO477748  39.849  34.165   5.491
 6169POPC   GL177749  39.797  33.859   5.839
 6169POPC   GL277750  39.614  33.524   5.756
 6169POPC   C1A77751  39.999  33.872   6.262
 6169POPC   D2A77752  40.092  33.591   6.600
 6169POPC   C3A77753  40.277  33.706   6.968
 6169POPC   C4A77754  40.102  33.977   7.278
 6169POPC   C1B77755  39.707  33.440   6.207
 6169POPC   C2B77756  39.612  33.421   6.665
 6169POPC   C3B77757  39.735  33.711   7.003
 6169POPC   C4B77758  39.761  33.653   7.458
 6170POPC   NC377759  21.226  19.452   5.324
 6170POPC   PO477760  21.473  18.823   5.623
 6170POPC   GL177761  21.326  19.014   5.957
 6170POPC   GL277762  21.104  19.311   5.858
 6170POPC   C1A77763  21.628  19.085   6.289
 6170POPC   D2A77764  21.497  18.904   6.635
 6170POPC   C3A77765  21.752  18.955   6.942
 6170POPC   C4A77766  21.603  18.695   7.232
 6170POPC   C1B77767  21.220  19.389   6.306
 6170POPC   C2B77768  21.496  19.416   6.700
 6170POPC   C3B77769  21.270  19.294   7.078
 6170POPC   C4B77770  21.252  19.445   7.537
 6171POPC   NC377771   4.423   0.676   5.349
 6171POPC   PO477772   4.071   0.118   5.617
 6171POPC   GL177773   4.229   0.304   5.953
 6171POPC   GL277774   4.420   0.584   5.850
 6171POPC   C1A77775   4.182   0.309   6.370
 6171POPC   D2A77776   4.411   0.198   6.714
 6171POPC   C3A77777   4.119   0.353   7.025
 6171POPC   C4A77778   4.214   0.436   7.444
 6171POPC   C1B77779   4.640   0.503   6.238
 6171POPC   C2B77780   4.551   0.695   6.645
 6171POPC   C3B77781   4.596   0.592   7.121
 6171POPC   C4B77782   4.638   0.683   7.624
 6172POPC   NC377783  29.336  18.191   5.525
 6172POPC   PO477784  28.830  18.395   5.327
 6172POPC   GL177785  28.934  18.269   5.832
 6172POPC   GL277786  29.293  18.354   6.005
 6172POPC   C1A77787  29.009  18.096   6.309
 6172POPC   D2A77788  28.815  18.200   6.717
 6172POPC   C3A77789  28.917  17.951   7.094
 6172POPC   C4A77790  28.880  18.032   7.540
 6172POPC   C1B77791  29.449  18.326   6.434
 6172POPC   C2B77792  29.516  17.966   6.720
 6172POPC   C3B77793  29.424  18.047   7.120
 6172POPC   C4B77794  29.266  18.442   7.152
 6173POPC   NC377795  39.712   7.487   5.558
 6173POPC   PO477796  39.001   7.553   5.504
 6173POPC   GL177797  39.301   7.417   5.854
 6173POPC   GL277798  39.569   7.611   6.009
 6173POPC   C1A77799  39.385   7.214   6.282
 6173POPC   D2A77800  39.248   7.210   6.733
 6173POPC   C3A77801  39.496   7.428   7.074
 6173POPC   C4A77802  39.301   7.294   7.476
 6173POPC   C1B77803  39.304   7.823   6.267
 6173POPC   C2B77804  39.306   7.733   6.706
 6173POPC   C3B77805  39.092   7.731   7.127
 6173POPC   C4B77806  39.037   7.744   7.584
 6174POPC   NC377807  36.496   2.800   5.547
 6174POPC   PO477808  35.847   2.736   5.756
 6174POPC   GL177809  36.140   2.950   5.974
 6174POPC   GL277810  36.343   2.634   6.005
 6174POPC   C1A77811  35.987   2.940   6.410
 6174POPC   D2A77812  36.010   2.608   6.724
 6174POPC   C3A77813  36.074   2.752   7.159
 6174POPC   C4A77814  36.054   3.091   7.465
 6174POPC   C1B77815  36.485   2.819   6.368
 6174POPC   C2B77816  36.368   2.977   6.778
 6174POPC   C3B77817  36.509   3.029   7.194
 6174POPC   C4B77818  36.479   2.765   7.560
 6175POPC   NC377819  24.760  25.210   5.280
 6175POPC   PO477820  24.175  25.371   5.519
 6175POPC   GL177821  24.421  25.160   5.792
 6175POPC   GL277822  24.513  25.426   6.006
 6175POPC   C1A77823  24.343  25.011   6.214
 6175POPC   D2A77824  24.576  25.105   6.559
 6175POPC   C3A77825  24.383  25.256   6.904
 6175POPC   C4A77826  24.515  25.068   7.287
 6175POPC   C1B77827  24.891  25.451   6.307
 6175POPC   C2B77828  25.114  25.445   6.694
 6175POPC   C3B77829  24.863  25.360   7.039
 6175POPC   C4B77830  24.598  25.565   7.333
 6176POPC   NC377831  19.011  17.445   5.619
 6176POPC   PO477832  19.523  17.099   5.621
 6176POPC   GL177833  19.370  17.342   5.970
 6176POPC   GL277834  19.372  17.691   5.935
 6176POPC   C1A77835  19.048  17.425   6.305
 6176POPC   D2A77836  18.968  17.628   6.706
 6176POPC   C3A77837  18.798  17.415   7.087
 6176POPC   C4A77838  18.981  17.362   7.531
 6176POPC   C1B77839  19.570  17.830   6.311
 6176POPC   C2B77840  19.423  17.948   6.733
 6176POPC   C3B77841  19.339  17.655   7.070
 6176POPC   C4B77842  19.451  17.685   7.507
 6177POPC   NC377843  40.035  15.033   5.342
 6177POPC   PO477844  39.760  15.569   5.680
 6177POPC   GL177845  39.565  15.265   5.919
 6177POPC   GL277846  39.768  14.998   5.808
 6177POPC   C1A77847  39.581  15.274   6.330
 6177POPC   D2A77848  39.964  15.344   6.472
 6177POPC   C3A77849  39.892  15.337   6.877
 6177POPC   C4A77850  40.163  15.283   7.182
 6177POPC   C1B77851  39.980  14.924   6.192
 6177POPC   C2B77852  39.863  14.855   6.621
 6177POPC   C3B77853  39.904  14.852   7.060
 6177POPC   C4B77854  40.276  14.799   7.320
 6178POPC   NC377855  34.560   1.438   5.508
 6178POPC   PO477856  33.932   1.634   5.503
 6178POPC   GL177857  34.150   1.364   5.844
 6178POPC   GL277858  34.324   1.019   5.794
 6178POPC   C1A77859  34.327   1.290   6.273
 6178POPC   D2A77860  34.723   1.397   6.500
 6178POPC   C3A77861  34.690   1.328   6.921
 6178POPC   C4A77862  34.283   1.327   7.093
 6178POPC   C1B77863  34.653   0.914   6.139
 6178POPC   C2B77864  34.831   0.880   6.576
 6178POPC   C3B77865  34.568   0.843   6.951
 6178POPC   C4B77866  34.482   0.890   7.385
 6179POPC   NC377867  18.855  31.189   5.462
 6179POPC   PO477868  18.999  30.503   5.372
 6179POPC   GL177869  19.169  30.613   5.781
 6179POPC   GL277870  19.440  30.356   5.872
 6179POPC   C1A77871  19.049  30.874   6.159
 6179POPC   D2A77872  19.059  30.710   6.589
 6179POPC   C3A77873  19.110  30.904   6.994
 6179POPC   C4A77874  18.806  30.867   7.319
 6179POPC   C1B77875  19.484  30.635   6.262
 6179POPC   C2B77876  19.556  30.718   6.704
 6179POPC   C3B77877  19.366  30.464   6.999
 6179POPC   C4B77878  19.211  30.533   7.383
 6180POPC   NC377879  29.626  26.646   5.459
 6180POPC   PO477880  30.337  26.586   5.392
 6180POPC   GL177881  30.210  26.618   5.830
 6180POPC   GL277882  30.097  26.954   5.833
 6180POPC   C1A77883  29.919  26.543   6.206
 6180POPC   D2A77884  29.633  26.703   6.558
 6180POPC   C3A77885  29.831  26.590   6.975
 6180POPC   C4A77886  30.289  26.703   7.056
 6180POPC   C1B77887  29.890  27.041   6.234
 6180POPC   C2B77888  30.030  26.993   6.684
 6180POPC   C3B77889  29.946  27.059   7.151
 6180POPC   C4B77890  29.985  27.219   7.588
 6181POPC   NC377891  29.406  35.920   5.384
 6181POPC   PO477892  28.909  36.321   5.530
 6181POPC   GL177893  28.975  36.054   5.868
 6181POPC   GL277894  29.261  36.152   5.902
 6181POPC   C1A77895  28.936  36.087   6.305
 6181POPC   D2A77896  29.166  36.040   6.664
 6181POPC   C3A77897  28.978  36.169   7.061
 6181POPC   C4A77898  28.907  36.242   7.514
 6181POPC   C1B77899  29.404  36.349   6.293
 6181POPC   C2B77900  29.658  36.177   6.621
 6181POPC   C3B77901  29.568  36.066   7.015
 6181POPC   C4B77902  29.464  36.297   7.349
 6182POPC   NC377903   8.323   1.854   5.349
 6182POPC   PO477904   8.085   2.472   5.400
 6182POPC   GL177905   8.318   2.208   5.764
 6182POPC   GL277906   8.426   1.827   5.842
 6182POPC   C1A77907   8.127   2.092   6.174
 6182POPC   D2A77908   8.275   2.112   6.582
 6182POPC   C3A77909   8.030   2.153   6.936
 6182POPC   C4A77910   8.336   2.279   7.225
 6182POPC   C1B77911   8.204   1.591   6.180
 6182POPC   C2B77912   8.079   1.638   6.601
 6182POPC   C3B77913   8.296   1.722   6.978
 6182POPC   C4B77914   8.078   1.764   7.363
 6183POPC   NC377915  42.907   0.975   5.475
 6183POPC   PO477916  43.390   1.479   5.392
 6183POPC   GL177917  43.204   1.327   5.782
 6183POPC   GL277918  42.850   1.432   5.793
 6183POPC   C1A77919  43.389   1.171   6.176
 6183POPC   D2A77920  43.405   1.354   6.590
 6183POPC   C3A77921  43.414   1.170   6.952
 6183POPC   C4A77922  43.348   0.809   7.187
 6183POPC   C1B77923  42.894   1.311   6.239
 6183POPC   C2B77924  42.895   1.425   6.665
 6183POPC   C3B77925  42.901   1.277   7.096
 6183POPC   C4B77926  42.855   1.413   7.515
 6184POPC   NC377927  14.507  10.819   5.493
 6184POPC   PO477928  14.220  10.128   5.646
 6184POPC   GL177929  14.350  10.495   5.843
 6184POPC   GL277930  14.104  10.724   5.786
 6184POPC   C1A77931  14.477  10.575   6.262
 6184POPC   D2A77932  14.353  10.420   6.667
 6184POPC   C3A77933  14.635  10.384   7.027
 6184POPC   C4A77934  14.650  10.549   7.448
 6184POPC   C1B77935  13.956  10.506   6.183
 6184POPC   C2B77936  13.802  10.419   6.609
 6184POPC   C3B77937  13.982  10.555   6.987
 6184POPC   C4B77938  14.189  10.406   7.282
 6185POPC   NC377939   8.561   2.529   5.438
 6185POPC   PO477940   9.306   2.666   5.393
 6185POPC   GL177941   9.097   2.558   5.784
 6185POPC   GL277942   8.712   2.602   5.922
 6185POPC   C1A77943   9.138   2.647   6.220
 6185POPC   D2A77944   9.087   2.941   6.554
 6185POPC   C3A77945   9.124   2.666   6.917
 6185POPC   C4A77946   9.316   2.866   7.222
 6185POPC   C1B77947   8.624   2.772   6.365
 6185POPC   C2B77948   8.653   2.838   6.834
 6185POPC   C3B77949   8.784   2.826   7.277
 6185POPC   C4B77950   8.610   2.580   7.657
 6186POPC   NC377951  20.205  31.517   5.224
 6186POPC   PO477952  20.843  31.348   5.165
 6186POPC   GL177953  20.652  31.533   5.589
 6186POPC   GL277954  20.339  31.702   5.821
 6186POPC   C1A77955  20.769  31.516   6.043
 6186POPC   D2A77956  20.649  31.671   6.463
 6186POPC   C3A77957  20.825  31.406   6.778
 6186POPC   C4A77958  20.794  31.464   7.206
 6186POPC   C1B77959  20.277  31.398   6.221
 6186POPC   C2B77960  20.283  31.195   6.627
 6186POPC   C3B77961  20.311  31.412   7.023
 6186POPC   C4B77962  20.237  31.556   7.428
 6187POPC   NC377963  29.305  16.032   5.110
 6187POPC   PO477964  28.771  16.073   5.493
 6187POPC   GL177965  29.044  15.964   5.871
 6187POPC   GL277966  28.927  16.214   6.074
 6187POPC   C1A77967  29.298  15.961   6.315
 6187POPC   D2A77968  29.389  16.243   6.720
 6187POPC   C3A77969  29.483  16.029   7.126
 6187POPC   C4A77970  29.169  15.720   7.274
 6187POPC   C1B77971  28.777  15.883   6.377
 6187POPC   C2B77972  28.978  15.873   6.795
 6187POPC   C3B77973  29.014  16.190   7.126
 6187POPC   C4B77974  29.087  16.124   7.568
 6188POPC   NC377975  26.044   1.631   5.302
 6188POPC   PO477976  26.227   2.217   5.166
 6188POPC   GL177977  26.091   2.172   5.612
 6188POPC   GL277978  25.802   1.936   5.666
 6188POPC   C1A77979  26.154   2.092   6.085
 6188POPC   D2A77980  26.141   1.869   6.516
 6188POPC   C3A77981  26.019   2.086   6.923
 6188POPC   C4A77982  26.151   2.300   7.336
 6188POPC   C1B77983  25.748   1.766   6.108
 6188POPC   C2B77984  25.607   1.849   6.553
 6188POPC   C3B77985  25.653   1.687   6.975
 6188POPC   C4B77986  25.971   1.703   7.295
 6189POPC   NC377987   8.621  42.881   5.287
 6189POPC   PO477988   9.120  43.309   5.590
 6189POPC   GL177989   8.864  43.284   5.914
 6189POPC   GL277990   8.781  42.932   5.829
 6189POPC   C1A77991   8.842  43.416   6.341
 6189POPC   D2A77992   8.676  43.176   6.688
 6189POPC   C3A77993   8.697  43.241   7.140
 6189POPC   C4A77994   8.760  42.938   7.502
 6189POPC   C1B77995   8.972  42.905   6.274
 6189POPC   C2B77996   8.991  42.748   6.713
 6189POPC   C3B77997   9.084  42.921   7.113
 6189POPC   C4B77998   9.107  43.284   7.451
 6190POPC   NC377999  10.656  40.448   5.216
 6190POPC   PO478000  10.378  40.892   5.677
 6190POPC   GL178001  10.687  40.914   5.946
 6190POPC   GL278002  10.824  40.591   5.926
 6190POPC   C1A78003  10.599  41.054   6.352
 6190POPC   D2A78004  10.295  40.819   6.567
 6190POPC   C3A78005  10.503  40.630   6.880
 6190POPC   C4A78006  10.548  40.852   7.282
 6190POPC   C1B78007  10.656  40.502   6.347
 6190POPC   C2B78008  10.246  40.313   6.473
 6190POPC   C3B78009  10.075  40.281   6.873
 6190POPC   C4B78010  10.267  40.375   7.243
 6191POPC   NC378011  15.696   5.219   5.368
 6191POPC   PO478012  15.028   5.337   5.484
 6191POPC   GL178013  15.317   5.239   5.866
 6191POPC   GL278014  15.557   4.983   5.803
 6191POPC   C1A78015  15.412   5.147   6.335
 6191POPC   D2A78016  15.111   5.063   6.663
 6191POPC   C3A78017  15.147   5.193   7.102
 6191POPC   C4A78018  15.256   4.950   7.477
 6191POPC   C1B78019  15.638   4.713   6.160
 6191POPC   C2B78020  15.454   4.668   6.610
 6191POPC   C3B78021  15.530   4.667   7.092
 6191POPC   C4B78022  15.570   4.570   7.555
 6192POPC   NC378023  30.904  18.647   5.402
 6192POPC   PO478024  30.533  19.226   5.378
 6192POPC   GL178025  30.595  18.994   5.775
 6192POPC   GL278026  30.943  18.890   5.842
 6192POPC   C1A78027  30.646  18.992   6.226
 6192POPC   D2A78028  30.828  18.934   6.606
 6192POPC   C3A78029  30.598  19.085   6.932
 6192POPC   C4A78030  30.593  18.941   7.291
 6192POPC   C1B78031  31.170  18.822   6.226
 6192POPC   C2B78032  31.305  18.742   6.646
 6192POPC   C3B78033  31.075  18.746   7.046
 6192POPC   C4B78034  31.049  18.831   7.489
 6193POPC   NC378035  23.607  41.009   5.373
 6193POPC   PO478036  23.973  40.497   5.459
 6193POPC   GL178037  23.812  40.708   5.800
 6193POPC   GL278038  23.458  40.690   5.775
 6193POPC   C1A78039  23.882  40.673   6.235
 6193POPC   D2A78040  24.107  40.761   6.597
 6193POPC   C3A78041  23.948  40.626   6.969
 6193POPC   C4A78042  24.172  40.851   7.278
 6193POPC   C1B78043  23.403  40.816   6.222
 6193POPC   C2B78044  23.520  40.696   6.666
 6193POPC   C3B78045  23.476  40.794   7.139
 6193POPC   C4B78046  23.317  40.968   7.560
 6194POPC   NC378047  33.139   6.175   5.592
 6194POPC   PO478048  32.866   5.530   5.566
 6194POPC   GL178049  33.061   5.732   5.929
 6194POPC   GL278050  32.811   6.010   5.970
 6194POPC   C1A78051  32.982   5.776   6.402
 6194POPC   D2A78052  32.794   5.755   6.812
 6194POPC   C3A78053  32.966   5.693   7.177
 6194POPC   C4A78054  33.361   5.638   7.336
 6194POPC   C1B78055  32.901   6.286   6.330
 6194POPC   C2B78056  33.095   6.196   6.752
 6194POPC   C3B78057  32.969   6.213   7.210
 6194POPC   C4B78058  32.799   5.977   7.578
 6195POPC   NC378059  34.100   7.460   5.455
 6195POPC   PO478060  33.435   7.598   5.508
 6195POPC   GL178061  33.732   7.501   5.827
 6195POPC   GL278062  33.597   7.321   6.063
 6195POPC   C1A78063  33.915   7.734   6.201
 6195POPC   D2A78064  34.178   7.759   6.568
 6195POPC   C3A78065  33.953   7.668   6.922
 6195POPC   C4A78066  33.537   7.514   7.085
 6195POPC   C1B78067  34.017   7.241   6.225
 6195POPC   C2B78068  33.991   7.203   6.671
 6195POPC   C3B78069  33.609   7.062   6.852
 6195POPC   C4B78070  33.361   7.070   7.218
 6196POPC   NC378071  39.627  18.712   5.670
 6196POPC   PO478072  39.247  18.996   5.219
 6196POPC   GL178073  39.163  19.017   5.687
 6196POPC   GL278074  38.881  18.799   5.665
 6196POPC   C1A78075  39.262  19.206   6.129
 6196POPC   D2A78076  39.325  19.445   6.528
 6196POPC   C3A78077  39.224  19.209   6.897
 6196POPC   C4A78078  39.116  19.129   7.344
 6196POPC   C1B78079  39.002  18.759   6.105
 6196POPC   C2B78080  39.066  18.895   6.531
 6196POPC   C3B78081  38.952  18.793   6.975
 6196POPC   C4B78082  39.204  18.627   7.342
 6197POPC   NC378083  42.541   6.885   5.522
 6197POPC   PO478084  42.222   6.346   5.622
 6197POPC   GL178085  42.016   6.377   6.017
 6197POPC   GL278086  42.206   6.681   6.070
 6197POPC   C1A78087  41.974   6.424   6.467
 6197POPC   D2A78088  42.314   6.674   6.646
 6197POPC   C3A78089  42.454   6.559   7.063
 6197POPC   C4A78090  42.395   6.349   7.454
 6197POPC   C1B78091  42.645   6.720   6.235
 6197POPC   C2B78092  42.836   6.687   6.656
 6197POPC   C3B78093  42.818   6.921   7.028
 6197POPC   C4B78094  42.719   6.802   7.460
 6198POPC   NC378095  21.539  16.594   5.416
 6198POPC   PO478096  20.938  16.720   5.667
 6198POPC   GL178097  21.335  16.662   5.885
 6198POPC   GL278098  21.540  16.958   5.783
 6198POPC   C1A78099  21.533  16.690   6.300
 6198POPC   D2A78100  21.358  16.810   6.722
 6198POPC   C3A78101  21.429  16.705   7.173
 6198POPC   C4A78102  21.152  16.537   7.532
 6198POPC   C1B78103  21.430  17.180   6.153
 6198POPC   C2B78104  21.581  17.247   6.557
 6198POPC   C3B78105  21.445  17.230   7.013
 6198POPC   C4B78106  21.574  17.163   7.452
 6199POPC   NC378107  22.750  36.384   5.490
 6199POPC   PO478108  23.129  35.789   5.354
 6199POPC   GL178109  23.112  35.992   5.754
 6199POPC   GL278110  22.758  36.044   5.880
 6199POPC   C1A78111  23.109  35.824   6.200
 6199POPC   D2A78112  22.993  36.022   6.607
 6199POPC   C3A78113  23.261  36.087   6.988
 6199POPC   C4A78114  23.279  35.969   7.455
 6199POPC   C1B78115  22.566  35.951   6.286
 6199POPC   C2B78116  22.511  35.869   6.737
 6199POPC   C3B78117  22.729  36.136   7.077
 6199POPC   C4B78118  22.803  36.158   7.524
 6200POPC   NC378119  26.013  14.930   5.235
 6200POPC   PO478120  25.944  14.274   5.415
 6200POPC   GL178121  26.117  14.289   5.893
 6200POPC   GL278122  26.389  14.538   6.005
 6200POPC   C1A78123  25.943  14.483   6.258
 6200POPC   D2A78124  25.841  14.694   6.612
 6200POPC   C3A78125  25.772  14.439   6.953
 6200POPC   C4A78126  25.919  14.653   7.291
 6200POPC   C1B78127  26.403  14.233   6.319
 6200POPC   C2B78128  26.224  14.325   6.720
 6200POPC   C3B78129  26.344  14.408   7.145
 6200POPC   C4B78130  26.498  14.124   7.445
 6201POPC   NC378131  20.038   3.904   5.300
 6201POPC   PO478132  19.584   3.455   5.510
 6201POPC   GL178133  19.703   3.603   5.861
 6201POPC   GL278134  20.009   3.518   5.871
 6201POPC   C1A78135  19.664   3.443   6.257
 6201POPC   D2A78136  19.830   3.526   6.644
 6201POPC   C3A78137  19.554   3.459   6.978
 6201POPC   C4A78138  19.744   3.795   7.217
 6201POPC   C1B78139  20.088   3.158   6.174
 6201POPC   C2B78140  20.280   3.128   6.563
 6201POPC   C3B78141  20.121   3.174   6.978
 6201POPC   C4B78142  20.334   3.071   7.350
 6202POPC   NC378143  11.179  20.985   5.469
 6202POPC   PO478144  11.667  20.520   5.421
 6202POPC   GL178145  11.387  20.599   5.748
 6202POPC   GL278146  11.288  20.276   5.788
 6202POPC   C1A78147  11.404  20.622   6.188
 6202POPC   D2A78148  11.263  20.879   6.501
 6202POPC   C3A78149  11.290  20.831   6.923
 6202POPC   C4A78150  10.998  21.004   7.223
 6202POPC   C1B78151  11.189  20.176   6.224
 6202POPC   C2B78152  11.233  20.370   6.626
 6202POPC   C3B78153  11.480  20.340   7.004
 6202POPC   C4B78154  11.308  20.213   7.355
 6203POPC   NC378155  37.496  31.744   5.155
 6203POPC   PO478156  38.006  31.416   5.381
 6203POPC   GL178157  37.939  31.580   5.782
 6203POPC   GL278158  37.634  31.722   5.689
 6203POPC   C1A78159  37.811  31.378   6.184
 6203POPC   D2A78160  37.594  31.365   6.569
 6203POPC   C3A78161  37.826  31.493   6.924
 6203POPC   C4A78162  37.639  31.512   7.325
 6203POPC   C1B78163  37.499  31.785   6.126
 6203POPC   C2B78164  37.525  31.863   6.576
 6203POPC   C3B78165  37.348  31.695   6.950
 6203POPC   C4B78166  37.240  31.843   7.381
 6204POPC   NC378167  26.288  44.318   5.703
 6204POPC   PO478168  26.269  44.828   5.237
 6204POPC   GL178169  26.016  44.797   5.701
 6204POPC   GL278170  25.760   0.063   5.815
 6204POPC   C1A78171  25.881  44.566   6.143
 6204POPC   D2A78172  26.127  44.384   6.514
 6204POPC   C3A78173  26.218  44.603   6.907
 6204POPC   C4A78174  26.141  44.539   7.334
 6204POPC   C1B78175  25.924   0.049   6.236
 6204POPC   C2B78176  25.842  44.844   6.643
 6204POPC   C3B78177  25.754  44.796   7.089
 6204POPC   C4B78178  25.903  44.957   7.495
 6205POPC   NC378179   8.393   0.869   5.504
 6205POPC   PO478180   8.065   1.473   5.403
 6205POPC   GL178181   8.116   1.215   5.789
 6205POPC   GL278182   8.465   1.299   5.853
 6205POPC   C1A78183   8.226   1.039   6.223
 6205POPC   D2A78184   8.359   1.230   6.639
 6205POPC   C3A78185   8.124   1.241   7.053
 6205POPC   C4A78186   7.871   0.988   7.323
 6205POPC   C1B78187   8.693   1.464   6.264
 6205POPC   C2B78188   8.818   1.401   6.704
 6205POPC   C3B78189   8.765   1.541   7.111
 6205POPC   C4B78190   8.472   1.445   7.426
 6206POPC   NC378191   6.140  34.782   5.541
 6206POPC   PO478192   5.772  34.239   5.523
 6206POPC   GL178193   5.813  34.502   5.839
 6206POPC   GL278194   6.150  34.378   5.874
 6206POPC   C1A78195   5.709  34.865   6.134
 6206POPC   D2A78196   5.511  34.874   6.564
 6206POPC   C3A78197   5.838  34.795   6.906
 6206POPC   C4A78198   5.942  34.750   7.358
 6206POPC   C1B78199   5.985  34.424   6.308
 6206POPC   C2B78200   6.030  34.253   6.719
 6206POPC   C3B78201   5.897  34.313   7.121
 6206POPC   C4B78202   6.126  34.314   7.484
 6207POPC   NC378203  25.084  23.313   5.368
 6207POPC   PO478204  25.275  23.932   5.468
 6207POPC   GL178205  25.294  23.609   5.722
 6207POPC   GL278206  25.374  23.874   5.962
 6207POPC   C1A78207  25.322  23.378   6.086
 6207POPC   D2A78208  25.511  23.526   6.431
 6207POPC   C3A78209  25.367  23.366   6.778
 6207POPC   C4A78210  25.387  23.464   7.188
 6207POPC   C1B78211  25.246  23.963   6.374
 6207POPC   C2B78212  25.122  23.825   6.786
 6207POPC   C3B78213  25.089  23.873   7.204
 6207POPC   C4B78214  25.452  24.065   7.298
 6208POPC   NC378215  13.858  21.511   5.392
 6208POPC   PO478216  13.299  21.364   5.474
 6208POPC   GL178217  13.585  21.242   5.789
 6208POPC   GL278218  13.876  21.430   5.890
 6208POPC   C1A78219  13.448  21.257   6.210
 6208POPC   D2A78220  13.503  21.137   6.624
 6208POPC   C3A78221  13.513  21.444   6.922
 6208POPC   C4A78222  13.686  21.321   7.254
 6208POPC   C1B78223  13.795  21.653   6.277
 6208POPC   C2B78224  13.804  21.836   6.718
 6208POPC   C3B78225  13.948  21.739   7.150
 6208POPC   C4B78226  14.130  21.451   7.456
 6209POPC   NC378227  17.785  10.706   5.521
 6209POPC   PO478228  17.454  10.152   5.508
 6209POPC   GL178229  17.557  10.380   5.840
 6209POPC   GL278230  17.223  10.460   5.895
 6209POPC   C1A78231  17.608  10.721   6.155
 6209POPC   D2A78232  17.400  10.796   6.563
 6209POPC   C3A78233  17.535  10.600   6.951
 6209POPC   C4A78234  17.415  10.621   7.382
 6209POPC   C1B78235  17.327  10.320   6.332
 6209POPC   C2B78236  17.516  10.106   6.709
 6209POPC   C3B78237  17.456  10.145   7.175
 6209POPC   C4B78238  17.186  10.203   7.538
 6210POPC   NC378239   6.671  26.412   5.058
 6210POPC   PO478240   6.323  25.908   5.412
 6210POPC   GL178241   6.576  25.951   5.804
 6210POPC   GL278242   6.930  25.820   5.810
 6210POPC   C1A78243   6.526  25.852   6.259
 6210POPC   D2A78244   6.348  25.859   6.685
 6210POPC   C3A78245   6.633  25.911   7.061
 6210POPC   C4A78246   6.475  26.039   7.496
 6210POPC   C1B78247   6.913  26.169   6.148
 6210POPC   C2B78248   6.901  26.102   6.598
 6210POPC   C3B78249   7.092  26.192   6.994
 6210POPC   C4B78250   6.956  26.180   7.398
 6211POPC   NC378251  24.677  42.243   5.551
 6211POPC   PO478252  24.341  42.722   5.415
 6211POPC   GL178253  24.298  42.450   5.813
 6211POPC   GL278254  24.034  42.268   5.747
 6211POPC   C1A78255  24.621  42.304   6.173
 6211POPC   D2A78256  24.721  42.489   6.571
 6211POPC   C3A78257  24.671  42.195   6.878
 6211POPC   C4A78258  24.567  42.292   7.271
 6211POPC   C1B78259  24.134  42.111   6.162
 6211POPC   C2B78260  24.043  41.940   6.556
 6211POPC   C3B78261  24.167  42.108   6.936
 6211POPC   C4B78262  24.141  41.909   7.288
 6212POPC   NC378263   8.664  31.563   5.454
 6212POPC   PO478264   9.324  31.514   5.654
 6212POPC   GL178265   8.981  31.373   5.856
 6212POPC   GL278266   8.761  31.134   5.704
 6212POPC   C1A78267   8.758  31.620   6.151
 6212POPC   D2A78268   8.613  31.680   6.578
 6212POPC   C3A78269   8.937  31.617   6.894
 6212POPC   C4A78270   9.081  31.702   7.303
 6212POPC   C1B78271   8.627  31.123   6.141
 6212POPC   C2B78272   8.803  31.195   6.516
 6212POPC   C3B78273   8.655  31.204   6.904
 6212POPC   C4B78274   8.756  31.283   7.288
 6213POPC   NC378275  17.424  14.117   5.062
 6213POPC   PO478276  17.442  13.616   5.535
 6213POPC   GL178277  17.543  13.733   5.921
 6213POPC   GL278278  17.213  13.761   5.985
 6213POPC   C1A78279  17.650  13.578   6.330
 6213POPC   D2A78280  17.503  13.469   6.740
 6213POPC   C3A78281  17.718  13.626   7.065
 6213POPC   C4A78282  17.673  13.923   7.395
 6213POPC   C1B78283  17.151  13.564   6.359
 6213POPC   C2B78284  17.069  13.762   6.726
 6213POPC   C3B78285  17.233  13.752   7.097
 6213POPC   C4B78286  17.327  13.338   7.220
 6214POPC   NC378287   6.230   0.621   5.540
 6214POPC   PO478288   5.909   0.001   5.497
 6214POPC   GL178289   5.722   0.223   5.871
 6214POPC   GL278290   6.057   0.340   5.940
 6214POPC   C1A78291   5.691   0.466   6.275
 6214POPC   D2A78292   5.884   0.482   6.671
 6214POPC   C3A78293   5.635   0.666   6.984
 6214POPC   C4A78294   5.604   0.549   7.390
 6214POPC   C1B78295   6.308   0.527   6.255
 6214POPC   C2B78296   6.345   0.708   6.667
 6214POPC   C3B78297   6.174   0.664   7.082
 6214POPC   C4B78298   6.034   0.273   7.275
 6215POPC   NC378299  19.979   6.635   5.339
 6215POPC   PO478300  19.428   6.746   5.528
 6215POPC   GL178301  19.676   6.514   5.830
 6215POPC   GL278302  20.055   6.549   5.856
 6215POPC   C1A78303  19.700   6.494   6.279
 6215POPC   D2A78304  19.874   6.731   6.635
 6215POPC   C3A78305  19.699   6.732   7.069
 6215POPC   C4A78306  20.011   6.860   7.353
 6215POPC   C1B78307  20.171   6.311   6.256
 6215POPC   C2B78308  19.972   6.184   6.676
 6215POPC   C3B78309  19.951   6.295   7.131
 6215POPC   C4B78310  20.172   6.144   7.490
 6216POPC   NC378311  27.007  40.804   5.475
 6216POPC   PO478312  26.348  40.735   5.280
 6216POPC   GL178313  26.569  40.693   5.698
 6216POPC   GL278314  26.628  40.992   5.874
 6216POPC   C1A78315  26.621  40.521   6.151
 6216POPC   D2A78316  26.854  40.579   6.582
 6216POPC   C3A78317  26.692  40.574   7.016
 6216POPC   C4A78318  26.893  40.561   7.451
 6216POPC   C1B78319  26.788  41.087   6.335
 6216POPC   C2B78320  26.647  41.027   6.791
 6216POPC   C3B78321  26.756  41.026   7.275
 6216POPC   C4B78322  26.799  41.056   7.728
 6217POPC   NC378323   9.577  18.492   5.162
 6217POPC   PO478324  10.023  18.225   5.585
 6217POPC   GL178325   9.739  18.172   5.919
 6217POPC   GL278326   9.516  18.397   5.747
 6217POPC   C1A78327   9.697  18.158   6.368
 6217POPC   D2A78328   9.628  18.095   6.801
 6217POPC   C3A78329   9.838  18.318   7.127
 6217POPC   C4A78330   9.852  18.083   7.509
 6217POPC   C1B78331   9.327  18.443   6.166
 6217POPC   C2B78332   9.475  18.566   6.595
 6217POPC   C3B78333   9.369  18.530   7.053
 6217POPC   C4B78334   9.545  18.499   7.508
 6218POPC   NC378335   4.331  15.531   5.504
 6218POPC   PO478336   4.583  14.926   5.261
 6218POPC   GL178337   4.524  15.088   5.723
 6218POPC   GL278338   4.611  15.409   5.886
 6218POPC   C1A78339   4.335  14.953   6.130
 6218POPC   D2A78340   4.462  14.759   6.534
 6218POPC   C3A78341   4.331  14.967   6.925
 6218POPC   C4A78342   4.555  15.000   7.321
 6218POPC   C1B78343   4.365  15.468   6.269
 6218POPC   C2B78344   4.195  15.440   6.727
 6218POPC   C3B78345   4.380  15.489   7.177
 6218POPC   C4B78346   4.119  15.540   7.567
 6219POPC   NC378347  41.624  33.941   5.293
 6219POPC   PO478348  41.178  33.636   5.655
 6219POPC   GL178349  41.396  33.961   5.813
 6219POPC   GL278350  41.307  33.760   6.133
 6219POPC   C1A78351  41.724  34.028   6.133
 6219POPC   D2A78352  41.692  33.764   6.521
 6219POPC   C3A78353  41.591  33.942   6.929
 6219POPC   C4A78354  41.730  34.088   7.340
 6219POPC   C1B78355  41.265  33.319   6.239
 6219POPC   C2B78356  41.327  33.234   6.658
 6219POPC   C3B78357  41.236  33.423   7.063
 6219POPC   C4B78358  41.525  33.641   7.341
 6220POPC   NC378359  18.633  24.557   5.584
 6220POPC   PO478360  17.975  24.438   5.516
 6220POPC   GL178361  18.185  24.565   5.867
 6220POPC   GL278362  17.963  24.837   5.900
 6220POPC   C1A78363  18.450  24.414   6.227
 6220POPC   D2A78364  18.750  24.526   6.558
 6220POPC   C3A78365  18.654  24.305   6.938
 6220POPC   C4A78366  18.303  24.422   7.227
 6220POPC   C1B78367  18.027  24.712   6.321
 6220POPC   C2B78368  18.080  24.608   6.745
 6220POPC   C3B78369  18.044  24.838   7.098
 6220POPC   C4B78370  18.009  24.720   7.560
 6221POPC   NC378371   5.998  17.536   5.292
 6221POPC   PO478372   6.683  17.573   5.204
 6221POPC   GL178373   6.566  17.645   5.681
 6221POPC   GL278374   6.234  17.679   5.867
 6221POPC   C1A78375   6.695  17.679   6.138
 6221POPC   D2A78376   6.830  17.538   6.553
 6221POPC   C3A78377   6.621  17.679   6.929
 6221POPC   C4A78378   6.739  17.530   7.336
 6221POPC   C1B78379   6.319  17.319   6.149
 6221POPC   C2B78380   6.337  17.373   6.610
 6221POPC   C3B78381   6.479  17.175   7.010
 6221POPC   C4B78382   6.325  17.250   7.450
 6222POPC   NC378383   5.102  15.480   5.476
 6222POPC   PO478384   5.365  14.807   5.560
 6222POPC   GL178385   5.370  15.058   5.888
 6222POPC   GL278386   5.081  15.208   5.906
 6222POPC   C1A78387   5.230  14.917   6.299
 6222POPC   D2A78388   5.033  14.869   6.663
 6222POPC   C3A78389   5.299  15.077   6.932
 6222POPC   C4A78390   5.139  15.010   7.307
 6222POPC   C1B78391   4.785  15.111   6.248
 6222POPC   C2B78392   4.655  15.244   6.630
 6222POPC   C3B78393   4.849  15.310   6.995
 6222POPC   C4B78394   4.853  15.395   7.429
 6223POPC   NC378395  37.034  34.000   5.482
 6223POPC   PO478396  36.744  33.407   5.470
 6223POPC   GL178397  36.992  33.603   5.821
 6223POPC   GL278398  36.678  33.762   5.894
 6223POPC   C1A78399  37.105  33.893   6.192
 6223POPC   D2A78400  37.120  34.163   6.574
 6223POPC   C3A78401  37.049  33.971   6.971
 6223POPC   C4A78402  36.738  34.173   7.234
 6223POPC   C1B78403  36.745  33.530   6.316
 6223POPC   C2B78404  36.885  33.477   6.769
 6223POPC   C3B78405  36.668  33.575   7.173
 6223POPC   C4B78406  36.618  33.563   7.641
 6224POPC   NC378407  31.800   3.832   5.413
 6224POPC   PO478408  31.311   3.276   5.494
 6224POPC   GL178409  31.235   3.587   5.814
 6224POPC   GL278410  31.582   3.703   5.892
 6224POPC   C1A78411  31.241   3.538   6.265
 6224POPC   D2A78412  31.516   3.500   6.624
 6224POPC   C3A78413  31.419   3.637   6.998
 6224POPC   C4A78414  31.720   3.477   7.290
 6224POPC   C1B78415  31.722   3.832   6.317
 6224POPC   C2B78416  31.663   4.030   6.732
 6224POPC   C3B78417  31.705   4.002   7.210
 6224POPC   C4B78418  31.598   3.848   7.656
 6225POPC   NC378419  16.945  26.681   5.035
 6225POPC   PO478420  17.624  26.865   5.265
 6225POPC   GL178421  17.602  26.882   5.755
 6225POPC   GL278422  17.902  26.752   5.778
 6225POPC   C1A78423  17.315  26.859   6.125
 6225POPC   D2A78424  17.242  26.689   6.546
 6225POPC   C3A78425  17.383  26.908   6.900
 6225POPC   C4A78426  17.445  26.640   7.238
 6225POPC   C1B78427  17.800  26.968   6.227
 6225POPC   C2B78428  17.831  26.905   6.681
 6225POPC   C3B78429  17.853  26.936   7.147
 6225POPC   C4B78430  17.928  26.579   7.424
 6226POPC   NC378431  22.010  23.760   5.442
 6226POPC   PO478432  22.482  23.360   5.784
 6226POPC   GL178433  22.252  23.701   5.883
 6226POPC   GL278434  21.954  23.504   5.902
 6226POPC   C1A78435  22.117  23.884   6.251
 6226POPC   D2A78436  22.168  23.701   6.639
 6226POPC   C3A78437  22.347  23.853   7.015
 6226POPC   C4A78438  22.254  23.650   7.422
 6226POPC   C1B78439  21.742  23.514   6.278
 6226POPC   C2B78440  21.655  23.686   6.664
 6226POPC   C3B78441  21.841  23.723   7.056
 6226POPC   C4B78442  21.874  23.346   7.258
 6227POPC   NC378443  21.199  30.578   5.480
 6227POPC   PO478444  21.415  31.202   5.504
 6227POPC   GL178445  21.420  30.901   5.847
 6227POPC   GL278446  21.062  30.843   5.909
 6227POPC   C1A78447  21.469  30.798   6.301
 6227POPC   D2A78448  21.584  30.824   6.751
 6227POPC   C3A78449  21.374  30.824   7.150
 6227POPC   C4A78450  21.706  30.559   7.408
 6227POPC   C1B78451  20.983  30.587   6.270
 6227POPC   C2B78452  21.233  30.421   6.611
 6227POPC   C3B78453  21.483  30.364   6.982
 6227POPC   C4B78454  21.209  30.409   7.383
 6228POPC   NC378455  43.416   8.033   5.272
 6228POPC   PO478456  43.245   8.625   5.475
 6228POPC   GL178457  43.071   8.331   5.801
 6228POPC   GL278458  43.238   8.046   5.769
 6228POPC   C1A78459  42.922   8.108   6.218
 6228POPC   D2A78460  42.729   8.231   6.654
 6228POPC   C3A78461  42.871   8.083   7.074
 6228POPC   C4A78462  42.824   8.150   7.545
 6228POPC   C1B78463  43.422   8.120   6.185
 6228POPC   C2B78464  43.267   8.043   6.621
 6228POPC   C3B78465  43.443   8.092   7.046
 6228POPC   C4B78466  43.297   8.033   7.468
 6229POPC   NC378467  21.866  18.075   5.352
 6229POPC   PO478468  22.344  18.564   5.386
 6229POPC   GL178469  22.140  18.331   5.712
 6229POPC   GL278470  21.833  18.494   5.849
 6229POPC   C1A78471  22.120  18.145   6.132
 6229POPC   D2A78472  22.205  18.328   6.529
 6229POPC   C3A78473  22.315  18.105   6.891
 6229POPC   C4A78474  22.422  18.171   7.296
 6229POPC   C1B78475  21.741  18.550   6.314
 6229POPC   C2B78476  21.783  18.471   6.788
 6229POPC   C3B78477  21.893  18.241   7.211
 6229POPC   C4B78478  21.811  17.996   7.613
 6230POPC   NC378479   4.372  13.761   5.497
 6230POPC   PO478480   3.936  13.338   5.365
 6230POPC   GL178481   4.109  13.484   5.822
 6230POPC   GL278482   3.988  13.816   5.820
 6230POPC   C1A78483   4.387  13.500   6.251
 6230POPC   D2A78484   4.622  13.350   6.684
 6230POPC   C3A78485   4.577  13.597   7.106
 6230POPC   C4A78486   4.545  13.706   7.575
 6230POPC   C1B78487   4.135  13.943   6.163
 6230POPC   C2B78488   4.005  13.774   6.535
 6230POPC   C3B78489   4.100  13.782   6.944
 6230POPC   C4B78490   4.103  14.027   7.321
 6231POPC   NC378491  40.056  43.442   5.350
 6231POPC   PO478492  39.811  42.851   5.454
 6231POPC   GL178493  40.030  43.003   5.801
 6231POPC   GL278494  40.070  43.350   5.878
 6231POPC   C1A78495  40.153  42.959   6.214
 6231POPC   D2A78496  40.003  43.101   6.631
 6231POPC   C3A78497  40.138  42.821   6.963
 6231POPC   C4A78498  40.042  42.868   7.360
 6231POPC   C1B78499  40.167  43.483   6.309
 6231POPC   C2B78500  40.333  43.506   6.730
 6231POPC   C3B78501  40.138  43.330   7.127
 6231POPC   C4B78502  40.273  43.274   7.567
 6232POPC   NC378503  14.080  35.176   5.592
 6232POPC   PO478504  14.698  35.507   5.543
 6232POPC   GL178505  14.401  35.487   5.879
 6232POPC   GL278506  14.168  35.712   5.899
 6232POPC   C1A78507  14.404  35.367   6.328
 6232POPC   D2A78508  14.573  35.323   6.763
 6232POPC   C3A78509  14.248  35.163   7.003
 6232POPC   C4A78510  14.115  34.944   7.299
 6232POPC   C1B78511  13.975  35.643   6.293
 6232POPC   C2B78512  14.084  35.556   6.703
 6232POPC   C3B78513  14.228  35.656   7.090
 6232POPC   C4B78514  14.257  35.598   7.530
 6233POPC   NC378515  41.742  37.931   5.495
 6233POPC   PO478516  41.135  37.626   5.480
 6233POPC   GL178517  41.430  37.713   5.847
 6233POPC   GL278518  41.620  37.401   5.893
 6233POPC   C1A78519  41.799  37.885   6.131
 6233POPC   D2A78520  41.888  37.937   6.578
 6233POPC   C3A78521  41.682  37.649   6.845
 6233POPC   C4A78522  41.475  37.549   7.240
 6233POPC   C1B78523  41.523  37.507   6.330
 6233POPC   C2B78524  41.220  37.616   6.609
 6233POPC   C3B78525  41.065  37.396   6.930
 6233POPC   C4B78526  40.874  37.239   7.251
 6234POPC   NC378527  24.304  41.321   5.485
 6234POPC   PO478528  24.780  41.804   5.531
 6234POPC   GL178529  24.474  41.883   5.856
 6234POPC   GL278530  24.129  41.752   5.771
 6234POPC   C1A78531  24.536  41.806   6.288
 6234POPC   D2A78532  24.636  41.477   6.575
 6234POPC   C3A78533  24.437  41.672   6.938
 6234POPC   C4A78534  24.644  41.790   7.346
 6234POPC   C1B78535  24.203  41.467   6.117
 6234POPC   C2B78536  24.135  41.424   6.539
 6234POPC   C3B78537  24.282  41.195   6.882
 6234POPC   C4B78538  24.231  41.367   7.288
 6235POPC   NC378539  39.649  11.655   5.678
 6235POPC   PO478540  39.011  12.060   5.553
 6235POPC   GL178541  39.212  11.919   5.910
 6235POPC   GL278542  39.167  12.257   6.034
 6235POPC   C1A78543  39.323  11.888   6.349
 6235POPC   D2A78544  39.235  11.997   6.765
 6235POPC   C3A78545  39.268  11.659   7.079
 6235POPC   C4A78546  39.003  11.555   7.412
 6235POPC   C1B78547  38.962  12.527   6.334
 6235POPC   C2B78548  38.932  12.531   6.763
 6235POPC   C3B78549  39.143  12.396   7.059
 6235POPC   C4B78550  39.019  12.046   7.249
 6236POPC   NC378551  42.802  34.640   5.537
 6236POPC   PO478552  43.390  34.885   5.484
 6236POPC   GL178553  43.193  34.660   5.878
 6236POPC   GL278554  42.937  34.379   5.969
 6236POPC   C1A78555  43.176  34.816   6.308
 6236POPC   D2A78556  43.388  34.902   6.710
 6236POPC   C3A78557  43.269  34.963   7.139
 6236POPC   C4A78558  43.442  34.728   7.529
 6236POPC   C1B78559  42.703  34.664   6.238
 6236POPC   C2B78560  42.812  34.847   6.655
 6236POPC   C3B78561  42.994  34.582   6.924
 6236POPC   C4B78562  42.990  34.601   7.327
 6237POPC   NC378563   5.492   2.018   5.292
 6237POPC   PO478564   6.090   1.776   5.481
 6237POPC   GL178565   5.766   1.781   5.792
 6237POPC   GL278566   5.680   2.122   5.760
 6237POPC   C1A78567   5.885   1.864   6.219
 6237POPC   D2A78568   6.171   1.932   6.563
 6237POPC   C3A78569   6.158   1.665   6.906
 6237POPC   C4A78570   5.898   1.677   7.266
 6237POPC   C1B78571   5.510   2.214   6.176
 6237POPC   C2B78572   5.622   2.071   6.618
 6237POPC   C3B78573   5.910   2.104   6.985
 6237POPC   C4B78574   6.044   2.139   7.452
 6238POPC   NC378575  34.662  39.935   5.140
 6238POPC   PO478576  34.142  40.307   5.411
 6238POPC   GL178577  34.538  40.135   5.651
 6238POPC   GL278578  34.327  39.850   5.728
 6238POPC   C1A78579  34.804  40.200   6.083
 6238POPC   D2A78580  34.634  40.368   6.522
 6238POPC   C3A78581  34.537  40.211   6.967
 6238POPC   C4A78582  34.750  39.923   7.276
 6238POPC   C1B78583  34.340  40.046   6.173
 6238POPC   C2B78584  34.345  39.895   6.619
 6238POPC   C3B78585  34.325  39.710   7.041
 6238POPC   C4B78586  34.209  39.824   7.494
 6239POPC   NC378587  43.274  14.983   5.257
 6239POPC   PO478588  43.089  15.588   5.524
 6239POPC   GL178589  43.200  15.398   5.909
 6239POPC   GL278590  43.416  15.145   5.769
 6239POPC   C1A78591  43.002  15.327   6.323
 6239POPC   D2A78592  42.704  15.181   6.642
 6239POPC   C3A78593  42.900  15.100   7.027
 6239POPC   C4A78594  42.988  15.271   7.456
 6239POPC   C1B78595  43.166  14.894   6.053
 6239POPC   C2B78596  43.171  14.848   6.513
 6239POPC   C3B78597  43.375  14.826   6.915
 6239POPC   C4B78598  43.248  14.823   7.303
 6240POPC   NC378599  42.476   3.007   5.322
 6240POPC   PO478600  41.969   2.581   5.340
 6240POPC   GL178601  42.229   2.735   5.717
 6240POPC   GL278602  42.459   2.493   5.846
 6240POPC   C1A78603  42.339   2.815   6.198
 6240POPC   D2A78604  42.465   2.975   6.623
 6240POPC   C3A78605  42.451   2.803   7.043
 6240POPC   C4A78606  42.112   2.888   7.283
 6240POPC   C1B78607  42.669   2.425   6.273
 6240POPC   C2B78608  42.453   2.441   6.684
 6240POPC   C3B78609  42.535   2.312   7.151
 6240POPC   C4B78610  42.394   2.520   7.539
 6241POPC   NC378611  29.318  25.131   5.459
 6241POPC   PO478612  28.777  24.908   5.398
 6241POPC   GL178613  28.920  25.175   5.802
 6241POPC   GL278614  29.258  25.385   5.904
 6241POPC   C1A78615  29.035  25.024   6.227
 6241POPC   D2A78616  29.251  25.119   6.605
 6241POPC   C3A78617  28.964  25.090   6.983
 6241POPC   C4A78618  28.990  24.779   7.323
 6241POPC   C1B78619  29.049  25.535   6.282
 6241POPC   C2B78620  29.062  25.559   6.727
 6241POPC   C3B78621  29.181  25.519   7.170
 6241POPC   C4B78622  28.889  25.311   7.461
 6242POPC   NC378623  40.820  10.980   5.128
 6242POPC   PO478624  40.963  10.434   5.298
 6242POPC   GL178625  40.874  10.475   5.746
 6242POPC   GL278626  40.854  10.118   5.784
 6242POPC   C1A78627  40.779  10.693   6.180
 6242POPC   D2A78628  40.784  10.862   6.624
 6242POPC   C3A78629  40.644  10.733   7.005
 6242POPC   C4A78630  40.944  10.670   7.259
 6242POPC   C1B78631  41.087  10.252   6.153
 6242POPC   C2B78632  41.087  10.417   6.532
 6242POPC   C3B78633  40.935  10.314   6.900
 6242POPC   C4B78634  41.013  10.172   7.281
 6243POPC   NC378635   3.047   0.163   5.144
 6243POPC   PO478636   2.621  44.834   5.563
 6243POPC   GL178637   2.699  44.868   5.963
 6243POPC   GL278638   2.981   0.071   5.938
 6243POPC   C1A78639   2.910  44.713   6.331
 6243POPC   D2A78640   2.913  44.604   6.751
 6243POPC   C3A78641   2.707  44.935   6.971
 6243POPC   C4A78642   2.672  44.707   7.323
 6243POPC   C1B78643   3.308   0.042   6.277
 6243POPC   C2B78644   3.292  44.930   6.726
 6243POPC   C3B78645   3.170  44.882   7.182
 6243POPC   C4B78646   3.088  44.829   7.671
 6244POPC   NC378647  40.784  24.611   5.071
 6244POPC   PO478648  40.751  24.030   5.560
 6244POPC   GL178649  40.913  24.423   5.753
 6244POPC   GL278650  40.687  24.728   5.789
 6244POPC   C1A78651  40.965  24.493   6.194
 6244POPC   D2A78652  40.749  24.259   6.530
 6244POPC   C3A78653  41.045  24.256   6.842
 6244POPC   C4A78654  41.169  24.329   7.248
 6244POPC   C1B78655  40.491  24.665   6.212
 6244POPC   C2B78656  40.714  24.772   6.605
 6244POPC   C3B78657  40.910  24.724   7.004
 6244POPC   C4B78658  40.860  24.966   7.348
 6245POPC   NC378659  34.300  13.745   5.357
 6245POPC   PO478660  34.820  13.537   5.529
 6245POPC   GL178661  34.584  13.780   5.882
 6245POPC   GL278662  34.287  14.012   5.792
 6245POPC   C1A78663  34.481  13.568   6.331
 6245POPC   D2A78664  34.399  13.299   6.721
 6245POPC   C3A78665  34.578  13.442   7.106
 6245POPC   C4A78666  34.756  13.864   7.047
 6245POPC   C1B78667  34.149  13.907   6.172
 6245POPC   C2B78668  34.059  13.926   6.591
 6245POPC   C3B78669  34.231  13.812   6.984
 6245POPC   C4B78670  34.352  13.973   7.377
 6246W        W78671  39.092   0.538   0.979
 6247W        W78672   6.294  17.695  11.356
 6248W        W78673   5.228  28.945   4.650
 6249W        W78674  41.418  39.424  13.878
 6250W        W78675  19.066  17.966   4.567
 6251W        W78676  28.604  40.028  14.831
 6252W        W78677  38.280  35.855   1.799
 6253W        W78678  23.769  27.607   0.276
 6254W        W78679   4.868  30.990  13.461
 6255W        W78680  19.435  16.272  11.597
 6256W        W78681  34.362  13.637  13.401
 6257W        W78682  31.138  18.756  14.410
 6258W        W78683   4.270  33.699   2.854
 6259W        W78684  34.890  21.646   1.476
 6260W        W78685  11.141   4.402  11.954
 6261W        W78686  15.231   9.543  12.959
 6262W        W78687  36.581  41.067   3.531
 6263W        W78688  43.863  20.647  12.172
 6264W        W78689   5.717  32.302   2.902
 6265W        W78690   3.892  35.970   4.263
 6266W        W78691  27.970  15.508  11.357
 6267W        W78692   9.365  19.470   4.195
 6268W        W78693  22.402  12.224  11.576
 6269W        W78694  38.780  14.403  15.000
 6270W        W78695  24.028  27.391  13.919
 6271W        W78696  44.944   1.252  11.925
 6272W        W78697  18.084   9.763   2.558
 6273W        W78698  27.757  32.633   2.858
 6274W        W78699   4.509  40.030   3.268
 6275W        W78700  35.691  22.313  14.360
 6276W        W78701  25.050  42.846   2.642
 6277W        W78702   7.735   9.916   1.356
 6278W        W78703   3.786  42.519  10.965
 6279W        W78704  38.326  23.228   4.793
 6280W        W78705   8.506  13.690  13.124
 6281W        W78706  20.029  39.962   1.212
 6282W        W78707  35.584  24.224  13.539
 6283W        W78708   6.926  16.073  12.047
 6284W        W78709  41.948  14.557   1.362
 6285W        W78710  24.480  44.300   5.197
 6286W        W78711  35.235  31.598  11.654
 6287W        W78712   8.820   9.104  11.468
 6288W        W78713  34.533  23.236  10.915
 6289W        W78714   3.768  33.922  14.800
 6290W        W78715  35.153   7.794  10.741
 6291W        W78716   9.895  18.585   0.507
 6292W        W78717  33.165  32.642   1.837
 6293W        W78718  21.327  17.677  11.485
 6294W        W78719  32.363  33.315   2.257
 6295W        W78720  15.654  33.700   0.707
 6296W        W78721  12.546  31.657  14.073
 6297W        W78722  40.897  25.680   4.973
 6298W        W78723   0.292  31.214   2.255
 6299W        W78724  35.965   4.614   2.564
 6300W        W78725  21.611  12.394  10.925
 6301W        W78726  10.486  23.357  10.214
 6302W        W78727   1.263   8.480   1.337
 6303W        W78728  12.323   1.469   5.456
 6304W        W78729   2.791   0.536  14.392
 6305W        W78730  29.006  29.213   3.112
 6306W        W78731  24.805  10.257  11.077
 6307W        W78732  44.306  16.553   3.103
 6308W        W78733  26.562  18.122  14.793
 6309W        W78734   3.658  35.576  11.468
 6310W        W78735  28.035   5.869  14.970
 6311W        W78736  29.485  17.729  13.839
 6312W        W78737  44.430  30.625   4.297
 6313W        W78738  33.727  24.898  11.117
 6314W        W78739  23.375  17.786  14.569
 6315W        W78740   8.868  38.843  13.431
 6316W        W78741  44.890  37.058  11.535
 6317W        W78742  44.296  31.417   4.679
 6318W        W78743  43.436   8.695   1.411
 6319W        W78744  18.645  32.060   4.078
 6320W        W78745  22.295  19.202  10.441
 6321W        W78746  30.476  25.517   3.115
 6322W        W78747   0.251  35.047  10.419
 6323W        W78748  10.702  41.494   4.499
 6324W        W78749  43.286  10.777   0.271
 6325W        W78750  34.664  38.118   3.210
 6326W        W78751   9.256  42.924  12.765
 6327W        W78752  38.750  30.481  11.664
 6328W        W78753  19.672  25.418   2.821
 6329W        W78754  24.482  36.415  14.465
 6330W        W78755   6.636   8.834   2.763
 6331W        W78756  10.381  37.797  12.671
 6332W        W78757  15.824  33.943   1.180
 6333W        W78758  34.701  25.790   2.549
 6334W        W78759  29.200  30.125  14.474
 6335W        W78760  43.370  16.501  10.602
 6336W        W78761  38.557   6.671  12.399
 6337W        W78762   9.795  20.018  11.541
 6338W        W78763   6.923  32.341   4.557
 6339W        W78764   8.312  24.551   2.206
 6340W        W78765  16.722  26.672   1.869
 6341W        W78766  31.944  21.447  11.029
 6342W        W78767  34.094   8.177   2.776
 6343W        W78768  35.435  42.774   4.527
 6344W        W78769   5.137  39.317  10.687
 6345W        W78770  34.008  43.847   3.008
 6346W        W78771  39.951  21.111  13.266
 6347W        W78772   2.251  11.339   0.007
 6348W        W78773   2.750  31.569  11.875
 6349W        W78774  33.184  28.593   1.907
 6350W        W78775  23.060  44.541   2.522
 6351W        W78776  18.148  27.245  13.975
 6352W        W78777  42.933  36.519   4.051
 6353W        W78778  37.413  23.925  10.596
 6354W        W78779   6.913   4.174  14.373
 6355W        W78780   7.092  28.068  13.996
 6356W        W78781  23.517  40.783  11.214
 6357W        W78782  10.773  20.631  14.032
 6358W        W78783  16.603  37.317   2.664
 6359W        W78784  12.924  11.067  13.540
 6360W        W78785  34.382  34.169  11.231
 6361W        W78786  18.765  16.569   2.322
 6362W        W78787  20.154  31.875  12.046
 6363W        W78788  18.517   8.347   4.313
 6364W        W78789  21.581  42.061   4.586
 6365W        W78790  15.292   6.430  12.061
 6366W        W78791  20.834  30.593   2.176
 6367W        W78792  20.522  33.447   3.628
 6368W        W78793  23.244  14.324   2.724
 6369W        W78794  17.818  36.571  12.189
 6370W        W78795   1.904  26.435   1.326
 6371W        W78796  28.396  20.654  11.652
 6372W        W78797   3.385   7.996  10.437
 6373W        W78798  37.891  29.733  11.269
 6374W        W78799  11.957   1.020  10.614
 6375W        W78800   1.726  39.963  13.870
 6376W        W78801  17.351   9.223   9.952
 6377W        W78802  40.951   5.891  11.721
 6378W        W78803  16.298  30.324   3.817
 6379W        W78804   6.671  14.029   4.922
 6380W        W78805  44.356  37.917   4.259
 6381W        W78806   9.925   5.392   3.210
 6382W        W78807  39.643   6.286   2.799
 6383W        W78808  30.185  42.616   0.018
 6384W        W78809  10.667  37.374  11.122
 6385W        W78810  38.646  21.596  11.361
 6386W        W78811  34.125  30.918   4.600
 6387W        W78812   2.662  26.658  13.338
 6388W        W78813  44.063  28.684   3.080
 6389W        W78814  32.203  36.875  12.012
 6390W        W78815  34.023   3.743   2.122
 6391W        W78816   8.191  32.851   3.648
 6392W        W78817   2.053  29.376  11.066
 6393W        W78818  10.667  28.396   1.571
 6394W        W78819   9.888  40.952  14.072
 6395W        W78820  12.847   4.677   2.843
 6396W        W78821  33.855  34.049  11.510
 6397W        W78822  17.481   7.269  14.496
 6398W        W78823  16.683  36.089  12.880
 6399W        W78824  39.903   9.374   4.121
 6400W        W78825  29.403  20.817  12.032
 6401W        W78826  26.243  30.649  11.432
 6402W        W78827  26.463  22.612  10.684
 6403W        W78828   9.505  33.796  12.876
 6404W        W78829   9.862  41.095   0.703
 6405W        W78830  41.743   6.154  11.092
 6406W        W78831  17.706  30.339  12.123
 6407W        W78832   0.770  26.879   2.275
 6408W        W78833  16.740  21.186  13.142
 6409W        W78834   5.978   2.858   0.250
 6410W        W78835   2.002  24.645  12.333
 6411W        W78836   7.859  18.720  10.570
 6412W        W78837  43.960  13.805  13.921
 6413W        W78838   0.405   0.416   2.737
 6414W        W78839  28.326   0.789  14.053
 6415W        W78840  35.098  20.754   2.715
 6416W        W78841  11.172  16.262   4.244
 6417W        W78842   4.406  22.107   4.493
 6418W        W78843   6.238  43.249   4.664
 6419W        W78844   0.989  11.361  13.680
 6420W        W78845  27.912  19.659  12.336
 6421W        W78846  44.486  43.557   4.515
 6422W        W78847  20.598  36.111  14.107
 6423W        W78848  35.475   6.135   2.161
 6424W        W78849  14.629  20.316   4.518
 6425W        W78850  10.257  16.995   5.099
 6426W        W78851  35.997   9.799   3.192
 6427W        W78852  10.689  32.681  13.296
 6428W        W78853  37.951  26.583   4.837
 6429W        W78854  18.758  40.042   0.739
 6430W        W78855  16.610  40.553   4.353
 6431W        W78856  33.267  40.435  10.112
 6432W        W78857  41.826   3.987   4.203
 6433W        W78858   7.419  16.120   2.801
 6434W        W78859  17.888  17.676   2.207
 6435W        W78860  33.625  44.900  10.285
 6436W        W78861  35.996  38.833  12.176
 6437W        W78862   2.308  28.256  10.849
 6438W        W78863   1.024  27.080   0.317
 6439W        W78864  12.255   9.400   2.636
 6440W        W78865  37.759  41.239  13.371
 6441W        W78866  30.666  25.994  13.928
 6442W        W78867  37.553  19.372  13.466
 6443W        W78868  15.863  24.673   0.935
 6444W        W78869  43.411  25.329  11.550
 6445W        W78870  35.652  42.519   0.836
 6446W        W78871   5.067  29.665   0.382
 6447W        W78872   2.138   9.073   4.412
 6448W        W78873   9.158  15.264   0.189
 6449W        W78874   6.120   2.059   0.774
 6450W        W78875  42.827  12.260   3.767
 6451W        W78876   4.523  32.057  12.298
 6452W        W78877   6.230  38.001   3.452
 6453W        W78878   9.438   3.831   0.311
 6454W        W78879   8.282  42.120  12.425
 6455W        W78880   4.970  27.204   3.770
 6456W        W78881  41.843   1.908   3.077
 6457W        W78882  31.833  14.727   4.522
 6458W        W78883   2.816  18.849  13.725
 6459W        W78884  39.299   1.013   3.170
 6460W        W78885  17.168  22.504  12.495
 6461W        W78886  40.767  19.749   0.359
 6462W        W78887   7.374  30.860   4.143
 6463W        W78888  11.482  28.026   4.126
 6464W        W78889  23.820  28.985   4.028
 6465W        W78890  29.126  22.198  13.518
 6466W        W78891  38.906  14.379   2.225
 6467W        W78892  27.765  15.317  12.074
 6468W        W78893  20.694  24.784  11.658
 6469W        W78894  20.150   3.677  14.379
 6470W        W78895  20.129  15.805   4.216
 6471W        W78896  43.377   2.454   0.007
 6472W        W78897  43.405  30.147  14.702
 6473W        W78898   2.029  21.096   2.345
 6474W        W78899  30.160  33.682   0.354
 6475W        W78900   4.905   3.181  14.565
 6476W        W78901  26.293  31.877   3.793
 6477W        W78902  23.258  35.056   1.308
 6478W        W78903  33.565  36.330   1.395
 6479W        W78904  18.341  28.387  13.233
 6480W        W78905   4.626   3.670  10.592
 6481W        W78906  21.967  34.642   2.161
 6482W        W78907  13.292   8.308   0.226
 6483W        W78908   1.108  30.313   2.689
 6484W        W78909   6.729  12.916   3.790
 6485W        W78910  23.479  35.893   4.917
 6486W        W78911  43.349  38.241  14.858
 6487W        W78912  19.491   4.729   4.722
 6488W        W78913  30.588  27.870   4.085
 6489W        W78914  14.888  11.279   3.095
 6490W        W78915  15.779   1.944   4.865
 6491W        W78916  41.258  23.122  14.315
 6492W        W78917  27.056  10.886  11.478
 6493W        W78918  36.939   5.852  13.047
 6494W        W78919   6.660  41.884   4.273
 6495W        W78920   1.385   6.270   4.667
 6496W        W78921   5.401  44.326   1.801
 6497W        W78922  42.547   1.788  12.577
 6498W        W78923   8.169   9.672   4.808
 6499W        W78924  10.286   6.276  14.975
 6500W        W78925  23.091  37.327   1.387
 6501W        W78926  35.910  18.515   3.803
 6502W        W78927  29.552  39.673  14.759
 6503W        W78928  30.472  11.989   2.232
 6504W        W78929  11.560  38.011   4.042
 6505W        W78930  43.268  32.709   1.534
 6506W        W78931  11.170  13.645  13.716
 6507W        W78932  21.737  34.002  10.682
 6508W        W78933  38.736  29.323  10.940
 6509W        W78934   9.201   2.871   2.715
 6510W        W78935  11.317   7.253   3.940
 6511W        W78936   0.444  14.095   4.639
 6512W        W78937  26.037  21.044  14.324
 6513W        W78938  29.388   4.627  10.467
 6514W        W78939   5.606  35.586   2.457
 6515W        W78940  33.330  18.458   0.894
 6516W        W78941  43.382   3.065  11.729
 6517W        W78942  26.461  31.525  14.371
 6518W        W78943   5.422  11.887   4.782
 6519W        W78944   3.143  22.056   0.754
 6520W        W78945   2.166  40.498  13.844
 6521W        W78946  24.172  22.203   0.717
 6522W        W78947  33.072   1.063   0.479
 6523W        W78948  18.720  41.544  12.055
 6524W        W78949   9.705  43.023   1.415
 6525W        W78950  43.153  10.298   2.331
 6526W        W78951  41.048  12.537  14.515
 6527W        W78952  17.360  42.969   2.971
 6528W        W78953  37.457  42.502  10.720
 6529W        W78954  34.082   2.206   1.075
 6530W        W78955  34.484  27.088  10.635
 6531W        W78956  37.973   5.465   4.129
 6532W        W78957  38.895  17.293  14.852
 6533W        W78958   2.792   2.906   2.105
 6534W        W78959   4.699  34.220  13.378
 6535W        W78960  33.897  30.897   1.462
 6536W        W78961  17.025  38.580   1.867
 6537W        W78962  25.086  42.963   0.710
 6538W        W78963  21.256  21.712   0.327
 6539W        W78964  37.916  33.575  14.340
 6540W        W78965   3.893  38.385   4.677
 6541W        W78966  39.944  10.287  12.445
 6542W        W78967  13.520  18.848   1.144
 6543W        W78968   6.481   6.819  12.582
 6544W        W78969  10.947  31.732   1.451
 6545W        W78970  32.173  15.197  11.026
 6546W        W78971   7.896   6.484  11.754
 6547W        W78972  12.332   6.700  14.885
 6548W        W78973  22.247  23.896   0.670
 6549W        W78974  26.934  17.211   2.402
 6550W        W78975  41.363  14.148  12.033
 6551W        W78976   0.458  17.516   3.581
 6552W        W78977  29.946  21.714   1.762
 6553W        W78978  13.509  38.675  12.874
 6554W        W78979  24.421   8.251   4.734
 6555W        W78980   1.852   7.685  13.791
 6556W        W78981  13.166  16.371   4.085
 6557W        W78982  21.307   5.184  13.889
 6558W        W78983  13.694  44.097  14.209
 6559W        W78984  18.397  37.029  11.558
 6560W        W78985  42.801  37.867   4.481
 6561W        W78986  32.104  10.866   2.310
 6562W        W78987   5.186  14.071  13.110
 6563W        W78988  11.152  37.287  11.479
 6564W        W78989  24.624  21.331  11.865
 6565W        W78990  32.755   3.327  10.613
 6566W        W78991   5.205  44.332   3.288
 6567W        W78992   2.239  41.561   1.234
 6568W        W78993  19.248  15.564  11.908
 6569W        W78994  27.493  30.637  12.107
 6570W        W78995   5.777   7.211  13.384
 6571W        W78996  23.769   3.690  13.029
 6572W        W78997  37.288  34.500   3.844
 6573W        W78998   5.315  25.541  13.404
 6574W        W78999  30.024  24.579  10.920
 6575W        W79000  22.886   4.265  10.722
 6576W        W79001  23.470  14.889   1.845
 6577W        W79002   1.414  19.377  11.148
 6578W        W79003  16.933  20.018  11.497
 6579W        W79004  26.146  26.913  14.574
 6580W        W79005  35.478   7.962   0.427
 6581W        W79006  25.193  31.667  11.564
 6582W        W79007   7.832  31.069   2.652
 6583W        W79008  10.688  39.480   3.688
 6584W        W79009   0.942  18.741   2.326
 6585W        W79010  32.051  27.947   3.391
 6586W        W79011  31.502  10.921  12.116
 6587W        W79012  11.863  32.479   4.711
 6588W        W79013  14.959   1.258  14.946
 6589W        W79014  22.830  17.190  10.720
 6590W        W79015  33.038   3.328  11.120
 6591W        W79016  25.555  30.432  11.955
 6592W        W79017   0.760   1.055   1.248
 6593W        W79018   1.509  20.053  11.926
 6594W        W79019  17.216  16.860  12.082
 6595W        W79020  44.510  32.481   3.289
 6596W        W79021  38.470   2.497   4.402
 6597W        W79022  22.126  38.910   0.374
 6598W        W79023  31.823  36.689  11.229
 6599W        W79024  28.055  21.787   4.899
 6600W        W79025  22.359  30.358   0.316
 6601W        W79026   5.296  36.770   0.365
 6602W        W79027  32.669   7.240  12.948
 6603W        W79028  32.858   1.578   1.730
 6604W        W79029  19.468  38.375   0.408
 6605W        W79030  26.587  17.413   4.552
 6606W        W79031   3.041  17.268  14.762
 6607W        W79032  20.168  34.413  11.473
 6608W        W79033  22.267   9.338   5.435
 6609W        W79034  35.961   3.490   0.301
 6610W        W79035  26.361   8.888   4.168
 6611W        W79036  39.974  24.921   3.177
 6612W        W79037   1.450  22.764  14.568
 6613W        W79038  34.292   1.832  11.150
 6614W        W79039   1.880  42.935   1.777
 6615W        W79040  20.998  30.843  13.912
 6616W        W79041  35.353   7.901   2.378
 6617W        W79042  29.478  24.524   4.699
 6618W        W79043  23.698  38.072  14.025
 6619W        W79044  42.385  29.963  13.545
 6620W        W79045  36.034  33.558  10.883
 6621W        W79046  16.265  40.912   3.203
 6622W        W79047  15.277   5.470  10.930
 6623W        W79048  16.790  12.215   2.498
 6624W        W79049  17.329  22.451  14.064
 6625W        W79050  19.641  20.481   3.115
 6626W        W79051  43.066  38.561  12.483
 6627W        W79052  21.387  13.345  10.654
 6628W        W79053  42.779  33.281   2.262
 6629W        W79054   7.655   5.963  13.532
 6630W        W79055  19.028  25.157  14.059
 6631W        W79056  43.369  39.661  12.987
 6632W        W79057  32.832  31.579  12.634
 6633W        W79058  32.287  15.914  10.168
 6634W        W79059  20.199   6.960   2.240
 6635W        W79060  28.978  10.770  12.759
 6636W        W79061   5.954   6.148  12.630
 6637W        W79062   8.890  37.657  11.197
 6638W        W79063   2.387  28.940  14.378
 6639W        W79064  41.473  18.211  14.366
 6640W        W79065  17.210   8.815  13.283
 6641W        W79066  10.805  11.971  10.767
 6642W        W79067   2.940  19.244  14.540
 6643W        W79068  30.169  42.172  12.329
 6644W        W79069   5.464  43.027   3.643
 6645W        W79070   4.021  13.118  13.488
 6646W        W79071  34.572  10.740  12.796
 6647W        W79072  33.679  41.935   3.752
 6648W        W79073  27.133  26.046  12.029
 6649W        W79074  38.837  25.524  13.639
 6650W        W79075   2.984  44.115  14.560
 6651W        W79076  26.973  21.843   0.491
 6652W        W79077  33.916  36.287  14.701
 6653W        W79078  35.533  31.994  12.673
 6654W        W79079   4.619   2.987   0.323
 6655W        W79080  21.738  37.035  11.732
 6656W        W79081   5.741  25.154  11.234
 6657W        W79082  20.329  32.856   1.402
 6658W        W79083  22.755   4.769  13.909
 6659W        W79084  11.162  31.416   3.380
 6660W        W79085  20.640  44.006  12.992
 6661W        W79086  26.954  25.608   3.674
 6662W        W79087  44.366  43.904  12.948
 6663W        W79088  38.801  42.276  11.055
 6664W        W79089   0.861  36.016  11.555
 6665W        W79090   8.947  34.230   2.304
 6666W        W79091   5.339   6.341   0.368
 6667W        W79092  43.066  36.885   2.663
 6668W        W79093  18.396  39.603   2.660
 6669W        W79094  34.291   2.038   4.667
 6670W        W79095   1.626  17.933   3.757
 6671W        W79096  43.281  40.886   0.753
 6672W        W79097   6.923  39.992  12.025
 6673W        W79098   2.053  12.519   2.395
 6674W        W79099  36.599  44.490   4.576
 6675W        W79100  26.951  25.631  13.960
 6676W        W79101   5.854  18.378  12.491
 6677W        W79102  44.450   4.129   0.932
 6678W        W79103  31.683  11.317  13.062
 6679W        W79104  40.263  42.013  12.562
 6680W        W79105  26.487  17.502  11.475
 6681W        W79106   6.427  26.566  12.973
 6682W        W79107  23.115  18.331   3.641
 6683W        W79108  28.424  10.731   3.750
 6684W        W79109  35.388  26.479   4.625
 6685W        W79110  14.904  27.035   1.293
 6686W        W79111   6.883   9.833  13.057
 6687W        W79112   6.813   8.935   1.288
 6688W        W79113   4.945   0.054  10.555
 6689W        W79114  16.996  36.106   4.726
 6690W        W79115  40.815  44.812  11.476
 6691W        W79116  14.516  22.983   3.114
 6692W        W79117   9.427   6.455   0.731
 6693W        W79118  11.662   3.739  12.745
 6694W        W79119  28.696  41.817   2.301
 6695W        W79120  29.189   0.975  14.754
 6696W        W79121  21.203  44.330  12.173
 6697W        W79122  22.981  26.051  11.311
 6698W        W79123  17.967  40.550   0.936
 6699W        W79124  35.834  34.635   1.338
 6700W        W79125   2.727   2.752   3.614
 6701W        W79126  11.617  21.665   3.702
 6702W        W79127  30.622   2.752   3.068
 6703W        W79128  29.533  17.948  13.381
 6704W        W79129   8.557  43.995   2.212
 6705W        W79130  43.555  28.219  14.730
 6706W        W79131   0.925  25.938   4.067
 6707W        W79132  28.744  28.115   4.534
 6708W        W79133  41.385  39.428   0.176
 6709W        W79134  17.225  40.984  11.007
 6710W        W79135  11.432  35.807   2.088
 6711W        W79136   9.110  13.325  11.052
 6712W        W79137   1.764  22.103   4.537
 6713W        W79138  23.469  39.003   1.346
 6714W        W79139  26.024  33.076  14.007
 6715W        W79140  33.952  27.405   4.472
 6716W        W79141  10.202  35.862  14.121
 6717W        W79142  33.713  11.287  13.951
 6718W        W79143   9.363  21.420  10.725
 6719W        W79144  40.100  43.764  12.469
 6720W        W79145  35.379  21.471   3.288
 6721W        W79146  21.510  15.685   0.510
 6722W        W79147  22.696  11.639  14.425
 6723W        W79148   3.481  44.713   3.193
 6724W        W79149  40.782   4.827  10.860
 6725W        W79150  29.148  31.945  12.152
 6726W        W79151  30.527  17.772   1.437
 6727W        W79152  25.434  31.196  14.922
 6728W        W79153   3.245  32.404   1.355
 6729W        W79154  16.701  16.735  10.438
 6730W        W79155  26.537  16.128   2.179
 6731W        W79156  41.870  20.120  14.067
 6732W        W79157  40.308   4.865  14.376
 6733W        W79158  20.545  36.015  11.074
 6734W        W79159  35.260  12.334   3.688
 6735W        W79160   5.824  44.876  11.878
 6736W        W79161  44.296  34.108   1.230
 6737W        W79162  24.236  16.773   2.833
 6738W        W79163  29.823  19.060  10.722
 6739W        W79164  17.963  15.989   2.870
 6740W        W79165  10.761   1.320  12.058
 6741W        W79166  23.757  30.495   4.058
 6742W        W79167   1.195   9.717   2.438
 6743W        W79168  35.881  32.225   3.447
 6744W        W79169  37.329  17.608   2.314
 6745W        W79170   9.126  23.137  14.505
 6746W        W79171  10.102  10.792   2.326
 6747W        W79172  40.908   3.875  11.238
 6748W        W79173  13.499  40.002   3.624
 6749W        W79174  23.159  31.909   2.913
 6750W        W79175  15.841  24.427   4.328
 6751W        W79176  43.769  36.582   3.826
 6752W        W79177   0.130  24.015   3.700
 6753W        W79178   0.910   4.782   2.449
 6754W        W79179  17.349  36.030  11.663
 6755W        W79180  37.063  29.907   1.447
 6756W        W79181  31.039  35.521   2.129
 6757W        W79182   3.018  22.049  10.730
 6758W        W79183  27.678  18.101   4.703
 6759W        W79184  34.527  20.402   0.237
 6760W        W79185  11.380  42.055   4.206
 6761W        W79186  21.639  34.507   1.328
 6762W        W79187  26.179  32.461  14.475
 6763W        W79188   9.201  36.882   4.474
 6764W        W79189  18.646   7.894   1.141
 6765W        W79190  32.016  12.313   3.158
 6766W        W79191  32.852  23.517   2.831
 6767W        W79192  28.586   6.991  14.793
 6768W        W79193   9.864  24.422   2.364
 6769W        W79194   5.947  21.108  13.035
 6770W        W79195  31.002  19.904   5.131
 6771W        W79196  33.991  25.802  14.931
 6772W        W79197  11.265  42.340   2.991
 6773W        W79198  17.345  11.965   2.066
 6774W        W79199  28.175   4.187   1.263
 6775W        W79200  19.250   6.568  14.722
 6776W        W79201  24.634   9.149  11.908
 6777W        W79202   0.072  35.716   1.383
 6778W        W79203  10.139  34.739  10.119
 6779W        W79204   8.593  36.577  13.429
 6780W        W79205  26.604  36.202   4.077
 6781W        W79206  11.402  38.797   0.443
 6782W        W79207  13.597  38.013   0.837
 6783W        W79208  37.012  41.695   5.049
 6784W        W79209  16.646  17.608   3.556
 6785W        W79210  22.078  41.765  13.567
 6786W        W79211  25.134  42.519  13.865
 6787W        W79212  26.734  37.984  13.388
 6788W        W79213  42.263  43.609  14.809
 6789W        W79214  16.085  40.578  14.930
 6790W        W79215  10.948  39.768   0.924
 6791W        W79216  22.195   2.221  11.468
 6792W        W79217  35.035  34.313   4.606
 6793W        W79218  15.902  40.463   2.233
 6794W        W79219  15.516  16.766   0.459
 6795W        W79220  30.717  33.014   0.912
 6796W        W79221  12.714  43.857   1.001
 6797W        W79222   5.388  21.854  11.093
 6798W        W79223   4.728  12.356   0.861
 6799W        W79224  37.913  30.772  14.348
 6800W        W79225   5.346  35.436  11.128
 6801W        W79226  24.748  14.148   1.346
 6802W        W79227   1.485  42.003  13.541
 6803W        W79228  39.590  36.410  11.636
 6804W        W79229  15.213  33.591  12.472
 6805W        W79230   5.337  17.816   0.774
 6806W        W79231   0.965  33.006   1.756
 6807W        W79232  30.064  35.148   0.869
 6808W        W79233  19.435  32.205   1.816
 6809W        W79234   1.141  12.307   0.992
 6810W        W79235  38.842  19.239   4.053
 6811W        W79236  31.218  31.173  13.155
 6812W        W79237  15.314  32.359  14.907
 6813W        W79238  36.526   8.396  11.157
 6814W        W79239  14.727  44.966  12.309
 6815W        W79240  20.618  38.808  13.555
 6816W        W79241  31.670   3.775   4.180
 6817W        W79242   1.434  29.184   2.412
 6818W        W79243   0.079  18.218  12.065
 6819W        W79244  30.337   3.898  12.439
 6820W        W79245  26.238  44.488  14.468
 6821W        W79246  17.618   9.882  14.060
 6822W        W79247  21.300  14.699  10.533
 6823W        W79248   2.780  13.641  12.500
 6824W        W79249  16.729  42.561   1.268
 6825W        W79250  32.476  10.231   4.754
 6826W        W79251  31.216   2.901   0.372
 6827W        W79252  42.060  17.283  11.813
 6828W        W79253   7.033  28.112  12.687
 6829W        W79254  19.572   4.242   1.291
 6830W        W79255  31.851  43.947   3.543
 6831W        W79256  44.303  43.872  13.893
 6832W        W79257  21.618  23.387  14.932
 6833W        W79258  15.710  12.485  10.223
 6834W        W79259  12.711  30.174   4.558
 6835W        W79260  27.502  23.949  12.500
 6836W        W79261  36.418   9.652  10.778
 6837W        W79262   4.148   2.247  14.436
 6838W        W79263  40.463   0.376  13.285
 6839W        W79264  14.009  43.024  11.242
 6840W        W79265   9.395   6.937   2.820
 6841W        W79266  20.711  27.901   4.573
 6842W        W79267  32.844  37.827  11.203
 6843W        W79268  42.509  18.737  14.994
 6844W        W79269  39.535  12.330   3.375
 6845W        W79270  31.158   5.893   1.228
 6846W        W79271  43.348  27.938  13.347
 6847W        W79272   9.422   9.335   4.725
 6848W        W79273  11.080  16.318   0.739
 6849W        W79274  20.159   4.950  13.903
 6850W        W79275  25.199   0.638  10.758
 6851W        W79276  32.622   7.394   3.374
 6852W        W79277  11.548  42.343  14.788
 6853W        W79278  43.392  34.088  13.815
 6854W        W79279  38.517  28.096  12.929
 6855W        W79280  34.419  15.351   4.336
 6856W        W79281  28.404  11.904   3.332
 6857W        W79282  37.073  37.973  11.080
 6858W        W79283  40.892  28.520   4.050
 6859W        W79284  33.543  12.622   4.592
 6860W        W79285  15.745  31.757   2.394
 6861W        W79286  40.442  33.056   4.036
 6862W        W79287  12.575  36.832   4.046
 6863W        W79288  29.966  43.802   2.304
 6864W        W79289  14.024  30.105  13.732
 6865W        W79290  29.935  37.109   1.765
 6866W        W79291  38.260  15.717   0.961
 6867W        W79292  27.485   4.936   1.892
 6868W        W79293  37.799  39.821   4.674
 6869W        W79294   9.079   1.339  13.495
 6870W        W79295  37.165  29.143  10.592
 6871W        W79296  14.639   9.073   4.360
 6872W        W79297  36.008   6.095   2.274
 6873W        W79298  34.536  23.043   3.167
 6874W        W79299  42.459  13.553   4.391
 6875W        W79300  17.236  28.973  12.176
 6876W        W79301  16.074  30.474   3.387
 6877W        W79302  43.008  34.669   2.357
 6878W        W79303   9.655  39.560   3.689
 6879W        W79304   4.882   3.895   2.245
 6880W        W79305  29.557   4.768  12.071
 6881W        W79306   2.360  37.465   3.875
 6882W        W79307  43.640  17.193   3.257
 6883W        W79308  12.563   2.407   2.728
 6884W        W79309  23.053  29.647  12.410
 6885W        W79310   3.832  42.790  13.747
 6886W        W79311  33.650  13.961   0.423
 6887W        W79312   4.471  18.021  11.263
 6888W        W79313  40.793   7.170   3.534
 6889W        W79314  23.699  20.441  13.807
 6890W        W79315  43.950  16.643  14.849
 6891W        W79316  18.147  34.675  12.909
 6892W        W79317  34.895  20.244  13.464
 6893W        W79318  22.779  13.971  11.764
 6894W        W79319  24.177  29.857  11.044
 6895W        W79320  31.868  35.552   0.481
 6896W        W79321   9.696  34.982   3.432
 6897W        W79322  39.494  19.330  13.539
 6898W        W79323   5.827  29.719   4.803
 6899W        W79324  16.502   2.863   0.264
 6900W        W79325  26.089  16.514   4.573
 6901W        W79326  12.997  37.367   1.269
 6902W        W79327  24.306  18.453   2.218
 6903W        W79328  42.291  26.842  11.999
 6904W        W79329  19.721   1.476  11.913
 6905W        W79330  26.800  27.590   1.573
 6906W        W79331   2.864  12.275   1.738
 6907W        W79332  15.972  23.088   4.373
 6908W        W79333   2.939  22.073  11.595
 6909W        W79334  42.913  36.056  13.497
 6910W        W79335  23.275  34.568   0.984
 6911W        W79336  14.108  40.267  13.115
 6912W        W79337  42.222  41.823   1.985
 6913W        W79338  18.709  43.140   1.818
 6914W        W79339  20.039  31.374   3.117
 6915W        W79340  15.292  37.641  13.987
 6916W        W79341  25.641   4.519  14.470
 6917W        W79342   7.337  16.822   4.937
 6918W        W79343   8.888  20.227  14.844
 6919W        W79344  33.412  21.974  12.247
 6920W        W79345   5.913  17.372   0.359
 6921W        W79346   3.403   3.713   2.287
 6922W        W79347  33.092  27.238   2.309
 6923W        W79348   4.324  30.784   1.459
 6924W        W79349  44.391  17.599  14.772
 6925W        W79350  14.164  10.816   4.578
 6926W        W79351  30.931  25.186  11.187
 6927W        W79352  26.247  12.791  13.907
 6928W        W79353  20.980  31.425   4.419
 6929W        W79354  28.400  37.951   0.532
 6930W        W79355   5.658  20.499  14.006
 6931W        W79356   9.701  21.597  11.973
 6932W        W79357  17.022  13.788  12.349
 6933W        W79358   0.631  13.871  11.144
 6934W        W79359   5.300  15.013  13.545
 6935W        W79360  43.080  41.346  11.564
 6936W        W79361  32.912   0.439   4.790
 6937W        W79362  29.523  38.256   0.797
 6938W        W79363   2.881  26.946  12.622
 6939W        W79364  34.677  27.468   2.758
 6940W        W79365  35.282  13.340  14.616
 6941W        W79366  34.577  32.714  14.474
 6942W        W79367  12.161  25.981   1.697
 6943W        W79368  24.006  36.784  11.590
 6944W        W79369  38.053  44.995   4.608
 6945W        W79370  22.563  41.986   1.279
 6946W        W79371  39.153  20.253   0.432
 6947W        W79372   5.833  27.765   4.662
 6948W        W79373  22.691  36.398   4.523
 6949W        W79374  43.854   1.596  14.101
 6950W        W79375   0.834   6.069   1.864
 6951W        W79376  26.518   2.855   0.760
 6952W        W79377   8.664   3.291   0.770
 6953W        W79378  33.618  12.626  11.603
 6954W        W79379  25.213  20.329   3.969
 6955W        W79380  20.063   5.686   4.123
 6956W        W79381  31.571  10.115   0.907
 6957W        W79382   1.528  17.986   0.959
 6958W        W79383  31.067  38.854  10.675
 6959W        W79384  13.890   1.406  13.345
 6960W        W79385   5.558   1.436  13.008
 6961W        W79386  31.502  11.775   1.335
 6962W        W79387  44.323  17.514  11.123
 6963W        W79388  41.343  34.010  10.777
 6964W        W79389   0.773  42.377   2.763
 6965W        W79390  32.504  39.754  10.713
 6966W        W79391  43.824  12.260  13.011
 6967W        W79392  36.411  26.620   9.954
 6968W        W79393  37.870  23.743   4.069
 6969W        W79394  25.781   2.435  13.964
 6970W        W79395  24.389  26.983  12.107
 6971W        W79396  22.083  44.698  14.343
 6972W        W79397  35.330  37.419  10.519
 6973W        W79398   1.461  10.910   1.019
 6974W        W79399  11.209  35.525   1.341
 6975W        W79400  35.896   4.488   1.702
 6976W        W79401  18.364  35.063  13.948
 6977W        W79402  37.875  19.090   3.722
 6978W        W79403  15.016  21.306  14.314
 6979W        W79404  41.986  13.732  10.628
 6980W        W79405  22.423  12.194   4.636
 6981W        W79406   5.374  23.261  14.519
 6982W        W79407  30.688  37.462   2.754
 6983W        W79408  20.660  16.217  13.549
 6984W        W79409  11.655  17.523   2.059
 6985W        W79410  15.704   1.194  11.434
 6986W        W79411  16.636  13.582   3.719
 6987W        W79412  38.656  40.014  14.029
 6988W        W79413   7.764  30.486  13.989
 6989W        W79414  42.170  15.328  13.360
 6990W        W79415  12.873  14.067   3.260
 6991W        W79416   0.209  35.325  11.681
 6992W        W79417   1.372  21.810  10.968
 6993W        W79418  43.075  19.969  12.391
 6994W        W79419  38.364  13.456   1.762
 6995W        W79420  28.593  44.322  10.617
 6996W        W79421  37.408  18.921   3.895
 6997W        W79422  14.780  35.600  13.194
 6998W        W79423  22.164  39.858  14.074
 6999W        W79424  23.675  16.545   0.891
 7000W        W79425  32.321  43.941  14.958
 7001W        W79426  26.219  35.984   4.346
 7002W        W79427  41.732  17.233   3.638
 7003W        W79428  43.831  31.208   3.048
 7004W        W79429  40.000   0.017  10.868
 7005W        W79430   9.178  42.917   1.312
 7006W        W79431  20.962   1.530   4.408
 7007W        W79432  18.709  23.440   5.129
 7008W        W79433   3.443  29.449  13.068
 7009W        W79434  20.097   5.133   0.484
 7010W        W79435  18.308   8.258  14.596
 7011W        W79436   9.695   6.825  10.361
 7012W        W79437   7.923  41.529   3.194
 7013W        W79438  24.303  40.235  11.361
 7014W        W79439  43.815  34.442   2.716
 7015W        W79440  13.819  15.759  14.063
 7016W        W79441  22.019  12.977  13.332
 7017W        W79442  44.237  24.535   1.900
 7018W        W79443  11.164  40.366  13.490
 7019W        W79444  25.669  17.769   4.090
 7020W        W79445  14.566  16.103  11.493
 7021W        W79446  37.203   1.179  12.603
 7022W        W79447  44.742  15.150   0.334
 7023W        W79448  37.058  15.350  11.410
 7024W        W79449   0.577  42.403  11.528
 7025W        W79450  36.958  37.647  13.221
 7026W        W79451  31.956  24.096   1.332
 7027W        W79452  21.724   7.954   1.413
 7028W        W79453   5.890   7.870   4.279
 7029W        W79454  18.321   1.829   3.461
 7030W        W79455  30.881  31.985  14.942
 7031W        W79456  41.419  18.161   0.244
 7032W        W79457   8.629   1.953  12.563
 7033W        W79458   3.847   7.426  11.979
 7034W        W79459  16.175  29.114  14.870
 7035W        W79460  42.976  12.861   3.212
 7036W        W79461  12.806  32.170  10.299
 7037W        W79462  27.270  17.601   2.389
 7038W        W79463  44.823   3.419   1.366
 7039W        W79464  26.317  26.962   0.433
 7040W        W79465  35.687  35.118   1.285
 7041W        W79466  30.992  10.148  11.959
 7042W        W79467  36.208   9.760   4.767
 7043W        W79468   0.315   6.953  10.211
 7044W        W79469  19.284  24.333   2.131
 7045W        W79470  23.729  14.121   0.835
 7046W        W79471  20.155  35.652   0.494
 7047W        W79472  36.616   1.901   4.213
 7048W        W79473  44.522  29.216  13.451
 7049W        W79474   2.380  10.193  10.201
 7050W        W79475  44.256   6.858  14.455
 7051W        W79476  12.855  31.358   1.069
 7052W        W79477  11.180  19.709   3.636
 7053W        W79478   7.765  43.782   0.574
 7054W        W79479  15.611  39.268   5.032
 7055W        W79480  36.563  27.566   1.791
 7056W        W79481  19.059   8.419  11.072
 7057W        W79482  32.919  42.729   0.400
 7058W        W79483   7.750  32.566  13.811
 7059W        W79484  22.791  29.854   3.789
 7060W        W79485  44.897  16.181  14.233
 7061W        W79486   0.383  21.644  13.395
 7062W        W79487  18.400  44.183   1.255
 7063W        W79488  33.011  29.210   4.136
 7064W        W79489  29.331  32.264  10.339
 7065W        W79490  13.633  11.586  13.044
 7066W        W79491  41.413  33.202   4.175
 7067W        W79492  16.216   7.153  14.231
 7068W        W79493   6.394  12.130  12.500
 7069W        W79494   8.970  17.927   2.698
 7070W        W79495   7.998   4.001  11.245
 7071W        W79496  21.471  18.963   0.402
 7072W        W79497   4.371  19.358  12.371
 7073W        W79498  27.409  11.723  14.035
 7074W        W79499   6.419  23.200  13.044
 7075W        W79500  32.669  15.116  11.303
 7076W        W79501   6.228  24.067   1.742
 7077W        W79502   5.652  41.482  12.386
 7078W        W79503  37.248  26.648  13.839
 7079W        W79504  34.123  22.601   4.808
 7080W        W79505  21.785  11.671   4.815
 7081W        W79506   8.952  36.498   2.723
 7082W        W79507  21.697  30.670  14.855
 7083W        W79508  34.629   3.982   4.682
 7084W        W79509  43.389   8.697  12.609
 7085W        W79510  19.593  10.248  10.957
 7086W        W79511  44.754  25.906  12.774
 7087W        W79512  18.722  38.522  12.502
 7088W        W79513  32.036  43.769   2.304
 7089W        W79514  40.531  19.795   0.831
 7090W        W79515   4.962  34.403   4.604
 7091W        W79516  28.573  19.687   4.111
 7092W        W79517  21.680  23.747   2.201
 7093W        W79518  19.279  20.268   0.853
 7094W        W79519  34.797  17.310   0.736
 7095W        W79520  35.147  12.191  12.410
 7096W        W79521  14.501  19.227   3.842
 7097W        W79522   1.517  12.114   1.313
 7098W        W79523   9.162  15.868  14.546
 7099W        W79524   4.604  19.221  14.497
 7100W        W79525  28.859  15.684  13.899
 7101W        W79526   5.281  22.995   4.398
 7102W        W79527  15.952  42.965   0.918
 7103W        W79528  43.476   4.227   0.658
 7104W        W79529  21.072  22.816   4.565
 7105W        W79530  13.297  21.569   2.849
 7106W        W79531  33.174   0.366   2.922
 7107W        W79532  35.525  44.388  12.903
 7108W        W79533  17.469  16.026  13.985
 7109W        W79534  11.125  38.982  13.532
 7110W        W79535  37.539  12.898  13.486
 7111W        W79536  39.621  14.917   2.312
 7112W        W79537  14.910  21.624  13.772
 7113W        W79538   7.656  27.241  11.139
 7114W        W79539  16.137  22.616  12.972
 7115W        W79540   6.692  41.504  11.665
 7116W        W79541  31.498  12.818   1.347
 7117W        W79542   9.279  12.207  12.394
 7118W        W79543  31.968   5.464   1.324
 7119W        W79544  11.116  29.145  12.249
 7120W        W79545  41.561  44.819   1.912
 7121W        W79546   0.669  44.527   1.067
 7122W        W79547   5.522  37.603  13.894
 7123W        W79548   7.246  11.568  13.893
 7124W        W79549  13.594  21.000  10.216
 7125W        W79550  37.853  44.748   4.171
 7126W        W79551  10.029   6.640  11.657
 7127W        W79552   3.875   8.999  11.590
 7128W        W79553   9.454  11.618   1.453
 7129W        W79554  22.233  18.992  14.768
 7130W        W79555  10.858   4.959   3.787
 7131W        W79556  18.722  15.062  11.103
 7132W        W79557  29.014   8.020   3.775
 7133W        W79558  19.803  21.723   4.209
 7134W        W79559  22.728  11.567   1.398
 7135W        W79560  13.432  18.538   1.865
 7136W        W79561  31.118  22.001  11.538
 7137W        W79562  16.162   4.149  13.055
 7138W        W79563  33.772  15.846  13.621
 7139W        W79564  15.532   0.339  11.383
 7140W        W79565  14.688  24.992   1.392
 7141W        W79566  43.071  40.363   0.711
 7142W        W79567  11.041  20.563  12.923
 7143W        W79568  12.625  28.430  11.161
 7144W        W79569  18.193  35.884  11.128
 7145W        W79570  16.399  18.299   4.209
 7146W        W79571  34.591  21.035  11.041
 7147W        W79572  29.040  38.835   3.214
 7148W        W79573   7.687  29.177  13.320
 7149W        W79574  42.914   6.156  11.858
 7150W        W79575  27.666  31.581  11.089
 7151W        W79576  39.364  10.410  14.942
 7152W        W79577   7.851  17.558   0.237
 7153W        W79578  10.705  21.734  12.482
 7154W        W79579  21.663  21.549  14.268
 7155W        W79580  36.197   5.635   2.398
 7156W        W79581  14.230  16.239   2.411
 7157W        W79582  14.857  18.840   0.389
 7158W        W79583  33.596   5.225   3.807
 7159W        W79584  37.302  37.911  12.940
 7160W        W79585  31.116   0.226   0.424
 7161W        W79586  34.035   6.005  10.690
 7162W        W79587  19.024  26.598   4.997
 7163W        W79588  16.415  21.027   0.950
 7164W        W79589   3.108  15.129  11.658
 7165W        W79590  10.835  15.907  14.890
 7166W        W79591  23.570  33.460  13.316
 7167W        W79592  33.363   2.179   1.327
 7168W        W79593  20.275  15.780  14.763
 7169W        W79594   5.402  11.095  14.391
 7170W        W79595  26.763  31.059   3.207
 7171W        W79596  40.556   9.400  13.441
 7172W        W79597  11.657  15.684   2.490
 7173W        W79598   0.818  26.008  13.979
 7174W        W79599  16.233  30.649  13.349
 7175W        W79600   4.644  22.187   0.692
 7176W        W79601  19.236  30.863   4.608
 7177W        W79602   2.331  17.066   2.677
 7178W        W79603  16.210  25.991   4.594
 7179W        W79604  40.039  35.535  12.311
 7180W        W79605  27.985  35.957   3.646
 7181W        W79606   9.882  44.420   0.888
 7182W        W79607  14.072  35.376  11.504
 7183W        W79608  24.883  15.664   4.563
 7184W        W79609  26.498   1.199   3.691
 7185W        W79610  25.134  36.513   3.849
 7186W        W79611   3.808   4.363   4.600
 7187W        W79612  39.407  12.457  14.021
 7188W        W79613  37.387  36.909   3.793
 7189W        W79614   7.663   8.642  14.340
 7190W        W79615  14.739  30.449   1.362
 7191W        W79616  42.394  18.970   5.112
 7192W        W79617  43.222   9.179  12.506
 7193W        W79618  17.306  29.430   3.421
 7194W        W79619   9.003  36.443  13.145
 7195W        W79620   0.262  12.099  13.581
 7196W        W79621  43.575  12.162   4.190
 7197W        W79622  36.333  24.219   0.458
 7198W        W79623  14.860  12.495   4.532
 7199W        W79624  29.437  10.545   1.287
 7200W        W79625  44.735  25.675   2.863
 7201W        W79626   1.332  25.987   2.442
 7202W        W79627  40.531  15.300  13.066
 7203W        W79628   5.816  33.422  11.657
 7204W        W79629  15.399  33.777   4.135
 7205W        W79630  32.568  27.430   3.258
 7206W        W79631  18.186   3.998   3.850
 7207W        W79632  38.895   6.146  10.993
 7208W        W79633  10.425  31.456   2.254
 7209W        W79634   3.895  18.568   2.463
 7210W        W79635  30.120   0.786   2.053
 7211W        W79636  35.665  23.172  14.391
 7212W        W79637  17.306  21.617   3.250
 7213W        W79638  39.280  18.282   2.873
 7214W        W79639  34.160  19.080   4.089
 7215W        W79640  31.698  39.262   0.361
 7216W        W79641  42.457   9.205  13.575
 7217W        W79642  36.259  36.078  13.359
 7218W        W79643  12.812   8.420   3.268
 7219W        W79644  11.772  13.560  13.308
 7220W        W79645   0.745  12.979   0.692
 7221W        W79646  18.024  17.607   4.112
 7222W        W79647  12.455   4.907   5.141
 7223W        W79648  32.044  15.549   2.466
 7224W        W79649  18.578   2.282   1.715
 7225W        W79650   6.485  25.075   4.148
 7226W        W79651  21.654  42.470  13.260
 7227W        W79652   5.355  19.983   4.391
 7228W        W79653  20.572  26.215   1.236
 7229W        W79654  26.959  20.793   3.938
 7230W        W79655  15.902   4.836   4.468
 7231W        W79656  21.699  40.959   1.248
 7232W        W79657  15.645   5.635   1.604
 7233W        W79658  22.182  39.838   1.878
 7234W        W79659   6.588  28.189  12.398
 7235W        W79660  29.122  40.424  14.191
 7236W        W79661  40.374  44.014   4.086
 7237W        W79662   5.725   6.723   2.287
 7238W        W79663   0.619  14.462  10.871
 7239W        W79664   4.670  12.015   4.788
 7240W        W79665  30.648  33.985   2.635
 7241W        W79666  30.541   7.777   2.740
 7242W        W79667  18.377  18.751   1.224
 7243W        W79668  11.608  32.957   4.742
 7244W        W79669   5.810  36.483   3.573
 7245W        W79670  22.232  39.385  14.311
 7246W        W79671  32.085  20.956   1.900
 7247W        W79672  24.463  16.760   1.402
 7248W        W79673  37.470  39.796   1.042
 7249W        W79674   8.630  22.411  11.019
 7250W        W79675   9.089  43.334  14.835
 7251W        W79676  12.272   5.341  11.889
 7252W        W79677  31.664   7.218   2.886
 7253W        W79678  15.774  40.788   4.702
 7254W        W79679  43.276  40.495   2.035
 7255W        W79680  27.892   8.059  13.780
 7256W        W79681  15.879  35.941  12.409
 7257W        W79682  20.582  15.687  13.449
 7258W        W79683  28.123   5.833   0.472
 7259W        W79684  31.458   7.146   1.473
 7260W        W79685  29.396  13.381  11.501
 7261W        W79686   4.318   9.352   2.825
 7262W        W79687  44.655  36.480  12.109
 7263W        W79688  20.954  24.153   2.155
 7264W        W79689  42.231  19.026   3.075
 7265W        W79690  23.617   8.196  12.225
 7266W        W79691  27.542   2.448   0.384
 7267W        W79692  43.343  30.563   4.974
 7268W        W79693   2.992   6.802   0.358
 7269W        W79694  33.568  25.996   2.272
 7270W        W79695  26.291  20.007  12.799
 7271W        W79696  29.158  15.959   2.761
 7272W        W79697  20.066  40.057   3.715
 7273W        W79698  34.594   9.245   0.337
 7274W        W79699  11.442   5.648  13.809
 7275W        W79700  10.665   8.424   3.992
 7276W        W79701  43.663  11.234   3.094
 7277W        W79702  35.704  23.565   4.335
 7278W        W79703   9.868  29.492   1.899
 7279W        W79704  37.921   8.333  14.089
 7280W        W79705  19.695   6.839   2.444
 7281W        W79706   3.708  19.584   2.175
 7282W        W79707  39.071  28.168  12.050
 7283W        W79708  16.804  37.429   1.687
 7284W        W79709  13.558   0.717  11.643
 7285W        W79710  25.740   8.289  14.931
 7286W        W79711  37.247  21.474   4.586
 7287W        W79712  10.905  40.134   1.330
 7288W        W79713   2.678   9.683  11.164
 7289W        W79714  23.506  42.238   0.910
 7290W        W79715  28.327  36.543  12.014
 7291W        W79716   6.805  10.148   4.168
 7292W        W79717  19.684  27.407  14.498
 7293W        W79718  22.145  36.089  12.784
 7294W        W79719  27.437  10.861   1.240
 7295W        W79720  12.456  16.037  12.025
 7296W        W79721   7.782   4.283  12.874
 7297W        W79722  19.322  18.233  13.378
 7298W        W79723  15.642  39.821   2.859
 7299W        W79724  32.398   6.717  14.568
 7300W        W79725  34.074  22.965  14.039
 7301W        W79726  24.068   0.817   3.130
 7302W        W79727  33.451  21.098   4.146
 7303W        W79728  11.342  20.982  11.574
 7304W        W79729   5.461   9.127  10.980
 7305W        W79730  34.604  33.370   2.690
 7306W        W79731  21.526  37.495  11.937
 7307W        W79732   3.162   2.952   1.750
 7308W        W79733  11.038   5.489   2.382
 7309W        W79734   8.191  12.767  14.857
 7310W        W79735   4.912  20.636  10.756
 7311W        W79736  27.044  37.492   4.549
 7312W        W79737  20.352  13.068   5.298
 7313W        W79738   8.098  42.183  14.000
 7314W        W79739  30.393  28.035   1.396
 7315W        W79740   1.007  14.784   0.926
 7316W        W79741  24.569  22.183  11.970
 7317W        W79742  30.166   9.845   2.384
 7318W        W79743   2.915  41.961   2.270
 7319W        W79744  34.946  44.325   0.804
 7320W        W79745  35.433  37.277   3.537
 7321W        W79746  14.682  29.670  11.734
 7322W        W79747  25.310  18.580  14.932
 7323W        W79748   6.322  34.902   0.302
 7324W        W79749  34.302  19.171  13.012
 7325W        W79750  12.239   6.167   3.311
 7326W        W79751  27.194   8.626  14.900
 7327W        W79752  15.729  10.136  13.543
 7328W        W79753  18.096  36.532  14.790
 7329W        W79754  34.903  19.518  14.269
 7330W        W79755  42.239  36.055  12.440
 7331W        W79756  12.270  35.342   1.646
 7332W        W79757  39.977  40.744   3.139
 7333W        W79758  30.607  41.043  13.549
 7334W        W79759  44.293  22.772   3.637
 7335W        W79760  12.658  21.432  13.502
 7336W        W79761  21.570   4.598  14.359
 7337W        W79762   7.362  29.666   2.168
 7338W        W79763  41.593  44.588   4.859
 7339W        W79764  11.652  27.425  13.832
 7340W        W79765  35.818  14.319  12.572
 7341W        W79766  14.988  10.253   4.607
 7342W        W79767   4.382   8.812   2.661
 7343W        W79768  40.254  23.090   3.084
 7344W        W79769  36.422  16.229  10.358
 7345W        W79770  33.127  12.404  12.489
 7346W        W79771  24.287  19.221   1.782
 7347W        W79772   6.848   4.929  10.645
 7348W        W79773   2.732  12.973  13.814
 7349W        W79774   6.616  18.573   4.577
 7350W        W79775  11.775  22.086  10.947
 7351W        W79776  28.053   2.805   1.142
 7352W        W79777  42.930  19.185   3.232
 7353W        W79778  18.414  19.790   4.672
 7354W        W79779  17.881   5.659  11.443
 7355W        W79780  31.056  26.994   2.810
 7356W        W79781   2.471  15.051   2.737
 7357W        W79782  29.702   2.794  11.864
 7358W        W79783   7.682  28.509   0.813
 7359W        W79784   9.302  18.427  13.372
 7360W        W79785  13.121  42.981  13.031
 7361W        W79786  43.531  20.982  14.818
 7362W        W79787  23.383  18.622   4.432
 7363W        W79788  26.956  36.238   3.682
 7364W        W79789  19.683   3.745  14.100
 7365W        W79790   4.649  32.278   4.200
 7366W        W79791  14.507   1.292  14.035
 7367W        W79792  34.069  39.667   1.411
 7368W        W79793  43.238  41.915  13.514
 7369W        W79794  38.390   6.748   1.942
 7370W        W79795   6.654  44.396   1.309
 7371W        W79796  41.490   2.827   1.747
 7372W        W79797  18.821  25.683  12.018
 7373W        W79798  34.364  27.796  13.941
 7374W        W79799  28.733  35.207   2.091
 7375W        W79800  20.050  29.247  12.461
 7376W        W79801   9.563   4.880   4.350
 7377W        W79802  33.445  37.927  14.302
 7378W        W79803  27.570  44.291  10.633
 7379W        W79804  35.060   4.369   0.340
 7380W        W79805  12.387  34.458  12.457
 7381W        W79806  32.567  23.334  13.089
 7382W        W79807  39.443  17.548   0.800
 7383W        W79808  21.711  37.462  13.777
 7384W        W79809  21.531   2.332   3.683
 7385W        W79810  26.489  38.949   4.324
 7386W        W79811  35.121  17.757  12.446
 7387W        W79812  43.910  14.625   4.051
 7388W        W79813  25.845  38.075  11.566
 7389W        W79814  35.095  20.521  12.632
 7390W        W79815   2.341  23.193  14.803
 7391W        W79816  29.688  37.320  12.522
 7392W        W79817   6.763   7.119   2.237
 7393W        W79818  21.603  39.520   3.614
 7394W        W79819  11.326  24.411  11.485
 7395W        W79820  20.966  19.440  10.716
 7396W        W79821  15.547   2.855  13.798
 7397W        W79822  24.616  31.635  14.839
 7398W        W79823  12.105  17.060  12.948
 7399W        W79824  14.954  37.874  12.553
 7400W        W79825  31.613  13.060   4.154
 7401W        W79826  29.170  37.384  11.347
 7402W        W79827  19.994   0.417  12.430
 7403W        W79828   9.740  15.610  13.889
 7404W        W79829   8.751   3.099  13.548
 7405W        W79830  17.102  27.519   3.969
 7406W        W79831  40.502  42.717   2.810
 7407W        W79832  34.548  26.497   4.582
 7408W        W79833  44.356  36.631  12.524
 7409W        W79834   2.486  10.808  11.606
 7410W        W79835  29.415  22.163   0.311
 7411W        W79836  29.847  15.710   0.732
 7412W        W79837   7.239   6.289  13.420
 7413W        W79838   4.464  25.725   3.787
 7414W        W79839  37.924  15.332  13.531
 7415W        W79840  41.177  39.981   0.376
 7416W        W79841   2.679  11.324  13.363
 7417W        W79842  42.937  10.144   4.419
 7418W        W79843  18.097  19.277  10.702
 7419W        W79844  27.608  38.447   0.726
 7420W        W79845   2.904  24.525   3.663
 7421W        W79846  23.522   4.931  13.498
 7422W        W79847  14.719  13.430   2.442
 7423W        W79848  18.072   7.898   2.019
 7424W        W79849  39.020  30.276  11.109
 7425W        W79850  10.742   5.542   1.930
 7426W        W79851  19.739  19.111   4.335
 7427W        W79852  19.658  39.328   0.806
 7428W        W79853  13.712   8.171   0.502
 7429W        W79854  26.654  29.200  14.508
 7430W        W79855  29.069  18.371   3.529
 7431W        W79856  41.204  37.619  11.107
 7432W        W79857  40.502   4.406  14.304
 7433W        W79858  26.937  11.819   4.372
 7434W        W79859  32.059  12.175   1.595
 7435W        W79860  14.544  42.519  13.546
 7436W        W79861   1.397  31.983   4.634
 7437W        W79862   0.365  14.667   1.410
 7438W        W79863  12.887   3.811   5.105
 7439W        W79864  13.153  16.753   4.657
 7440W        W79865  18.197  39.866  10.468
 7441W        W79866  28.561  28.749   2.147
 7442W        W79867   1.948  14.364  11.575
 7443W        W79868  39.582   9.259   3.176
 7444W        W79869   6.198  29.408  12.034
 7445W        W79870  13.172  39.961  11.617
 7446W        W79871   7.483   4.058  11.256
 7447W        W79872  22.739   7.133  11.367
 7448W        W79873  44.072  27.119   1.342
 7449W        W79874  38.506  42.856   4.510
 7450W        W79875  30.495   3.302   3.195
 7451W        W79876  35.399   6.964   4.575
 7452W        W79877  44.307   4.209  13.850
 7453W        W79878   0.395   2.844  13.713
 7454W        W79879  42.810  23.036   4.064
 7455W        W79880  31.239   4.221   1.252
 7456W        W79881   7.662   3.717   1.776
 7457W        W79882  22.442  11.727  12.423
 7458W        W79883  30.954  40.494   0.713
 7459W        W79884   6.231  20.194   3.786
 7460W        W79885  35.121  29.415   3.208
 7461W        W79886  27.180   7.878   0.429
 7462W        W79887   2.182  42.891   3.102
 7463W        W79888  26.965  22.981   4.189
 7464W        W79889  27.986  17.224   3.244
 7465W        W79890   7.855  29.573   1.779
 7466W        W79891   1.239  36.641   3.654
 7467W        W79892  10.277  21.224   0.990
 7468W        W79893  39.915  43.690   4.305
 7469W        W79894  44.513  11.100   0.414
 7470W        W79895  12.712  27.657  10.679
 7471W        W79896  36.452   6.656   0.383
 7472W        W79897  37.024   8.946  13.966
 7473W        W79898   9.399  43.687   1.840
 7474W        W79899  17.179  35.459   0.486
 7475W        W79900  19.082  43.386   3.993
 7476W        W79901  44.014   0.790   3.771
 7477W        W79902  38.637  30.409  13.403
 7478W        W79903  42.313  20.980  11.510
 7479W        W79904  23.222  17.766   4.498
 7480W        W79905  37.256  30.142   4.761
 7481W        W79906  42.254  36.935  12.689
 7482W        W79907   0.331  26.165  14.676
 7483W        W79908  42.454  25.213  14.138
 7484W        W79909  36.819  44.748  12.351
 7485W        W79910  41.342  36.123  11.147
 7486W        W79911  24.115  21.582  13.550
 7487W        W79912  34.193  29.008   4.533
 7488W        W79913  35.152  32.923   4.122
 7489W        W79914  19.727  31.218   1.832
 7490W        W79915  21.073   9.447  10.828
 7491W        W79916  43.017  20.287  12.785
 7492W        W79917  17.714  31.389   3.269
 7493W        W79918  36.615  33.820   5.177
 7494W        W79919  27.200  41.501  11.586
 7495W        W79920  27.330   6.544  13.459
 7496W        W79921  16.556   7.140   4.835
 7497W        W79922   8.730  20.229   4.125
 7498W        W79923  22.679  37.421   3.903
 7499W        W79924  35.415   5.892  11.265
 7500W        W79925  12.117  18.852   3.649
 7501W        W79926  20.684  41.589   4.201
 7502W        W79927  23.976  36.369  14.489
 7503W        W79928   9.347  14.428  11.903
 7504W        W79929   6.888  15.030  12.048
 7505W        W79930  42.059  21.295   1.860
 7506W        W79931  44.212  16.069   0.527
 7507W        W79932   5.162  14.690   2.282
 7508W        W79933  15.745   9.375  12.985
 7509W        W79934   2.600  42.329  14.231
 7510W        W79935  14.200  16.588   1.664
 7511W        W79936  39.346  42.794   3.439
 7512W        W79937  40.499   6.657  10.883
 7513W        W79938  33.482  38.811  14.420
 7514W        W79939  37.926  34.702   1.343
 7515W        W79940  16.312   9.594   3.871
 7516W        W79941  40.746   8.225   1.805
 7517W        W79942  25.022  39.105   4.632
 7518W        W79943   0.305  40.326  13.878
 7519W        W79944  10.797  35.026  11.532
 7520W        W79945  32.191  34.532  13.589
 7521W        W79946   4.917   0.257  11.924
 7522W        W79947  35.587  35.075   0.454
 7523W        W79948  28.094  35.635   5.099
 7524W        W79949  41.851  41.193  13.412
 7525W        W79950  38.516  20.535   0.763
 7526W        W79951  28.446   8.500   3.231
 7527W        W79952  30.936  24.560  12.622
 7528W        W79953  40.751  10.282  11.565
 7529W        W79954   9.237  18.934  13.340
 7530W        W79955  13.201  32.402  11.869
 7531W        W79956   4.499  13.771  14.939
 7532W        W79957  36.376  43.453  13.900
 7533W        W79958  24.997   5.262  11.579
 7534W        W79959  28.075  20.736  10.384
 7535W        W79960  29.967  39.073   5.048
 7536W        W79961  15.725  38.374  14.664
 7537W        W79962  43.765  17.316   1.227
 7538W        W79963   5.748  12.861   2.167
 7539W        W79964   7.117  42.855   5.239
 7540W        W79965  19.210  17.747  11.724
 7541W        W79966  17.746  42.511   4.565
 7542W        W79967   7.834  34.510   3.069
 7543W        W79968  31.687  24.166  11.050
 7544W        W79969   8.396  44.326   4.400
 7545W        W79970   3.131  22.936  11.715
 7546W        W79971  10.693   6.806  13.144
 7547W        W79972   3.199  27.156  13.930
 7548W        W79973  44.014  15.609   0.664
 7549W        W79974  11.774   6.021  11.169
 7550W        W79975  26.581  33.818   4.704
 7551W        W79976  27.500   2.209  10.736
 7552W        W79977   2.767  14.715  13.219
 7553W        W79978  12.152  27.114   0.772
 7554W        W79979  28.747  39.437  14.449
 7555W        W79980  41.805  10.798  10.899
 7556W        W79981  20.728   8.069  11.289
 7557W        W79982   4.006  37.316   3.702
 7558W        W79983  25.631  35.834  13.001
 7559W        W79984  23.203  40.442   4.542
 7560W        W79985   7.860  34.727   1.983
 7561W        W79986   7.330  16.634   2.932
 7562W        W79987  42.716  44.127  10.858
 7563W        W79988  30.001  20.435   0.331
 7564W        W79989  31.960   7.948  13.901
 7565W        W79990  34.456  12.451   1.813
 7566W        W79991   7.915  33.989   0.603
 7567W        W79992   1.883  14.866   3.874
 7568W        W79993  35.473  24.448  13.068
 7569W        W79994  12.154   3.559   1.406
 7570W        W79995   5.991   5.886   0.324
 7571W        W79996   3.919   4.817   4.318
 7572W        W79997   4.804   9.188  11.807
 7573W        W79998  39.041   9.887   2.895
 7574W        W79999  11.554  44.040   1.086
 7575W        W80000  10.431  43.652   3.315
 7576W        W80001  24.914  29.926  11.466
 7577W        W80002   6.899   5.781  11.922
 7578W        W80003  24.074  19.749  10.753
 7579W        W80004  24.980   6.779  14.822
 7580W        W80005   2.925  35.862   2.613
 7581W        W80006  21.454  11.150  14.743
 7582W        W80007  14.296  13.060  12.036
 7583W        W80008  27.429  33.746  13.080
 7584W        W80009  39.369  13.566   1.612
 7585W        W80010  29.550  10.213  10.281
 7586W        W80011  20.256   9.148   3.750
 7587W        W80012   2.841  34.145  13.312
 7588W        W80013  13.307  16.541   2.684
 7589W        W80014  23.794   0.230   0.211
 7590W        W80015   7.804  30.069   1.942
 7591W        W80016   9.333  25.625  14.509
 7592W        W80017   8.920  20.762   4.086
 7593W        W80018  31.581  14.370   2.666
 7594W        W80019  10.279  19.224   1.761
 7595W        W80020  22.278  29.904  11.055
 7596W        W80021   4.293  40.880  10.750
 7597W        W80022   4.648  18.771   2.787
 7598W        W80023  34.332  18.281  13.365
 7599W        W80024  18.938  40.482  14.353
 7600W        W80025   3.764  13.580  13.439
 7601W        W80026  35.498  39.715   0.990
 7602W        W80027  21.078  40.694   1.778
 7603W        W80028  29.115  44.480   4.825
 7604W        W80029   1.939  10.699   1.322
 7605W        W80030  32.177  32.511  13.289
 7606W        W80031  29.163  23.100   4.819
 7607W        W80032   8.367  31.656  13.991
 7608W        W80033  29.531  38.606   5.828
 7609W        W80034   9.095  27.002  14.784
 7610W        W80035   9.297  12.261  11.862
 7611W        W80036  26.553  20.663   0.053
 7612W        W80037  18.193  26.446  13.314
 7613W        W80038   0.328  16.649  11.570
 7614W        W80039   3.270  15.155  11.169
 7615W        W80040  41.917   9.063  11.288
 7616W        W80041  34.576   1.343   2.449
 7617W        W80042   0.743  15.011   1.294
 7618W        W80043  34.901  35.044   0.764
 7619W        W80044  21.492  29.444   4.549
 7620W        W80045  24.624  15.809   5.003
 7621W        W80046  35.455  17.684   1.087
 7622W        W80047  38.494  44.469  11.689
 7623W        W80048  11.645   2.199   9.776
 7624W        W80049   9.094   2.069   0.425
 7625W        W80050  20.521  16.768  11.862
 7626W        W80051  37.627  14.097   0.337
 7627W        W80052  21.934   6.212  11.395
 7628W        W80053  31.969  30.374  13.998
 7629W        W80054  35.261  14.161  14.410
 7630W        W80055   1.141  12.134  11.217
 7631W        W80056  38.050  19.311   1.726
 7632W        W80057  23.202  38.056  13.603
 7633W        W80058  29.109  32.156   3.703
 7634W        W80059  12.880  28.998   1.357
 7635W        W80060   8.431  10.987  13.500
 7636W        W80061  38.177  24.534   1.414
 7637W        W80062  28.407   4.345  14.382
 7638W        W80063  36.499  29.279   2.358
 7639W        W80064   2.320  38.508  14.265
 7640W        W80065  40.426  43.707   4.493
 7641W        W80066  42.002  35.683   4.759
 7642W        W80067  36.902   6.099   4.640
 7643W        W80068  29.656  22.669   0.250
 7644W        W80069  33.438  11.406  12.617
 7645W        W80070  31.526  32.288   3.354
 7646W        W80071  41.225  44.604   0.956
 7647W        W80072  19.051  21.829  12.566
 7648W        W80073  36.518  21.074   1.875
 7649W        W80074  41.942   4.965   1.239
 7650W        W80075   7.651  14.856  14.256
 7651W        W80076  34.022   0.421   1.766
 7652W        W80077   1.471   6.777   4.596
 7653W        W80078  14.640   7.422   4.592
 7654W        W80079  30.386   6.810   3.399
 7655W        W80080  31.551  38.622  14.083
 7656W        W80081  27.637  44.987  13.617
 7657W        W80082   7.903  17.819   3.204
 7658W        W80083   0.232  25.201   0.302
 7659W        W80084  36.832  20.521  11.492
 7660W        W80085  22.993  35.708   0.993
 7661W        W80086  38.911  33.531  14.006
 7662W        W80087  23.619   8.470   2.729
 7663W        W80088  18.019   1.377   1.710
 7664W        W80089  41.990  15.331   0.564
 7665W        W80090   0.537  18.252   3.942
 7666W        W80091   9.629  34.117   3.706
 7667W        W80092   8.035  28.969   2.401
 7668W        W80093  42.002  30.069  11.389
 7669W        W80094   9.225  33.995  10.567
 7670W        W80095  35.736  39.146   2.240
 7671W        W80096  25.561  12.159   3.125
 7672W        W80097  28.402  41.983  11.616
 7673W        W80098  38.000  29.196   1.709
 7674W        W80099   1.198  36.143  12.382
 7675W        W80100  26.296  27.879   2.346
 7676W        W80101  13.659  37.540   3.169
 7677W        W80102  21.113  44.352  14.798
 7678W        W80103  32.669   6.513   4.074
 7679W        W80104   8.250  39.110  11.509
 7680W        W80105  23.605  24.018   4.791
 7681W        W80106  36.310  21.299  12.507
 7682W        W80107   6.828   4.406   3.819
 7683W        W80108   2.418  25.553  11.333
 7684W        W80109  14.797  16.226   4.667
 7685W        W80110  11.810  27.210   2.348
 7686W        W80111  12.595  32.213   1.250
 7687W        W80112   0.910  27.131   2.709
 7688W        W80113  15.065  35.107   2.150
 7689W        W80114  12.630   6.387  11.110
 7690W        W80115  34.828  15.571  11.623
 7691W        W80116   0.152  27.439   3.098
 7692W        W80117   2.227  23.035  10.709
 7693W        W80118  11.101  40.264   0.856
 7694W        W80119   0.175  29.465  11.588
 7695W        W80120  27.292  10.701   4.496
 7696W        W80121  23.846  10.577  10.943
 7697W        W80122  14.284  22.839   3.580
 7698W        W80123  40.948  23.457   2.968
 7699W        W80124   8.096  25.432   2.261
 7700W        W80125  10.880  25.679   1.751
 7701W        W80126  10.108   4.164   0.700
 7702W        W80127  15.574  35.599   1.954
 7703W        W80128   6.055  32.340   4.235
 7704W        W80129  42.351  41.247  13.799
 7705W        W80130  31.548   8.756   0.777
 7706W        W80131  39.602  35.979   1.425
 7707W        W80132  11.855  38.014  11.182
 7708W        W80133  24.189   7.144   2.776
 7709W        W80134  26.232  14.844   0.786
 7710W        W80135  20.816  31.819   2.101
 7711W        W80136  28.060  22.027  11.804
 7712W        W80137  13.819  14.901  11.818
 7713W        W80138  31.004  42.886   1.819
 7714W        W80139   3.171   8.633   1.737
 7715W        W80140   4.602  31.402   1.997
 7716W        W80141  27.009  11.904  13.108
 7717W        W80142  13.105  32.481  13.343
 7718W        W80143   6.978  37.963  10.362
 7719W        W80144  22.631  30.952   0.703
 7720W        W80145   9.877  21.883   1.329
 7721W        W80146  26.679   2.153  12.307
 7722W        W80147  43.424   8.337  14.705
 7723W        W80148  11.992   4.128   3.628
 7724W        W80149  15.572  16.421  11.616
 7725W        W80150   2.690  41.532  14.575
 7726W        W80151   5.966  26.219   0.413
 7727W        W80152  10.278   8.987   2.461
 7728W        W80153   1.682   0.210   2.176
 7729W        W80154  18.709   7.813  12.593
 7730W        W80155   9.879   0.769   5.030
 7731W        W80156   9.314  34.428   2.678
 7732W        W80157  37.962   5.833   0.767
 7733W        W80158  18.537  10.996  14.541
 7734W        W80159   8.554  10.345  10.479
 7735W        W80160  16.209  37.869   0.784
 7736W        W80161  12.364   7.407  11.472
 7737W        W80162  25.357  34.995   0.150
 7738W        W80163   2.881  18.686   0.257
 7739W        W80164  23.513  10.602   2.837
 7740W        W80165  18.279   8.066   3.698
 7741W        W80166  25.408  15.560  14.024
 7742W        W80167  35.965  22.732   4.493
 7743W        W80168   2.393   3.877   1.282
 7744W        W80169  27.193  13.345   2.186
 7745W        W80170  24.994  19.049  12.559
 7746W        W80171  16.639  13.378   0.799
 7747W        W80172  24.837   9.150   0.699
 7748W        W80173  31.355  34.374   2.686
 7749W        W80174   3.229  44.887   4.138
 7750W        W80175  20.734  18.858   2.659
 7751W        W80176   6.532  35.678  13.815
 7752W        W80177   3.872  34.229  10.766
 7753W        W80178   2.475  27.153   3.262
 7754W        W80179  38.527   9.938  12.397
 7755W        W80180   0.178  36.002  13.185
 7756W        W80181  35.455  30.797  13.750
 7757W        W80182  40.893  27.522   0.069
 7758W        W80183  24.876   2.848  14.327
 7759W        W80184  20.270  33.581  13.126
 7760W        W80185  34.493   3.993   3.284
 7761W        W80186  12.357  21.164   1.688
 7762W        W80187  23.747  36.022  10.471
 7763W        W80188  18.217  37.983  12.031
 7764W        W80189  12.194  30.049   1.744
 7765W        W80190  22.464  24.167   2.254
 7766W        W80191  40.133  32.647   0.906
 7767W        W80192  14.350   7.409  12.958
 7768W        W80193  13.624  29.043   1.758
 7769W        W80194  17.265  35.109   1.799
 7770W        W80195  41.982  33.110   2.656
 7771W        W80196   5.872  16.069   0.020
 7772W        W80197  15.851   0.295   9.875
 7773W        W80198  10.808  23.967  12.013
 7774W        W80199  37.789  15.760   0.776
 7775W        W80200  23.800  31.600  12.333
 7776W        W80201  30.745  13.450   5.115
 7777W        W80202   8.810  19.304  10.565
 7778W        W80203  30.742  39.846  14.458
 7779W        W80204  27.905  42.462  11.028
 7780W        W80205  17.310   0.942   2.287
 7781W        W80206  33.456  39.479  11.812
 7782W        W80207   4.729  12.868  11.598
 7783W        W80208  20.159  10.613   9.866
 7784W        W80209  16.210  42.942   4.700
 7785W        W80210  12.930   8.754   2.381
 7786W        W80211  23.529  37.561   2.215
 7787W        W80212   7.957  33.177   2.332
 7788W        W80213  12.537  19.049  12.577
 7789W        W80214  30.099  25.529   0.449
 7790W        W80215  38.006   8.652   5.011
 7791W        W80216  36.867   2.025   3.770
 7792W        W80217  30.836  21.414   5.582
 7793W        W80218  16.103   9.043  11.625
 7794W        W80219   6.489   0.123   4.543
 7795W        W80220  21.757  43.967  11.523
 7796W        W80221  16.612  21.000   2.304
 7797W        W80222   8.263  17.703  13.468
 7798W        W80223  16.342  31.955   0.747
 7799W        W80224  19.134   4.275  11.234
 7800W        W80225  34.683  39.899  11.644
 7801W        W80226  16.043  24.540  13.565
 7802W        W80227  13.138  25.023   0.774
 7803W        W80228  38.228  39.968  12.158
 7804W        W80229  25.847  43.234   0.817
 7805W        W80230  13.198  30.959   4.336
 7806W        W80231   5.913   4.459  11.473
 7807W        W80232  34.290  10.542  10.998
 7808W        W80233  30.963  26.333  13.072
 7809W        W80234  22.594  11.229  12.054
 7810W        W80235  13.650  20.937   3.604
 7811W        W80236  10.149   0.858   3.305
 7812W        W80237   0.498  15.115  12.498
 7813W        W80238  16.712   5.987  14.402
 7814W        W80239  25.067  15.716  13.637
 7815W        W80240   9.775   5.717  14.966
 7816W        W80241   2.988  29.914   0.826
 7817W        W80242  26.117  11.202  10.349
 7818W        W80243  30.187   0.835  14.543
 7819W        W80244  29.869  30.127  10.624
 7820W        W80245  40.945  18.084  11.970
 7821W        W80246   8.848   0.280   0.284
 7822W        W80247  44.241   8.586   2.904
 7823W        W80248  24.479   7.217   3.640
 7824W        W80249  38.527  16.330  14.930
 7825W        W80250  24.134  32.297   1.887
 7826W        W80251  37.523  28.399  13.006
 7827W        W80252  40.848  28.456   0.285
 7828W        W80253  21.290  35.421  12.967
 7829W        W80254  35.810  43.398  12.956
 7830W        W80255  33.577   3.936  14.925
 7831W        W80256  21.786  10.284   2.800
 7832W        W80257  22.265   8.861   1.400
 7833W        W80258  37.500  16.232   0.820
 7834W        W80259  28.691   5.775  11.083
 7835W        W80260   6.497  37.906  11.467
 7836W        W80261  24.717   3.844   5.017
 7837W        W80262  14.605  13.857   4.589
 7838W        W80263  25.531   0.718  11.130
 7839W        W80264  40.829  40.516   4.373
 7840W        W80265  16.954  28.669   2.925
 7841W        W80266  30.499  25.075   3.394
 7842W        W80267  10.248   6.939  12.901
 7843W        W80268  41.767  24.693   4.134
 7844W        W80269  23.669  13.047  11.881
 7845W        W80270  12.598  19.181   2.659
 7846W        W80271   4.704  32.054   3.635
 7847W        W80272  13.041   0.512   1.759
 7848W        W80273  33.531  21.633  13.983
 7849W        W80274  27.958  16.879  12.980
 7850W        W80275  32.671  36.704  14.891
 7851W        W80276  35.520  34.904  13.330
 7852W        W80277  21.852  22.438  14.707
 7853W        W80278  17.222  37.064  12.083
 7854W        W80279  13.951  18.415   1.923
 7855W        W80280  26.607  35.850  14.204
 7856W        W80281  21.698  36.630   3.316
 7857W        W80282  31.612  11.314  13.933
 7858W        W80283  37.484   4.430  10.622
 7859W        W80284  25.483   0.281  14.933
 7860W        W80285  35.940  26.562   2.222
 7861W        W80286  17.116  32.922  11.483
 7862W        W80287  38.634  23.124  12.202
 7863W        W80288  23.697   5.644   0.907
 7864W        W80289  11.327  23.940  10.711
 7865W        W80290  40.118  21.366   2.707
 7866W        W80291   2.335  29.099   4.573
 7867W        W80292   4.672  18.978   3.257
 7868W        W80293  31.381   8.739   1.304
 7869W        W80294  34.946  22.978   2.823
 7870W        W80295  11.557   3.719   3.651
 7871W        W80296  20.732  28.421  13.884
 7872W        W80297  14.155   7.042   1.773
 7873W        W80298  38.515  35.419   4.544
 7874W        W80299  22.564  10.844   2.193
 7875W        W80300   2.995  26.744  14.386
 7876W        W80301  17.044  39.422   0.885
 7877W        W80302  33.091  21.705   2.774
 7878W        W80303  12.672  34.563  12.881
 7879W        W80304  28.443  10.088  10.768
 7880W        W80305  14.233  36.058   0.031
 7881W        W80306  10.339  30.856  13.485
 7882W        W80307  25.168  25.016   3.110
 7883W        W80308   6.910   9.629   4.092
 7884W        W80309  21.761   4.560   4.157
 7885W        W80310  13.122  17.224   2.162
 7886W        W80311   6.301  16.545   2.725
 7887W        W80312  20.860  25.159   0.525
 7888W        W80313  18.733  24.167   1.243
 7889W        W80314   8.918  43.877   1.873
 7890W        W80315  16.534   0.066   3.813
 7891W        W80316  15.176   9.394  14.888
 7892W        W80317   4.410  43.194   3.253
 7893W        W80318  21.806  15.074  12.281
 7894W        W80319  21.120  18.988   0.798
 7895W        W80320  33.608  12.154   0.940
 7896W        W80321  27.383   6.362  11.343
 7897W        W80322  25.537  22.549  12.063
 7898W        W80323  30.925   7.792  13.642
 7899W        W80324  20.761  18.202  13.649
 7900W        W80325  15.497  10.669   2.627
 7901W        W80326  17.249   3.363   2.937
 7902W        W80327  17.336  16.089  12.571
 7903W        W80328  26.051  27.055   4.862
 7904W        W80329  23.324  28.984   3.862
 7905W        W80330  22.878  17.519  12.938
 7906W        W80331  13.844  17.941   1.771
 7907W        W80332  19.266  36.506   0.741
 7908W        W80333  30.619   0.704   2.180
 7909W        W80334  19.338  22.442  11.226
 7910W        W80335  32.500  32.452   1.249
 7911W        W80336   5.640  37.424  11.174
 7912W        W80337  14.169  26.881   4.577
 7913W        W80338  12.115   4.743   0.713
 7914W        W80339  27.585  18.719   1.730
 7915W        W80340  27.052  22.070   2.855
 7916W        W80341  34.086  12.818  13.951
 7917W        W80342   7.963   0.477  12.421
 7918W        W80343   3.757  18.664  13.533
 7919W        W80344  15.204   2.021  11.486
 7920W        W80345  33.561  33.092  13.360
 7921W        W80346   9.783  23.591   4.301
 7922W        W80347   8.305  37.563  11.754
 7923W        W80348  30.190  21.986  10.596
 7924W        W80349  42.310  38.822   2.311
 7925W        W80350  31.701  26.557   4.415
 7926W        W80351  29.724  16.025   0.290
 7927W        W80352   9.369  26.582  14.949
 7928W        W80353  32.750  36.858  12.241
 7929W        W80354   9.851  42.406  11.462
 7930W        W80355  44.139  15.581   3.065
 7931W        W80356  33.934  15.889  14.121
 7932W        W80357  34.483  39.383   4.122
 7933W        W80358   1.881  40.604  12.457
 7934W        W80359  20.983  27.493   4.385
 7935W        W80360  28.146   7.234   3.332
 7936W        W80361  41.296   9.613   1.702
 7937W        W80362  33.112  36.346  13.603
 7938W        W80363  14.222   2.267  12.562
 7939W        W80364  13.167  29.213  10.099
 7940W        W80365   0.211  36.401  14.770
 7941W        W80366  42.886  18.564  12.471
 7942W        W80367   2.323   6.385  10.458
 7943W        W80368  27.014  12.611  10.577
 7944W        W80369   1.409  10.175   1.312
 7945W        W80370   5.728  43.364  10.787
 7946W        W80371  32.009   8.825   2.219
 7947W        W80372  35.909   7.697   4.230
 7948W        W80373   9.641  30.501   4.908
 7949W        W80374  41.185  30.591  11.659
 7950W        W80375  22.282  38.372   0.926
 7951W        W80376  23.026  37.328   4.557
 7952W        W80377  25.246  28.913   1.681
 7953W        W80378  13.821  25.127   1.372
 7954W        W80379  41.971  41.325  10.749
 7955W        W80380  36.890  17.877  10.722
 7956W        W80381  14.781  18.412   2.817
 7957W        W80382  41.759  25.210   4.125
 7958W        W80383  25.498  26.007   1.282
 7959W        W80384  44.278  23.139   0.361
 7960W        W80385   0.428   3.804   4.142
 7961W        W80386   7.391  17.595   2.580
 7962W        W80387   2.472  20.653  13.380
 7963W        W80388  40.995   3.154   4.442
 7964W        W80389  17.163  16.570  10.732
 7965W        W80390  17.769  33.836   1.429
 7966W        W80391  27.614  31.598   1.738
 7967W        W80392  42.522   6.983  12.880
 7968W        W80393  37.512  25.420  11.012
 7969W        W80394   1.858  27.646   2.856
 7970W        W80395  39.111  20.685  12.719
 7971W        W80396  39.265  17.083   4.343
 7972W        W80397  35.683  26.327  13.504
 7973W        W80398  23.281  37.574   2.711
 7974W        W80399  12.627   7.410   0.770
 7975W        W80400  41.015  25.950   0.899
 7976W        W80401   2.989  43.770   0.494
 7977W        W80402  43.413  28.684   2.019
 7978W        W80403  23.422  39.790  14.865
 7979W        W80404  31.798  26.519  11.928
 7980W        W80405  18.236  14.559  10.730
 7981W        W80406   6.362   7.932  11.233
 7982W        W80407  33.910  14.181   1.223
 7983W        W80408  10.016  31.874   4.132
 7984W        W80409  19.630  28.080  13.936
 7985W        W80410   1.686  19.609   3.748
 7986W        W80411   8.658  22.238   3.299
 7987W        W80412  19.277   9.161  12.976
 7988W        W80413   4.369   8.785  12.462
 7989W        W80414  28.468  37.804   2.901
 7990W        W80415  30.928  32.454  14.753
 7991W        W80416  18.561   7.636   3.851
 7992W        W80417  13.234   1.626   5.092
 7993W        W80418   7.039  44.731  14.011
 7994W        W80419  32.363  41.951  14.973
 7995W        W80420  33.101  36.973  14.973
 7996W        W80421   3.186  41.185   2.723
 7997W        W80422  14.085   5.775  11.750
 7998W        W80423  14.355  25.460  12.467
 7999W        W80424  15.878  22.617   0.216
 8000W        W80425  34.932  43.192  11.141
 8001W        W80426  13.549  25.070   1.776
 8002W        W80427  28.250  31.964  13.278
 8003W        W80428  22.936  22.395  13.795
 8004W        W80429  19.884  30.885  11.695
 8005W        W80430  34.904   7.434   3.627
 8006W        W80431  25.277  24.761   1.248
 8007W        W80432  30.701  28.639  12.798
 8008W        W80433   5.636  16.497  13.146
 8009W        W80434   7.925   7.512   0.957
 8010W        W80435  41.265  43.453  11.145
 8011W        W80436  36.471   5.046  10.831
 8012W        W80437  20.737  11.269  10.972
 8013W        W80438  31.893   6.685   0.825
 8014W        W80439  27.955  19.319  12.712
 8015W        W80440  34.839  37.163  14.019
 8016W        W80441  10.121  31.022   1.759
 8017W        W80442  40.502  39.747  14.813
 8018W        W80443   5.892  37.809   1.661
 8019W        W80444  26.587  21.745  10.499
 8020W        W80445  31.718   3.416  10.796
 8021W        W80446   3.057  19.057  12.412
 8022W        W80447   9.124  24.582  11.979
 8023W        W80448  34.546  13.654   2.158
 8024W        W80449  17.216  33.930  11.569
 8025W        W80450  38.922  44.643  10.140
 8026W        W80451  43.282  40.544   1.519
 8027W        W80452  34.049  37.085   2.018
 8028W        W80453  17.610  36.024  12.962
 8029W        W80454  39.418  23.469   3.823
 8030W        W80455  27.574  29.858   0.809
 8031W        W80456  14.697  42.517  14.417
 8032W        W80457  39.608  38.454  14.770
 8033W        W80458  19.719  24.986   2.207
 8034W        W80459  36.422  41.286   2.735
 8035W        W80460  41.966  34.666   4.254
 8036W        W80461  14.099  27.434   4.611
 8037W        W80462   7.303  44.509  13.075
 8038W        W80463  12.743   7.824  11.893
 8039W        W80464  44.985  32.158  10.646
 8040W        W80465  28.013  42.928  11.671
 8041W        W80466   8.974  27.212  13.505
 8042W        W80467  39.111  39.579  12.107
 8043W        W80468  22.683  15.384  11.222
 8044W        W80469  33.537  21.544  12.562
 8045W        W80470  16.225  18.986   4.750
 8046W        W80471  11.629   9.077   0.045
 8047W        W80472   7.604  38.415  12.942
 8048W        W80473  32.432   6.781  11.715
 8049W        W80474  43.249  29.447   2.416
 8050W        W80475  25.821  30.087  14.967
 8051W        W80476  21.044  29.346  10.707
 8052W        W80477  40.420  37.425  12.939
 8053W        W80478  42.417   1.739  14.370
 8054W        W80479  33.777  27.383   3.589
 8055W        W80480  22.528  27.154  11.978
 8056W        W80481  15.019  39.387   0.989
 8057W        W80482  43.465   3.180  14.316
 8058W        W80483  14.547  30.501  11.185
 8059W        W80484  19.661  21.000   3.185
 8060W        W80485  37.994  41.706  13.345
 8061W        W80486   8.202  24.831  13.930
 8062W        W80487   5.048  29.267   0.819
 8063W        W80488  16.742  32.111   0.457
 8064W        W80489  33.204  26.174  12.147
 8065W        W80490   5.358  22.182   1.346
 8066W        W80491   7.441   9.287  12.120
 8067W        W80492   5.263  17.165  13.604
 8068W        W80493  39.909  37.472  13.063
 8069W        W80494  17.573   6.905   1.399
 8070W        W80495  15.865   1.843   1.673
 8071W        W80496  44.364  44.751   1.405
 8072W        W80497  12.079  16.381   1.643
 8073W        W80498  42.797  31.993  13.345
 8074W        W80499  22.594  21.086  11.886
 8075W        W80500   4.704  15.253  14.319
 8076W        W80501  36.257   1.492  11.647
 8077W        W80502  36.436  22.964   4.612
 8078W        W80503  33.518   2.821  14.823
 8079W        W80504  16.529   8.957   2.755
 8080W        W80505  16.327  30.909   0.182
 8081W        W80506   7.681  31.331   3.359
 8082W        W80507  25.340  12.097  14.693
 8083W        W80508  42.324   8.755   1.274
 8084W        W80509  24.180   9.858  13.103
 8085W        W80510  39.241  16.198   4.278
 8086W        W80511  25.941  31.763  10.187
 8087W        W80512  38.396  32.560   3.566
 8088W        W80513  37.337  21.052  12.582
 8089W        W80514  23.994  24.078   3.701
 8090W        W80515   0.467  27.086   4.009
 8091W        W80516  11.831  20.532  13.885
 8092W        W80517  15.791  37.633   4.197
 8093W        W80518  26.870  44.406  10.744
 8094W        W80519  39.307  12.059   3.753
 8095W        W80520  40.970  42.585   0.427
 8096W        W80521  15.998  43.593  12.981
 8097W        W80522  36.797  33.603   2.242
 8098W        W80523  33.684  20.254  13.087
 8099W        W80524   8.204  20.753   1.503
 8100W        W80525  19.817   4.995  14.540
 8101W        W80526   1.029  21.591   2.927
 8102W        W80527  16.855   1.956  12.304
 8103W        W80528  37.633  24.525   3.589
 8104W        W80529   4.880  23.194   4.090
 8105W        W80530  31.068  41.257   1.287
 8106W        W80531  38.085  22.677   4.166
 8107W        W80532  25.538  10.297   4.559
 8108W        W80533  22.244  33.496   2.297
 8109W        W80534  27.958  18.829   0.273
 8110W        W80535  26.062  37.477   4.582
 8111W        W80536   8.860  26.964  11.185
 8112W        W80537  14.596  14.722   2.720
 8113W        W80538  20.962  27.082   0.955
 8114W        W80539  31.020  34.376   1.405
 8115W        W80540   7.133  14.660  13.392
 8116W        W80541  11.885  19.601   5.087
 8117W        W80542  38.472   1.610   0.900
 8118W        W80543  31.376  31.934  11.538
 8119W        W80544  18.162   5.334  10.900
 8120W        W80545  23.346  11.210   3.822
 8121W        W80546  35.437  28.341  12.568
 8122W        W80547  31.840  11.882   3.368
 8123W        W80548  26.660  15.640  11.054
 8124W        W80549  21.774   9.676   1.868
 8125W        W80550  28.478  24.487  11.643
 8126W        W80551  20.541   4.963   3.575
 8127W        W80552   0.406  15.601  12.440
 8128W        W80553  12.344  25.545   3.609
 8129W        W80554  22.765  42.905  11.622
 8130W        W80555  14.250   9.946  14.194
 8131W        W80556   7.287  34.900   3.542
 8132W        W80557   6.809  26.618   4.549
 8133W        W80558   4.969  41.294  12.100
 8134W        W80559  44.549   5.341  12.507
 8135W        W80560  37.414  27.436   0.338
 8136W        W80561  22.189  43.040   2.338
 8137W        W80562   1.808  31.182   3.643
 8138W        W80563  41.332   3.505  13.892
 8139W        W80564  42.863  39.941  14.988
 8140W        W80565  31.067  11.358   1.714
 8141W        W80566   8.163  17.732  11.493
 8142W        W80567  32.442   8.193  13.927
 8143W        W80568  40.121  26.930   1.146
 8144W        W80569   3.419   8.143   4.561
 8145W        W80570  43.090  28.744   0.826
 8146W        W80571   0.166  27.330   0.446
 8147W        W80572  20.030   7.429  11.118
 8148W        W80573  41.316  11.193  12.904
 8149W        W80574  10.345   4.258  12.314
 8150W        W80575  32.074  36.155  13.037
 8151W        W80576   3.220   5.840  12.325
 8152W        W80577  25.494  40.433  12.403
 8153W        W80578  43.984   0.101  14.742
 8154W        W80579   4.083  25.063  13.372
 8155W        W80580   7.558  31.524  14.502
 8156W        W80581  26.566  32.201   2.220
 8157W        W80582   2.864   0.530  11.575
 8158W        W80583  10.124  31.132   4.020
 8159W        W80584  15.165  36.110  12.947
 8160W        W80585  28.457   9.268   4.801
 8161W        W80586  43.015  32.247   1.992
 8162W        W80587  17.223  30.725   9.920
 8163W        W80588  28.114  29.453  12.124
 8164W        W80589  23.904  26.518  10.176
 8165W        W80590  12.019  14.343  11.598
 8166W        W80591  10.787  16.033  11.033
 8167W        W80592  18.065  22.980   2.653
 8168W        W80593  28.244   7.313  13.765
 8169W        W80594  28.039  36.001   1.223
 8170W        W80595  40.871  32.908  13.078
 8171W        W80596  43.768  19.813   3.124
 8172W        W80597  18.452  27.676   1.574
 8173W        W80598  25.985  14.299   2.214
 8174W        W80599  32.681  11.314  13.972
 8175W        W80600  18.557  32.147  12.880
 8176W        W80601  35.104  10.962  12.052
 8177W        W80602   4.855  31.816   4.059
 8178W        W80603  31.210  39.364  11.440
 8179W        W80604   5.054   9.185  10.005
 8180W        W80605  41.075  13.100  11.202
 8181W        W80606  39.927   6.084  10.655
 8182W        W80607  22.655  40.475  14.814
 8183W        W80608  24.750  25.124   3.392
 8184W        W80609   9.256  41.769   2.168
 8185W        W80610   4.269   8.802  12.968
 8186W        W80611  44.792  17.237   1.956
 8187W        W80612  22.203   3.141   0.499
 8188W        W80613   1.770  12.901  10.572
 8189W        W80614   3.312  29.988  14.369
 8190W        W80615  16.337  16.385   0.507
 8191W        W80616  24.090   3.240  14.274
 8192W        W80617  13.775  11.616   3.121
 8193W        W80618   5.243   5.185   4.132
 8194W        W80619  12.864  40.971  14.013
 8195W        W80620   3.377  17.334   4.255
 8196W        W80621  12.698  42.098  10.667
 8197W        W80622  27.397   3.461  13.727
 8198W        W80623  14.096  21.567   0.416
 8199W        W80624  33.455  16.860   5.063
 8200W        W80625  16.738  38.065  11.931
 8201W        W80626   2.567  40.115   2.217
 8202W        W80627   8.419  23.163  12.053
 8203W        W80628   0.066  42.472   4.316
 8204W        W80629  39.423  28.870   1.635
 8205W        W80630  12.447  43.143   0.747
 8206W        W80631  39.532  13.146  14.598
 8207W        W80632  42.230  19.553   0.369
 8208W        W80633  21.905   0.705   3.626
 8209W        W80634  11.156  28.018   3.726
 8210W        W80635  25.470  30.173   9.827
 8211W        W80636   9.173   4.971   3.377
 8212W        W80637  13.537   5.562   2.459
 8213W        W80638  38.853  26.457   0.914
 8214W        W80639  44.089  13.664   2.288
 8215W        W80640  29.890   5.416   1.409
 8216W        W80641  38.513   9.363  14.972
 8217W        W80642  42.328   8.266   1.971
 8218W        W80643  29.122   0.035  11.559
 8219W        W80644  21.942  11.651   0.941
 8220W        W80645   5.847  40.940  14.029
 8221W        W80646  21.715  44.790  13.012
 8222W        W80647   6.567  28.969  13.079
 8223W        W80648  37.544  30.948   1.699
 8224W        W80649  18.752  22.602   4.551
 8225W        W80650  22.741  39.429  14.409
 8226W        W80651  22.493  13.890   5.203
 8227W        W80652  32.970   7.819  10.432
 8228W        W80653  17.598  41.753   2.495
 8229W        W80654  11.599   3.214  14.556
 8230W        W80655   7.442  11.094  12.071
 8231W        W80656  29.416  17.574  12.412
 8232W        W80657   7.732  43.278   3.727
 8233W        W80658  14.154  23.229  10.694
 8234W        W80659  33.506  36.500   0.417
 8235W        W80660   1.204  23.216   1.833
 8236W        W80661  36.609  33.848   2.675
 8237W        W80662   8.811  23.097  11.619
 8238W        W80663   3.168  14.399   0.902
 8239W        W80664  10.096  14.685  10.501
 8240W        W80665  11.915   3.865  11.284
 8241W        W80666  17.811   4.718  12.946
 8242W        W80667  14.902  35.546   3.702
 8243W        W80668  38.108  20.544  12.623
 8244W        W80669  24.723   8.677   1.424
 8245W        W80670  10.221  16.014   4.589
 8246W        W80671  28.118   6.880  12.481
 8247W        W80672  33.393  11.208   4.672
 8248W        W80673  20.484  15.764   4.606
 8249W        W80674  18.847  16.918   1.954
 8250W        W80675   1.533   2.282  13.077
 8251W        W80676   6.188  10.546   0.871
 8252W        W80677   9.711  24.191  12.997
 8253W        W80678  12.223   4.434  12.356
 8254W        W80679  31.130  10.373   0.870
 8255W        W80680   6.223   7.976  14.799
 8256W        W80681  41.479  12.562   4.553
 8257W        W80682  41.198  41.406   3.969
 8258W        W80683  42.522  17.792   2.727
 8259W        W80684  10.166  24.866   1.879
 8260W        W80685  12.046  40.184  13.756
 8261W        W80686  37.895  31.255  12.995
 8262W        W80687   6.898  34.831  12.406
 8263W        W80688  25.227  12.801  11.558
 8264W        W80689  19.266   5.931   4.704
 8265W        W80690   9.696  29.488  13.869
 8266W        W80691  29.269  18.516  14.605
 8267W        W80692  18.733  17.550  12.608
 8268W        W80693  11.396  40.448  14.919
 8269W        W80694  11.664   4.235   0.442
 8270W        W80695  25.685  39.203  12.859
 8271W        W80696  27.084  39.597  14.894
 8272W        W80697  18.667   1.783  10.581
 8273W        W80698  23.118  32.901   4.118
 8274W        W80699  27.946   2.282   3.761
 8275W        W80700   2.382  42.721  11.116
 8276W        W80701   2.015   3.755   0.615
 8277W        W80702  15.721  23.650  12.641
 8278W        W80703  29.432  37.630   4.215
 8279W        W80704  10.144   2.027   1.280
 8280W        W80705  23.754  22.526  11.955
 8281W        W80706  24.138   4.156   1.873
 8282W        W80707  43.912   5.185  10.395
 8283W        W80708  27.768  23.122   5.001
 8284W        W80709  21.097  43.309  10.681
 8285W        W80710  33.539  31.033  12.132
 8286W        W80711  23.541  42.804  11.053
 8287W        W80712  44.311  27.882  10.239
 8288W        W80713  35.884  44.542   4.063
 8289W        W80714  32.404  33.414  13.851
 8290W        W80715   3.802  34.364  13.445
 8291W        W80716  32.068  42.984  13.868
 8292W        W80717  23.543  17.098   2.413
 8293W        W80718  29.831  33.565  11.693
 8294W        W80719   1.040  15.692  14.543
 8295W        W80720  37.810  27.664   3.199
 8296W        W80721  23.727  39.456   1.389
 8297W        W80722  33.304  30.352   1.304
 8298W        W80723   1.648  34.776   4.665
 8299W        W80724  14.340   5.538  14.094
 8300W        W80725  26.648  32.427  13.014
 8301W        W80726  31.501  12.829   3.662
 8302W        W80727  36.017  42.061  11.581
 8303W        W80728  37.117  11.670   4.033
 8304W        W80729  41.639   3.705  12.908
 8305W        W80730  34.674  42.458  11.561
 8306W        W80731  31.863  14.596  11.199
 8307W        W80732  25.541  30.074  10.325
 8308W        W80733  38.477   3.893  13.864
 8309W        W80734  11.393  44.809   2.918
 8310W        W80735  41.141   9.574  11.021
 8311W        W80736  30.204  40.505  11.031
 8312W        W80737  40.010   3.936  13.810
 8313W        W80738  30.663  23.725  12.082
 8314W        W80739  44.937  14.698  14.099
 8315W        W80740  30.177   7.784   1.499
 8316W        W80741   3.893  17.317   3.671
 8317W        W80742  24.867  16.372   1.321
 8318W        W80743  30.043  41.600   3.291
 8319W        W80744  41.496  42.274   2.755
 8320W        W80745  21.525  18.345  13.422
 8321W        W80746   5.762   3.754  10.576
 8322W        W80747  20.629   8.300   4.641
 8323W        W80748   3.667  35.049  12.991
 8324W        W80749  30.249  13.390   3.474
 8325W        W80750  21.008  38.938  10.481
 8326W        W80751  42.455  24.030  10.498
 8327W        W80752   2.668  20.591  14.345
 8328W        W80753  13.001  24.822   5.464
 8329W        W80754   7.413  17.429   1.204
 8330W        W80755  40.793   2.226  14.531
 8331W        W80756  30.693   3.163  12.099
 8332W        W80757  26.085  24.215  12.357
 8333W        W80758  18.589  23.933  11.969
 8334W        W80759   4.274   1.067  10.971
 8335W        W80760  22.011  32.940   0.916
 8336W        W80761  11.819  25.651  14.258
 8337W        W80762  21.976   6.472  12.215
 8338W        W80763  42.252  35.831  11.901
 8339W        W80764  32.971   2.877  11.348
 8340W        W80765  13.636   8.589  13.644
 8341W        W80766  17.895  18.473   4.172
 8342W        W80767   5.236  10.303  11.288
 8343W        W80768  39.484  12.409  12.157
 8344W        W80769  25.818  13.582  13.372
 8345W        W80770  23.114  42.028  12.901
 8346W        W80771  16.658  17.219   4.408
 8347W        W80772  40.470  12.545   4.494
 8348W        W80773  16.240  21.220  13.301
 8349W        W80774  39.600  41.487  13.914
 8350W        W80775  18.182  44.757  11.170
 8351W        W80776  40.753  32.843   0.541
 8352W        W80777  38.981  18.821  10.078
 8353W        W80778  25.122  26.006   2.714
 8354W        W80779  10.724  21.786   4.549
 8355W        W80780  38.790  15.533  11.230
 8356W        W80781  21.211  29.106  10.272
 8357W        W80782  15.765   6.177   4.639
 8358W        W80783   4.327  22.580  12.391
 8359W        W80784   9.026  39.875  11.755
 8360W        W80785  37.712   0.365  12.938
 8361W        W80786  11.316   8.958  11.897
 8362W        W80787  13.181  22.574   0.489
 8363W        W80788   0.359  41.847   2.510
 8364W        W80789   8.190   4.482   0.763
 8365W        W80790  42.004  29.316  14.051
 8366W        W80791  23.788  12.310  10.648
 8367W        W80792   3.219  22.760  12.887
 8368W        W80793  43.226  22.089  12.875
 8369W        W80794  25.537   4.234  14.899
 8370W        W80795   8.872  44.538   3.279
 8371W        W80796  23.944   0.791  13.565
 8372W        W80797   9.413  35.510   1.822
 8373W        W80798  34.906   6.880   2.735
 8374W        W80799  25.483  38.355   3.132
 8375W        W80800   4.251   1.969   2.247
 8376W        W80801  43.225  43.859   2.425
 8377W        W80802  24.049  35.630   0.346
 8378W        W80803  20.504  25.496  12.477
 8379W        W80804  22.252  12.792   9.895
 8380W        W80805  38.004  24.654  14.570
 8381W        W80806  42.831  10.368  11.504
 8382W        W80807   0.456  42.872  12.394
 8383W        W80808  43.471  22.600  12.608
 8384W        W80809  33.959  26.125  12.426
 8385W        W80810  27.215  43.945   1.331
 8386W        W80811  40.913  19.756  10.022
 8387W        W80812  39.181  18.874  13.464
 8388W        W80813  17.825  10.306   3.929
 8389W        W80814  16.329   8.817   4.198
 8390W        W80815  14.806  29.190   3.685
 8391W        W80816  10.556  35.085  12.998
 8392W        W80817  19.463  32.928   3.265
 8393W        W80818   7.618  16.110   0.837
 8394W        W80819  26.246   5.371   4.812
 8395W        W80820   4.379  12.527   0.495
 8396W        W80821  21.710  27.937  11.600
 8397W        W80822  31.640  42.293   1.103
 8398W        W80823  32.874  33.560   3.867
 8399W        W80824  24.903   0.200  14.952
 8400W        W80825   8.257  30.642  13.648
 8401W        W80826  12.032   5.916  12.989
 8402W        W80827   4.374  22.154   1.707
 8403W        W80828   0.771   3.966  11.581
 8404W        W80829   2.479  33.977  11.045
 8405W        W80830   7.469  37.844  14.024
 8406W        W80831  20.057  42.365  11.526
 8407W        W80832  14.178  20.246  10.669
 8408W        W80833  11.793  32.617  11.540
 8409W        W80834  15.607  42.409  11.333
 8410W        W80835   9.528   9.963  11.360
 8411W        W80836   3.369  18.372   0.812
 8412W        W80837   4.346  28.005   1.981
 8413W        W80838  36.632  40.823   2.573
 8414W        W80839  37.686  16.929   4.795
 8415W        W80840  24.876   2.321  12.641
 8416W        W80841  11.306  33.949   2.218
 8417W        W80842   5.251  21.472   1.710
 8418W        W80843  39.943  26.188  14.337
 8419W        W80844  26.194  34.525  14.038
 8420W        W80845  14.057  21.330  12.502
 8421W        W80846  32.803  35.285  13.958
 8422W        W80847  41.193   6.953   2.742
 8423W        W80848  40.067   7.487  12.961
 8424W        W80849  21.079  24.144   3.210
 8425W        W80850  21.057  30.455  12.071
 8426W        W80851  20.628  42.389   0.327
 8427W        W80852  27.135  41.813   3.065
 8428W        W80853  24.435  39.753   0.066
 8429W        W80854  14.200  28.165   2.884
 8430W        W80855  42.051  44.783   4.638
 8431W        W80856  30.600  19.126   2.787
 8432W        W80857  17.992  43.429   3.244
 8433W        W80858  31.426  28.306   1.446
 8434W        W80859  26.909  31.926   1.348
 8435W        W80860   8.859  33.503  11.869
 8436W        W80861  39.798  13.221  10.793
 8437W        W80862  20.623  42.962   4.924
 8438W        W80863  11.107  39.450   3.417
 8439W        W80864   2.746   6.594  14.493
 8440W        W80865  19.733   7.821   4.655
 8441W        W80866  36.079  40.189   4.109
 8442W        W80867  36.811  12.358   2.700
 8443W        W80868  30.672  37.884  14.756
 8444W        W80869  43.882   3.909   4.880
 8445W        W80870   2.598  31.575   2.414
 8446W        W80871   3.267  30.361   0.831
 8447W        W80872  38.439  14.247   1.501
 8448W        W80873   3.231  28.090  11.437
 8449W        W80874  27.812   8.152  14.739
 8450W        W80875  40.608  17.334   2.064
 8451W        W80876  16.312  34.016  12.078
 8452W        W80877  43.920  43.670  14.455
 8453W        W80878  10.364   5.556  12.575
 8454W        W80879  28.656  38.429   0.515
 8455W        W80880  42.019  37.067   2.728
 8456W        W80881  27.721  16.627  14.857
 8457W        W80882   9.599  15.276   2.346
 8458W        W80883   6.459  21.128   0.763
 8459W        W80884  20.731  41.330   1.338
 8460W        W80885  33.565  31.841  10.560
 8461W        W80886   2.188   1.380  12.608
 8462W        W80887  16.790  12.386  12.424
 8463W        W80888  20.685  21.604  11.389
 8464W        W80889  22.451  34.519   3.945
 8465W        W80890  13.096  23.496   1.396
 8466W        W80891   1.898   3.809   1.101
 8467W        W80892  24.665  30.095   0.349
 8468W        W80893   4.259  25.164  12.383
 8469W        W80894   6.464   0.859   3.672
 8470W        W80895  10.177  29.961   3.312
 8471W        W80896  38.066  43.969  13.471
 8472W        W80897  20.274  39.101   0.292
 8473W        W80898  15.326  10.229   1.779
 8474W        W80899   9.199  21.825  13.857
 8475W        W80900  18.574  38.453   4.588
 8476W        W80901   2.669  32.572  14.351
 8477W        W80902  17.686  29.414   4.642
 8478W        W80903  44.747  30.114   3.919
 8479W        W80904  41.887  39.085   0.881
 8480W        W80905  26.949   6.743   1.778
 8481W        W80906  44.569  14.638  14.820
 8482W        W80907  20.224  15.884   2.814
 8483W        W80908  19.970  16.653  13.919
 8484W        W80909  16.925   7.124  13.682
 8485W        W80910  41.053  19.281  10.531
 8486W        W80911   3.418  33.130   2.835
 8487W        W80912   2.171  20.066  13.813
 8488W        W80913   5.276  37.255   0.476
 8489W        W80914   8.230  16.581   3.170
 8490W        W80915  24.779  18.617  14.943
 8491W        W80916  32.480  10.632  14.369
 8492W        W80917  32.609  36.388   0.285
 8493W        W80918   9.659   1.541   1.832
 8494W        W80919  28.621  18.791   0.841
 8495W        W80920  32.714  29.475  12.666
 8496W        W80921  34.907  29.672  11.321
 8497W        W80922   9.457   2.290   0.747
 8498W        W80923  29.945  15.874   3.595
 8499W        W80924  18.191  36.526   3.869
 8500W        W80925  25.558  18.139   0.702
 8501W        W80926  34.933  30.004   0.337
 8502W        W80927   8.942   5.838  13.503
 8503W        W80928  41.038   7.809   1.873
 8504W        W80929  35.315  23.302   3.008
 8505W        W80930  21.293  15.865   3.314
 8506W        W80931  31.660   4.505   1.258
 8507W        W80932  34.044  29.166  12.547
 8508W        W80933   0.309  33.899  11.888
 8509W        W80934   8.551   8.303   1.335
 8510W        W80935   1.797  41.448   0.957
 8511W        W80936  10.140  24.560  12.019
 8512W        W80937  10.360  26.519  14.899
 8513W        W80938  33.642   9.915  12.516
 8514W        W80939   9.723  32.621   2.594
 8515W        W80940  20.196  30.912   4.601
 8516W        W80941  34.602  27.936   0.270
 8517W        W80942  11.155  29.921  12.930
 8518W        W80943  30.214  31.604  12.557
 8519W        W80944  24.682   5.762   0.328
 8520W        W80945  27.580  14.024   0.807
 8521W        W80946  41.740  29.527   1.373
 8522W        W80947   5.873  10.944   1.851
 8523W        W80948   8.959  36.963  13.549
 8524W        W80949  36.093  33.403   1.813
 8525W        W80950   9.839   3.477  10.512
 8526W        W80951  26.200  27.918  12.379
 8527W        W80952   3.777   3.576   1.941
 8528W        W80953  41.042  16.190  10.704
 8529W        W80954   0.650  35.035   1.729
 8530W        W80955  18.333  40.944  14.917
 8531W        W80956   6.925  39.891   4.044
 8532W        W80957  17.703  26.552   1.020
 8533W        W80958  23.586   3.952  12.646
 8534W        W80959  34.651  25.540   4.423
 8535W        W80960  29.514  14.741  12.547
 8536W        W80961   5.166   7.611   0.487
 8537W        W80962   5.203  25.021   3.833
 8538W        W80963   6.154   6.281  10.736
 8539W        W80964  29.003  40.959  10.025
 8540W        W80965  41.313   9.995   0.781
 8541W        W80966  24.938  29.969   1.133
 8542W        W80967  26.536  23.561   1.683
 8543W        W80968   7.222  32.331  12.218
 8544W        W80969   4.672   2.978   1.933
 8545W        W80970   7.897  15.253   1.960
 8546W        W80971   0.489  20.948  12.417
 8547W        W80972  42.803  33.883   0.290
 8548W        W80973  14.386  31.383   2.897
 8549W        W80974   7.615  23.947  12.474
 8550W        W80975  14.480   1.661   4.631
 8551W        W80976  26.523  20.105   1.232
 8552W        W80977  44.351  29.907   3.642
 8553W        W80978  11.183   8.698  10.680
 8554W        W80979  28.017   3.171   0.324
 8555W        W80980  39.566  10.328  14.059
 8556W        W80981  43.610  31.983  13.958
 8557W        W80982   8.256  30.708  14.981
 8558W        W80983  12.774  44.319   2.350
 8559W        W80984  42.405  25.035  13.154
 8560W        W80985   0.415  21.651  11.643
 8561W        W80986  36.882  40.529  12.581
 8562W        W80987  19.086  21.949  11.031
 8563W        W80988  26.072  34.856  11.018
 8564W        W80989  31.128   1.359   1.262
 8565W        W80990  20.570  11.350   0.294
 8566W        W80991   7.219  12.670   2.201
 8567W        W80992  25.437   7.834   2.806
 8568W        W80993  23.696  44.359   0.203
 8569W        W80994  44.542  41.508  10.713
 8570W        W80995   4.899  38.901   0.830
 8571W        W80996  16.325   9.664   4.707
 8572W        W80997  17.651  33.644   4.157
 8573W        W80998  33.667  36.091   1.870
 8574W        W80999  27.733  29.454   4.155
 8575W        W81000  30.541  37.408   1.100
 8576W        W81001   7.260   6.925   2.266
 8577W        W81002  26.034   1.470  11.948
 8578W        W81003  39.525   8.330   2.392
 8579W        W81004  15.860  12.548  13.867
 8580W        W81005  22.775   2.483  13.048
 8581W        W81006  27.089   7.992  12.635
 8582W        W81007  44.382  30.888  10.553
 8583W        W81008  33.008  41.501  10.976
 8584W        W81009  22.165  41.458  12.974
 8585W        W81010   4.497   3.797   3.817
 8586W        W81011   9.820  25.187   1.680
 8587W        W81012  13.243   3.368   0.251
 8588W        W81013   9.842   9.274   3.321
 8589W        W81014  15.241  23.563  12.525
 8590W        W81015  20.639  40.963   1.720
 8591W        W81016  18.086  22.444   0.827
 8592W        W81017  41.394  21.678   1.874
 8593W        W81018  17.732  34.320  12.864
 8594W        W81019  29.950  44.445  11.691
 8595W        W81020  11.369  38.272  11.577
 8596W        W81021  25.468  12.327  13.669
 8597W        W81022  17.645  33.136  10.297
 8598W        W81023  27.374  15.299  12.399
 8599W        W81024  20.525   5.793   1.487
 8600W        W81025   2.184  34.392  11.168
 8601W        W81026  32.247  24.669  14.345
 8602W        W81027  20.736  18.059   4.389
 8603W        W81028  38.271  18.054   3.599
 8604W        W81029  32.603  24.724   0.178
 8605W        W81030  44.690   0.353  13.612
 8606W        W81031   8.015  24.390   0.418
 8607W        W81032   8.410  28.952  13.850
 8608W        W81033  20.025  16.749   0.714
 8609W        W81034  42.311  20.584  11.871
 8610W        W81035  19.229  28.050   4.436
 8611W        W81036   9.719  39.891  10.688
 8612W        W81037  19.248  25.605   3.695
 8613W        W81038   7.674  28.753  12.999
 8614W        W81039  44.620  21.062  11.897
 8615W        W81040  44.974  13.503   3.176
 8616W        W81041  16.312   1.579   2.453
 8617W        W81042  24.420   3.339   5.042
 8618W        W81043  42.558  41.531   4.148
 8619W        W81044  34.740  21.587   3.983
 8620W        W81045  26.765  41.909   2.162
 8621W        W81046  18.954  24.563  11.171
 8622W        W81047   1.993  44.916  10.744
 8623W        W81048  43.832  17.684  10.469
 8624W        W81049  35.950  22.002   3.758
 8625W        W81050   7.848  30.586   5.039
 8626W        W81051  12.556  27.659  13.854
 8627W        W81052   5.853  14.404   3.108
 8628W        W81053  15.172  25.518  13.339
 8629W        W81054  17.571   1.289  13.461
 8630W        W81055   8.637   1.210  14.421
 8631W        W81056  11.445  35.123  12.013
 8632W        W81057  16.135  14.284   4.630
 8633W        W81058   5.713  23.580  14.711
 8634W        W81059  38.797  17.772  13.986
 8635W        W81060  40.850  32.924  13.592
 8636W        W81061  18.052  11.671   2.807
 8637W        W81062  29.209  26.246   4.633
 8638W        W81063  25.717  15.035   0.382
 8639W        W81064  29.604  33.529   0.430
 8640W        W81065  26.846  44.079   2.284
 8641W        W81066  29.044   3.766   3.731
 8642W        W81067  17.161   0.882  14.436
 8643W        W81068  41.284  31.729  12.808
 8644W        W81069   3.657  15.638   3.729
 8645W        W81070  38.483   0.509   2.830
 8646W        W81071  16.424  28.949   1.195
 8647W        W81072  32.323  37.407   1.779
 8648W        W81073   0.245  11.580   4.208
 8649W        W81074  36.220   0.796   3.773
 8650W        W81075  33.198   4.842   0.343
 8651W        W81076  18.767  11.805  14.822
 8652W        W81077  22.590  12.464  12.006
 8653W        W81078  36.140   6.760  11.609
 8654W        W81079  10.274  44.468   3.482
 8655W        W81080  31.796  38.948   1.002
 8656W        W81081  43.542  25.208  12.551
 8657W        W81082  37.647  31.912   3.697
 8658W        W81083   4.195  41.885   3.232
 8659W        W81084  14.139  26.320  13.529
 8660W        W81085   4.211  27.095   3.847
 8661W        W81086  37.753  10.896   3.240
 8662W        W81087  42.063  37.486   1.768
 8663W        W81088  35.729  17.042   1.080
 8664W        W81089  29.184  43.998   2.714
 8665W        W81090  22.181  21.725   3.782
 8666W        W81091   9.712  31.478   1.723
 8667W        W81092  30.562  13.797   3.366
 8668W        W81093  28.522  13.870   4.454
 8669W        W81094   9.532  18.302   3.659
 8670W        W81095  12.295  29.652  13.494
 8671W        W81096   5.688  17.501   3.341
 8672W        W81097  25.629  35.702  14.313
 8673W        W81098  33.157   2.992   4.751
 8674W        W81099   1.394  13.074   2.310
 8675W        W81100  39.800  15.009   1.443
 8676W        W81101  30.658  40.952   1.905
 8677W        W81102  15.565  33.068   4.672
 8678W        W81103   8.873  19.087   3.879
 8679W        W81104  30.084  25.940  13.995
 8680W        W81105   2.170  11.250  14.497
 8681W        W81106  38.584  17.242   2.223
 8682W        W81107  38.045   3.730   1.675
 8683W        W81108   2.218  25.689   0.821
 8684W        W81109  35.147  26.847   1.159
 8685W        W81110  35.400  27.822  12.606
 8686W        W81111  34.043  44.456  12.933
 8687W        W81112  40.508   8.755  11.054
 8688W        W81113  39.552  23.356   0.724
 8689W        W81114   3.310  40.756  10.737
 8690W        W81115  31.947  22.489   0.189
 8691W        W81116  21.771   9.644   4.087
 8692W        W81117  27.733   8.856  11.496
 8693W        W81118  14.136  31.183   1.187
 8694W        W81119  39.370   4.818  12.163
 8695W        W81120  10.055  20.004   0.449
 8696W        W81121  29.957  27.871  12.945
 8697W        W81122   1.867  22.058  11.574
 8698W        W81123  34.820  13.147   3.757
 8699W        W81124  19.178   5.439   4.068
 8700W        W81125  37.878  30.911   3.723
 8701W        W81126  26.092   8.623   1.713
 8702W        W81127  36.346  29.650   2.704
 8703W        W81128  41.806  43.867   4.870
 8704W        W81129   2.627  34.904   0.719
 8705W        W81130  30.387  31.060   3.159
 8706W        W81131  13.905  30.447   4.634
 8707W        W81132  11.092  42.391  10.810
 8708W        W81133  42.118   5.538   4.013
 8709W        W81134  35.633   0.518   1.328
 8710W        W81135  43.536  30.414  11.122
 8711W        W81136  29.989  38.709  11.994
 8712W        W81137  21.593  22.886   1.921
 8713W        W81138  43.292  29.995  13.353
 8714W        W81139  34.783  17.802  12.044
 8715W        W81140  33.103  32.390  12.447
 8716W        W81141   3.697  16.250   3.307
 8717W        W81142  26.685  34.122  12.487
 8718W        W81143  16.050   9.490   1.671
 8719W        W81144   3.621  34.665  11.470
 8720W        W81145  27.201  12.687  14.057
 8721W        W81146  40.280  30.132  14.780
 8722W        W81147   2.310  27.190  11.892
 8723W        W81148  22.567  27.447   2.653
 8724W        W81149   5.389   7.065   4.896
 8725W        W81150   1.833   9.624  12.922
 8726W        W81151  33.570   8.366   1.286
 8727W        W81152  26.628  18.043   4.346
 8728W        W81153  11.221   0.338  14.540
 8729W        W81154  23.017  20.837  11.709
 8730W        W81155  20.077  13.743   2.221
 8731W        W81156  20.530   4.687   4.000
 8732W        W81157  19.797   3.419   0.060
 8733W        W81158  39.921  24.285  13.360
 8734W        W81159  10.894  14.694   1.832
 8735W        W81160  20.246  10.256  14.052
 8736W        W81161   8.235  15.383   3.863
 8737W        W81162  38.861  33.668   2.263
 8738W        W81163  41.017   1.381  13.964
 8739W        W81164   2.894  39.283   0.338
 8740W        W81165  25.062  10.688  14.351
 8741W        W81166  23.594   9.278  14.451
 8742W        W81167  30.029  36.579  13.520
 8743W        W81168  29.071  41.680   2.892
 8744W        W81169  27.857  33.829  11.039
 8745W        W81170  18.249  19.004   4.188
 8746W        W81171  33.091  43.796   4.622
 8747W        W81172  22.237  13.143  14.813
 8748W        W81173  25.248  32.090  10.284
 8749W        W81174  21.411  35.601  11.258
 8750W        W81175  26.059  43.507   1.247
 8751W        W81176  43.548  39.164  14.717
 8752W        W81177  35.712  34.929  11.355
 8753W        W81178  30.548  37.831   1.420
 8754W        W81179  20.716  15.790  12.937
 8755W        W81180   4.233  34.131  12.416
 8756W        W81181  29.663  19.481   1.303
 8757W        W81182  21.425  17.190   3.119
 8758W        W81183  27.631  20.233   1.918
 8759W        W81184  20.640   4.801  10.540
 8760W        W81185  25.585  32.504  12.618
 8761W        W81186  30.588  21.348  13.857
 8762W        W81187  28.664   3.903   4.369
 8763W        W81188  28.968  19.167  12.378
 8764W        W81189   4.717  25.921  12.693
 8765W        W81190   6.042   1.102   3.352
 8766W        W81191  30.654  38.647  12.394
 8767W        W81192  29.219  43.920  14.441
 8768W        W81193  40.996  44.997  12.468
 8769W        W81194  16.728  40.537  13.539
 8770W        W81195  44.841  17.063   3.947
 8771W        W81196  20.106  16.710   5.030
 8772W        W81197  36.956  41.404   0.733
 8773W        W81198  11.612   9.878  11.079
 8774W        W81199  28.269  16.031   2.838
 8775W        W81200  43.108  26.105   4.102
 8776W        W81201  23.556  15.810   1.448
 8777W        W81202  32.981  39.460   0.860
 8778W        W81203   2.515  19.532   4.107
 8779W        W81204  39.592  27.976   1.307
 8780W        W81205  11.925  13.228  12.511
 8781W        W81206   0.959  40.552   0.319
 8782W        W81207  29.674  28.740   3.725
 8783W        W81208  35.297  35.561   2.405
 8784W        W81209  18.320  39.244   0.431
 8785W        W81210  14.407   9.626  13.344
 8786W        W81211   9.246  23.801  11.052
 8787W        W81212  26.058   1.284  10.970
 8788W        W81213  39.826  28.097  10.686
 8789W        W81214  19.739  19.653  10.365
 8790W        W81215  32.037  35.196   1.587
 8791W        W81216   0.897  41.405   3.642
 8792W        W81217  44.543  35.364   2.230
 8793W        W81218  28.406  21.212   3.646
 8794W        W81219  44.449  30.490  11.453
 8795W        W81220  26.135  31.017   4.656
 8796W        W81221  22.735  40.390  12.024
 8797W        W81222  40.111  33.958  14.483
 8798W        W81223  31.637   7.060   3.739
 8799W        W81224  37.460   9.864  12.133
 8800W        W81225   6.351  23.558   1.848
 8801W        W81226   5.279  32.123  10.663
 8802W        W81227   6.812  42.482   0.243
 8803W        W81228  38.683   9.900  13.495
 8804W        W81229  37.589  28.345   1.759
 8805W        W81230  24.575   3.955  14.433
 8806W        W81231   1.267   8.577   4.294
 8807W        W81232  35.403  30.193   2.174
 8808W        W81233  38.629   2.427  14.913
 8809W        W81234  16.332  10.532   1.818
 8810W        W81235   2.063  39.752  13.528
 8811W        W81236   0.289   7.216   3.616
 8812W        W81237  34.581   6.435  14.491
 8813W        W81238   6.873  33.427   4.497
 8814W        W81239  18.163  26.426   1.297
 8815W        W81240   5.705  27.513  11.489
 8816W        W81241  22.749  27.214   1.302
 8817W        W81242  14.139   7.114   2.281
 8818W        W81243  34.477  43.435  11.182
 8819W        W81244  25.566  27.540  13.932
 8820W        W81245  41.508  24.988  10.634
 8821W        W81246  23.678   4.240  10.340
 8822W        W81247  19.398  31.185  13.786
 8823W        W81248   8.071  40.788  13.162
 8824W        W81249  18.314  41.041   1.734
 8825W        W81250   1.271  22.121   1.746
 8826W        W81251  12.440  20.048   0.812
 8827W        W81252  41.488   1.478   2.905
 8828W        W81253  31.941  35.647  13.135
 8829W        W81254  13.519  21.076  13.368
 8830W        W81255   7.843   2.480   2.333
 8831W        W81256  14.466  11.859   4.775
 8832W        W81257  37.786   3.773  13.024
 8833W        W81258   0.560  18.093  12.887
 8834W        W81259   7.444  35.797  11.185
 8835W        W81260  26.300  10.607   3.528
 8836W        W81261  22.286  41.700   0.291
 8837W        W81262  28.076  19.723   2.422
 8838W        W81263  19.795  29.457  13.836
 8839W        W81264  41.987  43.005  10.588
 8840W        W81265  10.183  44.878  14.616
 8841W        W81266  29.018  40.967   9.507
 8842W        W81267  36.185  19.330  10.691
 8843W        W81268  21.577  16.751  13.596
 8844W        W81269  13.747   8.708  12.682
 8845W        W81270  34.541  29.030  14.375
 8846W        W81271  39.599   4.212   4.063
 8847W        W81272   1.005  42.035  14.330
 8848W        W81273   2.365  41.033   0.439
 8849W        W81274  44.139   9.707  10.274
 8850W        W81275   9.678   8.383   0.028
 8851W        W81276  30.664  30.373  12.994
 8852W        W81277  24.993   5.852  14.775
 8853W        W81278   2.431  24.887   0.729
 8854W        W81279  22.049   9.297   0.142
 8855W        W81280  20.302  20.555  12.018
 8856W        W81281  27.905  42.108  13.423
 8857W        W81282  39.015  32.351  12.997
 8858W        W81283  19.728  24.137  10.412
 8859W        W81284  25.044  18.611  14.471
 8860W        W81285  40.564  40.480  13.037
 8861W        W81286  26.516  40.525  14.782
 8862W        W81287  17.059  18.582  13.219
 8863W        W81288  37.378   9.633  11.159
 8864W        W81289  17.722   5.682   0.881
 8865W        W81290  31.629  36.468   2.281
 8866W        W81291   8.038  10.160   4.678
 8867W        W81292   3.219   1.871   2.955
 8868W        W81293  23.038  20.182   1.396
 8869W        W81294  24.180  28.711  12.894
 8870W        W81295   7.748  41.063   3.081
 8871W        W81296  14.783  23.514  14.229
 8872W        W81297   6.463  26.991   0.170
 8873W        W81298  26.599  37.169   0.245
 8874W        W81299  32.302  44.237   9.948
 8875W        W81300   5.999  20.910   2.221
 8876W        W81301  28.388  20.197  11.911
 8877W        W81302   8.750  29.747   0.793
 8878W        W81303  13.141  25.624  13.477
 8879W        W81304   3.716  36.551   0.012
 8880W        W81305   1.923  14.002  12.617
 8881W        W81306  11.329  17.036  13.920
 8882W        W81307  33.552  15.028  11.468
 8883W        W81308  11.350  13.404  14.352
 8884W        W81309  15.176  40.479  12.030
 8885W        W81310  33.992  15.033   0.718
 8886W        W81311  42.218  25.270  11.069
 8887W        W81312   8.453  10.511  13.742
 8888W        W81313  24.772  39.963  10.649
 8889W        W81314  19.569  40.954  13.214
 8890W        W81315  41.271  32.649   2.715
 8891W        W81316  14.309  33.499   4.771
 8892W        W81317   4.996  24.030  11.638
 8893W        W81318  34.977  10.256  10.614
 8894W        W81319  16.635  26.969   0.195
 8895W        W81320  36.292   1.583   0.948
 8896W        W81321  14.142  10.744  10.718
 8897W        W81322  10.233  41.563  11.074
 8898W        W81323  27.236  34.312   0.199
 8899W        W81324  10.445  27.894   4.265
 8900W        W81325  22.108  18.531   3.266
 8901W        W81326   6.187  39.907  12.535
 8902W        W81327  28.530   8.173   0.474
 8903W        W81328  41.768  14.646  14.529
 8904W        W81329  20.221  21.013   4.979
 8905W        W81330   4.581  18.810  11.132
 8906W        W81331   4.687  26.033  11.476
 8907W        W81332  14.230  12.264  10.503
 8908W        W81333  19.309  43.350  12.477
 8909W        W81334  13.789  33.446   4.694
 8910W        W81335  22.624  31.176  10.730
 8911W        W81336  32.405  11.861   1.815
 8912W        W81337  24.210   6.757   3.828
 8913W        W81338  30.474  39.406  10.787
 8914W        W81339   1.959  27.247  13.010
 8915W        W81340  13.180   5.852  12.526
 8916W        W81341  18.783  27.897  12.420
 8917W        W81342  31.060  19.652   4.615
 8918W        W81343  38.174  23.474  13.067
 8919W        W81344  28.091  13.341  12.166
 8920W        W81345  22.541  37.440  14.353
 8921W        W81346  20.716  32.617  14.838
 8922W        W81347  22.750  12.669  11.572
 8923W        W81348  43.951   8.722  11.991
 8924W        W81349  21.322  33.801   4.957
 8925W        W81350  32.804   0.297  11.290
 8926W        W81351  31.480  15.191  14.888
 8927W        W81352  30.850  38.070  12.041
 8928W        W81353  33.219  32.113   3.693
 8929W        W81354  28.126  31.452   1.729
 8930W        W81355  27.628   3.993   1.607
 8931W        W81356  28.707   5.163  14.982
 8932W        W81357  17.972  31.647   3.701
 8933W        W81358  30.992   7.719   4.667
 8934W        W81359  10.081  34.407   0.852
 8935W        W81360   3.900   2.002  11.711
 8936W        W81361  26.874  24.776   2.443
 8937W        W81362  18.748   5.159   0.637
 8938W        W81363  35.169   0.253   0.710
 8939W        W81364  19.237   7.898   1.272
 8940W        W81365  23.269  10.626  12.109
 8941W        W81366  11.738  20.951   0.848
 8942W        W81367   6.728   3.461  13.788
 8943W        W81368  28.573  17.992  14.004
 8944W        W81369  42.759  25.510   1.322
 8945W        W81370  28.578  44.603   4.066
 8946W        W81371  24.235  13.322   4.552
 8947W        W81372  22.528   5.367   1.107
 8948W        W81373  29.179  25.786   4.297
 8949W        W81374  42.570  14.214  12.599
 8950W        W81375   4.682  13.350   1.172
 8951W        W81376   1.337  27.378   1.877
 8952W        W81377  18.310  16.308   4.263
 8953W        W81378  12.356  17.215  11.914
 8954W        W81379   1.913   1.250  10.990
 8955W        W81380   1.414  35.431  13.480
 8956W        W81381  44.508  18.696   0.376
 8957W        W81382  27.947  24.260  14.285
 8958W        W81383  35.719  34.597   2.223
 8959W        W81384  22.141  10.315  12.439
 8960W        W81385  20.704   8.870   3.856
 8961W        W81386   9.589  15.203  14.185
 8962W        W81387  14.918   8.686  12.121
 8963W        W81388  27.808  44.780  10.659
 8964W        W81389  16.654  29.114  14.411
 8965W        W81390  38.880   0.811  10.643
 8966W        W81391  22.755  21.161  11.411
 8967W        W81392  11.559  25.092   2.001
 8968W        W81393   5.915  14.178  12.580
 8969W        W81394  18.102   2.804  14.844
 8970W        W81395  36.111  12.805   2.831
 8971W        W81396   6.133  16.675  13.227
 8972W        W81397   4.298   1.319  13.339
 8973W        W81398  40.084  12.791   0.375
 8974W        W81399  17.630  42.825   0.662
 8975W        W81400  28.096   1.813   0.617
 8976W        W81401   2.005  41.688  11.050
 8977W        W81402  17.953   8.755   4.892
 8978W        W81403  11.524  30.544  13.057
 8979W        W81404  28.688  20.179   4.274
 8980W        W81405   9.861  22.200   4.806
 8981W        W81406  25.391  32.109  13.950
 8982W        W81407  10.190   9.149   0.985
 8983W        W81408  35.053  40.891   4.344
 8984W        W81409   2.458  43.669  14.121
 8985W        W81410  28.392  29.064   0.967
 8986W        W81411  41.536  23.661  10.557
 8987W        W81412   2.033  25.943  12.265
 8988W        W81413  26.898   2.833   3.276
 8989W        W81414  13.620   5.007  14.387
 8990W        W81415  41.125  21.507  13.431
 8991W        W81416  26.020  38.796   2.720
 8992W        W81417  31.177  30.511  11.487
 8993W        W81418  22.600   5.935  13.163
 8994W        W81419  30.995  40.331   3.749
 8995W        W81420  36.142  39.551  12.514
 8996W        W81421  23.566  24.278   0.264
 8997W        W81422  28.467  32.520   1.485
 8998W        W81423  24.546  27.634  12.936
 8999W        W81424  29.362  33.972  11.151
 9000W        W81425  37.192  27.069   0.887
 9001W        W81426  28.354  35.364  13.204
 9002W        W81427  41.078  39.391   4.843
 9003W        W81428  39.292  32.460  13.789
 9004W        W81429  14.165  28.549  13.757
 9005W        W81430  15.288  11.580   3.283
 9006W        W81431   8.290   4.152  13.510
 9007W        W81432  34.008  15.094  14.740
 9008W        W81433  36.745  10.732   4.810
 9009W        W81434  33.029   1.958  10.529
 9010W        W81435  31.374  12.282  11.075
 9011W        W81436  22.104  23.624   0.168
 9012W        W81437   0.175  11.739  13.221
 9013W        W81438  28.635  27.238  12.656
 9014W        W81439  17.215  16.039  13.443
 9015W        W81440  33.892  32.987  12.027
 9016W        W81441  35.105   2.091   5.351
 9017W        W81442  12.969  12.876   0.971
 9018W        W81443  39.512  16.077   0.914
 9019W        W81444  10.818  30.494   2.770
 9020W        W81445   9.773  44.244   3.611
 9021W        W81446  37.061  24.984  14.802
 9022W        W81447  32.676  25.973  14.502
 9023W        W81448  28.604  25.627   4.251
 9024W        W81449  38.980   8.633  12.575
 9025W        W81450   3.684   4.121   0.669
 9026W        W81451  13.385  38.786  14.323
 9027W        W81452  39.654  41.662  14.745
 9028W        W81453   9.080  19.641  13.783
 9029W        W81454  14.618   2.965  11.982
 9030W        W81455  26.732  18.943  11.485
 9031W        W81456   8.909  16.108   1.290
 9032W        W81457  10.911  16.763   3.596
 9033W        W81458   8.198  21.100  12.021
 9034W        W81459  30.837  33.686  11.461
 9035W        W81460  21.953  24.191   2.286
 9036W        W81461  16.343  43.726  14.970
 9037W        W81462   9.844  24.684  14.382
 9038W        W81463   5.879  23.657  13.381
 9039W        W81464  41.771  42.914   4.689
 9040W        W81465   5.174  17.331   0.793
 9041W        W81466  21.046  16.665  13.880
 9042W        W81467   1.473  33.076   4.175
 9043W        W81468  27.164   7.827  13.117
 9044W        W81469   8.074  20.210  11.179
 9045W        W81470  27.375  16.924   4.413
 9046W        W81471  24.729  41.282   4.370
 9047W        W81472  12.342   3.865   3.322
 9048W        W81473  34.001  31.061  10.685
 9049W        W81474  21.505  36.862  14.978
 9050W        W81475   3.323  10.175   1.451
 9051W        W81476  26.314  28.942  14.149
 9052W        W81477  30.925  41.850  10.494
 9053W        W81478   1.988  39.066   4.499
 9054W        W81479  10.826  44.502   4.450
 9055W        W81480  29.221   0.255   1.046
 9056W        W81481  14.540  24.951  10.008
 9057W        W81482   5.898  31.546  11.031
 9058W        W81483  25.232   8.990   3.283
 9059W        W81484   0.775  44.915  14.780
 9060W        W81485  26.040  28.696   1.942
 9061W        W81486  36.536   3.672  12.614
 9062W        W81487  24.317  31.149   4.242
 9063W        W81488  16.058  19.087  10.877
 9064W        W81489  29.105  42.439  14.272
 9065W        W81490  21.728  16.811   1.753
 9066W        W81491  29.589   4.231  12.042
 9067W        W81492  13.586   6.125  12.425
 9068W        W81493   1.302  33.942   4.715
 9069W        W81494  15.334   6.287  13.436
 9070W        W81495  19.316  17.490   0.917
 9071W        W81496  28.012  11.885   3.677
 9072W        W81497  37.424  37.558   0.296
 9073W        W81498  44.515   5.090   0.764
 9074W        W81499  31.868  15.246   3.293
 9075W        W81500  18.081  32.174   0.531
 9076W        W81501   4.744   1.708   1.056
 9077W        W81502   7.425  43.869   2.739
 9078W        W81503  28.138  11.182   1.674
 9079W        W81504  25.381  15.393  12.912
 9080W        W81505  25.569  14.524  14.961
 9081W        W81506   6.859  25.810   4.892
 9082W        W81507   3.749  30.064   0.241
 9083W        W81508   9.876  20.271   4.984
 9084W        W81509   6.877  29.647  14.929
 9085W        W81510  21.381  39.745  12.149
 9086W        W81511  34.472   9.233   3.528
 9087W        W81512   6.125  17.996  10.332
 9088W        W81513  33.394  44.148  10.739
 9089W        W81514  39.559  38.345   2.145
 9090W        W81515   3.692  19.076  14.581
 9091W        W81516  28.109  19.121  12.268
 9092W        W81517  30.195   8.063   3.934
 9093W        W81518  22.657   2.622  14.429
 9094W        W81519  44.029  14.341   0.654
 9095W        W81520  18.066  32.051  12.865
 9096W        W81521  42.753   4.739  10.609
 9097W        W81522  43.778  32.918   2.303
 9098W        W81523  18.931  31.620  12.065
 9099W        W81524  43.503   8.224   3.183
 9100W        W81525  21.626  40.821   0.190
 9101W        W81526  35.444  42.545   0.337
 9102W        W81527  41.279   7.369  11.658
 9103W        W81528  18.807  21.499  11.849
 9104W        W81529  42.416  24.534   1.835
 9105W        W81530  21.053  18.578   4.640
 9106W        W81531   7.222  16.464  13.981
 9107W        W81532  33.634  17.603   1.038
 9108W        W81533   4.463   1.115  14.765
 9109W        W81534  27.927   7.339  12.841
 9110W        W81535  18.646  37.502  12.569
 9111W        W81536  39.336  35.314  14.353
 9112W        W81537  24.431   7.950   2.694
 9113W        W81538  26.654  30.083   2.290
 9114W        W81539  14.654  27.950  10.745
 9115W        W81540   3.543  38.875   5.099
 9116W        W81541  30.020  32.356  13.144
 9117W        W81542  20.676  22.566   2.319
 9118W        W81543  37.958   7.697   2.365
 9119W        W81544   5.922  28.615  10.817
 9120W        W81545  19.932   3.858  12.474
 9121W        W81546   5.167   5.515  12.874
 9122W        W81547  41.270  12.929   1.766
 9123W        W81548  43.286  17.119   4.610
 9124W        W81549  36.852  15.189   3.872
 9125W        W81550  40.870  44.956   4.828
 9126W        W81551  30.905  22.067  12.870
 9127W        W81552  43.351  16.156   0.418
 9128W        W81553  23.076  23.456  13.852
 9129W        W81554  16.642  30.564  11.931
 9130W        W81555  38.823  36.206   2.624
 9131W        W81556   7.216   1.218  14.986
 9132W        W81557  39.854  37.752  14.815
 9133W        W81558  19.229   4.064   0.304
 9134W        W81559  38.028  26.066   3.406
 9135W        W81560  13.158  11.864   2.715
 9136W        W81561   1.489   4.382   3.670
 9137W        W81562   0.019  34.066   1.839
 9138W        W81563  25.466  10.557  11.597
 9139W        W81564   8.272   8.233   2.645
 9140W        W81565   7.898  17.113   0.493
 9141W        W81566  31.910  27.565  13.924
 9142W        W81567  38.092  12.896  12.033
 9143W        W81568  38.101  21.510  14.367
 9144W        W81569  37.065   8.872  12.324
 9145W        W81570  21.255  41.535  14.041
 9146W        W81571  29.529  43.173  11.340
 9147W        W81572   7.188   4.621   2.910
 9148W        W81573   4.774  13.241   4.361
 9149W        W81574  44.403  41.401   4.162
 9150W        W81575  32.041  28.484  11.464
 9151W        W81576  27.111  34.047   2.958
 9152W        W81577  15.165  34.090  12.662
 9153W        W81578  12.196  12.275  10.752
 9154W        W81579  27.816  27.663  13.092
 9155W        W81580  30.640  18.343   4.710
 9156W        W81581  26.447  12.083   2.335
 9157W        W81582  22.760  30.069   0.542
 9158W        W81583   7.656  35.519   2.324
 9159W        W81584  33.514  41.167   4.125
 9160W        W81585  42.155   6.975  13.785
 9161W        W81586  43.043   0.766   1.674
 9162W        W81587  22.787   4.307  10.215
 9163W        W81588  14.205  23.133  12.437
 9164W        W81589  20.343  30.863  11.943
 9165W        W81590  18.259  12.785  13.480
 9166W        W81591  22.133  11.920  10.644
 9167W        W81592  27.552  43.590   3.755
 9168W        W81593  18.007  35.468   2.850
 9169W        W81594  39.021   0.042   3.660
 9170W        W81595  32.878  10.176  11.199
 9171W        W81596   6.126  17.087  13.595
 9172W        W81597  28.024  28.205  12.460
 9173W        W81598  35.345   4.168  13.993
 9174W        W81599  36.605  37.937   3.346
 9175W        W81600  41.962  32.693  12.527
 9176W        W81601  20.776  14.717  11.621
 9177W        W81602   4.685  43.862   1.883
 9178W        W81603  35.553  24.617   0.289
 9179W        W81604  31.795  27.086  14.682
 9180W        W81605  25.142  16.595   4.211
 9181W        W81606  23.763  13.050   1.475
 9182W        W81607  21.599  40.861   3.247
 9183W        W81608  22.554  18.067  10.562
 9184W        W81609  22.364  24.361  11.669
 9185W        W81610   3.416  20.167  14.546
 9186W        W81611  11.626  26.230  12.344
 9187W        W81612  30.070  15.579  14.880
 9188W        W81613  36.933  24.947  11.605
 9189W        W81614   3.185  38.083   1.731
 9190W        W81615  42.808  40.772   3.309
 9191W        W81616  43.862   6.414   2.369
 9192W        W81617  42.394  31.280   4.862
 9193W        W81618  37.527  32.152   0.810
 9194W        W81619  23.089  13.804   2.845
 9195W        W81620  32.518   3.002   0.206
 9196W        W81621   4.784  29.693  10.419
 9197W        W81622   1.276  33.229  12.397
 9198W        W81623  39.521  34.146  13.585
 9199W        W81624  43.541  24.412  11.960
 9200W        W81625  31.795  20.747  12.644
 9201W        W81626  26.708   4.367   4.091
 9202W        W81627   4.132  34.235   2.183
 9203W        W81628   4.125  25.633  14.371
 9204W        W81629  20.225   3.044   4.785
 9205W        W81630  44.613  28.673   4.112
 9206W        W81631  14.226  34.039  13.103
 9207W        W81632   6.965  33.849   1.681
 9208W        W81633  15.401  43.486   1.139
 9209W        W81634   8.183  14.155   3.068
 9210W        W81635   6.784  20.121   0.725
 9211W        W81636  44.794   5.248  10.646
 9212W        W81637  30.246  12.729   4.146
 9213W        W81638  43.125   4.754   3.743
 9214W        W81639  17.130  29.533   0.729
 9215W        W81640   3.466  30.528   4.523
 9216W        W81641  10.929   1.974  11.863
 9217W        W81642  18.703  44.521   4.666
 9218W        W81643  41.735  13.851  12.504
 9219W        W81644   0.961  27.457  12.211
 9220W        W81645  21.600  32.835  12.415
 9221W        W81646  23.123  43.071  14.906
 9222W        W81647  33.058  26.690   1.992
 9223W        W81648  12.608  35.014   3.183
 9224W        W81649  39.664  20.095   4.882
 9225W        W81650  40.485   3.346  11.248
 9226W        W81651  44.046  19.662   1.766
 9227W        W81652   5.414  24.577  12.138
 9228W        W81653  28.523  13.085   3.477
 9229W        W81654  35.687  16.400   2.719
 9230W        W81655  30.223  25.210   4.525
 9231W        W81656   6.637  14.766  14.278
 9232W        W81657  34.129  17.950  14.959
 9233W        W81658  11.200  35.092   3.313
 9234W        W81659  41.627  20.648   3.344
 9235W        W81660  15.056  25.154  13.002
 9236W        W81661  44.035   1.217  11.830
 9237W        W81662   9.823  30.827   0.862
 9238W        W81663  43.919  18.782  12.900
 9239W        W81664   9.866  42.001   4.471
 9240W        W81665  20.009  29.750  12.519
 9241W        W81666   0.408   3.466   3.747
 9242W        W81667  32.334  22.615  11.076
 9243W        W81668  39.425  27.044   1.266
 9244W        W81669  21.309  42.417   2.354
 9245W        W81670   8.680  14.583  13.777
 9246W        W81671  30.639  12.808  12.012
 9247W        W81672   0.008   1.874   1.721
 9248W        W81673  10.273  31.875  14.360
 9249W        W81674  28.542   3.726  13.749
 9250W        W81675  18.204  15.967   0.514
 9251W        W81676   2.033  15.855   2.358
 9252W        W81677   6.935   2.450  14.975
 9253W        W81678   3.472  22.566  13.357
 9254W        W81679  13.333  40.958   2.236
 9255W        W81680   8.558   4.998   4.141
 9256W        W81681   9.012  28.264   0.358
 9257W        W81682  18.829   7.938   4.373
 9258W        W81683  10.666  31.540  11.039
 9259W        W81684  31.657  22.665   1.363
 9260W        W81685  41.513  41.259   1.865
 9261W        W81686  38.456   4.712   4.835
 9262W        W81687   2.341  43.317  14.497
 9263W        W81688  38.506  23.081  14.340
 9264W        W81689   6.994  12.146  10.611
 9265W        W81690  26.968  29.001  11.949
 9266W        W81691   7.199   8.749  10.466
 9267W        W81692  33.390  37.413   0.007
 9268W        W81693  36.541  33.668   1.782
 9269W        W81694  37.756  44.342   1.801
 9270W        W81695  25.231  33.024  13.169
 9271W        W81696  19.246  29.788   1.471
 9272W        W81697  41.843  34.414   0.824
 9273W        W81698  25.023   4.499  10.192
 9274W        W81699  30.650  21.177   4.437
 9275W        W81700  14.195  36.489  14.080
 9276W        W81701   0.227   3.380  14.517
 9277W        W81702  30.400  15.449   1.411
 9278W        W81703  41.115   2.844  12.828
 9279W        W81704  20.559   1.772   4.186
 9280W        W81705  14.357  20.795   3.777
 9281W        W81706  28.859  42.267   4.106
 9282W        W81707   4.703  26.199   3.808
 9283W        W81708  41.785  19.417   1.202
 9284W        W81709   2.198  32.036  13.938
 9285W        W81710  30.639  33.345  11.142
 9286W        W81711  28.697  33.943   0.338
 9287W        W81712   5.614   5.048   4.852
 9288W        W81713   9.459  32.006  10.609
 9289W        W81714  10.787  12.428  13.931
 9290W        W81715  21.051   9.744   1.317
 9291W        W81716  38.087  15.625   0.353
 9292W        W81717   3.785   0.022  11.693
 9293W        W81718  24.496   0.394  11.509
 9294W        W81719  10.353  38.369   4.981
 9295W        W81720   4.477  15.046   0.584
 9296W        W81721  18.251  20.293   3.228
 9297W        W81722  31.365  31.406   1.801
 9298W        W81723   9.862  37.632  12.660
 9299W        W81724  21.486  19.590  11.904
 9300W        W81725   7.922   4.430  10.447
 9301W        W81726   4.824  39.326  13.779
 9302W        W81727  25.807   3.951   1.899
 9303W        W81728  16.796  34.055  13.922
 9304W        W81729  20.789  20.224   4.614
 9305W        W81730  38.765   6.439   3.206
 9306W        W81731   5.514  10.924   4.103
 9307W        W81732   9.897   6.897  12.077
 9308W        W81733   8.614  19.670   2.803
 9309W        W81734   7.273  28.375  11.405
 9310W        W81735  17.689   6.764   4.477
 9311W        W81736  40.816   6.271  10.772
 9312W        W81737  33.960   9.998  14.236
 9313W        W81738  26.615  34.231  13.874
 9314W        W81739  44.821   9.538  12.908
 9315W        W81740  37.757  39.374   1.286
 9316W        W81741  24.027  30.271  10.143
 9317W        W81742  10.834  40.136  12.858
 9318W        W81743  34.542  31.187  12.995
 9319W        W81744  28.493  19.402  12.491
 9320W        W81745  16.030  33.904  13.504
 9321W        W81746  14.341   8.196   3.164
 9322W        W81747  33.462  24.910  12.437
 9323W        W81748   9.170  11.813   0.007
 9324W        W81749  18.929  37.901   3.729
 9325W        W81750  11.921  14.111   0.324
 9326W        W81751  39.930  19.175  11.885
 9327W        W81752  40.755  42.758   2.347
 9328W        W81753   8.874  36.736   4.075
 9329W        W81754  29.123  36.687   1.328
 9330W        W81755   1.018  32.996  14.481
 9331W        W81756  31.624  30.437   4.252
 9332W        W81757  38.624  20.558  12.637
 9333W        W81758  22.266  16.700  10.907
 9334W        W81759  41.009   4.633   3.867
 9335W        W81760   9.968  22.110  14.169
 9336W        W81761   8.816  10.718  14.340
 9337W        W81762  12.088  10.212   4.299
 9338W        W81763  34.355   6.996  12.989
 9339W        W81764  44.421  27.211   2.007
 9340W        W81765  27.169  40.853  13.685
 9341W        W81766  12.315  18.458  12.515
 9342W        W81767  19.934   4.214   1.654
 9343W        W81768  14.543  25.300   3.481
 9344W        W81769  19.270  27.994  10.755
 9345W        W81770  32.083  37.903  11.543
 9346W        W81771   4.765  31.410   4.867
 9347W        W81772  34.305  32.659  10.644
 9348W        W81773   8.254   7.485  13.902
 9349W        W81774  19.138  40.919  14.530
 9350W        W81775  22.954  17.318   4.742
 9351W        W81776  42.806  24.111  12.293
 9352W        W81777   6.757  13.763  12.454
 9353W        W81778  27.483  41.508   3.625
 9354W        W81779   5.679   4.877   4.382
 9355W        W81780  37.778   2.363   1.793
 9356W        W81781   5.266  23.546   2.874
 9357W        W81782  15.063  36.471   3.291
 9358W        W81783  26.964  31.485   1.629
 9359W        W81784  37.000  17.657   4.435
 9360W        W81785  15.132   2.548   0.771
 9361W        W81786  25.478  29.060  12.924
 9362W        W81787  39.507  16.659   0.265
 9363W        W81788  22.151  39.054   1.291
 9364W        W81789  18.741  15.213  12.048
 9365W        W81790  33.518  35.602  12.029
 9366W        W81791   4.694  34.595   0.337
 9367W        W81792   3.741  14.628  14.327
 9368W        W81793  22.663   7.459  12.165
 9369W        W81794  40.621  36.132   1.281
 9370W        W81795   1.308   9.915   3.779
 9371W        W81796  17.845  14.118   2.097
 9372W        W81797  12.641  38.438  13.932
 9373W        W81798  39.286  18.324   3.712
 9374W        W81799  24.727  15.228   4.281
 9375W        W81800  32.891  40.915  12.453
 9376W        W81801  28.003  44.763  13.888
 9377W        W81802   6.703   2.800   4.711
 9378W        W81803   9.630  34.291  12.891
 9379W        W81804  25.427  39.026   0.853
 9380W        W81805  40.740  37.997  11.681
 9381W        W81806  22.058   9.300   1.648
 9382W        W81807  40.310  13.124  10.809
 9383W        W81808  30.699  11.321  12.394
 9384W        W81809  31.486  19.764   0.768
 9385W        W81810  17.559  31.009  14.968
 9386W        W81811   3.458  17.213  13.570
 9387W        W81812  23.825  42.925  12.059
 9388W        W81813  15.057   2.322   1.238
 9389W        W81814  19.311   9.740   1.910
 9390W        W81815  10.936  11.198   2.302
 9391W        W81816  40.176  35.010   9.930
 9392W        W81817  32.627   1.907  12.445
 9393W        W81818  15.989   7.436  13.831
 9394W        W81819  17.030  26.386  13.896
 9395W        W81820  20.823  25.587  11.938
 9396W        W81821   7.403   5.314  11.576
 9397W        W81822  39.814  41.933  14.063
 9398W        W81823   3.250  16.232  13.269
 9399W        W81824  20.627   0.753   3.406
 9400W        W81825  36.842  12.989  12.962
 9401W        W81826   3.256  34.939  14.830
 9402W        W81827  42.046  39.759   3.181
 9403W        W81828  25.534  43.803   3.172
 9404W        W81829  15.350  16.157   4.475
 9405W        W81830   0.884   6.190  13.836
 9406W        W81831  18.501  14.856  14.450
 9407W        W81832  10.087   3.200   4.536
 9408W        W81833  21.516  43.824   3.264
 9409W        W81834   6.659  17.790   3.254
 9410W        W81835  42.623  38.236  11.565
 9411W        W81836  13.303  28.739   1.159
 9412W        W81837   9.123  39.247   3.168
 9413W        W81838   4.483  16.839  14.914
 9414W        W81839   6.071   5.340  14.395
 9415W        W81840  42.445  20.053   0.311
 9416W        W81841   9.780  18.351   3.213
 9417W        W81842  36.660  31.373  14.316
 9418W        W81843  22.926   5.727  10.261
 9419W        W81844  22.926  17.643  14.293
 9420W        W81845  15.311  10.118  11.483
 9421W        W81846  27.147  21.762   1.485
 9422W        W81847  14.473  17.767   0.727
 9423W        W81848  27.109  19.833   0.215
 9424W        W81849  14.553  33.508   2.271
 9425W        W81850  17.170   0.057  12.985
 9426W        W81851  32.469   1.798  11.457
 9427W        W81852  43.999  32.672   1.845
 9428W        W81853  19.281  41.374  13.302
 9429W        W81854  38.923  14.142  11.455
 9430W        W81855  41.901  44.548   3.690
 9431W        W81856   2.783  16.355  11.115
 9432W        W81857  12.208  15.180  13.377
 9433W        W81858  36.658  22.588   2.393
 9434W        W81859  17.153   8.569   4.492
 9435W        W81860  41.406  16.244   2.187
 9436W        W81861  27.552  42.695   4.595
 9437W        W81862   8.667  26.123   2.796
 9438W        W81863  41.434  19.578  14.475
 9439W        W81864  37.483   5.097   9.896
 9440W        W81865  33.547  11.185   0.718
 9441W        W81866  39.661  36.863   4.109
 9442W        W81867  43.852  29.574  10.641
 9443W        W81868  41.894  36.925   4.434
 9444W        W81869  33.131  29.185   3.262
 9445W        W81870  20.004  43.812   0.966
 9446W        W81871  41.691   4.463  11.120
 9447W        W81872  14.823  39.966   3.122
 9448W        W81873   6.444  20.549  12.489
 9449W        W81874  11.459  17.723   4.434
 9450W        W81875  33.013  30.898  13.364
 9451W        W81876  13.837   9.922  11.958
 9452W        W81877  18.652   2.590   0.102
 9453W        W81878   4.943  40.453   2.542
 9454W        W81879  30.250  23.109  12.472
 9455W        W81880   1.676  31.542  14.783
 9456W        W81881  33.526  25.044   0.019
 9457W        W81882  40.910  24.137  10.642
 9458W        W81883  28.435  21.465   3.197
 9459W        W81884  33.782   4.224   0.892
 9460W        W81885  28.817  14.619  14.744
 9461W        W81886   6.402  25.970   0.246
 9462W        W81887  14.340  27.407  11.471
 9463W        W81888  17.122  19.211  12.438
 9464W        W81889  22.059  12.789   1.393
 9465W        W81890  37.540  39.550   2.639
 9466W        W81891  42.679  17.890  11.508
 9467W        W81892  19.684   4.449  13.358
 9468W        W81893   5.231  20.462   2.430
 9469W        W81894  36.848  17.028   2.689
 9470W        W81895  31.518  26.441  10.581
 9471W        W81896  36.081   4.731   3.078
 9472W        W81897   3.214  17.831  10.699
 9473W        W81898  23.258  39.643   4.220
 9474W        W81899  36.386  18.754   3.806
 9475W        W81900  44.552  31.690   0.966
 9476W        W81901  17.104  11.381  11.132
 9477W        W81902  42.512  19.335   1.481
 9478W        W81903  43.916   3.432  14.667
 9479W        W81904  14.139  27.500   3.711
 9480W        W81905  24.159  38.606  12.708
 9481W        W81906  26.747  17.147   3.799
 9482W        W81907   7.439  26.500   3.274
 9483W        W81908   1.044  34.132  10.506
 9484W        W81909  32.077   5.059   3.286
 9485W        W81910   6.691  22.757  12.324
 9486W        W81911  14.468  12.292  14.293
 9487W        W81912  18.166  40.976  10.717
 9488W        W81913   4.867  36.519   3.111
 9489W        W81914  17.285  26.691   0.337
 9490W        W81915  21.629  40.880  10.536
 9491W        W81916  30.715  18.091   2.346
 9492W        W81917  12.353  17.699   4.171
 9493W        W81918  28.759  34.850  10.524
 9494W        W81919   7.696  10.285  14.781
 9495W        W81920  11.333  19.198   1.779
 9496W        W81921  31.534  33.558   3.738
 9497W        W81922  36.253  15.618  11.005
 9498W        W81923  29.430  26.671  13.606
 9499W        W81924   2.905  18.397   3.843
 9500W        W81925  27.512  44.844  14.111
 9501W        W81926  27.602  38.095  11.160
 9502W        W81927  11.199  13.193   3.702
 9503W        W81928  26.567   5.762   4.619
 9504W        W81929   6.760   4.883  13.295
 9505W        W81930   2.766  31.116  12.606
 9506W        W81931   0.510  32.983   2.445
 9507W        W81932  25.513  38.693  12.114
 9508W        W81933  23.158   9.360   1.821
 9509W        W81934   6.916   3.936  13.892
 9510W        W81935  36.089  15.242   0.740
 9511W        W81936   8.992  41.580  12.048
 9512W        W81937  25.934  31.493  14.396
 9513W        W81938  41.006  31.223  14.155
 9514W        W81939  26.928  17.406   1.483
 9515W        W81940   3.728  17.602  11.516
 9516W        W81941  37.285  21.958   4.345
 9517W        W81942   2.741   0.923  11.104
 9518W        W81943  24.698  17.758  14.982
 9519W        W81944  23.379   7.319   4.429
 9520W        W81945  37.921  35.821   0.416
 9521W        W81946  43.992  17.259   2.590
 9522W        W81947  13.768  39.497  12.557
 9523W        W81948  42.870   7.268   3.247
 9524W        W81949   3.194  31.907  12.952
 9525W        W81950  43.391  37.465  14.321
 9526W        W81951  11.848  23.139  13.893
 9527W        W81952  20.754  30.661  11.662
 9528W        W81953  31.670  10.131   2.217
 9529W        W81954  25.448  36.904   2.292
 9530W        W81955   3.716  38.893   2.702
 9531W        W81956  36.350  39.339  13.776
 9532W        W81957  14.800  39.472   3.772
 9533W        W81958   3.647  44.030  12.203
 9534W        W81959   2.985  18.977   4.582
 9535W        W81960  19.719  14.760  12.119
 9536W        W81961  13.640   9.773  10.918
 9537W        W81962  42.852   2.439  13.785
 9538W        W81963  12.724   0.030  14.298
 9539W        W81964  13.565  32.339   0.902
 9540W        W81965  38.301  17.171   0.206
 9541W        W81966  31.135  14.121   2.844
 9542W        W81967   5.763  38.799  14.535
 9543W        W81968  37.148  31.814   0.857
 9544W        W81969   4.349  35.307   0.297
 9545W        W81970  39.501  24.644   1.942
 9546W        W81971  17.135   1.950   2.432
 9547W        W81972  29.470  14.090   2.852
 9548W        W81973  32.023  22.719  13.347
 9549W        W81974  35.509  37.524   3.091
 9550W        W81975  41.303   8.674   0.349
 9551W        W81976  33.755  33.179   0.926
 9552W        W81977   0.988  12.759   2.186
 9553W        W81978   7.797  14.985   4.689
 9554W        W81979   9.847   6.610  13.039
 9555W        W81980  27.259  31.050   5.399
 9556W        W81981  18.538   6.289  10.592
 9557W        W81982  14.667  34.727   2.895
 9558W        W81983  14.159  32.184   2.495
 9559W        W81984  30.891  43.405   4.118
 9560W        W81985  12.138  17.351   1.981
 9561W        W81986  22.268   4.346  11.431
 9562W        W81987  33.601  44.754   0.446
 9563W        W81988   5.744  16.779  12.335
 9564W        W81989   2.499  36.915   4.091
 9565W        W81990  26.080  44.801  14.084
 9566W        W81991  21.044  35.916  11.068
 9567W        W81992  21.450  41.006   2.739
 9568W        W81993   0.033  41.072  12.385
 9569W        W81994  18.592  11.434  12.482
 9570W        W81995   3.165  19.558  12.403
 9571W        W81996  40.585  19.047  11.298
 9572W        W81997  30.001  40.925  13.532
 9573W        W81998  37.408  13.244   0.947
 9574W        W81999  38.637  17.062  14.311
 9575W        W82000  18.207  20.675  10.564
 9576W        W82001  11.585  29.650   4.686
 9577W        W82002  43.320  18.113  12.089
 9578W        W82003   3.525  43.046   1.008
 9579W        W82004  17.778  20.473   3.210
 9580W        W82005  41.860  39.672   3.655
 9581W        W82006  43.438   5.105  11.001
 9582W        W82007   9.481  30.496   4.141
 9583W        W82008  25.113  32.006   0.755
 9584W        W82009  21.269  29.343  14.822
 9585W        W82010   4.468  12.121  11.096
 9586W        W82011  31.298  37.959   4.120
 9587W        W82012  36.034  19.540   3.809
 9588W        W82013   2.177   5.470  12.951
 9589W        W82014  39.923   8.777   0.457
 9590W        W82015  33.315  15.562   1.748
 9591W        W82016  38.812  27.996  10.648
 9592W        W82017  43.780  42.768  13.767
 9593W        W82018  40.117  17.711   0.175
 9594W        W82019   7.840  32.417   2.663
 9595W        W82020  42.564  22.696  12.856
 9596W        W82021  40.542  42.215  14.323
 9597W        W82022  19.933   2.354  12.012
 9598W        W82023   3.272  12.420   1.449
 9599W        W82024  27.739  41.422  12.962
 9600W        W82025  12.409  23.185  10.257
 9601W        W82026  21.860  35.424   1.998
 9602W        W82027  26.508  42.891   4.586
 9603W        W82028  15.249  27.130   3.668
 9604W        W82029  31.879  17.158  11.696
 9605W        W82030  28.335  28.086  14.980
 9606W        W82031   6.827  42.560  12.474
 9607W        W82032  22.094   8.558  11.655
 9608W        W82033  33.965  32.379   0.416
 9609W        W82034  27.706  30.510  14.811
 9610W        W82035  37.133   3.801   2.837
 9611W        W82036  26.187  27.440  14.631
 9612W        W82037  38.543  39.872   1.424
 9613W        W82038  24.298  18.985   2.250
 9614W        W82039  23.108  12.766   2.725
 9615W        W82040   4.691  11.630   2.688
 9616W        W82041   4.331  40.599   0.395
 9617W        W82042  14.117  41.567  10.969
 9618W        W82043  23.897  19.729  12.149
 9619W        W82044  31.847  25.014  11.428
 9620W        W82045  24.555  39.021  10.887
 9621W        W82046  14.742  22.567  11.970
 9622W        W82047  13.645  39.425  11.163
 9623W        W82048  29.466   9.677  12.514
 9624W        W82049  10.790  29.894   0.711
 9625W        W82050  38.919   7.901  10.059
 9626W        W82051  39.336  17.169  10.766
 9627W        W82052   4.646  33.400   9.858
 9628W        W82053  37.091  17.325   1.511
 9629W        W82054   5.332  16.657  13.630
 9630W        W82055  10.844  10.887  14.009
 9631W        W82056  40.702  29.978  12.859
 9632W        W82057  21.209   6.273   4.615
 9633W        W82058  33.366  12.638  12.882
 9634W        W82059  41.225  38.879   2.324
 9635W        W82060  19.238  37.861   3.305
 9636W        W82061  20.013  39.829  11.613
 9637W        W82062  44.152  42.566   1.865
 9638W        W82063  29.552  28.515   2.807
 9639W        W82064  21.138  14.037   1.687
 9640W        W82065  10.800  21.545  13.503
 9641W        W82066  23.096  36.748   2.429
 9642W        W82067  24.037   1.035  11.102
 9643W        W82068   3.288  15.837  11.941
 9644W        W82069  16.569  39.977   2.811
 9645W        W82070  12.859  37.917   0.316
 9646W        W82071   7.684  18.460  10.081
 9647W        W82072  14.114   8.095   0.173
 9648W        W82073   5.089  40.368   1.115
 9649W        W82074  18.504  25.591  13.374
 9650W        W82075   3.769  32.562   1.389
 9651W        W82076  44.754  16.175   3.418
 9652W        W82077  35.679  27.657  11.420
 9653W        W82078   1.308   2.355  12.318
 9654W        W82079  16.712  16.356   1.732
 9655W        W82080  35.393  32.085   4.407
 9656W        W82081  13.965  18.851   3.026
 9657W        W82082  26.318   1.468   4.924
 9658W        W82083   2.485  14.672   1.763
 9659W        W82084  32.656  42.985   3.722
 9660W        W82085  38.136  11.970   2.600
 9661W        W82086  22.221  32.993   3.206
 9662W        W82087  34.973   0.212  13.882
 9663W        W82088  29.658  22.707   3.310
 9664W        W82089  29.525   9.117  13.406
 9665W        W82090  24.130  38.997   4.606
 9666W        W82091  39.391  25.105   2.387
 9667W        W82092  17.709  21.011  11.817
 9668W        W82093  37.377   1.267  10.752
 9669W        W82094  21.250  21.456   0.809
 9670W        W82095  12.820  39.279   1.877
 9671W        W82096  38.892  14.779  12.085
 9672W        W82097  40.761  30.157   3.236
 9673W        W82098  35.435  33.006   3.449
 9674W        W82099  29.221  29.895  14.975
 9675W        W82100  35.856   8.642  10.121
 9676W        W82101  37.987   3.870   4.752
 9677W        W82102  16.750  23.750   3.247
 9678W        W82103  30.449  33.841  11.157
 9679W        W82104  24.831  16.667  11.673
 9680W        W82105  12.811   5.223   4.793
 9681W        W82106  15.206  25.047  13.510
 9682W        W82107  37.593  14.625  11.639
 9683W        W82108  11.816  29.907   3.908
 9684W        W82109  25.844   2.384  12.467
 9685W        W82110  17.511  13.998  12.579
 9686W        W82111  44.908  15.101   1.995
 9687W        W82112  18.301  25.277   2.794
 9688W        W82113  36.944  22.818   0.171
 9689W        W82114  38.397  14.548  11.759
 9690W        W82115  28.045  17.538  10.604
 9691W        W82116   1.207  22.131  12.335
 9692W        W82117  26.253   1.627   3.078
 9693W        W82118  19.898   8.416   2.489
 9694W        W82119   8.394  41.874   2.431
 9695W        W82120  19.021  25.692   4.163
 9696W        W82121  38.052   6.091   2.413
 9697W        W82122  11.349  23.031   4.241
 9698W        W82123  29.073  21.180  11.828
 9699W        W82124  25.852  15.198   0.869
 9700W        W82125   5.643  32.880  11.606
 9701W        W82126  23.967  30.494   3.592
 9702W        W82127  24.221   7.673   3.494
 9703W        W82128  21.001  27.522   3.838
 9704W        W82129  16.245   9.333   2.960
 9705W        W82130   3.838  38.500   0.397
 9706W        W82131  32.679   6.301   0.762
 9707W        W82132  25.254  18.817   2.375
 9708W        W82133  32.953  26.338   3.699
 9709W        W82134  34.060  44.991  11.665
 9710W        W82135  32.994  42.369  13.543
 9711W        W82136   1.814   4.785   2.145
 9712W        W82137  44.398  34.347  13.509
 9713W        W82138  14.609  41.540  10.221
 9714W        W82139  38.397  41.943  13.594
 9715W        W82140  13.628  26.121  12.523
 9716W        W82141  28.145  30.967  10.073
 9717W        W82142  28.288  23.852   1.768
 9718W        W82143  23.243  31.544   5.102
 9719W        W82144   8.837   5.007  12.753
 9720W        W82145   9.473  34.400  13.373
 9721W        W82146  15.559  30.332   3.323
 9722W        W82147  28.072   5.383  12.205
 9723W        W82148  36.835  27.482   3.177
 9724W        W82149  18.136  41.080  13.559
 9725W        W82150  23.061  27.920   0.140
 9726W        W82151   7.908  19.864   2.309
 9727W        W82152   1.936  41.851  13.773
 9728W        W82153  40.252   0.228  12.835
 9729W        W82154  26.983  16.458   0.359
 9730W        W82155  12.758   4.865   1.845
 9731W        W82156  20.925  29.911  11.308
 9732W        W82157  39.013  42.958  10.057
 9733W        W82158  32.621   5.908  11.163
 9734W        W82159  18.723  34.818   1.877
 9735W        W82160  27.722  39.708   5.459
 9736W        W82161  20.716  18.440  14.530
 9737W        W82162  20.902  14.682  12.610
 9738W        W82163  33.936  17.971  11.054
 9739W        W82164  11.594  12.202   4.181
 9740W        W82165  12.384   7.910  11.501
 9741W        W82166  44.981  37.793  13.444
 9742W        W82167  20.212  39.339   2.019
 9743W        W82168  24.048   7.939   2.346
 9744W        W82169  39.368   3.348   2.863
 9745W        W82170  30.580   2.769   1.045
 9746W        W82171  34.619  37.821   1.739
 9747W        W82172  19.784  32.995  12.498
 9748W        W82173  40.080  36.488  13.330
 9749W        W82174  41.619   5.619   0.559
 9750W        W82175  12.745   3.988   1.876
 9751W        W82176  26.679  42.098  14.960
 9752W        W82177  29.933  29.007  13.053
 9753W        W82178   4.463   9.720  14.445
 9754W        W82179   6.889  30.087   3.881
 9755W        W82180   2.415  20.772   2.441
 9756W        W82181  13.148  39.375  10.942
 9757W        W82182   9.315  35.945  12.592
 9758W        W82183   6.429   2.281   4.703
 9759W        W82184   2.250  27.695  12.047
 9760W        W82185  39.086  30.962  12.548
 9761W        W82186  19.818  19.449   3.164
 9762W        W82187  27.204   8.172   0.859
 9763W        W82188  28.169  23.080  11.441
 9764W        W82189  13.803   4.419  12.490
 9765W        W82190  34.513  30.907  13.439
 9766W        W82191  29.459   8.893   1.768
 9767W        W82192  42.313   6.841   0.698
 9768W        W82193  13.580   0.942  13.586
 9769W        W82194  25.664  12.311   4.576
 9770W        W82195  15.166  42.025   4.419
 9771W        W82196  28.176   5.150  14.916
 9772W        W82197  13.397  27.197  12.876
 9773W        W82198  30.886   9.797   2.575
 9774W        W82199  13.606  44.500  14.509
 9775W        W82200  25.127  41.998   2.289
 9776W        W82201  31.519  32.711   1.362
 9777W        W82202  21.863  16.814   0.891
 9778W        W82203   7.318  31.104  14.995
 9779W        W82204  40.691  39.176   4.080
 9780W        W82205  36.507  30.104   2.873
 9781W        W82206  34.416  41.382   3.888
 9782W        W82207  44.189   0.292   2.142
 9783W        W82208   1.099   0.366  11.535
 9784W        W82209  44.741  34.659  12.627
 9785W        W82210  33.288  32.096  11.191
 9786W        W82211  15.560   1.126  14.043
 9787W        W82212  34.799   1.888  13.885
 9788W        W82213  19.591  29.399  14.311
 9789W        W82214  11.365  16.264   0.301
 9790W        W82215  34.991  18.079  11.665
 9791W        W82216  31.496   1.532   4.418
 9792W        W82217  32.692  24.652  11.997
 9793W        W82218  38.266  21.055   4.727
 9794W        W82219  25.092  14.577   4.421
 9795W        W82220  39.197  15.731   1.878
 9796W        W82221  37.825  31.008   4.567
 9797W        W82222  27.613  30.603   1.649
 9798W        W82223  12.279  31.865   2.668
 9799W        W82224   3.638  31.438   4.263
 9800W        W82225  37.452  34.960  13.371
 9801W        W82226   5.338  32.097  11.559
 9802W        W82227  11.344  20.200   4.693
 9803W        W82228  38.357   4.974  11.957
 9804W        W82229  29.139  16.569   4.274
 9805W        W82230  12.541  38.134   0.952
 9806W        W82231  29.186  17.624   4.094
 9807W        W82232  32.377  15.025   0.463
 9808W        W82233   4.778  42.091   4.724
 9809W        W82234  33.947  33.520  10.564
 9810W        W82235   7.310   1.035   1.852
 9811W        W82236  27.588  31.410  10.620
 9812W        W82237   5.744  24.157  13.397
 9813W        W82238   6.340   4.237   4.750
 9814W        W82239  13.238  20.566  13.083
 9815W        W82240  43.813  34.308  14.915
 9816W        W82241  29.197   9.913   1.773
 9817W        W82242  26.000  10.790   3.143
 9818W        W82243  16.712  16.056  13.542
 9819W        W82244  32.381  10.361   1.348
 9820W        W82245  35.030  26.882  10.644
 9821W        W82246  39.567  21.763   4.524
 9822W        W82247  17.005  25.254  12.424
 9823W        W82248  28.641   4.882   2.279
 9824W        W82249  41.518  32.389   1.378
 9825W        W82250   4.083   8.382  10.582
 9826W        W82251   1.261   7.112   0.495
 9827W        W82252  10.249  27.051  12.153
 9828W        W82253   8.400  28.668  12.499
 9829W        W82254  39.491   5.536  11.833
 9830W        W82255   0.937  27.168  10.330
 9831W        W82256   4.137  19.762   2.859
 9832W        W82257  14.145  42.544  11.174
 9833W        W82258  22.775  35.909  11.661
 9834W        W82259  42.214  34.569   2.617
 9835W        W82260  30.625  29.205   0.380
 9836W        W82261  25.228   0.284  14.041
 9837W        W82262  42.422  42.973   0.899
 9838W        W82263  11.010   4.820  13.954
 9839W        W82264  23.229  35.975   3.640
 9840W        W82265   4.694  34.420   3.804
 9841W        W82266  40.075  28.584  11.471
 9842W        W82267  30.151  40.933   2.030
 9843W        W82268  15.431  39.939   4.441
 9844W        W82269  39.823  41.490   2.669
 9845W        W82270  14.154  31.174  14.766
 9846W        W82271   8.096  11.321   9.928
 9847W        W82272  41.945  31.606  14.234
 9848W        W82273  13.564  32.867  12.468
 9849W        W82274  34.870  32.326   0.450
 9850W        W82275  20.084  14.127  11.657
 9851W        W82276   2.721   0.901   3.650
 9852W        W82277  17.985  36.501   3.409
 9853W        W82278  29.179  34.910   2.097
 9854W        W82279  20.584  43.311   0.470
 9855W        W82280   1.635  11.123   1.629
 9856W        W82281  39.315  28.159  12.539
 9857W        W82282  12.735  33.977  11.207
 9858W        W82283   7.419  28.126  11.839
 9859W        W82284  23.331  18.658  11.472
 9860W        W82285  17.413  38.031   4.138
 9861W        W82286  28.144  38.900  12.359
 9862W        W82287  37.994  20.401  11.684
 9863W        W82288  36.423  31.131   2.769
 9864W        W82289  43.203   5.227  13.081
 9865W        W82290  32.514  36.375  12.902
 9866W        W82291  27.216  11.381  11.426
 9867W        W82292  41.843  30.574  14.656
 9868W        W82293  15.318  19.414   0.723
 9869W        W82294  36.313  17.655  14.517
 9870W        W82295  26.179  35.101  14.885
 9871W        W82296  28.469  14.793   4.361
 9872W        W82297   0.838   3.505   0.353
 9873W        W82298   0.283  42.583  11.910
 9874W        W82299  37.592   1.384  13.476
 9875W        W82300  23.948  15.767   2.675
 9876W        W82301  28.612  14.384   4.669
 9877W        W82302  38.023   7.466  14.456
 9878W        W82303  13.320  23.135  12.666
 9879W        W82304  41.275  26.598   3.186
 9880W        W82305   5.950   2.355  14.093
 9881W        W82306  14.360  25.833  13.487
 9882W        W82307  23.969  32.115   4.105
 9883W        W82308  25.120  15.288  11.922
 9884W        W82309  12.897  23.156  12.386
 9885W        W82310  10.825   1.628   3.357
 9886W        W82311  38.865  10.171   2.301
 9887W        W82312  17.251   5.301  12.196
 9888W        W82313   2.121  17.724   3.745
 9889W        W82314   1.379   4.390  11.906
 9890W        W82315  11.186  38.593   3.523
 9891W        W82316  41.063  40.354  11.544
 9892W        W82317  31.875   2.254   2.196
 9893W        W82318  26.046  19.074  11.136
 9894W        W82319  24.872  32.066  14.763
 9895W        W82320  24.751  40.308  11.122
 9896W        W82321  20.587   1.079  13.478
 9897W        W82322   9.835  23.285   1.367
 9898W        W82323  26.215  42.156   2.174
 9899W        W82324  31.548   6.658  12.590
 9900W        W82325  15.718  26.122  12.301
 9901W        W82326  27.080   9.538  13.265
 9902W        W82327  14.643  33.571   5.178
 9903W        W82328  23.236  34.567   1.496
 9904W        W82329  44.480  36.053   2.873
 9905W        W82330   7.584  17.513   1.701
 9906W        W82331  30.705   3.330   0.000
 9907W        W82332   6.975  19.216  12.051
 9908W        W82333  16.059  17.524   1.456
 9909W        W82334  26.217  44.692  11.354
 9910W        W82335  12.193  17.809   0.742
 9911W        W82336  12.411   0.848   3.701
 9912W        W82337  38.652  28.173   4.605
 9913W        W82338  33.385  40.077  13.855
 9914W        W82339  35.506  42.593   3.324
 9915W        W82340   2.709  29.728  11.499
 9916W        W82341  15.546  25.537  10.647
 9917W        W82342   7.441  10.689  11.197
 9918W        W82343  21.691  32.191  11.061
 9919W        W82344  22.763  19.586   4.742
 9920W        W82345  40.855  11.873   0.579
 9921W        W82346  17.053   0.352  14.925
 9922W        W82347  35.336  43.679  13.083
 9923W        W82348  34.463  15.532  10.854
 9924W        W82349   6.583  43.909   0.150
 9925W        W82350   9.960  35.532   1.779
 9926W        W82351  33.438  42.920  11.534
 9927W        W82352   7.359  29.035   4.229
 9928W        W82353  15.343  42.258  12.538
 9929W        W82354   1.952  17.383  13.909
 9930W        W82355  30.680  42.933   4.151
 9931W        W82356   3.463  43.098  12.679
 9932W        W82357  35.707  13.186   0.878
 9933W        W82358  29.430  18.013  10.067
 9934W        W82359   9.253  15.623   4.281
 9935W        W82360  21.840   4.916   1.906
 9936W        W82361  31.566  13.887   0.271
 9937W        W82362  40.070   9.702   0.927
 9938W        W82363  31.820  11.913   0.932
 9939W        W82364  37.925  23.659   0.943
 9940W        W82365  44.257  30.898   4.694
 9941W        W82366   9.650  28.222   2.390
 9942W        W82367  33.043  10.097  14.833
 9943W        W82368  32.059  39.767   0.437
 9944W        W82369  15.382  15.233   3.173
 9945W        W82370  23.390   4.289  14.940
 9946W        W82371  30.393   6.671   2.833
 9947W        W82372  10.813  10.436   1.899
 9948W        W82373  15.768   6.329   3.780
 9949W        W82374  25.028  23.771   1.509
 9950W        W82375   3.725  22.717   4.495
 9951W        W82376  21.341  29.141   2.334
 9952W        W82377  25.363  16.706   3.104
 9953W        W82378  39.563  20.501  11.576
 9954W        W82379  12.315  16.160   3.984
 9955W        W82380   9.186  12.729  11.663
 9956W        W82381   2.748  31.641  12.399
 9957W        W82382  21.875   0.156   4.533
 9958W        W82383  22.733  24.135   1.334
 9959W        W82384  13.003  36.796   4.751
 9960W        W82385  21.659  42.025   2.749
 9961W        W82386   7.241   3.993  10.772
 9962W        W82387  38.026  15.660   3.308
 9963W        W82388   7.959  17.297   4.670
 9964W        W82389  44.044   9.223  12.935
 9965W        W82390  40.247  33.331  14.077
 9966W        W82391   2.027  18.682   3.260
 9967W        W82392  29.782  44.840  13.455
 9968W        W82393   3.687   2.671  14.125
 9969W        W82394  36.964   4.576  12.843
 9970W        W82395  19.823  36.478   1.332
 9971W        W82396  34.853  39.932  13.002
 9972W        W82397   0.166  33.537  11.363
 9973W        W82398  18.234  28.237   4.653
 9974W        W82399  37.415  30.305   4.267
 9975W        W82400  43.410  19.783   2.354
 9976W        W82401  12.826   0.768   3.361
 9977W        W82402  11.211   4.784  12.998
 9978W        W82403  39.137  32.900   2.837
 9979W        W82404  13.058  36.919   4.252
 9980W        W82405  25.168  28.725  13.990
 9981W        W82406  32.280  22.657   4.698
 9982W        W82407  26.128  19.593   4.117
 9983W        W82408  32.877  31.303  14.535
 9984W        W82409  31.511  37.009  12.986
 9985W        W82410   0.217  19.240   0.304
 9986W        W82411  25.419  29.194   1.229
 9987W        W82412  32.135  31.818   4.237
 9988W        W82413   2.730  12.184   4.171
 9989W        W82414  34.227  22.622  11.034
 9990W        W82415  30.023  25.436  13.091
 9991W        W82416  28.038  35.917   4.166
 9992W        W82417   6.412   5.949  14.979
 9993W        W82418  10.818  17.530   4.123
 9994W        W82419   9.802  20.983   0.926
 9995W        W82420  29.580  34.573   2.003
 9996W        W82421  37.650   1.438  14.498
 9997W        W82422   8.380  16.830  10.515
 9998W        W82423  25.918   2.305   3.820
 9999W        W82424   5.136  34.687   3.256
10000W        W82425  26.439  19.501  12.498
10001W        W82426  40.866  39.397  11.589
10002W        W82427  11.808   1.999  13.426
10003W        W82428  42.300  34.520   1.817
10004W        W82429  42.900   6.639   3.687
10005W        W82430  12.403  37.613  13.375
10006W        W82431  44.309  25.694   2.178
10007W        W82432  10.849  17.670  14.560
10008W        W82433   7.964  25.356  14.050
10009W        W82434  14.931   2.849  14.444
10010W        W82435  19.079  33.943  11.896
10011W        W82436  26.129   7.239  12.616
10012W        W82437  24.786   2.579  13.096
10013W        W82438  17.555   8.200  12.190
10014W        W82439   7.780  35.448   0.948
10015W        W82440   7.115  32.879  11.474
10016W        W82441  18.233  24.671  10.723
10017W        W82442  39.432  33.470  14.728
10018W        W82443  44.445  25.590   0.165
10019W        W82444  30.038  38.774   3.649
10020W        W82445  34.564  20.096  12.086
10021W        W82446  22.191   9.032  14.343
10022W        W82447   7.135  39.169  13.506
10023W        W82448  32.299   8.258   0.870
10024W        W82449  27.250  23.710  10.272
10025W        W82450  13.271  20.082  12.862
10026W        W82451  24.691  18.323   3.689
10027W        W82452  18.683  44.855  14.695
10028W        W82453  43.575   8.406   4.368
10029W        W82454  13.601  21.956  14.870
10030W        W82455  44.506   3.406  10.641
10031W        W82456  29.826  15.695  10.341
10032W        W82457  40.348   3.240   2.624
10033W        W82458  33.543  24.596   0.282
10034W        W82459   4.992  22.732   2.134
10035W        W82460  11.253  19.323   4.587
10036W        W82461  32.989  44.228  11.996
10037W        W82462  44.091   8.230  12.004
10038W        W82463  14.593   3.500  14.939
10039W        W82464  43.387  23.273   1.477
10040W        W82465   4.912   7.846  10.611
10041W        W82466  43.344  35.705   3.189
10042W        W82467  20.071  41.698   1.760
10043W        W82468  42.712  33.358   0.117
10044W        W82469  27.604  38.326  13.537
10045W        W82470  18.395  24.145  12.388
10046W        W82471   2.758  26.292  14.336
10047W        W82472  17.510  43.291  10.544
10048W        W82473   4.408  33.063  14.808
10049W        W82474  14.177   7.719  13.793
10050W        W82475  27.093  39.548   2.190
10051W        W82476  37.110  17.416  12.463
10052W        W82477   3.434  12.635   0.479
10053W        W82478  34.867  14.322   3.594
10054W        W82479  12.775  21.202  10.498
10055W        W82480  43.315  41.033  14.718
10056W        W82481  17.207  44.984  14.207
10057W        W82482   3.952  18.611  14.396
10058W        W82483   7.114  29.131   4.689
10059W        W82484  36.926  37.559   3.245
10060W        W82485  42.499   4.372   0.995
10061W        W82486  39.018  24.414   0.303
10062W        W82487   2.377  18.192  12.939
10063W        W82488  30.649  28.916  12.086
10064W        W82489  32.637  42.230   3.099
10065W        W82490  10.097  21.069   2.932
10066W        W82491  33.549  36.919   0.730
10067W        W82492   3.982  38.568  11.167
10068W        W82493   1.980  14.790   1.828
10069W        W82494  20.685  11.684   5.403
10070W        W82495  18.770   6.851  12.405
10071W        W82496   8.271  12.544  13.389
10072W        W82497  14.625  25.440  13.279
10073W        W82498  11.701  34.962   4.546
10074W        W82499   3.660  14.579   4.526
10075W        W82500  37.501  41.546   3.329
10076W        W82501  34.140  31.513  12.354
10077W        W82502  30.010  33.643  12.574
10078W        W82503  12.291  24.591  11.036
10079W        W82504   1.586  30.864  12.027
10080W        W82505  31.194  38.602  14.449
10081W        W82506  12.883  26.136  11.307
10082W        W82507   2.997   3.222  11.605
10083W        W82508  34.509   7.854  11.527
10084W        W82509  11.396  33.948  11.345
10085W        W82510  17.393   5.099   1.727
10086W        W82511   6.422  32.199  14.410
10087W        W82512  23.517  44.990   4.312
10088W        W82513  34.573  29.688   1.472
10089W        W82514  18.875  14.604  13.612
10090W        W82515  25.512  33.902  13.812
10091W        W82516  17.337  34.205   5.023
10092W        W82517  24.933  16.419   0.799
10093W        W82518  17.035  16.347  13.850
10094W        W82519  24.142   0.000  10.232
10095W        W82520  16.521  18.004  11.170
10096W        W82521   4.698  32.674  10.529
10097W        W82522  28.939  42.882  13.080
10098W        W82523   0.952  16.330  12.845
10099W        W82524  20.541  28.602  10.634
10100W        W82525   4.911  16.272   0.335
10101W        W82526   0.476  31.906   9.771
10102W        W82527   7.637  17.036   0.945
10103W        W82528   6.411  14.343  13.528
10104W        W82529  30.572  23.453   1.653
10105W        W82530  44.448   2.037   2.201
10106W        W82531  11.329   6.949  11.978
10107W        W82532  11.881   7.209  14.871
10108W        W82533  19.104  31.262  12.973
10109W        W82534  25.800  38.218   0.194
10110W        W82535  26.682  10.306   1.494
10111W        W82536  26.445  38.887  10.679
10112W        W82537  21.629  31.162  11.946
10113W        W82538  39.006  12.148   0.946
10114W        W82539  29.640  36.830  12.319
10115W        W82540  26.001  11.633   0.873
10116W        W82541  26.218   0.906   2.158
10117W        W82542   6.647  14.773  13.366
10118W        W82543  30.940  43.466  12.476
10119W        W82544  33.100  36.955  10.938
10120W        W82545  12.610  35.563  13.160
10121W        W82546  26.398  32.808   3.792
10122W        W82547   9.749   0.510   1.875
10123W        W82548   4.941  30.666  10.694
10124W        W82549   0.799   8.199  14.939
10125W        W82550  35.529  21.312   0.333
10126W        W82551   2.858  16.561  13.275
10127W        W82552  24.976  21.059  13.441
10128W        W82553  42.141   4.342  14.988
10129W        W82554  35.502  16.137  10.676
10130W        W82555   8.254  24.206   5.052
10131W        W82556   7.311  22.353   3.709
10132W        W82557  28.833  34.562  12.430
10133W        W82558  35.839  21.156   0.710
10134W        W82559  15.896  44.820  14.343
10135W        W82560   3.020  25.114  13.898
10136W        W82561   6.319  12.743  10.347
10137W        W82562  11.582  44.988  14.689
10138W        W82563  21.071  41.923   4.510
10139W        W82564  19.979   1.840  12.453
10140W        W82565  10.870  21.017   1.671
10141W        W82566  16.296  33.627  12.424
10142W        W82567  36.771  18.542   2.488
10143W        W82568  26.001   6.327  10.425
10144W        W82569   7.127  15.959  13.941
10145W        W82570  15.217  40.486   3.202
10146W        W82571   1.902  27.216  11.586
10147W        W82572   5.175  37.967  13.734
10148W        W82573  36.916  40.566   4.696
10149W        W82574  29.864  41.989   5.102
10150W        W82575  34.522  16.700  14.983
10151W        W82576  17.992  43.876  11.638
10152W        W82577  42.726   8.613  11.147
10153W        W82578   0.349  27.644  11.101
10154W        W82579  18.034   6.917   2.051
10155W        W82580  13.938   0.525   1.383
10156W        W82581  22.621  44.186   3.143
10157W        W82582   3.705  34.674   3.318
10158W        W82583  15.776  18.593  14.644
10159W        W82584  10.222  31.494  14.889
10160W        W82585  10.328   3.439  10.331
10161W        W82586  29.458  44.470   4.133
10162W        W82587  30.932  15.030  12.276
10163W        W82588   6.339  12.273   1.782
10164W        W82589  30.201  22.197   1.856
10165W        W82590  21.100  36.987  13.635
10166W        W82591  29.737  26.577   3.651
10167W        W82592  11.311  10.673  14.060
10168W        W82593  25.033  18.629   1.461
10169W        W82594  25.509  43.503  14.823
10170W        W82595   6.352  13.845   3.607
10171W        W82596  37.000   2.904  10.956
10172W        W82597   3.604  11.598   4.211
10173W        W82598  43.990  13.165  13.069
10174W        W82599  12.663   7.925   0.699
10175W        W82600  28.376  19.422  11.596
10176W        W82601  22.235  41.993   2.264
10177W        W82602  30.019  10.333   3.297
10178W        W82603  17.715   4.568   2.410
10179W        W82604  17.148  26.995  11.712
10180W        W82605  20.772  18.242   1.362
10181W        W82606  40.371   0.564   4.110
10182W        W82607  14.872  36.239   2.212
10183W        W82608  38.595  10.624   2.401
10184W        W82609   3.709   3.972   4.220
10185W        W82610  37.986   6.614   2.295
10186W        W82611  28.189   3.245   4.197
10187W        W82612  39.426  17.546  11.128
10188W        W82613  40.418  26.915  14.446
10189W        W82614  33.370  30.168   1.802
10190W        W82615  13.227  44.850  14.377
10191W        W82616  35.948  16.403  12.468
10192W        W82617  37.783  35.871   1.878
10193W        W82618  41.949  20.973   1.474
10194W        W82619  19.236   9.187   1.327
10195W        W82620  43.411  21.332   1.753
10196W        W82621  42.376  25.884  14.977
10197W        W82622  40.536  14.702  14.813
10198W        W82623   6.183  12.618  11.392
10199W        W82624  33.469  14.360  14.499
10200W        W82625  44.976  41.632  13.919
10201W        W82626  17.141  14.490  10.674
10202W        W82627  29.380   0.446  10.441
10203W        W82628   1.396  31.198   4.438
10204W        W82629  13.477  23.138   1.381
10205W        W82630  25.517  11.771  12.987
10206W        W82631  28.841  16.397  10.828
10207W        W82632  18.260  40.426   0.066
10208W        W82633  22.058  15.482   3.890
10209W        W82634  44.509  32.480  13.794
10210W        W82635  24.069  20.454   1.441
10211W        W82636   8.805  10.943   1.970
10212W        W82637  28.878  28.224   1.318
10213W        W82638  32.665  12.324  13.805
10214W        W82639  25.469   6.113   3.236
10215W        W82640  44.898  25.099  12.834
10216W        W82641  44.555  10.233  12.306
10217W        W82642  12.154  27.552   3.899
10218W        W82643  21.825   3.816  10.739
10219W        W82644  19.309  37.396   1.285
10220W        W82645   0.889  28.489   0.276
10221W        W82646  41.048   2.681  14.831
10222W        W82647  19.057  30.592  14.386
10223W        W82648  19.245  40.078   1.690
10224W        W82649  24.095  36.823  14.267
10225W        W82650  34.036  14.722   1.879
10226W        W82651   7.075  29.513   4.319
10227W        W82652  18.233  18.052   4.292
10228W        W82653  21.128  18.744  14.404
10229W        W82654  16.052  25.218   1.907
10230W        W82655  11.367   2.530  11.063
10231W        W82656  42.319  25.892   4.176
10232W        W82657  20.055  41.531  12.609
10233W        W82658  30.882   7.451   3.775
10234W        W82659   7.424  43.518  13.028
10235W        W82660  10.189   9.703  10.797
10236W        W82661  30.162  32.333   0.832
10237W        W82662  34.140  26.568  12.007
10238W        W82663  24.685  16.989  12.896
10239W        W82664   0.560  28.441  14.320
10240W        W82665  38.883  12.741  10.685
10241W        W82666   6.665  43.988   1.620
10242W        W82667  22.087  22.506  12.681
10243W        W82668  28.567  33.935  13.495
10244W        W82669  38.510  15.614   4.091
10245W        W82670  11.010   1.712   0.271
10246W        W82671  18.552  10.678  11.975
10247W        W82672  31.021  18.573   0.369
10248W        W82673  31.420   1.118   0.859
10249W        W82674  42.412  44.213   1.379
10250W        W82675   3.833  38.218  13.591
10251W        W82676  23.280   4.280   3.398
10252W        W82677  19.195  40.935   2.316
10253W        W82678  22.609  39.599  12.637
10254W        W82679  29.648   0.058   3.225
10255W        W82680   7.096  33.905  11.527
10256W        W82681  41.057  27.983   3.216
10257W        W82682  17.839   1.555  12.135
10258W        W82683  34.879  41.382  12.075
10259W        W82684  18.601   5.538  13.809
10260W        W82685  18.541  19.913  12.891
10261W        W82686  25.743   7.460   4.634
10262W        W82687  43.961  24.719  11.565
10263W        W82688  40.330  22.533  12.180
10264W        W82689  42.086  14.409  11.131
10265W        W82690   0.048  17.780   1.436
10266W        W82691  30.943  29.682  12.325
10267W        W82692  27.071  17.318  12.144
10268W        W82693  13.690   8.808  11.694
10269W        W82694  26.628  21.184   2.320
10270W        W82695  42.150  28.153  12.116
10271W        W82696  33.208  22.180  11.482
10272W        W82697  31.420  41.430  13.420
10273W        W82698  34.228   4.643   2.672
10274W        W82699   6.711  24.253   0.085
10275W        W82700  23.229  15.201  14.450
10276W        W82701   3.635  37.276   3.328
10277W        W82702  43.561  27.740   2.694
10278W        W82703  13.438  30.545   0.866
10279W        W82704  23.430   1.503  13.468
10280W        W82705   2.506   6.491  13.094
10281W        W82706  15.173   3.309  14.337
10282W        W82707   4.340  29.165  12.137
10283W        W82708  33.505  42.188  11.008
10284W        W82709  27.634  12.772   1.639
10285W        W82710  44.881   2.377   1.875
10286W        W82711  23.813  40.192   4.112
10287W        W82712  19.745   1.987   2.437
10288W        W82713  17.126  44.086   2.704
10289W        W82714  28.425  31.010   1.723
10290W        W82715   5.764  16.875   2.742
10291W        W82716  33.951  23.479   1.704
10292W        W82717  37.982  39.987  13.473
10293W        W82718  42.440  20.854   2.660
10294W        W82719  34.948  18.654  12.450
10295W        W82720  40.943  27.111   2.329
10296W        W82721  36.992  28.196  10.983
10297W        W82722   7.555  36.091  12.050
10298W        W82723  27.747  16.231   1.253
10299W        W82724  43.558  18.425  13.068
10300W        W82725  44.401   1.804  11.414
10301W        W82726  25.142   9.992   3.239
10302W        W82727   9.631   9.781   2.996
10303W        W82728  20.612   0.032   2.190
10304W        W82729  11.667  35.796  11.411
10305W        W82730  32.313  11.839  12.747
10306W        W82731   2.534  30.629   3.710
10307W        W82732   5.955  25.186  13.444
10308W        W82733   9.501   7.723   2.294
10309W        W82734  28.667  43.932  13.579
10310W        W82735  44.414  17.016  14.562
10311W        W82736  19.034   6.286  14.334
10312W        W82737  28.948  24.791   4.237
10313W        W82738  28.885   2.509  14.448
10314W        W82739  41.839  27.338   2.933
10315W        W82740   0.628  19.689   3.682
10316W        W82741   2.057  10.890  11.920
10317W        W82742  31.402  40.061   4.259
10318W        W82743  27.077  37.369  10.866
10319W        W82744   4.966  31.838   1.814
10320W        W82745   7.847   5.372   4.332
10321W        W82746  31.426  33.199  11.642
10322W        W82747  25.502  19.007  12.595
10323W        W82748  35.172  42.709   3.713
10324W        W82749   1.759   8.720   0.797
10325W        W82750  23.265  38.817  12.537
10326W        W82751  38.927  34.541   1.375
10327W        W82752  24.766   3.037  13.347
10328W        W82753   7.884  14.934   2.555
10329W        W82754  26.544  10.834  11.453
10330W        W82755  42.537   9.127  11.233
10331W        W82756   4.984   0.531  10.355
10332W        W82757  30.144  17.712  12.847
10333W        W82758  41.429  26.119  13.364
10334W        W82759  29.099  28.019   3.577
10335W        W82760   9.287  19.540  10.698
10336W        W82761  11.357  37.326  14.597
10337W        W82762  35.618  32.577   3.704
10338W        W82763  23.766  25.118   1.863
10339W        W82764  30.140  28.525   0.322
10340W        W82765  15.716  11.176   4.581
10341W        W82766  23.086  28.594   4.426
10342W        W82767  38.095  15.239  10.493
10343W        W82768   6.880  17.613  14.748
10344W        W82769   1.346  35.469   2.890
10345W        W82770  24.628   7.931  14.331
10346W        W82771  27.378  29.284  11.743
10347W        W82772  21.900  37.180  14.945
10348W        W82773  31.881  15.643  14.352
10349W        W82774   6.279  40.908  12.349
10350W        W82775  21.079   5.104   3.522
10351W        W82776  36.643  19.183   4.858
10352W        W82777  23.460  28.990   3.055
10353W        W82778  12.692  30.920   2.569
10354W        W82779   2.263  44.663  11.655
10355W        W82780  41.529   5.180  11.183
10356W        W82781   7.858  37.999  10.931
10357W        W82782  25.030  34.794   0.524
10358W        W82783  23.676  27.425   2.630
10359W        W82784  26.027  39.997  14.292
10360W        W82785  17.708  35.450  10.633
10361W        W82786  41.860  22.081  14.308
10362W        W82787  10.383  36.590  11.408
10363W        W82788   4.220  16.099  13.985
10364W        W82789  14.731  21.347   1.233
10365W        W82790  16.641  33.828   2.208
10366W        W82791  16.348  39.834   3.501
10367W        W82792  43.922  17.650   0.815
10368W        W82793  35.036  24.931   1.355
10369W        W82794  35.434   9.447  14.049
10370W        W82795   5.282  10.398   1.841
10371W        W82796  33.223  26.653   3.335
10372W        W82797  26.203  10.186  12.102
10373W        W82798   6.953  27.902  11.684
10374W        W82799  17.569  13.168  13.929
10375W        W82800  40.328  28.332   1.806
10376W        W82801  32.425  23.289   2.517
10377W        W82802  25.045  27.368   2.310
10378W        W82803   8.879  23.203   2.290
10379W        W82804  32.702   3.859   4.100
10380W        W82805   1.308  13.114  14.369
10381W        W82806  26.600  14.582   4.601
10382W        W82807  40.840  35.890   2.604
10383W        W82808  43.031  36.403   4.535
10384W        W82809  13.859  43.491   4.723
10385W        W82810   8.390   6.162   2.354
10386W        W82811  36.195  36.338   3.235
10387W        W82812  19.405   0.264  11.144
10388W        W82813   6.471  10.134   4.557
10389W        W82814  20.561  19.666  10.931
10390W        W82815  25.739   1.673   4.245
10391W        W82816  19.680  31.145   2.738
10392W        W82817   6.441  31.794  12.078
10393W        W82818   9.108  38.368  13.576
10394W        W82819  36.546  27.736  11.676
10395W        W82820   2.423  41.594   3.235
10396W        W82821  24.325  35.572  13.127
10397W        W82822  13.146   1.762   4.604
10398W        W82823  19.279  13.077  14.783
10399W        W82824  42.906  22.022  14.801
10400W        W82825  39.854   0.940  10.579
10401W        W82826  39.544  34.453   2.048
10402W        W82827  10.887  41.884   4.232
10403W        W82828  14.872  13.792   1.880
10404W        W82829  20.349  12.878  12.588
10405W        W82830  35.158  40.054   3.296
10406W        W82831   1.168  22.640  13.748
10407W        W82832  12.157  17.307   2.487
10408W        W82833  21.782   3.441  11.547
10409W        W82834   1.915   5.406  10.983
10410W        W82835  22.762  20.107  12.454
10411W        W82836   7.303  38.942  14.308
10412W        W82837  38.016  21.367  12.773
10413W        W82838  31.007   1.463  10.655
10414W        W82839  26.696   1.461   3.291
10415W        W82840  40.102  26.169   4.101
10416W        W82841   4.733  37.290  13.382
10417W        W82842   5.182  19.130   2.294
10418W        W82843   2.962  40.065  13.896
10419W        W82844  43.487  23.412  10.658
10420W        W82845  14.575  15.408  12.868
10421W        W82846  31.674  24.744  11.871
10422W        W82847  15.798  30.084  14.233
10423W        W82848  10.975  39.611   0.404
10424W        W82849   2.670  11.889   2.726
10425W        W82850  29.101   8.993   4.515
10426W        W82851   2.354  32.753  12.895
10427W        W82852  11.370  38.304   0.651
10428W        W82853  33.629  21.252  12.985
10429W        W82854  15.203  31.126  13.489
10430W        W82855  17.700  34.559  11.954
10431W        W82856  32.657  21.746   3.602
10432W        W82857  15.616   2.804   1.757
10433W        W82858  38.267  42.374   3.624
10434W        W82859  28.994   1.926  11.573
10435W        W82860   4.509  15.046  11.085
10436W        W82861   6.681  37.649   0.272
10437W        W82862  30.034  12.254  11.789
10438W        W82863  23.431  31.307   3.338
10439W        W82864  16.343  43.523  13.960
10440W        W82865  10.165  29.458   3.254
10441W        W82866  43.379  16.107  12.446
10442W        W82867   1.775  21.750   0.962
10443W        W82868  39.918  37.436  14.411
10444W        W82869   0.574  31.507   0.910
10445W        W82870  26.007  28.560   1.419
10446W        W82871  42.704  38.939  13.747
10447W        W82872   8.316  23.745  11.168
10448W        W82873  28.734  30.472  13.965
10449W        W82874  10.036   9.897  11.278
10450W        W82875  38.985  38.818   0.453
10451W        W82876  31.525   6.119  10.446
10452W        W82877  44.564   2.978   1.303
10453W        W82878  27.213  21.324   1.208
10454W        W82879  38.064  39.287   0.289
10455W        W82880   3.826  38.135   3.395
10456W        W82881  38.393  34.220  11.590
10457W        W82882  20.978  10.188   1.847
10458W        W82883  39.878  42.222   2.166
10459W        W82884  14.806  41.974  13.554
10460W        W82885  10.781   0.887   0.365
10461W        W82886  24.526  33.898  12.931
10462W        W82887  13.610   9.428   2.724
10463W        W82888   4.305   6.644  12.643
10464W        W82889   6.862   7.253   3.895
10465W        W82890  33.592  12.899   1.395
10466W        W82891  13.296  14.098  10.363
10467W        W82892  38.305  16.296  12.067
10468W        W82893   0.242  24.511   3.220
10469W        W82894  32.760   0.285   3.873
10470W        W82895   4.710  22.695  14.064
10471W        W82896  15.806  12.117   4.886
10472W        W82897  17.057  13.998   3.092
10473W        W82898  29.609  16.324   4.298
10474W        W82899  37.507  40.459  12.016
10475W        W82900  42.756  17.030   3.574
10476W        W82901  35.871  12.673   4.720
10477W        W82902  33.481  27.729   1.797
10478W        W82903  15.899  43.797  14.051
10479W        W82904   7.387  42.999   0.762
10480W        W82905  21.490  21.136  12.596
10481W        W82906   0.576  34.026  11.420
10482W        W82907  43.553  21.278  13.326
10483W        W82908  30.317  21.520  13.437
10484W        W82909  15.128  32.901   5.009
10485W        W82910  22.085  32.147   1.846
10486W        W82911  30.089  29.038  10.509
10487W        W82912  20.589  13.704  12.574
10488W        W82913  10.325  20.604  12.439
10489W        W82914  32.601   9.351  12.542
10490W        W82915   6.482  39.282   0.960
10491W        W82916  17.766  12.672  12.539
10492W        W82917  32.470  21.174   1.620
10493W        W82918  21.157  16.441  13.423
10494W        W82919   4.252  27.252  11.558
10495W        W82920  39.014   3.777  11.006
10496W        W82921   5.328  28.252   3.052
10497W        W82922   6.422   5.961  13.038
10498W        W82923  28.624  25.153  13.870
10499W        W82924  22.061  38.769  12.657
10500W        W82925  30.589  17.523  10.698
10501W        W82926   4.161  35.180  14.825
10502W        W82927   3.358  42.454  12.400
10503W        W82928  39.816  32.606  12.029
10504W        W82929  26.735  24.033  14.833
10505W        W82930  16.138  32.532  11.400
10506W        W82931  27.258  22.019  13.943
10507W        W82932  36.017  26.722  13.294
10508W        W82933   4.257   7.206  14.787
10509W        W82934   3.710  19.215  13.592
10510W        W82935   1.171  20.523   1.514
10511W        W82936  24.751  15.977   3.148
10512W        W82937  33.580  14.350   0.040
10513W        W82938   6.280   5.765   2.377
10514W        W82939  18.180  37.039  14.479
10515W        W82940  33.382  23.652   2.926
10516W        W82941  44.526   3.320   0.281
10517W        W82942  32.106   4.569  10.394
10518W        W82943  33.163  24.201  14.044
10519W        W82944  25.468  40.642   1.341
10520W        W82945  14.833  24.450  14.449
10521W        W82946  16.117  17.845  12.031
10522W        W82947  10.664  24.574  12.069
10523W        W82948  40.023  42.066  11.662
10524W        W82949  24.512  12.846   1.566
10525W        W82950  15.500  12.344   2.898
10526W        W82951  13.040  39.461   3.307
10527W        W82952  22.925  39.953  12.923
10528W        W82953  26.203   0.044   0.367
10529W        W82954   2.641  15.265   4.640
10530W        W82955   6.083  35.990  14.171
10531W        W82956  44.527  22.688   4.127
10532W        W82957   7.790  36.619  14.503
10533W        W82958  18.536  14.339   3.620
10534W        W82959   4.889  17.337   1.268
10535W        W82960  13.075  10.588  13.354
10536W        W82961   1.994  15.345  10.952
10537W        W82962  19.654  28.686  12.168
10538W        W82963  12.231  27.294  12.159
10539W        W82964   1.782  33.134  13.478
10540W        W82965   2.292  16.149   4.626
10541W        W82966  43.386  44.566   2.899
10542W        W82967  26.081  12.921  11.680
10543W        W82968  18.024  12.388   1.380
10544W        W82969   2.507  43.287   2.313
10545W        W82970   0.915   9.907  13.850
10546W        W82971  32.996   5.790   1.372
10547W        W82972  11.263  43.955   0.268
10548W        W82973  24.584  37.091   2.488
10549W        W82974  18.526  32.412  11.598
10550W        W82975  27.118  30.746   5.003
10551W        W82976   5.399  35.088  10.199
10552W        W82977  17.955  17.524  11.059
10553W        W82978  18.055  42.945   4.579
10554W        W82979   8.667  20.534  14.466
10555W        W82980  15.570  15.592  13.691
10556W        W82981   6.667  10.589  11.561
10557W        W82982  28.823   3.879   2.089
10558W        W82983  32.417  33.137  14.352
10559W        W82984  19.451  32.414   1.306
10560W        W82985  21.542   0.990   3.383
10561W        W82986   6.794  32.577  13.846
10562W        W82987  19.304   9.366  13.900
10563W        W82988  38.048  41.117   4.079
10564W        W82989  16.763  44.285  12.504
10565W        W82990  35.588   1.538   0.475
10566W        W82991  28.028  16.689  13.807
10567W        W82992  41.805  33.923  11.048
10568W        W82993  26.465   5.964   2.659
10569W        W82994   7.706  38.488  11.110
10570W        W82995   5.414  25.209   0.400
10571W        W82996  10.655  13.768  11.553
10572W        W82997  26.088  34.341  11.000
10573W        W82998  18.295  21.195   2.152
10574W        W82999   8.182  15.007  14.299
10575W        W83000  33.636   4.996  11.267
10576W        W83001  43.457  39.348   0.738
10577W        W83002  44.272  17.062   4.237
10578W        W83003  13.235  18.768   2.311
10579W        W83004  27.479   3.591   1.314
10580W        W83005  11.594  11.663   0.518
10581W        W83006  35.933  20.065   3.849
10582W        W83007  35.964  11.891   3.208
10583W        W83008  25.371  31.670  13.637
10584W        W83009  21.034  19.348   3.522
10585W        W83010   4.457   5.177  11.573
10586W        W83011  43.664  20.470  13.556
10587W        W83012  20.036  28.621  14.510
10588W        W83013  10.349  29.719   1.865
10589W        W83014   9.955  24.237  10.404
10590W        W83015  36.576  30.943   4.962
10591W        W83016   2.355  22.769  13.514
10592W        W83017  42.808  19.650   2.733
10593W        W83018  34.028  39.280   4.401
10594W        W83019  32.351   6.898   3.288
10595W        W83020  15.230  21.615  12.694
10596W        W83021  26.452  22.997   1.952
10597W        W83022  38.803  26.812  11.901
10598W        W83023  15.055  44.679  12.562
10599W        W83024   6.790  33.829  14.782
10600W        W83025  34.875  41.820   2.720
10601W        W83026  35.663  41.134   0.966
10602W        W83027  29.541  39.165  14.330
10603W        W83028  27.747  17.051   3.665
10604W        W83029  30.025  11.682   1.293
10605W        W83030  42.963  21.616   2.880
10606W        W83031  40.846  38.945  12.844
10607W        W83032   0.621  39.950   0.358
10608W        W83033  16.602  19.766  13.758
10609W        W83034   2.756  14.687   2.967
10610W        W83035  44.251   6.737   4.138
10611W        W83036   6.937  18.563   1.040
10612W        W83037  33.163  28.202   2.375
10613W        W83038  42.068   1.884   1.331
10614W        W83039  18.296  41.234  12.973
10615W        W83040  12.793   8.857   0.948
10616W        W83041  14.109  35.329   3.370
10617W        W83042   0.988  38.334   4.115
10618W        W83043  28.889  34.104  13.030
10619W        W83044  20.068  29.819   0.668
10620W        W83045  20.170  38.946  12.116
10621W        W83046  16.091  33.054  14.690
10622W        W83047  25.193   4.720   2.399
10623W        W83048  25.716  21.612  14.567
10624W        W83049  16.328  12.202  14.861
10625W        W83050  41.245  29.636   1.460
10626W        W83051  29.659   4.875  11.280
10627W        W83052   5.132  26.794  13.627
10628W        W83053  11.312   7.259   3.407
10629W        W83054  40.993  36.133   1.640
10630W        W83055  22.061  11.711  13.303
10631W        W83056  32.262  28.219  12.302
10632W        W83057  43.032   8.739   4.961
10633W        W83058  27.356  23.007   1.677
10634W        W83059  19.596  31.953   4.236
10635W        W83060  18.542  15.140  11.578
10636W        W83061  16.049  13.207   4.745
10637W        W83062  26.627  14.608   9.890
10638W        W83063  25.045   9.669  12.497
10639W        W83064  15.550  23.036  11.896
10640W        W83065  12.647  23.264   4.746
10641W        W83066  12.247   5.214   2.907
10642W        W83067   8.972  27.751   3.484
10643W        W83068  10.259  40.776   1.891
10644W        W83069  40.117  26.164  13.825
10645W        W83070  17.071  42.896  14.329
10646W        W83071  10.819  39.376  13.338
10647W        W83072  33.882   0.409  11.977
10648W        W83073  20.040  27.011  12.553
10649W        W83074  43.004  29.927   2.262
10650W        W83075  15.634  29.201   1.712
10651W        W83076  27.619  42.448  10.591
10652W        W83077   3.811  31.011  11.814
10653W        W83078  41.046  44.728   1.893
10654W        W83079  11.772  43.254   0.129
10655W        W83080  25.103   4.369  11.968
10656W        W83081  42.927  27.788  14.946
10657W        W83082   1.516  32.714   1.648
10658W        W83083  24.175   6.677  11.938
10659W        W83084   3.403  34.092  10.620
10660W        W83085  35.847  34.426  12.057
10661W        W83086   1.965   3.349   1.879
10662W        W83087  14.792  13.813   2.815
10663W        W83088  27.644  33.085   4.077
10664W        W83089  22.648  33.855   0.478
10665W        W83090   5.878   7.116  14.876
10666W        W83091   3.439   5.634   0.310
10667W        W83092   4.232  40.099   0.474
10668W        W83093  40.436   8.113  14.382
10669W        W83094  24.223  15.531  12.961
10670W        W83095  23.622  20.968  13.856
10671W        W83096  31.560  34.822   2.391
10672W        W83097  12.358  10.180   4.768
10673W        W83098  20.599   7.869   3.843
10674W        W83099   5.746  13.195  12.961
10675W        W83100  18.761  32.898  12.423
10676W        W83101  13.788   6.349  14.272
10677W        W83102   0.356  42.129  12.188
10678W        W83103  19.096  11.215  14.497
10679W        W83104  41.184   0.752  11.541
10680W        W83105  37.585  44.975  13.376
10681W        W83106  25.946  37.562  14.318
10682W        W83107  39.402   1.499   1.777
10683W        W83108  39.156  29.184   0.799
10684W        W83109  40.843  16.631   0.915
10685W        W83110   1.686  36.328  13.847
10686W        W83111  39.051  32.959  14.215
10687W        W83112  41.953  23.094  12.984
10688W        W83113  36.896  30.820   4.063
10689W        W83114  28.204  42.037  10.164
10690W        W83115  40.786  11.821   3.286
10691W        W83116  22.453   7.898  11.245
10692W        W83117   1.835  25.552  13.531
10693W        W83118  26.389   6.175   0.785
10694W        W83119  18.543   1.271  10.640
10695W        W83120  28.001  11.803  11.899
10696W        W83121  32.586   2.686  12.059
10697W        W83122  23.179   2.408  13.863
10698W        W83123  37.811  43.860   2.650
10699W        W83124  10.586  14.676  14.450
10700W        W83125  16.346  34.199   4.157
10701W        W83126   2.362   2.156  10.982
10702W        W83127  17.890  44.279   4.989
10703W        W83128  41.279  30.467   4.629
10704W        W83129   0.378  40.104  11.164
10705W        W83130  39.767  22.950   2.870
10706W        W83131  16.087   5.932   1.669
10707W        W83132  17.657  26.425  13.310
10708W        W83133  35.303  25.943   0.460
10709W        W83134  22.169  28.655   4.413
10710W        W83135  41.562   6.278  12.438
10711W        W83136  31.185  21.803   2.684
10712W        W83137  12.195  18.570  14.413
10713W        W83138  40.813  29.017  10.583
10714W        W83139  25.910  28.121   1.765
10715W        W83140  14.168  41.224  12.988
10716W        W83141  32.769  18.485   1.751
10717W        W83142   0.433  39.660   4.685
10718W        W83143  15.969  32.786   2.245
10719W        W83144  18.027  32.759   5.094
10720W        W83145  27.650  40.206   1.650
10721W        W83146  24.536  40.423  10.642
10722W        W83147   2.814  44.431   3.317
10723W        W83148  36.639  37.333  13.993
10724W        W83149   6.411   2.299  13.827
10725W        W83150  13.132  34.315  12.839
10726W        W83151  23.778  25.466  11.172
10727W        W83152  29.000   1.723   2.303
10728W        W83153  13.871   6.799   4.097
10729W        W83154  10.902  15.424  12.034
10730W        W83155  14.848  10.375   3.444
10731W        W83156  17.602   9.396   0.921
10732W        W83157  15.729   3.512   0.240
10733W        W83158  19.581  12.432   3.520
10734W        W83159  15.081   0.375  11.134
10735W        W83160   0.213   7.636   2.275
10736W        W83161  10.620   0.361   3.812
10737W        W83162  25.987  44.738   0.725
10738W        W83163  21.530  30.513  10.756
10739W        W83164  11.754   6.893  11.689
10740W        W83165  37.957  17.171  12.929
10741W        W83166   8.689  40.588   3.087
10742W        W83167  22.226  15.501  14.504
10743W        W83168  24.230  21.547  12.088
10744W        W83169  14.314  35.387   0.309
10745W        W83170  18.998  12.657  14.858
10746W        W83171   0.354   5.720   0.854
10747W        W83172  32.602  34.591   4.566
10748W        W83173  10.530  32.862   4.607
10749W        W83174  34.378   0.053  10.605
10750W        W83175  30.166  38.720   5.548
10751W        W83176  24.730  34.538  12.578
10752W        W83177  23.986  42.763   2.465
10753W        W83178  15.146  21.293  11.922
10754W        W83179  40.458  35.773  12.117
10755W        W83180  20.770  11.600  13.879
10756W        W83181  44.787  31.550  10.164
10757W        W83182  29.179  12.876   1.674
10758W        W83183  34.014   2.335  14.978
10759W        W83184   5.305  22.958   3.871
10760W        W83185  23.530  28.242  14.749
10761W        W83186  40.948  40.911   2.806
10762W        W83187   3.153  44.452  10.482
10763W        W83188   5.408  28.200   2.207
10764W        W83189  26.036   5.822   3.597
10765W        W83190  18.220  19.182   3.296
10766W        W83191  38.849  24.073   4.037
10767W        W83192  27.988   7.562   1.706
10768W        W83193  31.092  44.309   5.087
10769W        W83194  43.028  24.705  13.113
10770W        W83195  30.222  34.963  12.915
10771W        W83196  36.866  33.900  12.117
10772W        W83197  15.773  22.565  11.839
10773W        W83198  15.258  17.145   0.146
10774W        W83199  31.618   7.557  10.739
10775W        W83200  42.220  32.224   4.934
10776W        W83201  16.991   3.952   2.186
10777W        W83202  43.400  22.820  11.138
10778W        W83203  27.938  20.687   4.095
10779W        W83204  41.462  29.993   1.101
10780W        W83205   8.469  16.805   3.912
10781W        W83206  14.377  14.402   2.337
10782W        W83207   9.636   4.239   0.939
10783W        W83208  44.453  18.639  12.809
10784W        W83209  34.148  31.521  13.802
10785W        W83210  30.073  13.874   2.408
10786W        W83211  22.163  17.211   2.426
10787W        W83212  44.029  31.638   1.868
10788W        W83213  27.012  27.875  14.537
10789W        W83214   6.723   9.831   1.105
10790W        W83215  20.448   2.846  14.780
10791W        W83216  33.972  30.066   1.902
10792W        W83217  35.433  16.763   2.404
10793W        W83218  39.175  16.972   2.705
10794W        W83219  15.570   8.870  13.103
10795W        W83220   7.216  15.637  13.385
10796W        W83221  18.496  38.132   0.464
10797W        W83222  26.365  21.446   4.325
10798W        W83223  37.076  18.741   0.468
10799W        W83224   3.332  39.310   4.880
10800W        W83225  35.975  28.733   0.235
10801W        W83226   5.760  15.317  14.447
10802W        W83227   2.630   9.722  14.304
10803W        W83228   3.825  27.611   0.833
10804W        W83229  20.526  10.653  14.835
10805W        W83230  19.475   7.434   1.315
10806W        W83231  13.703  28.081  11.128
10807W        W83232  37.226  15.020   1.662
10808W        W83233  29.152  24.105   4.817
10809W        W83234   5.881  26.113  14.430
10810W        W83235   0.908  14.280  13.914
10811W        W83236  18.181   9.155   4.591
10812W        W83237   8.841   9.570   0.118
10813W        W83238  38.876   4.949   4.105
10814W        W83239  13.672  13.906   1.253
10815W        W83240  43.160   0.811   0.926
10816W        W83241  15.736  27.520  10.416
10817W        W83242  26.977  42.449   1.437
10818W        W83243  11.672  12.666   4.792
10819W        W83244   2.898  22.021   3.866
10820W        W83245  33.310   3.033   4.261
10821W        W83246  11.736  35.986  10.554
10822W        W83247  32.866   9.926   0.317
10823W        W83248   3.232  14.681  11.407
10824W        W83249  24.694  42.309   4.515
10825W        W83250  42.875  11.829  11.962
10826W        W83251  28.593  23.598   9.915
10827W        W83252  26.355  16.728   4.977
10828W        W83253  20.709  35.362   0.794
10829W        W83254  11.914  26.664  12.386
10830W        W83255   0.738  10.309  13.575
10831W        W83256  11.117   9.278  14.985
10832W        W83257  18.290  34.572   3.491
10833W        W83258  37.789  25.095  11.597
10834W        W83259  12.127  41.322  12.061
10835W        W83260  15.396  17.081   3.669
10836W        W83261  12.679  15.333   2.905
10837W        W83262   0.029  20.485  14.837
10838W        W83263  27.973  14.497   4.641
10839W        W83264  44.743  13.809  14.487
10840W        W83265   9.874  16.606   0.842
10841W        W83266  21.623  11.369  11.033
10842W        W83267  38.955   7.934   4.135
10843W        W83268  34.032  12.603  12.378
10844W        W83269  15.639  42.846  12.987
10845W        W83270  44.020  11.267  11.608
10846W        W83271  26.468  36.687   2.803
10847W        W83272  32.195  16.305  14.491
10848W        W83273  41.012  37.909  10.729
10849W        W83274  33.137  29.579  11.575
10850W        W83275   2.823   8.805  12.897
10851W        W83276   3.109  30.624  12.783
10852W        W83277  15.064  37.157  14.010
10853W        W83278  31.212  35.148  13.915
10854W        W83279  27.629  35.251  11.244
10855W        W83280   8.166  44.960   2.339
10856W        W83281  22.833  15.739  13.568
10857W        W83282  22.508  43.558   0.368
10858W        W83283  14.537  20.667  13.925
10859W        W83284  42.459  17.712   3.636
10860W        W83285  20.281  35.413  12.869
10861W        W83286  34.780   6.922   5.448
10862W        W83287  24.023  13.137   0.031
10863W        W83288   5.784  35.359   4.186
10864W        W83289  25.558  20.415  10.903
10865W        W83290   5.865   8.320   0.826
10866W        W83291  40.939  23.280   0.150
10867W        W83292  11.293  25.975  13.828
10868W        W83293   6.139   9.170   0.646
10869W        W83294  24.567   5.911   4.781
10870W        W83295  28.855   0.764  14.160
10871W        W83296  18.787   3.828  10.558
10872W        W83297  30.066  39.269   3.692
10873W        W83298  33.003  40.011   1.376
10874W        W83299  39.907  23.192   3.911
10875W        W83300   7.701   6.745   2.462
10876W        W83301  22.093  15.638   1.804
10877W        W83302   4.807  35.556  12.838
10878W        W83303  36.962  17.557  13.914
10879W        W83304   0.612   8.203   0.718
10880W        W83305  10.940  42.037  13.313
10881W        W83306  17.715  40.749   2.305
10882W        W83307  10.805  21.771   2.184
10883W        W83308  14.810  11.354   2.581
10884W        W83309  14.620  22.041  13.897
10885W        W83310   8.746  34.051   4.742
10886W        W83311  31.139   2.208   4.759
10887W        W83312  21.217  32.343   1.402
10888W        W83313  12.303   5.846  12.560
10889W        W83314   4.379   5.363  14.903
10890W        W83315  32.566   9.153  11.402
10891W        W83316  25.662  16.121  10.432
10892W        W83317   7.782  27.002   4.617
10893W        W83318  37.833  36.533  13.354
10894W        W83319   3.446  15.229   1.435
10895W        W83320  37.613  41.947   0.424
10896W        W83321  34.157   8.965   0.280
10897W        W83322  27.929  40.401  13.967
10898W        W83323  15.709  22.764   2.120
10899W        W83324  25.103   9.412  12.047
10900W        W83325   2.164   1.685  13.006
10901W        W83326  43.404  38.339  10.671
10902W        W83327  43.499  12.382   0.983
10903W        W83328  30.936  32.136   3.705
10904W        W83329  16.405  44.358   4.753
10905W        W83330  15.326  31.467   1.955
10906W        W83331  14.837  30.643   0.885
10907W        W83332  11.923  39.360  12.614
10908W        W83333  26.664   3.194  14.811
10909W        W83334  24.744  16.167  11.059
10910W        W83335  16.836  23.257   4.929
10911W        W83336  16.049  28.175  12.084
10912W        W83337  33.697  21.186   4.591
10913W        W83338   6.328  14.860   0.253
10914W        W83339   1.965  27.263   3.304
10915W        W83340  34.854   5.138   3.180
10916W        W83341  38.523  38.142  12.341
10917W        W83342  13.235  18.053  11.595
10918W        W83343  17.363   4.906   2.229
10919W        W83344  29.862  29.498   2.985
10920W        W83345   5.600  30.182  13.326
10921W        W83346  19.525  11.165  10.668
10922W        W83347  37.594  10.689  11.572
10923W        W83348  44.386   9.298  11.198
10924W        W83349  34.458  37.408   3.547
10925W        W83350   3.443  11.993   1.175
10926W        W83351  40.498  19.951   3.791
10927W        W83352   4.062  23.624  11.580
10928W        W83353  28.816   1.752  12.342
10929W        W83354  33.518  27.474   0.921
10930W        W83355   1.456  14.989   1.077
10931W        W83356   6.922  41.980  11.580
10932W        W83357   5.121  35.352   0.012
10933W        W83358  34.862  13.364  10.759
10934W        W83359  16.333   9.064  14.265
10935W        W83360   3.554  39.548   1.062
10936W        W83361   6.341  25.755   2.749
10937W        W83362  25.294  30.042  11.139
10938W        W83363  34.968  39.425  11.982
10939W        W83364  14.100  21.481   3.214
10940W        W83365   8.960  25.275   0.271
10941W        W83366  43.019  11.212   0.482
10942W        W83367  38.225  40.876   2.395
10943W        W83368  34.971  31.045  13.729
10944W        W83369  20.991  13.751   4.672
10945W        W83370  34.512  17.363  11.979
10946W        W83371  30.596  30.864  14.314
10947W        W83372   5.320   6.415  14.845
10948W        W83373  30.664   8.255   1.303
10949W        W83374   5.362  41.806   1.324
10950W        W83375  20.565  23.887   0.931
10951W        W83376  39.957  11.304   4.623
10952W        W83377  41.358  28.396  13.908
10953W        W83378  27.730  17.157  10.745
10954W        W83379   5.727  44.799   2.270
10955W        W83380  42.756  13.752  13.300
10956W        W83381   0.796  19.532  13.009
10957W        W83382  43.106  17.718  13.509
10958W        W83383  18.020  15.984  10.734
10959W        W83384  36.508  15.422   3.563
10960W        W83385  34.383   0.294  11.946
10961W        W83386   2.477  21.576  12.078
10962W        W83387  32.211   9.703  12.453
10963W        W83388  38.323  43.066  11.486
10964W        W83389  43.536   7.706  12.079
10965W        W83390   5.468  35.075  14.783
10966W        W83391  16.233   1.045   0.267
10967W        W83392  27.500  34.381  12.955
10968W        W83393  26.939  15.845   1.217
10969W        W83394   1.841   8.009  14.799
10970W        W83395  27.734  26.187   4.102
10971W        W83396   2.717  44.995  11.031
10972W        W83397  12.870   0.067   4.079
10973W        W83398   2.996   2.832   4.466
10974W        W83399  15.144   7.600   4.615
10975W        W83400  28.684  41.369   9.463
10976W        W83401   3.810  28.929   2.678
10977W        W83402  35.893  11.715   2.385
10978W        W83403   2.382   4.952   2.149
10979W        W83404  19.085  13.000   1.745
10980W        W83405  17.695  24.310  12.134
10981W        W83406  34.422  13.409   1.197
10982W        W83407   4.371  42.356   3.297
10983W        W83408  26.629  42.275   2.966
10984W        W83409   8.880  18.548   2.174
10985W        W83410   1.442  23.457   0.359
10986W        W83411  40.801   3.580  12.196
10987W        W83412  38.463  13.311  14.731
10988W        W83413  37.457  11.567  11.270
10989W        W83414  31.958  38.304  11.854
10990W        W83415  10.620  25.078  13.442
10991W        W83416  25.560   7.275  10.554
10992W        W83417  19.503   9.828  13.461
10993W        W83418  26.466  19.741   4.473
10994W        W83419  23.250   2.895   0.202
10995W        W83420  34.981  44.086   2.290
10996W        W83421  37.469  23.770   1.966
10997W        W83422  43.492  43.220  13.778
10998W        W83423  11.076  29.615   1.117
10999W        W83424  34.022  11.873  13.109
11000W        W83425  17.109  33.510   3.380
11001W        W83426  25.147  14.566  12.881
11002W        W83427  14.365   3.876  13.343
11003W        W83428  26.912  19.836   3.630
11004W        W83429   7.444  27.794  12.626
11005W        W83430  11.630  20.599  14.348
11006W        W83431  42.410  24.178   3.532
11007W        W83432  29.391  15.532  14.282
11008W        W83433  20.615  32.048  11.778
11009W        W83434   6.837  14.449   1.732
11010W        W83435  13.375  39.765  14.354
11011W        W83436  19.985   7.067   3.738
11012W        W83437  35.411  43.893  11.172
11013W        W83438  44.285   8.192   1.309
11014W        W83439  26.926   4.343   1.903
11015W        W83440  28.620  39.583  11.124
11016W        W83441  43.788  37.133   0.465
11017W        W83442  36.082  32.474   2.462
11018W        W83443   4.360  43.979  12.531
11019W        W83444  42.480  15.244   0.396
11020W        W83445   7.347  25.962   4.169
11021W        W83446  16.373  26.122  10.551
11022W        W83447  40.341  12.610   3.645
11023W        W83448  18.628  13.724  14.844
11024W        W83449  20.276   4.964  12.265
11025W        W83450  32.909  11.134   2.593
11026W        W83451  38.344  36.424   4.395
11027W        W83452  35.589   0.142  11.562
11028W        W83453  44.768  26.629  10.409
11029W        W83454   4.817  11.264  11.100
11030W        W83455  37.087  37.075   2.326
11031W        W83456  14.734   2.333   4.159
11032W        W83457  38.553  37.719   0.623
11033W        W83458  42.729  10.174   1.209
11034W        W83459   5.540  12.739   1.202
11035W        W83460  18.311  38.376   1.364
11036W        W83461   2.406   0.323  12.061
11037W        W83462  28.957  41.915  14.412
11038W        W83463  11.110  25.206  11.637
11039W        W83464  28.914  28.415  13.379
11040W        W83465  27.764  37.881   4.941
11041W        W83466  44.900  34.752   0.775
11042W        W83467   9.632  38.289  11.000
11043W        W83468  19.477  36.017   1.239
11044W        W83469   3.389  22.810   1.379
11045W        W83470  30.866   4.261  11.136
11046W        W83471  40.886  25.272   4.152
11047W        W83472  25.456  42.460  12.596
11048W        W83473  38.827  13.803  11.063
11049W        W83474  12.386   3.293  10.117
11050W        W83475  39.048  21.589  12.500
11051W        W83476  14.257  19.281   0.260
11052W        W83477  13.599   2.498  12.531
11053W        W83478  41.436  18.038  12.094
11054W        W83479  18.881   4.293  14.973
11055W        W83480   4.346  12.151   4.374
11056W        W83481  12.645   4.025   5.498
11057W        W83482  33.493   9.230   2.248
11058W        W83483  26.801  10.852   2.753
11059W        W83484  20.132  36.551   4.837
11060W        W83485  33.493  12.130   1.844
11061W        W83486  23.548  35.491  11.568
11062W        W83487  16.158  16.793  10.512
11063W        W83488  15.805  20.331  12.687
11064W        W83489  18.030  30.451  10.394
11065W        W83490  30.114  31.880  13.299
11066W        W83491   3.685  15.853  14.914
11067W        W83492  44.518   8.211   3.293
11068W        W83493  16.328   4.354  14.446
11069W        W83494   2.348   5.281  14.325
11070W        W83495  28.424  40.603  12.031
11071W        W83496  36.124   7.758   1.179
11072W        W83497  25.013  41.356  13.531
11073W        W83498  13.546   1.221   0.010
11074W        W83499  13.175  33.686   0.923
11075W        W83500   3.401  15.559  12.413
11076W        W83501  20.832  29.927   2.830
11077W        W83502  29.611  41.320   4.175
11078W        W83503  16.131  10.124  10.503
11079W        W83504  10.191  11.043  14.785
11080W        W83505  32.917  13.968  12.476
11081W        W83506  40.027  34.825  13.032
11082W        W83507  42.331  38.911  11.232
11083W        W83508  28.124  20.230  12.373
11084W        W83509   1.863  22.998  13.411
11085W        W83510  38.857  44.419  13.657
11086W        W83511  33.506  14.038  13.865
11087W        W83512  38.065  22.803   1.748
11088W        W83513  15.935  39.877   1.018
11089W        W83514  23.435  12.682  14.014
11090W        W83515  19.726  40.319  13.840
11091W        W83516  41.398  12.823  14.787
11092W        W83517  13.204   7.176  12.015
11093W        W83518  32.024  26.191  13.946
11094W        W83519  14.015  15.733  12.915
11095W        W83520  42.956  13.663   4.281
11096W        W83521  19.795  34.004  10.721
11097W        W83522   4.899  30.897   3.200
11098W        W83523  18.534  17.293   4.616
11099W        W83524  42.317  21.148   0.104
11100W        W83525   2.505  42.726  13.843
11101W        W83526  31.617   4.221   3.483
11102W        W83527  16.079   7.665  14.282
11103W        W83528   1.441  19.615   2.349
11104W        W83529  26.618  20.055  10.540
11105W        W83530   2.368   2.456   3.284
11106W        W83531  35.017   0.813   5.063
11107W        W83532  33.586   7.301  13.805
11108W        W83533   3.243  35.941  13.375
11109W        W83534  22.756  44.443  13.548
11110W        W83535  32.647   0.437   1.397
11111W        W83536  44.002  33.766   1.988
11112W        W83537   3.949   4.490   1.703
11113W        W83538  13.756  25.556   3.613
11114W        W83539  22.078  16.343  12.456
11115W        W83540   7.790   6.926   1.503
11116W        W83541  25.211  25.159  11.998
11117W        W83542  16.557  11.799   3.658
11118W        W83543  25.940  10.838   3.845
11119W        W83544  41.925  17.174   2.473
11120W        W83545  31.572  33.891   2.628
11121W        W83546  40.984   9.880   0.118
11122W        W83547  32.537   0.743   1.833
11123W        W83548  24.513  33.827   3.807
11124W        W83549  11.639  17.692   4.927
11125W        W83550   2.480  14.766  12.488
11126W        W83551   2.839  21.758  13.760
11127W        W83552  35.996  11.774   4.674
11128W        W83553   6.890  32.417   1.902
11129W        W83554  32.121  38.931  11.178
11130W        W83555  12.606   9.149  10.699
11131W        W83556  29.584  42.412   2.323
11132W        W83557  32.942  15.590   1.340
11133W        W83558  39.296  18.061   0.221
11134W        W83559  43.486  24.681  14.447
11135W        W83560  40.034  23.134   4.413
11136W        W83561  38.123   9.290  10.987
11137W        W83562  42.840  33.923  13.544
11138W        W83563   5.065  10.090  12.678
11139W        W83564   4.307  33.019  10.712
11140W        W83565  20.075  10.731   1.373
11141W        W83566   1.753   5.485   2.743
11142W        W83567  14.757  40.834   4.717
11143W        W83568  27.253  22.571  12.792
11144W        W83569  41.938  30.132  11.911
11145W        W83570  22.035  34.169  13.815
11146W        W83571  40.915  35.110   0.868
11147W        W83572  43.190  28.122  14.353
11148W        W83573  42.446  38.047   3.495
11149W        W83574  14.260  17.534  10.858
11150W        W83575  36.251   4.746  11.177
11151W        W83576  10.461  43.455  14.463
11152W        W83577  16.358  44.039  14.104
11153W        W83578  35.073  24.676  13.577
11154W        W83579   4.950  29.027   3.398
11155W        W83580   3.888  43.458   1.844
11156W        W83581  31.069  31.546  11.489
11157W        W83582  13.447   1.682   2.196
11158W        W83583  42.058  29.146   4.093
11159W        W83584  16.732  11.264  11.507
11160W        W83585   1.391   4.556   2.413
11161W        W83586  24.854  37.348  14.172
11162W        W83587   3.296  41.309   4.523
11163W        W83588  40.675  20.238   9.872
11164W        W83589  13.401  21.556  11.065
11165W        W83590  33.363   5.153   2.385
11166W        W83591  33.468   1.978   2.206
11167W        W83592  23.591   0.196  13.868
11168W        W83593  37.612  15.218   4.217
11169W        W83594  13.051  25.658  10.636
11170W        W83595  33.346  24.948   3.708
11171W        W83596  44.202   5.275  12.870
11172W        W83597  44.487  36.092  10.700
11173W        W83598   9.247  32.939  10.698
11174W        W83599  38.923  28.327   0.968
11175W        W83600  36.489  34.894  14.309
11176W        W83601  41.360   0.007   4.663
11177W        W83602  27.722  38.988  12.047
11178W        W83603   3.301  10.390  11.242
11179W        W83604  24.252  16.062   3.187
11180W        W83605  27.500  44.857   0.933
11181W        W83606   3.711   1.857  13.922
11182W        W83607  44.260  41.081   1.890
11183W        W83608  13.668  38.132  11.516
11184W        W83609  19.229  19.030  13.670
11185W        W83610  20.141   3.591   3.730
11186W        W83611  44.699  40.781   1.672
11187W        W83612  29.025  39.953  10.974
11188W        W83613   0.379   0.419   0.818
11189W        W83614  25.439  13.008   3.832
11190W        W83615  39.567  24.950   2.845
11191W        W83616  25.504  40.612  10.783
11192W        W83617  19.979  42.136   3.826
11193W        W83618  15.325  21.222  13.033
11194W        W83619  12.617   1.186   1.319
11195W        W83620  37.755  35.501  14.431
11196W        W83621  44.530  18.910   0.859
11197W        W83622  25.186   6.848  12.040
11198W        W83623  11.802  35.454   2.262
11199W        W83624   7.744  38.824   4.584
11200W        W83625   2.779  42.523   0.072
11201W        W83626  30.518   4.142  12.980
11202W        W83627  35.047  32.426  11.092
11203W        W83628   0.856   9.337  10.961
11204W        W83629  28.884  32.162   3.194
11205W        W83630   2.377  33.561  10.716
11206W        W83631  34.366  44.973  13.308
11207W        W83632  31.641  25.522   3.866
11208W        W83633  22.274  32.504   0.829
11209W        W83634  36.832  30.087  10.664
11210W        W83635  33.884  24.602  12.507
11211W        W83636  39.669  20.520   5.323
11212W        W83637  36.819  31.690   2.217
11213W        W83638   8.160  13.597  11.768
11214W        W83639  42.801  25.946  12.814
11215W        W83640   9.849  16.150   2.765
11216W        W83641  24.842  41.034  11.397
11217W        W83642  23.685   1.656   0.494
11218W        W83643  39.344  43.225  12.994
11219W        W83644  28.137  34.445  10.209
11220W        W83645  16.448  32.756  10.139
11221W        W83646  30.019   7.316  13.635
11222W        W83647   6.748  11.181   2.377
11223W        W83648  25.173  28.406   1.474
11224W        W83649  26.950   4.156  13.390
11225W        W83650  28.989  25.556   2.420
11226W        W83651  16.120  22.575   3.434
11227W        W83652  10.783  33.174   2.195
11228W        W83653  43.250  34.869  12.830
11229W        W83654   5.508  42.344  13.284
11230W        W83655   5.281   7.259  13.253
11231W        W83656  23.745  24.501   3.521
11232W        W83657  28.172  19.729   0.900
11233W        W83658   9.290  19.174   2.671
11234W        W83659  35.543  21.282  13.510
11235W        W83660  26.596  41.765   0.364
11236W        W83661  20.391  43.826   2.360
11237W        W83662  36.509  14.280  14.004
11238W        W83663  13.617  29.656   0.802
11239W        W83664  35.560  26.982  12.964
11240W        W83665  34.514  39.646   3.677
11241W        W83666  40.747  41.435  10.647
11242W        W83667  30.068  11.069  14.759
11243W        W83668  37.038  23.496  14.308
11244W        W83669   8.651  29.980  11.937
11245W        W83670  10.195  42.274   0.929
11246W        W83671   2.754  23.369  11.154
11247W        W83672  24.507  38.045   0.020
11248W        W83673  29.124   3.621   4.237
11249W        W83674  14.075  38.055  12.428
11250W        W83675  15.464   9.171   4.670
11251W        W83676   5.911  10.946   4.657
11252W        W83677  41.812  24.932   9.908
11253W        W83678   3.954  10.376   2.085
11254W        W83679   7.785  22.703  13.402
11255W        W83680  17.818  13.252  11.152
11256W        W83681  38.439  25.273  12.466
11257W        W83682  29.637  30.371  11.651
11258W        W83683  10.172  32.278   3.841
11259W        W83684  28.269  11.417   3.527
11260W        W83685  23.570  13.306   0.216
11261W        W83686   8.319   3.242   4.534
11262W        W83687  19.319  27.097   2.603
11263W        W83688  34.924  25.885   4.140
11264W        W83689  30.198  20.787   0.636
11265W        W83690  26.200  12.586  13.114
11266W        W83691  31.699  39.520  11.308
11267W        W83692  22.586  43.031   1.252
11268W        W83693  18.606  22.667   0.854
11269W        W83694  10.287  23.033   1.269
11270W        W83695  36.369  18.996  12.120
11271W        W83696  37.086  30.006   2.320
11272W        W83697  16.061  21.232   4.935
11273W        W83698  13.042   1.954   3.588
11274W        W83699  37.820  43.083  11.599
11275W        W83700  11.871  22.639  10.524
11276W        W83701  31.671  30.526  10.613
11277W        W83702  28.137  23.562  13.025
11278W        W83703  40.318  15.357   5.021
11279W        W83704  28.952   0.247  11.136
11280W        W83705  21.534  22.754   9.858
11281W        W83706  35.244   6.658   0.252
11282W        W83707  13.578  19.805   0.374
11283W        W83708   3.310   2.908   3.250
11284W        W83709  10.635  31.503   4.685
11285W        W83710  29.607  29.235  10.365
11286W        W83711  12.390  13.070  10.420
11287W        W83712  42.098  20.820   4.770
11288W        W83713  25.961  12.725   2.497
11289W        W83714  20.456  36.594  14.287
11290W        W83715  39.112   1.829  14.454
11291W        W83716  26.698  24.828  13.906
11292W        W83717  13.173  11.359  14.759
11293W        W83718   1.825  30.251  12.969
11294W        W83719  17.005  31.470  13.449
11295W        W83720  28.744  24.078  10.045
11296W        W83721  43.840  27.408   0.838
11297W        W83722  40.340   2.373   3.569
11298W        W83723  28.863   7.602  11.932
11299W        W83724  21.931  17.189   4.568
11300W        W83725  31.579  22.983   0.801
11301W        W83726  33.934  38.689  13.495
11302W        W83727   9.430  23.956  13.770
11303W        W83728  22.719  33.924  11.575
11304W        W83729   4.665  33.427   0.085
11305W        W83730   0.472   8.959  12.113
11306W        W83731  24.257  11.435  10.413
11307W        W83732  36.531  26.910   1.274
11308W        W83733   0.682  28.428  13.409
11309W        W83734   3.115   2.276  12.066
11310W        W83735  41.552  11.216   2.227
11311W        W83736  11.329  30.575   2.750
11312W        W83737  18.745  37.061  12.876
11313W        W83738  44.284  38.553  14.991
11314W        W83739  43.265  20.623   2.163
11315W        W83740  17.117  29.416  12.889
11316W        W83741  44.336  28.325   3.817
11317W        W83742  24.303  34.220  11.617
11318W        W83743  29.498  43.906  12.418
11319W        W83744  18.133  18.198   0.064
11320W        W83745  34.496  14.862  14.565
11321W        W83746  37.161  22.528  11.934
11322W        W83747   3.930  17.092  14.395
11323W        W83748  28.484  43.031  12.523
11324W        W83749  18.546  41.346  13.926
11325W        W83750  10.962   1.361  11.586
11326W        W83751   2.254  10.864   4.159
11327W        W83752  13.769  28.448   3.699
11328W        W83753   8.839   3.770  11.867
11329W        W83754  16.621  37.379  14.738
11330W        W83755  38.846  22.959   4.573
11331W        W83756  10.903  21.422   3.132
11332W        W83757  37.411  42.280  12.935
11333W        W83758  13.607  44.009   0.458
11334W        W83759   8.766  23.559  13.339
11335W        W83760  10.110  33.687  14.729
11336W        W83761  20.684   5.301   0.680
11337W        W83762  44.314  14.068   3.141
11338W        W83763   3.289  28.594  11.646
11339W        W83764  15.074  38.122   2.268
11340W        W83765  16.551  39.324   4.636
11341W        W83766  30.903  12.910   2.337
11342W        W83767  21.473  14.285   3.765
11343W        W83768   1.446  38.971  13.360
11344W        W83769  24.795  16.700  13.814
11345W        W83770  34.826  15.216   3.103
11346W        W83771  41.981  42.059   3.748
11347W        W83772  22.602  26.068  13.050
11348W        W83773  25.484  13.386  11.097
11349W        W83774  24.086  11.242  13.126
11350W        W83775   7.204  31.983   3.770
11351W        W83776  17.007  16.931   3.169
11352W        W83777  20.564  39.946   0.911
11353W        W83778  36.920  39.565  12.469
11354W        W83779   4.516  37.708  12.496
11355W        W83780  29.568  31.942  12.451
11356W        W83781  26.540  26.176   3.304
11357W        W83782  26.203  41.999   4.505
11358W        W83783  17.724  42.241  11.247
11359W        W83784  38.552  17.838   2.694
11360W        W83785  44.371   0.216   2.640
11361W        W83786  11.157   0.052  11.966
11362W        W83787   1.761  10.836   3.901
11363W        W83788  21.689   0.225   3.744
11364W        W83789  29.380  17.061  11.507
11365W        W83790   4.832  29.583  14.934
11366W        W83791   4.819  13.142  10.410
11367W        W83792  24.858  32.884  14.613
11368W        W83793  11.734  41.275  10.397
11369W        W83794  25.731   5.674   3.173
11370W        W83795  25.962  27.556   3.824
11371W        W83796  41.286  11.715   0.341
11372W        W83797  10.572  15.625   4.625
11373W        W83798  24.750  22.206  12.925
11374W        W83799   4.407  17.034  14.208
11375W        W83800  39.876  22.087  13.701
11376W        W83801  19.049   4.818   2.613
11377W        W83802  36.231  15.709   3.248
11378W        W83803  23.294  13.720  13.230
11379W        W83804   8.747  21.027  13.081
11380W        W83805  21.243  34.585   2.711
11381W        W83806  18.613  41.583  11.229
11382W        W83807   2.248   2.014   1.955
11383W        W83808  42.553  43.572  12.866
11384W        W83809  14.318  21.413   2.357
11385W        W83810  34.340   9.159   1.774
11386W        W83811  25.497  27.700  10.720
11387W        W83812  42.576   8.564   2.928
11388W        W83813  32.275  43.775  14.463
11389W        W83814   2.968  13.427   0.412
11390W        W83815  40.817  15.218   4.975
11391W        W83816  23.434  44.874   2.363
11392W        W83817  23.250  39.318  14.646
11393W        W83818   6.424  16.731   1.140
11394W        W83819   1.109  35.410   3.343
11395W        W83820  23.265  44.719  13.019
11396W        W83821  11.267   0.511  11.015
11397W        W83822   9.904  33.578  12.117
11398W        W83823  26.832  10.910   4.334
11399W        W83824  19.714  43.668  13.852
11400W        W83825  34.486  35.069   1.740
11401W        W83826  20.127  35.436   1.507
11402W        W83827  11.512  27.887  11.563
11403W        W83828  23.215   3.998  10.429
11404W        W83829  43.016   4.762  14.968
11405W        W83830  26.543   8.299   4.197
11406W        W83831  15.079  30.142   3.473
11407W        W83832   3.602  19.276   3.354
11408W        W83833  10.919  13.578  11.161
11409W        W83834   4.785  30.517   4.986
11410W        W83835  43.688  27.853  12.905
11411W        W83836  32.089   7.159   4.627
11412W        W83837  23.320  28.629  11.551
11413W        W83838  11.095   4.692   4.632
11414W        W83839  22.418  12.670  13.058
11415W        W83840   3.440  44.726  14.100
11416W        W83841   2.984   8.307   0.343
11417W        W83842  44.798  43.555  12.938
11418W        W83843  30.406  10.841   1.249
11419W        W83844  25.185  20.152  10.677
11420W        W83845  30.436  41.525  14.292
11421W        W83846  23.335  29.825   3.811
11422W        W83847  11.113  22.191  12.006
11423W        W83848  14.710   6.955   2.766
11424W        W83849   6.935  20.711  14.736
11425W        W83850  18.717  38.459   3.175
11426W        W83851  39.987  36.002   0.482
11427W        W83852  30.403   3.328   4.613
11428W        W83853  28.003  24.660  13.351
11429W        W83854  17.772   5.207  12.001
11430W        W83855  35.910   9.576  13.875
11431W        W83856  36.450  30.557   3.936
11432W        W83857  22.572  39.842  12.165
11433W        W83858  31.102  18.594  13.883
11434W        W83859  33.820   9.929   2.411
11435W        W83860  43.867  34.039  13.507
11436W        W83861  29.663  29.026   2.785
11437W        W83862   4.796  21.705   0.494
11438W        W83863  20.830   3.004   1.614
11439W        W83864  35.735  28.778   2.785
11440W        W83865  25.670   1.971  10.652
11441W        W83866   8.634   3.433  13.170
11442W        W83867  28.489  27.629  12.358
11443W        W83868  26.199   8.824   3.079
11444W        W83869   3.981  28.038   4.897
11445W        W83870  25.278  43.857   2.691
11446W        W83871  25.222  17.654   3.247
11447W        W83872   8.853  31.356   4.225
11448W        W83873  31.376  29.620  13.526
11449W        W83874  38.923  37.580  14.809
11450W        W83875  19.510   7.262  14.761
11451W        W83876  18.914  17.486  13.835
11452W        W83877  22.735   9.292  13.477
11453W        W83878  25.013  15.789   3.683
11454W        W83879  40.744  24.635  10.677
11455W        W83880  12.619  18.046   0.026
11456W        W83881  25.587  28.491   3.348
11457W        W83882  25.219  33.974   4.212
11458W        W83883   5.991   2.394   3.798
11459W        W83884  18.567  10.279   0.900
11460W        W83885  38.097   1.397   0.463
11461W        W83886  26.795  14.755   0.182
11462W        W83887  13.159  29.951  12.573
11463W        W83888   9.688  11.115   3.177
11464W        W83889  18.758  16.134   4.086
11465W        W83890  41.464  40.163  13.822
11466W        W83891  28.091  29.453  13.014
11467W        W83892   4.090  16.312   2.727
11468W        W83893  36.969  18.507  11.504
11469W        W83894  12.435  19.597  11.233
11470W        W83895  33.933   2.188   1.785
11471W        W83896  43.942   1.927   2.124
11472W        W83897  16.632   1.941   2.658
11473W        W83898  18.121  34.428   0.245
11474W        W83899  26.496  44.373  12.042
11475W        W83900   9.459  27.682  12.910
11476W        W83901  12.767  24.099  13.017
11477W        W83902  39.776  27.537  13.989
11478W        W83903   3.955  21.874   4.671
11479W        W83904   5.873  12.191  12.536
11480W        W83905  25.043  30.013  12.923
11481W        W83906  37.730  31.113   2.734
11482W        W83907  22.820  30.561   0.414
11483W        W83908  33.013  24.903  14.320
11484W        W83909  29.993  15.794   2.199
11485W        W83910   6.155  20.291  10.623
11486W        W83911  37.712  25.449   2.763
11487W        W83912   3.364  36.491   2.681
11488W        W83913  26.161  19.286  12.081
11489W        W83914  10.978   2.820  12.966
11490W        W83915   3.280  10.001  10.515
11491W        W83916  10.798  27.648   4.015
11492W        W83917  17.804  16.105   2.339
11493W        W83918   4.727   4.638   0.304
11494W        W83919   6.529  22.701  12.867
11495W        W83920  40.707  34.390  11.158
11496W        W83921  33.407  21.274   5.070
11497W        W83922   4.687  33.407   3.712
11498W        W83923  43.350   4.415  13.431
11499W        W83924  17.607  10.920   3.211
11500W        W83925  25.574  26.513   2.404
11501W        W83926  44.455  37.973   1.187
11502W        W83927  33.168  40.477   4.116
11503W        W83928   2.740  34.529  10.591
11504W        W83929   4.489  41.493  12.052
11505W        W83930  30.874  35.895  12.682
11506W        W83931  11.461  38.949   0.935
11507W        W83932  33.004  21.664  12.361
11508W        W83933  29.571   1.183   2.446
11509W        W83934  41.555   0.528  12.434
11510W        W83935   0.829  33.611   3.632
11511W        W83936  43.439  26.704   0.858
11512W        W83937  37.587  26.125  13.016
11513W        W83938  33.906   0.847   1.495
11514W        W83939  35.502  23.449   2.403
11515W        W83940  41.742   6.178  12.950
11516W        W83941  20.835  42.195   2.317
11517W        W83942  33.502  27.494  14.596
11518W        W83943  43.887  16.125   3.250
11519W        W83944  41.084   7.673   3.767
11520W        W83945  20.681  16.941   0.431
11521W        W83946  19.088  16.685   2.712
11522W        W83947  20.731   9.606   1.716
11523W        W83948  33.342  25.199  11.334
11524W        W83949  38.721  28.713  14.116
11525W        W83950  30.301   4.870  12.426
11526W        W83951   1.405  44.975  11.642
11527W        W83952  17.492  35.073  10.926
11528W        W83953   5.758   0.885   1.792
11529W        W83954  13.172  20.528  11.957
11530W        W83955  10.323  10.321  11.386
11531W        W83956   6.419  21.271   2.229
11532W        W83957  17.373  34.511   5.447
11533W        W83958   7.955   6.775   4.821
11534W        W83959  32.030  40.446   4.151
11535W        W83960  12.169   6.569   4.672
11536W        W83961  31.136   9.357  13.050
11537W        W83962  44.457   6.976   4.567
11538W        W83963  26.037  43.057   2.279
11539W        W83964  29.924   6.669  10.667
11540W        W83965  17.413   0.991   0.940
11541W        W83966  41.365   5.856  10.630
11542W        W83967  41.752  20.581   0.504
11543W        W83968  22.526  20.719   1.985
11544W        W83969  33.245  38.672   5.067
11545W        W83970  40.324   3.708  12.455
11546W        W83971  19.019   1.224   0.394
11547W        W83972  25.480  27.364  14.694
11548W        W83973  31.516  16.579   3.374
11549W        W83974  40.694   4.101  12.068
11550W        W83975   7.802   3.532   2.246
11551W        W83976  27.845  28.985  13.005
11552W        W83977  35.974   5.408   3.832
11553W        W83978  44.202  11.232  14.418
11554W        W83979  23.704   5.887  14.055
11555W        W83980  43.317  31.611   2.314
11556W        W83981   8.831  34.080   0.732
11557W        W83982  20.254  25.885   3.649
11558W        W83983   4.327  14.649   1.849
11559W        W83984  18.100   4.368  13.419
11560W        W83985  34.108  35.561   3.655
11561W        W83986   6.610   3.765   1.612
11562W        W83987  16.593  20.485   3.771
11563W        W83988  34.499  16.837  14.462
11564W        W83989   4.059  14.324   0.039
11565W        W83990  23.179  20.692   1.354
11566W        W83991  25.526   8.456  14.260
11567W        W83992   0.827  25.085   2.718
11568W        W83993  15.766  42.768   2.221
11569W        W83994  17.069  31.980  13.580
11570W        W83995  29.630  39.385   3.414
11571W        W83996  11.269   6.219   0.795
11572W        W83997  32.413  10.723  13.372
11573W        W83998  33.482  42.432   1.954
11574W        W83999  31.804  19.672   4.125
11575W        W84000  12.293  24.849  12.950
11576W        W84001  15.225  29.819  12.464
11577W        W84002  14.359  21.653   2.813
11578W        W84003   1.198   6.509  13.005
11579W        W84004   0.247   4.860   4.142
11580W        W84005  24.873  21.152   5.543
11581W        W84006  42.074   8.469   2.861
11582W        W84007   5.167  17.112  14.457
11583W        W84008  31.575  24.191  13.320
11584W        W84009  12.004   4.056   5.072
11585W        W84010  22.134  36.955   0.951
11586W        W84011  30.212   4.595  14.365
11587W        W84012  15.131  33.183   1.423
11588W        W84013   5.855  43.202   2.238
11589W        W84014   5.609  40.767  14.992
11590W        W84015  42.882  24.543   4.154
11591W        W84016  14.335  16.432  12.332
11592W        W84017  35.049  15.960   4.546
11593W        W84018   1.994  22.007   0.061
11594W        W84019  21.593  29.797   1.748
11595W        W84020  34.132  13.803   0.405
11596W        W84021   9.198  17.895   0.910
11597W        W84022  14.442  22.835   0.443
11598W        W84023   1.985  40.414  14.940
11599W        W84024  30.534   1.905   4.577
11600W        W84025  12.763  33.526  11.471
11601W        W84026  15.923  39.395   2.791
11602W        W84027  23.910   6.498   2.305
11603W        W84028  39.341   4.907  13.159
11604W        W84029  16.078  32.894   4.638
11605W        W84030   9.762   0.356  12.055
11606W        W84031  40.589  21.528   4.605
11607W        W84032  20.178  43.772   4.677
11608W        W84033  17.719  32.534   0.761
11609W        W84034   2.392  43.461  10.723
11610W        W84035  18.771  10.247  12.945
11611W        W84036  12.924  25.496   4.303
11612W        W84037   1.746   8.565  14.854
11613W        W84038   9.019  38.531  11.461
11614W        W84039  24.169  40.706   3.751
11615W        W84040  27.649  39.775   2.783
11616W        W84041  26.884   9.840   0.463
11617W        W84042  43.720  41.828  12.529
11618W        W84043  26.711  36.144  13.301
11619W        W84044  41.071   5.258  10.959
11620W        W84045  30.551  28.202  13.061
11621W        W84046  18.813  12.038  12.142
11622W        W84047  22.417  37.270  11.008
11623W        W84048   3.752  25.489  13.451
11624W        W84049  16.775  11.340   3.661
11625W        W84050   6.649  15.680  10.807
11626W        W84051  39.447  20.072  10.997
11627W        W84052  26.476   2.356   4.709
11628W        W84053   2.931  36.702  12.630
11629W        W84054  41.992  16.109  13.786
11630W        W84055  44.879  37.247  13.447
11631W        W84056  34.722  20.518  10.250
11632W        W84057  30.150  12.654  11.475
11633W        W84058  30.528  19.089   3.676
11634W        W84059  21.696  17.047   2.231
11635W        W84060  36.710  13.783  13.799
11636W        W84061  17.540  11.303   4.134
11637W        W84062  18.641  28.017  11.366
11638W        W84063  35.447  18.570  12.640
11639W        W84064  31.152  29.784  13.989
11640W        W84065  25.565  27.337   0.718
11641W        W84066  30.240  12.274   4.407
11642W        W84067  19.113  22.727  13.059
11643W        W84068  19.110  27.730  11.178
11644W        W84069  38.837  23.632   1.396
11645W        W84070  29.571  36.575  14.089
11646W        W84071  37.379  14.684  12.109
11647W        W84072  24.005  40.255  12.539
11648W        W84073  30.185   4.517  13.186
11649W        W84074  43.012  33.577  10.411
11650W        W84075   9.137   0.488  14.454
11651W        W84076  27.682  36.151  10.675
11652W        W84077  39.491  31.676  14.971
11653W        W84078   3.335  15.687   5.019
11654W        W84079   2.357  18.638   0.404
11655W        W84080   9.363  14.861   0.426
11656W        W84081  23.453  34.454   1.956
11657W        W84082  34.985  11.845   2.145
11658W        W84083  41.370  34.665   2.836
11659W        W84084   7.144  15.802  10.745
11660W        W84085   0.679  22.685   2.240
11661W        W84086  38.449  31.860   1.213
11662W        W84087  39.010   0.509  11.734
11663W        W84088  36.440  37.990  11.858
11664W        W84089  13.410  13.673  13.914
11665W        W84090   2.662  13.729   0.771
11666W        W84091  26.013  19.353  10.698
11667W        W84092  39.912  31.729  12.093
11668W        W84093  13.591  28.390  12.052
11669W        W84094  43.072  23.453   0.063
11670W        W84095  21.684   4.475   0.671
11671W        W84096   5.823  33.933  14.996
11672W        W84097  43.841  35.319  12.310
11673W        W84098   8.192  12.704  14.241
11674W        W84099   3.923  22.693  12.104
11675W        W84100   9.955  35.484  13.814
11676W        W84101  33.076  23.149  13.042
11677W        W84102  15.178  15.980   3.595
11678W        W84103  28.475  40.905  13.213
11679W        W84104   7.855   5.349  11.332
11680W        W84105  25.774  24.642   1.239
11681W        W84106   5.541  24.007   2.878
11682W        W84107  17.655  32.613  14.834
11683W        W84108  28.174  37.031  11.550
11684W        W84109  18.326  33.992   4.194
11685W        W84110  20.728  40.906   3.497
11686W        W84111   1.793  36.925   0.769
11687W        W84112  17.561  14.348   4.153
11688W        W84113  11.391   8.565   3.784
11689W        W84114  30.487  32.962   4.190
11690W        W84115   6.782  39.531  13.855
11691W        W84116  26.490  39.399  12.166
11692W        W84117   2.711  30.048   0.378
11693W        W84118  21.661  16.636  12.161
11694W        W84119   3.725  24.099  10.747
11695W        W84120  40.802  36.596   1.444
11696W        W84121  31.204  15.651   0.042
11697W        W84122  20.204   4.183  12.738
11698W        W84123  34.316   0.789   4.660
11699W        W84124  39.001  28.418  12.924
11700W        W84125  10.813  13.307   2.437
11701W        W84126   5.328  11.365  10.511
11702W        W84127  43.355  15.959  13.492
11703W        W84128   6.154   2.425  11.140
11704W        W84129   7.520  41.904  10.794
11705W        W84130  10.654   4.262  11.915
11706W        W84131  19.019  41.834   0.467
11707W        W84132  42.744   1.712   3.318
11708W        W84133  38.500  33.980   3.476
11709W        W84134  42.599  27.818  10.049
11710W        W84135  32.220  35.125  11.801
11711W        W84136  11.320  40.948   4.185
11712W        W84137  31.346  31.615  11.051
11713W        W84138  17.729  41.321  10.928
11714W        W84139   3.929   4.074   2.002
11715W        W84140  20.106   2.345  13.302
11716W        W84141   1.918  13.886  14.809
11717W        W84142   0.815  27.036  14.770
11718W        W84143   2.855  42.368  11.874
11719W        W84144  32.011  39.989  14.877
11720W        W84145  15.525   6.195   0.804
11721W        W84146  28.237  41.822  10.654
11722W        W84147  10.527  39.805  10.311
11723W        W84148  20.004   8.280   1.989
11724W        W84149   2.930  41.997  11.077
11725W        W84150  40.314  17.679   2.333
11726W        W84151  36.165  38.430  12.448
11727W        W84152  14.760  37.178  11.604
11728W        W84153   4.891  11.287  13.394
11729W        W84154  31.426  39.430   2.167
11730W        W84155  12.617  10.918  13.977
11731W        W84156   3.588  41.032   3.163
11732W        W84157   6.311  43.550  13.359
11733W        W84158  33.575  16.837   3.141
11734W        W84159  38.315   4.279   4.028
11735W        W84160  41.849  41.947   4.284
11736W        W84161  12.262  29.914   0.466
11737W        W84162  11.606   9.880  12.439
11738W        W84163  18.713  23.624   2.621
11739W        W84164  20.867  31.613  13.067
11740W        W84165  37.780   5.725  10.486
11741W        W84166  39.085   9.418  14.348
11742W        W84167  16.152  10.203   3.119
11743W        W84168  30.026  39.647   3.231
11744W        W84169  44.946  22.108   4.327
11745W        W84170  36.313  13.898  12.490
11746W        W84171  31.403  25.889   0.386
11747W        W84172   0.133  36.532  11.194
11748W        W84173   4.260  30.455   2.802
11749W        W84174  33.484   6.885  10.600
11750W        W84175   5.525  35.472  14.073
11751W        W84176  39.037   8.294  10.450
11752W        W84177  35.416   3.781   1.863
11753W        W84178  23.020  26.942   0.850
11754W        W84179  28.910  25.017  11.365
11755W        W84180  44.114   5.765   2.260
11756W        W84181  30.552  32.894  11.351
11757W        W84182  18.032   3.158  12.578
11758W        W84183   2.793  22.705  12.547
11759W        W84184  43.198  33.912   4.981
11760W        W84185  24.830  35.657   0.945
11761W        W84186  34.160  32.391  12.493
11762W        W84187   0.465  27.077  10.559
11763W        W84188  22.734   4.735  14.891
11764W        W84189  38.459  43.483   0.725
11765W        W84190  14.548   0.454  10.392
11766W        W84191   7.133  20.541   4.582
11767W        W84192   8.365  39.059   0.376
11768W        W84193   0.151  42.288  14.082
11769W        W84194   1.773  27.561  13.411
11770W        W84195   2.946  42.080   4.678
11771W        W84196  21.147   6.123  13.045
11772W        W84197  44.504  41.849   4.969
11773W        W84198  14.651  36.000   5.049
11774W        W84199  31.478  17.561  14.785
11775W        W84200  14.934  27.570   1.940
11776W        W84201   7.663  27.034   3.730
11777W        W84202   9.285   0.998   1.229
11778W        W84203  20.038  31.558   2.085
11779W        W84204  26.578  33.548  14.806
11780W        W84205  25.511  29.897   0.351
11781W        W84206  41.451  12.862  13.308
11782W        W84207  25.070   8.832   2.794
11783W        W84208  18.786  19.081  12.371
11784W        W84209  26.425  23.697   3.263
11785W        W84210  14.754   6.194  14.302
11786W        W84211  29.662   8.409   4.096
11787W        W84212  35.272  14.905   3.161
11788W        W84213   3.373  35.137  12.585
11789W        W84214  15.388   6.778  14.453
11790W        W84215  30.368   7.677   4.582
11791W        W84216  27.134   1.648   0.457
11792W        W84217  12.051  36.945  13.911
11793W        W84218  28.729  37.832   3.747
11794W        W84219   9.419  28.510   2.795
11795W        W84220  34.035  36.504   4.276
11796W        W84221  20.992  34.857  11.055
11797W        W84222  43.333  16.640   4.346
11798W        W84223  24.476  37.620  13.325
11799W        W84224  21.089  25.272   2.761
11800W        W84225   9.678   1.029   1.869
11801W        W84226  36.461   9.425   5.120
11802W        W84227  11.067  21.129   2.718
11803W        W84228  12.631  38.510   4.480
11804W        W84229  13.660  28.121   0.725
11805W        W84230  34.394  40.458  11.179
11806W        W84231  37.707  40.805   2.485
11807W        W84232   8.004   9.389  10.417
11808W        W84233   5.977  29.015  14.985
11809W        W84234  14.961  28.920   0.424
11810W        W84235  30.203  21.809  14.943
11811W        W84236  28.663  18.767   4.598
11812W        W84237  10.648  32.571  14.526
11813W        W84238   4.784   7.406  12.349
11814W        W84239  36.373  17.281   1.771
11815W        W84240  39.958  19.630  11.565
11816W        W84241  44.292  11.866   4.262
11817W        W84242  41.460  14.700   5.042
11818W        W84243  32.791  19.237   0.527
11819W        W84244  39.382  29.179  10.702
11820W        W84245  22.208  35.045  12.960
11821W        W84246   2.681   3.445   0.088
11822W        W84247  42.044  11.214   3.812
11823W        W84248  42.744   4.303  12.591
11824W        W84249  31.873  32.477  11.109
11825W        W84250  23.918   5.867  12.547
11826W        W84251  39.424  35.818   2.841
11827W        W84252  24.266  38.700  10.613
11828W        W84253   6.996  33.377   3.999
11829W        W84254   3.968  36.709   3.238
11830W        W84255   2.809  22.355  11.128
11831W        W84256  18.612  11.037   1.491
11832W        W84257  10.902   2.311  13.591
11833W        W84258   9.739  36.854   0.995
11834W        W84259   3.481  32.066   0.779
11835W        W84260  18.230   8.662  10.763
11836W        W84261  26.966  16.412  11.227
11837W        W84262  38.924   7.673   4.603
11838W        W84263  23.621  25.170  12.447
11839W        W84264  41.386  11.303   3.646
11840W        W84265  21.619   4.906   1.435
11841W        W84266  16.173  42.749   3.699
11842W        W84267  25.911  32.141   9.739
11843W        W84268  39.471   6.110  14.793
11844W        W84269  34.929  24.434   1.485
11845W        W84270  39.463  20.793   2.061
11846W        W84271  32.401  10.223  14.043
11847W        W84272  37.803  44.557   0.022
11848W        W84273  22.929  16.727   0.416
11849W        W84274  20.044  40.875   1.307
11850W        W84275  10.281  19.451   2.243
11851W        W84276  18.531  10.669  13.165
11852W        W84277   5.420   8.732  11.518
11853W        W84278  18.459  43.830   4.294
11854W        W84279  25.969  29.245  12.028
11855W        W84280  33.605  41.947  13.803
11856W        W84281  26.843   6.098  14.369
11857W        W84282  42.665  27.287  14.932
11858W        W84283  23.009   2.207   1.861
11859W        W84284  39.790   9.108  13.826
11860W        W84285  42.354  24.632   0.773
11861W        W84286  25.393   5.250   1.432
11862W        W84287  35.928   5.138  12.493
11863W        W84288  41.043  26.028   2.756
11864W        W84289  31.040   0.661  11.194
11865W        W84290  44.948  14.284  14.724
11866W        W84291   0.759   7.397   0.407
11867W        W84292   1.037  21.584  12.053
11868W        W84293  35.443  25.248   2.029
11869W        W84294   7.799  26.836  13.049
11870W        W84295  42.874  30.422  12.379
11871W        W84296  37.663  11.318   2.952
11872W        W84297  12.576   9.755  13.830
11873W        W84298  34.513  16.050  11.593
11874W        W84299   6.211  25.435  13.819
11875W        W84300  35.560  15.740   2.322
11876W        W84301  13.599  13.142  13.104
11877W        W84302  39.022  29.156   4.600
11878W        W84303  41.343  40.208  10.400
11879W        W84304  37.339  19.327   2.706
11880W        W84305  36.853   8.970   0.766
11881W        W84306  19.637  29.206  10.717
11882W        W84307  44.348  23.609  12.169
11883W        W84308  36.424  21.485   4.123
11884W        W84309  24.241  11.660  13.700
11885W        W84310   0.277   0.939  14.854
11886W        W84311  41.492  17.479   4.313
11887W        W84312  32.806  15.613   4.157
11888W        W84313  17.614  24.051  11.709
11889W        W84314  28.019   8.196   3.669
11890W        W84315  26.781   5.608   2.290
11891W        W84316  26.978  31.970   1.859
11892W        W84317  44.779  16.369   1.492
11893W        W84318   9.565  30.602   1.302
11894W        W84319  11.455  43.546  12.922
11895W        W84320   7.887  15.339  12.019
11896W        W84321  37.806  17.779  12.043
11897W        W84322   9.377  40.289   1.098
11898W        W84323  22.044  44.222   4.809
11899W        W84324  43.144   2.542  11.058
11900W        W84325  28.083  32.819   4.142
11901W        W84326  40.045  18.276   2.428
11902W        W84327  23.711  21.604   1.663
11903W        W84328  28.982  14.099   4.400
11904W        W84329  22.626  42.810   2.187
11905W        W84330  23.795  39.936   2.300
11906W        W84331  24.472  35.393   1.861
11907W        W84332  21.606  26.594   2.432
11908W        W84333  12.619  18.510  14.747
11909W        W84334  20.826  25.278  11.523
11910W        W84335  19.524  14.275  10.446
11911W        W84336  31.500  26.942  10.976
11912W        W84337   3.470  12.534   0.986
11913W        W84338  27.946  37.048   4.955
11914W        W84339  21.587  34.982   1.828
11915W        W84340  30.489  24.692   3.751
11916W        W84341  39.365  19.519   0.278
11917W        W84342  33.529  43.806   1.311
11918W        W84343  43.402   3.759  10.734
11919W        W84344   5.977  32.962  14.676
11920W        W84345  13.408  32.258   3.748
11921W        W84346  40.858  17.273   3.563
11922W        W84347  35.602   0.117   3.665
11923W        W84348  31.639  33.630  11.963
11924W        W84349  22.620  34.653   2.936
11925W        W84350  14.086  37.479  12.008
11926W        W84351  36.006  20.897  12.240
11927W        W84352  31.645   6.774  12.098
11928W        W84353  41.021   1.449  11.595
11929W        W84354  15.160  42.583  12.983
11930W        W84355  42.279  27.802   1.164
11931W        W84356  26.559  40.931   1.986
11932W        W84357  15.848   9.024   4.374
11933W        W84358  24.492  37.898  11.153
11934W        W84359  42.514  40.402  11.546
11935W        W84360  21.805  40.334  13.040
11936W        W84361  40.990  10.911  14.209
11937W        W84362   5.130  14.640  11.510
11938W        W84363  15.611  35.528  10.574
11939W        W84364   9.667  27.382  12.202
11940W        W84365  15.224  17.713  11.636
11941W        W84366  19.269  36.624   2.752
11942W        W84367   5.138  28.497   4.306
11943W        W84368  19.678  40.189   0.388
11944W        W84369  30.130  16.493  11.438
11945W        W84370  19.735  38.445  14.505
11946W        W84371   6.885  31.634  11.883
11947W        W84372   5.642  39.489   0.743
11948W        W84373   2.158  14.100   2.582
11949W        W84374  17.756   7.432  13.602
11950W        W84375   5.810  27.935   3.767
11951W        W84376  20.664  31.894   2.617
11952W        W84377  29.393  12.888   2.327
11953W        W84378  43.330  35.172   3.216
11954W        W84379  39.224  32.043   0.228
11955W        W84380  37.588   5.530  13.450
11956W        W84381  16.318  11.646  11.188
11957W        W84382   4.745  18.272   2.090
11958W        W84383   9.477  19.200  11.046
11959W        W84384   6.936  31.418   2.352
11960W        W84385   7.870  20.533  11.591
11961W        W84386  43.731   5.349   1.386
11962W        W84387   7.488  24.913   4.112
11963W        W84388   7.165  31.594  10.704
11964W        W84389  10.121  10.671  10.052
11965W        W84390  10.091   4.282  10.176
11966W        W84391  25.499  20.161   2.941
11967W        W84392  30.160  29.366  10.956
11968W        W84393   7.641  22.716  11.898
11969W        W84394   5.859   2.887  14.720
11970W        W84395   1.398  25.548   0.506
11971W        W84396  13.580  10.107   2.158
11972W        W84397  40.275  19.606   2.203
11973W        W84398  37.307  33.960  11.311
11974W        W84399   5.431  10.594  10.909
11975W        W84400   5.886  38.543   2.377
11976W        W84401  33.458  20.605   3.186
11977W        W84402  43.769  22.318   0.143
11978W        W84403  12.830  23.000   4.301
11979W        W84404  39.555   6.886  14.910
11980W        W84405  28.879  25.273  12.459
11981W        W84406  33.815   4.860   2.375
11982W        W84407   4.756  26.456   4.245
11983W        W84408  13.385   4.328   4.756
11984W        W84409   0.936  38.837   2.209
11985W        W84410  29.498  22.559   4.276
11986W        W84411  17.598  38.334  10.567
11987W        W84412   1.237  17.085  12.476
11988W        W84413  44.517  15.219   4.993
11989W        W84414  17.391  15.260  10.310
11990W        W84415  26.432  22.002   4.997
11991W        W84416  18.633  26.956   3.804
11992W        W84417  29.641  15.453   3.963
11993W        W84418   8.805  34.728   2.419
11994W        W84419  29.838  11.506  13.900
11995W        W84420  38.964  37.558   5.014
11996W        W84421  23.979  21.212  14.791
11997W        W84422  17.584   9.860  12.013
11998W        W84423   7.185  28.621   0.687
11999W        W84424  37.085  10.321  13.785
12000W        W84425  41.893  39.969  12.099
12001W        W84426  23.253  20.291  12.363
12002W        W84427  17.997  24.951   4.513
12003W        W84428   7.162  18.268   0.579
12004W        W84429  24.737   5.343  11.097
12005W        W84430   9.412   0.674  12.308
12006W        W84431  34.974  43.494  14.799
12007W        W84432  28.020  16.846  11.111
12008W        W84433  42.045  28.047   3.347
12009W        W84434  32.639  43.168   0.287
12010W        W84435   7.876  23.108  12.181
12011W        W84436  12.304  16.375   3.510
12012W        W84437  27.552  36.616  10.942
12013W        W84438  15.788  11.359   3.195
12014W        W84439   6.468  34.928   2.874
12015W        W84440  16.003  24.993   3.728
12016W        W84441  12.259  26.409  13.193
12017W        W84442  12.795   8.789  13.825
12018W        W84443  12.779  37.612  11.471
12019W        W84444   0.043   8.998   2.292
12020W        W84445  41.723   4.325   3.274
12021W        W84446  22.350  40.868   4.561
12022W        W84447   3.033  12.816   1.751
12023W        W84448  13.331   6.920   1.158
12024W        W84449  23.712  13.325  10.646
12025W        W84450  12.526  39.423   3.266
12026W        W84451   7.637  41.382  12.557
12027W        W84452  23.664  38.829   3.488
12028W        W84453   0.016  40.865   4.597
12029W        W84454  18.572  21.468  14.017
12030W        W84455   0.050   0.478  14.932
12031W        W84456   5.545  29.403   0.892
12032W        W84457  12.746  34.972   0.485
12033W        W84458  35.454  13.497   0.084
12034W        W84459  12.978   2.937   0.397
12035W        W84460   1.423  32.945  12.924
12036W        W84461  43.247  13.725  12.213
12037W        W84462  23.034  33.619  11.063
12038W        W84463  23.281   4.725  13.947
12039W        W84464  38.293   6.301  12.112
12040W        W84465  24.161  43.900  13.612
12041W        W84466  20.458  15.796  10.388
12042W        W84467  43.696  39.289   1.202
12043W        W84468  21.644   7.646   0.088
12044W        W84469  32.841  15.434  13.302
12045W        W84470  12.380  18.213   0.482
12046W        W84471   3.052   4.971   1.028
12047W        W84472  21.127  28.891   0.993
12048W        W84473  40.063   3.715   1.652
12049W        W84474   8.262  38.033   2.121
12050W        W84475   4.218   3.857  11.533
12051W        W84476  13.094  43.905  10.985
12052W        W84477   5.432  21.666   2.661
12053W        W84478  14.707  36.822   3.203
12054W        W84479   0.160  29.053   0.496
12055W        W84480   1.889  30.896   1.613
12056W        W84481   7.104  38.512  14.665
12057W        W84482  42.932   7.383   4.205
12058W        W84483   6.987  17.156  14.977
12059W        W84484  27.697  29.105   4.551
12060W        W84485  30.567  20.308   4.039
12061W        W84486  37.486  41.013   4.046
12062W        W84487  43.854  37.115  13.393
12063W        W84488   9.327  25.031   2.994
12064W        W84489   4.755  38.339   4.658
12065W        W84490  42.409  30.049   1.569
12066W        W84491  27.954  20.763  11.398
12067W        W84492  39.293  23.738   2.366
12068W        W84493   0.240  29.664  13.547
12069W        W84494   8.770  26.716   2.661
12070W        W84495  28.520  10.078   0.227
12071W        W84496  40.338   4.462   4.570
12072W        W84497  26.272  14.726   2.209
12073W        W84498  26.584  39.900  13.809
12074W        W84499  28.664  38.805  11.631
12075W        W84500  29.542  25.151   3.683
12076W        W84501  29.059  12.187  14.595
12077W        W84502   0.696  19.616  13.529
12078W        W84503  27.563   1.833   4.393
12079W        W84504   1.018  34.533   4.064
12080W        W84505   8.781  11.137   4.345
12081W        W84506  15.262  43.407   4.617
12082W        W84507  18.021  31.938   0.047
12083W        W84508  25.537  27.160   2.252
12084W        W84509  23.670  22.186  14.403
12085W        W84510  26.367  34.834   0.276
12086W        W84511  30.419  11.048   1.847
12087W        W84512   1.469   4.641  10.930
12088W        W84513  29.035  17.312  10.482
12089W        W84514  39.963  26.812   0.076
12090W        W84515  18.082  43.808   2.872
12091W        W84516  23.236  15.084  12.026
12092W        W84517  32.984  26.118   1.351
12093W        W84518  25.358  41.959   1.837
12094W        W84519  16.522  42.403  12.603
12095W        W84520  31.735  44.545  14.885
12096W        W84521  42.838   5.458   1.277
12097W        W84522  32.709  25.782   3.731
12098W        W84523  25.095  19.064  14.893
12099W        W84524  21.692  24.782  13.557
12100W        W84525  41.837  39.720  11.627
12101W        W84526  15.240  27.980   2.656
12102W        W84527  29.391  40.473  12.076
12103W        W84528  10.666  44.785   1.302
12104W        W84529  17.166  10.126   3.207
12105W        W84530  34.912   0.817  14.852
12106W        W84531  20.075   5.980  11.552
12107W        W84532  31.580  17.460   0.728
12108W        W84533  29.508  36.572  13.590
12109W        W84534  38.598  24.210  13.236
12110W        W84535  11.562   3.894   2.745
12111W        W84536  30.023  24.172  14.469
12112W        W84537   3.930  33.169   0.379
12113W        W84538  11.183  21.176  13.516
12114W        W84539   3.830  42.307  13.992
12115W        W84540  43.012  19.137   1.389
12116W        W84541   8.678  17.994  13.763
12117W        W84542  35.168  27.447   2.106
12118W        W84543  22.194  43.220  11.020
12119W        W84544  21.283  10.758  14.396
12120W        W84545  27.903  21.474   9.732
12121W        W84546  38.324   2.171  11.860
12122W        W84547  28.037  24.025   2.205
12123W        W84548  30.587  34.358   2.227
12124W        W84549  26.701  19.678   2.985
12125W        W84550  11.070  42.740   4.657
12126W        W84551   7.906  14.052   4.974
12127W        W84552  15.774   4.046   5.098
12128W        W84553  24.217  24.773   1.861
12129W        W84554  31.935  33.173  12.546
12130W        W84555   1.943   0.931  12.612
12131W        W84556   0.406  17.131  12.965
12132W        W84557  25.921  29.165   2.843
12133W        W84558  39.496  31.200   1.417
12134W        W84559  30.189  41.558   0.842
12135W        W84560  13.440   7.690  13.059
12136W        W84561  32.079  15.318   0.821
12137W        W84562   7.679  18.252  14.471
12138W        W84563  16.667   4.511  10.464
12139W        W84564  13.536  24.039   0.767
12140W        W84565   5.458  44.959  13.148
12141W        W84566  19.073  20.303  13.831
12142W        W84567  10.916  14.478  13.473
12143W        W84568   8.694  44.374   2.533
12144W        W84569  32.500  41.604  14.472
12145W        W84570  37.969  31.672   4.044
12146W        W84571  32.692   3.251   4.826
12147W        W84572  36.569  19.793   0.792
12148W        W84573  44.446  40.488  13.999
12149W        W84574   9.434   7.284   3.251
12150W        W84575  42.330   2.603   2.275
12151W        W84576  17.102  30.881  13.528
12152W        W84577  29.982  24.577   1.909
12153W        W84578   5.050  34.842   0.043
12154W        W84579  39.823  40.241  11.847
12155W        W84580  38.822  29.999  11.499
12156W        W84581  44.869  33.155  12.799
12157W        W84582  25.353  38.149   1.488
12158W        W84583  42.925  14.671   4.768
12159W        W84584   3.479  13.592   2.781
12160W        W84585   6.313  18.131  12.632
12161W        W84586  22.423  34.861   2.367
12162W        W84587  34.152  39.673  13.373
12163W        W84588   4.448  35.914   3.167
12164W        W84589  36.411  25.072   3.814
12165W        W84590  18.111  20.152  12.107
12166W        W84591   4.755  14.293  13.418
12167W        W84592  10.118  33.304   3.711
12168W        W84593  39.010  17.832  11.188
12169W        W84594  43.872  17.513  12.824
12170W        W84595  35.885  43.509  11.211
12171W        W84596  42.802  25.232   0.887
12172W        W84597  29.591  27.562  12.750
12173W        W84598  11.819  20.903   1.738
12174W        W84599  35.795  14.789  10.509
12175W        W84600  19.452  40.264  12.963
12176W        W84601  42.714   1.986  14.001
12177W        W84602  20.301  23.746   4.183
12178W        W84603  27.207   1.459  14.402
12179W        W84604  11.431  43.354   1.376
12180W        W84605  12.159  11.384   3.817
12181W        W84606  17.023   6.900  11.024
12182W        W84607  16.617  31.721   0.162
12183W        W84608  22.977  37.728  11.748
12184W        W84609  17.945  14.707  13.344
12185W        W84610   1.225   8.994   2.756
12186W        W84611  35.466  14.210  12.151
12187W        W84612  40.312  24.507   3.196
12188W        W84613  41.059   2.412   1.684
12189W        W84614  28.255  42.084   2.317
12190W        W84615  13.237  19.524  11.690
12191W        W84616  18.624   8.255   3.380
12192W        W84617  32.010  26.606  10.493
12193W        W84618   8.946  15.363  12.049
12194W        W84619  11.931   6.534  12.397
12195W        W84620  12.663  38.835   4.089
12196W        W84621  35.516  33.083  13.297
12197W        W84622  16.986  13.188   4.265
12198W        W84623   5.919  27.030   3.994
12199W        W84624  42.817  41.042   0.542
12200W        W84625   0.481  43.897   4.608
12201W        W84626  31.462  31.628  11.948
12202W        W84627  27.022   4.412  11.062
12203W        W84628  21.151  23.178  10.705
12204W        W84629  38.519  38.661  13.946
12205W        W84630   1.731  36.139  11.601
12206W        W84631  43.032  14.264   3.292
12207W        W84632  26.041  32.726   4.351
12208W        W84633  40.868  35.344  12.884
12209W        W84634  17.218  20.909  14.008
12210W        W84635  26.385  10.025  10.199
12211W        W84636  10.346   1.046  11.950
12212W        W84637  20.611  36.537  12.031
12213W        W84638   0.338  40.754   3.603
12214W        W84639  44.974  28.956   2.426
12215W        W84640   7.064  30.522   2.830
12216W        W84641  34.583  41.319   4.378
12217W        W84642  32.396   5.247   2.315
12218W        W84643  44.701  14.202   4.216
12219W        W84644   0.746   8.096  10.542
12220W        W84645  33.521   9.868  11.560
12221W        W84646  44.707  15.143  12.935
12222W        W84647   3.839   0.643   3.236
12223W        W84648  35.910  39.106   3.242
12224W        W84649   0.259  41.594  13.477
12225W        W84650  16.822  13.865   4.726
12226W        W84651  34.879  31.187   4.163
12227W        W84652  13.390   0.421   3.366
12228W        W84653  17.873  34.863   0.572
12229W        W84654  30.235  38.579  11.570
12230W        W84655  40.716  42.897  10.987
12231W        W84656  35.927  29.908  10.827
12232W        W84657  26.410  44.193  13.029
12233W        W84658  43.244  40.993  10.618
12234W        W84659  41.971  33.878   3.569
12235W        W84660  44.453   7.700  12.001
12236W        W84661  35.267  14.389  13.252
12237W        W84662   7.633   1.276   4.896
12238W        W84663  17.006  37.994  11.094
12239W        W84664  21.753  14.344  14.252
12240W        W84665   0.755  35.997   4.999
12241W        W84666  23.580   3.058  10.666
12242W        W84667  40.488   3.040   1.612
12243W        W84668  23.127  23.818   1.830
12244W        W84669  29.871   5.831   2.272
12245W        W84670  27.686   4.755   1.426
12246W        W84671  18.077  13.893   0.313
12247W        W84672  21.165  22.657   1.594
12248W        W84673  16.030  22.097  11.885
12249W        W84674   1.398   8.921   2.236
12250W        W84675  22.433  30.970  12.503
12251W        W84676   1.825  29.628   4.088
12252W        W84677   4.428  17.104  13.456
12253W        W84678   9.994  23.999   0.799
12254W        W84679   4.817  20.052   4.635
12255W        W84680   6.337   8.449  11.478
12256W        W84681  30.230   0.308  13.894
12257W        W84682   3.789  20.175   3.048
12258W        W84683  21.534  28.951  13.866
12259W        W84684   8.397  40.467   0.903
12260W        W84685  27.710   6.182  12.231
12261W        W84686  36.845  22.153   4.575
12262W        W84687  24.505  16.650  10.781
12263W        W84688   1.945   3.926  14.373
12264W        W84689  14.826  25.532   3.866
12265W        W84690  11.654  33.686   5.130
12266W        W84691  13.231  24.119   1.198
12267W        W84692  25.384  29.886   1.845
12268W        W84693  17.898  44.476  13.890
12269W        W84694  16.758  18.624  14.518
12270W        W84695  17.798  25.933  10.571
12271W        W84696  10.966  35.307  14.034
12272W        W84697   9.916   7.679   1.854
12273W        W84698   9.261   7.972   2.717
12274W        W84699  44.879   7.167  10.564
12275W        W84700  12.330   3.289   4.552
12276W        W84701  36.362  10.153   0.785
12277W        W84702   6.381  31.661  13.894
12278W        W84703  43.027  38.307  11.219
12279W        W84704  19.800   8.452  12.965
12280W        W84705  41.290  28.146   2.753
12281W        W84706  35.441  20.821  14.422
12282W        W84707  35.497  38.819  12.365
12283W        W84708  43.989  21.515  13.430
12284W        W84709  32.496   5.585   1.342
12285W        W84710  41.251  22.892   0.346
12286W        W84711  32.424  41.233   3.250
12287W        W84712  31.438  37.628   1.231
12288W        W84713  17.908  41.449   0.841
12289W        W84714  36.454   5.743   5.353
12290W        W84715  24.745  28.266   2.457
12291W        W84716  21.917  37.446  10.950
12292W        W84717  19.183  15.978   3.190
12293W        W84718  44.210   8.093   2.693
12294W        W84719  17.781  40.292   1.393
12295W        W84720  42.749  21.709   0.779
12296W        W84721  34.810  35.341   2.336
12297W        W84722  42.380  11.580   4.656
12298W        W84723  44.722  27.590  10.446
12299W        W84724  30.881  15.169  13.988
12300W        W84725  33.048  29.661   1.863
12301W        W84726  22.793  21.287  10.905
12302W        W84727  31.247  25.518  13.383
12303W        W84728  24.194  36.384   4.316
12304W        W84729  27.190  36.423  14.333
12305W        W84730  33.113  14.027   2.693
12306W        W84731  35.117  38.089   4.053
12307W        W84732  42.286  11.681   0.480
12308W        W84733   6.938  29.619   1.845
12309W        W84734   9.368  10.843   0.054
12310W        W84735   3.851  31.402  14.834
12311W        W84736  43.172   0.294  14.929
12312W        W84737  23.521   9.173   2.138
12313W        W84738   2.342  10.831   0.022
12314W        W84739  24.674  40.906  12.550
12315W        W84740  26.100  18.399  12.327
12316W        W84741  44.531  27.422  11.822
12317W        W84742  21.525   2.465   2.772
12318W        W84743  32.255   3.423  10.769
12319W        W84744  39.504  35.625  13.002
12320W        W84745  19.777  32.556   1.952
12321W        W84746  41.665  40.763   3.603
12322W        W84747  32.590  29.654  13.130
12323W        W84748   2.773  15.155  11.270
12324W        W84749  25.062  23.332  12.020
12325W        W84750   4.691   0.812   2.281
12326W        W84751  30.758  40.452   5.067
12327W        W84752  38.319  21.681  13.899
12328W        W84753   8.390  17.429   1.366
12329W        W84754  21.539  24.219   0.579
12330W        W84755  12.766  34.953  14.434
12331W        W84756   9.118  12.113   4.549
12332W        W84757  44.498  30.662   5.076
12333W        W84758  13.380  16.750  14.424
12334W        W84759  20.530  26.194  11.640
12335W        W84760  22.271  28.421   0.858
12336W        W84761  18.573  23.451   4.640
12337W        W84762  42.449  41.324  10.953
12338W        W84763   4.899  10.874  13.048
12339W        W84764   4.306  26.887  12.878
12340W        W84765  33.545  36.279   4.064
12341W        W84766  30.422  42.887   4.629
12342W        W84767  41.200   6.100  11.087
12343W        W84768  22.211  13.264   1.143
12344W        W84769   8.359  35.628  13.769
12345W        W84770   3.359   0.039   2.791
12346W        W84771   2.837  44.817   4.760
12347W        W84772  28.249   0.808   4.110
12348W        W84773   9.696  44.228   1.365
12349W        W84774  35.479  26.248  14.275
12350W        W84775  20.166  38.128  14.497
12351W        W84776  10.617   9.391  10.473
12352W        W84777   6.303  37.925   4.898
12353W        W84778  41.835  28.596  12.151
12354W        W84779  36.086   1.396   0.520
12355W        W84780  44.858  36.233   4.116
12356W        W84781  42.834  27.601  11.847
12357W        W84782  29.578  24.346  11.015
12358W        W84783   1.655   4.276  14.778
12359W        W84784  18.241   3.794   1.480
12360W        W84785  43.036  11.613   0.838
12361W        W84786  28.428   3.916  11.167
12362W        W84787  36.972   9.876   0.322
12363W        W84788   7.176  12.438  12.929
12364W        W84789   3.298  43.553  12.843
12365W        W84790  26.130   7.340   4.302
12366W        W84791   4.527  43.538   2.387
12367W        W84792  15.392  16.081  13.440
12368W        W84793  27.565  20.819  14.330
12369W        W84794  30.801  26.626  12.209
12370W        W84795   3.500  20.626  11.127
12371W        W84796  17.239  27.128  13.107
12372W        W84797  10.102   9.928   2.804
12373W        W84798   3.610   1.248   2.408
12374W        W84799  19.552  34.399   4.884
12375W        W84800   4.215  11.373   3.858
12376W        W84801  22.533  15.909   1.639
12377W        W84802   3.277   9.400   0.008
12378W        W84803  36.362  14.286   4.514
12379W        W84804  17.522  40.550  14.008
12380W        W84805  33.456  19.860   0.829
12381W        W84806  42.985  28.138   4.163
12382W        W84807   6.505  38.137   4.344
12383W        W84808  32.654  32.155  11.047
12384W        W84809  20.617  35.144  12.574
12385W        W84810  42.111  28.623   0.041
12386W        W84811  20.158   8.392  12.481
12387W        W84812   8.408  21.186  12.486
12388W        W84813  13.866  20.951  10.658
12389W        W84814   3.261   5.362   4.541
12390W        W84815   8.031  41.345   4.266
12391W        W84816  30.202   9.792   1.244
12392W        W84817  25.181  16.240  12.424
12393W        W84818   3.009  21.535   0.842
12394W        W84819  12.478  20.966  13.514
12395W        W84820   7.893  22.052   1.870
12396W        W84821  17.663  16.764   0.301
12397W        W84822  25.558  17.053   2.759
12398W        W84823  19.767  14.704   3.343
12399W        W84824  29.787  12.996  12.288
12400W        W84825   3.853  26.873  14.080
12401W        W84826  44.493   1.014  12.014
12402W        W84827  19.583   0.015  11.853
12403W        W84828   8.342  27.002   3.132
12404W        W84829  20.632  12.992  13.949
12405W        W84830  21.051  10.729   1.247
12406W        W84831  35.842  28.496   4.618
12407W        W84832  22.331  15.138  12.287
12408W        W84833  17.601  10.705   2.731
12409W        W84834   9.159  13.743   4.366
12410W        W84835  11.618   1.487   1.708
12411W        W84836  22.703  22.785  12.902
12412W        W84837  16.163  25.885  12.393
12413W        W84838  18.560  43.571  12.032
12414W        W84839  43.798   4.570   0.368
12415W        W84840  14.394  24.004  10.103
12416W        W84841  43.908  22.529   4.930
12417W        W84842   2.391  36.621  12.121
12418W        W84843  22.325  27.512  14.946
12419W        W84844  41.560  10.281  11.165
12420W        W84845  12.066  44.782  13.764
12421W        W84846  28.554  20.213  14.123
12422W        W84847  22.113  32.033  10.773
12423W        W84848  37.978  31.532  11.847
12424W        W84849  33.225  32.092  14.832
12425W        W84850   7.666  39.816  12.891
12426W        W84851  13.281  26.431  13.915
12427W        W84852   1.529  27.586  12.950
12428W        W84853   3.917   6.092   3.184
12429W        W84854  12.874  42.819   4.092
12430W        W84855  40.839   3.317  13.900
12431W        W84856  30.051  14.596   1.781
12432W        W84857  32.592  40.234   0.049
12433W        W84858   2.644  21.535  12.905
12434W        W84859   8.682  24.999   4.630
12435W        W84860  15.674  16.636  10.603
12436W        W84861  19.328  40.824   4.114
12437W        W84862   7.561  16.802   0.208
12438W        W84863   1.293  35.858   4.181
12439W        W84864  21.806  19.768  12.781
12440W        W84865  39.677   8.515  13.018
12441W        W84866  30.521  20.961  11.446
12442W        W84867  16.228  13.325   0.423
12443W        W84868  42.733  17.367  13.479
12444W        W84869  38.983  19.361  13.427
12445W        W84870  20.269   3.281   0.239
12446W        W84871  40.542  24.146   5.071
12447W        W84872   2.815  23.917   4.727
12448W        W84873  31.416   7.535   3.770
12449W        W84874  21.268  36.954   3.665
12450W        W84875  27.147  38.441   3.440
12451W        W84876  21.922  32.134  14.142
12452W        W84877  40.447  41.748  13.529
12453W        W84878  32.327  22.187  10.739
12454W        W84879   9.105  15.113  11.391
12455W        W84880  10.443  22.481   4.235
12456W        W84881   3.684  32.528  14.544
12457W        W84882  37.401  40.499  13.760
12458W        W84883  19.601  31.719   1.871
12459W        W84884  21.230   6.864   1.807
12460W        W84885  23.552  40.241   2.748
12461W        W84886  29.181   7.449  13.975
12462W        W84887  29.464   5.437  13.775
12463W        W84888  29.414  18.279   1.851
12464W        W84889   3.321   5.903   2.407
12465W        W84890  43.854  23.530  13.518
12466W        W84891  15.918  43.620   1.219
12467W        W84892  13.620  14.215   2.752
12468W        W84893  30.388  36.350  12.033
12469W        W84894  11.567  34.464   1.658
12470W        W84895  41.983   8.307  13.505
12471W        W84896  37.054  32.380   0.889
12472W        W84897  14.037  19.915   2.173
12473W        W84898  42.907  32.711   4.623
12474W        W84899   4.378   8.799   0.305
12475W        W84900  30.479  44.920  12.907
12476W        W84901  23.065  20.337  11.881
12477W        W84902  25.064  28.033   0.809
12478W        W84903  16.616   2.367  14.505
12479W        W84904  16.791  32.573   0.164
12480W        W84905  19.169   8.015  12.434
12481W        W84906   8.192  26.440  12.108
12482W        W84907   6.121  15.576  14.932
12483W        W84908  38.335  12.681  13.051
12484W        W84909  31.661  20.397  13.450
12485W        W84910  35.287   4.507  12.537
12486W        W84911  22.959   6.187  12.461
12487W        W84912  36.301  19.811  14.296
12488W        W84913  41.149  27.795   4.620
12489W        W84914  19.138  43.122  14.836
12490W        W84915  14.103  25.514  13.976
12491W        W84916  11.280  28.027  14.474
12492W        W84917   9.197  27.408   2.378
12493W        W84918   7.228   7.998  12.084
12494W        W84919  31.181  25.495   3.587
12495W        W84920  18.030  12.260   4.662
12496W        W84921  12.188  25.180   5.198
12497W        W84922  43.507  28.730   3.727
12498W        W84923  44.902  11.310   3.893
12499W        W84924   0.122   2.992   1.301
12500W        W84925   5.393   5.421  13.818
12501W        W84926  42.054  18.784  14.087
12502W        W84927  33.726  21.082   3.215
12503W        W84928  27.926  38.836   5.045
12504W        W84929   7.746  44.589   0.352
12505W        W84930   2.824  15.170  14.922
12506W        W84931   9.348  37.573  11.606
12507W        W84932  21.971  16.272   3.722
12508W        W84933  11.581  38.259  12.048
12509W        W84934  34.076  26.990   0.903
12510W        W84935   8.635  11.850   3.750
12511W        W84936  34.205  22.485  14.896
12512W        W84937  14.112  39.900   1.548
12513W        W84938  11.660   4.718  11.651
12514W        W84939  24.624  30.210   4.473
12515W        W84940  11.316  22.489   2.328
12516W        W84941   4.160  20.456   2.184
12517W        W84942   7.565  12.850  12.230
12518W        W84943  42.388  26.003   1.536
12519W        W84944  16.583  14.334   4.830
12520W        W84945  25.008   5.970   2.560
12521W        W84946  36.301  35.110   1.756
12522W        W84947  28.076  35.931  12.896
12523W        W84948  37.991  28.376   3.793
12524W        W84949  16.257   2.312  13.071
12525W        W84950  28.426  29.102  11.440
12526W        W84951  10.808  17.126   0.055
12527W        W84952  10.308  20.036  12.517
12528W        W84953  15.401  15.246   1.279
12529W        W84954  26.997  27.605   3.196
12530W        W84955  28.949  24.516   2.440
12531W        W84956  16.746  10.121  13.790
12532W        W84957   6.816  40.826  14.111
12533W        W84958  13.046   3.430  13.406
12534W        W84959  18.433  28.668  10.749
12535W        W84960  36.407  42.624   1.265
12536W        W84961  16.430  25.018   4.618
12537W        W84962  36.222  24.294   3.364
12538W        W84963  27.202  21.527  13.786
12539W        W84964  19.783  10.598  12.990
12540W        W84965  20.715   2.807  11.759
12541W        W84966  34.590  20.869   4.669
12542W        W84967  11.054  10.185   4.386
12543W        W84968  41.948  31.161  12.052
12544W        W84969  21.926  19.504  11.649
12545W        W84970   7.226  19.395   1.228
12546W        W84971  16.091   8.748   3.733
12547W        W84972  26.673  12.203  11.633
12548W        W84973   9.559  23.262   1.826
12549W        W84974  13.087  27.936   2.409
12550W        W84975  16.560   5.248   1.921
12551W        W84976  36.019  44.326   4.544
12552W        W84977  28.168  24.977   3.822
12553W        W84978  39.795  39.033   4.536
12554W        W84979  43.330   4.327   1.749
12555W        W84980  11.196  39.381  12.985
12556W        W84981  27.435  34.139  14.762
12557W        W84982  34.371  31.940  12.494
12558W        W84983  38.875  22.925   4.062
12559W        W84984  27.148  13.571   3.236
12560W        W84985  38.463  39.255   4.567
12561W        W84986  11.608  38.351   4.451
12562W        W84987   5.460   5.320   2.245
12563W        W84988  31.127  29.059  14.488
12564W        W84989  25.192  42.005  14.011
12565W        W84990  35.950   7.319  10.871
12566W        W84991   6.713  29.039   2.525
12567W        W84992   4.126  20.222  12.036
12568W        W84993  33.831  21.798  11.932
12569W        W84994   5.217  11.541   0.037
12570W        W84995  40.450  18.792  10.507
12571W        W84996  19.071  13.495   1.524
12572W        W84997   2.482  23.057   1.384
12573W        W84998  25.149  23.476   3.311
12574W        W84999  34.856  35.851   2.405
12575W        W85000   3.995  32.229  14.246
12576W        W85001  41.355  22.680   4.636
12577W        W85002  17.591  19.213  10.596
12578W        W85003  39.595  26.195  13.836
12579W        W85004  21.516  15.688  10.282
12580W        W85005  31.405  13.359  13.730
12581W        W85006  29.191  21.653   4.595
12582W        W85007  35.937  41.593   3.168
12583W        W85008  34.436  19.630  11.901
12584W        W85009  29.516  14.907   4.085
12585W        W85010  28.796   4.826   3.587
12586W        W85011  10.364  27.620  12.850
12587W        W85012  26.681  35.316  13.910
12588W        W85013  44.714  22.763  10.582
12589W        W85014  19.489  14.873   1.497
12590W        W85015   7.852  24.700  14.853
12591W        W85016  31.900  41.281   3.125
12592W        W85017   7.434   3.655   4.612
12593W        W85018  34.961  23.066  14.757
12594W        W85019  13.168  26.982   2.799
12595W        W85020   4.864  17.735   3.605
12596W        W85021  22.121  24.654  13.840
12597W        W85022   1.961   7.073  12.022
12598W        W85023  40.828  27.746  12.569
12599W        W85024   2.561  16.391  12.885
12600W        W85025  30.867  11.261  10.813
12601W        W85026  11.763  39.775  11.427
12602W        W85027  43.317  19.186  12.471
12603W        W85028  25.634  39.194  10.233
12604W        W85029  39.572  29.380   3.668
12605W        W85030   1.326  15.301   1.971
12606W        W85031  19.745  39.477   3.067
12607W        W85032  30.014  39.429  14.805
12608W        W85033  43.102  21.569  12.406
12609W        W85034  33.903  26.947   4.701
12610W        W85035  39.121   2.391   0.100
12611W        W85036  10.015  30.072  12.232
12612W        W85037  20.156  19.740  12.701
12613W        W85038   8.710  24.618   2.545
12614W        W85039  18.194  36.451   4.411
12615W        W85040   2.601   6.842   1.724
12616W        W85041  18.173   0.860  14.143
12617W        W85042  26.533  11.731  12.974
12618W        W85043  17.139   0.680  10.442
12619W        W85044  12.337  31.433   2.382
12620W        W85045  27.465   3.419  10.624
12621W        W85046   4.380  27.738  11.524
12622W        W85047  27.119  24.518   3.305
12623W        W85048  18.132  10.756  12.829
12624W        W85049  12.817  25.127   2.195
12625W        W85050   3.176   1.730  12.925
12626W        W85051  16.327  14.232   3.105
12627W        W85052  42.807   7.826   3.332
12628W        W85053  29.337  38.489   0.372
12629W        W85054  11.240   7.384   2.393
12630W        W85055   9.192  39.063  12.471
12631W        W85056   1.230  29.488   4.161
12632W        W85057  27.513   7.377  12.469
12633W        W85058   7.450  42.764  14.214
12634W        W85059  26.420  37.981  10.680
12635W        W85060  39.009  29.122  12.320
12636W        W85061   3.912  34.520  14.072
12637W        W85062  41.002   3.014  10.652
12638W        W85063  18.082  13.173  14.034
12639W        W85064  42.317  25.513   0.798
12640W        W85065  25.222   5.778  13.784
12641W        W85066  19.781  41.667   3.331
12642W        W85067   4.445   9.440   2.183
12643W        W85068  37.510  11.844  14.937
12644W        W85069  26.183  30.325   1.300
12645W        W85070  17.565  14.748  14.243
12646W        W85071  14.639   7.325   2.242
12647W        W85072  36.007  38.529  14.217
12648W        W85073  44.797  37.520   1.528
12649W        W85074  37.345   1.771  10.683
12650W        W85075  27.713   1.594  12.948
12651W        W85076  22.537  30.830   3.661
12652W        W85077   7.491  11.391  13.404
12653W        W85078  13.642   9.321  10.639
12654W        W85079   3.159  17.487   3.806
12655W        W85080   1.961  29.162  14.961
12656W        W85081  32.549  22.024   2.649
12657W        W85082  36.278  32.086   4.627
12658W        W85083   7.179  44.652  14.794
12659W        W85084  11.901  25.478   4.532
12660W        W85085  34.106  10.645  12.536
12661W        W85086   4.800  24.690   3.788
12662W        W85087  18.369  36.717  13.531
12663W        W85088  24.973  15.822  14.121
12664W        W85089  34.366   1.048  12.463
12665W        W85090  16.144  22.509   2.916
12666W        W85091  18.104   2.688  13.809
12667W        W85092  28.608  13.109  13.898
12668W        W85093  14.164   2.065  13.847
12669W        W85094   3.093   9.637   3.526
12670W        W85095  24.233   2.701  11.617
12671W        W85096  38.581   8.305   2.366
12672W        W85097  32.479  37.163   4.458
12673W        W85098  35.594  27.002   0.856
12674W        W85099  23.789  39.332  13.432
12675W        W85100  34.850  27.194   1.783
12676W        W85101  38.539  29.985  11.073
12677W        W85102  22.901   8.604  12.407
12678W        W85103  17.881  14.769   4.799
12679W        W85104   9.040  23.656  12.845
12680W        W85105   2.499  28.955   0.885
12681W        W85106  27.484  20.236  13.037
12682W        W85107  14.817  41.308  11.995
12683W        W85108  19.579  22.978  11.479
12684W        W85109  27.585  19.233  13.077
12685W        W85110  20.795  10.886  12.975
12686W        W85111   4.503   7.838  12.990
12687W        W85112   8.631   9.742  13.562
12688W        W85113   1.152  14.427  10.727
12689W        W85114  22.766  13.784  13.369
12690W        W85115   1.113  23.987  10.729
12691W        W85116  25.072  29.193   4.257
12692W        W85117   5.373   0.561  12.094
12693W        W85118   9.782  13.596   2.391
12694W        W85119  23.615   0.472  11.954
12695W        W85120  26.094   8.131  13.414
12696W        W85121  12.246   2.475  10.547
12697W        W85122  32.290  28.744   4.482
12698W        W85123  41.525  40.547  11.418
12699W        W85124   8.679   4.310   2.193
12700W        W85125  25.380  32.412   2.369
12701W        W85126  21.701  14.861   1.608
12702W        W85127  40.084   5.397  12.383
12703W        W85128   8.312  37.575   4.234
12704W        W85129  21.081  28.948   1.936
12705W        W85130  34.376  31.581  11.194
12706W        W85131  23.236  19.182  10.497
12707W        W85132  27.483  23.052   9.751
12708W        W85133  36.900  38.999  14.343
12709W        W85134   4.919  44.926  14.030
12710W        W85135   6.884  37.448   0.724
12711W        W85136  15.262  36.609   2.436
12712W        W85137  17.738  32.365  11.933
12713W        W85138  40.332  28.242  13.486
12714W        W85139  32.592  10.431   0.834
12715W        W85140  33.507   1.707   0.631
12716W        W85141  35.435  21.057   2.333
12717W        W85142  37.417  22.953   4.650
12718W        W85143  34.307  17.144  14.866
12719W        W85144  14.997   2.087   5.465
12720W        W85145  15.457   9.366   1.652
12721W        W85146  10.799  44.433  11.575
12722W        W85147  22.698  15.181   2.262
12723W        W85148   4.381  26.812   3.360
12724W        W85149  12.736  20.788   0.806
12725W        W85150  30.709  33.360  12.134
12726W        W85151   2.537  34.740  11.002
12727W        W85152  13.634  18.287  11.810
12728W        W85153  43.737  16.030   0.730
12729W        W85154  32.255  20.055  12.899
12730W        W85155  19.931   4.524  10.909
12731W        W85156   9.757  22.799   1.237
12732W        W85157  43.664  12.402   9.979
12733W        W85158  43.844  43.900   3.778
12734W        W85159   4.469   2.640  11.496
12735W        W85160  10.807   9.747  14.422
12736W        W85161  29.500   1.437   3.692
12737W        W85162   0.839  36.839   4.041
12738W        W85163  24.185  33.530   0.942
12739W        W85164  12.158  30.150  13.467
12740W        W85165  38.745   1.805  12.883
12741W        W85166  34.592  12.057  14.001
12742W        W85167  34.097  16.905   1.299
12743W        W85168  33.691  41.867  13.288
12744W        W85169   3.982  43.343  10.565
12745W        W85170  12.653   2.436  13.574
12746W        W85171   6.761   6.002  12.349
12747W        W85172  28.259  17.477  14.902
12748W        W85173  19.421   0.264   0.375
12749W        W85174  33.031  37.921   4.713
12750W        W85175  41.772  37.099  12.667
12751W        W85176   0.465  43.369   3.869
12752W        W85177  23.135  18.041   2.212
12753W        W85178  44.448   6.791  11.167
12754W        W85179  26.506  32.647  14.872
12755W        W85180  27.976  18.189  11.895
12756W        W85181  28.936  23.060  11.928
12757W        W85182  28.042  14.849  10.139
12758W        W85183  28.583  27.263  14.860
12759W        W85184  25.892  39.432  13.961
12760W        W85185   0.446  32.388  13.153
12761W        W85186  28.151  18.280  13.909
12762W        W85187  21.040  16.239   4.381
12763W        W85188  23.597  44.557   1.197
12764W        W85189   1.367  10.400  13.372
12765W        W85190  22.617  21.251   1.993
12766W        W85191   7.620  14.183   1.446
12767W        W85192  15.723  19.766   1.888
12768W        W85193  39.959   2.401   0.040
12769W        W85194  30.662  41.302   0.919
12770W        W85195   1.984  14.039  11.168
12771W        W85196  41.767   4.917   4.149
12772W        W85197  15.246  38.069   4.120
12773W        W85198  35.998  19.817   3.381
12774W        W85199  31.949   3.893  11.149
12775W        W85200  17.523  11.648   2.732
12776W        W85201  11.330  15.275  14.441
12777W        W85202  32.915  20.526   3.190
12778W        W85203  24.027   4.205  12.733
12779W        W85204  12.947  14.020   4.147
12780W        W85205   9.173  32.196  14.905
12781W        W85206  43.740  31.372  11.073
12782W        W85207   7.208  22.337   1.351
12783W        W85208  27.074  39.284   1.262
12784W        W85209  18.989  43.486  14.504
12785W        W85210  10.821  44.546   2.809
12786W        W85211  27.019  40.051  11.911
12787W        W85212  35.804  32.646  13.387
12788W        W85213  31.376  19.817  12.571
12789W        W85214  18.145   8.352   2.310
12790W        W85215  23.249  21.265  10.687
12791W        W85216  20.735  44.372   1.017
12792W        W85217  21.205  36.953  11.708
12793W        W85218  21.819  23.901   4.191
12794W        W85219  29.883  28.117   2.693
12795W        W85220  31.699  24.569   1.388
12796W        W85221  37.979  22.205  14.888
12797W        W85222   3.889  23.177  11.405
12798W        W85223  44.436  32.409   4.601
12799W        W85224  10.435  23.356  11.862
12800W        W85225  32.107   8.713  12.429
12801W        W85226  33.800   7.332  10.559
12802W        W85227  32.749   1.545   2.229
12803W        W85228  29.393  42.765   3.641
12804W        W85229  34.619  33.623  14.039
12805W        W85230   4.633   9.264  11.325
12806W        W85231  24.177  20.521  11.978
12807W        W85232  13.344  34.393  11.395
12808W        W85233  34.055  17.544  14.658
12809W        W85234  33.832   6.191   1.804
12810W        W85235   6.693  38.614   4.157
12811W        W85236  38.894  24.907   0.215
12812W        W85237   9.641  41.978   2.932
12813W        W85238   2.386  42.837   3.601
12814W        W85239   8.204  18.428   1.445
12815W        W85240  27.607  32.756  14.016
12816W        W85241  20.059  44.290  12.350
12817W        W85242  31.857   8.084   4.957
12818W        W85243  29.496  24.749   1.772
12819W        W85244  27.631  23.777   0.572
12820W        W85245   3.347  18.030   3.659
12821W        W85246  26.255   6.289   1.981
12822W        W85247  11.408  14.688   2.420
12823W        W85248   8.851  32.506   2.648
12824W        W85249  37.798   9.492   2.713
12825W        W85250   7.965   1.308   3.714
12826W        W85251  23.823  28.122   1.488
12827W        W85252  37.408  36.821  14.441
12828W        W85253  15.187  30.900  11.213
12829W        W85254  25.213  36.010  12.017
12830W        W85255   0.451  37.884   2.584
12831W        W85256  40.956   5.708   4.622
12832W        W85257  14.322  41.542   3.898
12833W        W85258   4.650  23.573  14.360
12834W        W85259   7.322  20.050   3.827
12835W        W85260  43.357   5.282   4.793
12836W        W85261   9.789  40.739   2.897
12837W        W85262  19.292  33.987  10.630
12838W        W85263  23.190  33.390  12.953
12839W        W85264   2.776  16.882  12.882
12840W        W85265  21.635  31.814   1.714
12841W        W85266  41.204  28.794   0.714
12842W        W85267  32.600   4.385  14.446
12843W        W85268  25.716  28.151  11.468
12844W        W85269   5.109  18.807   5.114
12845W        W85270   4.270  28.443   2.244
12846W        W85271  23.563  26.236  11.851
12847W        W85272  41.839  40.839   1.794
12848W        W85273  32.132  29.212  14.521
12849W        W85274  10.332  21.295  13.552
12850W        W85275   0.769  12.621   4.802
12851W        W85276  12.353   1.821  10.112
12852W        W85277   0.538  27.021  14.319
12853W        W85278  15.750   9.890  13.078
12854W        W85279  44.910  19.096  13.401
12855W        W85280  22.750  14.430  14.213
12856W        W85281  38.485  34.954   0.504
12857W        W85282  33.348   9.829   0.463
12858W        W85283   2.249  34.888  11.379
12859W        W85284   9.718  34.486   1.964
12860W        W85285  10.587  30.639  10.107
12861W        W85286   2.612  19.207   1.694
12862W        W85287  22.423  25.121   0.336
12863W        W85288  35.049  31.631  10.711
12864W        W85289  14.218  35.653   4.621
12865W        W85290  43.826  38.632   0.283
12866W        W85291  25.112  12.775   0.952
12867W        W85292  27.523  28.551   2.936
12868W        W85293   9.918  25.070   0.668
12869W        W85294  39.759  34.509  13.318
12870W        W85295  21.623  39.354   1.216
12871W        W85296  26.429  13.795   4.528
12872W        W85297   4.521  35.036   4.616
12873W        W85298   6.048   6.150  12.107
12874W        W85299  42.498  12.628   3.218
12875W        W85300  40.837  41.922  13.830
12876W        W85301  44.245  31.146   1.178
12877W        W85302  11.467   7.758   2.744
12878W        W85303  36.547  14.269  14.957
12879W        W85304   5.937  40.533  13.711
12880W        W85305  27.165   2.268  11.611
12881W        W85306  30.632  25.549   3.623
12882W        W85307   3.834  40.819   2.736
12883W        W85308  20.152  21.301  14.830
12884W        W85309  44.225  39.486   2.308
12885W        W85310   1.516  30.550  14.517
12886W        W85311  11.108   0.514  13.195
12887W        W85312  14.198  12.365  14.727
12888W        W85313  39.300  32.941   0.576
12889W        W85314   9.778  23.257   0.386
12890W        W85315   7.762   5.729   3.457
12891W        W85316  17.606  14.096   3.162
12892W        W85317   7.775   7.366  14.838
12893W        W85318  24.892  43.902  13.848
12894W        W85319  22.807  16.340   1.710
12895W        W85320  13.959  11.798   1.858
12896W        W85321  20.917  31.409   2.572
12897W        W85322  12.158  10.954   1.140
12898W        W85323  24.538   3.469   3.146
12899W        W85324   8.292  32.479   3.238
12900W        W85325  19.674  18.246   0.344
12901W        W85326  27.502  35.576  13.401
12902W        W85327  30.437  21.609   3.186
12903W        W85328  31.153   5.324   0.975
12904W        W85329  34.420  33.931   3.750
12905W        W85330  28.945  38.308   4.513
12906W        W85331  25.576   7.609   1.370
12907W        W85332  19.935   2.821  14.575
12908W        W85333  32.455  23.567  12.462
12909W        W85334  33.641  38.493   4.103
12910W        W85335  38.761   4.346  14.903
12911W        W85336  12.741  26.976   1.342
12912W        W85337  41.874  23.133  14.400
12913W        W85338  35.568  42.041   0.433
12914W        W85339  25.602  37.991  12.953
12915W        W85340  34.213  11.151  13.096
12916W        W85341  16.295  28.045  13.963
12917W        W85342  24.400  20.893  14.971
12918W        W85343  41.105  41.476   0.889
12919W        W85344   2.523  21.550   4.596
12920W        W85345  20.634  11.772   4.035
12921W        W85346   4.917  38.595   2.283
12922W        W85347  25.648  10.734   4.311
12923W        W85348  15.665   5.455  11.852
12924W        W85349  12.763  11.639  14.575
12925W        W85350  12.662  35.338  10.651
12926W        W85351  31.209  40.364   2.564
12927W        W85352  28.194  18.274   1.245
12928W        W85353   1.246  37.351   4.143
12929W        W85354  37.798  32.729  14.489
12930W        W85355  25.242  16.686  13.526
12931W        W85356   1.405   9.004  13.843
12932W        W85357   7.707  16.610  11.103
12933W        W85358  43.510  35.528  10.974
12934W        W85359   0.362  15.614  14.872
12935W        W85360  23.917  29.370  11.755
12936W        W85361  37.355  39.275  11.235
12937W        W85362  14.137   4.370  14.671
12938W        W85363  41.663  29.588   4.606
12939W        W85364  34.505   8.726  14.939
12940W        W85365  14.595  37.158  13.796
12941W        W85366  18.777   2.536   3.391
12942W        W85367  28.541  38.946  14.432
12943W        W85368  27.184   4.354   1.224
12944W        W85369  18.378   2.787  12.542
12945W        W85370  43.380  34.404   1.875
12946W        W85371  19.841  10.948   5.015
12947W        W85372  28.029   1.722  12.564
12948W        W85373  29.253  14.249   1.934
12949W        W85374  34.301  26.604   1.289
12950W        W85375  27.485  32.488   0.745
12951W        W85376  40.481  34.875  13.935
12952W        W85377  20.993  23.948   3.738
12953W        W85378   8.145  23.241  11.205
12954W        W85379  44.352  18.598   1.346
12955W        W85380   9.766  31.496   3.897
12956W        W85381  21.701  29.486   3.109
12957W        W85382   6.453   5.850   3.263
12958W        W85383  21.512  22.013  13.063
12959W        W85384  12.000  18.358   2.878
12960W        W85385  22.980  33.652  14.437
12961W        W85386  11.242  11.727  13.746
12962W        W85387  34.110  29.678  10.796
12963W        W85388  19.150  22.296   4.684
12964W        W85389  39.080  39.813   2.257
12965W        W85390   1.440  18.105   4.207
12966W        W85391  36.618   9.189  13.049
12967W        W85392  25.672  22.522   1.462
12968W        W85393  32.403  17.788   0.173
12969W        W85394   6.697  38.411  10.475
12970W        W85395   9.697  42.073  10.578
12971W        W85396  41.553   5.324  14.350
12972W        W85397  41.562  21.927  12.327
12973W        W85398   5.418  24.082  11.939
12974W        W85399  21.730  42.360   0.283
12975W        W85400  36.647  32.992   3.604
12976W        W85401   0.479  12.167  14.975
12977W        W85402  28.120  17.225   0.353
12978W        W85403   6.960  39.423   4.653
12979W        W85404  37.984   2.943   3.766
12980W        W85405   9.620  11.945  13.961
12981W        W85406  13.579  12.045   2.154
12982W        W85407   4.455  40.381   4.339
12983W        W85408  42.570  12.028  14.997
12984W        W85409  20.736  34.130  10.425
12985W        W85410   0.840  15.237   0.257
12986W        W85411   3.035  13.081   3.183
12987W        W85412   5.247  37.269  14.165
12988W        W85413   6.676  39.799  10.640
12989W        W85414   8.848  13.082  13.803
12990W        W85415   3.493  17.136  13.063
12991W        W85416  35.828  44.564  10.727
12992W        W85417  19.269  16.694   4.121
12993W        W85418  17.768  20.164   0.978
12994W        W85419   2.658   4.363  14.536
12995W        W85420  31.990  30.502   3.109
12996W        W85421  11.337   0.266   3.233
12997W        W85422  17.801   2.994  11.007
12998W        W85423   8.901  32.355   1.009
12999W        W85424   2.663  32.456   4.008
13000W        W85425  38.746  19.188   3.564
13001W        W85426  36.929  34.139   4.109
13002W        W85427  40.891  23.955   2.848
13003W        W85428  26.093  17.579   4.596
13004W        W85429  20.161  26.390   3.720
13005W        W85430  38.838  29.436   4.194
13006W        W85431   4.928  38.395  11.926
13007W        W85432   5.113   7.797  13.618
13008W        W85433  28.757  36.319  12.955
13009W        W85434  38.775  16.271   2.205
13010W        W85435  14.867  16.968  13.533
13011W        W85436  22.037  26.992   1.810
13012W        W85437  28.131  39.290  11.155
13013W        W85438  11.052  33.790  14.386
13014W        W85439  19.522   9.307  13.422
13015W        W85440  17.339  33.942   3.243
13016W        W85441  25.194  37.336  14.812
13017W        W85442  18.335  42.283  13.638
13018W        W85443  12.362  23.533   1.891
13019W        W85444  10.053  42.502   1.387
13020W        W85445   1.182  31.015  13.504
13021W        W85446  18.018   4.891  10.666
13022W        W85447   7.139  13.178   1.375
13023W        W85448  23.686  41.360   3.418
13024W        W85449  24.793  43.532  12.595
13025W        W85450  41.644  10.544  12.826
13026W        W85451  11.894  36.231  11.526
13027W        W85452  21.210  21.914  10.623
13028W        W85453  10.413  41.496  14.300
13029W        W85454  21.661  44.961  10.683
13030W        W85455  42.527  21.597   1.223
13031W        W85456  39.434  25.636  11.428
13032W        W85457   5.877  32.115  12.832
13033W        W85458  36.813  15.037   0.243
13034W        W85459  12.663  29.570  12.197
13035W        W85460  30.763   8.451   3.526
13036W        W85461   2.434  10.279  12.922
13037W        W85462  42.259  20.031  10.626
13038W        W85463  13.369  44.465  14.028
13039W        W85464  14.213  24.228   4.669
13040W        W85465   1.300  30.101   1.320
13041W        W85466  36.916  18.024   3.782
13042W        W85467  44.260  37.337   0.451
13043W        W85468   7.916  21.466  14.674
13044W        W85469  12.340  14.775  13.663
13045W        W85470  25.451  11.194  13.263
13046W        W85471  10.459   8.747  12.834
13047W        W85472   8.330  43.860   0.736
13048W        W85473  39.393  13.157   0.116
13049W        W85474  36.854  42.414  12.409
13050W        W85475  41.306  25.476  10.707
13051W        W85476  34.543  13.639  12.923
13052W        W85477  10.959  28.875  14.059
13053W        W85478  15.448   1.862   2.037
13054W        W85479   3.198  28.590   2.795
13055W        W85480   9.985  13.832  14.380
13056W        W85481  33.946  30.705  12.689
13057W        W85482  25.449   5.182   2.298
13058W        W85483  13.768  44.931  13.442
13059W        W85484  22.518  12.565  10.673
13060W        W85485  30.675  20.548   2.655
13061W        W85486  27.460  26.501  14.701
13062W        W85487  26.533   1.062  11.106
13063W        W85488  11.193  24.793  14.380
13064W        W85489  31.049  38.511   0.082
13065W        W85490  20.974  17.788  11.943
13066W        W85491  44.371  25.084   4.653
13067W        W85492  28.639  21.680   3.656
13068W        W85493  34.550  22.667  12.363
13069W        W85494  26.605  32.177  10.783
13070W        W85495  36.350  39.551  11.061
13071W        W85496  30.130  24.400   1.426
13072W        W85497  18.321  37.882   3.872
13073W        W85498  34.986  21.275   2.555
13074W        W85499  34.350  31.339  11.637
13075W        W85500  25.078  36.729   4.643
13076W        W85501  44.204  22.328  13.068
13077W        W85502   4.935  10.401   3.212
13078W        W85503  12.509   5.684   0.026
13079W        W85504  21.508  26.026   0.863
13080W        W85505   8.935  23.063  14.003
13081W        W85506  11.799  34.378   0.331
13082W        W85507  30.098  39.886  12.110
13083W        W85508  44.632  40.864  14.306
13084W        W85509  40.902  14.401  14.023
13085W        W85510  18.904  10.425   3.300
13086W        W85511  35.952  27.977   2.214
13087W        W85512  11.340  21.182   1.807
13088W        W85513  20.694  29.577   4.089
13089W        W85514  25.936   8.311   4.980
13090W        W85515  35.892  25.187   2.916
13091W        W85516  32.544  40.810  12.047
13092W        W85517  17.539  27.522  13.417
13093W        W85518  25.466  33.299   2.295
13094W        W85519  40.435  42.792  11.540
13095W        W85520   6.636  27.474  11.588
13096W        W85521  28.432  10.345   4.098
13097W        W85522   2.707  16.086  13.266
13098W        W85523  30.090  43.429  11.256
13099W        W85524  30.545  16.234  11.242
13100W        W85525  27.145  37.639  12.111
13101W        W85526  16.299  44.018   2.142
13102W        W85527   6.628  17.285   0.953
13103W        W85528  41.234  35.956  14.374
13104W        W85529   4.820  25.458   0.307
13105W        W85530  41.907  14.745   1.839
13106W        W85531   3.243  42.427   0.292
13107W        W85532  13.149  24.156   3.735
13108W        W85533  31.431  16.779  10.587
13109W        W85534   3.731   5.554   3.121
13110W        W85535  14.396  44.317   0.927
13111W        W85536  41.025   9.314  10.586
13112W        W85537   1.867  12.784   3.233
13113W        W85538  21.801  14.275   4.651
13114W        W85539  23.982  42.108  11.145
13115W        W85540  20.502  39.908  14.945
13116W        W85541  42.505  38.732  11.689
13117W        W85542  19.209   2.141  10.639
13118W        W85543  39.323  26.207  12.581
13119W        W85544  28.390   9.713   3.077
13120W        W85545  23.296  11.442  12.525
13121W        W85546  21.212  15.056   0.789
13122W        W85547  28.095  40.311   1.398
13123W        W85548  28.134  13.701   1.231
13124W        W85549  39.045  37.864  10.968
13125W        W85550  44.263  34.551  10.697
13126W        W85551  21.268  30.372  13.902
13127W        W85552   2.431  39.313   1.337
13128W        W85553  29.712  40.409  12.470
13129W        W85554   0.208  34.388  10.671
13130W        W85555   3.324   0.958   4.565
13131W        W85556  15.609  22.231  13.913
13132W        W85557  11.891  18.438  11.925
13133W        W85558   3.692  35.725  14.329
13134W        W85559  18.025  21.694   3.688
13135W        W85560  29.196  24.899   1.299
13136W        W85561  36.582   8.254   2.679
13137W        W85562  39.272  18.375   4.516
13138W        W85563  38.957   9.337  13.480
13139W        W85564  22.973   2.450   2.791
13140W        W85565  21.521  14.139  12.867
13141W        W85566  38.594  23.214   2.651
13142W        W85567   0.692  26.141  12.284
13143W        W85568  36.965  23.424  12.555
13144W        W85569   9.186   2.923  12.067
13145W        W85570  26.663   6.956   1.386
13146W        W85571  16.784  32.350   4.132
13147W        W85572   7.290   8.827  12.372
13148W        W85573   7.292  19.978   0.206
13149W        W85574   8.978  40.979  13.240
13150W        W85575  27.767  13.152   3.836
13151W        W85576  16.237  11.773   4.807
13152W        W85577   2.433  25.601  14.416
13153W        W85578  21.189   6.975  14.337
13154W        W85579  44.830   4.119  14.500
13155W        W85580  35.197  28.506   0.607
13156W        W85581  10.204   5.367   0.231
13157W        W85582  11.178  18.515   2.773
13158W        W85583   0.245  22.889  13.856
13159W        W85584  21.076  21.478  12.542
13160W        W85585  22.796  34.927   0.372
13161W        W85586  30.551  11.240   3.777
13162W        W85587   0.455  22.850  11.069
13163W        W85588  37.911  18.790  12.109
13164W        W85589  38.787  18.781  12.122
13165W        W85590  21.395   2.113  12.102
13166W        W85591   0.051  21.672   3.325
13167W        W85592  32.987  30.905   2.779
13168W        W85593  34.403  39.024  10.951
13169W        W85594  39.001  18.288  12.013
13170W        W85595   1.717   3.191   3.227
13171W        W85596  44.469  40.482   4.093
13172W        W85597   2.505  40.578  14.744
13173W        W85598  20.653  30.154   2.404
13174W        W85599  31.684  23.714   4.891
13175W        W85600  18.616  12.309  14.860
13176W        W85601  16.095  15.405   3.653
13177W        W85602  20.306   6.313   5.066
13178W        W85603  38.498  40.462   2.833
13179W        W85604  29.016   2.251   2.100
13180W        W85605  19.303  14.566   1.906
13181W        W85606  42.271  34.087   0.258
13182W        W85607  31.823  22.572  12.433
13183W        W85608  17.205  32.080  12.128
13184W        W85609  31.159  15.912  10.219
13185W        W85610  42.394  30.968  14.842
13186W        W85611  13.605  42.092   4.353
13187W        W85612  17.912  19.003  12.370
13188W        W85613  22.637  39.841   2.813
13189W        W85614  23.234  29.531  13.458
13190W        W85615  17.708   6.248   3.298
13191W        W85616  34.832  28.575  14.244
13192W        W85617   6.831  37.988   4.767
13193W        W85618   1.509  16.669   4.656
13194W        W85619  32.234  44.838  11.673
13195W        W85620  31.847  43.250  12.423
13196W        W85621  16.090  21.688  13.112
13197W        W85622  19.684  16.598   4.761
13198W        W85623  31.738  12.296   4.880
13199W        W85624  10.165  36.993   2.869
13200W        W85625  32.874  10.502  11.979
13201W        W85626   0.418  42.474   1.381
13202W        W85627  17.909  12.433   0.342
13203W        W85628   0.808  26.404   1.351
13204W        W85629  39.958   6.016   4.709
13205W        W85630  13.474  13.734   2.631
13206W        W85631   2.011  42.477  11.633
13207W        W85632  26.475  25.813  13.804
13208W        W85633   9.206  37.583   3.744
13209W        W85634   3.330  11.768   2.146
13210W        W85635  41.647  38.375  11.256
13211W        W85636  12.984  13.668   0.745
13212W        W85637  29.586  37.445  13.559
13213W        W85638  36.412  12.579   0.403
13214W        W85639   8.780   6.815  12.877
13215W        W85640  12.509  19.317  13.790
13216W        W85641   8.697  33.139   1.232
13217W        W85642  13.766  24.469  14.495
13218W        W85643   4.696  20.094   0.051
13219W        W85644  28.963   1.359   5.080
13220W        W85645  23.725  21.244  14.301
13221W        W85646   7.262  14.889   1.192
13222W        W85647  16.082   3.373   1.517
13223W        W85648   9.318  26.338  10.230
13224W        W85649  32.918  42.331   0.749
13225W        W85650  13.674  35.395  14.781
13226W        W85651  10.350  39.706  13.941
13227W        W85652  10.683  19.482   0.019
13228W        W85653  12.113  34.893   1.402
13229W        W85654   9.245  31.419  14.498
13230W        W85655  14.087  21.004   0.937
13231W        W85656   5.500  43.912   2.715
13232W        W85657   1.425  35.885  13.833
13233W        W85658  29.007   3.256  10.716
13234W        W85659  24.476  26.308  11.344
13235W        W85660  44.912  38.604   2.867
13236W        W85661  11.351   6.386   3.892
13237W        W85662  28.920  30.228   0.898
13238W        W85663  32.550  39.044   2.291
13239W        W85664  43.288  37.690  14.845
13240W        W85665  18.384  33.604  13.262
13241W        W85666  38.149   6.809  10.160
13242W        W85667   6.937   0.755   1.666
13243W        W85668  26.024  32.930  10.761
13244W        W85669  11.816  39.329  13.613
13245W        W85670   9.116   6.340  13.434
13246W        W85671   6.729  17.349   1.923
13247W        W85672  29.753  35.598   0.897
13248W        W85673  25.562  21.976   0.772
13249W        W85674  17.226  11.568  10.648
13250W        W85675  34.415  36.374  14.859
13251W        W85676  41.263  11.598  14.847
13252W        W85677  19.710   0.511   2.059
13253W        W85678  38.287  21.748  12.977
13254W        W85679  38.023   3.423  12.728
13255W        W85680   4.976  24.836   4.251
13256W        W85681  33.935  16.677  12.776
13257W        W85682  28.192   2.721  12.442
13258W        W85683  19.994   4.865   4.685
13259W        W85684  37.965   7.917   5.567
13260W        W85685  21.093   7.761  11.472
13261W        W85686  30.680  17.689  12.942
13262W        W85687   5.883  14.178   3.914
13263W        W85688  42.429  30.888  14.316
13264W        W85689  17.082  28.261   1.256
13265W        W85690  32.581  12.342   1.825
13266W        W85691  31.862  33.389  13.129
13267W        W85692  40.712  23.695  12.842
13268W        W85693  18.021  29.128   4.193
13269W        W85694  32.872  18.641  14.947
13270W        W85695  42.831  33.522   1.734
13271W        W85696  32.323  43.993   2.742
13272W        W85697  16.094  31.266   3.763
13273W        W85698   3.254  38.988  12.614
13274W        W85699  42.449  32.580   3.350
13275W        W85700  39.844  15.459  13.335
13276W        W85701   2.462   7.835   0.857
13277W        W85702  38.825   8.072  13.979
13278W        W85703   7.284  21.907  10.689
13279W        W85704   2.030  14.383  14.879
13280W        W85705   2.257  31.472   4.385
13281W        W85706  33.685  19.168  10.936
13282W        W85707  11.640  32.509   2.307
13283W        W85708  16.307  27.522  13.995
13284W        W85709  40.537  30.050   2.332
13285W        W85710  33.443   8.634  14.936
13286W        W85711   8.730  37.402  13.956
13287W        W85712  18.058  29.894  12.199
13288W        W85713  13.851  39.168   4.114
13289W        W85714  13.656  30.145   0.636
13290W        W85715   4.820   3.916   1.708
13291W        W85716  39.097  10.633   2.363
13292W        W85717  36.324   9.350   9.913
13293W        W85718  20.804  10.380   2.714
13294W        W85719   9.782   8.309  13.857
13295W        W85720  32.550  31.928  10.578
13296W        W85721  19.654   4.395   3.843
13297W        W85722  25.478  20.546  13.078
13298W        W85723  41.412  27.544  13.729
13299W        W85724   1.915  12.055   3.592
13300W        W85725  32.896  23.611   2.297
13301W        W85726  21.599  35.300   0.889
13302W        W85727   5.861  42.824  11.642
13303W        W85728   7.825  13.703   1.345
13304W        W85729   2.694  10.999   0.788
13305W        W85730  15.172  10.896   4.016
13306W        W85731  40.446  10.121  12.539
13307W        W85732  15.644  25.348   4.898
13308W        W85733  39.960   7.936  11.968
13309W        W85734  44.886   1.027  14.059
13310W        W85735  41.340  44.419  11.195
13311W        W85736  36.815   0.325  14.052
13312W        W85737  22.621  13.409   5.023
13313W        W85738  18.110  20.685   3.591
13314W        W85739  29.581  22.023  13.791
13315W        W85740  12.737   8.716  11.435
13316W        W85741   1.262  30.730   3.568
13317W        W85742  16.062  15.348  11.004
13318W        W85743  28.610  40.714  10.279
13319W        W85744  30.923  28.637  13.587
13320W        W85745  24.312  21.207  10.602
13321W        W85746  16.500  18.092   2.353
13322W        W85747  25.168  43.771   4.056
13323W        W85748   9.861  29.012   0.911
13324W        W85749  27.377  22.856   4.591
13325W        W85750  33.170  31.045   1.834
13326W        W85751  12.702  27.516  11.530
13327W        W85752  19.238  26.615   2.775
13328W        W85753  37.547  26.641   1.700
13329W        W85754  39.831  43.099  14.333
13330W        W85755  39.606  28.893   3.832
13331W        W85756  42.552   5.673  14.896
13332W        W85757  32.540  13.950   2.746
13333W        W85758  35.438   8.267   0.001
13334W        W85759  31.781  44.103   0.758
13335W        W85760   6.758  14.350  11.220
13336W        W85761  27.149  15.572   4.148
13337W        W85762  10.733  20.141  14.309
13338W        W85763  31.280  17.226   3.564
13339W        W85764   3.607  44.710  12.146
13340W        W85765  25.946  35.323  14.475
13341W        W85766   0.458  36.479   4.131
13342W        W85767  23.114   0.460   3.141
13343W        W85768  42.596  36.778  13.052
13344W        W85769  15.040  43.742   1.449
13345W        W85770  41.247  20.322   2.341
13346W        W85771   4.484   6.760   2.745
13347W        W85772  16.091   5.913   0.340
13348W        W85773   2.925   6.623   3.561
13349W        W85774  21.253   9.272   1.319
13350W        W85775  17.977  16.199  13.988
13351W        W85776  35.634  13.690   3.618
13352W        W85777  32.744  13.073  14.289
13353W        W85778   9.451  16.639   0.549
13354W        W85779  21.241   5.917   0.435
13355W        W85780  34.376  33.528  14.530
13356W        W85781  28.710  19.733   0.913
13357W        W85782  26.650  26.882   4.270
13358W        W85783  13.261  15.107  11.413
13359W        W85784  20.744  18.086   3.444
13360W        W85785  12.078   1.268   1.222
13361W        W85786  27.140  17.249  10.376
13362W        W85787  41.091  27.942  13.864
13363W        W85788  10.862  22.786   3.207
13364W        W85789  19.613  19.621   4.448
13365W        W85790  26.112   9.036  14.570
13366W        W85791  44.340   7.268   3.164
13367W        W85792  40.887  31.351   2.828
13368W        W85793  36.555  38.572   1.781
13369W        W85794  21.735  15.837   2.738
13370W        W85795   7.744  28.938   0.487
13371W        W85796  27.520   8.322   3.109
13372W        W85797  23.592  40.812   2.233
13373W        W85798  22.523  43.456  11.961
13374W        W85799  23.111  41.768  12.452
13375W        W85800  20.558  37.526  12.931
13376W        W85801  22.740  26.471  13.846
13377W        W85802  21.119   0.335  11.764
13378W        W85803   0.933  39.137  11.715
13379W        W85804  27.442  13.603  13.885
13380W        W85805  38.221   8.301   3.677
13381W        W85806   1.938  44.963  14.882
13382W        W85807  42.391   3.402  10.796
13383W        W85808  18.054   3.377  14.247
13384W        W85809   7.673  23.204   2.704
13385W        W85810  38.159  26.469  14.295
13386W        W85811   8.821  34.375   2.822
13387W        W85812  32.822   3.396   2.276
13388W        W85813  23.254   8.595   3.234
13389W        W85814  37.688  25.165   1.852
13390W        W85815  21.080  13.343   3.004
13391W        W85816  36.049   1.442  13.951
13392W        W85817  11.665  26.581   4.210
13393W        W85818  43.558  19.814   1.842
13394W        W85819  32.443  27.073   1.414
13395W        W85820  22.731  20.198  13.869
13396W        W85821  22.191  32.709   3.646
13397W        W85822   8.842   0.840   2.812
13398W        W85823  37.235   6.396  13.781
13399W        W85824  27.786  19.705  13.527
13400W        W85825   6.450  14.219  12.580
13401W        W85826  30.881  23.701   2.287
13402W        W85827  35.321  12.587  13.489
13403W        W85828  31.790   2.798  13.765
13404W        W85829  19.996   9.168   1.887
13405W        W85830   9.919  27.678  13.125
13406W        W85831  18.118  36.371  11.464
13407W        W85832  25.416  32.926  11.597
13408W        W85833  24.396  10.847   1.147
13409W        W85834   1.327   8.747   4.805
13410W        W85835  40.784  40.333   0.384
13411W        W85836  13.170   5.758  14.533
13412W        W85837  40.945  25.105  10.765
13413W        W85838  29.621  44.473  10.519
13414W        W85839   5.273  34.205  13.933
13415W        W85840  10.817  43.529   2.731
13416W        W85841   7.787  34.418  11.573
13417W        W85842  39.342   3.415  10.749
13418W        W85843  32.522   6.238   0.265
13419W        W85844   8.587  28.029  10.906
13420W        W85845  14.768  38.199   4.837
13421W        W85846   3.912  12.791   3.176
13422W        W85847  36.000  12.707   4.212
13423W        W85848  27.295   6.649  10.616
13424W        W85849  18.607   1.294   4.756
13425W        W85850  44.438  16.511  14.771
13426W        W85851  37.847  31.740  12.846
13427W        W85852  30.755  24.011  13.311
13428W        W85853  18.592   6.662  12.853
13429W        W85854  23.919   5.228  14.223
13430W        W85855  14.120  37.917  11.497
13431W        W85856   2.590  30.921   4.189
13432W        W85857  35.001  22.774   2.347
13433W        W85858  28.905  43.849  14.043
13434W        W85859  43.006  12.393  14.093
13435W        W85860  30.649  41.934  14.047
13436W        W85861  26.718  15.155  13.102
13437W        W85862  23.338  25.613  12.560
13438W        W85863  35.125  10.460   2.927
13439W        W85864  17.416  16.507   4.431
13440W        W85865  23.528  12.755  10.560
13441W        W85866  20.686  32.825   1.782
13442W        W85867  19.351  32.050  12.516
13443W        W85868  34.947   8.258  11.411
13444W        W85869   0.388   3.822   0.311
13445W        W85870  10.210  30.195   4.673
13446W        W85871  25.012  43.919   3.113
13447W        W85872   2.521  36.674   3.240
13448W        W85873  12.271  28.663  12.443
13449W        W85874   2.755  14.436  12.204
13450W        W85875   9.708  37.454  12.148
13451W        W85876  24.544  18.286  12.390
13452W        W85877  21.772  30.989   1.281
13453W        W85878   0.725  17.040  11.476
13454W        W85879  31.944   4.345  12.798
13455W        W85880  17.557  21.770  11.536
13456W        W85881  25.557  18.629   1.526
13457W        W85882  14.824  32.707   2.846
13458W        W85883  14.218  20.677   2.902
13459W        W85884   5.820  23.296   2.574
13460W        W85885  13.039   9.206  12.194
13461W        W85886   6.652  20.814   2.415
13462W        W85887  33.446  33.109   0.480
13463W        W85888  19.610  34.880   3.218
13464W        W85889  17.283  10.613   4.592
13465W        W85890  28.462  15.859  12.082
13466W        W85891  43.923  12.831  10.795
13467W        W85892  11.178   3.384   1.733
13468W        W85893  20.626  30.375   1.735
13469W        W85894   4.713  25.273  12.210
13470W        W85895  24.116  44.571   0.976
13471W        W85896   0.856   1.455  12.349
13472W        W85897  24.524  21.683   2.806
13473W        W85898  11.350   4.678  12.368
13474W        W85899  29.216  16.621  11.683
13475W        W85900  11.603  30.568   3.220
13476W        W85901  43.466  23.144   2.941
13477W        W85902  23.454  12.501  10.999
13478W        W85903  24.976  35.037   3.362
13479W        W85904  20.290  38.162   0.440
13480W        W85905  10.660   8.581   0.418
13481W        W85906  37.612  27.232   2.742
13482W        W85907  18.748   1.334   2.251
13483W        W85908  30.778  18.157  11.732
13484W        W85909  18.663   0.865   4.446
13485W        W85910  14.789   8.211  14.424
13486W        W85911   4.014  12.643  14.356
13487W        W85912  38.417  14.881  13.594
13488W        W85913  15.529  43.557  14.332
13489W        W85914  35.248  20.226   1.261
13490W        W85915  13.613  35.162   4.170
13491W        W85916  38.982   5.985   3.311
13492W        W85917  22.877  23.041  13.344
13493W        W85918  42.474  44.778   2.924
13494W        W85919  14.641   9.556   4.181
13495W        W85920  16.174  26.599  10.611
13496W        W85921   9.674  31.543  11.712
13497W        W85922   1.698  19.130   2.036
13498W        W85923   9.507   2.371   1.692
13499W        W85924   3.409   8.319  13.591
13500W        W85925   2.444  15.153   1.336
13501W        W85926  22.773  43.846  10.556
13502W        W85927  35.324  26.999   1.850
13503W        W85928  20.056   4.398   0.841
13504W        W85929   3.957  28.979  14.613
13505W        W85930  29.993   4.876  13.979
13506W        W85931  43.984  11.328   4.615
13507W        W85932  10.193  38.326   3.183
13508W        W85933  38.449   9.904   0.700
13509W        W85934  13.160  35.400   2.594
13510W        W85935   6.632   9.539  11.526
13511W        W85936  36.092   0.754   1.351
13512W        W85937  27.185  37.979   3.698
13513W        W85938   7.637  37.030  14.125
13514W        W85939   6.459  16.033  14.262
13515W        W85940   3.357  18.583   3.623
13516W        W85941  14.137   8.494  14.222
13517W        W85942  23.720  30.143  11.233
13518W        W85943   3.800  26.645  10.664
13519W        W85944  31.134  25.615   0.784
13520W        W85945  42.615   0.047   0.359
13521W        W85946  21.264  35.905  10.600
13522W        W85947  28.261  27.579  12.834
13523W        W85948  39.463  16.565   0.779
13524W        W85949  18.904  24.437   3.142
13525W        W85950  41.956  15.050  14.235
13526W        W85951   0.123  36.404   4.517
13527W        W85952  35.972  22.721   0.450
13528W        W85953  13.265  32.490   1.891
13529W        W85954  12.189  25.928   4.559
13530W        W85955  21.773   7.346  11.891
13531W        W85956  20.572  37.066  11.108
13532W        W85957  33.547   8.418  11.888
13533W        W85958  15.344  34.246   9.818
13534W        W85959  17.733  34.123   5.378
13535W        W85960  22.549  24.966   1.863
13536W        W85961   7.327  17.884   1.430
13537W        W85962  34.184  16.596   1.730
13538W        W85963  34.078  41.230  11.585
13539W        W85964   1.106  38.361  10.632
13540W        W85965  43.719  31.998  12.013
13541W        W85966   6.709  34.620   1.152
13542W        W85967  32.918  39.017  14.923
13543W        W85968  44.713   6.954   0.885
13544W        W85969  26.886  11.567   0.215
13545W        W85970   8.916  25.407  14.794
13546W        W85971  32.585   0.196  11.789
13547W        W85972  24.037  41.293   1.625
13548W        W85973   9.881  17.538  13.359
13549W        W85974  10.798  14.164  13.039
13550W        W85975  23.758   8.236  14.501
13551W        W85976  27.701  36.359   4.831
13552W        W85977  36.359   2.391   2.247
13553W        W85978   9.182   2.700  11.099
13554W        W85979  42.074  23.134   2.381
13555W        W85980  22.783  31.369   2.520
13556W        W85981  37.087  34.918  11.233
13557W        W85982  35.457  40.514   3.252
13558W        W85983  19.890  21.201   4.560
13559W        W85984  44.830   5.451  14.439
13560W        W85985  28.659   7.976   4.150
13561W        W85986  29.986  21.486  10.915
13562W        W85987   8.195  14.285  10.665
13563W        W85988  31.591  31.269   2.309
13564W        W85989  38.663  15.716   1.900
13565W        W85990  14.803  17.249  13.978
13566W        W85991   7.695   2.314   3.884
13567W        W85992  19.028  15.720   1.399
13568W        W85993   8.656  31.454  12.573
13569W        W85994   9.007   0.553  13.945
13570W        W85995   6.708  44.350  13.899
13571W        W85996  19.528  30.211  12.059
13572W        W85997  37.215   0.479   1.731
13573W        W85998  33.502  19.481   2.228
13574W        W85999  34.029  16.576  10.847
13575W        W86000  18.512   0.443  14.085
13576W        W86001   3.486   9.369  11.644
13577W        W86002  31.771  13.204  14.020
13578W        W86003  14.290  28.241  11.875
13579W        W86004  34.150  35.444  14.799
13580W        W86005  41.772   0.029   1.466
13581W        W86006  16.780  39.468   0.437
13582W        W86007  34.857   4.357  11.460
13583W        W86008  10.778   8.118  10.899
13584W        W86009  39.854  33.547   2.746
13585W        W86010  26.999  23.729  12.550
13586W        W86011  27.553  34.794  13.816
13587W        W86012  24.497  42.341  14.735
13588W        W86013  12.748  24.201  12.515
13589W        W86014  20.360  10.314   1.300
13590W        W86015  33.759   1.419  12.194
13591W        W86016  19.236  13.646   4.090
13592W        W86017  15.056   9.917   0.797
13593W        W86018  19.509  21.312   2.735
13594W        W86019  13.822  24.646   1.896
13595W        W86020  32.347  21.160   0.291
13596W        W86021  18.972  20.178  12.823
13597W        W86022   2.858   3.212  14.051
13598W        W86023  11.157  44.259   1.378
13599W        W86024  28.506  17.825   4.596
13600W        W86025  21.742  12.888  13.954
13601W        W86026  37.472  39.758   1.566
13602W        W86027  13.914  26.184  12.097
13603W        W86028  38.569  16.235  13.955
13604W        W86029  43.685   8.839  12.998
13605W        W86030  16.620   5.775   4.086
13606W        W86031   7.410   3.961   0.818
13607W        W86032  34.513  29.682  14.394
13608W        W86033  10.688  37.154   0.821
13609W        W86034  44.726  42.560   1.029
13610W        W86035  43.327  14.436   1.647
13611W        W86036  40.354  19.901   4.285
13612W        W86037  43.550  15.020   2.277
13613W        W86038  21.198  25.209  13.038
13614W        W86039  11.132  31.473  14.834
13615W        W86040   3.676  12.241   0.245
13616W        W86041   1.360  14.944   2.953
13617W        W86042  29.563  30.892  12.467
13618W        W86043  19.117  18.633  14.771
13619W        W86044  31.158   4.863  13.398
13620W        W86045  29.474  25.509  14.785
13621W        W86046  10.065  19.567  13.925
13622W        W86047  19.635   0.326  14.866
13623W        W86048  18.699  15.824  14.292
13624W        W86049  18.530  24.545  14.518
13625W        W86050   9.963  36.706  13.971
13626W        W86051  19.739  38.836  13.002
13627W        W86052   0.458  44.247  10.444
13628W        W86053  25.002  29.009   0.744
13629W        W86054  13.676  12.140   4.100
13630W        W86055   0.681  33.393  14.324
13631W        W86056   8.865  37.490   0.796
13632W        W86057  30.067  32.669  10.654
13633W        W86058  40.111  29.646  14.936
13634W        W86059  20.100  24.012  11.615
13635W        W86060  19.135   0.206  12.028
13636W        W86061  11.631   7.498  12.101
13637W        W86062  26.876  30.566   9.871
13638W        W86063  16.746  42.886  14.752
13639W        W86064  29.093  31.046  12.247
13640W        W86065   0.900  30.533  10.338
13641W        W86066  23.991  41.893  12.044
13642W        W86067  28.285   7.807  14.014
13643W        W86068  18.143  37.609   0.971
13644W        W86069  37.789  33.021   4.570
13645W        W86070  31.730   5.706   1.735
13646W        W86071   1.763  29.824   1.211
13647W        W86072  22.462  27.099   3.624
13648W        W86073  13.168  25.385  13.007
13649W        W86074  19.749  36.529  10.811
13650W        W86075  28.371  38.903  10.542
13651W        W86076   1.278  35.593   4.629
13652W        W86077  12.171  22.987   4.928
13653W        W86078   8.945  18.794   2.628
13654W        W86079  37.785   5.230   3.735
13655W        W86080  36.584   7.932  13.333
13656W        W86081  36.145  30.054  14.868
13657W        W86082  26.988  24.241   2.773
13658W        W86083  26.929  37.884  10.641
13659W        W86084  12.057  34.950   2.325
13660W        W86085  11.882  25.489   1.917
13661W        W86086  43.251  14.202   4.195
13662W        W86087  29.520   6.395  14.265
13663W        W86088   8.296   8.716   3.902
13664W        W86089  29.152  42.559   2.094
13665W        W86090  33.609  35.106  12.195
13666W        W86091  30.662  16.055  10.358
13667W        W86092   8.830  18.656   4.182
13668W        W86093  19.654  10.038  11.435
13669W        W86094  27.442  17.621  11.076
13670W        W86095   7.156  34.523   2.287
13671W        W86096  10.627  38.186   2.918
13672W        W86097  25.776  18.779  14.834
13673W        W86098  28.477  16.531   3.670
13674W        W86099  29.206  27.712  14.561
13675W        W86100  36.442   5.416   4.232
13676W        W86101  42.309  43.710   1.231
13677W        W86102  22.975  24.469  14.863
13678W        W86103  33.524   5.886   3.052
13679W        W86104   7.173  44.011  12.133
13680W        W86105  22.946  11.114   1.276
13681W        W86106  24.740  40.399  14.306
13682W        W86107  18.551  44.342  10.533
13683W        W86108  37.901  16.291  12.433
13684W        W86109   6.434  24.600  14.317
13685W        W86110  19.189   6.507  11.743
13686W        W86111  38.046   6.432   3.950
13687W        W86112  30.654  32.891   4.769
13688W        W86113  26.292  18.059   1.173
13689W        W86114  36.542  17.545  14.960
13690W        W86115  24.027   4.758  12.619
13691W        W86116  30.272  26.123  14.880
13692W        W86117  43.382  37.455   0.422
13693W        W86118  17.085  10.493  11.404
13694W        W86119  10.810  16.736  12.883
13695W        W86120  15.193  18.119   2.673
13696W        W86121   1.400   9.256   4.906
13697W        W86122  17.067   7.652  12.907
13698W        W86123  40.468  10.934  13.451
13699W        W86124  20.063   9.312   2.390
13700W        W86125   7.848  18.311   4.553
13701W        W86126   3.166  21.576  11.017
13702W        W86127  22.927  19.604   3.261
13703W        W86128  37.765  38.885   3.615
13704W        W86129   9.359  10.713   3.849
13705W        W86130   1.546   3.712  13.049
13706W        W86131  39.377   2.040  14.837
13707W        W86132  41.600  11.410   0.848
13708W        W86133  37.015  41.358  12.035
13709W        W86134  42.353  13.138  11.669
13710W        W86135  40.899  10.295   0.745
13711W        W86136  15.381  27.195  13.462
13712W        W86137  32.491  34.497   0.962
13713W        W86138   5.454  21.099  10.680
13714W        W86139  32.867   9.070  12.142
13715W        W86140  35.291  23.474  14.744
13716W        W86141   3.409   4.039   1.903
13717W        W86142  11.221  22.756  13.244
13718W        W86143  12.676  42.688   5.162
13719W        W86144  29.935  27.659   0.587
13720W        W86145  14.358  20.057  12.986
13721W        W86146   9.384  24.114  11.997
13722W        W86147   7.592  21.831  10.267
13723W        W86148   3.764  15.018   1.869
13724W        W86149  13.498  15.696  12.903
13725W        W86150  13.628  43.561  14.055
13726W        W86151  26.889  35.461   0.898
13727W        W86152  42.906  40.440   0.222
13728W        W86153  38.740   9.749  11.229
13729W        W86154   5.759  12.450  11.116
13730W        W86155  40.465  38.572   4.889
13731W        W86156  21.183   8.182  10.536
13732W        W86157  10.299  16.870  11.331
13733W        W86158  20.147  40.038  10.182
13734W        W86159   7.570   9.784   0.864
13735W        W86160  28.031  26.525  12.883
13736W        W86161  26.711   5.356   1.823
13737W        W86162  17.796   7.235  12.051
13738W        W86163  32.538  36.915   0.379
13739W        W86164  19.533  41.897  11.129
13740W        W86165  14.220  19.587  14.769
13741W        W86166  42.567  37.995   0.474
13742W        W86167  21.671  23.632   3.785
13743W        W86168  28.285  17.948   1.686
13744W        W86169  33.279  27.184  14.218
13745W        W86170   7.680  13.114   4.648
13746W        W86171  28.450  10.858   1.279
13747W        W86172  13.574  38.415  11.953
13748W        W86173   8.893   5.169   0.691
13749W        W86174  33.003   5.892   3.282
13750W        W86175   1.978  34.774   3.780
13751W        W86176   2.755  28.857  13.650
13752W        W86177  39.184  24.651  11.221
13753W        W86178   1.415  37.154   1.011
13754W        W86179  44.921   4.257  11.646
13755W        W86180  40.382  40.766   4.823
13756W        W86181   2.006  13.558   3.806
13757W        W86182  15.104  20.672  11.267
13758W        W86183  32.102  19.705   3.695
13759W        W86184  41.480  23.643  11.088
13760W        W86185  35.340  37.511   0.343
13761W        W86186  20.776   4.927  14.641
13762W        W86187  40.253  15.615   4.572
13763W        W86188   4.295  31.174  14.914
13764W        W86189  38.476  30.723   4.945
13765W        W86190   1.379  30.514   0.027
13766W        W86191  26.975  36.916  13.809
13767W        W86192  40.079   6.681   2.891
13768W        W86193   4.345  31.291   1.524
13769W        W86194   8.903  21.113   1.844
13770W        W86195   4.100   0.562  10.880
13771W        W86196   4.248  29.350   1.211
13772W        W86197  38.613  19.653  12.967
13773W        W86198  42.319   4.647   1.402
13774W        W86199  29.074  26.230   4.087
13775W        W86200   1.447  17.854   2.291
13776W        W86201  30.412   6.910   4.984
13777W        W86202  13.228  37.210  13.542
13778W        W86203  11.322  34.906   2.814
13779W        W86204   0.206  38.085   4.192
13780W        W86205  31.080  44.310  12.045
13781W        W86206   5.957  28.511  14.268
13782W        W86207  41.557   6.829   3.904
13783W        W86208  13.183  14.800  14.560
13784W        W86209  24.000  27.470  10.500
13785W        W86210  25.138  37.895  14.606
13786W        W86211  28.715  23.678  11.421
13787W        W86212  17.191  32.531   9.740
13788W        W86213  34.569  12.575  13.973
13789W        W86214  30.797  34.454   0.363
13790W        W86215  24.714  23.962  11.609
13791W        W86216  32.103  14.601  13.798
13792W        W86217  17.069   7.739  14.359
13793W        W86218  37.842   1.369   4.613
13794W        W86219  31.463  29.132  12.661
13795W        W86220  34.144  39.975   3.313
13796W        W86221   3.014  27.259  14.421
13797W        W86222  35.044  11.308  13.959
13798W        W86223   1.151  35.005   1.839
13799W        W86224  31.882   0.251   4.647
13800W        W86225  18.660  40.918   2.841
13801W        W86226  11.837   4.015  13.516
13802W        W86227  42.838  36.590  11.172
13803W        W86228  28.832  36.038   2.388
13804W        W86229  31.137   1.818  12.059
13805W        W86230  10.622  44.281   1.449
13806W        W86231  17.016  22.811  11.482
13807W        W86232  37.887  17.327  14.808
13808W        W86233   9.436  37.448   4.235
13809W        W86234  17.662  29.626   0.657
13810W        W86235   0.546   7.731  13.361
13811W        W86236  31.203  28.472  13.990
13812W        W86237  38.563  41.771   3.445
13813W        W86238  20.662  10.906   2.020
13814W        W86239  22.615  12.882   1.847
13815W        W86240  43.953  22.024   2.597
13816W        W86241  37.508  29.408   2.176
13817W        W86242  28.173  34.016  14.379
13818W        W86243  34.144  24.584  13.412
13819W        W86244  18.571  13.334   0.184
13820W        W86245   9.710   9.908  10.885
13821W        W86246  15.255  33.067  11.675
13822W        W86247  19.005  15.749   4.310
13823W        W86248   5.648  33.548   0.289
13824W        W86249  30.545  17.718   3.378
13825W        W86250  39.315  25.595   2.228
13826W        W86251  13.494  13.719   0.793
13827W        W86252  42.965   7.772  14.070
13828W        W86253  35.584  26.439  11.927
13829W        W86254  19.303  40.514  10.696
13830W        W86255  37.047   4.923  12.060
13831W        W86256  44.417  13.832   0.348
13832W        W86257  21.887   8.817   9.861
13833W        W86258  27.930   0.027  14.393
13834W        W86259  17.716  11.148  11.440
13835W        W86260   6.303  40.592  10.569
13836W        W86261   0.964  18.495   0.372
13837W        W86262  38.365   8.321  13.759
13838W        W86263  25.524  31.402   1.740
13839W        W86264   4.969  24.139  12.903
13840W        W86265  27.489  21.929  13.449
13841W        W86266  31.124  24.697   2.344
13842W        W86267  29.546  25.968  14.322
13843W        W86268  36.105  20.473  13.529
13844W        W86269  31.630  10.600  12.489
13845W        W86270   6.103  32.894   4.251
13846W        W86271  13.863  23.738   3.812
13847W        W86272  35.364   9.694   1.481
13848W        W86273  28.619   7.613  10.723
13849W        W86274  29.407  18.383   4.303
13850W        W86275   2.412   7.326  14.966
13851W        W86276  44.669  21.756  14.344
13852W        W86277  40.291  30.912  11.479
13853W        W86278  29.280  33.130  14.456
13854W        W86279  36.367  41.272  12.764
13855W        W86280   9.604   5.729  12.995
13856W        W86281  42.349   5.657   1.355
13857W        W86282  31.803  39.972   3.950
13858W        W86283  20.431  10.353   4.191
13859W        W86284  42.681   7.341   0.341
13860W        W86285  44.287  37.587  14.038
13861W        W86286   3.730   2.988   2.894
13862W        W86287  25.564  23.101  11.971
13863W        W86288  23.096  25.139   4.072
13864W        W86289  39.488  29.386   4.574
13865W        W86290  17.972   6.284   4.300
13866W        W86291   3.673  35.145  12.163
13867W        W86292   3.358  30.919  14.973
13868W        W86293  12.837   7.326  11.670
13869W        W86294  10.715  19.266  13.023
13870W        W86295  11.538   6.355  13.789
13871W        W86296  16.423  25.756   2.790
13872W        W86297  29.136   6.221  12.836
13873W        W86298  28.653   9.232   1.421
13874W        W86299  28.989  28.680  11.972
13875W        W86300  32.340  27.365  10.043
13876W        W86301  19.590  23.184  12.470
13877W        W86302  25.556  15.828   1.258
13878W        W86303  26.052  10.718  12.632
13879W        W86304  12.665   7.704  10.424
13880W        W86305   2.755  23.066  10.738
13881W        W86306  27.200  20.683   0.748
13882W        W86307   5.285   4.915  12.693
13883W        W86308  10.228  37.306  12.853
13884W        W86309  16.068   2.335   4.649
13885W        W86310  22.927  39.686  14.813
13886W        W86311   4.887   9.043  13.941
13887W        W86312  29.324   4.145  13.330
13888W        W86313   3.875   5.922  11.532
13889W        W86314  11.257  11.840  13.249
13890W        W86315  26.278  25.434  11.654
13891W        W86316  44.575  29.267   2.400
13892W        W86317  39.567  28.099   2.308
13893W        W86318  11.853   1.629   4.263
13894W        W86319  32.530  34.072  14.477
13895W        W86320  12.297   3.459  11.971
13896W        W86321   8.934  26.228   1.327
13897W        W86322  36.298  37.942   3.769
13898W        W86323  17.736  40.409  14.492
13899W        W86324   7.984   1.841   4.612
13900W        W86325   5.203  27.377  13.047
13901W        W86326  11.715  35.586  12.962
13902W        W86327  42.099  36.747  10.839
13903W        W86328  40.766  30.342   2.755
13904W        W86329  21.289  44.466  13.673
13905W        W86330   0.957  42.430   2.273
13906W        W86331  11.488  13.846  14.121
13907W        W86332  43.237   8.269  12.845
13908W        W86333   8.238  39.280   3.146
13909W        W86334  29.769   8.947  12.959
13910W        W86335  19.749  33.065   3.672
13911W        W86336   3.328  27.245  11.522
13912W        W86337  20.404  20.575  14.486
13913W        W86338  16.071  19.443  10.513
13914W        W86339  31.101  31.921   1.326
13915W        W86340  40.521  38.142  10.598
13916W        W86341  35.118  25.071  11.957
13917W        W86342  42.729   4.299   1.469
13918W        W86343  38.371  36.222  14.536
13919W        W86344  22.295  31.137   4.017
13920W        W86345  39.486  22.566   1.956
13921W        W86346  32.732  42.927  12.097
13922W        W86347   1.915  13.482  12.752
13923W        W86348   8.356  18.123  12.599
13924W        W86349   2.219  13.135   0.147
13925W        W86350  16.686   3.937   3.412
13926W        W86351  22.629  14.878  11.923
13927W        W86352  39.336  21.463  10.758
13928W        W86353  37.040  34.433  11.413
13929W        W86354  27.168  43.480   4.649
13930W        W86355  16.173   5.586   1.297
13931W        W86356  31.052  32.001  11.155
13932W        W86357  28.130   1.878   1.633
13933W        W86358  28.009  31.880  13.751
13934W        W86359  41.117  18.603   2.816
13935W        W86360   7.860  39.992  14.827
13936W        W86361  20.050  34.024   3.655
13937W        W86362  11.749  10.432  12.080
13938W        W86363  24.764  40.584   4.947
13939W        W86364  22.965  18.211   0.879
13940W        W86365   6.784  25.700  11.588
13941W        W86366  19.336  19.210   4.045
13942W        W86367   5.998   3.200  12.497
13943W        W86368  36.048  42.038  13.864
13944W        W86369  26.992  11.524  10.684
13945W        W86370   8.159   0.881   2.468
13946W        W86371  42.387  41.239   1.285
13947W        W86372  40.877  32.459  13.760
13948W        W86373   7.894  29.051   4.199
13949W        W86374  38.041  36.834  14.880
13950W        W86375  40.489   4.505   1.804
13951W        W86376  28.568  36.409   0.653
13952W        W86377   4.826  39.446   0.430
13953W        W86378   8.795  19.051   3.387
13954W        W86379   4.303  10.385   1.260
13955W        W86380  13.840  10.164  13.039
13956W        W86381   6.731  30.023  14.559
13957W        W86382  25.169   1.490  14.382
13958W        W86383  11.674  31.414  11.555
13959W        W86384  11.746  34.153   2.462
13960W        W86385   1.300  36.154  11.327
13961W        W86386  22.580  27.578   4.161
13962W        W86387  16.384  36.116   4.165
13963W        W86388  27.174   1.434  10.716
13964W        W86389  24.102  11.592   2.277
13965W        W86390  41.178  18.151   3.076
13966W        W86391  24.990  29.374   1.515
13967W        W86392  21.385  15.278  11.094
13968W        W86393  33.921  15.013   4.296
13969W        W86394   5.540  13.542  14.982
13970W        W86395  37.389   7.601  13.811
13971W        W86396  21.709  12.395   0.497
13972W        W86397  21.148  19.063   4.835
13973W        W86398  33.520   9.869  14.866
13974W        W86399  35.553   9.307  12.079
13975W        W86400  25.198  38.815  14.500
13976W        W86401  12.196  20.893   2.104
13977W        W86402  19.008  33.087  12.856
13978W        W86403  30.417   2.253   2.458
13979W        W86404  28.986  31.213   0.326
13980W        W86405  42.816  15.843   4.236
13981W        W86406  25.632  35.585  13.489
13982W        W86407  41.006  15.706   4.096
13983W        W86408   5.706  21.870  12.161
13984W        W86409  41.981  43.081  13.944
13985W        W86410   0.787  40.502   3.666
13986W        W86411  23.642  22.630  11.455
13987W        W86412  41.904   2.362   1.185
13988W        W86413  44.292  14.548   1.371
13989W        W86414  21.460  10.138   3.233
13990W        W86415   2.119   2.123  13.912
13991W        W86416  24.555  19.267   4.285
13992W        W86417  12.049  24.981  10.040
13993W        W86418  43.505   5.053  14.504
13994W        W86419  20.440  43.304  14.600
13995W        W86420  22.839  40.543  14.343
13996W        W86421   2.226  31.381   2.748
13997W        W86422   1.429  33.370   4.719
13998W        W86423  20.458  31.580   1.268
13999W        W86424  34.169  40.587  12.096
14000W        W86425   2.429  31.529   1.910
14001W        W86426  13.102  17.716   2.730
14002W        W86427  41.809  21.726   9.739
14003W        W86428  15.768  20.036  13.400
14004W        W86429  18.589  32.611   2.421
14005W        W86430  23.314   3.776  13.912
14006W        W86431  26.641  35.567  11.090
14007W        W86432  21.035  35.491  12.532
14008W        W86433  31.271   3.024   4.776
14009W        W86434  20.123  30.507   3.100
14010W        W86435  23.727  19.554   0.782
14011W        W86436  29.047   6.162  14.229
14012W        W86437   0.827  12.648   3.174
14013W        W86438   6.561   1.980   2.207
14014W        W86439  33.989  33.615  11.942
14015W        W86440  31.493  21.176  12.552
14016W        W86441  26.059   3.189  13.462
14017W        W86442  20.554  39.594  11.630
14018W        W86443  42.775  35.085   4.146
14019W        W86444  41.952   4.100  14.243
14020W        W86445  36.466  22.860   0.704
14021W        W86446  36.517  41.532   3.255
14022W        W86447  20.873  14.662   2.748
14023W        W86448  20.012   5.743   3.138
14024W        W86449  18.736  20.225   0.876
14025W        W86450  11.407   5.261   1.461
14026W        W86451  27.068  42.965  11.559
14027W        W86452  37.325  20.258   4.064
14028W        W86453   3.573  17.548   1.975
14029W        W86454  39.245  34.032   4.339
14030W        W86455  17.722  14.378  12.900
14031W        W86456   7.908   2.034  11.479
14032W        W86457  26.349  37.616  12.631
14033W        W86458  24.581  36.085  11.571
14034W        W86459  41.893  44.023  13.821
14035W        W86460  11.177   7.893   0.780
14036W        W86461  39.121  33.126  11.941
14037W        W86462  40.640  18.794   2.745
14038W        W86463  43.406  27.359   0.018
14039W        W86464   7.520  29.408   0.232
14040W        W86465  30.047  13.665  14.274
14041W        W86466  17.237  43.460  13.911
14042W        W86467  12.058   9.412   0.991
14043W        W86468  33.071  19.802  11.874
14044W        W86469   5.406  14.644   1.388
14045W        W86470   6.263   8.998  14.745
14046W        W86471  24.721   7.708   2.303
14047W        W86472   1.473  36.531  14.266
14048W        W86473  22.986  31.852   4.207
14049W        W86474  19.296  41.092   1.807
14050W        W86475   5.154  43.195  14.847
14051W        W86476  31.940  34.857   4.562
14052W        W86477  27.901  38.024   0.670
14053W        W86478  27.227  17.077  14.563
14054W        W86479   3.971  32.016  10.236
14055W        W86480   0.684  42.802  13.121
14056W        W86481  24.314   8.630  11.046
14057W        W86482  18.340  25.060   4.141
14058W        W86483  10.836  37.424  13.501
14059W        W86484   3.687   8.134   5.007
14060W        W86485  28.253  43.998  12.698
14061W        W86486  35.091  36.895   3.538
14062W        W86487   3.947  25.916  12.246
14063W        W86488  29.192   3.896  14.562
14064W        W86489  15.649  31.401  13.391
14065W        W86490  44.297  31.734  10.212
14066W        W86491   1.615  23.180   2.663
14067W        W86492  21.515  16.818  10.615
14068W        W86493   2.263   1.905   0.529
14069W        W86494  28.003  35.700  13.387
14070W        W86495  14.665  24.107   0.947
14071W        W86496  31.059   7.211   0.233
14072W        W86497  37.086   8.721  11.460
14073W        W86498  35.751  12.787  13.207
14074W        W86499   8.849  23.058  12.998
14075W        W86500  22.233   8.723  10.884
14076W        W86501  31.748   9.180   4.317
14077W        W86502  15.444   6.225  14.810
14078W        W86503  29.000  29.152  14.319
14079W        W86504  25.189   0.888   2.431
14080W        W86505  28.857   7.092  11.911
14081W        W86506   4.264  20.771   4.835
14082W        W86507  25.702  32.526  14.017
14083W        W86508   6.575  21.294  10.394
14084W        W86509  33.412  16.037   3.588
14085W        W86510  29.656  20.078   1.886
14086W        W86511  40.321  38.908  12.981
14087W        W86512  37.461  32.629   2.614
14088W        W86513  39.299   7.476   2.755
14089W        W86514   6.727  12.783   0.916
14090W        W86515  39.412   8.268   4.093
14091W        W86516  19.241  13.095   3.388
14092W        W86517  31.480   7.911   1.710
14093W        W86518  14.138  18.460  12.634
14094W        W86519  39.515  11.884  11.202
14095W        W86520  16.161  20.555   2.594
14096W        W86521  24.477   8.608  14.918
14097W        W86522  23.009  42.353  14.185
14098W        W86523  40.502  28.252   4.980
14099W        W86524  22.422  23.198  11.162
14100W        W86525  18.886  36.529   3.121
14101W        W86526  18.325  15.619   2.917
14102W        W86527  38.483  19.971   1.575
14103W        W86528  32.793  14.433  12.363
14104W        W86529  25.853   4.438  12.635
14105W        W86530  39.001   6.128   2.399
14106W        W86531  19.844  10.608   2.213
14107W        W86532  12.808   6.964   4.001
14108W        W86533  31.555  13.301   4.657
14109W        W86534  38.268  36.305  11.280
14110W        W86535  10.806  41.093  10.684
14111W        W86536  11.243  26.047   1.779
14112W        W86537  11.218  41.495   2.372
14113W        W86538  35.085   8.665  12.731
14114W        W86539  27.543  15.713  12.653
14115W        W86540  13.337   9.128   1.757
14116W        W86541   4.824  43.451  13.601
14117W        W86542  44.038   2.938   1.345
14118W        W86543  22.188   8.720   4.220
14119W        W86544   6.779  15.192  10.622
14120W        W86545  24.105  18.754  10.843
14121W        W86546  40.240  41.248  10.741
14122W        W86547  35.946  12.605  11.998
14123W        W86548   0.690   6.864  14.725
14124W        W86549  19.512  43.335   2.336
14125W        W86550  30.159  24.772   4.251
14126W        W86551  25.485   0.790  13.461
14127W        W86552  26.235  12.183  11.915
14128W        W86553  41.269  41.835   4.226
14129W        W86554  10.869  37.392   4.566
14130W        W86555  37.617  38.053   3.129
14131W        W86556  22.171   4.792   4.597
14132W        W86557   8.862   0.371   2.124
14133W        W86558  25.701  10.277  11.250
14134W        W86559   4.418  27.124   1.417
14135W        W86560  43.386  25.238  10.687
14136W        W86561  41.423  20.282  10.247
14137W        W86562  16.794  19.962  12.385
14138W        W86563   0.973  36.090  10.758
14139W        W86564  14.555  10.685   0.921
14140W        W86565   2.805   2.181   3.283
14141W        W86566  41.111  21.213   2.838
14142W        W86567  41.421  35.014  14.060
14143W        W86568  19.313  17.297   0.414
14144W        W86569  19.119  21.277   4.014
14145W        W86570   9.748  15.724   1.075
14146W        W86571   3.651  31.649   0.464
14147W        W86572  26.644   8.703   3.309
14148W        W86573   6.735  26.933   3.573
14149W        W86574  27.162  38.387   2.916
14150W        W86575  35.881  32.942   4.856
14151W        W86576  29.836  22.490   2.139
14152W        W86577   1.900   6.029   4.743
14153W        W86578   3.841  18.112   2.172
14154W        W86579   1.185  12.629  14.894
14155W        W86580  33.466  39.048   1.282
14156W        W86581  27.029   7.180   4.523
14157W        W86582   2.549   1.883   1.539
14158W        W86583  18.748   2.954  10.976
14159W        W86584   8.868  11.582   0.354
14160W        W86585  27.392   2.508  14.467
14161W        W86586  14.651  28.394   1.343
14162W        W86587  12.316  15.121  12.905
14163W        W86588  26.050  30.699  13.451
14164W        W86589  27.531  41.155   1.959
14165W        W86590  16.808   7.120  11.783
14166W        W86591  20.641  40.477  11.355
14167W        W86592  16.285  15.568  12.845
14168W        W86593  20.847  40.418   1.320
14169W        W86594  18.232  43.294   1.438
14170W        W86595   7.714   3.638  11.425
14171W        W86596  18.106  18.114  12.832
14172W        W86597   9.502  27.946  14.895
14173W        W86598  23.485  43.827  12.935
14174W        W86599  29.495  35.825   4.546
14175W        W86600  13.271   6.675  12.921
14176W        W86601  35.254  34.327  13.971
14177W        W86602   2.638  25.204   5.127
14178W        W86603  19.711  38.601  13.586
14179W        W86604   5.045  10.736  14.490
14180W        W86605  14.284  15.670  10.060
14181W        W86606   7.825  12.408   1.284
14182W        W86607   5.468  19.199   0.743
14183W        W86608  22.287   0.389   3.777
14184W        W86609  19.890   3.111   3.717
14185W        W86610   1.935  36.942   3.356
14186W        W86611   3.342  42.210  11.943
14187W        W86612   2.845  11.796  14.372
14188W        W86613  17.254  35.454  12.525
14189W        W86614  38.072   8.405  13.305
14190W        W86615  17.070  21.485   1.444
14191W        W86616  41.630  16.367  14.041
14192W        W86617   0.470  29.454   0.411
14193W        W86618  25.576   8.918   0.923
14194W        W86619  18.075   6.721  14.527
14195W        W86620   6.875  27.403  14.310
14196W        W86621  11.374  22.071  14.533
14197W        W86622  41.972  19.581   3.602
14198W        W86623  37.856  44.503  12.528
14199W        W86624  35.006  43.041   2.013
14200W        W86625  39.419  38.100   0.988
14201W        W86626  30.030   4.523  12.698
14202W        W86627   3.717  35.160   3.115
14203W        W86628  40.840  36.972  11.707
14204W        W86629  16.093  12.813   1.305
14205W        W86630  43.287  15.736   2.866
14206W        W86631  14.339  10.791  14.524
14207W        W86632  42.095  41.068   3.539
14208W        W86633  19.506   2.378  14.425
14209W        W86634  26.640  37.570   1.004
14210W        W86635  28.267  39.496   3.379
14211W        W86636  38.949  34.906  12.351
14212W        W86637  25.984  42.409  14.474
14213W        W86638   0.968  13.251  14.001
14214W        W86639  33.067   2.751   1.440
14215W        W86640  37.810  13.108   0.256
14216W        W86641  17.600  17.959  12.819
14217W        W86642  23.535  16.257  13.052
14218W        W86643  36.830  20.764   2.166
14219W        W86644  20.550  21.958   2.997
14220W        W86645   7.603  19.117  14.541
14221W        W86646   4.231   1.221   3.101
14222W        W86647  42.903   7.668   2.369
14223W        W86648  43.552  25.567   0.380
14224W        W86649  32.354   6.355   1.630
14225W        W86650  15.947  27.077  10.657
14226W        W86651   2.239  33.019  12.459
14227W        W86652  41.773  10.224   4.960
14228W        W86653   2.330  18.028  11.961
14229W        W86654  35.117   5.010   5.083
14230W        W86655  40.104  13.636   1.200
14231W        W86656  40.522   9.929   4.503
14232W        W86657  38.849   9.911   3.908
14233W        W86658  22.206  15.227   2.128
14234W        W86659  17.038  40.267   1.237
14235W        W86660  12.202  23.067   3.503
14236W        W86661  33.151  20.102   1.512
14237W        W86662  24.178  18.090   4.554
14238W        W86663  32.933   5.177  11.086
14239W        W86664   0.274  16.241   2.365
14240W        W86665  14.775  19.777  13.956
14241W        W86666  39.609   3.660   0.512
14242W        W86667  11.746   1.039  12.553
14243W        W86668  38.342   1.383   2.744
14244W        W86669   6.873  15.282  11.132
14245W        W86670  34.832  42.190  11.121
14246W        W86671  12.149   1.089   0.745
14247W        W86672  30.523  36.415  13.370
14248W        W86673  27.938  39.760  14.287
14249W        W86674  20.007  40.497   2.376
14250W        W86675  32.332  31.647   1.921
14251W        W86676   1.763  40.234  10.771
14252W        W86677  35.679  36.327   3.232
14253W        W86678  28.916  22.699  13.647
14254W        W86679  13.762   5.359   3.942
14255W        W86680  42.684  21.210  13.816
14256W        W86681   2.466  37.086  11.887
14257W        W86682   4.640   5.876   5.035
14258W        W86683  37.376  11.897  12.612
14259W        W86684  21.168  14.401  11.527
14260W        W86685   9.336  43.753  12.441
14261W        W86686   9.285  40.703  13.557
14262W        W86687  42.048  37.432  12.005
14263W        W86688  34.597  32.466   1.306
14264W        W86689  40.782  14.566  11.473
14265W        W86690  43.433  38.949  10.133
14266W        W86691  34.322  20.781   1.362
14267W        W86692  21.776  15.290  13.320
14268W        W86693  13.781  17.031   0.887
14269W        W86694  12.114  14.713  10.793
14270W        W86695  18.622  14.360  12.879
14271W        W86696  28.687  40.288   3.781
14272W        W86697  29.630  17.365   4.152
14273W        W86698  39.513  44.446   4.512
14274W        W86699   5.209  15.652  10.716
14275W        W86700  28.980  41.634  13.575
14276W        W86701  29.964  42.265  10.489
14277W        W86702  31.217  29.577  12.783
14278W        W86703  26.345   9.114  12.973
14279W        W86704  23.993  41.071   0.745
14280W        W86705  39.294   1.213  10.685
14281W        W86706  34.648  15.744  14.817
14282W        W86707   5.486  13.537   2.659
14283W        W86708  41.363  23.414   2.665
14284W        W86709  42.404  32.216  12.452
14285W        W86710  30.592   5.768  14.292
14286W        W86711  25.023  23.255   1.616
14287W        W86712  24.084  32.467  11.997
14288W        W86713  14.644   6.156   3.266
14289W        W86714  27.441   4.786  11.885
14290W        W86715  24.720  43.802   1.857
14291W        W86716  29.404   1.898   3.971
14292W        W86717  31.329  25.014  11.557
14293W        W86718  21.655   4.041   4.212
14294W        W86719  38.953  41.813  11.881
14295W        W86720  21.284   2.094   2.119
14296W        W86721  38.650   8.357  14.740
14297W        W86722  20.547  12.762   2.089
14298W        W86723  26.263  39.638   1.000
14299W        W86724  34.155   0.979   2.323
14300W        W86725  10.210  24.212  11.317
14301W        W86726   9.670  38.605   2.142
14302W        W86727  16.227  41.992  10.537
14303W        W86728  40.567  37.486   2.205
14304W        W86729  39.965  22.212  13.201
14305W        W86730  39.875  25.366   0.822
14306W        W86731  36.229  41.018  13.455
14307W        W86732  30.625  17.548   4.339
14308W        W86733  21.721  41.423   1.544
14309W        W86734   4.290   3.869   3.347
14310W        W86735  38.493  37.540  10.175
14311W        W86736  16.778  10.378  13.349
14312W        W86737  42.014  20.488  10.633
14313W        W86738  24.714  41.797   3.649
14314W        W86739   8.906  28.478   1.387
14315W        W86740  19.600   9.129  14.263
14316W        W86741  25.614  20.274  12.331
14317W        W86742  43.521   0.300  12.506
14318W        W86743   3.825  13.102  11.670
14319W        W86744  41.427   4.973   1.038
14320W        W86745  15.614  15.715   1.377
14321W        W86746  23.245  22.427  14.204
14322W        W86747   4.914   0.450  11.433
14323W        W86748  44.374  29.882  14.231
14324W        W86749  37.622   3.366  12.427
14325W        W86750  43.470   9.928  10.209
14326W        W86751   5.722  43.883   1.757
14327W        W86752  36.578  26.035   4.097
14328W        W86753  42.771  10.516  13.746
14329W        W86754  14.120   6.991  14.423
14330W        W86755   2.393  10.680  11.120
14331W        W86756  27.973  18.976   4.877
14332W        W86757   6.392  39.980   4.790
14333W        W86758  10.182  21.807  11.867
14334W        W86759  43.861   2.198   3.409
14335W        W86760  14.227  34.646   4.558
14336W        W86761   9.647   4.894  10.702
14337W        W86762  11.721   2.665   4.118
14338W        W86763  43.918  36.081  13.319
14339W        W86764  35.251  42.797  11.008
14340W        W86765  29.473  23.997   0.730
14341W        W86766   2.191  15.333   0.674
14342W        W86767  15.785  30.913  11.588
14343W        W86768   0.976  41.259   2.241
14344W        W86769   2.667  11.198   1.876
14345W        W86770  31.551  18.586  13.594
14346W        W86771  39.822  35.608   2.608
14347W        W86772  42.117  30.844   0.825
14348W        W86773  10.193  21.654   2.281
14349W        W86774  32.496   9.451  11.857
14350W        W86775   9.337   3.369  12.895
14351W        W86776  39.306  23.116   0.346
14352W        W86777  23.905  30.500  10.568
14353W        W86778   9.119  36.977   2.765
14354W        W86779  11.909  13.054  13.319
14355W        W86780   0.821   0.319  12.499
14356W        W86781  43.723   0.092   2.215
14357W        W86782   1.626  10.442   2.729
14358W        W86783   6.297  29.603   3.673
14359W        W86784  39.115  35.474   0.752
14360W        W86785  17.576   8.182   1.763
14361W        W86786  23.700  19.867   2.211
14362W        W86787  18.803   6.695   4.630
14363W        W86788   2.716  15.218   2.300
14364W        W86789  15.256  28.022   4.537
14365W        W86790   8.183  19.729   0.312
14366W        W86791  31.881  14.226  11.605
14367W        W86792  19.601  22.015  13.667
14368W        W86793  14.292   9.610   0.170
14369W        W86794  10.327  16.039  13.543
14370W        W86795  44.197   6.067  10.234
14371W        W86796  27.098  25.819   1.795
14372W        W86797  20.311   3.328   0.752
14373W        W86798  31.476  24.692  13.347
14374W        W86799   1.327   9.601  12.962
14375W        W86800   8.784  18.111  12.300
14376W        W86801  43.810  22.173  14.060
14377W        W86802  30.117  14.257  13.371
14378W        W86803  14.945   0.956  12.207
14379W        W86804  17.057  42.812   0.922
14380W        W86805  28.129  32.154   1.327
14381W        W86806   3.296   2.701   2.777
14382W        W86807  15.704  40.527  13.319
14383W        W86808  19.712  32.139  14.469
14384W        W86809  39.379  19.666   1.288
14385W        W86810   9.171  38.371   2.197
14386W        W86811  27.351  23.733  12.938
14387W        W86812  35.187  22.188  14.349
14388W        W86813  13.783  35.486   1.194
14389W        W86814   7.467  19.344   3.110
14390W        W86815   5.314  28.679   3.325
14391W        W86816  37.992  17.705  13.004
14392W        W86817  16.557   1.760   4.409
14393W        W86818   6.430   9.244   1.448
14394W        W86819  18.880  12.343   4.066
14395W        W86820  14.247   2.428   2.868
14396W        W86821  15.040   9.205  13.790
14397W        W86822  22.554  22.316   0.791
14398W        W86823  39.269  43.053  14.260
14399W        W86824   0.306  10.836  12.645
14400W        W86825  32.428  15.333  13.588
14401W        W86826  21.778  26.163   2.226
14402W        W86827  36.700  31.968  14.917
14403W        W86828  10.933  44.960   0.343
14404W        W86829  14.962  20.929   3.120
14405W        W86830  24.222  41.229  12.369
14406W        W86831   8.681  26.667  12.902
14407W        W86832   3.709  11.225   0.914
14408W        W86833  34.559  34.395   4.367
14409W        W86834  25.518   5.216   3.319
14410W        W86835  34.061  11.327   4.589
14411W        W86836  30.211  14.298   3.348
14412W        W86837  12.384  44.848  12.482
14413W        W86838  40.422  26.039  11.633
14414W        W86839  22.452   3.546  11.086
14415W        W86840  42.329  43.895  13.506
14416W        W86841  27.653  17.000   0.451
14417W        W86842   8.166  23.859   1.769
14418W        W86843  39.862   1.043   1.201
14419W        W86844  36.915  27.626   0.404
14420W        W86845  43.554  11.700  12.304
14421W        W86846  26.006  33.009   1.787
14422W        W86847  24.593  10.807   2.173
14423W        W86848  27.640  21.290   1.997
14424W        W86849  36.007  43.072   2.229
14425W        W86850  31.038  35.995   3.493
14426W        W86851  37.527  16.845  13.067
14427W        W86852  27.858  17.054   1.454
14428W        W86853  12.693  16.203  12.969
14429W        W86854  25.849   9.913   1.267
14430W        W86855   6.428   1.806   4.354
14431W        W86856  14.605   8.831   1.682
14432W        W86857  39.250   6.008  11.898
14433W        W86858   7.842  13.626   4.689
14434W        W86859   6.376  22.187   2.478
14435W        W86860  30.396  33.388  13.870
14436W        W86861   6.943  42.507   4.894
14437W        W86862  19.822  44.334  14.507
14438W        W86863  28.054  37.930  11.355
14439W        W86864  25.232  39.378  11.895
14440W        W86865  13.577   5.514  14.366
14441W        W86866  33.872  16.795  11.812
14442W        W86867  43.420  33.168   1.362
14443W        W86868  36.518  40.145  11.835
14444W        W86869  17.558   4.152  14.869
14445W        W86870  14.146  40.921  12.560
14446W        W86871   2.434   1.260  10.811
14447W        W86872  20.156  16.208  10.463
14448W        W86873   3.562  30.039  13.870
14449W        W86874  35.534   7.247   0.258
14450W        W86875  38.608  37.034   1.412
14451W        W86876   9.142  16.940   5.369
14452W        W86877   3.017  35.809   1.768
14453W        W86878  22.611  40.377  11.025
14454W        W86879  26.093   5.307   2.430
14455W        W86880   0.163   3.185   2.261
14456W        W86881  31.997  16.279   4.230
14457W        W86882   7.257  16.666   1.883
14458W        W86883  27.717  31.203   4.476
14459W        W86884   8.219   0.874   3.864
14460W        W86885  41.807  11.078   1.290
14461W        W86886   0.889  13.223   1.440
14462W        W86887  17.204  26.464  13.021
14463W        W86888  38.389  11.625   2.284
14464W        W86889  28.214  38.433   4.252
14465W        W86890  15.738  35.180  12.022
14466W        W86891   3.636  14.712  10.583
14467W        W86892  33.387  29.185   0.584
14468W        W86893  38.831  13.854  14.947
14469W        W86894   3.981  15.251   0.524
14470W        W86895  22.218   4.370  14.259
14471W        W86896  15.171  16.916  14.143
14472W        W86897  11.238   2.398  10.012
14473W        W86898  13.930  11.083  11.100
14474W        W86899   8.970  14.322   1.987
14475W        W86900  16.755  32.405   2.167
14476W        W86901  29.922  22.311   2.871
14477W        W86902  18.711  38.140   4.152
14478W        W86903  11.846  41.310  11.627
14479W        W86904  27.740   9.832  13.766
14480W        W86905  10.360  41.282   2.805
14481W        W86906  26.211  19.716   0.346
14482W        W86907   3.970  21.635  13.496
14483W        W86908  39.425   9.884  14.952
14484W        W86909  13.893  38.437   4.392
14485W        W86910  44.989  34.102  14.883
14486W        W86911  27.818  37.120  12.538
14487W        W86912   2.694  29.485   2.728
14488W        W86913  43.284  15.015  12.546
14489W        W86914  21.350  33.448  14.730
14490W        W86915  10.673  38.926  13.836
14491W        W86916  41.975   4.831  14.949
14492W        W86917  38.801  28.178  12.499
14493W        W86918  34.905  21.633   3.403
14494W        W86919  44.783  41.322  13.529
14495W        W86920  43.390  41.008   1.275
14496W        W86921  22.615  14.041   3.286
14497W        W86922  28.180  13.734   0.177
14498W        W86923   1.432  29.128  14.252
14499W        W86924  13.084  33.885   2.327
14500W        W86925  14.646   7.129  13.873
14501W        W86926  19.727  24.824   4.695
14502W        W86927  24.116  19.244  10.654
14503W        W86928   6.788   8.800   4.650
14504W        W86929  13.753  26.545   1.191
14505W        W86930  18.664  27.287   2.359
14506W        W86931  14.656   0.361  13.993
14507W        W86932  12.678  40.899  14.999
14508W        W86933  31.490   1.874   4.930
14509W        W86934  40.283  34.950  11.512
14510W        W86935  16.461  32.977   3.310
14511W        W86936  19.221  24.305   4.026
14512W        W86937  42.727   2.425  11.337
14513W        W86938   9.943   6.950   3.321
14514W        W86939  30.923  13.432  14.578
14515W        W86940  29.764  19.565  11.570
14516W        W86941   0.799  19.024  11.573
14517W        W86942   9.972  40.522  14.908
14518W        W86943   5.485   6.426   3.547
14519W        W86944  11.298   4.961   4.197
14520W        W86945  14.836  10.173   1.722
14521W        W86946  37.463  24.062   2.808
14522W        W86947  44.944   4.070   2.230
14523W        W86948  26.998  12.683   4.785
14524W        W86949   0.294  27.137   2.232
14525W        W86950  19.696  29.785   0.294
14526W        W86951   8.955  44.494  11.150
14527W        W86952  33.100  39.329  13.467
14528W        W86953   7.725   9.637   0.283
14529W        W86954   2.813   5.287   3.638
14530W        W86955  29.951  38.634  11.144
14531W        W86956  32.092  31.832  14.508
14532W        W86957   7.312   4.710   1.415
14533W        W86958  23.105  40.486  11.146
14534W        W86959   6.322  26.718   3.786
14535W        W86960  37.549   8.259   2.193
14536W        W86961  21.243  13.055   3.402
14537W        W86962  12.835   6.980  12.817
14538W        W86963  21.800   2.728  10.732
14539W        W86964  14.081  19.139  13.918
14540W        W86965   5.420  32.972   3.488
14541W        W86966  31.563   4.652  12.154
14542W        W86967  20.403   2.174   2.734
14543W        W86968  31.875  14.085   1.346
14544W        W86969  30.196   3.717   1.658
14545W        W86970  26.447  22.275  14.380
14546W        W86971  10.573   6.294   2.853
14547W        W86972  32.471  39.308  11.983
14548W        W86973  11.349  26.511   1.006
14549W        W86974  19.479  24.527  11.181
14550W        W86975   6.769  10.499  10.513
14551W        W86976  36.078  33.935  13.095
14552W        W86977  43.969  33.114   3.625
14553W        W86978  20.843  44.846   3.224
14554W        W86979  39.357   6.475   0.166
14555W        W86980  21.961  38.961  14.496
14556W        W86981  32.878  41.253  14.362
14557W        W86982  34.585  37.622   3.100
14558W        W86983  14.663   7.676  10.729
14559W        W86984  32.350  39.421  13.823
14560W        W86985  22.713  33.309   1.388
14561W        W86986  20.663  28.016   2.823
14562W        W86987  23.055   8.101   1.397
14563W        W86988  18.803  25.241   3.995
14564W        W86989   5.366  38.785  13.897
14565W        W86990  36.677   1.025   3.831
14566W        W86991  25.202  19.279  12.979
14567W        W86992   2.559   8.427  10.593
14568W        W86993  36.572  17.045   0.114
14569W        W86994  22.974  44.952   4.294
14570W        W86995   5.828  19.018  10.617
14571W        W86996  16.364  12.819  12.367
14572W        W86997  30.745   3.651  12.250
14573W        W86998  21.081  34.958  12.897
14574W        W86999  42.494  19.090   4.599
14575W        W87000  26.259  34.701   3.788
14576W        W87001  44.701  15.144  10.816
14577W        W87002  11.117  42.036  14.854
14578W        W87003   8.734  14.601   2.867
14579W        W87004  23.704   6.481  13.145
14580W        W87005  17.665   9.422  13.781
14581W        W87006  36.355  39.434   1.923
14582W        W87007  28.919  20.246  11.894
14583W        W87008   5.233  27.674   2.230
14584W        W87009  15.650  37.701  13.457
14585W        W87010  32.900  43.733   2.420
14586W        W87011  12.985  20.021   0.788
14587W        W87012  32.343   3.390  11.618
14588W        W87013   4.240  42.461   3.786
14589W        W87014  11.454  31.874  14.744
14590W        W87015   0.254  30.970  10.104
14591W        W87016  32.537  19.523   0.897
14592W        W87017   5.383  14.173   3.212
14593W        W87018  25.976  40.239   4.615
14594W        W87019  13.219  35.877   2.817
14595W        W87020   3.784  31.985  13.309
14596W        W87021   4.872  32.922  12.945
14597W        W87022  43.093   6.928   1.437
14598W        W87023  40.261  16.501  11.986
14599W        W87024  44.796  17.974  14.956
14600W        W87025   5.283  27.123  11.054
14601W        W87026  10.755  28.923  11.958
14602W        W87027  36.373   4.906   4.223
14603W        W87028  28.479   2.150   0.300
14604W        W87029  35.899   9.157  10.114
14605W        W87030  16.796  26.628  11.594
14606W        W87031  29.648  39.560  10.474
14607W        W87032  12.646  14.842  11.516
14608W        W87033  31.163  41.381   9.798
14609W        W87034  34.438   2.048  10.706
14610W        W87035  34.681  24.017   1.300
14611W        W87036  13.768  14.818   3.751
14612W        W87037  29.126  16.832   1.882
14613W        W87038  40.350  15.514  13.514
14614W        W87039   5.037  41.421  13.520
14615W        W87040  15.573  14.230  13.113
14616W        W87041   3.873   4.398  10.589
14617W        W87042  42.897  18.130  13.807
14618W        W87043  21.250  30.591   3.152
14619W        W87044  28.615  41.443   4.134
14620W        W87045   5.157  28.302  11.964
14621W        W87046   6.384  23.020   0.227
14622W        W87047  42.755  35.819  11.979
14623W        W87048   8.636  35.813   3.128
14624W        W87049  23.206  41.812  11.588
14625W        W87050  23.011  30.196   2.712
14626W        W87051  42.356  13.306  14.322
14627W        W87052  34.892   3.783   1.855
14628W        W87053  31.984   1.154  11.383
14629W        W87054  43.013   7.830  10.720
14630W        W87055   3.154  44.266   1.277
14631W        W87056  25.054  29.476   3.842
14632W        W87057  13.834  20.246   0.309
14633W        W87058  17.068  21.900  11.559
14634W        W87059   6.076  37.352   4.730
14635W        W87060  26.685  33.614  10.499
14636W        W87061  19.185  36.597   3.526
14637W        W87062  42.838  14.665  14.346
14638W        W87063  43.068   8.409   4.511
14639W        W87064  30.706  16.162  12.933
14640W        W87065  27.424  30.576  11.054
14641W        W87066  11.094  41.400   4.840
14642W        W87067  38.676  33.516   0.909
14643W        W87068  33.852   9.587  13.912
14644W        W87069  17.300  22.970  10.202
14645W        W87070  11.330  25.001  13.852
14646W        W87071  26.436  44.795   3.832
14647W        W87072   9.728  39.004  12.476
14648W        W87073  21.647  32.702  10.975
14649W        W87074  29.213   9.636   2.230
14650W        W87075   2.412  18.561   4.026
14651W        W87076   3.930  26.726   3.621
14652W        W87077  40.787  19.848  11.120
14653W        W87078   9.405  31.484   0.379
14654W        W87079   7.874  13.775  12.733
14655W        W87080  13.849  26.636  11.399
14656W        W87081  22.672   7.838  12.998
14657W        W87082  27.677  27.328   0.610
14658W        W87083   8.607  19.021  14.408
14659W        W87084  43.706   0.216  11.112
14660W        W87085  16.873   2.366   2.885
14661W        W87086  26.937   5.503   1.227
14662W        W87087  27.707  21.934   2.645
14663W        W87088  20.304  35.661  11.890
14664W        W87089  28.111  42.831  14.270
14665W        W87090  31.004  28.258  10.260
14666W        W87091  19.145  18.120  10.761
14667W        W87092   7.442  33.564   3.808
14668W        W87093  19.034   0.912   2.852
14669W        W87094  44.914  24.478   0.750
14670W        W87095   2.184  37.565  11.427
14671W        W87096  34.106   7.324   4.941
14672W        W87097   9.883   4.663  11.085
14673W        W87098  19.112   3.386  13.518
14674W        W87099  44.834  22.470  11.917
14675W        W87100  27.159  21.248   2.193
14676W        W87101  21.111   7.444   1.944
14677W        W87102  20.376  35.518   3.668
14678W        W87103  43.957  30.506  11.565
14679W        W87104   0.418  10.273  11.843
14680W        W87105  32.678   8.723  14.260
14681W        W87106  11.615  38.508  10.236
14682W        W87107  15.049  26.757   0.877
14683W        W87108   4.025  17.833  12.531
14684W        W87109   3.790  39.718  13.434
14685W        W87110   3.275  25.104   1.670
14686W        W87111  34.892  30.870  12.046
14687W        W87112  42.955  28.199  13.538
14688W        W87113  31.918   7.422  14.687
14689W        W87114  13.265  28.822  10.450
14690W        W87115  17.126   7.241   3.990
14691W        W87116  31.878  24.307  14.565
14692W        W87117   1.213   7.882  10.673
14693W        W87118  36.243   1.371   3.564
14694W        W87119  40.826  19.252  14.053
14695W        W87120  35.490  30.316  13.977
14696W        W87121  36.618  30.995  13.089
14697W        W87122  37.850  33.968   4.747
14698W        W87123  17.652  10.663   0.247
14699W        W87124  11.833  34.791  11.915
14700W        W87125  26.324  15.359   0.750
14701W        W87126  27.947  34.452  13.830
14702W        W87127   7.423  27.063  14.213
14703W        W87128  31.517  24.053  14.236
14704W        W87129  34.499   3.175   4.199
14705W        W87130  39.962   0.508  12.510
14706W        W87131  11.091   7.304   0.438
14707W        W87132  31.645  22.775   1.891
14708W        W87133  18.672   5.315  14.283
14709W        W87134  12.020  17.647  11.914
14710W        W87135   8.986  24.058  10.564
14711W        W87136  15.302   2.396   5.167
14712W        W87137  32.346   2.944   4.535
14713W        W87138  36.305  40.859  10.566
14714W        W87139  13.129  33.602   1.895
14715W        W87140  24.538  10.566  10.693
14716W        W87141  32.698  18.175   2.261
14717W        W87142  44.807   5.871  11.865
14718W        W87143  19.795  38.370   2.056
14719W        W87144  18.974  15.387   0.797
14720W        W87145  40.454  10.856   1.481
14721W        W87146  39.311  17.712   3.149
14722W        W87147  15.783  44.047  11.569
14723W        W87148  22.289   4.294  13.388
14724W        W87149   8.000  30.192  11.016
14725W        W87150  25.556  25.739   2.849
14726W        W87151  31.846  35.402   2.916
14727W        W87152  26.142  42.475  10.965
14728W        W87153  29.325   3.377   1.276
14729W        W87154  39.271  32.239  10.253
14730W        W87155  37.208   9.877  13.519
14731W        W87156   2.270  24.482   0.408
14732W        W87157  15.581  15.910  11.654
14733W        W87158  16.676   8.641  10.401
14734W        W87159   7.375  15.603   2.933
14735W        W87160  26.280   4.839  10.531
14736W        W87161  28.777  16.137   1.388
14737W        W87162  18.613  23.084   0.516
14738W        W87163  30.643  34.103   4.480
14739W        W87164   9.206  44.508   2.417
14740W        W87165  13.320  26.546  10.689
14741W        W87166  21.444  19.625  10.847
14742W        W87167  25.637   6.359   2.775
14743W        W87168  36.919   9.247   4.982
14744W        W87169   5.262  26.076  10.656
14745W        W87170  22.532  25.270   3.656
14746W        W87171  20.566  11.675  14.905
14747W        W87172   8.225  39.098   1.256
14748W        W87173  35.988  43.551  12.495
14749W        W87174  40.425   8.266   2.236
14750W        W87175   5.347  30.042  12.822
14751W        W87176  32.600  14.253  14.606
14752W        W87177  28.010  44.943  11.106
14753W        W87178  40.088  21.605  12.522
14754W        W87179  15.901   7.196   3.287
14755W        W87180   2.481  25.599   3.735
14756W        W87181  36.022  20.825   5.156
14757W        W87182  31.374   1.817   0.282
14758W        W87183  17.729   0.765   0.014
14759W        W87184   2.339   2.365   2.380
14760W        W87185  16.856  38.916  11.015
14761W        W87186  17.958  19.214  13.928
14762W        W87187  18.207  16.825   0.431
14763W        W87188  40.431   3.392   3.141
14764W        W87189   4.146  44.350  14.735
14765W        W87190  38.103  13.175  13.019
14766W        W87191  14.632  16.593  11.569
14767W        W87192  30.461  33.993   1.690
14768W        W87193  29.028  18.815  11.671
14769W        W87194  22.784  33.036  12.913
14770W        W87195  40.827  25.632  10.632
14771W        W87196  31.961  32.299  12.886
14772W        W87197  22.240  11.800   5.002
14773W        W87198  21.693  10.364  13.010
14774W        W87199   3.027   9.354  14.322
14775W        W87200  16.848  40.221  11.205
14776W        W87201   4.296   1.781   0.707
14777W        W87202  42.365  15.626   0.772
14778W        W87203  28.388  28.699  11.118
14779W        W87204  29.961  43.451  14.248
14780W        W87205  28.826   1.049  11.293
14781W        W87206   3.189  31.608  10.694
14782W        W87207  22.481  42.244   4.932
14783W        W87208  41.790  41.736  13.359
14784W        W87209  33.118   2.498  14.742
14785W        W87210  25.390  12.254  14.184
14786W        W87211  34.853  29.094   1.313
14787W        W87212  28.305  37.781   4.837
14788W        W87213  16.235  36.821  13.467
14789W        W87214   4.725  39.927  14.444
14790W        W87215  22.283  29.001   4.765
14791W        W87216  18.304   7.863   4.419
14792W        W87217  26.285  24.682  14.867
14793W        W87218  43.479  27.757   0.977
14794W        W87219  12.232  25.605  11.093
14795W        W87220  43.133   6.554   0.247
14796W        W87221  21.994   5.024   4.181
14797W        W87222  30.619  17.573   0.447
14798W        W87223  36.035  33.186  12.448
14799W        W87224   3.811   0.284   3.746
14800W        W87225   6.221  18.999  14.069
14801W        W87226  12.288  11.904   3.842
14802W        W87227  44.894  16.347  11.909
14803W        W87228  17.326   9.727  11.043
14804W        W87229   0.941  12.540   3.667
14805W        W87230  21.221  11.286   1.819
14806W        W87231  15.873  36.464   1.753
14807W        W87232  16.312  27.956   2.616
14808W        W87233  28.205  39.450   3.915
14809W        W87234  27.476  25.122  11.162
14810W        W87235  22.989  12.352   3.784
14811W        W87236  21.960  42.741  12.918
14812W        W87237  33.048  24.539   2.748
14813W        W87238  18.282  28.570   2.550
14814W        W87239  27.472  38.961  10.738
14815W        W87240   1.705  21.239   4.536
14816W        W87241  44.336  26.640  13.100
14817W        W87242  32.749  38.569   1.267
14818W        W87243  11.990  26.400   4.584
14819W        W87244   9.656  41.916  13.899
14820W        W87245  11.802  13.347   2.271
14821W        W87246  30.621  20.817   4.063
14822W        W87247  29.453  15.039  11.226
14823W        W87248  43.693  41.506   2.931
14824W        W87249  12.900  15.808  11.911
14825W        W87250  40.189  34.530  11.130
14826W        W87251   4.504  23.546   9.730
14827W        W87252  43.417   3.347  10.443
14828W        W87253  20.186  19.106  10.903
14829W        W87254  21.299   3.818  14.470
14830W        W87255  38.043  13.474   4.909
14831W        W87256  39.530   6.212   1.727
14832W        W87257  28.231  34.817   4.229
14833W        W87258   7.288   3.340  11.424
14834W        W87259  23.709  25.509  13.775
14835W        W87260  21.147  37.422   5.275
14836W        W87261  36.137  27.151   1.000
14837W        W87262   7.298  39.582   4.309
14838W        W87263  35.808  38.082   1.456
14839W        W87264  24.125  28.712  13.416
14840W        W87265  40.408  15.160  14.441
14841W        W87266  42.353  19.790   1.259
14842W        W87267   3.552   3.307   1.251
14843W        W87268  35.373   1.349  11.657
14844W        W87269  37.006  28.996  13.443
14845W        W87270  34.718   4.944   0.268
14846W        W87271  30.669  43.323   0.471
14847W        W87272   6.916   9.901   1.961
14848W        W87273  37.566  31.332   0.186
14849W        W87274  19.611  13.875  14.547
14850W        W87275  33.723  32.886  14.350
14851W        W87276  19.245  27.118  10.608
14852W        W87277  11.101  24.509  14.930
14853W        W87278  20.609   2.470   2.231
14854W        W87279   4.928  31.529  13.732
14855W        W87280  11.608  37.004   2.186
14856W        W87281  39.335  12.595   4.612
14857W        W87282  39.522  19.960  11.510
14858W        W87283  28.722  11.490   3.240
14859W        W87284  20.598   3.968   1.245
14860W        W87285  20.224  19.261   2.311
14861W        W87286  26.878  23.681   1.312
14862W        W87287  26.809  19.712   4.961
14863W        W87288  30.068  37.629  13.467
14864W        W87289  23.102   4.661  12.560
14865W        W87290  10.389  26.549   4.558
14866W        W87291  18.285  31.201   3.666
14867W        W87292   6.622  31.487   2.777
14868W        W87293  20.722   0.187  13.863
14869W        W87294   3.388  15.173  10.675
14870W        W87295  17.391  44.206   5.087
14871W        W87296  37.425  38.375  11.047
14872W        W87297  38.090  11.829   3.570
14873W        W87298  40.270   5.451  12.913
14874W        W87299  42.823  11.220   3.374
14875W        W87300  26.787  20.743   3.472
14876W        W87301  33.962   0.542   2.575
14877W        W87302  25.331  44.713   2.192
14878W        W87303   1.161  35.071  12.626
14879W        W87304  41.072  21.307   1.123
14880W        W87305  20.307   1.412  14.262
14881W        W87306  28.140   2.727  11.659
14882W        W87307  41.611  36.904   3.612
14883W        W87308  43.863  25.115   1.756
14884W        W87309  30.540  27.383   4.243
14885W        W87310  38.384  28.892   0.485
14886W        W87311  42.383  41.747  13.891
14887W        W87312  22.502  42.750   1.694
14888W        W87313   0.812   3.870   4.881
14889W        W87314  23.439  29.277  13.031
14890W        W87315   0.419  16.849  13.980
14891W        W87316   4.174  24.749  11.198
14892W        W87317  34.034  19.474  12.254
14893W        W87318  30.107   1.357   3.245
14894W        W87319  15.877  38.060  12.318
14895W        W87320   1.702   3.183  13.068
14896W        W87321   8.154  19.128  12.406
14897W        W87322  36.602  41.570  11.041
14898W        W87323  26.166  25.187  14.707
14899W        W87324   2.289  39.691   2.316
14900W        W87325  17.298  28.318   2.738
14901W        W87326  36.109  19.825  10.532
14902W        W87327  19.814  41.750  10.733
14903W        W87328  12.370  23.666   4.979
14904W        W87329  11.410  21.276   3.087
14905W        W87330  16.127  20.972   3.602
14906W        W87331  40.271  27.825   1.871
14907W        W87332  38.398  21.245  13.108
14908W        W87333   1.761   1.307   1.805
14909W        W87334  10.768   4.228   2.875
14910W        W87335  28.161   8.918   0.095
14911W        W87336  19.850   4.930   0.908
14912W        W87337   0.671   3.410   3.325
14913W        W87338  26.251   5.801   2.230
14914W        W87339  33.372  30.868   1.314
14915W        W87340  37.330  12.287   1.439
14916W        W87341  44.072  22.022  13.580
14917W        W87342  25.352  23.443   1.255
14918W        W87343  15.297   7.899   3.228
14919W        W87344  11.836   8.401  11.462
14920W        W87345  16.335  16.573   0.039
14921W        W87346  33.733  10.750   1.320
14922W        W87347   9.136  35.004  14.098
14923W        W87348  23.469   7.658   2.518
14924W        W87349  14.193   6.720   4.529
14925W        W87350  40.416  15.153   1.484
14926W        W87351  33.787  43.405  14.048
14927W        W87352  22.238  37.791   0.407
14928W        W87353  37.043  21.587  10.907
14929W        W87354  35.968  20.533  12.634
14930W        W87355  38.049  13.886  13.817
14931W        W87356   6.224  18.126   2.361
14932W        W87357   5.436   9.232   1.288
14933W        W87358  36.410   8.711  12.938
14934W        W87359  18.236   2.820  11.164
14935W        W87360  10.087  42.604   4.449
14936W        W87361   5.873  30.849  14.509
14937W        W87362  16.049  12.473  13.392
14938W        W87363  42.487  43.062   4.065
14939W        W87364   8.709  25.921  13.828
14940W        W87365  41.532  18.676   1.671
14941W        W87366  11.593  21.556   4.635
14942W        W87367   0.284  38.137   0.213
14943W        W87368  38.178  38.507  13.510
14944W        W87369  21.781  43.332  14.675
14945W        W87370  24.830  25.875  12.556
14946W        W87371  31.572  15.083  13.485
14947W        W87372  40.643  39.755   1.249
14948W        W87373  12.184  10.209  11.376
14949W        W87374  43.470  33.683   3.182
14950W        W87375   9.691  44.304  14.097
14951W        W87376  38.520  12.570   3.511
14952W        W87377  22.809  21.092   4.981
14953W        W87378  24.061  16.127  11.604
14954W        W87379   2.054  23.246  12.602
14955W        W87380  36.967  15.554  13.109
14956W        W87381  11.194  25.698   0.011
14957W        W87382  28.950  43.535   2.739
14958W        W87383   4.781  22.045  11.885
14959W        W87384  34.087  18.403  11.312
14960W        W87385   6.013  10.647   0.036
14961W        W87386  29.026   6.601   1.847
14962W        W87387  17.107  16.208  14.795
14963W        W87388  37.318  34.431  12.083
14964W        W87389  21.761   9.187   0.839
14965W        W87390  41.546  38.485  13.341
14966W        W87391  43.961  18.580  14.463
14967W        W87392  38.984  37.342  10.177
14968W        W87393  30.304   6.638   0.247
14969W        W87394  15.340  44.069   3.324
14970W        W87395  30.632   0.729   3.106
14971W        W87396   5.704  11.148  12.598
14972W        W87397   0.737  18.652   4.718
14973W        W87398   0.981   4.677   1.040
14974W        W87399   4.040  35.966  10.739
14975W        W87400   7.898   8.171  14.403
14976W        W87401  14.553  43.990  14.346
14977W        W87402   2.029  22.399  12.278
14978W        W87403   5.899  37.580   2.503
14979W        W87404   3.314  42.612   0.775
14980W        W87405   1.436  21.524   0.173
14981W        W87406  10.279   0.106  13.181
14982W        W87407   9.822  21.382  13.489
14983W        W87408  24.738  17.477   3.256
14984W        W87409  25.239  43.061  13.841
14985W        W87410  14.424  23.709   4.516
14986W        W87411   6.363  12.289  10.047
14987W        W87412   2.893  34.935  12.611
14988W        W87413  34.579  41.249  14.772
14989W        W87414   5.829  39.424   0.231
14990W        W87415   3.907  44.944   2.737
14991W        W87416  19.856  42.806  11.337
14992W        W87417   6.885  31.855  12.361
14993W        W87418   7.186  43.027   4.767
14994W        W87419  44.558  32.612  12.839
14995W        W87420  29.486  36.811  14.975
14996W        W87421  15.757  19.625   2.785
14997W        W87422  11.754  10.903  13.980
14998W        W87423  19.599   3.995   2.297
14999W        W87424  29.069  28.139  14.302
15000W        W87425  36.609  14.728  13.420
15001W        W87426  41.555   8.706   1.725
15002W        W87427  40.843  20.653   2.251
15003W        W87428   8.870   5.965  14.415
15004W        W87429   6.196  37.031   3.624
15005W        W87430   4.817  13.132  14.219
15006W        W87431  21.982  31.987  10.268
15007W        W87432   5.326  39.960   3.343
15008W        W87433  21.007   3.230  10.031
15009W        W87434  38.832  19.562   0.330
15010W        W87435   5.500  15.998  13.483
15011W        W87436  26.924  14.047   3.213
15012W        W87437  38.947  22.066  13.836
15013W        W87438  30.074  11.813   0.277
15014W        W87439  18.235   4.250   0.652
15015W        W87440  37.112  36.525   4.581
15016W        W87441   7.710  28.249  11.138
15017W        W87442  16.220  39.345  10.700
15018W        W87443  21.037  39.319  14.896
15019W        W87444  13.384  28.602   1.666
15020W        W87445  40.936  23.306  13.135
15021W        W87446  28.558  24.950  14.939
15022W        W87447  36.025  16.079   2.967
15023W        W87448  33.785  25.186   0.546
15024W        W87449  26.163  40.820  11.302
15025W        W87450   4.845  37.080   0.236
15026W        W87451  33.436  16.737  10.211
15027W        W87452   9.224  18.507  10.652
15028W        W87453   1.846  31.973   3.340
15029W        W87454  17.838  10.244   2.686
15030W        W87455  12.298  29.686  11.453
15031W        W87456  16.254  44.281  12.507
15032W        W87457   1.394   1.794  12.569
15033W        W87458  32.344   8.916   5.192
15034W        W87459  32.195   8.607  11.937
15035W        W87460  34.425   5.167   1.485
15036W        W87461   6.943  35.662   2.759
15037W        W87462  39.946  10.142  10.481
15038W        W87463  10.934  21.991  13.780
15039W        W87464  27.062  10.890  14.527
15040W        W87465  22.786  34.121   4.633
15041W        W87466  31.087  38.555  13.881
15042W        W87467   7.298  41.682  14.815
15043W        W87468  19.573   8.298   1.684
15044W        W87469  14.275  40.759   4.935
15045W        W87470   6.450  13.197  13.284
15046W        W87471   6.378  24.982   0.479
15047W        W87472  23.792   3.259   0.949
15048W        W87473   3.372  18.338   4.103
15049W        W87474  44.915   9.171   3.284
15050W        W87475  10.558   8.734   2.828
15051W        W87476  18.669   0.486  10.513
15052W        W87477  24.043  27.790  13.058
15053W        W87478  26.842  44.813  12.680
15054W        W87479  24.679  20.043  10.673
15055W        W87480  26.736  33.100   4.077
15056W        W87481   8.262  29.882   3.633
15057W        W87482  23.174  22.110  10.874
15058W        W87483  12.331  34.893   1.890
15059W        W87484  24.169  19.970  14.468
15060W        W87485  31.315  29.043   0.971
15061W        W87486  15.161  44.413  12.113
15062W        W87487  22.679  11.732  11.554
15063W        W87488  20.663  35.861   0.551
15064W        W87489  30.580  28.014  10.494
15065W        W87490  39.369  33.613   4.779
15066W        W87491  33.365  40.379   3.626
15067W        W87492  10.762  18.312  12.123
15068W        W87493   4.019  37.628   0.299
15069W        W87494  44.032   4.746  13.530
15070W        W87495  41.096   5.251  13.395
15071W        W87496  36.506  33.394   4.441
15072W        W87497  21.910  14.542   5.067
15073W        W87498  24.559  37.906   2.800
15074W        W87499  25.285   1.280  11.545
15075W        W87500  13.564  44.787  11.609
15076W        W87501  30.395  36.798  11.123
15077W        W87502   7.263  19.598  12.506
15078W        W87503  23.032  40.115   3.683
15079W        W87504  17.280   2.490   3.190
15080W        W87505  11.749  42.930   1.386
15081W        W87506  13.913  11.258   1.505
15082W        W87507  11.975  12.731  12.155
15083W        W87508  16.472  36.424   1.026
15084W        W87509   6.818  22.544  13.916
15085W        W87510  28.541  21.690  10.313
15086W        W87511   8.912  23.259  10.803
15087W        W87512  16.772  36.447   3.827
15088W        W87513  42.013   5.295   0.845
15089W        W87514  26.028   6.722   2.202
15090W        W87515  14.638  30.349   3.255
15091W        W87516  27.900  12.731   4.129
15092W        W87517  17.132  26.020   4.271
15093W        W87518  44.086  22.950   4.096
15094W        W87519  15.585  24.046   4.082
15095W        W87520  16.620   5.416  11.519
15096W        W87521  42.281  18.541  14.555
15097W        W87522  17.018   7.692   0.284
15098W        W87523  25.048  28.618  14.945
15099W        W87524   2.638  42.515  12.319
15100W        W87525  14.538  18.138  12.443
15101W        W87526  41.675  25.378  14.439
15102W        W87527  36.230  14.376   0.393
15103W        W87528   4.761  36.212   3.945
15104W        W87529  31.167  10.891   0.902
15105W        W87530  21.011  33.798  14.539
15106W        W87531  41.819  17.076   1.422
15107W        W87532   1.073  43.840   3.253
15108W        W87533  38.624  38.357   4.860
15109W        W87534  29.973  43.106   0.010
15110W        W87535  19.757  44.918   0.201
15111W        W87536  27.575   4.284   4.130
15112W        W87537   3.261  22.222   4.172
15113W        W87538   7.398  13.119  14.920
15114W        W87539  40.762  34.125   4.078
15115W        W87540  19.527  30.904  12.533
15116W        W87541  21.029  14.569   0.741
15117W        W87542  43.949   1.992  14.407
15118W        W87543  28.597  36.497   3.045
15119W        W87544  30.182  34.623  14.226
15120W        W87545  11.235  24.858  11.238
15121W        W87546  16.211  25.734   4.126
15122W        W87547  24.341  20.464   4.538
15123W        W87548  35.413  34.272   1.985
15124W        W87549  44.737  35.226  10.844
15125W        W87550  21.257  20.833  11.798
15126W        W87551  23.619  42.472  14.382
15127W        W87552  12.112   2.280   4.989
15128W        W87553   3.762  33.086  11.923
15129W        W87554  25.525  18.099  14.767
15130W        W87555  18.790  37.989  11.552
15131W        W87556  42.985   3.847  10.438
15132W        W87557  44.295  34.633  11.265
15133W        W87558  27.864  35.680  10.511
15134W        W87559  35.316  24.415   0.712
15135W        W87560  35.040  40.860  12.129
15136W        W87561  40.607   3.298  11.748
15137W        W87562  26.626  43.702   2.566
15138W        W87563  23.550  25.611  14.409
15139W        W87564  12.780  23.729   4.620
15140W        W87565   4.850  41.355   2.110
15141W        W87566   2.865  35.099   1.278
15142W        W87567  19.995  29.264  12.979
15143W        W87568  44.215  22.713  10.755
15144W        W87569   0.784  27.945   0.347
15145W        W87570  34.485  22.452   0.669
15146W        W87571  25.928  27.709  13.587
15147W        W87572   5.796  21.871   1.387
15148W        W87573  17.287   9.227  10.486
15149W        W87574  40.826   8.372   0.380
15150W        W87575   3.930  13.261  12.149
15151W        W87576  31.607  37.904   2.266
15152W        W87577   3.793  43.901  11.695
15153W        W87578  37.574   2.388  12.509
15154W        W87579  28.586  43.876   3.218
15155W        W87580  35.827  13.804  12.593
15156W        W87581  40.441  11.500   4.685
15157W        W87582  42.334  41.333   0.433
15158W        W87583  38.382  14.239  12.203
15159W        W87584  23.569  44.236   1.685
15160W        W87585   4.682  22.472  10.299
15161W        W87586   0.337  13.621   4.436
15162W        W87587  22.732  27.568   0.336
15163W        W87588  32.651  30.984  14.974
15164W        W87589  28.656  29.559   3.268
15165W        W87590  31.293  39.869   2.434
15166W        W87591   7.740  17.499  13.318
15167W        W87592  16.083  27.573   3.631
15168W        W87593   7.528  38.905   5.069
15169W        W87594   6.820  13.293   0.924
15170W        W87595  20.039   5.215   3.805
15171W        W87596  30.199   0.814   0.059
15172W        W87597  40.619  35.563   0.916
15173W        W87598   2.324  31.159   2.304
15174W        W87599  11.188  36.217   4.757
15175W        W87600  39.998  19.181  12.389
15176W        W87601  27.420   0.801   0.848
15177W        W87602  34.894   1.312  12.979
15178W        W87603   8.349  33.171  14.586
15179W        W87604  11.657  18.833  12.183
15180W        W87605  37.573  14.466   4.684
15181W        W87606  33.955  18.446  10.309
15182W        W87607  10.739  21.590   3.596
15183W        W87608  33.513   8.457   2.714
15184W        W87609   4.231  22.533   3.606
15185W        W87610   0.857   7.998  11.041
15186W        W87611  15.961  19.675   5.151
15187W        W87612   0.720  35.856  12.489
15188W        W87613   4.491   2.638   0.706
15189W        W87614  35.474   9.673  11.728
15190W        W87615  18.516  28.551  14.410
15191W        W87616  24.634   4.479   3.134
15192W        W87617   9.482  17.845  14.267
15193W        W87618  15.056  43.880  14.374
15194W        W87619  31.776  27.873   1.486
15195W        W87620  42.022  18.119  14.394
15196W        W87621   9.689  39.529  11.472
15197W        W87622  19.768  44.253   3.694
15198W        W87623   6.562  37.534   4.665
15199W        W87624  10.163  23.756   5.251
15200W        W87625  27.734  38.951  14.818
15201W        W87626  19.612  28.096   2.714
15202W        W87627  43.427  24.042  12.905
15203W        W87628  25.226  28.917  11.526
15204W        W87629   5.602  19.813  11.122
15205W        W87630  43.251  18.693  14.377
15206W        W87631  10.989  22.867   0.706
15207W        W87632  33.350   4.807  14.490
15208W        W87633  26.193  18.133   0.335
15209W        W87634  40.334  24.920  10.662
15210W        W87635  10.292  35.946  13.090
15211W        W87636  41.745  27.581  11.084
15212W        W87637  32.010   9.453   0.430
15213W        W87638  22.222   3.477  10.625
15214W        W87639  19.610  36.628   3.221
15215W        W87640   2.774  42.613  10.376
15216W        W87641  15.567   5.195   4.324
15217W        W87642   0.404  17.257  10.671
15218W        W87643   2.141   6.076   1.648
15219W        W87644  10.741  41.367  13.900
15220W        W87645   3.988  14.820   0.816
15221W        W87646   7.767   5.894   3.956
15222W        W87647  33.148   4.377  14.254
15223W        W87648  13.101  40.005   0.739
15224W        W87649  24.262  27.535   0.408
15225W        W87650  35.379  13.798   4.079
15226W        W87651  41.017  37.031  10.807
15227W        W87652  41.474   3.475   0.970
15228W        W87653  32.433  14.515  14.198
15229W        W87654  20.009  12.178  13.851
15230W        W87655  12.644   3.302  11.485
15231W        W87656  43.147  18.760  10.198
15232W        W87657  10.474  17.816   1.235
15233W        W87658   6.118  40.104   1.252
15234W        W87659  28.914  12.822   2.131
15235W        W87660   4.600  15.131   1.454
15236W        W87661  44.764  40.084  13.781
15237W        W87662  15.070  11.132  12.961
15238W        W87663  25.925   3.409   4.614
15239W        W87664  34.841  23.631  12.652
15240W        W87665   3.508   7.922   2.426
15241W        W87666  39.775  42.217   1.510
15242W        W87667  32.416  38.821   2.765
15243W        W87668   3.244  20.203  10.916
15244W        W87669  34.489  32.571  13.972
15245W        W87670  29.409  31.103  11.137
15246W        W87671  33.031   0.805  14.282
15247W        W87672  36.569  31.744   4.962
15248W        W87673   6.365  37.486  13.547
15249W        W87674  41.602  17.138  11.259
15250W        W87675  30.093  28.211  13.298
15251W        W87676  36.100  30.927   4.734
15252W        W87677  20.797  23.616  10.648
15253W        W87678  25.115  31.442  14.030
15254W        W87679  18.245  42.497  12.094
15255W        W87680  20.457   5.623  11.025
15256W        W87681  12.213  32.342   2.514
15257W        W87682   9.783  12.118   0.407
15258W        W87683  30.204  22.321  14.932
15259W        W87684  27.905   5.770  11.893
15260W        W87685  28.411  11.739   4.837
15261W        W87686  13.997  14.583  11.018
15262W        W87687  15.214  44.981   0.868
15263W        W87688  36.383  33.418   0.371
15264W        W87689  21.263  13.734   4.020
15265W        W87690  44.241  31.625  14.430
15266W        W87691   8.920  41.924  10.741
15267W        W87692  28.950  17.261  14.125
15268W        W87693  24.259   7.792  13.908
15269W        W87694  13.733   3.184  12.916
15270W        W87695  22.104   0.437  14.852
15271W        W87696   4.893  21.009  14.026
15272W        W87697  44.650   8.312  13.999
15273W        W87698  31.641  34.919   2.898
15274W        W87699  31.574  35.148   0.290
15275W        W87700   6.972  43.254  13.038
15276W        W87701  18.827  38.338   1.365
15277W        W87702   3.675   6.929  14.199
15278W        W87703  28.091  25.449   0.936
15279W        W87704   6.298  19.486  13.928
15280W        W87705  32.912   7.200   3.779
15281W        W87706   1.990  22.087   4.070
15282W        W87707  24.226  35.552   2.289
15283W        W87708  14.623   6.201   0.938
15284W        W87709  25.268  41.928  14.539
15285W        W87710  35.053  38.832  13.094
15286W        W87711  27.777  23.961  10.455
15287W        W87712  15.702  24.258  11.893
15288W        W87713  28.183   6.718   3.319
15289W        W87714   5.108  27.092  10.572
15290W        W87715  24.111  21.244   0.296
15291W        W87716  22.587  19.593  13.365
15292W        W87717  32.029  20.171  11.886
15293W        W87718  18.360   5.792  10.707
15294W        W87719  22.199  37.273   0.394
15295W        W87720  32.820  23.471  14.369
15296W        W87721  35.132  39.839  12.596
15297W        W87722  17.623   6.729  11.945
15298W        W87723  24.993  40.927   2.812
15299W        W87724  10.578  40.704   2.315
15300W        W87725  29.192  29.499  11.641
15301W        W87726  27.124  23.297   4.590
15302W        W87727  13.865  20.204  14.392
15303W        W87728  32.059  29.186   4.278
15304W        W87729  11.477  32.899   3.401
15305W        W87730   5.953  40.397   0.840
15306W        W87731   0.592   7.388  12.985
15307W        W87732  33.530  24.523  14.220
15308W        W87733  21.194   8.573   2.939
15309W        W87734  19.767  20.058   2.196
15310W        W87735  21.628  23.494  12.198
15311W        W87736   3.260  28.127  11.940
15312W        W87737  35.842   7.849   1.620
15313W        W87738   7.250  31.667   3.342
15314W        W87739  12.742  20.290  11.594
15315W        W87740  38.302  37.914  14.254
15316W        W87741  38.643  11.906   2.664
15317W        W87742  14.465  44.944   3.424
15318W        W87743   3.795   4.155  13.837
15319W        W87744  29.582  23.270   2.446
15320W        W87745  28.081  17.560   2.846
15321W        W87746   9.110   3.032  11.523
15322W        W87747  39.946   9.933  14.351
15323W        W87748  28.097  22.241  12.469
15324W        W87749  17.739  43.359   4.625
15325W        W87750  16.249  28.785  13.374
15326W        W87751   2.662  38.590  12.884
15327W        W87752  25.686  36.288   1.770
15328W        W87753  17.090   2.459   4.756
15329W        W87754  28.903  32.237   4.212
15330W        W87755  14.203   4.424   0.150
15331W        W87756  19.305  11.178  12.008
15332W        W87757  43.437   0.475  13.541
15333W        W87758  29.464  20.069   3.940
15334W        W87759  13.306  24.909   4.206
15335W        W87760  29.155  43.519   3.699
15336W        W87761  42.320  28.999  14.330
15337W        W87762  28.945   6.313  13.749
15338W        W87763  26.135  26.053   4.680
15339W        W87764  39.932  43.196   4.549
15340W        W87765  17.659  40.849  10.759
15341W        W87766  18.323  29.441  12.307
15342W        W87767  14.803  42.049   0.491
15343W        W87768   1.053  18.944  14.432
15344W        W87769  23.492  18.315   3.234
15345W        W87770  40.584  17.753   2.835
15346W        W87771  40.967   0.046   0.814
15347W        W87772   2.764  28.476  14.952
15348W        W87773  44.766  33.054   9.852
15349W        W87774  27.145   5.179  12.084
15350W        W87775  34.627  14.511   2.457
15351W        W87776  39.517  37.549  12.557
15352W        W87777  37.820  29.672   0.833
15353W        W87778  27.218   4.301  12.076
15354W        W87779   2.492  31.150  14.855
15355W        W87780  17.700  29.953   1.388
15356W        W87781  27.541  23.260  12.042
15357W        W87782  35.831  37.575   1.243
15358W        W87783  21.892  27.753   3.699
15359W        W87784  13.267  23.156   1.858
15360W        W87785  21.290  43.169   3.909
15361W        W87786  15.715  24.942  13.467
15362W        W87787  12.735  28.038   1.686
15363W        W87788   3.513  33.115   4.832
15364W        W87789  33.094  34.487  11.715
15365W        W87790   3.784  23.448  12.359
15366W        W87791   8.661  28.557  13.581
15367W        W87792   8.645  19.801   1.520
15368W        W87793  31.562  36.553   1.381
15369W        W87794  38.538  22.667  13.510
15370W        W87795  22.092   8.259   4.012
15371W        W87796   6.591   3.105   4.304
15372W        W87797  11.240  33.434   2.278
15373W        W87798   5.950  43.048   4.283
15374W        W87799  26.340   2.120  11.236
15375W        W87800  38.367  30.316  10.719
15376W        W87801  32.030  40.306  13.955
15377W        W87802  44.983  27.172   2.700
15378W        W87803  10.553  12.377   2.002
15379W        W87804  16.216  35.917   2.775
15380W        W87805  32.601  25.683  12.834
15381W        W87806  24.057  24.559  13.450
15382W        W87807  40.770  15.635   2.455
15383W        W87808  28.907  43.657  11.010
15384W        W87809  17.895  20.265  14.496
15385W        W87810   1.718   0.862   1.504
15386W        W87811  33.469  43.101  12.012
15387W        W87812  23.256  26.595  12.536
15388W        W87813  31.190   2.554   1.370
15389W        W87814  32.113  22.169   2.962
15390W        W87815  32.517  12.121   3.226
15391W        W87816   4.657  42.266  10.752
15392W        W87817  22.415  11.770  13.997
15393W        W87818  17.711  34.116  11.554
15394W        W87819  25.904  11.156  12.364
15395W        W87820  32.882  34.788   0.803
15396W        W87821  31.108  33.606  14.395
15397W        W87822   4.777   2.842   3.858
15398W        W87823  19.760  18.561   2.330
15399W        W87824  10.147  37.870   4.331
15400W        W87825  31.465  31.041   2.751
15401W        W87826  37.865  35.572  11.470
15402W        W87827   3.642  19.775  12.482
15403W        W87828  18.356  10.369  14.491
15404W        W87829  20.134   9.757  13.964
15405W        W87830  24.685  23.777  13.534
15406W        W87831  37.474  22.638  13.538
15407W        W87832  43.081  37.312  10.625
15408W        W87833  35.599  35.454  12.455
15409W        W87834  43.632  14.906   1.695
15410W        W87835  14.854   1.596  13.440
15411W        W87836  29.963  23.625   4.568
15412W        W87837  10.739  42.795  11.442
15413W        W87838  25.457  14.150   9.869
15414W        W87839  31.904  22.863   5.043
15415W        W87840   4.111  32.172  12.011
15416W        W87841  34.340  32.024   1.306
15417W        W87842  27.318  18.156  13.449
15418W        W87843  22.946  24.169  11.039
15419W        W87844  15.034  43.783   0.271
15420W        W87845   8.236  38.789  14.938
15421W        W87846  24.088  44.091   4.856
15422W        W87847  34.421  14.128   3.748
15423W        W87848  37.016   2.476   4.600
15424W        W87849   2.423   8.174  13.554
15425W        W87850  32.096  16.670  11.700
15426W        W87851  16.690  30.958  11.527
15427W        W87852  43.855   5.310   2.261
15428W        W87853  31.092  18.081  13.948
15429W        W87854  20.703   5.232   3.162
15430W        W87855  33.040  30.109  11.580
15431W        W87856  33.168  39.777  14.253
15432W        W87857  17.353  25.926   5.009
15433W        W87858  27.990  37.977  10.855
15434W        W87859  42.116  20.471   3.251
15435W        W87860  25.208  17.090   4.507
15436W        W87861  14.236   4.912   0.846
15437W        W87862  43.419   3.308   4.627
15438W        W87863  10.829  27.506   1.771
15439W        W87864   4.455   5.206   3.666
15440W        W87865  37.838  34.386   3.127
15441W        W87866  24.129  23.758  10.785
15442W        W87867  36.043   8.841  10.557
15443W        W87868  31.400  44.955  12.352
15444W        W87869  19.317  31.705   0.041
15445W        W87870  15.094  40.413   4.702
15446W        W87871   6.062   9.771   3.785
15447W        W87872  26.722   3.665  13.086
15448W        W87873   0.485  22.024   0.921
15449W        W87874  42.929  13.613  11.821
15450W        W87875   2.267  34.843   0.353
15451W        W87876  38.034  32.684   1.375
15452W        W87877  40.454  21.395   3.723
15453W        W87878  25.245  20.925   2.340
15454W        W87879   3.779   0.293  14.298
15455W        W87880  28.601  14.782   1.573
15456W        W87881  21.482  39.116  14.617
15457W        W87882  27.461  11.788  11.608
15458W        W87883  26.556  39.268   1.850
15459W        W87884  21.729  32.318  12.321
15460W        W87885  21.472  32.121  10.217
15461W        W87886  26.944   4.138  14.430
15462W        W87887  43.402  18.112  11.132
15463W        W87888  26.124   3.443  10.920
15464W        W87889   2.957  38.529  12.447
15465W        W87890  27.448  42.720   1.475
15466W        W87891  27.779  44.437   2.469
15467W        W87892  34.107  29.982  11.620
15468W        W87893  39.556  40.827  14.493
15469W        W87894  25.223  13.941  14.308
15470W        W87895  33.423  39.464  12.318
15471W        W87896  29.028  39.807  11.963
15472W        W87897  34.355   7.416  10.506
15473W        W87898  41.456  27.969  11.554
15474W        W87899  39.776  35.886  12.596
15475W        W87900  37.586  24.282   0.347
15476W        W87901  29.230  31.256   1.006
15477W        W87902  22.670  41.865  11.489
15478W        W87903  31.931  26.146   2.126
15479W        W87904   5.766   5.680   0.762
15480W        W87905  42.580  37.442  11.362
15481W        W87906   2.925  32.103   4.835
15482W        W87907   5.819   6.712  11.581
15483W        W87908  34.168  34.348   3.549
15484W        W87909  29.467  44.710   2.358
15485W        W87910   4.604  14.412  11.950
15486W        W87911   3.259  38.822  11.540
15487W        W87912   0.777  30.688   2.897
15488W        W87913  10.251   6.737   4.439
15489W        W87914   5.992  13.020  11.106
15490W        W87915  39.989  31.891  12.870
15491W        W87916  11.398  36.955   2.698
15492W        W87917  32.602  13.147   3.367
15493W        W87918   8.424  31.163   1.395
15494W        W87919  41.627  27.200   1.497
15495W        W87920  29.594  34.971  11.789
15496W        W87921  44.456   0.057   4.559
15497W        W87922  29.040   8.895  14.541
15498W        W87923  29.503  10.155  13.857
15499W        W87924  25.729  33.876  14.312
15500W        W87925  35.074  33.098  10.680
15501W        W87926   5.188   0.169   0.418
15502W        W87927  16.709  30.546   3.253
15503W        W87928   8.403  12.146   0.506
15504W        W87929  23.244   3.826   0.356
15505W        W87930   9.699  34.643   3.825
15506W        W87931  22.529  17.092  12.467
15507W        W87932  25.528  13.597   2.187
15508W        W87933  16.206  36.438   2.617
15509W        W87934  42.239  32.163   3.571
15510W        W87935  33.092  19.106   0.099
15511W        W87936  39.220  34.366   2.854
15512W        W87937  32.548   3.997  12.882
15513W        W87938  39.815  43.257   4.044
15514W        W87939  35.106  25.917  14.942
15515W        W87940  20.437  36.481   3.142
15516W        W87941  33.684  40.416   2.641
15517W        W87942  35.913  37.718  13.623
15518W        W87943  43.218  25.603  13.863
15519W        W87944  32.334  25.164   0.039
15520W        W87945   1.296  44.298  12.829
15521W        W87946  15.964  32.045  10.158
15522W        W87947  25.110  22.833  11.975
15523W        W87948  34.634   0.280   3.899
15524W        W87949  42.046  38.049   4.119
15525W        W87950   6.915  20.003  12.535
15526W        W87951  14.774   7.422  12.626
15527W        W87952  21.900  34.846  12.550
15528W        W87953  36.333  36.116   0.699
15529W        W87954  36.423  43.285  12.564
15530W        W87955  38.002   4.605   1.158
15531W        W87956  24.250  35.015   2.168
15532W        W87957   1.336  33.469  14.970
15533W        W87958  26.983  37.586  12.594
15534W        W87959  44.985  35.921   2.877
15535W        W87960  32.956  39.350  14.467
15536W        W87961   1.847  10.898   2.900
15537W        W87962  22.464  39.346  13.822
15538W        W87963  11.393  27.453  14.828
15539W        W87964   1.637  44.334   1.373
15540W        W87965  12.250  41.415   2.757
15541W        W87966  31.878  11.296  14.383
15542W        W87967  12.751   8.355  12.132
15543W        W87968  10.291  30.378  10.917
15544W        W87969  44.381   4.437   4.344
15545W        W87970  17.381  34.011  14.608
15546W        W87971  19.170   9.306  11.628
15547W        W87972  43.540  41.636   2.447
15548W        W87973  21.347  17.123  13.872
15549W        W87974   7.025   1.297  11.086
15550W        W87975  26.672  28.151  10.524
15551W        W87976  10.610  34.895   9.686
15552W        W87977  14.819  44.025   3.136
15553W        W87978  41.744  33.503  13.834
15554W        W87979  24.120  16.026  10.604
15555W        W87980  34.671  12.918   1.775
15556W        W87981  30.522  44.255   4.360
15557W        W87982   7.142  16.202   3.248
15558W        W87983  27.541  22.649   5.030
15559W        W87984  39.223  31.589   2.329
15560W        W87985  35.007  43.256   3.824
15561W        W87986  23.134  39.073   2.656
15562W        W87987  41.349  15.039  13.071
15563W        W87988  21.204   5.228   4.516
15564W        W87989  36.358  21.365  14.205
15565W        W87990   1.613  31.422  14.260
15566W        W87991  43.424  15.311  14.442
15567W        W87992  35.888  22.624  13.586
15568W        W87993   2.308  18.776  14.463
15569W        W87994  22.028  14.239  11.970
15570W        W87995  10.963  11.899  12.028
15571W        W87996   7.414  31.638  11.152
15572W        W87997  40.931  20.274   5.447
15573W        W87998  41.421  30.399  12.076
15574W        W87999  12.349  14.047   2.349
15575W        W88000  31.572  29.680   0.309
15576W        W88001  20.080  20.016   3.772
15577W        W88002  28.129  29.132   4.179
15578W        W88003  15.773  16.028   3.178
15579W        W88004  19.620  27.122   1.274
15580W        W88005   0.489  41.978   2.011
15581W        W88006  18.733  32.395   3.240
15582W        W88007  15.121   7.450  13.429
15583W        W88008  24.171  41.451  13.831
15584W        W88009  16.209  13.918  13.521
15585W        W88010  37.390  25.638   5.115
15586W        W88011  37.608  43.405   0.306
15587W        W88012   3.783  39.865   0.357
15588W        W88013  36.562  20.759   0.880
15589W        W88014  31.619  24.597  14.954
15590W        W88015  20.976  29.678   2.313
15591W        W88016  11.043  38.816  10.524
15592W        W88017   7.689  23.655  13.787
15593W        W88018  21.260  16.233  14.092
15594W        W88019  30.985  35.875   0.430
15595W        W88020  43.999  27.958  13.798
15596W        W88021  38.854  44.447   3.260
15597W        W88022  10.419  27.969  13.789
15598W        W88023  29.739   0.569   3.141
15599W        W88024  12.667   0.198  11.604
15600W        W88025  17.889  28.850   3.732
15601W        W88026  44.592  43.542   1.310
15602W        W88027  18.495  44.348   3.286
15603W        W88028   7.910  12.225  14.119
15604W        W88029   8.608  28.006   0.682
15605W        W88030  35.996  39.276  12.920
15606W        W88031   5.141  14.147   4.591
15607W        W88032   3.987  44.638   3.137
15608W        W88033   4.809  28.504  14.742
15609W        W88034   4.853  38.473   0.502
15610W        W88035  28.962   8.061   2.140
15611W        W88036  39.276  14.118  14.906
15612W        W88037   0.953   2.012  10.271
15613W        W88038  33.972  39.793   3.766
15614W        W88039  21.562   6.424  12.992
15615W        W88040  24.029  35.502  14.463
15616W        W88041  26.696  34.525  12.151
15617W        W88042  11.313  28.899  11.420
15618W        W88043   6.329  16.011   2.631
15619W        W88044  13.356   0.509   3.857
15620W        W88045  23.968  22.485  14.104
15621W        W88046  31.416   2.311   2.438
15622W        W88047  15.698  36.824  13.491
15623W        W88048   1.305  44.063  11.177
15624W        W88049  23.281   9.368   5.421
15625W        W88050  31.508  15.382  11.659
15626W        W88051  21.957  29.184   1.070
15627W        W88052  15.352  28.372  11.540
15628W        W88053  30.038  25.657   4.372
15629W        W88054   7.851  44.680   2.681
15630W        W88055  21.950  18.599   4.153
15631W        W88056   4.252  42.759   4.215
15632W        W88057  33.650  24.989   1.538
15633W        W88058  27.574  14.284   2.691
15634W        W88059  18.398  24.639  12.107
15635W        W88060   5.370  31.000  12.153
15636W        W88061  37.267  43.451  11.225
15637W        W88062   5.493   9.721  13.967
15638W        W88063  35.890  24.621   3.093
15639W        W88064  18.171  30.877   4.090
15640W        W88065  21.265   4.740  12.453
15641W        W88066  26.612  10.276   0.486
15642W        W88067   2.976  16.246  14.228
15643W        W88068  40.775  41.813   4.047
15644W        W88069  41.943  20.706  13.001
15645W        W88070  16.177  16.044   1.845
15646W        W88071  34.483   7.176   3.807
15647W        W88072  23.454   5.422  12.402
15648W        W88073  42.533   6.851  10.863
15649W        W88074   8.160  35.679   2.303
15650W        W88075  19.515  29.604  13.423
15651W        W88076  34.569  35.361   4.217
15652W        W88077  18.710  16.357   4.696
15653W        W88078   6.599  22.601   2.713
15654W        W88079  32.641  42.365   2.539
15655W        W88080  19.839  22.596  11.679
15656W        W88081  30.496  17.123   4.096
15657W        W88082  44.784   6.860   2.501
15658W        W88083  41.846   7.414  10.704
15659W        W88084  29.096   9.335  12.428
15660W        W88085  16.261  20.159   2.276
15661W        W88086   8.687  36.025   3.594
15662W        W88087  29.489  21.257   4.486
15663W        W88088   5.699   2.839   3.657
15664W        W88089  38.758   7.653  11.558
15665W        W88090  39.795  38.991   0.778
15666W        W88091  26.415   3.329  11.409
15667W        W88092  38.483  22.411   1.723
15668W        W88093  33.549   5.331   1.819
15669W        W88094  27.640   5.726  10.903
15670W        W88095  10.243  16.182   1.798
15671W        W88096  36.054  24.144  10.780
15672W        W88097   4.964   2.011  12.609
15673W        W88098  20.602  38.043   2.205
15674W        W88099  20.475  12.407  12.802
15675W        W88100  11.109  31.716  14.351
15676W        W88101  13.698  39.962   1.208
15677W        W88102  12.105  20.455   2.369
15678W        W88103  27.872  25.177  13.342
15679W        W88104  44.320  21.105   0.213
15680W        W88105  31.025   9.810   1.614
15681W        W88106  42.741  34.167   2.351
15682W        W88107  29.463  41.822  14.467
15683W        W88108  35.854  30.887  11.525
15684W        W88109  23.330  42.251  14.754
15685W        W88110  35.624   8.841   4.102
15686W        W88111  33.513  28.163   4.305
15687W        W88112  20.764  11.165   5.389
15688W        W88113  38.938  23.519  11.169
15689W        W88114  38.479  34.104   3.974
15690W        W88115  32.036   1.265   2.252
15691W        W88116  15.306  38.925  13.016
15692W        W88117  39.269   7.348   1.371
15693W        W88118  26.222   1.679   0.375
15694W        W88119  17.365  23.001  13.283
15695W        W88120  40.820  21.057  10.621
15696W        W88121  16.737  37.012  14.371
15697W        W88122  17.766  37.403  12.971
15698W        W88123   8.899  40.871  12.499
15699W        W88124  29.639  33.979   0.178
15700W        W88125  21.589  44.451  14.400
15701W        W88126  12.815   8.240  11.606
15702W        W88127   2.262  28.510   1.039
15703W        W88128  41.929  15.655   4.574
15704W        W88129   6.419  38.830   2.802
15705W        W88130  16.305   6.213  12.968
15706W        W88131  27.549  32.574   3.346
15707W        W88132  23.931  12.664  11.025
15708W        W88133  31.192   7.050   2.768
15709W        W88134  13.905   7.872   3.212
15710W        W88135  39.247   6.953   2.674
15711W        W88136   4.675   8.154  14.843
15712W        W88137   9.689  37.449   2.211
15713W        W88138  23.554  25.397   3.592
15714W        W88139  10.158  43.510   2.325
15715W        W88140  44.455  28.439  14.228
15716W        W88141  32.292   6.260  14.807
15717W        W88142  35.004  35.507  13.268
15718W        W88143  31.747  15.331  10.624
15719W        W88144   1.687  40.722  11.968
15720W        W88145  42.334  13.094   4.615
15721W        W88146  44.578  33.940   4.570
15722W        W88147  33.865  10.221   4.589
15723W        W88148  10.713   2.778   4.841
15724W        W88149  18.535  26.745   4.985
15725W        W88150  28.416  35.297  11.710
15726W        W88151  30.906  33.856   1.479
15727W        W88152  28.965  25.126   0.276
15728W        W88153  17.778  32.491  13.426
15729W        W88154  27.048   7.348  11.848
15730W        W88155  22.118   6.749   3.224
15731W        W88156  30.113   0.744   4.185
15732W        W88157  30.637   8.586   1.786
15733W        W88158  33.864  14.729   2.717
15734W        W88159  26.481  25.251   4.523
15735W        W88160   7.221  36.457  13.278
15736W        W88161   8.382  11.880  11.983
15737W        W88162  36.880  30.925  14.589
15738W        W88163  43.017   7.533  14.969
15739W        W88164  24.583  10.357   1.308
15740W        W88165  21.920  18.234   0.855
15741W        W88166   3.001  26.566  12.978
15742W        W88167   5.271  40.082  12.447
15743W        W88168  42.407  21.688  14.277
15744W        W88169  23.128  37.789   3.181
15745W        W88170  33.060  29.914  10.765
15746W        W88171   0.717   7.814  11.495
15747W        W88172   0.887   9.902   4.658
15748W        W88173  15.178  14.764   1.304
15749W        W88174  42.233  44.521   4.228
15750W        W88175  37.857  22.248   2.646
15751W        W88176   1.886  28.127   4.063
15752W        W88177  37.576   3.744  14.890
15753W        W88178  24.482  41.964   0.944
15754W        W88179   0.085  25.880   4.202
15755W        W88180  39.846   4.698   1.885
15756W        W88181   2.363  34.086  13.052
15757W        W88182   2.214  43.423   4.490
15758W        W88183  26.630  12.151  14.345
15759W        W88184   9.603   5.942  12.080
15760W        W88185  41.930  25.189  14.004
15761W        W88186  39.372  35.064   4.996
15762W        W88187  31.147  15.185  14.463
15763W        W88188  35.457  30.647   1.940
15764W        W88189  10.764  44.750  10.977
15765W        W88190  25.098  39.778   1.401
15766W        W88191   3.069  17.340   2.853
15767W        W88192   4.750  30.460  11.109
15768W        W88193  31.911  24.619   4.133
15769W        W88194  22.761  30.534   3.304
15770W        W88195  18.031  26.620  10.985
15771W        W88196  35.365  23.898   4.115
15772W        W88197  20.083  43.378  10.530
15773W        W88198  20.700  33.840   1.912
15774W        W88199   2.444  44.458  12.444
15775W        W88200  14.278  31.967   1.299
15776W        W88201  24.404  14.375   5.292
15777W        W88202  31.292  41.732   3.806
15778W        W88203   8.901  11.395   2.229
15779W        W88204  28.671  14.202   3.150
15780W        W88205  16.327  43.456   4.684
15781W        W88206  31.960  42.286  14.923
15782W        W88207  30.867  19.806   3.759
15783W        W88208  17.489   7.673  12.042
15784W        W88209  41.065  12.879   0.483
15785W        W88210  33.005  43.913   1.942
15786W        W88211   6.921  13.165   2.227
15787W        W88212  10.770  13.749  13.366
15788W        W88213   1.393  31.331  11.989
15789W        W88214  36.510   8.615  14.460
15790W        W88215  10.930  29.694  10.645
15791W        W88216   1.378  27.544   0.973
15792W        W88217   9.555  28.958  12.792
15793W        W88218  31.710  40.150   2.654
15794W        W88219  28.935   1.753  10.725
15795W        W88220   4.674  41.492   3.585
15796W        W88221   5.082  38.601   3.665
15797W        W88222  22.118  18.008   3.361
15798W        W88223  18.744  24.476  12.545
15799W        W88224  42.838  15.711  12.907
15800W        W88225  21.596  16.303  11.326
15801W        W88226  11.268  43.275   2.700
15802W        W88227   8.245  27.831   1.901
15803W        W88228  13.298   7.750   3.822
15804W        W88229  28.893  15.827  13.034
15805W        W88230  27.451  44.853  11.216
15806W        W88231  12.610  34.401  10.454
15807W        W88232  41.556   5.355  10.679
15808W        W88233  15.714  29.264   2.621
15809W        W88234  22.948  40.448  10.642
15810W        W88235  36.348  36.040  12.425
15811W        W88236   7.017  13.303  12.462
15812W        W88237  12.446  33.222   3.232
15813W        W88238  15.129  25.103   1.143
15814W        W88239  25.355  26.666  11.396
15815W        W88240  38.040   7.307   1.721
15816W        W88241  18.846  42.578   4.647
15817W        W88242  13.181  43.838   4.589
15818W        W88243  28.534  24.162   0.430
15819W        W88244  15.894  14.266   0.365
15820W        W88245  27.065   4.367   4.910
15821W        W88246  26.951   7.229  10.962
15822W        W88247   4.402  13.200   0.480
15823W        W88248  43.925  22.495   3.888
15824W        W88249  44.891  21.616   2.806
15825W        W88250  20.991  17.732   1.378
15826W        W88251  40.109  12.263   2.272
15827W        W88252  36.377  13.660   1.329
15828W        W88253   9.908  42.969   2.773
15829W        W88254  23.713   3.991   3.381
15830W        W88255  12.876  15.294  11.718
15831W        W88256  34.309   9.843   2.295
15832W        W88257   9.649  29.866   1.035
15833W        W88258  31.980  43.984   4.061
15834W        W88259  14.157  32.324   0.358
15835W        W88260  21.814   6.771   0.920
15836W        W88261  18.553  23.866   1.622
15837W        W88262  15.524  36.129  12.089
15838W        W88263   3.684  20.785   0.824
15839W        W88264  12.320   6.154   2.357
15840W        W88265  29.766  12.378  12.205
15841W        W88266  13.950  15.100   4.441
15842W        W88267  26.508  19.532  10.659
15843W        W88268  40.162  17.865   1.851
15844W        W88269  44.891  28.888  14.754
15845W        W88270  38.969   0.900  10.106
15846W        W88271  11.642  37.344  13.825
15847W        W88272  35.256  38.259  13.560
15848W        W88273  35.185  32.834   2.607
15849W        W88274   6.364   7.191  11.946
15850W        W88275  36.543  18.198  10.434
15851W        W88276  16.138  35.320  13.001
15852W        W88277  31.937   4.378  11.310
15853W        W88278  13.332  36.621   0.923
15854W        W88279  40.877  40.600   4.877
15855W        W88280  25.544   1.219  11.111
15856W        W88281  23.295   0.255   0.374
15857W        W88282   2.987   1.314   4.738
15858W        W88283   4.848  29.524  10.891
15859W        W88284   3.537  12.977  13.419
15860W        W88285  12.593  12.744  13.513
15861W        W88286  33.375   1.798  11.475
15862W        W88287  41.469  33.526  12.317
15863W        W88288   4.761  15.836   4.629
15864W        W88289   0.179  18.617   1.648
15865W        W88290   0.470  40.814  13.871
15866W        W88291  37.869  31.315   1.857
15867W        W88292   2.235  36.612   0.858
15868W        W88293   7.875  16.178   1.858
15869W        W88294  42.947  15.567  10.590
15870W        W88295   2.471  40.005  11.119
15871W        W88296   8.721  14.187   0.543
15872W        W88297   2.499  34.355  14.029
15873W        W88298   7.211  23.448  11.852
15874W        W88299  32.356  32.482  14.806
15875W        W88300  36.342  28.399  10.541
15876W        W88301  16.600  38.294  12.357
15877W        W88302  24.089   5.100   4.626
15878W        W88303  30.211  15.523  14.036
15879W        W88304  43.693  10.319   0.946
15880W        W88305   2.290  17.452  11.799
15881W        W88306  42.028  16.385  12.464
15882W        W88307   5.103  28.700   3.801
15883W        W88308  23.775  31.225   1.886
15884W        W88309  35.469  36.378   2.760
15885W        W88310  23.586  44.800   0.549
15886W        W88311  33.856  41.531  11.959
15887W        W88312   6.546  22.034   0.689
15888W        W88313  24.252  20.233  11.531
15889W        W88314   5.808  19.531  10.714
15890W        W88315  28.097   5.883  12.484
15891W        W88316  25.017   1.170  11.978
15892W        W88317  27.363  14.764   3.403
15893W        W88318  37.573  44.050  12.562
15894W        W88319  21.390  13.051  11.699
15895W        W88320  40.403  29.436  11.452
15896W        W88321  41.360  18.551  12.064
15897W        W88322  25.178   0.401  14.536
15898W        W88323  14.727  40.972  14.718
15899W        W88324   9.935  42.837   0.967
15900W        W88325  30.265   0.857   1.316
15901W        W88326  15.166   9.631   1.227
15902W        W88327  23.920   9.411  10.413
15903W        W88328   0.234   6.252  11.855
15904W        W88329  23.851  26.027  14.455
15905W        W88330  16.497   4.964   0.760
15906W        W88331  31.045   6.956  13.978
15907W        W88332  38.879  29.904  12.760
15908W        W88333   6.250  36.108  12.504
15909W        W88334  30.156  25.968   4.750
15910W        W88335   6.999  16.439  12.972
15911W        W88336  36.248   8.476   0.347
15912W        W88337  30.558  12.820   1.360
15913W        W88338  32.197  31.635  13.918
15914W        W88339  18.082  27.475   0.686
15915W        W88340  35.438  23.058  10.634
15916W        W88341  28.470  38.802   1.035
15917W        W88342  43.395  23.744  11.467
15918W        W88343   6.230  13.764  12.455
15919W        W88344  29.601  18.513   0.217
15920W        W88345   4.168  44.492   1.334
15921W        W88346  33.890   6.516  10.671
15922W        W88347  29.681  28.530  13.005
15923W        W88348  18.731   1.734  11.771
15924W        W88349  15.025   8.879   4.659
15925W        W88350  42.883  20.141   2.851
15926W        W88351  21.219  26.877  11.870
15927W        W88352  26.186  42.552   0.329
15928W        W88353  32.449  30.111  11.395
15929W        W88354   5.546  20.786  13.225
15930W        W88355   9.125  41.343  14.166
15931W        W88356  10.286   2.152   0.218
15932W        W88357  10.330  16.569   2.144
15933W        W88358  27.767   8.062  11.085
15934W        W88359  17.209   4.999  14.973
15935W        W88360   5.466  41.786   2.223
15936W        W88361  24.460  10.278  13.364
15937W        W88362  33.708  12.288  13.084
15938W        W88363  25.444  36.441  12.497
15939W        W88364  36.085   2.869  14.614
15940W        W88365  24.158  12.904  13.042
15941W        W88366  32.527   7.718  12.252
15942W        W88367  44.923  15.599  13.643
15943W        W88368  12.680  25.215  13.771
15944W        W88369  30.852  11.768   3.082
15945W        W88370  26.208  28.100  14.824
15946W        W88371  44.782  25.452   4.265
15947W        W88372  14.706  16.179  14.012
15948W        W88373  35.230  25.569  12.518
15949W        W88374  16.851  21.225   1.876
15950W        W88375   8.249  30.551   2.847
15951W        W88376  28.662  39.042  13.083
15952W        W88377   4.405  12.766  13.336
15953W        W88378  17.642   1.388   2.731
15954W        W88379   3.882   6.866  14.655
15955W        W88380  42.594   4.166   0.143
15956W        W88381  12.622  17.364  11.053
15957W        W88382  32.469  17.070  12.425
15958W        W88383  24.261   8.153  14.762
15959W        W88384   7.914  16.224  10.559
15960W        W88385  16.136   2.438   2.060
15961W        W88386  25.246   5.362  11.114
15962W        W88387  18.358  40.779   3.280
15963W        W88388  11.217  35.222   4.667
15964W        W88389  28.412  27.431   2.376
15965W        W88390   4.741  27.720  13.033
15966W        W88391  27.686   7.906   0.421
15967W        W88392  18.601  10.986   4.146
15968W        W88393  17.435  21.244   3.602
15969W        W88394  19.316  29.304   3.753
15970W        W88395  12.794  11.391   0.848
15971W        W88396  30.420  38.071  13.370
15972W        W88397  14.182  22.326   3.614
15973W        W88398  24.259  24.041   4.162
15974W        W88399  11.370  39.464   0.997
15975W        W88400  26.537  18.033   3.856
15976W        W88401   9.238  11.730  10.534
15977W        W88402   9.742  13.384   4.531
15978W        W88403  19.661   1.306   4.146
15979W        W88404  30.590  14.200   3.696
15980W        W88405  19.235  44.855   2.702
15981W        W88406  23.753   2.590  11.170
15982W        W88407  23.188  26.889   2.514
15983W        W88408   2.347  14.832   4.145
15984W        W88409  34.945  25.735  12.930
15985W        W88410  21.865  17.941   1.279
15986W        W88411  34.065   4.413  14.351
15987W        W88412  25.159  34.088  11.101
15988W        W88413  25.935  16.819   0.835
15989W        W88414  22.006  14.343  12.898
15990W        W88415  10.903  42.009   2.762
15991W        W88416  13.199  35.595  14.818
15992W        W88417  15.584  28.390   2.631
15993W        W88418  12.616  13.304   4.864
15994W        W88419  40.260  39.402   3.855
15995W        W88420  31.913  36.461  10.772
15996W        W88421   6.488  42.302  12.873
15997W        W88422  36.294  35.191   4.953
15998W        W88423   7.284  22.759  14.496
15999W        W88424  22.198  14.293   2.273
16000W        W88425  13.401  18.139  14.704
16001W        W88426   6.399   5.776  12.040
16002W        W88427  25.032  26.255   1.369
16003W        W88428  11.227  18.524  14.620
16004W        W88429  32.038  25.174  12.909
16005W        W88430  12.285  32.477  10.689
16006W        W88431  25.531  37.536  10.744
16007W        W88432  12.361   1.740   4.172
16008W        W88433  18.497  15.642   2.125
16009W        W88434  10.947   5.220  11.574
16010W        W88435  36.081   3.963   0.499
16011W        W88436  16.070  22.408   0.715
16012W        W88437  17.506  10.274   0.930
16013W        W88438  22.956  44.283   4.784
16014W        W88439  26.131  35.868  14.458
16015W        W88440  32.496   2.375  13.966
16016W        W88441  13.764   5.439   4.455
16017W        W88442   1.526   3.275   2.761
16018W        W88443  33.351  34.071   0.554
16019W        W88444  17.234  38.043  11.984
16020W        W88445  32.109   4.064   3.280
16021W        W88446   5.123  43.702  14.943
16022W        W88447  23.857  29.503   4.168
16023W        W88448  40.314  11.372  14.628
16024W        W88449  35.886  31.883   3.055
16025W        W88450   5.900  36.369   3.082
16026W        W88451  37.524   2.883   0.734
16027W        W88452  44.421  30.127   4.323
16028W        W88453  11.853  11.101   2.321
16029W        W88454  20.057  30.003  11.951
16030W        W88455  44.694  22.016   1.298
16031W        W88456   3.584  12.033  13.398
16032W        W88457  37.788  37.413   1.260
16033W        W88458  17.170  17.565   1.834
16034W        W88459  31.187   8.560  14.803
16035W        W88460  15.356  19.528  11.201
16036W        W88461  10.618  44.908   4.721
16037W        W88462  35.451  28.898  11.444
16038W        W88463  14.646  27.162  12.716
16039W        W88464   0.722  12.135   0.530
16040W        W88465  19.481  22.817  14.322
16041W        W88466   9.026  28.029  10.626
16042W        W88467   1.981  21.572  11.634
16043W        W88468  26.233   0.530  12.378
16044W        W88469  37.906  17.244   1.027
16045W        W88470  35.875  42.967  14.865
16046W        W88471  11.777   8.681   4.587
16047W        W88472  17.185  11.594   3.235
16048W        W88473  42.397  44.418  12.249
16049W        W88474  44.338   0.284   1.404
16050W        W88475  17.572   3.960  14.300
16051W        W88476  32.107  16.508  13.122
16052W        W88477  38.698  35.061  13.178
16053W        W88478   5.740  16.517   3.707
16054W        W88479  13.136  37.400   0.384
16055W        W88480  20.313  30.627   1.382
16056W        W88481  34.141  17.242   3.667
16057W        W88482   7.135  40.455   1.461
16058W        W88483  19.097  27.178  11.659
16059W        W88484  20.747   2.243  11.533
16060W        W88485  19.263  33.462  13.162
16061W        W88486   5.349  18.749  13.556
16062W        W88487  25.807  26.213  11.491
16063W        W88488  10.173   2.948   1.459
16064W        W88489  32.977  30.180   4.075
16065W        W88490  38.754   6.940   4.223
16066W        W88491  35.629  25.701   3.006
16067W        W88492  42.629   3.787   1.822
16068W        W88493  25.278  28.437   3.789
16069W        W88494  16.969  23.828   0.277
16070W        W88495   7.808  40.774   4.480
16071W        W88496  35.629  28.362   0.379
16072W        W88497  16.077  18.189   3.754
16073W        W88498  43.680  15.080  10.618
16074W        W88499   9.863  44.437  11.627
16075W        W88500  29.922  17.632  12.375
16076W        W88501  17.273  34.864   5.084
16077W        W88502  36.380  39.279   3.386
16078W        W88503  19.065   6.233   1.897
16079W        W88504  12.930  20.265  13.829
16080W        W88505  12.704   0.394   2.634
16081W        W88506  26.621  23.642   4.670
16082W        W88507  28.208   6.274  12.116
16083W        W88508   7.834  17.337  12.065
16084W        W88509  17.268  39.984   3.946
16085W        W88510  41.277  22.161  12.748
16086W        W88511  17.108  23.331   1.189
16087W        W88512  16.976  21.172   0.239
16088W        W88513  23.189  37.959  10.809
16089W        W88514   1.366  13.055   1.376
16090W        W88515  44.472  35.121   9.924
16091W        W88516  13.341   8.052  14.268
16092W        W88517   0.544   1.555  11.266
16093W        W88518  39.076  36.805  12.342
16094W        W88519  40.895  13.060  12.914
16095W        W88520  34.629  18.814  12.075
16096W        W88521  27.579  14.673   1.932
16097W        W88522  32.744   9.719  13.421
16098W        W88523   3.036   5.485   2.602
16099W        W88524  41.869  36.164  14.978
16100W        W88525  39.037   5.745  12.294
16101W        W88526  39.364  38.298  14.344
16102W        W88527  38.020  33.861   2.848
16103W        W88528  23.221  11.774  11.445
16104W        W88529   9.766  33.349  14.297
16105W        W88530  43.510  10.622  14.329
16106W        W88531  11.065  25.604   1.059
16107W        W88532  16.432   2.788   3.778
16108W        W88533  12.814  20.238   4.544
16109W        W88534  37.440   7.697   4.491
16110W        W88535  23.632  27.713  14.783
16111W        W88536  43.000  12.691  13.427
16112W        W88537   2.076  10.643  12.856
16113W        W88538  34.717  23.508   1.374
16114W        W88539  40.047  16.448  11.156
16115W        W88540  30.910  15.748   4.062
16116W        W88541  41.388  13.174  12.906
16117W        W88542  32.086   4.840   2.829
16118W        W88543  22.812  26.102   1.285
16119W        W88544  15.699  18.001   4.051
16120W        W88545  18.847  17.130   0.265
16121W        W88546  16.605  38.038   0.439
16122W        W88547  19.116   2.828   4.615
16123W        W88548  31.480   6.659  10.720
16124W        W88549  26.738   3.844   0.782
16125W        W88550  44.820   0.549   1.393
16126W        W88551  23.176  26.485  11.583
16127W        W88552  38.617  28.558   3.216
16128W        W88553  22.756  34.341  12.520
16129W        W88554  25.409   6.148   0.998
16130W        W88555  12.458  11.807  12.090
16131W        W88556  21.580   9.613  14.076
16132W        W88557  27.226  27.291  10.757
16133W        W88558  21.768  35.040  14.492
16134W        W88559  30.850  21.158  14.940
16135W        W88560   4.896  39.525  11.098
16136W        W88561  19.063   3.925  12.836
16137W        W88562  22.498  34.058  13.993
16138W        W88563   3.510   4.337  14.820
16139W        W88564   2.000  13.290  12.277
16140W        W88565  33.688  25.450  10.685
16141W        W88566  21.468   2.030  13.514
16142W        W88567  39.767  15.986  10.901
16143W        W88568  40.727  43.821  10.717
16144W        W88569  40.342  17.520  11.940
16145W        W88570  27.217   3.894   1.889
16146W        W88571  20.071  40.600   3.706
16147W        W88572  42.766  33.539  11.601
16148W        W88573  14.269  17.047   1.468
16149W        W88574  14.200  26.558   1.929
16150W        W88575  12.588  38.879   0.713
16151W        W88576  13.169  11.691  11.587
16152W        W88577  42.157  20.144   2.353
16153W        W88578  35.648   2.922   4.294
16154W        W88579   3.226  21.391   1.365
16155W        W88580  23.408  23.072   4.932
16156W        W88581  24.099  13.659   4.135
16157W        W88582   4.936  39.094   2.423
16158W        W88583  41.139  33.434   0.240
16159W        W88584  10.198   9.208  12.890
16160W        W88585  16.099  37.396   2.599
16161W        W88586  18.165  15.519  11.632
16162W        W88587  15.468  31.931  10.224
16163W        W88588  20.040  14.188  13.057
16164W        W88589  21.947   0.571   4.130
16165W        W88590  12.751   4.173   3.137
16166W        W88591  20.924  31.085  12.561
16167W        W88592  39.259  15.767  12.672
16168W        W88593  14.851   7.184  13.066
16169W        W88594  10.591  28.867  14.836
16170W        W88595   9.390  20.156  12.525
16171W        W88596  35.083  33.807   2.784
16172W        W88597   2.490  44.335  12.942
16173W        W88598  28.427  40.530   3.418
16174W        W88599  39.077  27.407   2.793
16175W        W88600   7.800   1.882  11.004
16176W        W88601  44.686  40.053   3.812
16177W        W88602   4.384  36.850   1.329
16178W        W88603   9.411  44.525  10.897
16179W        W88604  22.143  39.853   2.872
16180W        W88605   6.325  37.313   2.668
16181W        W88606  34.960  28.941   0.415
16182W        W88607   4.677  27.284  10.793
16183W        W88608  42.892  25.171  13.337
16184W        W88609  16.684  17.494  12.570
16185W        W88610  20.546  33.099   3.194
16186W        W88611   2.435  44.408   0.806
16187W        W88612  27.161  25.140  13.840
16188W        W88613   1.055  11.336   3.004
16189W        W88614  29.715  28.662  11.526
16190W        W88615  44.872   5.821   1.042
16191W        W88616  13.887  21.821  13.061
16192W        W88617  38.952  27.309   3.638
16193W        W88618   0.724  16.438  10.682
16194W        W88619  10.601  21.051   2.911
16195W        W88620  28.692  31.684  12.172
16196W        W88621  37.119  13.122   1.372
16197W        W88622  25.502   0.078  12.642
16198W        W88623   0.378   5.222  11.904
16199W        W88624  30.280  18.021  11.562
16200W        W88625   6.949  33.407  11.593
16201W        W88626  40.399  23.946   3.239
16202W        W88627  44.512  41.985   0.400
16203W        W88628  40.966   8.084   2.307
16204W        W88629   0.590  27.173   3.113
16205W        W88630  11.883  32.133  10.727
16206W        W88631  29.168   6.898   3.248
16207W        W88632  34.637  34.199   3.361
16208W        W88633   3.820  35.595  12.440
16209W        W88634  36.914  26.774  12.965
16210W        W88635  21.557   4.884  11.555
16211W        W88636   6.806  10.434   0.523
16212W        W88637  26.295  27.265   1.811
16213W        W88638   6.688  21.659   2.975
16214W        W88639   0.212  16.308   3.226
16215W        W88640  26.477  22.550  11.205
16216W        W88641  14.231   5.861   0.990
16217W        W88642   0.856  29.667  12.357
16218W        W88643  37.954   2.767  10.449
16219W        W88644  11.068  22.626  10.397
16220W        W88645  33.198  33.859   4.112
16221W        W88646  36.730  15.703   3.173
16222W        W88647  39.431  14.579   3.835
16223W        W88648  42.655   6.582  14.978
16224W        W88649  36.908  25.124   3.665
16225W        W88650  35.497  30.407   4.459
16226W        W88651  26.284  32.517   3.339
16227W        W88652  42.095  32.932  11.191
16228W        W88653  34.392   3.730   1.753
16229W        W88654  19.590  14.724  10.720
16230W        W88655  22.317  30.241   2.146
16231W        W88656   8.913   6.327  12.962
16232W        W88657  36.612  33.837  13.881
16233W        W88658   1.274  14.735  12.852
16234W        W88659  10.662   5.878  14.425
16235W        W88660   9.595  44.043   3.171
16236W        W88661  13.197  15.345   3.283
16237W        W88662  11.440  27.079   4.075
16238W        W88663   3.052  38.046   2.700
16239W        W88664  32.842  16.097  12.542
16240W        W88665  40.072  14.709  11.027
16241W        W88666  16.440  27.963   3.552
16242W        W88667  17.573  30.694  11.687
16243W        W88668  21.738  40.374  13.860
16244W        W88669  33.214  17.064  14.248
16245W        W88670   8.047  17.115  13.398
16246W        W88671  42.893   6.633   1.885
16247W        W88672   1.682   0.479  12.608
16248W        W88673   5.575  36.857   2.300
16249W        W88674  33.551  31.467   3.227
16250W        W88675  35.903  10.885  14.838
16251W        W88676  37.452   9.893   3.326
16252W        W88677   2.220   3.798  13.932
16253W        W88678   0.343  14.380  14.410
16254W        W88679  28.015  25.396   1.944
16255W        W88680   6.987  38.635  12.144
16256W        W88681  15.848  40.811  12.859
16257W        W88682   6.089  19.122  11.523
16258W        W88683  25.046  20.859  10.184
16259W        W88684  23.903  15.277   4.705
16260W        W88685  22.622   3.265  12.708
16261W        W88686  29.546  42.860  10.214
16262W        W88687   3.946  31.813  11.605
16263W        W88688  40.920  35.563  14.219
16264W        W88689  26.827  28.002  14.042
16265W        W88690  34.483  37.958   2.726
16266W        W88691  34.286  34.680  13.984
16267W        W88692  16.023  14.962  11.342
16268W        W88693  36.913  25.584   1.024
16269W        W88694  40.002   5.404  14.176
16270W        W88695   1.873   7.318  11.570
16271W        W88696  38.755  16.281   4.380
16272W        W88697  38.021  31.044   2.299
16273W        W88698  11.661  19.010   4.207
16274W        W88699  24.165  15.209   3.405
16275W        W88700  28.548   1.187  13.417
16276W        W88701   3.785  32.729   2.693
16277W        W88702   4.198  36.599   4.920
16278W        W88703  33.894  12.652   3.774
16279W        W88704  15.649  44.489   2.929
16280W        W88705  28.638   1.272   3.389
16281W        W88706  13.139  12.791   3.702
16282W        W88707  15.766  20.292   3.217
16283W        W88708   6.726  41.618   1.950
16284W        W88709  38.032  11.391   3.916
16285W        W88710  11.229   3.050  14.897
16286W        W88711  40.357  37.606   4.581
16287W        W88712   8.193   1.502  11.669
16288W        W88713  38.795  42.446   3.686
16289W        W88714  32.851   1.487  11.709
16290W        W88715  13.642  23.209   5.462
16291W        W88716   6.729   3.710   3.626
16292W        W88717  44.969  30.930  12.617
16293W        W88718   6.723  20.971  12.501
16294W        W88719   2.903  18.259   1.633
16295W        W88720  10.024  14.834   3.623
16296W        W88721   8.852   6.408   1.639
16297W        W88722  19.407  15.311   0.495
16298W        W88723  10.458  33.551   2.633
16299W        W88724  40.394  20.790   0.973
16300W        W88725  15.044  21.229  13.467
16301W        W88726  11.393  42.208  11.784
16302W        W88727  30.784  13.892  13.831
16303W        W88728  24.686  17.217   4.516
16304W        W88729  38.363  38.057  13.286
16305W        W88730   5.718  13.829   3.003
16306W        W88731  29.939  38.078  13.237
16307W        W88732   9.589  36.798   1.488
16308W        W88733  33.058  34.123  13.013
16309W        W88734  10.395  38.798   3.235
16310W        W88735  11.143   0.336   0.045
16311W        W88736  11.773   2.520  13.575
16312W        W88737  13.783   1.441   0.452
16313W        W88738  43.267   5.181   1.195
16314W        W88739  10.964  29.623  12.439
16315W        W88740  16.825  26.565  14.363
16316W        W88741  18.085  22.554   1.779
16317W        W88742   9.110   2.940   1.822
16318W        W88743  26.630   0.335   2.510
16319W        W88744  29.442  44.360  11.838
16320W        W88745  43.444  20.562  12.957
16321W        W88746   8.157   4.271  14.758
16322W        W88747  12.687  43.980  14.089
16323W        W88748  17.620  18.813  13.862
16324W        W88749   1.353  20.252  13.153
16325W        W88750   8.317  31.155   4.870
16326W        W88751   5.793  30.143  12.029
16327W        W88752  26.435   6.807  11.682
16328W        W88753  17.342  21.104   4.489
16329W        W88754  29.032  26.189   0.723
16330W        W88755  21.612  22.132   0.988
16331W        W88756  40.413  30.926  12.874
16332W        W88757  11.710  19.032  11.202
16333W        W88758  40.822  12.072  13.772
16334W        W88759  10.704   0.166  13.847
16335W        W88760  44.783   9.614   4.085
16336W        W88761  27.018  23.615   4.994
16337W        W88762  38.842  17.040  13.812
16338W        W88763  44.591  31.343   3.642
16339W        W88764  43.428  18.788   2.550
16340W        W88765   1.787   5.823  11.547
16341W        W88766  26.328   7.846   4.345
16342W        W88767  15.528  37.495  12.941
16343W        W88768  20.022  11.422  12.514
16344W        W88769   7.234   7.425   2.181
16345W        W88770  20.275  26.609  14.848
16346W        W88771  24.767  12.401   4.308
16347W        W88772  20.194  44.318   0.393
16348W        W88773  35.180   3.854   0.420
16349W        W88774  40.478  43.494   2.327
16350W        W88775  22.716  10.321  10.575
16351W        W88776   8.198  23.017  13.452
16352W        W88777   2.828  38.977   4.204
16353W        W88778  30.580  43.450   3.681
16354W        W88779  22.305  29.817  13.500
16355W        W88780  12.737   8.884  11.942
16356W        W88781  12.128  22.124   0.898
16357W        W88782  34.046  32.388  11.424
16358W        W88783   4.663  34.982   0.976
16359W        W88784  14.088  41.912  14.871
16360W        W88785  44.685  33.613   4.158
16361W        W88786   0.033  11.114   0.508
16362W        W88787  43.432   5.425  10.585
16363W        W88788   7.443  40.952   1.347
16364W        W88789  38.807   5.035  13.011
16365W        W88790   8.002   5.775  13.874
16366W        W88791  10.622  32.441  12.307
16367W        W88792  31.006  33.503   3.595
16368W        W88793  32.672   1.899   0.841
16369W        W88794  10.832  15.946  13.447
16370W        W88795   0.194  28.030  14.308
16371W        W88796  39.890  10.926   1.836
16372W        W88797  25.728  29.557  14.848
16373W        W88798  33.353  13.585   0.211
16374W        W88799  39.365  23.484  11.427
16375W        W88800  44.801   2.576  11.484
16376W        W88801  34.941   4.914  12.432
16377W        W88802  22.227  38.060  11.032
16378W        W88803  42.892   4.401   2.438
16379W        W88804  15.303  29.873  14.223
16380W        W88805  33.561  10.336  13.913
16381W        W88806  19.667  15.070   2.377
16382W        W88807  33.444  34.897   4.679
16383W        W88808   4.354  35.624  14.468
16384W        W88809  16.957  33.608   0.762
16385W        W88810  43.541  43.835   4.195
16386W        W88811   4.799  11.514  12.451
16387W        W88812   1.217  39.329  14.469
16388W        W88813  12.327   3.360   3.125
16389W        W88814  16.649  18.154   4.647
16390W        W88815  20.020  20.266  11.530
16391W        W88816  41.961  15.321   4.167
16392W        W88817  38.790  10.239   4.527
16393W        W88818  30.925   8.172   0.710
16394W        W88819  19.997  24.978  12.479
16395W        W88820  15.772  43.501  11.497
16396W        W88821  38.540  43.502  11.214
16397W        W88822  41.920  35.759   3.667
16398W        W88823  24.074   7.234   3.272
16399W        W88824  37.946  22.563  11.582
16400W        W88825  33.440  43.223   3.373
16401W        W88826   0.332   2.949   3.881
16402W        W88827  32.036  30.440   3.624
16403W        W88828  25.495  40.867   0.887
16404W        W88829  42.700   9.776  14.955
16405W        W88830  43.670  23.642   1.691
16406W        W88831  30.451  15.586   2.935
16407W        W88832  25.633   8.967  12.486
16408W        W88833  36.480  37.606   2.958
16409W        W88834  10.416  42.012  13.309
16410W        W88835  43.081  22.938   1.244
16411W        W88836  44.552  20.669  14.972
16412W        W88837  23.681   5.861  10.710
16413W        W88838  35.530  22.530  10.738
16414W        W88839  36.929  32.550   4.720
16415W        W88840   8.148   5.721  10.900
16416W        W88841  24.910  43.943  12.928
16417W        W88842  35.899  25.231  13.866
16418W        W88843  27.945   2.285   1.879
16419W        W88844  13.536  11.506  11.212
16420W        W88845  19.571   1.308  10.660
16421W        W88846  42.060   9.385  11.911
16422W        W88847   4.504  23.014   3.602
16423W        W88848  21.490  13.351   0.337
16424W        W88849   5.254   9.278   2.810
16425W        W88850  32.569  27.563  14.200
16426W        W88851  26.918  11.179  11.067
16427W        W88852   4.032  16.844  12.398
16428W        W88853  42.459  33.138  12.825
16429W        W88854   4.720  25.509   1.674
16430W        W88855   3.657  33.440   3.728
16431W        W88856   8.314   4.880  10.852
16432W        W88857  15.088   8.311  13.976
16433W        W88858  16.092   2.565   3.329
16434W        W88859  36.769   4.108  10.727
16435W        W88860  24.667   6.410   4.625
16436W        W88861   0.862  44.455  10.691
16437W        W88862   9.754  15.555   4.165
16438W        W88863  33.102   7.124   9.913
16439W        W88864  44.681  42.061  13.973
16440W        W88865  23.488  29.915  14.301
16441W        W88866  40.386  24.282  10.767
16442W        W88867  13.095  28.744  12.857
16443W        W88868   2.234   5.244   1.315
16444W        W88869  31.214  15.196   1.978
16445W        W88870  28.023  20.260   1.335
16446W        W88871  36.218  44.740  14.293
16447W        W88872  35.540   2.702  10.543
16448W        W88873  16.959  42.477  11.693
16449W        W88874  24.703   5.322  13.152
16450W        W88875  43.438  28.099  10.691
16451W        W88876   1.929   2.702   3.198
16452W        W88877  31.173   6.503  12.101
16453W        W88878   7.129   6.856  11.672
16454W        W88879  13.980   4.947   5.170
16455W        W88880  39.896  14.409   4.584
16456W        W88881  31.041  16.334   0.806
16457W        W88882  39.125  30.745   4.289
16458W        W88883  35.397  44.062  12.449
16459W        W88884   9.828  13.269  12.430
16460W        W88885   7.210  21.948  11.567
16461W        W88886  20.764  21.639   0.754
16462W        W88887  14.400  32.352  11.536
16463W        W88888  43.479   8.699  11.642
16464W        W88889  24.013   3.233  12.962
16465W        W88890  33.021  41.763  14.341
16466W        W88891  17.237  37.505   1.424
16467W        W88892  36.018   8.014   0.284
16468W        W88893  15.393   1.991  14.236
16469W        W88894  24.652  32.029  10.727
16470W        W88895   4.339  10.081  13.457
16471W        W88896  35.514  13.618   3.103
16472W        W88897  41.214  13.824  12.455
16473W        W88898  13.549  11.222   4.250
16474W        W88899  12.739   7.228  11.165
16475W        W88900  20.595  26.075  13.861
16476W        W88901  26.986  40.580   3.040
16477W        W88902  28.721  16.641   3.230
16478W        W88903  29.450   1.169  12.552
16479W        W88904  29.463  33.089  13.463
16480W        W88905  29.689  13.373  14.036
16481W        W88906   3.701  10.637  12.500
16482W        W88907  41.877  17.297  12.323
16483W        W88908  38.936   3.595   5.073
16484W        W88909  21.169   7.100   9.980
16485W        W88910  16.727  26.542   1.264
16486W        W88911  20.040  20.258   3.318
16487W        W88912   9.895   4.695   0.932
16488W        W88913   2.467  41.620   4.219
16489W        W88914  16.826   8.875  13.955
16490W        W88915  14.783  27.840   3.449
16491W        W88916  12.813  11.182  12.656
16492W        W88917  43.942  18.599  12.412
16493W        W88918   0.501  27.118  12.007
16494W        W88919  35.498  16.132   0.945
16495W        W88920  38.059   3.842  11.153
16496W        W88921   4.287  26.916  10.969
16497W        W88922  30.897  36.827  13.506
16498W        W88923  33.256  18.500   4.562
16499W        W88924  34.632   4.775   3.522
16500W        W88925  29.818  40.885   1.635
16501W        W88926   6.162  26.757  14.788
16502W        W88927  28.990  35.130   1.159
16503W        W88928   4.255  15.543   3.755
16504W        W88929  12.833   0.517   4.358
16505W        W88930   5.884   0.058   0.695
16506W        W88931  32.110  11.354   4.207
16507W        W88932  14.116   2.125   0.315
16508W        W88933  20.035  29.784  10.249
16509W        W88934  42.626  28.295  12.795
16510W        W88935  15.018  35.139  11.467
16511W        W88936  41.038  42.042   1.420
16512W        W88937  30.917  35.001  14.323
16513W        W88938  35.080  15.448   4.672
16514W        W88939  18.194   4.322  12.060
16515W        W88940  30.598  35.866   0.792
16516W        W88941   3.341  19.148   4.923
16517W        W88942   0.011  19.289  11.776
16518W        W88943  37.862  20.078  13.872
16519W        W88944  36.285  35.626   0.545
16520W        W88945  11.514   0.862   2.323
16521W        W88946   8.867  16.136  13.954
16522W        W88947  36.550  26.592  12.523
16523W        W88948  15.031  42.244   0.921
16524W        W88949  39.243  20.069  14.549
16525W        W88950   7.945  18.282   2.340
16526W        W88951   4.739  39.952   0.424
16527W        W88952   8.871  12.974  10.758
16528W        W88953  11.175   9.785  14.035
16529W        W88954  40.362  35.746   5.057
16530W        W88955   4.137  40.069   4.077
16531W        W88956  28.094   8.564   1.812
16532W        W88957  31.862  25.573  14.457
16533W        W88958  40.204  12.773  13.394
16534W        W88959  43.494  12.617   1.443
16535W        W88960   9.539  32.392   0.276
16536W        W88961  35.122  25.691   2.821
16537W        W88962  19.059  27.574   4.331
16538W        W88963  43.221  30.062   0.169
16539W        W88964   9.937  11.249  10.657
16540W        W88965   1.898  26.076  14.091
16541W        W88966   2.425  19.569   0.088
16542W        W88967   9.340  37.706   0.727
16543W        W88968  23.616  26.462  10.894
16544W        W88969  20.198  25.037  14.777
16545W        W88970  41.849   0.503  10.788
16546W        W88971  33.092  38.783   0.372
16547W        W88972  43.036   6.205   4.441
16548W        W88973  29.041  33.879   2.596
16549W        W88974   4.192  15.856   1.953
16550W        W88975   2.216  26.084   4.686
16551W        W88976   8.218  25.501   3.858
16552W        W88977   3.431  16.437  14.022
16553W        W88978   1.401  25.150   3.862
16554W        W88979   5.835   8.168  13.470
16555W        W88980  10.763   0.690  11.110
16556W        W88981  13.770  37.114   4.117
16557W        W88982   8.692  39.095  12.194
16558W        W88983  38.854  42.362  10.542
16559W        W88984  19.068  20.179  11.819
16560W        W88985  34.929  18.803   3.654
16561W        W88986  24.895  18.220  13.891
16562W        W88987   9.831  40.162   2.361
16563W        W88988  33.076   3.793  14.925
16564W        W88989  20.716  41.328  13.277
16565W        W88990  13.814   3.566   4.999
16566W        W88991  29.031  11.581   0.250
16567W        W88992  30.699   7.042   2.576
16568W        W88993  41.262   6.936  13.477
16569W        W88994  17.967  29.977   0.953
16570W        W88995  14.412   7.284  11.576
16571W        W88996   1.835  36.069  14.768
16572W        W88997   9.822  28.951   1.918
16573W        W88998   1.003  42.371   3.287
16574W        W88999  12.094  37.729   1.007
16575W        W89000  11.850  40.848  12.000
16576W        W89001  30.945   2.973  12.514
16577W        W89002  41.865  34.477  11.985
16578W        W89003  33.372  43.923  14.944
16579W        W89004   8.117   6.299   2.777
16580W        W89005  44.991  28.510  11.999
16581W        W89006  43.307  28.559   0.306
16582W        W89007  28.079   0.220  10.614
16583W        W89008  42.794  11.277  11.246
16584W        W89009   2.196   5.400   0.472
16585W        W89010  14.715  31.659   4.615
16586W        W89011  18.040  19.605  12.024
16587W        W89012  10.703  33.057   0.641
16588W        W89013  22.604  40.652  12.457
16589W        W89014  24.199  34.323  11.133
16590W        W89015  10.210  42.461  14.486
16591W        W89016  18.263  33.211   3.749
16592W        W89017  32.354   9.849   1.339
16593W        W89018  42.328  13.817  14.273
16594W        W89019  32.110  32.662  12.556
16595W        W89020  26.724  32.558   4.123
16596W        W89021  37.929   6.551  13.267
16597W        W89022  30.172   5.782  13.970
16598W        W89023  18.595   2.780   1.926
16599W        W89024  14.769  12.093  12.534
16600W        W89025  22.657  17.244   2.655
16601W        W89026  44.891  43.324   3.253
16602W        W89027   2.944  44.476   0.846
16603W        W89028   4.267  37.031  13.454
16604W        W89029  42.656  36.742  11.998
16605W        W89030   2.929  23.603  10.729
16606W        W89031  29.382  42.910   2.386
16607W        W89032  27.980  15.865  12.857
16608W        W89033  26.846  36.136   3.193
16609W        W89034  33.447  26.124  13.106
16610W        W89035  42.224  23.515   3.881
16611W        W89036  26.547  13.207   1.995
16612W        W89037  19.949  18.489  13.852
16613W        W89038   4.712  30.134  13.552
16614W        W89039  29.677  32.251   1.563
16615W        W89040  36.023  31.214   4.289
16616W        W89041   0.983  43.054  14.560
16617W        W89042  32.660  39.802  14.319
16618W        W89043  28.607  18.540   1.400
16619W        W89044  43.462  26.799  11.408
16620W        W89045  17.173  14.679   4.242
16621W        W89046  38.003  27.033  13.571
16622W        W89047  26.623   2.217   2.365
16623W        W89048  44.653  22.025  12.854
16624W        W89049  40.407  36.790   0.390
16625W        W89050  40.515   4.434  13.030
16626W        W89051  23.119  16.045  12.779
16627W        W89052   4.881  44.068   0.218
16628W        W89053  25.209  22.073  11.433
16629W        W89054  22.749   7.388   3.450
16630W        W89055   3.512   9.453   3.171
16631W        W89056   0.548  36.872   3.623
16632W        W89057  27.245  30.419   2.973
16633W        W89058  37.107  28.064   4.536
16634W        W89059  28.957  20.562   0.468
16635W        W89060  34.862  20.657   4.273
16636W        W89061  41.920  14.517   3.186
16637W        W89062  42.126   3.221   4.588
16638W        W89063  13.112  24.286   5.514
16639W        W89064  12.663   5.382  13.384
16640W        W89065   4.542  35.629   1.331
16641W        W89066  34.943  24.171   3.830
16642W        W89067  14.763   0.864   3.352
16643W        W89068  29.036  41.370  10.735
16644W        W89069  38.010  23.078  11.408
16645W        W89070  42.234  31.417   2.923
16646W        W89071  34.016   3.238  11.970
16647W        W89072  43.409  20.305   1.688
16648W        W89073   5.878  13.728  12.017
16649W        W89074   8.414  33.030   0.579
16650W        W89075  33.386  40.906   1.343
16651W        W89076  36.773  35.348  14.302
16652W        W89077  28.469  14.632   2.961
16653W        W89078  39.900  36.955   0.440
16654W        W89079  21.393   3.284  11.223
16655W        W89080  17.492  32.008   1.695
16656W        W89081   5.319  26.207  12.052
16657W        W89082  38.755  42.913  14.025
16658W        W89083   4.894  21.871   1.003
16659W        W89084  43.042  14.140   4.704
16660W        W89085  26.410  42.542   3.809
16661W        W89086  26.933   0.760  12.484
16662W        W89087  38.752   2.481   0.439
16663W        W89088   0.042   0.761   0.551
16664W        W89089  40.575  36.646   4.147
16665W        W89090  31.118  20.718  12.043
16666W        W89091  16.185   8.069   3.709
16667W        W89092  19.001  25.145   0.764
16668W        W89093  17.737  12.925   0.390
16669W        W89094   6.878  24.076  12.867
16670W        W89095  37.530   2.185   0.492
16671W        W89096  30.074  44.941  11.614
16672W        W89097  22.572  16.061  12.631
16673W        W89098   8.365  23.107   2.388
16674W        W89099  14.038   8.247  13.776
16675W        W89100   4.242  16.601  13.477
16676W        W89101  41.761   8.168  13.957
16677W        W89102  31.182  30.798   0.785
16678W        W89103  44.227  37.281  11.061
16679W        W89104  43.950  13.987  11.601
16680W        W89105   4.676  23.608   4.346
16681W        W89106  42.203  19.718  12.912
16682W        W89107  37.255  11.847  13.129
16683W        W89108  20.007  24.020  12.550
16684W        W89109  35.138   3.911  11.601
16685W        W89110   3.601  28.273   1.362
16686W        W89111  20.788  33.741  13.934
16687W        W89112  10.664  39.480  11.537
16688W        W89113  14.288  40.494  13.528
16689W        W89114  33.147  25.071   4.172
16690W        W89115   9.176  24.238  11.547
16691W        W89116  32.880  22.794  11.098
16692W        W89117  13.342  29.384   2.260
16693W        W89118   3.242  38.430   3.414
16694W        W89119  18.600  10.332  11.140
16695W        W89120  32.455  28.095  13.031
16696W        W89121   2.015   4.157   3.675
16697W        W89122  34.522  44.858   0.190
16698W        W89123  11.041  41.307   3.900
16699W        W89124  25.798   9.966  10.856
16700W        W89125  19.618  29.998  11.014
16701W        W89126  13.749  26.733  13.899
16702W        W89127  15.730   8.929   2.373
16703W        W89128  39.472  38.974   0.303
16704W        W89129  22.845  11.885   1.795
16705W        W89130  32.351   9.341   0.070
16706W        W89131   7.142   7.691  14.446
16707W        W89132   0.534  35.636  12.985
16708W        W89133   0.670  28.970   0.471
16709W        W89134   8.118   0.996  14.637
16710W        W89135  43.642  11.606  11.509
16711W        W89136  40.970   4.330  13.563
16712W        W89137   1.922  37.831  12.029
16713W        W89138  23.212  19.421   4.072
16714W        W89139   5.328  44.899   2.602
16715W        W89140  39.347  10.991  12.656
16716W        W89141  34.369  13.916   1.156
16717W        W89142  38.440  44.136   3.231
16718W        W89143  39.491  31.370  11.666
16719W        W89144   2.240  24.977   4.885
16720W        W89145  11.158  24.933  10.728
16721W        W89146  26.203   9.252   3.391
16722W        W89147  32.903   1.094   1.881
16723W        W89148  14.859  17.494  13.518
16724W        W89149  27.720  22.705   3.298
16725W        W89150  11.178  21.473   1.395
16726W        W89151   9.621  35.059   4.882
16727W        W89152  42.513  16.469   0.049
16728W        W89153  15.640   0.261   1.887
16729W        W89154   1.922  17.279  10.666
16730W        W89155  32.152  30.959  12.802
16731W        W89156  10.243  10.842  12.129
16732W        W89157  23.859   0.271   2.409
16733W        W89158  20.668  24.597  12.154
16734W        W89159   0.507  40.078  13.468
16735W        W89160  33.021  40.969   4.228
16736W        W89161   8.841  18.726   5.106
16737W        W89162   3.719  19.950   2.564
16738W        W89163  21.980  10.369   4.396
16739W        W89164  32.099   8.399  14.787
16740W        W89165   7.206   0.371   4.217
16741W        W89166   8.410   4.451  10.569
16742W        W89167  35.068  22.924   3.320
16743W        W89168  18.044   3.605   4.644
16744W        W89169  43.024  43.546  13.090
16745W        W89170  41.923  18.213  13.357
16746W        W89171  19.046   9.237   4.488
16747W        W89172  41.310  38.433   1.667
16748W        W89173  27.624  14.107  12.991
16749W        W89174   1.894  37.469   4.687
16750W        W89175  30.391  34.500   0.722
16751W        W89176  10.087   9.772   3.297
16752W        W89177  19.667  18.557  14.890
16753W        W89178  18.831  31.499  14.987
16754W        W89179  33.332   5.432   2.857
16755W        W89180  37.023   3.463   4.890
16756W        W89181   6.391  42.816   4.368
16757W        W89182  28.520  14.343  13.934
16758W        W89183  11.817   7.331   4.142
16759W        W89184  12.833  21.709  14.823
16760W        W89185  18.148  23.130   1.295
16761W        W89186  29.380  25.250  12.559
16762W        W89187  18.980   7.064  13.520
16763W        W89188   5.992  19.540   3.275
16764W        W89189   8.939  40.440  14.792
16765W        W89190  10.734   8.892  14.970
16766W        W89191  11.295   4.893  13.520
16767W        W89192   4.857  15.560   1.307
16768W        W89193  16.095  16.479  12.799
16769W        W89194   5.148  35.824  11.456
16770W        W89195  33.334   8.327  12.827
16771W        W89196  22.700  37.290  13.404
16772W        W89197   7.299  32.450  11.225
16773W        W89198  40.018  38.464   4.623
16774W        W89199  43.095   8.651  11.965
16775W        W89200  24.680  26.583   2.343
16776W        W89201  42.796  32.414   3.714
16777W        W89202  11.711   5.224   0.123
16778W        W89203  34.605  13.944   2.655
16779W        W89204  26.753  34.488   0.221
16780W        W89205  22.483  12.319   2.278
16781W        W89206  12.212  22.039   4.936
16782W        W89207  25.690   2.743  14.850
16783W        W89208  36.055  12.345  14.289
16784W        W89209  26.676  40.461  14.275
16785W        W89210  23.647   2.427  12.498
16786W        W89211  22.699  28.742  13.629
16787W        W89212  31.947   6.955  14.442
16788W        W89213  43.448   9.524   3.090
16789W        W89214  20.187  18.112   3.586
16790W        W89215   2.472  13.772  13.403
16791W        W89216  42.294  22.265   5.561
16792W        W89217  31.639  14.615   2.193
16793W        W89218   8.448  16.890  11.554
16794W        W89219   0.484  41.830   0.255
16795W        W89220  14.706   5.960   2.742
16796W        W89221  29.291  40.657   1.257
16797W        W89222  26.608   5.967  11.014
16798W        W89223  36.492   9.670  14.433
16799W        W89224  32.410  22.811   2.261
16800W        W89225   3.868  28.660   1.564
16801W        W89226  15.504  36.931   1.158
16802W        W89227  17.549  12.935  11.980
16803W        W89228  28.687  39.264   4.625
16804W        W89229   5.034  40.935   2.398
16805W        W89230  15.115   6.689   4.091
16806W        W89231   3.290  42.127  13.034
16807W        W89232  40.104  24.045   2.056
16808W        W89233   4.441   5.429   4.792
16809W        W89234  42.406  30.943   2.009
16810W        W89235   4.911  37.839   2.796
16811W        W89236  17.469  25.373  13.420
16812W        W89237  36.970  27.252  11.145
16813W        W89238  27.427  23.444  12.506
16814W        W89239  13.697  33.339  14.025
16815W        W89240   1.490  15.559  13.405
16816W        W89241  17.833  30.967  12.063
16817W        W89242  21.120   2.883   0.998
16818W        W89243  18.535  21.497  13.105
16819W        W89244   9.773   9.145   2.314
16820W        W89245   8.811  12.169   2.724
16821W        W89246  35.247  15.298   4.048
16822W        W89247  18.134   4.484   4.597
16823W        W89248  14.327   9.526   1.501
16824W        W89249   4.916  20.439  11.244
16825W        W89250   1.918  27.472   0.982
16826W        W89251  20.944  37.149   1.060
16827W        W89252  42.891  34.471  12.649
16828W        W89253  25.642  22.156   2.299
16829W        W89254  13.345  38.563  13.472
16830W        W89255  36.392  43.023   0.910
16831W        W89256  25.116  17.862   2.747
16832W        W89257  36.452  25.898   2.658
16833W        W89258  12.976  30.193   9.947
16834W        W89259  20.633   7.849   4.371
16835W        W89260   2.406  13.853   2.211
16836W        W89261  32.507  17.650  13.974
16837W        W89262  25.577  12.400   5.087
16838W        W89263   1.870  18.702   3.749
16839W        W89264   7.277   1.834   2.752
16840W        W89265  16.833  23.647   4.219
16841W        W89266  12.956  19.705   5.015
16842W        W89267  34.184  30.388   2.872
16843W        W89268  27.009  35.784  14.962
16844W        W89269   3.416  30.678   3.194
16845W        W89270   5.844   5.981   2.656
16846W        W89271  11.129   6.927   2.129
16847W        W89272  21.160  41.801  13.536
16848W        W89273  38.420  41.174   0.378
16849W        W89274  15.831  38.259   1.411
16850W        W89275  11.639  34.570  11.062
16851W        W89276  41.303   5.906   0.917
16852W        W89277   7.281  10.686   4.652
16853W        W89278  18.235  15.843  11.230
16854W        W89279  35.051  14.654  12.142
16855W        W89280  12.244  20.305   1.240
16856W        W89281  35.493  29.630   1.460
16857W        W89282  27.614   2.435  13.974
16858W        W89283  21.864  12.543  10.134
16859W        W89284  31.162  22.856  12.933
16860W        W89285   1.291  31.565   0.444
16861W        W89286  44.267  28.988  10.947
16862W        W89287  25.731  20.222   3.923
16863W        W89288  25.534  42.338  14.200
16864W        W89289  39.189   9.789  13.597
16865W        W89290  39.239   3.267  12.939
16866W        W89291  30.613  22.983   3.000
16867W        W89292  29.922  39.985   2.831
16868W        W89293  40.805  33.600  14.885
16869W        W89294   4.443  30.219  13.997
16870W        W89295   9.901  33.141   2.446
16871W        W89296  19.301  40.585   1.717
16872W        W89297  44.410   9.855   2.682
16873W        W89298   2.039  38.869  14.520
16874W        W89299  39.763   5.053  10.812
16875W        W89300  39.621  44.354  14.141
16876W        W89301  23.143  22.556  14.681
16877W        W89302  34.389  17.255   3.223
16878W        W89303   9.018  21.248  13.483
16879W        W89304  21.485  27.180   1.009
16880W        W89305  41.073   1.414   1.551
16881W        W89306  32.228  10.358   5.231
16882W        W89307  11.197  31.110  13.867
16883W        W89308   9.319  11.903   0.526
16884W        W89309   8.895  40.078   1.072
16885W        W89310  18.668   8.579  14.379
16886W        W89311   9.300  23.243  11.643
16887W        W89312  25.736   3.675  12.962
16888W        W89313  28.403  36.881   0.769
16889W        W89314  28.014   8.391   4.577
16890W        W89315  11.201   4.447   3.079
16891W        W89316  22.979  15.040   3.682
16892W        W89317  19.458   6.243   4.277
16893W        W89318  16.344  28.548  10.393
16894W        W89319  24.198  24.647   3.778
16895W        W89320  36.373  39.849   4.339
16896W        W89321  37.004  31.253   3.620
16897W        W89322  22.749   0.714   0.782
16898W        W89323  11.462  30.880  10.443
16899W        W89324  40.405  20.840  13.850
16900W        W89325  18.188  10.174   5.336
16901W        W89326  14.989  31.989   2.727
16902W        W89327  20.076   3.075  12.064
16903W        W89328  37.071   3.840  14.850
16904W        W89329  28.502  22.600   0.347
16905W        W89330  27.143  19.260  11.468
16906W        W89331   4.900  10.853   0.777
16907W        W89332  38.484   9.786   4.567
16908W        W89333   6.671  42.729  12.022
16909W        W89334  40.769  18.121  14.852
16910W        W89335  26.599  41.264   0.222
16911W        W89336  13.700  33.437  10.704
16912W        W89337  13.369  30.599  13.321
16913W        W89338  36.549   5.285   2.578
16914W        W89339  35.417  37.327  14.492
16915W        W89340   7.172  19.545   3.730
16916W        W89341  15.640  36.455  10.717
16917W        W89342  32.527  24.558  12.451
16918W        W89343  10.314  31.544  11.535
16919W        W89344  14.226   1.665   1.697
16920W        W89345  37.118   4.899  11.547
16921W        W89346  44.972  29.539   0.279
16922W        W89347  26.082   2.287   2.212
16923W        W89348   8.829  42.354   0.276
16924W        W89349  44.505  27.995  13.968
16925W        W89350   4.311  23.632   1.138
16926W        W89351   8.858  35.833  10.588
16927W        W89352  34.966  40.314   0.462
16928W        W89353  15.798  31.112  12.981
16929W        W89354   9.993  16.256  13.191
16930W        W89355  18.319  14.714   2.709
16931W        W89356  12.780  15.056   3.350
16932W        W89357   1.524  39.911   0.192
16933W        W89358  44.456  11.581   4.669
16934W        W89359  41.079  21.141   4.319
16935W        W89360   1.958  25.535  11.941
16936W        W89361  40.777  36.339   2.858
16937W        W89362   3.376  26.894  12.955
16938W        W89363  10.424   6.286   3.360
16939W        W89364  26.626  37.099  11.116
16940W        W89365  34.664   6.289   4.049
16941W        W89366   7.713  39.405   3.911
16942W        W89367  24.267  44.943  11.322
16943W        W89368  18.771  35.912   3.111
16944W        W89369  31.397  32.117   2.844
16945W        W89370  35.086  35.734   1.959
16946W        W89371  31.959  37.335  12.177
16947W        W89372   6.591  38.888   3.710
16948W        W89373   9.606  33.004   3.697
16949W        W89374  29.491  16.475   1.693
16950W        W89375  18.421   4.861   4.372
16951W        W89376  43.402  36.515  10.388
16952W        W89377   7.151  27.619   1.742
16953W        W89378  28.522  26.305   3.258
16954W        W89379  14.762  33.247  11.586
16955W        W89380  28.051   1.363   0.894
16956W        W89381  42.265   3.113   2.246
16957W        W89382  36.432  18.725   1.655
16958W        W89383  31.645  13.679   2.326
16959W        W89384  11.196  22.667   0.281
16960W        W89385  20.498  41.047  14.001
16961W        W89386  26.671   1.925   0.414
16962W        W89387  24.973  35.049  12.599
16963W        W89388  40.333  32.026   4.747
16964W        W89389  18.345  29.395   0.363
16965W        W89390   4.807  37.285   4.683
16966W        W89391  37.617  33.084  13.319
16967W        W89392  28.861  43.266   4.128
16968W        W89393  32.103  29.481  13.062
16969W        W89394  21.214  44.839  12.856
16970W        W89395  35.640  27.564   2.295
16971W        W89396  12.899   8.934   3.238
16972W        W89397  19.564  14.023  12.960
16973W        W89398  14.750  14.309  14.227
16974W        W89399  36.000  34.499   4.563
16975W        W89400   4.652  17.237  10.814
16976W        W89401  40.821  38.286   0.757
16977W        W89402  26.971  26.074   4.507
16978W        W89403  16.317  22.018   1.624
16979W        W89404  11.766  33.100  10.831
16980W        W89405   1.494  31.056   1.900
16981W        W89406  26.751  39.324   3.304
16982W        W89407  28.430   2.993   3.022
16983W        W89408  30.487  28.369   3.936
16984W        W89409  19.024  36.175   2.742
16985W        W89410  20.185  38.260   1.264
16986W        W89411  18.163  28.969  12.126
16987W        W89412  31.188   4.817   2.830
16988W        W89413  13.168  12.193   3.932
16989W        W89414  42.028  38.873  10.389
16990W        W89415  20.718  32.073   1.269
16991W        W89416  24.761  19.652   3.517
16992W        W89417  22.150   9.919  14.433
16993W        W89418  35.334   1.838  11.525
16994W        W89419  16.377  18.767   2.696
16995W        W89420  17.094   4.832   2.683
16996W        W89421  16.075  32.143  13.470
16997W        W89422   4.982  35.069   2.920
16998W        W89423  14.087  34.421  13.409
16999W        W89424  18.448  36.788  11.107
17000W        W89425  30.370  33.808  12.914
17001W        W89426  15.966   2.131  12.087
17002W        W89427  18.582   7.268   2.794
17003W        W89428  26.786   6.592  14.413
17004W        W89429  35.482   9.835  11.257
17005W        W89430  27.870  39.211  11.617
17006W        W89431  14.782  14.571  12.906
17007W        W89432  32.960   5.646  10.870
17008W        W89433  32.007  11.444   0.819
17009W        W89434  14.168  18.942  12.429
17010W        W89435  12.039   1.811   3.797
17011W        W89436  16.709  10.850  14.555
17012W        W89437  26.620  22.852  12.978
17013W        W89438  25.067  10.689  13.801
17014W        W89439  14.333  10.221  10.691
17015W        W89440  33.117  37.388  11.216
17016W        W89441  32.323  37.091  12.614
17017W        W89442  23.299  15.517  13.450
17018W        W89443   9.027  13.807   2.673
17019W        W89444  12.283  27.285   2.133
17020W        W89445  39.814   4.994  14.444
17021W        W89446   4.265   8.330  12.744
17022W        W89447   1.391   2.938  14.717
17023W        W89448   0.819  42.583  14.805
17024W        W89449  38.132  26.070  12.127
17025W        W89450  16.250  23.420   1.789
17026W        W89451  25.616  39.210   0.392
17027W        W89452  28.079   4.402   4.840
17028W        W89453  34.886  18.187   0.946
17029W        W89454  37.915  37.992   0.895
17030W        W89455   4.594  28.877   0.027
17031W        W89456  36.583  34.782   1.438
17032W        W89457  28.718  26.738  10.713
17033W        W89458  22.109  12.306   9.745
17034W        W89459  30.918  41.745   1.329
17035W        W89460  36.529   4.994  10.310
17036W        W89461  13.681  15.610  14.546
17037W        W89462   1.164  15.708   9.719
17038W        W89463   1.603  30.019  10.623
17039W        W89464  18.968  25.196   3.522
17040W        W89465  44.056  24.169   4.618
17041W        W89466   1.681  31.154  11.600
17042W        W89467  44.484  43.997   1.683
17043W        W89468  38.329   2.911   2.692
17044W        W89469  28.965  24.567  11.953
17045W        W89470  19.044  17.286  13.342
17046W        W89471   9.246  14.769   1.879
17047W        W89472  37.735  31.161  12.124
17048W        W89473  29.507  11.895  12.502
17049W        W89474   8.037  17.222  11.568
17050W        W89475   7.152  25.126  13.020
17051W        W89476   4.145   9.777  12.068
17052W        W89477  30.180  36.006   4.112
17053W        W89478  11.010  13.777  14.268
17054W        W89479   5.088  30.302   2.326
17055W        W89480   3.979  10.263   0.885
17056W        W89481  23.691  26.364  14.834
17057W        W89482   0.316  10.176   0.941
17058W        W89483   1.819   0.425   3.737
17059W        W89484  10.757  11.754   1.391
17060W        W89485   9.521   5.956   4.113
17061W        W89486  34.018  13.109  12.518
17062W        W89487  12.221   3.224  13.806
17063W        W89488  27.518   3.702   2.276
17064W        W89489  15.986  39.506   1.765
17065W        W89490  16.372  42.495  14.818
17066W        W89491  43.209   8.300  12.328
17067W        W89492  18.292  39.813   0.849
17068W        W89493   8.733  41.383   3.710
17069W        W89494  26.721   1.931  14.488
17070W        W89495  27.341   9.899   0.224
17071W        W89496  17.745   9.403  14.337
17072W        W89497   2.800  44.281   4.753
17073W        W89498  42.936  38.551  14.948
17074W        W89499  40.492   1.218   4.611
17075W        W89500  40.624  29.435  12.903
17076W        W89501  29.868  14.637  10.706
17077W        W89502  37.237   3.126   0.356
17078W        W89503  22.627  43.527   1.421
17079W        W89504  18.754  18.868  13.790
17080W        W89505  35.990  36.777  12.110
17081W        W89506   5.955  12.926  13.383
17082W        W89507  37.464  21.016  10.805
17083W        W89508  12.269   6.599   1.454
17084W        W89509   4.876   4.187  11.536
17085W        W89510  36.526  28.351   0.509
17086W        W89511  29.000   8.399   0.454
17087W        W89512  35.006  33.601  10.562
17088W        W89513  25.436  33.071   4.974
17089W        W89514  33.689  37.917  11.015
17090W        W89515  36.089  36.490   4.600
17091W        W89516  34.373  17.039  13.437
17092W        W89517  36.029  32.742  14.538
17093W        W89518   2.945   8.670  13.801
17094W        W89519  23.601  39.620  11.508
17095W        W89520   2.383   2.691   2.813
17096W        W89521  12.801  21.915  13.423
17097W        W89522  22.499  38.777   4.274
17098W        W89523   4.720   6.292   4.546
17099W        W89524  30.706  39.686  11.551
17100W        W89525  17.710  23.481  10.444
17101W        W89526  41.479  31.392   4.662
17102W        W89527   2.695  31.915  13.888
17103W        W89528  29.391  19.726   4.783
17104W        W89529  22.132  13.070   1.829
17105W        W89530  36.996  27.536   0.959
17106W        W89531  27.728  15.354   1.558
17107W        W89532  16.274  28.134  12.562
17108W        W89533   6.141  40.860  11.092
17109W        W89534  25.954  22.936   4.599
17110W        W89535  38.443  40.656   0.520
17111W        W89536  35.431  30.199   2.703
17112W        W89537  14.030  30.320  11.191
17113W        W89538  31.897  11.241   2.658
17114W        W89539   5.923  35.079   0.016
17115W        W89540  27.592  41.328   4.141
17116W        W89541  44.434  41.418   4.683
17117W        W89542   0.769  38.467  13.837
17118W        W89543  29.462  13.981  11.247
17119W        W89544  30.190  40.748   1.300
17120W        W89545  28.504  36.594  13.307
17121W        W89546   7.613  10.004  10.670
17122W        W89547  18.104  14.136   1.558
17123W        W89548  44.411   3.313  12.446
17124W        W89549  42.923   9.284   2.329
17125W        W89550  16.004   5.366  11.443
17126W        W89551   9.438  24.116   2.732
17127W        W89552  18.312  13.193   4.725
17128W        W89553   8.618  27.162   1.296
17129W        W89554  35.134  37.605   0.825
17130W        W89555  25.967  34.043   0.232
17131W        W89556  38.054  26.391   3.833
17132W        W89557   8.848   2.795   2.323
17133W        W89558  41.495   1.430  13.752
17134W        W89559  18.719  18.390  10.663
17135W        W89560  25.012  32.095  12.051
17136W        W89561  24.692  32.870  12.548
17137W        W89562  19.413  29.555   4.599
17138W        W89563  13.748  42.170  12.196
17139W        W89564  28.368  39.077   9.691
17140W        W89565   6.166  18.261  11.638
17141W        W89566  36.852  10.062   3.100
17142W        W89567  39.763  42.735  10.614
17143W        W89568  16.635  11.731   4.151
17144W        W89569  32.892  38.517  14.831
17145W        W89570  25.602  10.194   4.040
17146W        W89571  30.606  28.655  11.113
17147W        W89572  13.345  43.288  14.445
17148W        W89573   6.303  31.330  11.274
17149W        W89574  36.539   9.848  11.735
17150W        W89575   3.508  39.382  10.711
17151W        W89576  12.190  13.525  11.168
17152W        W89577  33.938  34.992   4.731
17153W        W89578  19.328  40.282   3.331
17154W        W89579  18.706   2.863   2.953
17155W        W89580   7.342  27.274  12.426
17156W        W89581  41.951  16.639   3.789
17157W        W89582  34.917   3.292  13.427
17158W        W89583  12.345  21.184   4.563
17159W        W89584  16.119  10.125   9.781
17160W        W89585  20.655  33.175  12.576
17161W        W89586  22.672   1.565  11.158
17162W        W89587   0.442  21.108  13.476
17163W        W89588  38.414   5.416   1.437
17164W        W89589  11.897   4.801   3.246
17165W        W89590   0.026  18.772  14.488
17166W        W89591   7.698  32.466  10.632
17167W        W89592   5.303  19.132  12.592
17168W        W89593  44.452  10.024  10.629
17169W        W89594  39.000  14.167  13.850
17170W        W89595  14.583  18.244  13.924
17171W        W89596   3.549   1.392  14.831
17172W        W89597  41.484  25.781   0.731
17173W        W89598  34.555  20.544  13.804
17174W        W89599  22.032  15.525  12.156
17175W        W89600  21.692   8.309  14.327
17176W        W89601  38.997  39.460  11.644
17177W        W89602  18.611  22.047  11.713
17178W        W89603  34.193  16.429  14.314
17179W        W89604   6.336  23.248  11.651
17180W        W89605  21.640  17.558  13.039
17181W        W89606  36.432  13.298  12.896
17182W        W89607  42.254  11.549  11.157
17183W        W89608  23.318  13.715  14.227
17184W        W89609  37.930  31.899   0.028
17185W        W89610   2.245  15.989  13.446
17186W        W89611  37.657  43.895  13.776
17187W        W89612  26.015  36.630  10.787
17188W        W89613  10.345   6.727   3.073
17189W        W89614  11.734  39.611   1.399
17190W        W89615  37.997   6.440  10.598
17191W        W89616  11.633  19.790   3.863
17192W        W89617  24.071  24.162   0.269
17193W        W89618   6.922  28.818  14.697
17194W        W89619   4.429  37.858  11.642
17195W        W89620  31.364  14.612  11.115
17196W        W89621  13.576  13.909  13.452
17197W        W89622   4.886  31.753  12.499
17198W        W89623  34.735  29.694   3.417
17199W        W89624   0.790  36.486   2.832
17200W        W89625  25.159  27.086   1.839
17201W        W89626   9.164   5.252  11.232
17202W        W89627   1.364   1.914  14.870
17203W        W89628   9.168  28.623   3.265
17204W        W89629  41.805  28.311   2.818
17205W        W89630  17.082   3.238  14.403
17206W        W89631  15.709  17.057   4.097
17207W        W89632  25.041  43.438   4.660
17208W        W89633  30.672  25.068  13.898
17209W        W89634  10.798  42.505  13.078
17210W        W89635   0.298   4.742  10.642
17211W        W89636  42.012  28.130  13.423
17212W        W89637  32.163  14.551   1.361
17213W        W89638  16.681   5.405  14.014
17214W        W89639  24.123  20.338   3.251
17215W        W89640  32.195  26.943  13.433
17216W        W89641  31.036  27.095  12.156
17217W        W89642   0.889  44.841  11.614
17218W        W89643  43.987   4.347  11.076
17219W        W89644  36.289  19.270  14.091
17220W        W89645  30.226   6.436  11.917
17221W        W89646  24.098  19.104   4.114
17222W        W89647  33.439  38.320  12.141
17223W        W89648   2.262  11.346  10.566
17224W        W89649  24.666   2.567   1.352
17225W        W89650  36.583  31.364   0.424
17226W        W89651  23.053   6.152   3.823
17227W        W89652   2.432  28.889  14.907
17228W        W89653  17.860   6.680   1.034
17229W        W89654   2.797  35.190  14.830
17230W        W89655  21.519  31.430   1.363
17231W        W89656   6.186  25.038  12.148
17232W        W89657  30.238  12.351   4.920
17233W        W89658  40.066   2.792   2.863
17234W        W89659  44.353  16.146  11.953
17235W        W89660  16.900  20.054   3.697
17236W        W89661   5.283  14.283  12.583
17237W        W89662  24.327  39.754   4.154
17238W        W89663  35.015  22.098  11.300
17239W        W89664  34.872  32.852   3.592
17240W        W89665  32.368  35.718   3.230
17241W        W89666   8.079   7.360  12.049
17242W        W89667  12.210   8.368   1.530
17243W        W89668  39.934   7.778  14.970
17244W        W89669   0.529  15.682  14.379
17245W        W89670  29.623   5.890   1.368
17246W        W89671   3.235  34.918  11.996
17247W        W89672  19.180   2.710   3.115
17248W        W89673  11.059  23.174   2.790
17249W        W89674  23.787  10.320  11.396
17250W        W89675   5.883  25.781  12.535
17251W        W89676  13.773  41.355  13.307
17252W        W89677  32.465   5.342   0.459
17253W        W89678   8.214  16.559   1.736
17254W        W89679  19.997  29.470   3.225
17255W        W89680  17.523   5.514  11.099
17256W        W89681  16.620  27.102  14.279
17257W        W89682  23.469  28.557  10.747
17258W        W89683  42.280  21.281  12.289
17259W        W89684  33.848   1.122  12.607
17260W        W89685  42.881  27.929  12.542
17261W        W89686   7.920   9.144   3.220
17262W        W89687   6.261   9.097   3.751
17263W        W89688  28.496  28.162   0.977
17264W        W89689  10.687  40.324  13.309
17265W        W89690  16.296  30.603   2.485
17266W        W89691  38.511   8.434  12.406
17267W        W89692  42.841  20.597  11.920
17268W        W89693   1.928  35.068   2.371
17269W        W89694  17.164  29.564   4.852
17270W        W89695  25.217  37.152  11.204
17271W        W89696  28.476   4.785  14.107
17272W        W89697  20.589  38.674  10.662
17273W        W89698  38.821  11.139  13.934
17274W        W89699   4.969  34.189   2.567
17275W        W89700  17.086  28.426  11.534
17276W        W89701  34.105  17.157  14.298
17277W        W89702  42.743  21.162   2.938
17278W        W89703  32.679   0.222   0.382
17279W        W89704  10.296  24.657  14.665
17280W        W89705   8.296  34.967   4.717
17281W        W89706  11.715  14.813  14.829
17282W        W89707   7.421  22.771  13.033
17283W        W89708  21.985  39.270  10.562
17284W        W89709  17.314  17.717  14.294
17285W        W89710   3.715  43.332   0.471
17286W        W89711  21.852  31.315  12.820
17287W        W89712   8.934  19.597   1.106
17288W        W89713  27.008  39.770  11.467
17289W        W89714  27.526  28.611  14.472
17290W        W89715  22.929   1.102   2.875
17291W        W89716  38.564   8.320   3.277
17292W        W89717  36.557  36.575   0.734
17293W        W89718  14.309  17.492  14.292
17294W        W89719  21.860   2.753   2.485
17295W        W89720   2.318  27.907   2.824
17296W        W89721   3.848  22.137   1.724
17297W        W89722   9.686  20.539  13.203
17298W        W89723   3.025  44.903  14.992
17299W        W89724  39.427  42.999   4.553
17300W        W89725  28.312  27.631   1.167
17301W        W89726  40.007   6.381   2.193
17302W        W89727   4.641  34.588   3.307
17303W        W89728  25.891  44.022  10.603
17304W        W89729  36.245  41.725  12.444
17305W        W89730  34.195  40.627   3.856
17306W        W89731  28.766   2.349   4.207
17307W        W89732  36.874  44.332  13.749
17308W        W89733  11.142   6.990  13.335
17309W        W89734  27.864  29.656  14.403
17310W        W89735   1.704  43.409   4.548
17311W        W89736  43.914   2.408   2.924
17312W        W89737  16.854   1.056  14.031
17313W        W89738  43.160   2.352   4.656
17314W        W89739  17.159  30.205  11.229
17315W        W89740   0.215  13.381   0.161
17316W        W89741  42.750  37.897   2.126
17317W        W89742  41.519  44.276   2.751
17318W        W89743  41.892   1.597  14.481
17319W        W89744  34.362   5.889  11.096
17320W        W89745  27.768  40.359   4.213
17321W        W89746  19.035  15.992  13.785
17322W        W89747  29.130  24.204   5.320
17323W        W89748   8.238  25.236  11.461
17324W        W89749  12.594  39.102   2.344
17325W        W89750  32.100  37.009   0.701
17326W        W89751  29.955  44.037   3.308
17327W        W89752  41.819  19.211  13.882
17328W        W89753  19.499  27.042   4.926
17329W        W89754  39.852   4.598  11.079
17330W        W89755   4.985   3.939   4.066
17331W        W89756  26.517  33.025   1.730
17332W        W89757   3.496  40.307  11.536
17333W        W89758   2.900  20.170  14.569
17334W        W89759   4.583  30.401   2.413
17335W        W89760  23.207  36.400   1.687
17336W        W89761   4.194  12.767   4.757
17337W        W89762  16.684  43.848   1.839
17338W        W89763  22.020  35.645   2.454
17339W        W89764  14.963   4.841  10.173
17340W        W89765  24.235  11.100   2.437
17341W        W89766  14.594  21.555   0.288
17342W        W89767  14.865   4.172  11.359
17343W        W89768  11.903  36.595   1.170
17344W        W89769   2.416  20.107   3.066
17345W        W89770  22.583  19.501   2.843
17346W        W89771  42.554  23.398  14.908
17347W        W89772   5.477   3.019  12.573
17348W        W89773  26.595  39.601   0.216
17349W        W89774  17.157  22.054   4.537
17350W        W89775  35.602  21.764   4.090
17351W        W89776   1.872  34.280   4.592
17352W        W89777   7.230   3.663   2.623
17353W        W89778  22.245  22.999  12.669
17354W        W89779  20.063  37.555  13.052
17355W        W89780   5.954  34.687   4.723
17356W        W89781  38.879  29.160  11.804
17357W        W89782  12.408  32.536   3.796
17358W        W89783  36.119   1.338  11.010
17359W        W89784  27.498  11.391   1.912
17360W        W89785  13.788  37.922  12.835
17361W        W89786  37.562  44.234  12.088
17362W        W89787  12.245  39.925  11.626
17363W        W89788   9.956  32.602  13.801
17364W        W89789  32.998  25.349   3.768
17365W        W89790  41.797  15.649   2.867
17366W        W89791  16.223  15.744  10.656
17367W        W89792  14.293  11.024   1.238
17368W        W89793  13.792  28.974   1.265
17369W        W89794  32.010  41.156  14.247
17370W        W89795   6.123   9.462  14.969
17371W        W89796  34.915  22.115   4.743
17372W        W89797  18.534  42.531   3.187
17373W        W89798   1.325  35.991  11.892
17374W        W89799   4.038  29.974   2.825
17375W        W89800  42.795  32.169   0.512
17376W        W89801  24.888  44.466   2.305
17377W        W89802  16.226  19.256  12.552
17378W        W89803  26.443  34.687   2.354
17379W        W89804  23.978  27.548  11.604
17380W        W89805  39.528   9.864   2.384
17381W        W89806  15.664  31.255   5.073
17382W        W89807  15.108  13.727   4.424
17383W        W89808  25.929  12.580  13.553
17384W        W89809  11.832  25.258   0.972
17385W        W89810  33.938  19.738   4.772
17386W        W89811   0.320  20.101   2.860
17387W        W89812  27.421   2.753   4.579
17388W        W89813  34.414  33.081   3.572
17389W        W89814  25.587  19.981   2.233
17390W        W89815  24.788  39.532  11.681
17391W        W89816  23.286  35.894  11.760
17392W        W89817  10.412  18.697   3.222
17393W        W89818  42.968  28.744   1.716
17394W        W89819   1.303   5.500   0.800
17395W        W89820  20.956   0.755   1.120
17396W        W89821  13.218  28.483   3.795
17397W        W89822  38.315  41.489  14.361
17398W        W89823  35.249  10.214  14.864
17399W        W89824  43.390  17.457  14.941
17400W        W89825  36.499  14.830  12.373
17401W        W89826  32.976  21.700   1.070
17402W        W89827  30.986  16.488  11.163
17403W        W89828  13.562  37.157   2.365
17404W        W89829  30.206  19.617  11.885
17405W        W89830  18.425  23.520   0.260
17406W        W89831  27.025  33.491  11.966
17407W        W89832  21.376   1.312   4.643
17408W        W89833  30.946  30.411   0.516
17409W        W89834   2.155   6.122  13.977
17410W        W89835  32.925   4.242   1.290
17411W        W89836  43.873  31.752   5.501
17412W        W89837  20.078  32.462   0.051
17413W        W89838  16.191  38.761   0.348
17414W        W89839  16.522  16.686   1.327
17415W        W89840  33.649  20.112   1.642
17416W        W89841  13.163  20.928   3.431
17417W        W89842  44.840  25.764  10.898
17418W        W89843  42.430  32.895  10.328
17419W        W89844  44.474  42.449   3.665
17420W        W89845  31.123  36.386  14.462
17421W        W89846  36.315   0.483   4.599
17422W        W89847  16.137  18.214   2.728
17423W        W89848  23.258  22.913   1.568
17424W        W89849  22.860  12.279   2.779
17425W        W89850  39.255  29.492  13.598
17426W        W89851  11.442  22.581   4.029
17427W        W89852  20.096  23.135   3.414
17428W        W89853  21.725  21.148  13.082
17429W        W89854  26.192  22.633   1.677
17430W        W89855  29.548  33.022  12.948
17431W        W89856  25.731   2.902   0.346
17432W        W89857  43.454   2.914   4.050
17433W        W89858  26.109  35.368   2.701
17434W        W89859  13.182  25.179   4.614
17435W        W89860  34.710   7.350   2.654
17436W        W89861   8.121  39.288  14.777
17437W        W89862  34.475  39.215  14.114
17438W        W89863  32.340  26.075   2.971
17439W        W89864  25.244  14.690  12.003
17440W        W89865  42.649   5.728  11.968
17441W        W89866  26.932  23.651  10.723
17442W        W89867   7.635   9.354  12.993
17443W        W89868  41.999  38.880  11.629
17444W        W89869   3.394  33.864   2.504
17445W        W89870  13.144  41.457   1.694
17446W        W89871   0.363  11.028  14.844
17447W        W89872  18.136  14.887   2.250
17448W        W89873  29.415  41.435  14.827
17449W        W89874  32.051  13.658   2.717
17450W        W89875  11.658   6.845   3.960
17451W        W89876  26.052   1.970   0.787
17452W        W89877  17.923   8.435   3.633
17453W        W89878  17.180  17.182   1.463
17454W        W89879  36.766  10.787   3.643
17455W        W89880   6.750  10.887   2.822
17456W        W89881   3.082  11.276   3.291
17457W        W89882  23.933   9.894   4.714
17458W        W89883   3.423  12.581  13.115
17459W        W89884  37.511  40.723   0.510
17460W        W89885  21.040  36.907  11.219
17461W        W89886  18.674  44.422  11.377
17462W        W89887  21.184  43.951  13.777
17463W        W89888  21.134   1.754   1.745
17464W        W89889  16.426   2.845   2.197
17465W        W89890   8.107  28.936   3.714
17466W        W89891   8.883  41.275  12.828
17467W        W89892   7.633  14.594  13.344
17468W        W89893  36.161  26.603  11.880
17469W        W89894   0.528  27.957  10.725
17470W        W89895  33.630  22.710   3.654
17471W        W89896   2.182   0.480  12.552
17472W        W89897  25.181  34.633  12.831
17473W        W89898  38.400  28.409   0.205
17474W        W89899  11.661  29.144  13.009
17475W        W89900  13.199  20.334  10.942
17476W        W89901  12.711  42.519   1.421
17477W        W89902   0.889  22.650   3.461
17478W        W89903  29.848  15.407   0.318
17479W        W89904   5.243   0.819   1.715
17480W        W89905  18.057  34.177   3.762
17481W        W89906  16.212  29.938  14.517
17482W        W89907  11.859  39.986  14.273
17483W        W89908  33.879   8.607   1.617
17484W        W89909  27.218  18.737  11.484
17485W        W89910  25.692  23.577   4.083
17486W        W89911  16.242  24.011   2.914
17487W        W89912  32.922  23.114  14.759
17488W        W89913   4.913  34.927  12.504
17489W        W89914  25.426  26.057   1.902
17490W        W89915  37.098   7.241  14.323
17491W        W89916  11.884  33.498  11.166
17492W        W89917   6.954  18.091  12.121
17493W        W89918  38.428  35.024   1.949
17494W        W89919  20.103  32.581  10.695
17495W        W89920  44.415  37.488   1.900
17496W        W89921  14.767  23.520   9.492
17497W        W89922  16.203  39.992   2.008
17498W        W89923  38.485  38.329  11.123
17499W        W89924  27.346   4.741  12.387
17500W        W89925  16.564  21.473   4.614
17501W        W89926  26.334  27.230   4.024
17502W        W89927  38.522  33.235  14.864
17503W        W89928  19.172   6.002  11.656
17504W        W89929  31.584  17.014   0.991
17505W        W89930   9.565  10.165   4.246
17506W        W89931   2.978  22.541  12.061
17507W        W89932  21.497  42.577  12.445
17508W        W89933  42.596  38.540   4.184
17509W        W89934  37.470  40.349  10.725
17510W        W89935  21.275  36.440   4.167
17511W        W89936  36.137  16.118  12.885
17512W        W89937  11.799  37.741   3.631
17513W        W89938  22.237   4.346   1.926
17514W        W89939  14.865   1.319  10.522
17515W        W89940   2.809  14.213  14.435
17516W        W89941  31.517   4.918  13.004
17517W        W89942  39.947  27.270   0.303
17518W        W89943  15.209  10.779  10.700
17519W        W89944  28.022  32.819   3.292
17520W        W89945  34.486   8.828  11.517
17521W        W89946  39.842  21.031   2.399
17522W        W89947  14.583  12.351  12.973
17523W        W89948  29.353   2.825  13.752
17524W        W89949  39.477  43.440  14.555
17525W        W89950  32.516  35.701  14.105
17526W        W89951  13.676   5.145  13.494
17527W        W89952   2.438  33.008  14.510
17528W        W89953  20.986  30.074   0.986
17529W        W89954  35.440  30.953   0.558
17530W        W89955  32.955  44.460   1.340
17531W        W89956  26.292  24.473  13.935
17532W        W89957  40.938  29.878   3.649
17533W        W89958  24.410  21.160   2.697
17534W        W89959   4.681   5.702  14.390
17535W        W89960   6.762   5.196   3.198
17536W        W89961  39.271   0.741  11.376
17537W        W89962  29.199  27.004   2.732
17538W        W89963  15.334  29.634  13.755
17539W        W89964  41.366   0.452   3.819
17540W        W89965   3.022  29.937   2.664
17541W        W89966   8.315  12.159  12.428
17542W        W89967  41.732  33.639   2.651
17543W        W89968  13.097  27.399   1.622
17544W        W89969  41.848  10.209  12.463
17545W        W89970  43.253  23.293  14.478
17546W        W89971  26.855  11.143  13.884
17547W        W89972  34.557  28.056   2.097
17548W        W89973  42.815  14.270  12.159
17549W        W89974  11.428  12.600   1.482
17550W        W89975   0.409  35.191  14.543
17551W        W89976  42.850  17.318  14.946
17552W        W89977  10.779  20.498   0.771
17553W        W89978  15.598  32.657  10.525
17554W        W89979  26.541  29.212  10.165
17555W        W89980  25.007  44.340  13.610
17556W        W89981  42.856  17.689  14.493
17557W        W89982   4.409  34.459  11.151
17558W        W89983  19.769  39.797  10.487
17559W        W89984   0.492   8.404   3.275
17560W        W89985  34.517  40.779   1.780
17561W        W89986  26.478   3.764  11.132
17562W        W89987  22.760  19.091   1.692
17563W        W89988  39.747  33.308   4.522
17564W        W89989  43.844  25.395   2.645
17565W        W89990  27.883  10.627  13.370
17566W        W89991  28.010  40.784  12.991
17567W        W89992  11.211  31.398  12.963
17568W        W89993  27.711  35.027  12.047
17569W        W89994  14.887  31.017   2.725
17570W        W89995  10.339  13.945   1.382
17571W        W89996  21.547  15.169  12.862
17572W        W89997  32.649  31.671   2.366
17573W        W89998   5.278   2.773   3.997
17574W        W89999  42.789   3.742   4.256
17575W        W90000   2.269  21.682   4.179
17576W        W90001   9.577  20.292   0.539
17577W        W90002  43.213  31.172  13.661
17578W        W90003   4.344  21.398   0.411
17579W        W90004  30.680   7.196  10.762
17580W        W90005  33.321  22.441   3.291
17581W        W90006  12.493  41.349   0.807
17582W        W90007   0.272  39.526   0.475
17583W        W90008  18.796  44.490   1.433
17584W        W90009  40.870  39.406   0.033
17585W        W90010  10.818   6.032  12.552
17586W        W90011   4.980  30.885  12.458
17587W        W90012  10.683  19.115   4.762
17588W        W90013  30.047  21.186   5.132
17589W        W90014  20.477  40.874   3.959
17590W        W90015  22.525   2.083  11.093
17591W        W90016  19.072   0.964   4.739
17592W        W90017  20.112  11.114  14.188
17593W        W90018  35.094  35.099  14.852
17594W        W90019  24.349  10.297   4.991
17595W        W90020  40.320   9.868  10.709
17596W        W90021  28.480  26.723   2.381
17597W        W90022  14.346  23.125  14.520
17598W        W90023  10.732   4.281   2.370
17599W        W90024  14.218  29.105  12.861
17600W        W90025  32.047  11.799  11.389
17601W        W90026  43.246  12.254   2.859
17602W        W90027  25.703  41.498   2.814
17603W        W90028  22.981   1.329   0.413
17604W        W90029  33.080   9.280   3.694
17605W        W90030  26.706  15.658   2.532
17606W        W90031  34.149   7.949  13.361
17607W        W90032  14.279  14.130   0.457
17608W        W90033  38.399  24.696  13.107
17609W        W90034   8.208  39.613  11.448
17610W        W90035   3.716  28.659  12.005
17611W        W90036  43.773  10.329   3.084
17612W        W90037   9.602  41.331   1.826
17613W        W90038  37.938   4.113  14.894
17614W        W90039  10.943  27.179   4.150
17615W        W90040   4.328  36.297  11.615
17616W        W90041  36.043   1.250  13.471
17617W        W90042   8.254  11.869   2.794
17618W        W90043  36.987   5.173   1.299
17619W        W90044  15.871  23.238   3.407
17620W        W90045  38.247  24.499   2.793
17621W        W90046   5.873   0.348   3.618
17622W        W90047   6.494  20.878   4.534
17623W        W90048  27.771  31.554   4.851
17624W        W90049   1.834  15.257   2.052
17625W        W90050  12.873  26.898   4.178
17626W        W90051  31.142   1.436   2.247
17627W        W90052  42.447  43.801  11.151
17628W        W90053  12.987   5.878  14.994
17629W        W90054  21.003  12.155   1.322
17630W        W90055  35.722  22.600  14.793
17631W        W90056  18.794   6.459  14.943
17632W        W90057  15.535   3.347  10.206
17633W        W90058  27.712  10.209   3.353
17634W        W90059   1.259  21.312   3.576
17635W        W90060   4.909  28.864  14.254
17636W        W90061   7.472  44.160   0.339
17637W        W90062  14.295  17.537   0.260
17638W        W90063  28.647  25.728  11.001
17639W        W90064  36.317  27.648  12.846
17640W        W90065  25.420  38.447  13.164
17641W        W90066  35.038  42.879   1.325
17642W        W90067   3.139   0.535   4.350
17643W        W90068  19.688  37.461  14.435
17644W        W90069  15.605  16.824   2.787
17645W        W90070  21.556  30.306   1.643
17646W        W90071  15.156   7.695   3.684
17647W        W90072   2.982  17.681   1.243
17648W        W90073  32.422  39.969   1.393
17649W        W90074   9.697   5.208   0.069
17650W        W90075  25.502  14.717  13.453
17651W        W90076  12.304  42.263   1.615
17652W        W90077  27.361  21.576  11.577
17653W        W90078   7.686  33.972   4.885
17654W        W90079   4.381  18.407  14.887
17655W        W90080  11.278  30.181   1.852
17656W        W90081  27.009  16.601   3.961
17657W        W90082  44.419  13.618   1.885
17658W        W90083  31.064  11.510  11.643
17659W        W90084  41.907  22.979  10.500
17660W        W90085   4.612  31.889  13.467
17661W        W90086  28.998  26.563   3.286
17662W        W90087   2.911  31.641   1.755
17663W        W90088   8.246  21.683  13.873
17664W        W90089  18.640  35.984   1.415
17665W        W90090  42.821  43.542   4.713
17666W        W90091  42.020  38.955   2.829
17667W        W90092   1.292   2.878  13.868
17668W        W90093  30.041   6.553   1.858
17669W        W90094  15.214  15.071   1.747
17670W        W90095  15.818  22.140  12.930
17671W        W90096  29.484  24.468  11.897
17672W        W90097   5.733   8.782   1.018
17673W        W90098  12.807   0.941  14.541
17674W        W90099  28.250  35.639   3.301
17675W        W90100  33.152  11.146   4.234
17676W        W90101  35.241   9.653   3.792
17677W        W90102  18.779  13.814   2.860
17678W        W90103   6.359  25.704  12.305
17679W        W90104  32.571  25.551  12.340
17680W        W90105  15.483  42.126   4.013
17681W        W90106  22.191  16.096   1.983
17682W        W90107  35.847  39.730  13.162
17683W        W90108  15.030  16.237  14.822
17684W        W90109  27.424  22.477  10.162
17685W        W90110   8.209  31.578   2.601
17686W        W90111   6.642  37.013   1.658
17687W        W90112  19.687   5.687  10.628
17688W        W90113  12.573  32.868   2.338
17689W        W90114  41.219  18.621   0.398
17690W        W90115  19.634  13.936   4.220
17691W        W90116  33.461  20.489  12.116
17692W        W90117  42.310  37.092   3.142
17693W        W90118  29.968  31.360   1.841
17694W        W90119  26.744   6.838  13.021
17695W        W90120   3.248  30.906  13.583
17696W        W90121   1.169  27.582   0.468
17697W        W90122  38.141  41.528   0.666
17698W        W90123  39.927  40.717   2.208
17699W        W90124  32.096   8.170  11.248
17700W        W90125  34.347   9.000   2.301
17701W        W90126  37.724  30.364   0.350
17702W        W90127  21.519  11.688   1.677
17703W        W90128  18.701  34.259  12.319
17704W        W90129   7.886  25.412  13.503
17705W        W90130  39.180  42.345  14.552
17706W        W90131  28.888  28.923  13.309
17707W        W90132  13.153  15.714  12.515
17708W        W90133   3.275  44.626  13.384
17709W        W90134  35.226  24.544   2.451
17710W        W90135  27.355  43.394  11.705
17711W        W90136   0.008  33.911  10.572
17712W        W90137  12.634  14.135  14.806
17713W        W90138  15.737  33.526   4.912
17714W        W90139   9.289  34.605  11.459
17715W        W90140  29.212  34.004   0.497
17716W        W90141  14.606   2.332   0.777
17717W        W90142  10.498  25.514   4.184
17718W        W90143  20.376  41.827   0.949
17719W        W90144  26.033  16.707   2.356
17720W        W90145   0.416  16.074   4.651
17721W        W90146  29.722  36.406   2.281
17722W        W90147  21.774  33.025   1.438
17723W        W90148  31.151  27.091   1.916
17724W        W90149  11.070  29.681   4.565
17725W        W90150  44.239  10.801  11.497
17726W        W90151  28.506   6.533  12.462
17727W        W90152   3.490  43.442  11.465
17728W        W90153  27.545  29.728   0.316
17729W        W90154   5.344  23.603  11.719
17730W        W90155  26.777  20.986   1.290
17731W        W90156  24.779  23.083  11.555
17732W        W90157   8.175  15.814   1.491
17733W        W90158  16.510  20.632  11.279
17734W        W90159  25.458  44.466  14.889
17735W        W90160   5.883  16.116   2.342
17736W        W90161  22.544   4.300  13.838
17737W        W90162  26.144  20.661   2.891
17738W        W90163   5.708  23.756  12.599
17739W        W90164  17.891  39.594   2.710
17740W        W90165  11.664  18.760   2.824
17741W        W90166  43.940   6.846   4.575
17742W        W90167  11.777  23.136  11.903
17743W        W90168  35.891  17.657  10.677
17744W        W90169   9.692  21.081  11.098
17745W        W90170  34.458  22.762   1.663
17746W        W90171  20.347   3.518   4.550
17747W        W90172  30.899  28.707  14.882
17748W        W90173  26.215  24.127  13.389
17749W        W90174  11.783  30.399  12.564
17750W        W90175  35.479  36.939   1.356
17751W        W90176  22.364  30.625   4.122
17752W        W90177  34.943  11.371   1.350
17753W        W90178  16.430  42.582  11.889
17754W        W90179  39.774  13.225   0.453
17755W        W90180  31.951  43.463   4.128
17756W        W90181  41.955   8.248   4.360
17757W        W90182  42.972  22.081   1.981
17758W        W90183  21.903  27.304  12.514
17759W        W90184  24.985  27.974  12.122
17760W        W90185  25.974  21.172  10.887
17761W        W90186  38.485  18.270  11.130
17762W        W90187  28.533  13.314  11.455
17763W        W90188  27.498  16.535   0.325
17764W        W90189   4.619  21.590  12.998
17765W        W90190  42.559  20.725   3.160
17766W        W90191  41.416  42.488  11.253
17767W        W90192   5.288  29.570  12.535
17768W        W90193  41.369  33.365  11.435
17769W        W90194   3.314  11.695   4.616
17770W        W90195  35.364   4.960  14.985
17771W        W90196  42.497  35.557   2.182
17772W        W90197   4.938   3.712   3.590
17773W        W90198  26.143  18.248   2.655
17774W        W90199  22.062   0.420  11.058
17775W        W90200  28.442   0.754  13.175
17776W        W90201  27.258  13.607   0.821
17777W        W90202  16.171  19.055   1.737
17778W        W90203  32.684  27.997  14.491
17779W        W90204  39.783   5.994   0.798
17780W        W90205   8.904  38.031   0.814
17781W        W90206  36.334   0.956   2.838
17782W        W90207  43.462  29.666  14.898
17783W        W90208   2.145  30.959   4.474
17784W        W90209  11.547  33.575  10.765
17785W        W90210  21.202  39.986  14.422
17786W        W90211  28.655  22.312  12.925
17787W        W90212   7.783  28.199   2.727
17788W        W90213  20.932  10.419  13.521
17789W        W90214  40.491  31.180   2.543
17790W        W90215  44.007  30.927   4.241
17791W        W90216  31.446  16.222   4.239
17792W        W90217  15.845  38.506  10.985
17793W        W90218  25.097  11.121  12.462
17794W        W90219  41.633  30.525   1.451
17795W        W90220  40.904  13.889  10.720
17796W        W90221  15.225  35.602   1.113
17797W        W90222  22.660  18.756  12.106
17798W        W90223   8.667   1.740  13.055
17799W        W90224   9.417  14.777   4.876
17800W        W90225  12.009  15.293  10.752
17801W        W90226  17.839  27.573   2.151
17802W        W90227   9.046  16.857   2.658
17803W        W90228  21.704  44.580   1.676
17804W        W90229  41.970  22.011  10.726
17805W        W90230  44.988  15.641   3.645
17806W        W90231  44.915  37.606  12.967
17807W        W90232   8.895  23.473  11.297
17808W        W90233  14.127  15.808  12.346
17809W        W90234   1.823   9.166   0.525
17810W        W90235   9.710   2.960  10.560
17811W        W90236  43.844  21.724   4.893
17812W        W90237   4.028  12.961   1.653
17813W        W90238  21.166  12.115  11.646
17814W        W90239  15.356   2.287  10.669
17815W        W90240  24.541  39.035   0.705
17816W        W90241   5.651  15.653   2.369
17817W        W90242   6.403  34.645   4.458
17818W        W90243  15.627  21.662   0.457
17819W        W90244   1.931  39.893  14.875
17820W        W90245  30.256  17.240  13.091
17821W        W90246   3.146  38.298   3.918
17822W        W90247  41.401  32.114  10.734
17823W        W90248  11.894   6.088   2.702
17824W        W90249   5.240  22.508   4.633
17825W        W90250  29.490  37.530  14.570
17826W        W90251  19.220  15.598  12.861
17827W        W90252  23.477  30.788   1.953
17828W        W90253  30.453  22.144  13.590
17829W        W90254  44.523  17.307  13.565
17830W        W90255  27.357  40.482   2.045
17831W        W90256   9.702   4.938  12.037
17832W        W90257  15.909  14.673  11.921
17833W        W90258  39.451   7.810   2.291
17834W        W90259  40.713  14.745   1.666
17835W        W90260  34.507   2.267  14.804
17836W        W90261  20.679  36.776  14.765
17837W        W90262  22.386  38.481   0.095
17838W        W90263  34.888   6.932  12.907
17839W        W90264  22.733  33.477  10.644
17840W        W90265  32.393   3.355   1.364
17841W        W90266  39.790  37.290   0.049
17842W        W90267   7.264  18.215   0.064
17843W        W90268  31.442  31.011  12.543
17844W        W90269  15.632  24.761   2.442
17845W        W90270  44.790  29.723  10.658
17846W        W90271  35.658  19.193  14.937
17847W        W90272   3.593  40.611  12.811
17848W        W90273   7.382  26.500   1.338
17849W        W90274  41.763   5.147  12.932
17850W        W90275  37.662  13.547  13.966
17851W        W90276  21.743  39.972  14.498
17852W        W90277  14.165  36.186   1.956
17853W        W90278  11.145  13.795  10.432
17854W        W90279  31.928  11.709   2.416
17855W        W90280  15.152   4.018  12.696
17856W        W90281  44.663  22.550  12.885
17857W        W90282  39.939  42.761   4.260
17858W        W90283  38.533   2.186  14.468
17859W        W90284  10.538  27.411  12.382
17860W        W90285   0.947  31.665  13.687
17861W        W90286  33.492  37.897   2.323
17862W        W90287   3.347  12.822   2.197
17863W        W90288  20.324  25.159  11.537
17864W        W90289  29.725  38.948  14.778
17865W        W90290   1.197  18.309   2.198
17866W        W90291  27.004  22.872  13.759
17867W        W90292  38.920   4.170  10.675
17868W        W90293   4.246  18.175   4.768
17869W        W90294  17.650  25.664   0.668
17870W        W90295  24.712  38.399   2.754
17871W        W90296  35.589  25.065  10.777
17872W        W90297   4.890  25.779  12.185
17873W        W90298  24.430  14.762  11.651
17874W        W90299  36.875  28.891  14.393
17875W        W90300   8.953  16.132  10.678
17876W        W90301  34.819  19.650   4.733
17877W        W90302  44.660   2.315   3.743
17878W        W90303  44.364  24.170  10.471
17879W        W90304  35.164  29.932   3.275
17880W        W90305  33.021   5.777  12.359
17881W        W90306   4.203  13.866   2.284
17882W        W90307  32.323  18.082   4.140
17883W        W90308  33.558  36.070   3.609
17884W        W90309  43.408  17.543  13.108
17885W        W90310  13.652  19.676  10.733
17886W        W90311  28.929  33.588   4.441
17887W        W90312  10.964  26.411   2.919
17888W        W90313  31.134  33.998  11.159
17889W        W90314  15.963  28.149   3.394
17890W        W90315   4.610   7.674  13.507
17891W        W90316  34.539   4.665  10.506
17892W        W90317  35.517  23.119  13.492
17893W        W90318  21.171  37.818   4.934
17894W        W90319  40.929  13.600  12.992
17895W        W90320  40.787   5.691   3.181
17896W        W90321  20.114  10.083   2.202
17897W        W90322  37.541  31.419   1.451
17898W        W90323  30.633  42.893   0.846
17899W        W90324   3.397  37.645   1.967
17900W        W90325  28.499  22.005   3.267
17901W        W90326   5.183  44.800  13.577
17902W        W90327  19.551   4.830   2.671
17903W        W90328   4.040  10.710  11.121
17904W        W90329  31.389  41.925   1.364
17905W        W90330  12.858  38.990   3.214
17906W        W90331  17.072  11.850   3.669
17907W        W90332  15.759   0.753  14.383
17908W        W90333  22.611  35.577   1.703
17909W        W90334   7.215  25.593   2.194
17910W        W90335  21.022  29.864  10.806
17911W        W90336  33.936  37.797  11.458
17912W        W90337  38.895  11.152  14.849
17913W        W90338  17.985   5.599  14.050
17914W        W90339  18.493  11.869  13.585
17915W        W90340  42.240  32.913   0.691
17916W        W90341  18.983   6.767   3.623
17917W        W90342  26.315  21.965  12.057
17918W        W90343   1.730  16.823  12.872
17919W        W90344  18.781  44.043  12.988
17920W        W90345  29.552  12.856  11.616
17921W        W90346  44.489  10.516  11.844
17922W        W90347  13.611  44.964   0.731
17923W        W90348   2.479  37.866   1.328
17924W        W90349  31.258  24.173  12.546
17925W        W90350  23.652  38.202  13.340
17926W        W90351  28.746  28.212  14.684
17927W        W90352  44.974  15.135  13.395
17928W        W90353   8.654  14.207   1.584
17929W        W90354   2.441  37.168   3.090
17930W        W90355   1.244  21.116   2.812
17931W        W90356   0.908   8.387  11.373
17932W        W90357   4.465  25.660  13.953
17933W        W90358  14.688  40.305  12.040
17934W        W90359  17.728  28.054   4.711
17935W        W90360  42.261  40.469  11.978
17936W        W90361  15.359  14.155   2.164
17937W        W90362  17.079   3.479   3.912
17938W        W90363  16.357   4.320  12.607
17939W        W90364  33.191   5.680  14.541
17940W        W90365  42.262   1.710  11.546
17941W        W90366  14.071  18.931  12.931
17942W        W90367  18.961   7.683  10.484
17943W        W90368  18.509  19.058   3.707
17944W        W90369  23.745  39.845  13.526
17945W        W90370   2.514   4.708  10.715
17946W        W90371  38.700   3.718   9.981
17947W        W90372  15.140  13.580  14.532
17948W        W90373   1.824  27.944   0.669
17949W        W90374  14.176   8.935  12.836
17950W        W90375  16.063  34.367  14.347
17951W        W90376  37.933   1.982   2.256
17952W        W90377  44.663  35.511   3.688
17953W        W90378  35.732  38.363  13.402
17954W        W90379  14.525  22.187   4.584
17955W        W90380  43.459   3.847   3.441
17956W        W90381  25.115  27.015  14.093
17957W        W90382  10.439  18.096  14.522
17958W        W90383   9.388  34.905  11.899
17959W        W90384  42.013  42.572  12.678
17960W        W90385   9.818   7.939  13.485
17961W        W90386  10.378  15.216   3.818
17962W        W90387  14.372  37.929  11.946
17963W        W90388  33.572   3.321   0.718
17964W        W90389  41.452  38.340  14.440
17965W        W90390  39.394  13.111   4.596
17966W        W90391  28.981  30.511  10.981
17967W        W90392  25.235  44.684  12.849
17968W        W90393  41.774  15.216   3.672
17969W        W90394  41.456  40.853  13.298
17970W        W90395  34.838  13.075  14.601
17971W        W90396   4.127  38.972  13.812
17972W        W90397  41.327  12.836   3.192
17973W        W90398   5.698  40.369   4.536
17974W        W90399  24.663  16.568   2.390
17975W        W90400   8.960  34.429  13.392
17976W        W90401  37.867  15.114   0.333
17977W        W90402  42.229  27.374  13.094
17978W        W90403  29.468  11.978  10.224
17979W        W90404  44.103   1.338  11.321
17980W        W90405  11.390  39.913   4.161
17981W        W90406   0.589  33.526   5.481
17982W        W90407  19.272  21.650  11.609
17983W        W90408  44.634   3.651   0.943
17984W        W90409   1.894  39.978  11.198
17985W        W90410   9.451  23.145   0.980
17986W        W90411  17.530   1.821  13.661
17987W        W90412  31.094  26.654  10.802
17988W        W90413  26.728  34.744  12.618
17989W        W90414  36.020  34.470  12.944
17990W        W90415  44.889  43.612  10.907
17991W        W90416  27.150  21.725   1.984
17992W        W90417  31.007  10.319   4.937
17993W        W90418  16.218  29.485   4.349
17994W        W90419   0.967   4.885   2.936
17995W        W90420  27.456   1.712  12.044
17996W        W90421  44.673   1.824   5.139
17997W        W90422   0.774  12.584  13.110
17998W        W90423   3.919   2.962   4.358
17999W        W90424  33.610  23.178  13.117
18000W        W90425  27.835  23.124  12.460
18001W        W90426   9.706  42.740   0.325
18002W        W90427  14.179  20.901  11.944
18003W        W90428  41.985  40.916   1.303
18004W        W90429   2.511  13.088   4.514
18005W        W90430   5.840  41.823   0.947
18006W        W90431  30.864  43.546   2.809
18007W        W90432  43.382  25.397   5.196
18008W        W90433  42.464  10.104  13.854
18009W        W90434  22.589   5.206   2.661
18010W        W90435  17.184  12.704   4.295
18011W        W90436  44.064  44.065   3.349
18012W        W90437   4.969  26.274  12.446
18013W        W90438  21.808  43.509  12.481
18014W        W90439  13.185  27.195   0.740
18015W        W90440   2.482  24.798  11.881
18016W        W90441  41.536  13.184   0.819
18017W        W90442  10.671   7.413   0.871
18018W        W90443   5.431  33.963   1.906
18019W        W90444  39.800  37.346   4.176
18020W        W90445  34.530  37.937  10.763
18021W        W90446   7.299  11.896   1.128
18022W        W90447   8.379  37.018  13.204
18023W        W90448  11.132  11.891   0.447
18024W        W90449  11.642  20.605   1.312
18025W        W90450  36.611   9.381  13.539
18026W        W90451  15.533  33.796   1.616
18027W        W90452  20.470  31.495   2.335
18028W        W90453   7.723  30.927   2.171
18029W        W90454  10.655  26.551   0.732
18030W        W90455  35.719   7.708  14.446
18031W        W90456  20.217   6.185  10.813
18032W        W90457  36.779  21.487   3.762
18033W        W90458   7.656   7.427   1.411
18034W        W90459  23.014  29.769   1.821
18035W        W90460  15.740  21.507   1.422
18036W        W90461  27.021  19.734  10.642
18037W        W90462  34.155   7.298   3.054
18038W        W90463  29.687  31.014  13.373
18039W        W90464  15.675  20.742   3.672
18040W        W90465  22.936   5.191  11.529
18041W        W90466   0.917  41.683  10.450
18042W        W90467  36.531   7.891  11.798
18043W        W90468   6.944  34.343  14.879
18044W        W90469  43.667  33.217   3.232
18045W        W90470   7.226  34.510   0.397
18046W        W90471   9.384  31.485  10.857
18047W        W90472   5.048   3.363  12.482
18048W        W90473  18.667  24.949  12.404
18049W        W90474  43.797  31.164   4.671
18050W        W90475  29.122  29.520  13.942
18051W        W90476  34.081  21.262   1.395
18052W        W90477   5.251  40.454   4.285
18053W        W90478  10.748   1.333  11.120
18054W        W90479   6.367   0.915   4.194
18055W        W90480   5.143  27.192  13.981
18056W        W90481  11.143  10.738   2.191
18057W        W90482  14.337  21.266   4.556
18058W        W90483  13.753  22.153   3.805
18059W        W90484  38.939  35.742   4.615
18060W        W90485  40.027   9.715   4.523
18061W        W90486   8.791  22.798   0.468
18062W        W90487   3.552   5.925  11.943
18063W        W90488  39.319   1.154   4.239
18064W        W90489  11.694  13.019  14.282
18065W        W90490  29.395  21.725   0.922
18066W        W90491  10.314  21.611   1.318
18067W        W90492  16.784  40.203   2.031
18068W        W90493  27.469  29.803  10.619
18069W        W90494  34.887  21.767   2.395
18070W        W90495  36.189  23.021  14.273
18071W        W90496  10.367  18.121  11.496
18072W        W90497  20.218  34.140   4.175
18073W        W90498  37.831  41.963  12.932
18074W        W90499  40.611  44.897   2.812
18075W        W90500  27.269  26.077   2.823
18076W        W90501   8.230  43.503   2.329
18077W        W90502  22.100   5.215   1.400
18078W        W90503  44.101  12.091  10.169
18079W        W90504  14.121   6.463   3.431
18080W        W90505   3.943  12.201  13.915
18081W        W90506   1.022  27.192   0.842
18082W        W90507  25.907  40.406  13.564
18083W        W90508   2.398  44.837   2.354
18084W        W90509  36.042  26.952  11.511
18085W        W90510   2.242  19.204   1.336
18086W        W90511  13.586  20.296   2.827
18087W        W90512  26.955  26.627  10.873
18088W        W90513  32.636   6.480   3.400
18089W        W90514  13.132  42.442   2.889
18090W        W90515  33.864  17.557  10.696
18091W        W90516   6.328   7.748   3.308
18092W        W90517   5.052  11.439  13.864
18093W        W90518  35.857  32.251  14.560
18094W        W90519  26.145  18.658   1.793
18095W        W90520  15.056   9.368   4.423
18096W        W90521  44.231   6.686   3.195
18097W        W90522  24.982  20.204   0.504
18098W        W90523   0.298   9.161  11.052
18099W        W90524  44.010  20.775   4.410
18100W        W90525  11.706  21.927   1.714
18101W        W90526  34.055   2.381  10.515
18102W        W90527  17.679  28.641  12.882
18103W        W90528  40.262  23.189   1.763
18104W        W90529  25.763   6.237   0.043
18105W        W90530   0.628   3.683  13.995
18106W        W90531  36.435  16.158   1.049
18107W        W90532   3.980   0.158  14.814
18108W        W90533  20.890  29.176  14.512
18109W        W90534  38.626  29.892  13.248
18110W        W90535  12.776  37.010   0.415
18111W        W90536   4.639  31.117  13.914
18112W        W90537  27.477  31.235   0.397
18113W        W90538  37.630  31.234   4.141
18114W        W90539  29.147  40.438  13.268
18115W        W90540  33.059  32.101  12.907
18116W        W90541  37.985  36.776   3.342
18117W        W90542  12.373  31.054  14.257
18118W        W90543  25.818  43.477  14.415
18119W        W90544  21.953  22.436  11.446
18120W        W90545  23.070  21.249   4.549
18121W        W90546  44.437  44.862   3.614
18122W        W90547  37.400  26.570  12.868
18123W        W90548  12.843  42.800   2.664
18124W        W90549  44.574   0.396  12.797
18125W        W90550  18.712  40.460   0.382
18126W        W90551   1.290  29.164   1.207
18127W        W90552  11.020   9.754  11.192
18128W        W90553  19.678  42.259   1.137
18129W        W90554  22.967  25.107   0.379
18130W        W90555  32.958  11.567   3.991
18131W        W90556   3.739  42.054  10.756
18132W        W90557   7.627   9.664  13.433
18133W        W90558   0.932  26.525  12.619
18134W        W90559   1.445  18.705   1.359
18135W        W90560   3.442   8.736  13.939
18136W        W90561  23.118  21.616  12.652
18137W        W90562  44.242  24.564   4.926
18138W        W90563  24.731  11.477  14.315
18139W        W90564  28.552  41.452  10.892
18140W        W90565  22.128  44.691   0.214
18141W        W90566  40.797  12.072  11.990
18142W        W90567  12.813  18.571  13.649
18143W        W90568  21.804  20.373  11.104
18144W        W90569   7.697  27.636   1.015
18145W        W90570   6.405   0.205   0.389
18146W        W90571  36.765  14.178  12.517
18147W        W90572  19.544  33.169   0.289
18148W        W90573  24.057   5.675  14.439
18149W        W90574  38.633  40.950  11.528
18150W        W90575   8.158  34.683   1.575
18151W        W90576  18.701   5.004  13.868
18152W        W90577   2.099  12.071  12.926
18153W        W90578   2.767  34.465   4.123
18154W        W90579  30.755  41.853  14.568
18155W        W90580   6.869  28.626  13.824
18156W        W90581  36.605   9.230  11.166
18157W        W90582   4.440  11.103   0.943
18158W        W90583   6.280  25.790  14.269
18159W        W90584  11.276  10.897   0.380
18160W        W90585   9.222  44.059  11.075
18161W        W90586  36.568  38.364   4.513
18162W        W90587  12.739   6.103  12.445
18163W        W90588  32.919  11.421  13.517
18164W        W90589   8.741  30.573  11.996
18165W        W90590   2.706  27.035  14.086
18166W        W90591  31.654   7.860  14.736
18167W        W90592  28.942  31.843  10.729
18168W        W90593  10.091  19.792  12.924
18169W        W90594  26.522  16.458   0.616
18170W        W90595  12.166  30.684  11.638
18171W        W90596  22.002   6.154  10.465
18172W        W90597  18.471  43.408   2.372
18173W        W90598  35.342  20.814   0.398
18174W        W90599   9.683  13.202   2.793
18175W        W90600   2.319   4.814  10.233
18176W        W90601  28.661  36.265  11.536
18177W        W90602   2.716   8.920   2.272
18178W        W90603   3.386  15.679  10.989
18179W        W90604  21.166   1.769   3.030
18180W        W90605  34.056  16.580   0.159
18181W        W90606   2.820   0.021   2.613
18182W        W90607  27.688  28.941  10.795
18183W        W90608  17.810  16.795   2.389
18184W        W90609  20.032  44.917  12.587
18185W        W90610  23.241  38.538  14.287
18186W        W90611  10.365  40.567   3.283
18187W        W90612  38.873  13.918   2.584
18188W        W90613  42.363  23.346   0.825
18189W        W90614  31.674  34.642   1.273
18190W        W90615  32.694   3.674  10.975
18191W        W90616  34.137  21.730  12.325
18192W        W90617  38.977  31.228   4.191
18193W        W90618  34.989  35.216   1.830
18194W        W90619   8.215   8.811  12.156
18195W        W90620  44.754  29.967  13.883
18196W        W90621  37.538  36.626  12.468
18197W        W90622  13.157  39.496   0.665
18198W        W90623  37.946  37.793  12.413
18199W        W90624   5.898  33.519  13.916
18200W        W90625   7.861  19.333   4.361
18201W        W90626  37.821  14.143  12.436
18202W        W90627   3.876  32.403  12.451
18203W        W90628   9.804   1.375  10.732
18204W        W90629  43.670  39.482   2.159
18205W        W90630  34.628  31.531  14.458
18206W        W90631   5.543   8.252   2.300
18207W        W90632  26.199  44.049  12.309
18208W        W90633  33.839  11.015  13.423
18209W        W90634  26.189  25.508  12.501
18210W        W90635  23.003  38.009   3.655
18211W        W90636  40.031  32.438  10.626
18212W        W90637  19.132   1.417  12.503
18213W        W90638  30.501  20.352   0.224
18214W        W90639  41.793  27.148  11.351
18215W        W90640  21.332   3.983   1.824
18216W        W90641  24.128  33.072  10.752
18217W        W90642  28.301  42.102  12.622
18218W        W90643  20.323  26.160   2.283
18219W        W90644  21.730  17.274   2.714
18220W        W90645   9.968  32.943   3.336
18221W        W90646  26.437  10.555   2.985
18222W        W90647  14.177   8.649  12.403
18223W        W90648  37.961   2.421   3.769
18224W        W90649  18.894  38.913   1.797
18225W        W90650   7.483  28.704  13.474
18226W        W90651  34.458  25.670   0.957
18227W        W90652  19.381  11.115   1.678
18228W        W90653  14.621  31.166  13.025
18229W        W90654  39.765   9.546   3.658
18230W        W90655  29.631  21.278   0.960
18231W        W90656   9.721  22.646  10.948
18232W        W90657   1.497  21.009   3.243
18233W        W90658  31.489  20.279  14.294
18234W        W90659  42.982  35.401  11.703
18235W        W90660  16.579  32.736  11.660
18236W        W90661  27.932  41.265   3.770
18237W        W90662  29.602  24.175   5.071
18238W        W90663  39.102  27.079  11.021
18239W        W90664   8.189  22.066  12.404
18240W        W90665  41.692  16.918   0.933
18241W        W90666  28.484  24.694   1.674
18242W        W90667  33.904  11.918  11.047
18243W        W90668  40.373  27.773   0.918
18244W        W90669  17.527  27.449  10.924
18245W        W90670  25.056  31.691   4.165
18246W        W90671   3.768   3.165   3.381
18247W        W90672  15.045  41.711   0.856
18248W        W90673  24.004   4.776   0.492
18249W        W90674  39.057  18.557   0.860
18250W        W90675   9.486  24.529   4.243
18251W        W90676  18.824   2.500  12.970
18252W        W90677  21.659   5.619  13.421
18253W        W90678   0.480  15.538  11.906
18254W        W90679   5.935  22.889   1.458
18255W        W90680  32.142  37.728  12.986
18256W        W90681  30.880  19.065  12.082
18257W        W90682  31.958   4.556   3.249
18258W        W90683  12.330  20.122   1.747
18259W        W90684  17.618   9.801   4.010
18260W        W90685  13.805  24.163   2.107
18261W        W90686  30.388  20.084   3.605
18262W        W90687  34.338  20.262   0.694
18263W        W90688  39.487  37.807  12.119
18264W        W90689   1.644  37.482  13.338
18265W        W90690  32.183  24.015   3.256
18266W        W90691  43.943   3.935   1.365
18267W        W90692  38.413  39.035   2.180
18268W        W90693   0.292   6.895   4.336
18269W        W90694  42.283   5.232  14.913
18270W        W90695   4.032  26.405   2.580
18271W        W90696  31.160  31.571   0.154
18272W        W90697  11.358   0.850  14.695
18273W        W90698  40.384   9.638   1.893
18274W        W90699  22.295  22.279   2.248
18275W        W90700   5.803  42.992  14.775
18276W        W90701  26.768  11.766   1.109
18277W        W90702  43.587  13.220   4.063
18278W        W90703  24.547  23.958   1.849
18279W        W90704  43.790  43.087  11.113
18280W        W90705   5.872  21.283   0.520
18281W        W90706  39.767   7.205  13.870
18282W        W90707  25.703   4.711   4.138
18283W        W90708  32.445   5.782  10.681
18284W        W90709  30.167  33.166  10.581
18285W        W90710  44.481  14.020  14.863
18286W        W90711  31.318  26.607   4.746
18287W        W90712  16.097  39.061  11.161
18288W        W90713   5.360   8.635   3.143
18289W        W90714   3.507  42.867   0.347
18290W        W90715  11.367   9.332  13.370
18291W        W90716  17.006   8.929  14.818
18292W        W90717  30.428   2.925  14.791
18293W        W90718  37.916   8.189   0.001
18294W        W90719  13.683  10.747  14.759
18295W        W90720  24.177  21.720   0.504
18296W        W90721  35.001  28.201   4.256
18297W        W90722   2.583   7.057   2.354
18298W        W90723   1.336  39.744   4.142
18299W        W90724   6.482  27.643  12.451
18300W        W90725  25.196  34.495  11.414
18301W        W90726   9.655  27.662   2.370
18302W        W90727  12.232  36.004   3.841
18303W        W90728  34.360  20.518  11.883
18304W        W90729  15.774  11.729   0.828
18305W        W90730  39.077  38.406   4.604
18306W        W90731   4.397  38.753   1.677
18307W        W90732  42.312  14.463  13.473
18308W        W90733  31.049  15.571  11.559
18309W        W90734   0.791  28.836   4.880
18310W        W90735  30.678  23.428   2.709
18311W        W90736  18.583  24.649  13.559
18312W        W90737   2.015  11.485  11.002
18313W        W90738   3.454  37.466   3.785
18314W        W90739  16.062   5.651  14.496
18315W        W90740  24.702   2.556  14.870
18316W        W90741   5.343  29.579  13.561
18317W        W90742  16.284  32.697   0.018
18318W        W90743  33.650  10.745  12.983
18319W        W90744  36.404  37.905  13.571
18320W        W90745  12.789   8.686   4.122
18321W        W90746   6.918  12.552   0.452
18322W        W90747  31.448   1.436  12.203
18323W        W90748  37.038  38.883   2.973
18324W        W90749  18.514   1.928   2.421
18325W        W90750  13.737   3.269   3.183
18326W        W90751  39.214  37.598   1.793
18327W        W90752  11.797  37.148   0.411
18328W        W90753   6.972  22.522  13.058
18329W        W90754  24.287  29.353   0.582
18330W        W90755  20.882  15.131   4.163
18331W        W90756  11.952  42.797   0.904
18332W        W90757  44.207  40.893  14.821
18333W        W90758  10.376  41.523   1.391
18334W        W90759  13.289  20.851  14.086
18335W        W90760  23.996  20.273  11.086
18336W        W90761   5.731  37.915  11.205
18337W        W90762  32.957  25.175   3.239
18338W        W90763   0.507  39.757   2.687
18339W        W90764  32.175  12.285  12.487
18340W        W90765   8.729  30.086  13.369
18341W        W90766  24.975  29.102  12.911
18342W        W90767   1.113  31.436   0.929
18343W        W90768  17.246  37.620   1.953
18344W        W90769  29.022  18.124  14.809
18345W        W90770   9.352  17.517   2.261
18346W        W90771  14.086  20.195   3.081
18347W        W90772  16.343  34.851  13.043
18348W        W90773  29.033  21.763   2.217
18349W        W90774   2.785  39.004  11.198
18350W        W90775   8.904   6.676  12.398
18351W        W90776  12.099  41.670  13.890
18352W        W90777  17.558   1.199   3.677
18353W        W90778  13.773  39.542   2.823
18354W        W90779  16.843  21.637  13.544
18355W        W90780  34.364  44.768  12.027
18356W        W90781  20.937  39.824   3.269
18357W        W90782  24.700  31.432  11.463
18358W        W90783   1.055   7.483  12.790
18359W        W90784  33.139  43.758  11.032
18360W        W90785  26.106   0.820  13.415
18361W        W90786  27.695  15.181   3.347
18362W        W90787  22.644  37.589   1.607
18363W        W90788  33.730   4.418   2.742
18364W        W90789  11.114  25.201   1.784
18365W        W90790  17.426  32.595  10.200
18366W        W90791  12.201   4.272  14.724
18367W        W90792   0.374  22.261  14.536
18368W        W90793  11.761   8.892   3.583
18369W        W90794  15.279  32.914  14.019
18370W        W90795   9.506  31.899   2.684
18371W        W90796  21.897  27.483   0.958
18372W        W90797  43.238  23.817   4.504
18373W        W90798   2.333  11.875   5.079
18374W        W90799   8.748  12.273   3.257
18375W        W90800  29.644  27.617  13.292
18376W        W90801   7.358  12.716   1.708
18377W        W90802  25.785  39.711   3.187
18378W        W90803  15.667  39.802   0.512
18379W        W90804  36.342  43.844  14.301
18380W        W90805   9.047  39.306   1.678
18381W        W90806  11.102  42.460  12.129
18382W        W90807  21.122   1.012   3.693
18383W        W90808  10.565  16.170  11.479
18384W        W90809  43.790   3.228   3.307
18385W        W90810  44.056  42.227  12.478
18386W        W90811  16.071  28.145  13.038
18387W        W90812   4.309  23.462   3.765
18388W        W90813  11.705  39.297  14.125
18389W        W90814  23.004   9.281  12.085
18390W        W90815  15.808  12.222  14.985
18391W        W90816   4.364  17.514   3.590
18392W        W90817  27.014  20.659  13.731
18393W        W90818  43.778  39.712   4.116
18394W        W90819   7.224  14.173   3.400
18395W        W90820  34.460  19.830   0.952
18396W        W90821  35.187   7.144  13.552
18397W        W90822  32.487  43.375  14.243
18398W        W90823   0.570  25.782   4.431
18399W        W90824  36.943  16.827  11.513
18400W        W90825  37.832  39.071  11.152
18401W        W90826  20.431   0.963  14.891
18402W        W90827  16.627  36.073   0.249
18403W        W90828  19.252  44.902  10.405
18404W        W90829  23.555  40.288  14.986
18405W        W90830  40.536  19.334  13.634
18406W        W90831  11.699  43.629  11.046
18407W        W90832  29.143  18.940   4.398
18408W        W90833  13.560  11.708   1.522
18409W        W90834  17.475  15.714   2.182
18410W        W90835   2.288  38.506   4.922
18411W        W90836  21.457   3.761   0.001
18412W        W90837   5.699   1.380   1.966
18413W        W90838  26.680  30.567   1.273
18414W        W90839  12.370  18.710   2.714
18415W        W90840  44.839  25.955  13.958
18416W        W90841  15.700   3.836  13.860
18417W        W90842   8.374  26.853   1.640
18418W        W90843  18.140  33.690  13.969
18419W        W90844  40.260   1.660  13.910
18420W        W90845  33.487  21.743  13.054
18421W        W90846  38.910  43.913   5.320
18422W        W90847  44.802  42.407  11.899
18423W        W90848  34.855  30.329   1.996
18424W        W90849   5.734  28.995   2.148
18425W        W90850  39.838   7.396   1.624
18426W        W90851  21.045   0.172  10.255
18427W        W90852   6.412  33.243  13.042
18428W        W90853  14.992   8.125   1.348
18429W        W90854  38.861  34.773  10.651
18430W        W90855  17.634  41.791  10.712
18431W        W90856  29.165  19.308   1.247
18432W        W90857  33.689  22.309   4.608
18433W        W90858  18.026  40.260  13.107
18434W        W90859  13.012  31.015  13.433
18435W        W90860  29.544   3.366  10.733
18436W        W90861  40.384  10.901   3.309
18437W        W90862  42.256  25.399  13.507
18438W        W90863   7.290  10.702   1.874
18439W        W90864  32.946  10.336   1.289
18440W        W90865  38.034  34.439  13.766
18441W        W90866  17.947  15.767   1.940
18442W        W90867  33.546  40.771  13.106
18443W        W90868  24.910  44.525  14.090
18444W        W90869  11.689   6.788  14.040
18445W        W90870  17.738   7.263  13.045
18446W        W90871  44.820   9.325  14.539
18447W        W90872   6.369  35.382   0.483
18448W        W90873  16.158  41.313   4.097
18449W        W90874  14.381  10.395   3.714
18450W        W90875  18.077  44.029  14.385
18451W        W90876  41.271  11.245  11.002
18452W        W90877  40.990  43.608  12.529
18453W        W90878  37.331   2.668  12.170
18454W        W90879  13.299  20.244   0.295
18455W        W90880  41.641  19.246   3.870
18456W        W90881  30.421  29.781  14.251
18457W        W90882  12.173  11.150  13.803
18458W        W90883  18.227  24.637  11.625
18459W        W90884  19.688   7.793  14.502
18460W        W90885  28.934   2.282  10.768
18461W        W90886   9.412  19.970   3.625
18462W        W90887  24.441   6.460   0.238
18463W        W90888  13.336  15.922  13.372
18464W        W90889   6.803   5.711  12.811
18465W        W90890   0.326  12.103   2.194
18466W        W90891  42.508  36.203   3.123
18467W        W90892   2.858  35.443  13.814
18468W        W90893   0.200  35.160  13.836
18469W        W90894  28.204  19.228   2.420
18470W        W90895  12.768   0.655   1.314
18471W        W90896  22.888   4.249  14.942
18472W        W90897  20.201  22.317   2.192
18473W        W90898  40.449   8.814   2.304
18474W        W90899  30.710  44.295  12.400
18475W        W90900  17.780  16.089  11.192
18476W        W90901  37.902   0.879  10.633
18477W        W90902  38.519  13.109   3.642
18478W        W90903   7.460  33.232  14.316
18479W        W90904  31.046  38.939  12.506
18480W        W90905   2.356  23.478  12.958
18481W        W90906  36.827  18.548  13.633
18482W        W90907   4.657   8.773  11.069
18483W        W90908   2.261  39.037   0.865
18484W        W90909   7.317   7.632  11.116
18485W        W90910   9.838  38.833  14.457
18486W        W90911  12.357  22.298   0.466
18487W        W90912  26.577  41.598   3.679
18488W        W90913  19.504  12.574  13.021
18489W        W90914  38.174  38.406  10.728
18490W        W90915  15.347  15.174  12.182
18491W        W90916  18.439  10.766   3.340
18492W        W90917  26.486  44.858   0.805
18493W        W90918  25.674   2.919   4.600
18494W        W90919  22.520  25.792  14.560
18495W        W90920  20.625  29.578  14.299
18496W        W90921   7.367  31.483  13.053
18497W        W90922  22.651  16.212   1.243
18498W        W90923  37.041  32.058  13.051
18499W        W90924  11.330  38.366   1.155
18500W        W90925  19.998  23.991   0.748
18501W        W90926  31.093  10.113  11.056
18502W        W90927   8.854  14.177   3.783
18503W        W90928  33.826  13.367  10.649
18504W        W90929   4.653  12.096   0.403
18505W        W90930   4.295   6.430  10.920
18506W        W90931  35.870  26.713  14.982
18507W        W90932  15.575  41.927  11.141
18508W        W90933  41.507   1.350   1.289
18509W        W90934  19.933   5.456  14.328
18510W        W90935  10.216  29.675  10.888
18511W        W90936  35.610  15.217   2.321
18512W        W90937   0.212  18.004  11.193
18513W        W90938  24.256  39.084  12.897
18514W        W90939  43.877  32.156   1.757
18515W        W90940  27.614  22.295   2.276
18516W        W90941   5.165  42.009   4.123
18517W        W90942  39.870  20.141  10.703
18518W        W90943  22.204  36.875  14.384
18519W        W90944  40.889   3.385   2.151
18520W        W90945  21.320  37.408  13.380
18521W        W90946  12.137  24.332  12.787
18522W        W90947  31.458  14.191  12.059
18523W        W90948  15.766  30.406  13.365
18524W        W90949  13.084  11.058   0.499
18525W        W90950  31.551  32.780  12.498
18526W        W90951   2.813  15.362  14.015
18527W        W90952  41.584  43.620   0.933
18528W        W90953  41.322   9.979   4.163
18529W        W90954  40.867   9.266  13.892
18530W        W90955  31.009  15.589  13.140
18531W        W90956   8.323  41.718  13.266
18532W        W90957  27.137  19.012  11.926
18533W        W90958  30.053  17.594  10.696
18534W        W90959   0.730  18.672  13.938
18535W        W90960  24.465   8.758   4.146
18536W        W90961  16.685  23.346   1.467
18537W        W90962   2.925  24.410  14.922
18538W        W90963  17.640   5.608   1.757
18539W        W90964  44.524  22.031  14.801
18540W        W90965  25.049   2.234   1.334
18541W        W90966  34.407  36.779   3.327
18542W        W90967   3.377  42.148   5.120
18543W        W90968   3.257  41.970  11.502
18544W        W90969  36.882  29.189   3.597
18545W        W90970  13.350   7.196   2.761
18546W        W90971  12.630  23.838   0.557
18547W        W90972  17.722  32.495   1.731
18548W        W90973  10.351   4.303   0.201
18549W        W90974  37.240  15.486   1.884
18550W        W90975  30.444   3.836  11.813
18551W        W90976  15.834  23.503   1.264
18552W        W90977  25.354   5.859  11.174
18553W        W90978  31.990  44.692   3.311
18554W        W90979  21.331  40.169   3.192
18555W        W90980  43.517  21.652  12.091
18556W        W90981   0.918  20.025   4.517
18557W        W90982  37.033  11.650  11.011
18558W        W90983  33.985  25.215   3.322
18559W        W90984  12.589  10.699  12.624
18560W        W90985  27.574  25.068   1.835
18561W        W90986  11.760  43.594   2.495
18562W        W90987  18.120   3.326  11.275
18563W        W90988   4.375  23.934   3.558
18564W        W90989  11.103  44.975   1.985
18565W        W90990   8.192  36.408  14.235
18566W        W90991   7.821  18.002  13.387
18567W        W90992   2.969   8.549  11.512
18568W        W90993  21.147  35.318   0.389
18569W        W90994  11.924  10.923   3.809
18570W        W90995  28.929  26.929  12.386
18571W        W90996  27.444  20.997   3.705
18572W        W90997  15.047  32.251   5.498
18573W        W90998   6.679  35.380  14.900
18574W        W90999   5.981  42.212  13.091
18575W        W91000  13.658   5.834  13.061
18576W        W91001  18.085  17.206   2.238
18577W        W91002  29.478  28.053  12.950
18578W        W91003   7.391  40.979  10.646
18579W        W91004  33.457  16.861  12.741
18580W        W91005  14.425   2.749  14.536
18581W        W91006  35.169  31.022   1.705
18582W        W91007  35.574   9.930  14.012
18583W        W91008  27.098  20.703  12.287
18584W        W91009  44.655  30.144  10.938
18585W        W91010  26.504  38.807  13.966
18586W        W91011   5.788  13.328  10.715
18587W        W91012   8.797  38.872   1.320
18588W        W91013  28.635  25.709  13.218
18589W        W91014   5.704  35.966  10.613
18590W        W91015  27.693  43.696   1.235
18591W        W91016  31.207  20.524  10.986
18592W        W91017   3.687  37.853   4.550
18593W        W91018   4.851  24.579   4.699
18594W        W91019  26.750  36.641   3.267
18595W        W91020  43.414  33.307   4.242
18596W        W91021  44.221   2.671   4.621
18597W        W91022  35.198  42.765   5.000
18598W        W91023   9.605  13.283  13.026
18599W        W91024  24.556  13.883  11.140
18600W        W91025  33.033  23.978   0.871
18601W        W91026  14.624  33.901   3.118
18602W        W91027  38.814  38.007  11.391
18603W        W91028  18.757  26.668   4.540
18604W        W91029   1.787  30.100  12.473
18605W        W91030  16.131  12.407   4.100
18606W        W91031  21.285   8.768   1.944
18607W        W91032   8.347  41.014  14.444
18608W        W91033  13.134  21.871   5.433
18609W        W91034  25.500  41.473   1.789
18610W        W91035   5.814  39.317   3.219
18611W        W91036  37.104   5.814  14.537
18612W        W91037  27.528  33.606  14.899
18613W        W91038   6.296  39.316   3.689
18614W        W91039   5.348  41.285   2.188
18615W        W91040  30.916   4.238   1.690
18616W        W91041  43.219  19.794  12.875
18617W        W91042  28.048  34.885   5.100
18618W        W91043  24.749  26.947   3.298
18619W        W91044   1.455  42.246   2.229
18620W        W91045  27.221  40.358   4.362
18621W        W91046  37.414   4.239  14.993
18622W        W91047  10.069  11.324  14.359
18623W        W91048  21.246  38.039  10.962
18624W        W91049  33.092   7.520  13.002
18625W        W91050  34.023  39.832   2.300
18626W        W91051  23.445  13.509  13.725
18627W        W91052  14.150  23.780   4.928
18628W        W91053  14.365  43.446   4.533
18629W        W91054  15.510  18.767  12.958
18630W        W91055   6.307   6.838  11.571
18631W        W91056  11.103  31.485   2.863
18632W        W91057  14.360  31.584  14.497
18633W        W91058  40.974  24.993   1.914
18634W        W91059  10.665  41.896  13.762
18635W        W91060   3.485  42.571   2.739
18636W        W91061  31.359  44.913   1.314
18637W        W91062   2.497  39.179  14.536
18638W        W91063   0.987   4.258   3.678
18639W        W91064  14.138   1.329   3.798
18640W        W91065  40.311   5.926   2.134
18641W        W91066  35.664  30.157  11.185
18642W        W91067  15.900  29.624   0.410
18643W        W91068   8.294  25.479   1.231
18644W        W91069  21.757  18.780   0.002
18645W        W91070   8.112  30.586   0.877
18646W        W91071  34.888  44.773  12.005
18647W        W91072  44.460  38.299   3.771
18648W        W91073  34.488   0.983  10.801
18649W        W91074  33.669   4.831   0.934
18650W        W91075  32.081  19.868   1.539
18651W        W91076   6.827  26.008   2.837
18652W        W91077  21.838  44.444  11.367
18653W        W91078  44.000  15.874  12.706
18654W        W91079   1.393  22.674   2.692
18655W        W91080  29.478   2.293  13.583
18656W        W91081  37.773   5.556  13.969
18657W        W91082  43.159   2.894   1.774
18658W        W91083  19.356   7.811   1.770
18659W        W91084  18.323   3.288   4.323
18660W        W91085   2.506   1.660  11.138
18661W        W91086  42.923  11.355   1.977
18662W        W91087   4.378  10.556   1.834
18663W        W91088   1.863  26.847   3.698
18664W        W91089  31.600  23.094   3.161
18665W        W91090  26.333   4.235  12.575
18666W        W91091  14.512  14.636  11.111
18667W        W91092   1.566  24.387  12.396
18668W        W91093  20.163  20.090   4.699
18669W        W91094  20.446  40.633   0.339
18670W        W91095  19.834  12.387   3.992
18671W        W91096   9.588  25.761   4.036
18672W        W91097  17.623  43.602   0.273
18673W        W91098   4.797  14.328  12.883
18674W        W91099  20.409  24.004  11.195
18675W        W91100  16.673  19.791  11.875
18676W        W91101   7.277  43.423   0.471
18677W        W91102  27.709  14.574   0.396
18678W        W91103  10.077  12.681  10.630
18679W        W91104  24.961  41.584   1.830
18680W        W91105  31.099  12.144   2.272
18681W        W91106   6.252   8.195  12.660
18682W        W91107   7.149  34.656  14.494
18683W        W91108  12.359  16.009   1.253
18684W        W91109  19.568  26.544  10.053
18685W        W91110  22.275  38.803  10.448
18686W        W91111  19.252  10.198  11.700
18687W        W91112   3.435  26.120  12.299
18688W        W91113  36.451  11.185   0.134
18689W        W91114  41.333  21.583   0.765
18690W        W91115  35.688  19.851   2.582
18691W        W91116  11.145  27.632   0.424
18692W        W91117  42.328  34.236  14.401
18693W        W91118   8.858  17.157   4.241
18694W        W91119   0.064  32.477  10.240
18695W        W91120   3.356  41.933  13.972
18696W        W91121  14.111   6.958  13.058
18697W        W91122  34.524  12.273   4.161
18698W        W91123  33.599  16.792   4.071
18699W        W91124  30.412  19.168   1.731
18700W        W91125  36.844  22.497  11.450
18701W        W91126  17.089  15.146  13.047
18702W        W91127   3.635   3.935  11.904
18703W        W91128  29.851  39.975  11.586
18704W        W91129  21.004  18.823  12.048
18705W        W91130  38.899  27.562  14.020
18706W        W91131  39.659  35.426   3.125
18707W        W91132  28.761  33.103  11.157
18708W        W91133   3.351  32.936  14.867
18709W        W91134  11.623  22.981  13.021
18710W        W91135  27.481  14.390  12.565
18711W        W91136   2.284  42.418   0.216
18712W        W91137  31.299  19.755   3.025
18713W        W91138  33.051  43.181   0.664
18714W        W91139  42.854  29.733  13.519
18715W        W91140   6.315  36.121   4.675
18716W        W91141   8.162  20.249   0.209
18717W        W91142   6.244  35.766   5.035
18718W        W91143  34.060  15.284   4.709
18719W        W91144  17.279  20.078   1.774
18720W        W91145  14.832  15.422  12.053
18721W        W91146  43.178  15.800  14.588
18722W        W91147  44.945  23.506   2.156
18723W        W91148  40.931  21.244  11.547
18724W        W91149  34.233  25.649  14.073
18725W        W91150  18.036  22.471   2.629
18726W        W91151   6.830  20.097   3.625
18727W        W91152  10.665  17.150   2.650
18728W        W91153  19.767  21.964   0.928
18729W        W91154   2.429  11.116   3.712
18730W        W91155  27.608  21.371  12.011
18731W        W91156  30.936  21.806   1.190
18732W        W91157  36.488   1.470  13.660
18733W        W91158  24.454  36.015   4.539
18734W        W91159   1.665   1.656   4.329
18735W        W91160  31.475  33.887   0.734
18736W        W91161  39.577   2.500  14.705
18737W        W91162  17.324  41.427  10.118
18738W        W91163  21.019  38.092   1.385
18739W        W91164  20.091  15.990  12.271
18740W        W91165  16.574  22.461   1.633
18741W        W91166  18.823  13.257   4.810
18742W        W91167  32.576  40.748  14.972
18743W        W91168  23.737  28.157   2.375
18744W        W91169  41.206  39.228  11.208
18745W        W91170   9.451   1.393   3.399
18746W        W91171  26.715   1.534   1.763
18747W        W91172   4.459  15.584   2.890
18748W        W91173   2.751  16.812   1.400
18749W        W91174  13.105  20.111   2.699
18750W        W91175   2.036  17.626  14.506
18751W        W91176  37.881  30.397   3.017
18752W        W91177  24.488  15.817  14.266
18753W        W91178  37.485   7.950  14.768
18754W        W91179  29.576  37.400  10.884
18755W        W91180  28.066   0.332  12.030
18756W        W91181  35.977   9.216   5.007
18757W        W91182  38.339  14.053   3.682
18758W        W91183   8.080  31.443  13.610
18759W        W91184  39.315   1.880  13.363
18760W        W91185   3.744  14.081  13.616
18761W        W91186  34.052   2.128   3.074
18762W        W91187  11.675   1.908  13.907
18763W        W91188  28.054   6.724   5.106
18764W        W91189  22.096  31.116   1.989
18765W        W91190   3.436  28.039   3.190
18766W        W91191   3.374  28.775   1.329
18767W        W91192  41.400   0.213  13.316
18768W        W91193  35.394   8.031   1.498
18769W        W91194  31.976  35.341  14.919
18770W        W91195  18.660  35.211   3.728
18771W        W91196  38.599   8.631   3.716
18772W        W91197   3.682   6.235   4.913
18773W        W91198  17.761  12.911   3.315
18774W        W91199  13.100  37.311   3.645
18775W        W91200  34.053  31.199   1.029
18776W        W91201  42.281  12.407   1.803
18777W        W91202   3.697  18.006  10.773
18778W        W91203  34.711   4.894  10.085
18779W        W91204   7.291   2.379   2.674
18780W        W91205  25.500  20.813  14.103
18781W        W91206   2.258  41.534   0.381
18782W        W91207   3.232  37.521  14.895
18783W        W91208  39.839   0.038  14.832
18784W        W91209  12.025  20.214  13.017
18785W        W91210  18.529  38.028  11.125
18786W        W91211  11.331   0.533  11.898
18787W        W91212  43.221  31.817  10.281
18788W        W91213  12.530  25.026   1.764
18789W        W91214   6.909  23.743  14.673
18790W        W91215   9.727  10.652   4.253
18791W        W91216  26.885  26.746  11.365
18792W        W91217  28.981  27.591  11.219
18793W        W91218  36.562  40.801   3.086
18794W        W91219  34.897  33.494  13.589
18795W        W91220  28.114   6.387   2.370
18796W        W91221  10.192  29.370   5.079
18797W        W91222   4.490  33.540   1.006
18798W        W91223   1.085   4.679  13.981
18799W        W91224  30.547   4.625  12.806
18800W        W91225  21.114  42.768  10.008
18801W        W91226  41.879  23.366  11.426
18802W        W91227   5.309  36.417  14.421
18803W        W91228  24.219   0.410  12.568
18804W        W91229  19.311  39.703  12.008
18805W        W91230  26.470   0.468   2.026
18806W        W91231  35.782  40.387   4.504
18807W        W91232  43.973  44.735  14.037
18808W        W91233  35.598  24.896  12.126
18809W        W91234  44.775   7.821  12.902
18810W        W91235  38.060  14.089   1.182
18811W        W91236   6.778  31.084  14.945
18812W        W91237  37.285  13.314  11.948
18813W        W91238  16.415  41.943   4.237
18814W        W91239   6.134  29.729  14.042
18815W        W91240  17.651  23.762  13.991
18816W        W91241   5.516  16.352  11.193
18817W        W91242  15.207  27.149   2.092
18818W        W91243   2.752  38.688  14.498
18819W        W91244  30.836  24.186  12.251
18820W        W91245  27.984  36.327  11.045
18821W        W91246   9.467  41.162  13.406
18822W        W91247  44.406  40.962   2.711
18823W        W91248  11.416   9.316   1.785
18824W        W91249  24.972  33.552   4.505
18825W        W91250  23.169  16.833   2.835
18826W        W91251  11.244  28.988  10.905
18827W        W91252  10.113  33.114  10.486
18828W        W91253  15.192   1.521   3.323
18829W        W91254  27.626   6.113   4.821
18830W        W91255  14.427   4.712   1.717
18831W        W91256   5.814  36.409  14.282
18832W        W91257  34.480   3.750  13.784
18833W        W91258  27.288  26.165   1.416
18834W        W91259  22.113  30.950   0.449
18835W        W91260  41.852  43.870  11.843
18836W        W91261   4.179   6.196  13.609
18837W        W91262  37.640   8.433  14.585
18838W        W91263  21.425  20.641   1.643
18839W        W91264  11.825  35.904  12.555
18840W        W91265  42.277   3.413   1.813
18841W        W91266  14.379  18.768   4.015
18842W        W91267  37.927  16.633  12.813
18843W        W91268  43.780  35.861  11.243
18844W        W91269  22.159   6.611  10.652
18845W        W91270  22.434   4.837   3.286
18846W        W91271   1.985  32.483   3.225
18847W        W91272  21.267  13.270   4.293
18848W        W91273  10.137  24.088  14.811
18849W        W91274   8.021   3.271   1.861
18850W        W91275  19.291  28.137   0.073
18851W        W91276  19.138  35.568   4.336
18852W        W91277  32.658  33.545   1.772
18853W        W91278  15.130  30.979   1.762
18854W        W91279  10.656  16.770   0.431
18855W        W91280  19.903   8.877  11.866
18856W        W91281  26.198   1.429   4.432
18857W        W91282   9.270  40.262   3.220
18858W        W91283  23.698   9.890   4.252
18859W        W91284  10.065  14.018  11.288
18860W        W91285  43.921  22.713  12.866
18861W        W91286   8.186  30.698   4.644
18862W        W91287  32.032   8.448   1.305
18863W        W91288   8.134  19.772  14.437
18864W        W91289  15.061   6.248   1.261
18865W        W91290  44.450  14.699  10.732
18866W        W91291   3.794  34.568  12.971
18867W        W91292  24.401  37.779   1.381
18868W        W91293  16.148  20.037  13.847
18869W        W91294  39.850  27.597  11.018
18870W        W91295  12.807  19.038   2.202
18871W        W91296  29.911   1.966  10.606
18872W        W91297  21.834  23.932  12.338
18873W        W91298  22.218  28.110  10.733
18874W        W91299  17.312  10.592  10.644
18875W        W91300  10.179   7.772  14.497
18876W        W91301  38.309  10.081   1.406
18877W        W91302  30.438  25.920  12.278
18878W        W91303  32.197  38.487  10.819
18879W        W91304   6.427  44.365   0.309
18880W        W91305  29.044  43.354  13.908
18881W        W91306  12.212   0.299  11.397
18882W        W91307   7.213  23.605   2.943
18883W        W91308  11.684  34.877   3.214
18884W        W91309  14.655  26.264  13.746
18885W        W91310  19.676  17.293   4.356
18886W        W91311  27.200  28.979  10.930
18887W        W91312  12.085  37.544   0.229
18888W        W91313  19.930  38.003   3.708
18889W        W91314  14.248  27.048  14.063
18890W        W91315  36.494  18.254   3.556
18891W        W91316  20.606  36.007   4.674
18892W        W91317   2.634  44.072  11.135
18893W        W91318   2.704  40.321  12.020
18894W        W91319  28.664   3.344  13.362
18895W        W91320  14.980  10.086   2.207
18896W        W91321   8.599  29.054   3.582
18897W        W91322  10.222  42.988   1.390
18898W        W91323  20.115  15.400  10.370
18899W        W91324  32.978  26.620   1.500
18900W        W91325  34.163  20.446  11.374
18901W        W91326   3.389  17.794   0.971
18902W        W91327  39.777  32.708   1.688
18903W        W91328  38.940  14.777   3.181
18904W        W91329   4.266  43.274   1.406
18905W        W91330  39.954  17.192   0.870
18906W        W91331  34.923  44.338   1.807
18907W        W91332  31.856  15.877  12.009
18908W        W91333  19.427  24.085   5.415
18909W        W91334  35.956  12.341  10.723
18910W        W91335  24.141  23.332  12.639
18911W        W91336  39.452  20.494  12.397
18912W        W91337  20.508   8.822   9.898
18913W        W91338  17.153  32.912   4.968
18914W        W91339   4.054  29.665   0.246
18915W        W91340  19.649   3.001   4.164
18916W        W91341  18.097  20.617   1.242
18917W        W91342  44.906  36.078   0.427
18918W        W91343  19.172  34.894  13.280
18919W        W91344  13.338  26.552  11.264
18920W        W91345   9.778  23.015  13.143
18921W        W91346  16.680  11.410   4.553
18922W        W91347  10.203  14.397   3.310
18923W        W91348  31.024  20.523   0.258
18924W        W91349  33.108  19.765   4.509
18925W        W91350  34.277   9.856   3.742
18926W        W91351  27.389   3.085   1.458
18927W        W91352  22.675   3.969   4.110
18928W        W91353  42.591  24.042  13.110
18929W        W91354  35.123  31.430  14.512
18930W        W91355  10.874  44.347  10.660
18931W        W91356  38.454  42.053  10.737
18932W        W91357  38.052  33.517  10.730
18933W        W91358  41.456   4.349  14.365
18934W        W91359  24.938  16.769   1.632
18935W        W91360  39.518  12.927  12.151
18936W        W91361  44.051  22.015  10.681
18937W        W91362  15.756  35.098   9.928
18938W        W91363   2.320  25.098   1.241
18939W        W91364  26.054  33.539   1.455
18940W        W91365  25.564  25.509   3.786
18941W        W91366  31.077   8.110   4.301
18942W        W91367  11.262  13.554  14.831
18943W        W91368  19.078  18.270   3.715
18944W        W91369  20.809  29.414  13.845
18945W        W91370  22.111  28.588   3.413
18946W        W91371   4.837   9.623   2.839
18947W        W91372   0.742  26.644  13.500
18948W        W91373  40.253  14.158   2.351
18949W        W91374   4.351  17.368   0.797
18950W        W91375  42.339  38.546  12.168
18951W        W91376  33.165  21.763   3.802
18952W        W91377  38.790  19.550  14.296
18953W        W91378  10.120  41.417   9.886
18954W        W91379  41.115   1.743  12.014
18955W        W91380  41.385  17.767  11.637
18956W        W91381  39.063  41.671   5.004
18957W        W91382  29.503  20.531   0.477
18958W        W91383   4.685  30.079   2.029
18959W        W91384  33.377   4.837   5.251
18960W        W91385  39.360   7.131  14.473
18961W        W91386  31.497  26.201  11.681
18962W        W91387   8.238  28.034  13.081
18963W        W91388   2.018   7.786   4.036
18964W        W91389  44.167   0.198   4.033
18965W        W91390  38.302  38.825  13.116
18966W        W91391  43.344   7.731   0.781
18967W        W91392   7.813  33.174  12.971
18968W        W91393  32.928  33.966   0.253
18969W        W91394  39.302  28.492   0.471
18970W        W91395   4.421   5.413  13.901
18971W        W91396   9.249  43.457   2.267
18972W        W91397  29.075  42.454   1.602
18973W        W91398  33.735   7.585  13.379
18974W        W91399   0.288  38.918   1.613
18975W        W91400  18.964   0.934   0.822
18976W        W91401  14.833  10.252  10.893
18977W        W91402   8.170   3.397  11.444
18978W        W91403  12.221  16.059  12.870
18979W        W91404  40.457  13.894  13.021
18980W        W91405  35.651   4.437   1.255
18981W        W91406  19.658   3.306  11.886
18982W        W91407  14.688  19.656  12.967
18983W        W91408  13.693   6.183   3.281
18984W        W91409   0.688  37.476  10.389
18985W        W91410  14.888  17.242  11.929
18986W        W91411  20.620  42.755  13.904
18987W        W91412  24.049  15.019  10.441
18988W        W91413  43.070  32.945   4.164
18989W        W91414  44.428  10.316  13.613
18990W        W91415  22.480  29.826   1.906
18991W        W91416  30.356   4.262  11.202
18992W        W91417   3.408  43.196   1.720
18993W        W91418  19.463  25.550  12.552
18994W        W91419  30.641  18.556  13.508
18995W        W91420  21.572   9.236  11.861
18996W        W91421  37.112  43.887   2.347
18997W        W91422  25.916  17.115  14.904
18998W        W91423  10.081  18.056  12.341
18999W        W91424   2.775  38.982  14.936
19000W        W91425  31.141   1.990  10.702
19001W        W91426  12.001  24.414   4.659
19002W        W91427   1.369  14.388  13.570
19003W        W91428  39.721  14.080   2.397
19004W        W91429  38.790  24.472  12.808
19005W        W91430  13.005  10.859   1.301
19006W        W91431   6.216  21.823  11.556
19007W        W91432  25.634  26.074  10.619
19008W        W91433  43.806  18.811  13.429
19009W        W91434  38.999   8.388  14.348
19010W        W91435  10.591  12.276  12.076
19011W        W91436   6.761   0.992   4.543
19012W        W91437  41.952   3.807   3.328
19013W        W91438  17.516  33.934   4.574
19014W        W91439  16.883  35.106  12.628
19015W        W91440  19.500  40.209  12.012
19016W        W91441   5.689  12.387   1.922
19017W        W91442  41.404  10.492   0.701
19018W        W91443   5.207   1.784   3.188
19019W        W91444  34.140  26.070   0.778
19020W        W91445  39.284  39.343   1.256
19021W        W91446  40.789   6.234  14.357
19022W        W91447  33.298  23.240  14.428
19023W        W91448  19.688  15.351  13.585
19024W        W91449   7.316  28.425   2.798
19025W        W91450  11.149   3.498  10.696
19026W        W91451  41.363  37.678   1.021
19027W        W91452  43.642  36.724  12.134
19028W        W91453  21.213  12.409   2.722
19029W        W91454  34.170   2.818  13.441
19030W        W91455  33.140  18.254  14.696
19031W        W91456  23.083  29.463   4.647
19032W        W91457  26.666  29.399   1.792
19033W        W91458   3.350  29.911  12.870
19034W        W91459  23.760  25.250   0.725
19035W        W91460  34.524   6.640   1.146
19036W        W91461  25.034  38.015   1.042
19037W        W91462  22.137   6.685  14.053
19038W        W91463  36.921   4.905   2.458
19039W        W91464  10.362  43.821   0.073
19040W        W91465  13.093   4.293  13.437
19041W        W91466  38.440   2.637   3.895
19042W        W91467  29.985  39.757   4.760
19043W        W91468   0.862  28.644   3.607
19044W        W91469  25.024  24.519   4.752
19045W        W91470  36.056   5.383   1.966
19046W        W91471  31.522  44.510   4.077
19047W        W91472   2.364  17.194  12.565
19048W        W91473  11.621  12.881   2.639
19049W        W91474   8.318  20.655  11.363
19050W        W91475  10.425   4.713   3.674
19051W        W91476  29.972  37.582   4.205
19052W        W91477  10.632  12.611  13.345
19053W        W91478  37.847  27.013  12.168
19054W        W91479   8.177  11.306  14.806
19055W        W91480  41.823  25.954   0.173
19056W        W91481  38.125  13.978   0.334
19057W        W91482  11.553  28.867   1.713
19058W        W91483   1.485  29.044   3.228
19059W        W91484  11.186  34.687  11.968
19060W        W91485   3.203  24.782   1.246
19061W        W91486   2.965  25.071  11.241
19062W        W91487  25.206   8.609   1.158
19063W        W91488  12.242  27.928   1.858
19064W        W91489  14.272  23.653  11.045
19065W        W91490  15.489   4.981  11.019
19066W        W91491  11.245  22.119   9.697
19067W        W91492   9.702  42.403  10.983
19068W        W91493   0.466   7.899   3.127
19069W        W91494  27.568  35.861  13.852
19070W        W91495   3.908  25.289   2.317
19071W        W91496  10.641   2.515   0.281
19072W        W91497  27.079  22.694  13.248
19073W        W91498  22.152   9.503  14.120
19074W        W91499  34.867  35.910  11.122
19075W        W91500   2.164  16.339   2.252
19076W        W91501  42.957  44.932   3.187
19077W        W91502   1.152  43.303  13.710
19078W        W91503   4.408  34.173   4.261
19079W        W91504  11.702   9.764   3.263
19080W        W91505  37.376   9.151  11.452
19081W        W91506  16.260  42.802   2.327
19082W        W91507  34.490  24.707  11.567
19083W        W91508  26.450  37.973   3.174
19084W        W91509  35.924  11.377  14.525
19085W        W91510  30.889  38.224  11.117
19086W        W91511  34.056  38.958   3.530
19087W        W91512  20.701  37.853  14.706
19088W        W91513  10.269  18.401  13.264
19089W        W91514  29.058   4.280  10.746
19090W        W91515  30.540  43.546  10.684
19091W        W91516  39.588   6.385  12.031
19092W        W91517  17.238  24.525   3.577
19093W        W91518   5.944  15.399   0.883
19094W        W91519   1.749  13.991   3.973
19095W        W91520  36.786  41.554   3.710
19096W        W91521  22.260   3.068  10.942
19097W        W91522   2.836  44.332  13.359
19098W        W91523  29.939  36.963  11.576
19099W        W91524   9.753  41.825   1.876
19100W        W91525  39.056  15.724  10.363
19101W        W91526  22.470  33.492  11.502
19102W        W91527  36.945  24.069   2.828
19103W        W91528  40.225  25.824  12.420
19104W        W91529  43.319  30.671  14.763
19105W        W91530  21.964  36.887   1.453
19106W        W91531  32.673  20.759  14.446
19107W        W91532  14.008  39.799  11.161
19108W        W91533  14.843  32.588   0.856
19109W        W91534  18.165  35.975   3.561
19110W        W91535  10.101  44.954   3.209
19111W        W91536  24.994   5.929   0.735
19112W        W91537  16.693  28.922   1.659
19113W        W91538  18.196  20.387  11.618
19114W        W91539  30.461  36.052   2.670
19115W        W91540  32.885   5.245   1.414
19116W        W91541  15.245   1.432  11.413
19117W        W91542  10.108  34.341   3.688
19118W        W91543   7.239  33.111  12.424
19119W        W91544  11.788  30.381   1.818
19120W        W91545   0.813  38.122  13.055
19121W        W91546   7.321  31.852   2.364
19122W        W91547  41.486  10.717  14.213
19123W        W91548  44.438  32.887  11.547
19124W        W91549   2.416  35.172   2.155
19125W        W91550  28.622  27.229   0.944
19126W        W91551  23.455  40.717  13.342
19127W        W91552  20.131   1.293  13.283
19128W        W91553  20.317  43.701   3.663
19129W        W91554  36.347   1.472   0.080
19130W        W91555   6.196  13.918  10.802
19131W        W91556  17.118   2.443   1.114
19132W        W91557  43.806  35.451   4.261
19133W        W91558  23.642   0.939   1.742
19134W        W91559  33.064  12.347  14.761
19135W        W91560  43.544  16.575  12.199
19136W        W91561  17.751  11.610  11.687
19137W        W91562  44.960  13.445  11.649
19138W        W91563  14.178  41.763   2.495
19139W        W91564  13.128   8.699   2.830
19140W        W91565  36.494  17.051  11.837
19141W        W91566   3.942   0.793   3.727
19142W        W91567  19.141   9.926  10.371
19143W        W91568  32.148  29.026   3.277
19144W        W91569  25.893  32.908  14.498
19145W        W91570   7.163  38.478   0.883
19146W        W91571   1.897   8.420  14.396
19147W        W91572  33.751  15.132   1.649
19148W        W91573  44.093  33.306  12.435
19149W        W91574  37.512  12.088  10.511
19150W        W91575  21.027   6.157  10.318
19151W        W91576   2.673  27.736   2.457
19152W        W91577  33.415  41.271  12.105
19153W        W91578  33.596  28.894  12.572
19154W        W91579  22.515  30.698  10.577
19155W        W91580  39.080  23.137   0.848
19156W        W91581  11.533  42.867   1.858
19157W        W91582  34.535  17.381  14.479
19158W        W91583  40.079  14.037  14.404
19159W        W91584  28.876  16.138   3.161
19160W        W91585   3.822   1.024  13.611
19161W        W91586   1.871  32.126  14.973
19162W        W91587  40.314  40.471  11.167
19163W        W91588  44.614  11.734   3.813
19164W        W91589  33.428  15.822  11.139
19165W        W91590   4.167  41.387  12.463
19166W        W91591  19.785  22.947   1.945
19167W        W91592  19.697  39.652   0.318
19168W        W91593  12.352  26.318  12.196
19169W        W91594  19.733  13.344   1.401
19170W        W91595  12.919  13.186  12.688
19171W        W91596  40.450  31.120   3.059
19172W        W91597   5.084   7.392  11.376
19173W        W91598   9.960  12.383  11.266
19174W        W91599  39.419  27.797   2.732
19175W        W91600  24.104   5.837   3.045
19176W        W91601  35.051  31.509  13.491
19177W        W91602   7.822  11.099  12.422
19178W        W91603  41.604  41.509   0.879
19179W        W91604   9.163  43.240  13.756
19180W        W91605  11.105  40.591   2.387
19181W        W91606   3.619  38.837   4.578
19182W        W91607  44.377  20.174   5.314
19183W        W91608  42.752   5.978   1.274
19184W        W91609   6.439  26.824  14.335
19185W        W91610   9.322   0.548   0.300
19186W        W91611  31.822   0.118  11.524
19187W        W91612  20.161  10.431   3.288
19188W        W91613   6.860  20.804   4.179
19189W        W91614  28.189  29.609  14.795
19190W        W91615  42.597  35.612  10.913
19191W        W91616  11.901  33.416   0.349
19192W        W91617  30.435   4.265  12.093
19193W        W91618   7.376  40.971  14.268
19194W        W91619  27.731  18.863   0.814
19195W        W91620   8.159  40.651   3.507
19196W        W91621  24.954   8.687  14.712
19197W        W91622  33.882   4.740   4.585
19198W        W91623  16.575  44.865   1.803
19199W        W91624  15.796  32.623   5.001
19200W        W91625  28.093   0.968  11.051
19201W        W91626  27.027  18.443   4.178
19202W        W91627  20.768  24.121  13.951
19203W        W91628  21.503  13.597   4.645
19204W        W91629  27.472  13.717  14.485
19205W        W91630   0.507  35.535   4.895
19206W        W91631  33.573  43.656  13.495
19207W        W91632  12.446  15.514  12.131
19208W        W91633  35.641  25.008   3.347
19209W        W91634  34.715  11.126  11.803
19210W        W91635   9.264  34.627   2.184
19211W        W91636  25.965  11.761   3.851
19212W        W91637  23.664  12.764  11.440
19213W        W91638  21.001  23.648  14.360
19214W        W91639  20.622   6.729   2.419
19215W        W91640   3.776  23.062   1.761
19216W        W91641  16.624   0.409   1.682
19217W        W91642  34.552  38.098  13.063
19218W        W91643  10.290  18.938   2.187
19219W        W91644  32.666  38.563   4.167
19220W        W91645  43.272  22.599  12.101
19221W        W91646  14.319   3.981   2.182
19222W        W91647  17.193  39.252   2.225
19223W        W91648   3.529  34.141   0.456
19224W        W91649  27.520  26.646   3.181
19225W        W91650  17.822  43.816  10.686
19226W        W91651  29.181   8.216   4.210
19227W        W91652  21.668  42.283   4.132
19228W        W91653  31.032  32.336  10.750
19229W        W91654   5.392  16.111   2.108
19230W        W91655  41.989  32.479  14.684
19231W        W91656   7.400  14.083   3.871
19232W        W91657   9.411  23.018  10.678
19233W        W91658  12.255  43.941  14.855
19234W        W91659  22.821  14.840  14.550
19235W        W91660   2.290   8.643   2.064
19236W        W91661  25.094   7.385  10.783
19237W        W91662  11.017  20.963   0.309
19238W        W91663  12.340  41.293   1.311
19239W        W91664  28.156  26.502   4.033
19240W        W91665   2.035  40.955   2.388
19241W        W91666  28.408  25.613   1.674
19242W        W91667  25.267   2.485   0.375
19243W        W91668  34.312  42.869   0.865
19244W        W91669  11.254  44.761  11.538
19245W        W91670  34.950  29.571   4.673
19246W        W91671  26.051  11.581   4.333
19247W        W91672  18.998  22.607   3.563
19248W        W91673  21.011  36.382   4.604
19249W        W91674  28.340  38.480  14.602
19250W        W91675   5.692  14.832  14.253
19251W        W91676  44.473  23.226   0.867
19252W        W91677  22.751   1.846   0.347
19253W        W91678  12.175   6.967   2.773
19254W        W91679  37.907   6.768   1.788
19255W        W91680  39.790  34.867   4.497
19256W        W91681  18.643   7.844  10.861
19257W        W91682  13.281  42.425  11.437
19258W        W91683  16.187   4.347   5.072
19259W        W91684  38.651  37.506  11.480
19260W        W91685  34.302  19.242  10.679
19261W        W91686  33.366  12.138   4.672
19262W        W91687   7.761  15.568   3.762
19263W        W91688   2.360   1.969   1.041
19264W        W91689   1.549   8.325  12.478
19265W        W91690   6.888   1.992  13.913
19266W        W91691   9.251  42.158  13.463
19267W        W91692  30.052  31.658   2.267
19268W        W91693  33.467   5.297   0.422
19269W        W91694  12.678  26.543  14.448
19270W        W91695  19.576  43.811  12.506
19271W        W91696  20.361  28.039   3.344
19272W        W91697  39.245   0.250  13.821
19273W        W91698  12.342  16.660   4.204
19274W        W91699  27.571   1.480   0.213
19275W        W91700  33.895  42.050  12.865
19276W        W91701  25.471  10.968   2.267
19277W        W91702  12.564  17.080  11.475
19278W        W91703  28.502  31.991  10.951
19279W        W91704  31.421   6.243   4.230
19280W        W91705  37.618  26.122  12.014
19281W        W91706  41.326  31.881  11.209
19282W        W91707  11.457  33.799   2.719
19283W        W91708  32.032  13.715  12.432
19284W        W91709   7.167  10.792   0.393
19285W        W91710  14.813  12.436   4.031
19286W        W91711  20.303  24.387  13.930
19287W        W91712  29.097  44.517  10.565
19288W        W91713  20.049   6.857   1.219
19289W        W91714   4.756  39.559  12.925
19290W        W91715   1.863  30.224   3.264
19291W        W91716   0.390   5.258  10.633
19292W        W91717  30.607  26.260   1.873
19293W        W91718   5.981   4.700   1.968
19294W        W91719  12.136  39.464   4.082
19295W        W91720  16.961  17.257  14.360
19296W        W91721  12.698  12.216  12.391
19297W        W91722   0.661   2.032   0.974
19298W        W91723   6.831   5.474  10.613
19299W        W91724   6.349  18.701  14.476
19300W        W91725   4.610  13.876   4.241
19301W        W91726  30.026  24.158   2.764
19302W        W91727  23.960   9.693   3.838
19303W        W91728  19.529  26.224  11.970
19304W        W91729   4.571  39.408  11.541
19305W        W91730  25.560  27.180  11.522
19306W        W91731   0.773   3.741  12.452
19307W        W91732  27.732   1.988   2.280
19308W        W91733  36.152  12.413  13.293
19309W        W91734  38.497   7.974  13.372
19310W        W91735  33.028   7.227   4.665
19311W        W91736   7.155  29.913  12.092
19312W        W91737  28.639  21.573  12.151
19313W        W91738  16.297  15.233  12.467
19314W        W91739  38.542  28.066   2.591
19315W        W91740  26.996  30.103  10.088
19316W        W91741  39.934  27.530  12.442
19317W        W91742  22.594  15.358  11.715
19318W        W91743  18.640  29.903  12.448
19319W        W91744   4.374  23.020   4.105
19320W        W91745  20.091  30.722  14.345
19321W        W91746  41.335  44.733  13.487
19322W        W91747  15.276   8.819  10.329
19323W        W91748  43.923  43.433   3.180
19324W        W91749  39.751  35.123  12.159
19325W        W91750  28.947   1.858   4.209
19326W        W91751  38.607   6.937   3.331
19327W        W91752   2.458  23.854   2.606
19328W        W91753  35.511  11.381   3.733
19329W        W91754   6.894   8.193   3.376
19330W        W91755  40.512  24.211  12.932
19331W        W91756  29.005  15.764   0.161
19332W        W91757  15.662  32.641  12.044
19333W        W91758  13.327  33.438   2.881
19334W        W91759  36.578  32.585   2.345
19335W        W91760  29.008  42.892  12.563
19336W        W91761  23.003  27.055   3.528
19337W        W91762   6.337  10.365  12.703
19338W        W91763  27.521  14.618   1.423
19339W        W91764  24.859  43.082  12.978
19340W        W91765  10.201  43.161   3.241
19341W        W91766  34.469   3.046   0.351
19342W        W91767  30.938  33.670  12.522
19343W        W91768  39.557  43.390  12.083
19344W        W91769  24.093  10.483   4.064
19345W        W91770  33.423  29.485   4.489
19346W        W91771  10.110  28.420  11.553
19347W        W91772  33.427  40.370  11.853
19348W        W91773  36.182   0.995   4.264
19349W        W91774  30.378  41.379   1.786
19350W        W91775  33.821  11.231   1.475
19351W        W91776   2.699  32.810  11.415
19352W        W91777  31.699   5.013   1.364
19353W        W91778  21.569  17.722  10.655
19354W        W91779  11.931   3.196   4.249
19355W        W91780   2.464  40.442  11.577
19356W        W91781  15.823   5.333  13.600
19357W        W91782   4.424  11.123   2.999
19358W        W91783  16.954  31.898  14.332
19359W        W91784  21.036  32.467  11.101
19360W        W91785   2.118  22.561   0.192
19361W        W91786  40.996   8.115   3.361
19362W        W91787   5.612  30.466   4.507
19363W        W91788  44.015  15.430   2.411
19364W        W91789   5.501   2.368   3.748
19365W        W91790  24.950  43.754  12.058
19366W        W91791  21.740   5.826   1.323
19367W        W91792  29.195  27.647   2.130
19368W        W91793  37.292  21.184   3.363
19369W        W91794   7.225  36.980  11.641
19370W        W91795  40.818   2.301  14.015
19371W        W91796  36.178   2.229   0.365
19372W        W91797  14.263   4.796  11.555
19373W        W91798   4.135   2.457  11.115
19374W        W91799  30.003  23.193  10.603
19375W        W91800  21.596  29.454  11.565
19376W        W91801  15.477  35.535  10.073
19377W        W91802  18.696   4.204   3.919
19378W        W91803  39.129  29.325  11.297
19379W        W91804   0.774  19.978   0.306
19380W        W91805   5.964  16.878   4.574
19381W        W91806  27.144  44.569   4.473
19382W        W91807  44.901   9.985   0.383
19383W        W91808  32.632   0.411  13.480
19384W        W91809   8.691  18.368   2.774
19385W        W91810   3.939  25.814   0.754
19386W        W91811  40.854  36.108  12.117
19387W        W91812  43.739  33.685  11.519
19388W        W91813  35.102  38.821   1.354
19389W        W91814  28.061  16.661   1.174
19390W        W91815  14.041   6.844  13.581
19391W        W91816  12.070  22.048   3.111
19392W        W91817  25.238   3.939  12.948
19393W        W91818   9.721  22.940  11.731
19394W        W91819  42.566  15.570  12.083
19395W        W91820  19.453  39.917  14.893
19396W        W91821  38.586  37.570   3.254
19397W        W91822  23.151  15.049  14.972
19398W        W91823  44.768   7.782  14.551
19399W        W91824  21.326  37.521   1.185
19400W        W91825   9.855  31.228  10.601
19401W        W91826  11.354  19.097  11.871
19402W        W91827  40.916  33.103  11.470
19403W        W91828  29.195  32.511   2.855
19404W        W91829  18.208  29.624   4.369
19405W        W91830   4.659  35.352   2.106
19406W        W91831  17.625   0.256  14.903
19407W        W91832   6.331   8.275  13.460
19408W        W91833   2.810  31.408  13.907
19409W        W91834  35.039  16.042  11.531
19410W        W91835   5.900  16.676  10.594
19411W        W91836  23.632  16.328   0.039
19412W        W91837  16.607   6.209   3.802
19413W        W91838  36.432   9.852  13.020
19414W        W91839  20.277  44.436   4.181
19415W        W91840  15.561   9.730  12.619
19416W        W91841   4.227  26.260  11.499
19417W        W91842  11.713  38.567   1.446
19418W        W91843   9.410   4.294   1.833
19419W        W91844  23.114  18.971  13.596
19420W        W91845  21.035   8.361   1.699
19421W        W91846   2.506  38.369  13.328
19422W        W91847  35.599  36.816   3.377
19423W        W91848   2.316   1.007  13.446
19424W        W91849   4.414  12.097  14.897
19425W        W91850   9.227   7.181   2.268
19426W        W91851  15.961  21.302   3.207
19427W        W91852  31.488  44.719   3.174
19428W        W91853  10.033  15.150  13.935
19429W        W91854  25.152  32.965  13.679
19430W        W91855  38.006  33.544  13.833
19431W        W91856  27.700   3.001  12.503
19432W        W91857  21.377   0.403   4.697
19433W        W91858  21.228   5.258   2.478
19434W        W91859  32.418  38.189   3.892
19435W        W91860  16.314  15.914   0.713
19436W        W91861  21.740  29.258  11.108
19437W        W91862   8.069  21.989  11.607
19438W        W91863   7.483  12.845  13.652
19439W        W91864  13.806  21.313  13.002
19440W        W91865  23.122  34.087  11.889
19441W        W91866  15.185  25.793  12.357
19442W        W91867   4.317  35.805   0.502
19443W        W91868  25.787  40.393  14.063
19444W        W91869   9.963   7.824   5.058
19445W        W91870  13.461  17.004  10.222
19446W        W91871  27.924  11.775  11.405
19447W        W91872  34.135  19.154   0.863
19448W        W91873  15.813  35.535  13.351
19449W        W91874  40.034  10.606   0.545
19450W        W91875  14.309  16.095   3.860
19451W        W91876  13.765  18.261   2.772
19452W        W91877  44.267   3.425   2.242
19453W        W91878  31.619   0.561  11.785
19454W        W91879  18.160  42.189  13.108
19455W        W91880  37.599   2.416   0.994
19456W        W91881  44.775  42.890  12.597
19457W        W91882  17.404  27.211  12.586
19458W        W91883   3.640  36.083  12.635
19459W        W91884  34.653  19.129  14.963
19460W        W91885  31.414  21.119  14.062
19461W        W91886  25.765  43.415  10.791
19462W        W91887  39.384  16.296  11.611
19463W        W91888   3.898  32.961   2.241
19464W        W91889   6.676   2.342  12.106
19465W        W91890  42.824  39.389   2.863
19466W        W91891  18.778  42.615  12.056
19467W        W91892  37.520  34.419  10.595
19468W        W91893  44.429  13.561  11.015
19469W        W91894  10.820  18.743   0.534
19470W        W91895  34.263   6.984   1.418
19471W        W91896   2.392   1.536  13.451
19472W        W91897  31.999  28.761  12.129
19473W        W91898   9.458  14.269   1.846
19474W        W91899  25.536  12.347   0.389
19475W        W91900  11.051  23.620   0.572
19476W        W91901  27.961  13.758   3.261
19477W        W91902  16.626   2.253   3.382
19478W        W91903   8.245  42.548   0.280
19479W        W91904  36.748  18.011   1.150
19480W        W91905  38.409  39.145  14.104
19481W        W91906   6.295  17.089   1.944
19482W        W91907  39.589  19.805   3.176
19483W        W91908  30.803  38.671   3.228
19484W        W91909  11.166  17.183   2.798
19485W        W91910  31.233   7.718   2.117
19486W        W91911  32.150  38.473   4.249
19487W        W91912  42.859  12.508  10.722
19488W        W91913   8.239   6.700  13.473
19489W        W91914   1.076  34.610  10.704
19490W        W91915   2.927  32.911   4.185
19491W        W91916  17.233   5.616  10.687
19492W        W91917  16.203   0.780   3.851
19493W        W91918  11.844   6.095   5.176
19494W        W91919  21.665  35.328  13.788
19495W        W91920   0.814  40.034   2.973
19496W        W91921  17.954   3.853  12.140
19497W        W91922  23.562   2.526  10.673
19498W        W91923  44.354  29.187  11.406
19499W        W91924  27.171  43.101  13.915
19500W        W91925  37.804  31.531   4.525
19501W        W91926  38.619  16.765  11.177
19502W        W91927  20.257  42.988  10.135
19503W        W91928  13.089   0.182  11.015
19504W        W91929  37.092   5.780  12.113
19505W        W91930   2.700  39.864  10.670
19506W        W91931  20.610   7.291  13.723
19507W        W91932  31.967  30.023   2.361
19508W        W91933  14.834   0.817  11.147
19509W        W91934  38.780  23.643   2.311
19510W        W91935  38.062   8.662   1.371
19511W        W91936  33.427   7.292  10.904
19512W        W91937  35.503  35.785   4.101
19513W        W91938  15.198  41.068  14.944
19514W        W91939   4.921  14.250   0.441
19515W        W91940   7.984   8.443  13.069
19516W        W91941  27.079  32.229  10.541
19517W        W91942   1.185  20.516   4.661
19518W        W91943  32.632  44.216   1.728
19519W        W91944  24.720  41.804   1.376
19520W        W91945  13.626  40.880  12.545
19521W        W91946  25.324   1.235   4.915
19522W        W91947  35.839  44.709  11.970
19523W        W91948  42.915  17.179  14.438
19524W        W91949  24.130  44.537  10.488
19525W        W91950   0.986  23.371   4.603
19526W        W91951   2.887  28.346  13.631
19527W        W91952  15.044  38.519  10.575
19528W        W91953  36.086  22.784  12.553
19529W        W91954  10.146  19.605   2.736
19530W        W91955  28.505  17.602  14.383
19531W        W91956   7.720  13.681  14.194
19532W        W91957  16.016  30.610  12.885
19533W        W91958  28.846  37.135   0.936
19534W        W91959   0.969  24.409   0.802
19535W        W91960  27.401  17.095  14.070
19536W        W91961  29.581  25.451  14.282
19537W        W91962  28.661  42.342  11.353
19538W        W91963  14.074  42.809   3.311
19539W        W91964  17.043  39.445  12.028
19540W        W91965  25.061   3.407   0.057
19541W        W91966   8.217  28.641  14.958
19542W        W91967  31.676  42.699   0.084
19543W        W91968   2.773  17.077   4.558
19544W        W91969   6.667  31.098  10.998
19545W        W91970   6.240  25.253  13.028
19546W        W91971   6.899   5.953  14.434
19547W        W91972  41.465  26.216  11.109
19548W        W91973  24.755  29.953   4.044
19549W        W91974  34.644   8.012  14.783
19550W        W91975  10.735  21.523   2.643
19551W        W91976   3.748  43.003  11.697
19552W        W91977   9.333   5.723   0.237
19553W        W91978   9.898   7.981   0.295
19554W        W91979  34.243  37.992   4.495
19555W        W91980  32.081   6.747  13.495
19556W        W91981  30.902  44.438  10.672
19557W        W91982  39.264  40.010   0.430
19558W        W91983   7.084  44.383   4.344
19559W        W91984  19.874  19.296  14.559
19560W        W91985  39.364  15.633  10.787
19561W        W91986  25.426  34.743   1.663
19562W        W91987  32.236  41.726  11.090
19563W        W91988  22.476  19.942   2.260
19564W        W91989  44.070   3.438   0.494
19565W        W91990  36.005  37.427   4.646
19566W        W91991  14.849  23.130   2.720
19567W        W91992  23.071  14.280   3.199
19568W        W91993  35.545   9.637  14.520
19569W        W91994  40.426  41.885  13.038
19570W        W91995  17.332   2.002  11.908
19571W        W91996  37.509   0.417   1.325
19572W        W91997  18.906  11.194   0.013
19573W        W91998  26.714  44.497  13.397
19574W        W91999  32.060  17.908  13.422
19575W        W92000  30.584   7.202  14.995
19576W        W92001  18.046  41.796  12.007
19577W        W92002  41.826  12.347  11.211
19578W        W92003   0.859  14.851   3.150
19579W        W92004  24.620  24.448   1.955
19580W        W92005   0.404   6.365  12.342
19581W        W92006   1.979   4.883  11.027
19582W        W92007  25.976  42.965   4.657
19583W        W92008  23.947  17.090   1.281
19584W        W92009  20.284  19.060   3.354
19585W        W92010  43.853  11.659  14.441
19586W        W92011  35.003  26.629   3.118
19587W        W92012   5.943   4.809  11.011
19588W        W92013  16.531  32.736  12.670
19589W        W92014  14.558  33.035   0.771
19590W        W92015  10.013  43.789  11.499
19591W        W92016  13.737  35.482  12.245
19592W        W92017  34.451  30.822  11.570
19593W        W92018   6.962  11.968  12.865
19594W        W92019   4.879  30.255  12.962
19595W        W92020  21.058  11.079  11.737
19596W        W92021   5.603   5.049   9.998
19597W        W92022  15.350  40.051   0.127
19598W        W92023  13.074  11.548   1.274
19599W        W92024   3.944  43.854   0.431
19600W        W92025  33.042  11.902  13.533
19601W        W92026   4.417  30.934   0.917
19602W        W92027   7.816  18.406  11.885
19603W        W92028   0.537  37.563  12.248
19604W        W92029  10.427  16.344   1.325
19605W        W92030  21.666   8.437  10.905
19606W        W92031  44.448  34.867   4.610
19607W        W92032  27.586   0.763  11.084
19608W        W92033  22.210  29.720  14.367
19609W        W92034  12.658  41.460   4.707
19610W        W92035  19.107  40.353   2.136
19611W        W92036  30.704  19.820  11.171
19612W        W92037  40.064  13.063  11.255
19613W        W92038  37.132  25.393   2.548
19614W        W92039   4.371  36.386  12.833
19615W        W92040  35.313  39.463  13.812
19616W        W92041  14.520  18.069  11.911
19617W        W92042   8.975  10.566   3.509
19618W        W92043   8.277  29.590  12.121
19619W        W92044  17.254   8.477  11.489
19620W        W92045  12.142  22.087   9.705
19621W        W92046  37.027  14.830  14.373
19622W        W92047  40.068   7.315  14.281
19623W        W92048  33.537  37.075  13.697
19624W        W92049   1.232  40.701  13.409
19625W        W92050  37.622  21.206  13.510
19626W        W92051  38.391  27.426   0.795
19627W        W92052  42.763   7.336   1.356
19628W        W92053  34.580   4.290  11.895
19629W        W92054  41.813  33.503   1.725
19630W        W92055  42.354   3.919  13.366
19631W        W92056   3.289  34.433   3.905
19632W        W92057  41.362   8.195  13.080
19633W        W92058   1.901  33.669  14.897
19634W        W92059  11.169   4.268  11.030
19635W        W92060  44.015  27.960  12.487
19636W        W92061  32.383  20.737  14.029
19637W        W92062  38.503   0.274   1.330
19638W        W92063   5.332   3.296   1.727
19639W        W92064  12.346  18.204   1.924
19640W        W92065   1.803   2.883  10.689
19641W        W92066  22.577   7.941  12.032
19642W        W92067  42.948  23.126   1.719
19643W        W92068  42.036  25.743  11.177
19644W        W92069  11.186   9.863   3.278
19645W        W92070  35.215  34.524   2.383
19646W        W92071  25.284  36.120  14.456
19647W        W92072  29.688  40.951  11.641
19648W        W92073  17.504  33.114  12.820
19649W        W92074  18.726   5.722  13.314
19650W        W92075  33.456   0.436   3.345
19651W        W92076  32.893  15.584   2.801
19652W        W92077  31.226   3.267  14.985
19653W        W92078  25.356  42.970   4.654
19654W        W92079  13.480   4.751   5.086
19655W        W92080  35.019  43.934   1.413
19656W        W92081  24.691  28.682  12.895
19657W        W92082  15.649  11.211  11.601
19658W        W92083  34.576  24.039  12.511
19659W        W92084  35.014  32.798  12.497
19660W        W92085  13.161  23.890  10.230
19661W        W92086  39.361  42.413  11.869
19662W        W92087  12.225  23.795  10.650
19663W        W92088  26.265  26.054  14.888
19664W        W92089  14.072  31.650  14.035
19665W        W92090  34.277   1.796   1.825
19666W        W92091  15.597   6.956   1.275
19667W        W92092  41.504  33.064   1.851
19668W        W92093  44.409  36.168   4.435
19669W        W92094  12.721  39.566  14.427
19670W        W92095   9.077  22.212  14.163
19671W        W92096   5.648  12.255  12.998
19672W        W92097   2.346   6.707   4.761
19673W        W92098  10.984   1.122  14.445
19674W        W92099  20.667  16.772   3.801
19675W        W92100   0.311   4.003  12.486
19676W        W92101  42.456  28.202  10.990
19677W        W92102  31.869   3.578  11.681
19678W        W92103  36.359  20.538   2.253
19679W        W92104   8.210  33.957   4.551
19680W        W92105  27.671  22.578   1.850
19681W        W92106  30.327  34.593   0.218
19682W        W92107  29.644  24.754   0.336
19683W        W92108   4.690  12.874   0.902
19684W        W92109  37.259  26.083   0.477
19685W        W92110  14.716  15.718  13.662
19686W        W92111  13.676  26.739  12.860
19687W        W92112  41.896  36.426   3.702
19688W        W92113  21.105   2.282  12.515
19689W        W92114  15.309  26.020  14.637
19690W        W92115  13.661  32.686  11.995
19691W        W92116  35.335  24.187   1.932
19692W        W92117  17.551  20.247   2.787
19693W        W92118  13.944  15.336  12.066
19694W        W92119   8.175   7.297   2.218
19695W        W92120  36.685  16.476  11.194
19696W        W92121  42.042   0.833  11.142
19697W        W92122  14.502  21.175   3.084
19698W        W92123  26.927  26.189   0.488
19699W        W92124   4.811  28.551  11.652
19700W        W92125  30.590   3.702  13.251
19701W        W92126  32.291  24.642  10.705
19702W        W92127   1.380  12.781  13.011
19703W        W92128   9.692  30.929   4.445
19704W        W92129  40.820   6.308   0.943
19705W        W92130   7.246  10.268   3.352
19706W        W92131  41.735  25.639  13.446
19707W        W92132  39.934  17.822   3.648
19708W        W92133  18.629  17.276   5.107
19709W        W92134   4.616  36.708   4.044
19710W        W92135  19.277  37.052  11.974
19711W        W92136  24.607  10.704   0.015
19712W        W92137   1.485  39.267  10.683
19713W        W92138  13.063  35.314  13.268
19714W        W92139   2.019  24.045   3.428
19715W        W92140  20.285  23.857  13.881
19716W        W92141  18.765  10.187   1.423
19717W        W92142  35.670  31.613   4.262
19718W        W92143  44.991  26.934  12.560
19719W        W92144   7.251   6.457  12.906
19720W        W92145  39.808  26.717  12.949
19721W        W92146  41.505   8.979   0.872
19722W        W92147  26.049  23.062   2.351
19723W        W92148  14.172  31.118   1.703
19724W        W92149  27.384  20.029  11.050
19725W        W92150   4.237  43.388   0.443
19726W        W92151   9.222  42.871  11.902
19727W        W92152  34.196  18.203  14.000
19728W        W92153  20.710   8.172   0.246
19729W        W92154  13.533  12.093  13.030
19730W        W92155  10.212   8.622   0.919
19731W        W92156  28.505  30.918  11.563
19732W        W92157   8.028  35.937  12.408
19733W        W92158  37.680  30.628  13.466
19734W        W92159   9.113   0.987  14.287
19735W        W92160  39.513  29.911   4.605
19736W        W92161  41.112  40.338   0.840
19737W        W92162  28.279   2.987  13.293
19738W        W92163  44.705   2.787   3.532
19739W        W92164  19.774   7.313  10.678
19740W        W92165   5.712  11.111  14.850
19741W        W92166  39.638  25.083  14.853
19742W        W92167  43.018  31.007   3.303
19743W        W92168  16.723  14.747  10.870
19744W        W92169  35.979  27.586   0.370
19745W        W92170  25.475  13.800   0.442
19746W        W92171  40.110  30.991  12.463
19747W        W92172  39.901  41.479  14.325
19748W        W92173  29.451  24.147  11.460
19749W        W92174  43.135   6.849   2.848
19750W        W92175  21.943  25.965  11.294
19751W        W92176  37.650  13.154   5.060
19752W        W92177  21.294   5.953  14.340
19753W        W92178  38.565  26.217  11.587
19754W        W92179  14.081   6.555   1.624
19755W        W92180  34.692  20.347   4.723
19756W        W92181  19.149  13.656   1.031
19757W        W92182  17.739  35.137   2.061
19758W        W92183  31.127  28.394  11.678
19759W        W92184  41.535   7.782   2.789
19760W        W92185  10.426  12.595   3.590
19761W        W92186  24.625  16.687  12.129
19762W        W92187  42.337   0.363   3.711
19763W        W92188   9.427  37.606   3.271
19764W        W92189  17.583  12.001   4.589
19765W        W92190   1.664   6.877   4.106
19766W        W92191  20.310  43.297  12.442
19767W        W92192  18.066  38.331  14.691
19768W        W92193  25.945   2.739   2.466
19769W        W92194  28.486  25.169   1.945
19770W        W92195   0.328  38.870  11.564
19771W        W92196  44.914  28.454   2.344
19772W        W92197  16.224  10.609  10.646
19773W        W92198  21.046  14.846  13.963
19774W        W92199  44.237   9.831   1.228
19775W        W92200  21.735  14.981   4.048
19776W        W92201   3.250  11.109  11.696
19777W        W92202  37.662   9.645   4.875
19778W        W92203  43.492  32.058   1.261
19779W        W92204   8.504  42.521  12.194
19780W        W92205  28.539  37.105  13.887
19781W        W92206  34.502   9.289   4.568
19782W        W92207  13.250   4.018   3.348
19783W        W92208  33.111  22.928  12.035
19784W        W92209   9.330  35.143   1.004
19785W        W92210   8.852  17.285  12.158
19786W        W92211  38.531  18.111  14.322
19787W        W92212  16.655   8.947   0.315
19788W        W92213  27.368   3.317   3.822
19789W        W92214   3.270  35.891   0.366
19790W        W92215  16.722  23.244   3.394
19791W        W92216  36.148   8.320   2.356
19792W        W92217  17.588  21.212  13.773
19793W        W92218   3.404  24.298   3.625
19794W        W92219  17.275  36.519  12.413
19795W        W92220  30.410  30.927  11.604
19796W        W92221   7.244  39.393   2.942
19797W        W92222   0.851  28.179   2.670
19798W        W92223  44.960  39.321  11.569
19799W        W92224   3.152  34.493   0.437
19800W        W92225  37.948  31.895   0.946
19801W        W92226   6.733   3.352   4.768
19802W        W92227  39.298   9.829  11.474
19803W        W92228  40.302  14.996  13.470
19804W        W92229  26.602   4.090   2.271
19805W        W92230  31.074   0.511   1.943
19806W        W92231  11.645  15.590  12.570
19807W        W92232  21.508  25.575   2.410
19808W        W92233  26.080  23.316   4.281
19809W        W92234   1.221  30.231  11.535
19810W        W92235  36.313  10.254  13.325
19811W        W92236  34.812  13.321   0.377
19812W        W92237  30.428  12.206  10.529
19813W        W92238  36.131   4.480   4.367
19814W        W92239  35.853  13.875  11.209
19815W        W92240  36.779  21.549  11.888
19816W        W92241  22.483   9.168  13.904
19817W        W92242  44.448  29.666   0.914
19818W        W92243  44.841  27.421   2.247
19819W        W92244  29.991   8.698   3.272
19820W        W92245  13.378  27.031  10.519
19821W        W92246   4.373  28.131  12.468
19822W        W92247   7.685  32.084  14.978
19823W        W92248  33.438  11.830   3.606
19824W        W92249   3.491  16.393   1.178
19825W        W92250   8.614   4.203   0.835
19826W        W92251  12.751  40.367  14.884
19827W        W92252  23.683  33.518   1.137
19828W        W92253  12.803  28.380   0.423
19829W        W92254  41.744  39.080   1.484
19830W        W92255   0.792   8.668   0.837
19831W        W92256  16.289  44.267   4.207
19832W        W92257  16.333  23.567  12.268
19833W        W92258  14.586  23.343   0.335
19834W        W92259  39.531  18.573   4.127
19835W        W92260  30.534   3.892  10.893
19836W        W92261   8.196  11.816  10.662
19837W        W92262  21.428  26.658   4.951
19838W        W92263   1.999  38.922   4.993
19839W        W92264  23.142  13.753   3.924
19840W        W92265  36.609  27.441  12.492
19841W        W92266  38.060   1.874   0.698
19842W        W92267  13.221   3.062  11.831
19843W        W92268  11.168  44.907   4.319
19844W        W92269   7.192  24.295   0.330
19845W        W92270  29.605  22.520   3.779
19846W        W92271  32.853   3.320  11.597
19847W        W92272  40.408  32.601  13.585
19848W        W92273  25.735  12.836   0.334
19849W        W92274  32.312  38.477   0.776
19850W        W92275  42.476  26.874  10.575
19851W        W92276   6.275  29.254  13.910
19852W        W92277  27.455  22.114   1.796
19853W        W92278  29.105  43.778  12.055
19854W        W92279  17.188  27.552   0.128
19855W        W92280   5.259  24.114   1.761
19856W        W92281  38.339  35.461   1.179
19857W        W92282   0.261  15.710  10.478
19858W        W92283  40.572  17.527  13.834
19859W        W92284  24.634   6.710  10.536
19860W        W92285  10.909  21.587  14.983
19861W        W92286   5.358  19.614  14.916
19862W        W92287  37.342  37.119  14.000
19863W        W92288  14.260  42.365  14.660
19864W        W92289  16.288   1.865   1.360
19865W        W92290   1.329  35.621   1.923
19866W        W92291  25.620  24.205  10.627
19867W        W92292  27.173  37.832  11.078
19868W        W92293  44.111  20.810   0.884
19869W        W92294   1.814  44.234   2.184
19870W        W92295  34.749   6.737   0.433
19871W        W92296   9.435  12.995  10.817
19872W        W92297  16.677  19.225   4.707
19873W        W92298   7.540  30.864   0.410
19874W        W92299   8.255  20.636   0.559
19875W        W92300   6.325   5.809  12.540
19876W        W92301   2.319   2.499  11.412
19877W        W92302  20.698   8.589  14.899
19878W        W92303  43.802  13.357   4.631
19879W        W92304   5.380  41.085  13.809
19880W        W92305  28.853   2.187  12.012
19881W        W92306  12.886   4.980   4.284
19882W        W92307   9.511  33.923  12.351
19883W        W92308  32.944   3.949   0.865
19884W        W92309  12.006  16.685   0.028
19885W        W92310  40.911   7.048  11.462
19886W        W92311   7.667  26.555   0.871
19887W        W92312  41.334  30.674  10.808
19888W        W92313  24.134  11.691   1.161
19889W        W92314  14.060  30.675  13.971
19890W        W92315  17.606  33.601  11.578
19891W        W92316  44.955  12.074   2.526
19892W        W92317  29.702  27.178  10.781
19893W        W92318  20.663  41.306   2.432
19894W        W92319  43.194  28.645   3.048
19895W        W92320  33.547  31.625  13.297
19896W        W92321  29.189  15.273  13.876
19897W        W92322  42.312  44.013   4.179
19898W        W92323   1.446  38.365   1.998
19899W        W92324  10.406  31.542  10.580
19900W        W92325  26.090  16.898  12.058
19901W        W92326  42.748  23.627  11.682
19902W        W92327   6.399  35.301  10.372
19903W        W92328  31.976   3.030  13.340
19904W        W92329  43.789   9.899   3.814
19905W        W92330   1.287  40.845   4.028
19906W        W92331   0.164  16.558   4.122
19907W        W92332  24.225   1.630   4.947
19908W        W92333  19.060  37.846   1.326
19909W        W92334  40.439  25.211   3.867
19910W        W92335  24.772  29.499  14.253
19911W        W92336   0.852  12.171  14.590
19912W        W92337  38.322   6.228  13.141
19913W        W92338  23.170  22.851   4.100
19914W        W92339  21.139  12.391  10.656
19915W        W92340  44.462  15.503  11.117
19916W        W92341  26.952  12.679   4.270
19917W        W92342  19.036  32.461   2.773
19918W        W92343  34.064  34.168   1.790
19919W        W92344  24.644  13.314   3.238
19920W        W92345  25.957  30.632   1.663
19921W        W92346   4.483   1.246   3.568
19922W        W92347  23.124   9.541   2.375
19923W        W92348  19.124  22.726  10.861
19924W        W92349  26.480   9.234  10.652
19925W        W92350  11.228  14.416   4.605
19926W        W92351  38.603  13.765  12.048
19927W        W92352  36.018  37.425  11.580
19928W        W92353  17.198  33.890  13.545
19929W        W92354   9.727   6.646   3.709
19930W        W92355  43.241  40.847   0.210
19931W        W92356   7.316  26.233   2.840
19932W        W92357   0.035   4.867   2.795
19933W        W92358  43.513  13.257  10.659
19934W        W92359   1.340   8.380  10.676
19935W        W92360   9.910   4.007   0.241
19936W        W92361  25.890  44.896  14.559
19937W        W92362  26.244  28.753   2.887
19938W        W92363  34.452  43.435  12.232
19939W        W92364   4.980  23.203  12.932
19940W        W92365  28.873  19.512  14.471
19941W        W92366  20.608   1.982   3.233
19942W        W92367  34.225  28.247   0.454
19943W        W92368  34.477  36.885  14.268
19944W        W92369  40.312  44.453   9.925
19945W        W92370  19.682  24.154  13.436
19946W        W92371  44.039   7.729  13.406
19947W        W92372  12.394  26.596  14.891
19948W        W92373  17.165  25.464  11.296
19949W        W92374  38.792  29.583  14.471
19950W        W92375  42.041  11.181  10.580
19951W        W92376  17.864  17.587   1.037
19952W        W92377  18.983  16.145   2.723
19953W        W92378  20.796  24.541   1.850
19954W        W92379  33.119  28.682   4.104
19955W        W92380  31.082  39.066  10.213
19956W        W92381  26.398  14.441   0.334
19957W        W92382  22.367  29.419   0.824
19958W        W92383  26.254  23.064  10.532
19959W        W92384  19.178  14.831  11.102
19960W        W92385  32.408  28.457   0.729
19961W        W92386  40.062   9.105   3.228
19962W        W92387  26.247   9.424   4.176
19963W        W92388  41.333   0.420   0.758
19964W        W92389   5.907  37.382  11.684
19965W        W92390  41.545  29.505  14.555
19966W        W92391  38.512  17.560  12.562
19967W        W92392  26.506  31.621   1.347
19968W        W92393   9.373  43.869   2.736
19969W        W92394   9.301  22.468   3.694
19970W        W92395  16.699  19.609   3.883
19971W        W92396  42.110  24.931   2.344
19972W        W92397   4.953  19.688  13.775
19973W        W92398  37.957  39.311   4.676
19974W        W92399   4.250  38.474  10.712
19975W        W92400   9.871  39.966  14.012
19976W        W92401  24.166  15.951  13.307
19977W        W92402  43.799   4.366  12.406
19978W        W92403  32.536  36.296   4.096
19979W        W92404  31.467  11.193  11.681
19980W        W92405  25.214  29.078   2.186
19981W        W92406  19.018  37.623   2.698
19982W        W92407  20.223   7.243  12.040
19983W        W92408  20.287  28.942   0.283
19984W        W92409  21.178  25.408   3.268
19985W        W92410  12.292  13.721   4.874
19986W        W92411  33.400  42.041   2.306
19987W        W92412  22.613  44.277   2.627
19988W        W92413  43.707  32.007  12.916
19989W        W92414  21.507  21.881  13.902
19990W        W92415  26.474  43.056  11.459
19991W        W92416  17.823   0.577  10.678
19992W        W92417  35.360   3.369  11.912
19993W        W92418  40.834  37.038   2.117
19994W        W92419   9.263  34.117  14.813
19995W        W92420   1.848   6.783  11.587
19996W        W92421  34.941  30.553   3.727
19997W        W92422  24.616  26.071   2.245
19998W        W92423  14.305  23.482  11.595
19999W        W92424  25.353  31.877  12.890
20000W        W92425  10.447  29.571  14.994
20001W        W92426   2.802   7.078   2.824
20002W        W92427   9.699  12.305  13.558
20003W        W92428  37.605  21.721   1.274
20004W        W92429  37.861  23.552  11.192
20005W        W92430  11.603  16.684  10.923
20006W        W92431  32.934  38.981   2.671
20007W        W92432  40.504   8.419  10.653
20008W        W92433  28.408  22.149   1.445
20009W        W92434  13.627  35.093  11.432
20010W        W92435  11.447  35.422  12.527
20011W        W92436  20.463  16.258   3.731
20012W        W92437  16.659   8.205  10.818
20013W        W92438  15.580   3.497  13.437
20014W        W92439   3.426  33.893  12.028
20015W        W92440  39.177  18.071  13.782
20016W        W92441   0.537  13.540  14.787
20017W        W92442  10.109  30.830  14.412
20018W        W92443  13.244  39.715   1.133
20019W        W92444  27.126  17.827  12.129
20020W        W92445   7.912  31.924  12.477
20021W        W92446   6.552   8.456  13.024
20022W        W92447   2.841  25.624   1.628
20023W        W92448   0.861   5.381   2.764
20024W        W92449  35.036  44.503  12.803
20025W        W92450  40.842  12.653  12.598
20026W        W92451  10.740  38.274   4.664
20027W        W92452  26.706  34.994  11.903
20028W        W92453  30.863  22.575   0.691
20029W        W92454  20.993   7.795  10.945
20030W        W92455  44.444  32.447   0.017
20031W        W92456  37.257  31.582  10.657
20032W        W92457  28.845  19.702  13.557
20033W        W92458  16.061  37.768  14.403
20034W        W92459  42.272  22.111  13.970
20035W        W92460   4.952   7.213   0.845
20036W        W92461  21.969  19.328  12.999
20037W        W92462   1.925  20.132   4.521
20038W        W92463  11.132  32.982   3.784
20039W        W92464  34.003  19.556   1.162
20040W        W92465  19.283  22.107   1.807
20041W        W92466  33.386  19.489   0.450
20042W        W92467   5.689  10.189  11.581
20043W        W92468  15.578  23.998   1.799
20044W        W92469  20.061  30.159  11.202
20045W        W92470  12.717  15.636   0.981
20046W        W92471  24.990   9.482  12.990
20047W        W92472  27.655   5.372   0.754
20048W        W92473   1.520   8.660   0.336
20049W        W92474   7.793  17.976   4.962
20050W        W92475  44.155  21.279  13.854
20051W        W92476  15.764  42.858  10.234
20052W        W92477  20.093  38.879  11.554
20053W        W92478  34.936   8.163   2.222
20054W        W92479  10.350  23.162  12.413
20055W        W92480  32.535   2.896   2.178
20056W        W92481  12.800  35.826   2.528
20057W        W92482  21.330  24.053  14.841
20058W        W92483  36.830  19.624  13.073
20059W        W92484  19.885  14.832   2.824
20060W        W92485  19.046   4.931  12.387
20061W        W92486   1.881   9.912  11.963
20062W        W92487  30.835  42.965  12.582
20063W        W92488  11.747  40.283   0.308
20064W        W92489  25.041  28.738   3.345
20065W        W92490  33.176  38.705   4.111
20066W        W92491  12.220  23.530  13.392
20067W        W92492  30.470   8.795  14.113
20068W        W92493  20.566   0.963   4.909
20069W        W92494  17.446  39.355   0.039
20070W        W92495  27.048  43.726   4.190
20071W        W92496  22.140  23.414  12.367
20072W        W92497  16.070  28.501   3.782
20073W        W92498  10.766  27.149  11.474
20074W        W92499  37.874  18.218  13.111
20075W        W92500  40.393  36.790  11.994
20076W        W92501  24.493  33.884  11.139
20077W        W92502  24.210  25.493   0.831
20078W        W92503  38.409  37.256  11.096
20079W        W92504  41.789  32.391  12.979
20080W        W92505   5.232  16.793   0.767
20081W        W92506  28.474  35.680   3.786
20082W        W92507  38.997   2.161  14.075
20083W        W92508  11.296  41.004   2.124
20084W        W92509  30.015  11.910   1.839
20085W        W92510  11.373  23.987  10.213
20086W        W92511   9.393  29.640  14.274
20087W        W92512  37.743  20.955   9.979
20088W        W92513  30.522  20.146   0.799
20089W        W92514  37.558   9.933  13.129
20090W        W92515  27.705   8.192   0.896
20091W        W92516  18.000  26.197  12.165
20092W        W92517  35.949   2.478   1.866
20093W        W92518  42.874  43.260   2.088
20094W        W92519  11.405  43.315  14.485
20095W        W92520  43.431  12.579   3.254
20096W        W92521  10.088  25.083  12.627
20097W        W92522  15.682  40.726  10.518
20098W        W92523  38.863  15.846  10.833
20099W        W92524   3.750  35.189   1.228
20100W        W92525  10.705  42.782  11.968
20101W        W92526  17.495  23.636   1.326
20102W        W92527  41.794   1.505   3.926
20103W        W92528  13.189  31.169   1.921
20104W        W92529  20.820  15.037   3.262
20105W        W92530  41.300  42.949  13.010
20106W        W92531  13.144   4.164  10.093
20107W        W92532  17.556  17.247   3.166
20108W        W92533  21.061   8.605   4.674
20109W        W92534  26.508  36.441  10.786
20110W        W92535  23.335   3.309   2.871
20111W        W92536  43.850  41.535   3.442
20112W        W92537  40.957  28.565   1.188
20113W        W92538   4.040  39.375  11.592
20114W        W92539   5.821  39.983  14.277
20115W        W92540   9.658  36.480   0.638
20116W        W92541  34.600  34.423   3.846
20117W        W92542  31.042  23.359  10.951
20118W        W92543   1.639  20.223   0.163
20119W        W92544  23.598   0.693   0.304
20120W        W92545   5.949  32.638  11.965
20121W        W92546  40.843  29.549  11.260
20122W        W92547  14.354  34.937   0.863
20123W        W92548   0.105   5.644   4.554
20124W        W92549   3.285   3.254  12.026
20125W        W92550  15.541   0.832   0.798
20126W        W92551  36.557  15.404  10.642
20127W        W92552  11.361  41.736  11.957
20128W        W92553  44.602  23.187  12.326
20129W        W92554  39.801  11.372   4.096
20130W        W92555   7.352  25.464   3.294
20131W        W92556  25.971  41.729  11.182
20132W        W92557  43.778  27.556   0.332
20133W        W92558   7.960  41.777   4.621
20134W        W92559  18.971  28.910  13.869
20135W        W92560  42.477   6.922   3.617
20136W        W92561  10.471   6.971  14.943
20137W        W92562  34.555  11.312  14.353
20138W        W92563  34.015  23.008   3.374
20139W        W92564   4.871   6.955   4.128
20140W        W92565  35.291  37.544  12.541
20141W        W92566  21.146  32.974  12.071
20142W        W92567  23.741  21.766   3.668
20143W        W92568   5.819  26.387  14.908
20144W        W92569  20.490  25.691   1.342
20145W        W92570  21.203  30.081   2.514
20146W        W92571   8.266  20.929   4.982
20147W        W92572  27.676  30.581  11.503
20148W        W92573   3.203  37.123  12.516
20149W        W92574   2.791  30.632  10.609
20150W        W92575  28.623  42.252  10.405
20151W        W92576  26.416  32.744  12.570
20152W        W92577   7.837  25.556   0.794
20153W        W92578  43.875  41.443  12.198
20154W        W92579  37.873  43.385   2.277
20155W        W92580  33.037   2.904  11.868
20156W        W92581  16.063  16.102  11.565
20157W        W92582   2.776  12.758  11.516
20158W        W92583  23.556   0.785   3.202
20159W        W92584  16.632  25.320   3.335
20160W        W92585  34.480   6.326   2.121
20161W        W92586  39.990  15.085  10.679
20162W        W92587  28.706   2.012  11.144
20163W        W92588  34.988  30.510   4.661
20164W        W92589  32.876  32.139   3.278
20165W        W92590  14.164  13.793   4.310
20166W        W92591  12.979  40.512   4.661
20167W        W92592  31.050  44.441   1.251
20168W        W92593  26.474   1.732  12.086
20169W        W92594  30.085   0.315   3.406
20170W        W92595  33.207  21.574  11.156
20171W        W92596  31.123  22.880   3.876
20172W        W92597  37.011   1.511   2.377
20173W        W92598  33.012  27.564  10.849
20174W        W92599  13.501  20.189   0.762
20175W        W92600  14.739  16.329  11.996
20176W        W92601  44.531   4.610  13.568
20177W        W92602   5.333  16.619   2.802
20178W        W92603  33.681  34.187  13.288
20179W        W92604  34.501  42.546  13.351
20180W        W92605  36.937  10.570   3.190
20181W        W92606  11.198  19.398  14.415
20182W        W92607   4.492  10.090   0.884
20183W        W92608  12.991  38.107   2.246
20184W        W92609  13.841   3.976  14.513
20185W        W92610  41.751  23.566  12.840
20186W        W92611  35.177   9.756   1.965
20187W        W92612   6.725  22.104   4.491
20188W        W92613   1.865  34.125   2.864
20189W        W92614  28.987  11.034   2.556
20190W        W92615  18.724  33.157  10.988
20191W        W92616  38.032  38.748   2.381
20192W        W92617  28.048  18.100   4.349
20193W        W92618  32.206   7.265  10.178
20194W        W92619  18.725  20.632   3.690
20195W        W92620  22.665  36.951   4.657
20196W        W92621  25.105  14.633   0.736
20197W        W92622  36.980   3.034   3.680
20198W        W92623  40.989  21.659   3.089
20199W        W92624  21.507  14.797   3.620
20200W        W92625   5.957  35.046  11.610
20201W        W92626  25.692   2.981  12.454
20202W        W92627  41.279  10.146   1.840
20203W        W92628  43.008   5.330   4.412
20204W        W92629  27.170  37.080  14.740
20205W        W92630  36.590  36.245   1.147
20206W        W92631   8.947  43.798  13.259
20207W        W92632  12.582  25.274   5.508
20208W        W92633  20.268  12.173  11.502
20209W        W92634  30.113  12.738   3.656
20210W        W92635  22.511  29.089   4.282
20211W        W92636  15.406   9.127  12.673
20212W        W92637  31.101  15.088  11.229
20213W        W92638  25.250   2.377   4.209
20214W        W92639  10.902  24.798   1.397
20215W        W92640  24.462  31.597   2.583
20216W        W92641  33.772  20.836   1.356
20217W        W92642  37.512  15.064   2.110
20218W        W92643   8.274  40.298   3.126
20219W        W92644   4.852  39.747  10.607
20220W        W92645  23.396  11.196   5.204
20221W        W92646   8.203  20.599   4.563
20222W        W92647  19.309   1.262  11.114
20223W        W92648  21.028  42.407  11.435
20224W        W92649  11.359   6.277   4.405
20225W        W92650  36.378  32.897   1.193
20226W        W92651  20.596  23.015   4.513
20227W        W92652  11.460  13.857   2.822
20228W        W92653  20.227  19.246  13.543
20229W        W92654  20.396  26.373  10.778
20230W        W92655  20.004  41.689  11.965
20231W        W92656  33.022  24.785  11.187
20232W        W92657  41.849  41.442  12.952
20233W        W92658  22.792  21.853  10.137
20234W        W92659   4.919  18.696  12.911
20235W        W92660  39.954  32.147   0.783
20236W        W92661   3.611  32.113   4.053
20237W        W92662   1.375   1.879   2.309
20238W        W92663  10.445  22.995   4.171
20239W        W92664  37.822   3.915  12.536
20240W        W92665  25.974  29.460   4.358
20241W        W92666  39.059  12.318  10.933
20242W        W92667  26.000  15.120   3.859
20243W        W92668   4.544  33.926   0.241
20244W        W92669  32.929  37.888  14.351
20245W        W92670   3.080  29.701  12.467
20246W        W92671  25.528  39.072   3.943
20247W        W92672  12.844  28.669  10.695
20248W        W92673  16.731  44.944  14.894
20249W        W92674   6.368  17.159   0.466
20250W        W92675  23.913   3.364   4.082
20251W        W92676  39.266  34.649  10.356
20252W        W92677   0.557  20.680  10.811
20253W        W92678  26.113   6.891  11.303
20254W        W92679  44.915  37.562   2.909
20255W        W92680  11.335  18.733   0.464
20256W        W92681  39.102  37.105   1.660
20257W        W92682  29.777  31.650   4.161
20258W        W92683   6.374  27.347  14.190
20259W        W92684   6.857   6.082   1.329
20260W        W92685  42.486  40.653   2.176
20261W        W92686   1.020  33.626   5.038
20262W        W92687  39.461  29.008   3.292
20263W        W92688  32.600  16.524  14.815
20264W        W92689  44.926  14.191  14.205
20265W        W92690  30.703  43.230   3.210
20266W        W92691  25.824  22.131  12.985
20267W        W92692  29.227  34.933   4.227
20268W        W92693   0.197   6.714  11.595
20269W        W92694  17.281  28.514   3.322
20270W        W92695  44.862  33.515   1.222
20271W        W92696   6.862  29.211   3.430
20272W        W92697   0.604  12.325  12.552
20273W        W92698  36.997  29.004   1.386
20274W        W92699   1.429  26.617  14.523
20275W        W92700  38.459   2.710   2.198
20276W        W92701   3.429  31.761   1.767
20277W        W92702  22.451  12.869   5.023
20278W        W92703  23.158  42.871  12.423
20279W        W92704  38.326  27.349  14.337
20280W        W92705  15.293  15.088  14.515
20281W        W92706  15.885   3.713   0.796
20282W        W92707  38.926  20.333  13.601
20283W        W92708  24.910  28.233  13.005
20284W        W92709   8.224  32.073   2.412
20285W        W92710  40.926  27.434   1.110
20286W        W92711  39.853   1.891  12.513
20287W        W92712  41.242  12.919  12.446
20288W        W92713  33.046   9.405  10.686
20289W        W92714  18.225  42.497   4.396
20290W        W92715  16.701  21.516  11.500
20291W        W92716   5.325  16.240  13.914
20292W        W92717  36.937  23.639   1.144
20293W        W92718   5.297  38.580  14.486
20294W        W92719  36.851   5.892   0.041
20295W        W92720  12.324  13.268  13.517
20296W        W92721  38.846   4.182  10.163
20297W        W92722  15.808  26.952  13.352
20298W        W92723  18.939  43.924   4.090
20299W        W92724  20.970  20.549   3.248
20300W        W92725  32.211   0.833  11.037
20301W        W92726  24.734  22.094  10.613
20302W        W92727  25.270  35.998  13.369
20303W        W92728  14.148   7.958   3.664
20304W        W92729  22.285   3.210   3.314
20305W        W92730   6.313  24.321  14.742
20306W        W92731  17.262  42.528   4.734
20307W        W92732  34.142  12.714  14.829
20308W        W92733  41.380  30.009   4.395
20309W        W92734  38.571  26.492  14.659
20310W        W92735  22.074  23.517   4.617
20311W        W92736   6.293  19.317   2.859
20312W        W92737   7.154  36.853  14.050
20313W        W92738  42.547   3.228   0.429
20314W        W92739   7.754  14.789   3.392
20315W        W92740  28.311  44.857  12.031
20316W        W92741   0.260  33.829   1.414
20317W        W92742  24.013  40.010   2.773
20318W        W92743  20.678  14.107  14.822
20319W        W92744   2.826  34.442  12.419
20320W        W92745  29.510  15.627   4.863
20321W        W92746  27.921   6.590   2.831
20322W        W92747   4.167  13.330   2.271
20323W        W92748  22.574  38.927  10.020
20324W        W92749  11.708  19.410  11.557
20325W        W92750  31.867  10.743   1.863
20326W        W92751  21.375  35.365   3.601
20327W        W92752  19.295  22.785   3.154
20328W        W92753  33.777   8.834  10.219
20329W        W92754  44.568  44.832  11.066
20330W        W92755   5.370  23.534   1.964
20331W        W92756  40.311  23.538   1.349
20332W        W92757  43.785  21.666   5.496
20333W        W92758  12.988  35.959  14.544
20334W        W92759   0.405  41.559   1.667
20335W        W92760  44.680  15.713  14.093
20336W        W92761  35.896  38.867   1.443
20337W        W92762  26.599  36.579   0.727
20338W        W92763  26.598  16.639   2.450
20339W        W92764  36.815   0.154  12.911
20340W        W92765  20.030   4.828   2.855
20341W        W92766  39.987  15.319  14.741
20342W        W92767  38.681   6.275   2.743
20343W        W92768  13.123  38.313  13.057
20344W        W92769  28.610  11.777  13.440
20345W        W92770   2.977  26.097   1.788
20346W        W92771  36.390  39.875  10.676
20347W        W92772  13.213  35.059  14.126
20348W        W92773  26.098  13.142  14.227
20349W        W92774  39.202  38.427  13.458
20350W        W92775  24.354  28.554   2.632
20351W        W92776  12.308  32.644  11.561
20352W        W92777   5.891  13.623  11.113
20353W        W92778  38.805  10.289   1.375
20354W        W92779   0.206  22.042   0.448
20355W        W92780   1.697  28.851   1.215
20356W        W92781  15.412  14.070   0.258
20357W        W92782  14.838  32.587  13.440
20358W        W92783  30.146  30.187   1.997
20359W        W92784  14.101   9.011   3.665
20360W        W92785  36.546   1.787  10.296
20361W        W92786   9.266  24.095   0.259
20362W        W92787  15.995   8.305  12.644
20363W        W92788  18.257  10.804  10.446
20364W        W92789  14.531  38.530   3.508
20365W        W92790  26.810  24.014   4.131
20366W        W92791  29.837  16.064   1.761
20367W        W92792   4.916  36.365  12.309
20368W        W92793  11.148   5.832   0.243
20369W        W92794   8.043  22.111   2.367
20370W        W92795   6.344   2.200  10.712
20371W        W92796  15.275  37.532   4.110
20372W        W92797  12.720  19.453  14.289
20373W        W92798  27.600  31.877  10.384
20374W        W92799   7.427  25.664  13.433
20375W        W92800  30.972  22.268   1.418
20376W        W92801  30.474  26.902   4.419
20377W        W92802  29.599  42.213   2.788
20378W        W92803  10.682   9.368   2.238
20379W        W92804  34.038  11.665   1.280
20380W        W92805   2.164   1.218   3.216
20381W        W92806  27.417  11.874   3.576
20382W        W92807  12.470  41.951  12.405
20383W        W92808  41.894  16.326  14.489
20384W        W92809  38.470  19.452  13.417
20385W        W92810  12.441  20.830   0.353
20386W        W92811  12.644   8.926   2.795
20387W        W92812   7.336   9.767  14.436
20388W        W92813  23.500   6.330   4.027
20389W        W92814   4.377  44.355  11.887
20390W        W92815  19.573  26.013   1.755
20391W        W92816  32.553  10.815  12.835
20392W        W92817   1.177   5.738   1.698
20393W        W92818  43.818  14.276  12.029
20394W        W92819  21.157  11.413   2.914
20395W        W92820  20.049   0.408  10.329
20396W        W92821  24.144   1.664  12.426
20397W        W92822  20.155  16.149   1.455
20398W        W92823  37.320   3.760  12.516
20399W        W92824  42.859  11.897   1.295
20400W        W92825   0.386   6.046  13.838
20401W        W92826  15.118  23.880   3.346
20402W        W92827  31.881  11.411  10.649
20403W        W92828  34.998  32.478   4.391
20404W        W92829   3.942   7.942  12.887
20405W        W92830  29.916  27.650  10.952
20406W        W92831  41.965  22.429   3.812
20407W        W92832   4.839   0.573   2.721
20408W        W92833  13.127  14.351  14.883
20409W        W92834  26.009  42.000  12.201
20410W        W92835  17.623  24.820   4.187
20411W        W92836  19.317  35.959   0.690
20412W        W92837   9.880   4.752  14.896
20413W        W92838  11.865  19.243   1.849
20414W        W92839   5.788  33.344  13.428
20415W        W92840  11.269  18.911  13.355
20416W        W92841  42.905  34.179   4.646
20417W        W92842  19.567  18.152   2.618
20418W        W92843  20.346  18.739   2.963
20419W        W92844  43.756  25.027   0.460
20420W        W92845  42.302  42.315   4.533
20421W        W92846  22.004  29.131  14.108
20422W        W92847  17.091  41.057  14.953
20423W        W92848  32.317  31.712   3.761
20424W        W92849  18.183  33.518   3.273
20425W        W92850  11.630   5.814   0.471
20426W        W92851  20.366  39.768  13.744
20427W        W92852  27.058  31.780   4.981
20428W        W92853   5.327  29.203  14.395
20429W        W92854  17.555  15.803   3.160
20430W        W92855  19.221  20.715   3.292
20431W        W92856  19.581  20.772   4.534
20432W        W92857  34.058  20.791   4.521
20433W        W92858  37.721  36.801   0.297
20434W        W92859  32.666  23.014   4.871
20435W        W92860  44.440  29.526   0.177
20436W        W92861  15.721  34.673  12.079
20437W        W92862  21.559  36.413   4.600
20438W        W92863   5.691  38.858  13.491
20439W        W92864  17.825   8.397   2.783
20440W        W92865  23.192   9.455  11.148
20441W        W92866  41.803  43.341  14.990
20442W        W92867   3.638  38.334   3.827
20443W        W92868  14.381   4.360  12.451
20444W        W92869   6.483  40.382   3.346
20445W        W92870  19.135  20.970   0.000
20446W        W92871   6.321  27.069   3.244
20447W        W92872  37.626  21.216  12.034
20448W        W92873   1.346  38.837  11.861
20449W        W92874  33.840  40.367  13.861
20450W        W92875  14.699  24.598   0.347
20451W        W92876  36.747  37.662   1.387
20452W        W92877  32.857  44.927   3.048
20453W        W92878  44.818  19.240   2.657
20454W        W92879   9.763   1.231   4.648
20455W        W92880  13.072  27.186  14.378
20456W        W92881  21.107  20.177  11.725
20457W        W92882  14.738   8.466   2.916
20458W        W92883  12.179  16.678  13.878
20459W        W92884  13.364  40.288  14.421
20460W        W92885  35.169  28.978   2.036
20461W        W92886  21.328  10.353   1.465
20462W        W92887  43.768  26.406  14.883
20463W        W92888  34.580  41.956  11.544
20464W        W92889   4.582  39.252   4.258
20465W        W92890  39.920  15.659   0.130
20466W        W92891   8.244  40.619  11.491
20467W        W92892   6.302  42.436   3.643
20468W        W92893  26.580  18.586  14.535
20469W        W92894  36.042  18.725  11.887
20470W        W92895  40.085   1.396  13.491
20471W        W92896   0.495   1.691  14.421
20472W        W92897  43.500  10.339   3.769
20473W        W92898  34.701  28.443   0.504
20474W        W92899  38.567  31.921  12.938
20475W        W92900  20.283  28.178  14.345
20476W        W92901  23.073  32.941   0.878
20477W        W92902  19.044   9.767  11.934
20478W        W92903  28.948   0.867   2.755
20479W        W92904  20.135  23.757  12.968
20480W        W92905  17.619  44.228  11.594
20481W        W92906  15.018  42.749  14.836
20482W        W92907  19.701  29.089   4.549
20483W        W92908  14.547  32.143   0.871
20484W        W92909  13.198  39.939  10.775
20485W        W92910   9.711  14.530   3.164
20486W        W92911  21.188  38.538  10.752
20487W        W92912  34.746  25.556  14.044
20488W        W92913   9.820   4.075   4.145
20489W        W92914  18.553  28.039   5.020
20490W        W92915   4.733   0.721  12.052
20491W        W92916   7.730  15.766  13.277
20492W        W92917  10.702  31.121   4.031
20493W        W92918   8.138   6.636  14.898
20494W        W92919  26.921   0.585   4.311
20495W        W92920  12.078  16.156  13.906
20496W        W92921  19.072   8.933  11.019
20497W        W92922  23.053  28.719   2.389
20498W        W92923   2.397  27.261   0.960
20499W        W92924   5.146  41.350   3.671
20500W        W92925   6.964  19.392   2.185
20501W        W92926  28.564  35.335   4.652
20502W        W92927   4.723   2.986   5.158
20503W        W92928  15.990  10.080  14.722
20504W        W92929  39.691  43.489   1.698
20505W        W92930  37.444  24.148  14.290
20506W        W92931  35.426   9.308  13.552
20507W        W92932  15.747   3.745   5.507
20508W        W92933  27.547  28.104   1.234
20509W        W92934  16.248   0.218   2.741
20510W        W92935  23.146  35.534   4.373
20511W        W92936  24.127  33.642   4.711
20512W        W92937   8.881   8.551   1.700
20513W        W92938  12.284  20.157   3.172
20514W        W92939   2.316  42.467   1.806
20515W        W92940  14.657  34.020   1.350
20516W        W92941  24.222  21.507  14.445
20517W        W92942   8.234  15.177   0.821
20518W        W92943  23.771   2.651   0.194
20519W        W92944  37.583   7.609   1.752
20520W        W92945  28.135  12.516   5.121
20521W        W92946  16.859  35.505   4.686
20522W        W92947  18.029  12.454   4.168
20523W        W92948  30.407  23.598   0.757
20524W        W92949  10.635  30.920   1.660
20525W        W92950  13.111  33.952   1.409
20526W        W92951  21.662  13.322   1.306
20527W        W92952  27.167   3.350  14.733
20528W        W92953   1.497  13.069  11.480
20529W        W92954   9.075  12.543   2.439
20530W        W92955   7.884  41.904  11.721
20531W        W92956   6.754  43.463   0.372
20532W        W92957  30.847  41.960   3.601
20533W        W92958   4.893  12.710   0.369
20534W        W92959  26.514  31.806  12.212
20535W        W92960  20.869  10.129   5.398
20536W        W92961  11.783  24.586   9.719
20537W        W92962  37.406  35.925  10.273
20538W        W92963   5.155  15.867  14.855
20539W        W92964  20.777  13.166  12.453
20540W        W92965  17.998  10.752  13.863
20541W        W92966  25.563  34.619   2.688
20542W        W92967  38.934  16.836   2.263
20543W        W92968   9.875  29.395  11.167
20544W        W92969  26.780   8.222   2.845
20545W        W92970  36.970  18.325  12.350
20546W        W92971  43.454  12.734  10.550
20547W        W92972   6.290   9.327   3.309
20548W        W92973  14.057  24.835  11.552
20549W        W92974  16.632   4.304  13.851
20550W        W92975  19.661   0.041  13.358
20551W        W92976  23.791  21.712  12.246
20552W        W92977  16.627  34.629   3.616
20553W        W92978  14.755  13.058  10.927
20554W        W92979  44.370  20.777  12.852
20555W        W92980   0.053  40.582   3.213
20556W        W92981  20.487  19.357  13.975
20557W        W92982  21.505  21.103   0.142
20558W        W92983   6.304  40.399   1.926
20559W        W92984  27.261   8.469   4.149
20560W        W92985   1.174  27.200   3.691
20561W        W92986   3.880  15.363  14.992
20562W        W92987  18.074  21.214  11.143
20563W        W92988  36.384  24.279   4.269
20564W        W92989  14.684   4.270  13.929
20565W        W92990  11.863  33.410   2.705
20566W        W92991   2.833   7.126   3.694
20567W        W92992  12.741  39.521  13.475
20568W        W92993  42.962   2.197   4.200
20569W        W92994  38.835   9.615  13.931
20570W        W92995  18.200   1.442   0.784
20571W        W92996  13.050   5.387  11.418
20572W        W92997  31.566  38.094  12.413
20573W        W92998  35.161   4.223   1.288
20574W        W92999  30.497  39.970  13.049
20575W        W93000   6.784  26.658  11.092
20576W        W93001  40.023  10.715  12.180
20577W        W93002  20.383  28.407   1.941
20578W        W93003  41.967  27.664  12.101
20579W        W93004   5.226   2.212   4.172
20580W        W93005  11.241   0.232  10.589
20581W        W93006  28.971  27.225   3.130
20582W        W93007  22.487  24.387  12.535
20583W        W93008   8.214   1.970  10.709
20584W        W93009  14.657  29.483  13.100
20585W        W93010   7.720  44.713   3.538
20586W        W93011  25.207  41.599   0.489
20587W        W93012  24.221  35.969   2.642
20588W        W93013   3.951  34.001   3.132
20589W        W93014  31.691   5.817   0.355
20590W        W93015   3.265  33.644  11.592
20591W        W93016   0.729   8.117   3.835
20592W        W93017  23.610  41.774   2.273
20593W        W93018  26.735  20.170   1.693
20594W        W93019   7.922  15.760  14.174
20595W        W93020  37.134   6.289  14.844
20596W        W93021  27.783   6.238  11.726
20597W        W93022  22.642  42.230   0.805
20598W        W93023  17.040   8.269  10.461
20599W        W93024  31.525  41.657  12.328
20600W        W93025   5.132  25.553  14.848
20601W        W93026  10.239  25.579  12.556
20602W        W93027  16.286   3.797   1.286
20603W        W93028  30.898  29.053   1.288
20604W        W93029  28.392  26.896  11.078
20605W        W93030  36.166  32.963   2.293
20606W        W93031  29.746  26.172  14.948
20607W        W93032  40.838   4.870   1.978
20608W        W93033  35.759  38.802  10.894
20609W        W93034   1.726   0.862   2.047
20610W        W93035  18.809  18.633   2.180
20611W        W93036  32.884  15.199   0.308
20612W        W93037  25.065  24.293   2.195
20613W        W93038  33.772  28.015  12.859
20614W        W93039   9.162  30.657   3.721
20615W        W93040  23.039  19.815  13.520
20616W        W93041  38.870  29.185  14.825
20617W        W93042  44.990  33.968  12.896
20618W        W93043   0.128  19.926   3.861
20619W        W93044   5.366  20.009  12.838
20620W        W93045  16.819  19.553  10.602
20621W        W93046  40.997  13.242   3.029
20622W        W93047  28.136  34.470   1.406
20623W        W93048  30.197   2.457  14.788
20624W        W93049   4.928  38.768  14.162
20625W        W93050  42.539  11.228  10.796
20626W        W93051  10.352  44.306  12.847
20627W        W93052  40.313  32.609  11.998
20628W        W93053  19.003  44.433   3.268
20629W        W93054   3.958  43.292  13.857
20630W        W93055  23.713  17.294   0.253
20631W        W93056  29.444  38.645  14.427
20632W        W93057  26.291   6.846  10.821
20633W        W93058  29.481  44.104   0.460
20634W        W93059  43.307  23.705   3.998
20635W        W93060  31.123  34.493   3.633
20636W        W93061  28.489  41.513  11.401
20637W        W93062  19.623  39.344  13.044
20638W        W93063  43.494  15.527   2.323
20639W        W93064   6.495  30.913   0.369
20640W        W93065  28.016  33.560   4.654
20641W        W93066  20.729  12.143  13.487
20642W        W93067  33.178   9.773  12.617
20643W        W93068  34.620  36.645  12.523
20644W        W93069  13.368  27.684   0.705
20645W        W93070  17.327  24.198  10.840
20646W        W93071  19.582  35.737   4.589
20647W        W93072   3.440  44.535   0.885
20648W        W93073  35.608  31.016   4.583
20649W        W93074  36.151  17.270  12.842
20650W        W93075   1.247  18.820   3.821
20651W        W93076  23.294  44.036   4.473
20652W        W93077  31.127   3.950  14.493
20653W        W93078   5.838  31.466   2.291
20654W        W93079  28.280   6.701   4.584
20655W        W93080  41.514  42.293   4.116
20656W        W93081  12.320  44.462   2.104
20657W        W93082  30.073  35.872  12.792
20658W        W93083  44.562  36.931   3.823
20659W        W93084   0.950  31.460   4.312
20660W        W93085   7.271  39.001   2.145
20661W        W93086   7.295  18.156   1.874
20662W        W93087   8.810  20.217   1.801
20663W        W93088  29.655  31.352   1.422
20664W        W93089  14.664  28.921   1.339
20665W        W93090  28.439   5.322   3.225
20666W        W93091   2.844  23.210   0.537
20667W        W93092   0.976  19.196  13.384
20668W        W93093   2.295  13.000   4.978
20669W        W93094  44.338   6.942   1.778
20670W        W93095  23.078  10.322  14.697
20671W        W93096   5.493  31.828  11.067
20672W        W93097   0.367  33.584   4.627
20673W        W93098   2.476   1.988  14.283
20674W        W93099  34.030  32.870  12.507
20675W        W93100   5.720  16.805   0.957
20676W        W93101  20.807  44.002  12.039
20677W        W93102  37.390  12.351  14.859
20678W        W93103  34.918   5.439   0.246
20679W        W93104  43.462   3.893  13.487
20680W        W93105  39.779  35.827  10.663
20681W        W93106  42.290  16.586  12.935
20682W        W93107  36.625  27.624  11.189
20683W        W93108  11.674  37.315   1.749
20684W        W93109   3.793  25.636   0.281
20685W        W93110  24.548  15.778  11.359
20686W        W93111  35.564  14.190  13.751
20687W        W93112  14.695  19.112  13.125
20688W        W93113  15.035  24.938   4.640
20689W        W93114  26.666  28.945   3.555
20690W        W93115  19.103   7.422  14.465
20691W        W93116  22.984  32.513  12.956
20692W        W93117  16.123  35.144   4.217
20693W        W93118  13.055  39.141  12.199
20694W        W93119  14.758  36.873  12.547
20695W        W93120  22.735   5.238  14.914
20696W        W93121   7.937  44.111   1.550
20697W        W93122  27.257  20.793   1.236
20698W        W93123  24.621  25.546  10.846
20699W        W93124  18.491  29.932   0.964
20700W        W93125  13.614   8.148   4.539
20701W        W93126   2.717   0.962   2.812
20702W        W93127  29.630  36.977  13.321
20703W        W93128  22.762  40.371   1.472
20704W        W93129  43.930  36.796   0.850
20705W        W93130  29.855   0.325   2.009
20706W        W93131  25.072  38.270  13.802
20707W        W93132  17.652  18.357   3.717
20708W        W93133  13.193  29.961  14.866
20709W        W93134  25.829  22.736   2.949
20710W        W93135   7.772  36.846  14.997
20711W        W93136   3.769  11.148  12.517
20712W        W93137  18.707   8.900   2.924
20713W        W93138  26.050  14.299  14.929
20714W        W93139   1.390  11.206   0.220
20715W        W93140  12.376   2.199   0.427
20716W        W93141   2.889  40.306   1.858
20717W        W93142  22.722  20.665  12.118
20718W        W93143   5.418   9.442   1.756
20719W        W93144  25.959  18.879  12.391
20720W        W93145  15.050  13.807  14.967
20721W        W93146  40.208  12.228  14.522
20722W        W93147   4.181  27.197  12.467
20723W        W93148   1.798  27.030   4.544
20724W        W93149  26.523  33.489   3.266
20725W        W93150  18.602  20.048   1.516
20726W        W93151  15.424  30.508  14.779
20727W        W93152  23.221  16.605   3.739
20728W        W93153  34.348  41.994  12.000
20729W        W93154  15.429  21.147   3.227
20730W        W93155  20.162   4.599  11.887
20731W        W93156  32.054  30.000   3.295
20732W        W93157  19.156  43.593   4.857
20733W        W93158  42.496  19.317   4.051
20734W        W93159   6.674  19.057  10.799
20735W        W93160   5.718  11.904  13.416
20736W        W93161  36.852  42.077   2.020
20737W        W93162  35.906   0.865   3.332
20738W        W93163   8.830   9.706  14.599
20739W        W93164  11.696  27.855  10.693
20740W        W93165  34.604  11.203   0.304
20741W        W93166  39.650  15.039   0.931
20742W        W93167  41.353   0.702  10.680
20743W        W93168  13.172  29.457   4.714
20744W        W93169  35.362  24.651   1.671
20745W        W93170  16.691  19.468  12.456
20746W        W93171  32.771  11.829   3.588
20747W        W93172  41.038  41.077  13.489
20748W        W93173  36.630  41.601   2.289
20749W        W93174  25.459   7.912   1.892
20750W        W93175   3.461  35.083  10.582
20751W        W93176   0.304  27.161  12.914
20752W        W93177   6.509  39.696   0.640
20753W        W93178  42.769  16.016   0.820
20754W        W93179  10.922  42.918   4.185
20755W        W93180   8.749  16.311  11.132
20756W        W93181  15.027  24.063   3.877
20757W        W93182  13.394  39.111  14.767
20758W        W93183  10.778  34.066  12.530
20759W        W93184   0.458  28.678   0.912
20760W        W93185  14.482  28.006   0.348
20761W        W93186  14.263   6.131   1.926
20762W        W93187  34.090  27.623  13.079
20763W        W93188  20.228   7.349   0.873
20764W        W93189  17.041  12.673  13.412
20765W        W93190  33.102  20.626  10.773
20766W        W93191   6.166  22.969  12.615
20767W        W93192  33.607  25.473   1.354
20768W        W93193  42.300  27.101   0.880
20769W        W93194  13.134  43.075  14.964
20770W        W93195  32.006  39.097  12.109
20771W        W93196  42.268   9.890  13.011
20772W        W93197  28.091  17.187  13.958
20773W        W93198  38.874  22.731  14.482
20774W        W93199  32.545  15.781   0.711
20775W        W93200  10.130  32.069   1.204
20776W        W93201  24.385   4.155   2.791
20777W        W93202   2.761  32.016   2.185
20778W        W93203   8.694  23.666   3.046
20779W        W93204   0.367  33.863  13.428
20780W        W93205  23.334  15.596  12.937
20781W        W93206  37.417   9.620  11.678
20782W        W93207  35.805  34.956  10.793
20783W        W93208  27.687  38.080   3.569
20784W        W93209  32.865  20.144  11.525
20785W        W93210  21.179  23.316   2.286
20786W        W93211  32.931  27.710  13.871
20787W        W93212  13.619  17.291  14.479
20788W        W93213  12.301  11.788  14.426
20789W        W93214  38.866   4.882  13.539
20790W        W93215  41.643  44.501  13.884
20791W        W93216  16.326  34.536  11.423
20792W        W93217  36.431  16.957   5.174
20793W        W93218  17.364  36.636   1.264
20794W        W93219  40.307  17.788   3.277
20795W        W93220  17.489  44.247  10.728
20796W        W93221  43.005  23.742  14.630
20797W        W93222  37.741  20.074  12.001
20798W        W93223  23.689  44.481  14.709
20799W        W93224   4.747  37.489  14.314
20800W        W93225  42.447  44.103  14.964
20801W        W93226  28.630   2.770   0.404
20802W        W93227  37.022  31.323  13.212
20803W        W93228  12.211  30.959  12.102
20804W        W93229   3.623  42.474   2.253
20805W        W93230  32.861   0.556  12.935
20806W        W93231  19.484  26.465   0.285
20807W        W93232  10.230  27.489  10.347
20808W        W93233  43.842   7.135   1.752
20809W        W93234  12.703   3.322  10.519
20810W        W93235  40.460  36.015   1.766
20811W        W93236  29.536   7.293  14.932
20812W        W93237   5.985  35.849   4.327
20813W        W93238   5.234  12.808   2.164
20814W        W93239  10.794   7.067  10.925
20815W        W93240  15.760  11.620   2.750
20816W        W93241   2.139  37.917   0.910
20817W        W93242   5.738   3.756  12.144
20818W        W93243  27.215  24.083  10.639
20819W        W93244  14.575  32.991   2.247
20820W        W93245  25.761  35.673  10.058
20821W        W93246  30.467  36.535   5.148
20822W        W93247  16.381  43.743   3.637
20823W        W93248  29.617  17.917   4.184
20824W        W93249  19.346  14.856  13.389
20825W        W93250  37.568   4.988   3.356
20826W        W93251  35.512  43.998   2.332
20827W        W93252  28.236  10.854  11.450
20828W        W93253  42.437  10.257   0.365
20829W        W93254  11.963  18.191  13.386
20830W        W93255   9.970  22.510   2.028
20831W        W93256  35.599  26.788  14.283
20832W        W93257   2.265   0.362  10.749
20833W        W93258  40.321  41.356   1.324
20834W        W93259  19.586  31.121  12.991
20835W        W93260  28.843  20.343  14.962
20836W        W93261   4.833   2.452  12.390
20837W        W93262   2.837  18.816  14.249
20838W        W93263  18.050   1.143  10.726
20839W        W93264   3.468   1.313   3.795
20840W        W93265  31.304  26.096  12.667
20841W        W93266  30.730  26.785   1.809
20842W        W93267   2.162  19.653  13.043
20843W        W93268  21.680  22.602  12.386
20844W        W93269  16.546  26.002  11.953
20845W        W93270  26.603   9.947   0.911
20846W        W93271  22.198  13.093   0.640
20847W        W93272   2.319  16.709  14.598
20848W        W93273  20.810  44.442   2.882
20849W        W93274  17.029   2.524  12.034
20850W        W93275  29.948  13.757  13.305
20851W        W93276  44.419  43.806  11.059
20852W        W93277  20.548  11.895   4.953
20853W        W93278  14.734  32.180  13.087
20854W        W93279  14.749  31.349  10.700
20855W        W93280  10.375  27.637   2.675
20856W        W93281   7.731  21.078   5.022
20857W        W93282  25.159  36.993   3.631
20858W        W93283  36.093   3.609  10.997
20859W        W93284  43.725  14.153   4.046
20860W        W93285  29.609  10.168  14.856
20861W        W93286  18.333  27.629  14.303
20862W        W93287  35.608  20.715   2.719
20863W        W93288  26.874  16.809   4.899
20864W        W93289  34.241  17.383   0.752
20865W        W93290  21.114  29.605   1.795
20866W        W93291  10.291  33.478  11.179
20867W        W93292  44.291  22.825  11.264
20868W        W93293  31.108  41.821   4.570
20869W        W93294  36.341  31.747  12.491
20870W        W93295  20.782  13.841  11.622
20871W        W93296  17.007  10.361   0.051
20872W        W93297  11.898  25.522  11.687
20873W        W93298  21.599  22.504  12.905
20874W        W93299  24.245  30.054   3.391
20875W        W93300  38.618  42.255   3.247
20876W        W93301  33.589  26.650  12.974
20877W        W93302   7.213  11.566   0.747
20878W        W93303  24.621  27.868  12.462
20879W        W93304   4.343  17.018  11.223
20880W        W93305   4.965  15.068  11.301
20881W        W93306  29.953  26.989   0.114
20882W        W93307   6.972  29.981   0.963
20883W        W93308  43.751   2.732   0.916
20884W        W93309  22.988  11.844  10.119
20885W        W93310  40.307   2.175  13.869
20886W        W93311   0.973   7.003  11.207
20887W        W93312  26.655  18.867  14.975
20888W        W93313  35.598  15.715   4.151
20889W        W93314  11.318  18.706  11.259
20890W        W93315   4.367   3.802  14.526
20891W        W93316   2.424  20.647  11.928
20892W        W93317  10.224   5.619   0.871
20893W        W93318  26.415  31.636  13.451
20894W        W93319  19.040  32.947  14.998
20895W        W93320  10.916   1.309   1.452
20896W        W93321   0.725   2.666   4.597
20897W        W93322  17.005   3.055  12.102
20898W        W93323  29.635  34.121  13.391
20899W        W93324   7.263  20.816   5.020
20900W        W93325  32.567  42.504  11.247
20901W        W93326   2.342  27.316  13.832
20902W        W93327  35.850  44.317   3.164
20903W        W93328  35.518  10.761  13.528
20904W        W93329  16.335  26.747   0.572
20905W        W93330  12.676  10.416  13.056
20906W        W93331  24.745  27.396  13.371
20907W        W93332  44.197  30.709  12.575
20908W        W93333  17.559  42.530  12.576
20909W        W93334  14.212  23.990  14.833
20910W        W93335  26.246  27.978  13.223
20911W        W93336  14.744   6.599  12.079
20912W        W93337  39.039  23.812   1.873
20913W        W93338   1.173  40.879  14.955
20914W        W93339  44.920  18.696   3.978
20915W        W93340   1.324  41.525  13.739
20916W        W93341  14.815  26.613   3.133
20917W        W93342  35.581  31.568  14.268
20918W        W93343  10.381   1.896   3.574
20919W        W93344  25.766  30.483  12.792
20920W        W93345  19.507   1.829  12.638
20921W        W93346  44.954  14.086  12.353
20922W        W93347  40.382  16.293   3.131
20923W        W93348  17.724  17.744   2.680
20924W        W93349  42.524  32.892   0.274
20925W        W93350  17.289  40.969  13.077
20926W        W93351  43.357   1.396  13.456
20927W        W93352   5.778   1.927  13.809
20928W        W93353  34.597  40.049  14.596
20929W        W93354  27.457  25.484  13.440
20930W        W93355  20.540  14.249  11.904
20931W        W93356  18.549   2.360   2.936
20932W        W93357   9.284   2.036   2.976
20933W        W93358  41.153  20.488  12.422
20934W        W93359  33.962  41.743   4.844
20935W        W93360  29.075   2.736   4.036
20936W        W93361  24.582  42.488  10.569
20937W        W93362  38.973   1.524   0.247
20938W        W93363  44.501  27.260   4.368
20939W        W93364  31.851  16.539  12.136
20940W        W93365  42.555  18.941  14.247
20941W        W93366  29.426  18.042   0.377
20942W        W93367   4.938  17.079  14.954
20943W        W93368  30.687  34.766  13.089
20944W        W93369  22.058  24.116   3.242
20945W        W93370  39.613  39.549  12.096
20946W        W93371  15.470  29.716  12.916
20947W        W93372  39.592  34.405   3.715
20948W        W93373   4.412  32.569  12.946
20949W        W93374   1.275  43.674  11.984
20950W        W93375  36.052   5.748   4.214
20951W        W93376  21.221  17.462   0.981
20952W        W93377  12.993  39.955   3.512
20953W        W93378  29.732  15.375  13.896
20954W        W93379  43.888   7.366   2.940
20955W        W93380  41.732  33.420   4.697
20956W        W93381  14.129  29.479  13.906
20957W        W93382  40.920  43.597   0.496
20958W        W93383  18.691   2.250  13.850
20959W        W93384   6.267  20.482   2.412
20960W        W93385  19.000   2.020   1.901
20961W        W93386  43.362  33.216  12.555
20962W        W93387  15.028   6.533  14.741
20963W        W93388  36.507  20.759  13.360
20964W        W93389  13.087   8.145  11.174
20965W        W93390  36.919   4.645   1.443
20966W        W93391   7.073   3.711   1.168
20967W        W93392  41.816  34.834  13.148
20968W        W93393   1.030  15.756  13.568
20969W        W93394  14.839   4.025   2.385
20970W        W93395  20.527   5.819   2.382
20971W        W93396  39.412  28.989   0.385
20972W        W93397  13.030   2.249  14.219
20973W        W93398   0.805   9.275  14.470
20974W        W93399   4.955  33.748  14.175
20975W        W93400   3.281   2.734   2.240
20976W        W93401  30.375  36.100   1.219
20977W        W93402  29.667  40.989  14.806
20978W        W93403  38.058   2.263   2.726
20979W        W93404   2.444   8.620   4.550
20980W        W93405  16.539  29.052   3.196
20981W        W93406  10.368  29.194   4.625
20982W        W93407  37.425  23.923  11.939
20983W        W93408  12.680  41.749   4.273
20984W        W93409  36.438  19.100   3.128
20985W        W93410  34.960  27.747  14.945
20986W        W93411  18.049  14.617   0.922
20987W        W93412   0.455  22.562   0.986
20988W        W93413  10.375  18.551   0.285
20989W        W93414  34.435  16.583   2.178
20990W        W93415  30.173  16.424   1.155
20991W        W93416   2.879  24.068   2.862
20992W        W93417  10.464  10.917   4.773
20993W        W93418  38.430  17.052  13.487
20994W        W93419   8.316   6.205  11.631
20995W        W93420  21.672   1.739   2.269
20996W        W93421  39.965  17.655   0.659
20997W        W93422  15.772   1.819   0.716
20998W        W93423  11.120  25.119   3.292
20999W        W93424  16.051  23.261  12.590
21000W        W93425  13.406   5.445  10.493
21001W        W93426  38.837  11.176   0.746
21002W        W93427  14.805   0.855   1.803
21003W        W93428  40.507  32.063  14.353
21004W        W93429  18.240   7.223  10.632
21005W        W93430  21.547   2.466   0.353
21006W        W93431   3.429   0.927  12.411
21007W        W93432  17.219  32.966  12.393
21008W        W93433  19.339  11.526  12.886
21009W        W93434  17.765  28.969   1.234
21010W        W93435   8.378  30.702   3.345
21011W        W93436  32.369  12.237   0.294
21012W        W93437  23.740  34.042  12.475
21013W        W93438  10.180  23.957   4.364
21014W        W93439   9.632  42.114   1.459
21015W        W93440  22.921  42.071   2.823
21016W        W93441  32.321  35.307  13.103
21017W        W93442  10.226  40.819   4.619
21018W        W93443  27.405   9.634   4.644
21019W        W93444  40.991   3.326  11.436
21020W        W93445  15.319   4.824  13.937
21021W        W93446  13.120   2.462  14.679
21022W        W93447   9.215  23.588  10.568
21023W        W93448   4.213   9.752  12.583
21024W        W93449  22.548  35.875   5.438
21025W        W93450  25.186  36.528  12.046
21026W        W93451  38.295  11.254  14.039
21027W        W93452   6.101  10.162  14.743
21028W        W93453   2.321  42.469   2.742
21029W        W93454  34.926  34.609  14.869
21030W        W93455  26.405  20.724  13.453
21031W        W93456  35.637  35.236   4.059
21032W        W93457  33.170  31.483  14.114
21033W        W93458  25.147  43.779   1.002
21034W        W93459  44.260  28.994  13.876
21035W        W93460  14.986  17.802   0.757
21036W        W93461   4.125  31.487   0.295
21037W        W93462  15.790   6.940  11.475
21038W        W93463  40.421   5.932  12.979
21039W        W93464  36.472  21.831   0.818
21040W        W93465  41.968  29.427   0.896
21041W        W93466  17.830  44.354  12.486
21042W        W93467   8.057  43.133  10.205
21043W        W93468  35.061  30.464   2.429
21044W        W93469   6.183  14.611  12.405
21045W        W93470  27.944  42.643  10.198
21046W        W93471  19.349  26.570   0.790
21047W        W93472  27.766  35.096   2.168
21048W        W93473  41.331  24.993  14.420
21049W        W93474  39.277  38.627   1.689
21050W        W93475  41.147  31.630  10.748
21051W        W93476  28.078   5.175  13.081
21052W        W93477  35.370  22.636  13.455
21053W        W93478  12.236  14.036   1.294
21054W        W93479  28.091  29.576  11.538
21055W        W93480  29.334  43.503   4.198
21056W        W93481  42.257  39.686   2.202
21057W        W93482  27.412  10.252  10.400
21058W        W93483  26.444  22.156   1.590
21059W        W93484  16.039  10.929  13.695
21060W        W93485  38.046   8.221  11.100
21061W        W93486  23.906  15.668  12.453
21062W        W93487  32.602  35.908   2.773
21063W        W93488  34.520  38.124   1.317
21064W        W93489  36.442  33.447   2.934
21065W        W93490  17.209   1.755  14.630
21066W        W93491  31.533  42.195  13.644
21067W        W93492  41.024  44.527   2.806
21068W        W93493   7.216   7.631   1.202
21069W        W93494  14.073  28.550  11.079
21070W        W93495  20.044  16.119   0.053
21071W        W93496   9.461  38.854  12.903
21072W        W93497  30.148  30.334  13.039
21073W        W93498   9.330  12.590   1.190
21074W        W93499   0.919  44.973  10.739
21075W        W93500  21.161  39.480  13.490
21076W        W93501   5.885  18.499  10.398
21077W        W93502   9.327  32.376   2.820
21078W        W93503  42.087  30.745   1.652
21079W        W93504  17.888   7.206   1.002
21080W        W93505   8.803  29.667   2.971
21081W        W93506  44.837  27.955   2.287
21082W        W93507  41.636  21.605  13.275
21083W        W93508   6.816   9.749   4.589
21084W        W93509  27.629   3.516   2.930
21085W        W93510  39.161  10.639   4.561
21086W        W93511   5.807   0.547  14.813
21087W        W93512  24.638  30.374  13.984
21088W        W93513   5.138  22.842   3.215
21089W        W93514   8.305   1.020  11.736
21090W        W93515  31.640   5.839  12.183
21091W        W93516  15.787  25.550  14.800
21092W        W93517  42.793  15.605   2.896
21093W        W93518   1.003  19.785  11.133
21094W        W93519  25.221   6.864  13.019
21095W        W93520  37.175  43.454   3.691
21096W        W93521   6.228   5.447   0.773
21097W        W93522  20.367  17.144   5.082
21098W        W93523  19.399  37.438   3.051
21099W        W93524  14.809   5.010  14.919
21100W        W93525  32.481   6.943  10.566
21101W        W93526  31.434  13.175   3.232
21102W        W93527  42.356  40.181   2.344
21103W        W93528  27.788  39.004   2.246
21104W        W93529  36.288  14.260  13.509
21105W        W93530  25.394  22.995  14.724
21106W        W93531  31.086  39.112   3.218
21107W        W93532  37.829  41.560   4.678
21108W        W93533   4.151  42.297  14.401
21109W        W93534  26.611  33.439  11.355
21110W        W93535  30.599  18.670  14.418
21111W        W93536  11.730  11.170   4.549
21112W        W93537  33.667  12.106  14.068
21113W        W93538  26.573   5.134   2.275
21114W        W93539  21.289  42.562   0.478
21115W        W93540  40.396  13.081  11.639
21116W        W93541   7.482  31.692   4.591
21117W        W93542   4.039   7.414   3.053
21118W        W93543  23.953  19.424   5.042
21119W        W93544  36.300   2.314   4.120
21120W        W93545  25.026  25.249  11.516
21121W        W93546  27.632  26.709  12.085
21122W        W93547  30.633  38.941  14.857
21123W        W93548   5.325  25.337  13.895
21124W        W93549  29.343   8.823  11.623
21125W        W93550  24.938   3.361   4.907
21126W        W93551  18.595  34.843   2.367
21127W        W93552  11.417  24.440  10.526
21128W        W93553   6.376  39.287   1.453
21129W        W93554   1.295  17.098   2.715
21130W        W93555  35.104   3.308   1.733
21131W        W93556  43.516  44.791   1.844
21132W        W93557  23.547  14.569   0.643
21133W        W93558  20.200  38.591   4.373
21134W        W93559  36.454  41.357  14.230
21135W        W93560  19.461  15.708   4.565
21136W        W93561  14.625  35.360  10.708
21137W        W93562  18.273  43.344   4.271
21138W        W93563  38.459  10.455  11.552
21139W        W93564  21.481  28.525   0.434
21140W        W93565  39.080   4.072  12.938
21141W        W93566  25.578  16.351   0.345
21142W        W93567  18.329  18.315  12.392
21143W        W93568  14.655   0.459  13.457
21144W        W93569  29.088  32.843  11.551
21145W        W93570  15.249  41.667   4.068
21146W        W93571  20.556  36.419  10.404
21147W        W93572  24.979   1.730   2.690
21148W        W93573  34.976   8.757   1.258
21149W        W93574  28.387  10.599   0.255
21150W        W93575  20.952  28.112  12.046
21151W        W93576   6.362  17.685   2.712
21152W        W93577  18.701  29.937  10.619
21153W        W93578  21.290  29.166   3.166
21154W        W93579  11.082  34.748   3.717
21155W        W93580  23.741  32.014   0.533
21156W        W93581  15.677  34.154   3.739
21157W        W93582  34.394  38.312  14.372
21158W        W93583   6.043  37.884  10.791
21159W        W93584  33.481  19.731   4.125
21160W        W93585  35.321   2.180  12.082
21161W        W93586  40.468   7.185  11.662
21162W        W93587   7.867  37.593   0.750
21163W        W93588  18.631  18.294   4.568
21164W        W93589  23.798  29.745  14.750
21165W        W93590  39.618  21.461   2.755
21166W        W93591   5.758  34.599   2.392
21167W        W93592  19.232  26.838   4.105
21168W        W93593  34.150   6.965  10.714
21169W        W93594   4.506   8.174   0.709
21170W        W93595  42.878  35.026  11.333
21171W        W93596  42.988  39.046   0.216
21172W        W93597  12.032  24.653   0.356
21173W        W93598  21.455  24.129  11.343
21174W        W93599  17.465  32.823  11.965
21175W        W93600   7.573  22.577  14.908
21176W        W93601  11.391  14.232  10.559
21177W        W93602  42.434   0.726   4.756
21178W        W93603   1.684  25.628   1.751
21179W        W93604   7.920  13.054  13.493
21180W        W93605  17.788  41.446  14.366
21181W        W93606  13.552  40.485  13.974
21182W        W93607  10.674   3.805  11.633
21183W        W93608  23.530  28.608   2.213
21184W        W93609  23.949  25.755  10.766
21185W        W93610  43.009  22.566   4.634
21186W        W93611   6.226  43.529   0.262
21187W        W93612  34.098  27.381   3.971
21188W        W93613  23.067  28.596   4.958
21189W        W93614  41.817  32.982   4.429
21190W        W93615  20.638  27.159  11.332
21191W        W93616   0.840  14.870  10.637
21192W        W93617  34.548  26.864  13.274
21193W        W93618  21.223  15.701   1.443
21194W        W93619  43.839  24.653   4.566
21195W        W93620  22.960  24.756  14.411
21196W        W93621  21.055  30.908   4.386
21197W        W93622  40.203  11.332   3.126
21198W        W93623  29.670  17.993   2.258
21199W        W93624   5.672  31.416   1.315
21200W        W93625  13.278   9.580  13.102
21201W        W93626  23.240  34.375  13.473
21202W        W93627  39.015  19.714   2.764
21203W        W93628  16.963  39.024   4.142
21204W        W93629  20.960  33.661  10.365
21205W        W93630  23.089   0.804   0.384
21206W        W93631  20.202  38.594  14.306
21207W        W93632  26.217  15.327   1.777
21208W        W93633  41.399   1.452   1.945
21209W        W93634  10.233  33.561  14.206
21210W        W93635  18.888  33.796   4.620
21211W        W93636  13.770   0.766   3.611
21212W        W93637  26.457  23.555  12.628
21213W        W93638  19.795  41.906  11.550
21214W        W93639  18.043  30.368  14.345
21215W        W93640  18.656  28.058   1.304
21216W        W93641  17.269  22.619  14.960
21217W        W93642   1.242  23.950   2.379
21218W        W93643  41.505  25.682  11.140
21219W        W93644  42.136  22.716   4.191
21220W        W93645  20.466   7.340  12.537
21221W        W93646  29.698   8.128  11.090
21222W        W93647  42.042  20.105  11.601
21223W        W93648  38.126   7.724   5.107
21224W        W93649  19.173  14.646  14.014
21225W        W93650  33.160  39.077   4.466
21226W        W93651   1.748  33.903   2.408
21227W        W93652  28.161  12.023   2.841
21228W        W93653  17.598  41.243  14.841
21229W        W93654  18.502   2.649  11.562
21230W        W93655   9.949   9.098   4.868
21231W        W93656  16.820  24.923  14.497
21232W        W93657   2.676  27.685   3.897
21233W        W93658  24.717  36.272  12.044
21234W        W93659   4.732  22.507   3.403
21235W        W93660  27.605  13.857   4.338
21236W        W93661  10.869  17.856   3.750
21237W        W93662   9.810   2.287   0.360
21238W        W93663  17.267  23.440  12.371
21239W        W93664  36.333  28.176   0.963
21240W        W93665   3.020  10.057  10.976
21241W        W93666  24.564  37.017  12.492
21242W        W93667  30.510   6.143  13.825
21243W        W93668  16.630   2.360   1.325
21244W        W93669  29.700  36.458  10.683
21245W        W93670   7.321  14.569  13.864
21246W        W93671  42.589  36.598  10.715
21247W        W93672  38.385  35.212   2.444
21248W        W93673  32.376  12.854  12.888
21249W        W93674  22.134  24.769  12.331
21250W        W93675  29.527  39.947  12.020
21251W        W93676  22.673  42.829  14.922
21252W        W93677  32.740  16.344  12.114
21253W        W93678  37.975  38.070   2.766
21254W        W93679   4.012  28.855  11.044
21255W        W93680   8.860  28.248   3.614
21256W        W93681  12.376   6.821   0.448
21257W        W93682  18.307  39.490  10.835
21258W        W93683  28.541  30.487   2.581
21259W        W93684  26.051  35.808  11.235
21260W        W93685  40.834   6.556  13.550
21261W        W93686  38.737   7.393  13.990
21262W        W93687  24.723  40.435   2.810
21263W        W93688  10.676  42.022   2.233
21264W        W93689  35.905  10.193  10.688
21265W        W93690  29.065  38.061   0.562
21266W        W93691   6.221  43.307  11.666
21267W        W93692   5.854  28.938  13.995
21268W        W93693   5.073  13.023   1.295
21269W        W93694   1.755   6.852   1.867
21270W        W93695  41.405   3.498  12.164
21271W        W93696  37.340  20.092   4.555
21272W        W93697  10.780  43.617   3.728
21273W        W93698  31.745  41.716  13.749
21274W        W93699  33.018  34.890   1.728
21275W        W93700   5.211  30.269  11.151
21276W        W93701  40.736  27.098  12.054
21277W        W93702  27.045  15.702   1.706
21278W        W93703  42.376  12.177   2.265
21279W        W93704  22.754  34.860   3.701
21280W        W93705  44.390  43.067   4.609
21281W        W93706  21.017  39.737   0.750
21282W        W93707  31.338  24.210   0.245
21283W        W93708  31.240  43.074   0.028
21284W        W93709  13.162  43.768   0.372
21285W        W93710  19.361  11.804   2.260
21286W        W93711  22.712   6.971  12.487
21287W        W93712   6.624  41.867   3.364
21288W        W93713  19.194  17.750  13.472
21289W        W93714   1.262  26.454   2.134
21290W        W93715  26.525  38.716   2.754
21291W        W93716  24.160  11.472   4.988
21292W        W93717  28.371  29.743  14.292
21293W        W93718  35.046  32.927   2.117
21294W        W93719  16.797  14.598   1.361
21295W        W93720  30.940  24.189  11.215
21296W        W93721  35.011   5.420  11.530
21297W        W93722  15.869  30.465   4.718
21298W        W93723  17.698  44.735   2.662
21299W        W93724   7.938  16.206   4.041
21300W        W93725  10.161  27.022   3.376
21301W        W93726  19.561  16.258   0.006
21302W        W93727  33.424  42.768  13.004
21303W        W93728  28.065  31.570  11.482
21304W        W93729  18.779  41.411  13.082
21305W        W93730  44.742  35.404  14.009
21306W        W93731  12.855  15.448   4.851
21307W        W93732  18.596   5.134  12.506
21308W        W93733  42.853  24.775   1.738
21309W        W93734  41.813  26.421  14.977
21310W        W93735  17.984   7.244  11.107
21311W        W93736  36.439  12.387   4.280
21312W        W93737  25.778  20.504   3.235
21313W        W93738  17.306  37.495  13.940
21314W        W93739  36.969  27.693  10.765
21315W        W93740  21.684  36.946   4.673
21316W        W93741   5.854  14.007   3.445
21317W        W93742  40.003  19.122   4.177
21318W        W93743   1.025  32.615   0.426
21319W        W93744  44.251  25.102  14.689
21320W        W93745  34.553   0.230   1.839
21321W        W93746  24.157  44.882   3.076
21322W        W93747  15.349  24.653   1.010
21323W        W93748  26.681   2.661  12.432
21324W        W93749  32.487  13.867   4.785
21325W        W93750  20.158  38.014  11.036
21326W        W93751  23.227   0.059   2.827
21327W        W93752   5.458  25.022  13.486
21328W        W93753  42.340   0.782   2.872
21329W        W93754  14.984  43.237   1.351
21330W        W93755  18.094   4.882  13.376
21331W        W93756  30.352  22.999   3.462
21332W        W93757   9.448  23.120  12.140
21333W        W93758  37.961  24.689   1.862
21334W        W93759  27.055  12.183  13.932
21335W        W93760  32.211  34.136  12.552
21336W        W93761  29.583  41.980  10.717
21337W        W93762  14.232  16.596  11.008
21338W        W93763  18.131  21.641  12.351
21339W        W93764  15.614   0.832  12.928
21340W        W93765  33.840  40.379   1.629
21341W        W93766   3.433   6.269  11.438
21342W        W93767  29.406  32.134  11.172
21343W        W93768  44.937  17.145  10.882
21344W        W93769   5.411  24.507  13.555
21345W        W93770  15.991  39.012  13.946
21346W        W93771  32.556  15.649   1.701
21347W        W93772  20.625  38.554   1.387
21348W        W93773   4.899  26.204   2.403
21349W        W93774  17.252  42.596   2.646
21350W        W93775  34.110  25.547   4.310
21351W        W93776  10.348  19.705   3.212
21352W        W93777   2.285  22.146  13.487
21353W        W93778  27.480  29.721   1.310
21354W        W93779   2.045  20.657  14.047
21355W        W93780  24.610   8.945  14.372
21356W        W93781  40.098   6.355  13.795
21357W        W93782  35.360  29.546  14.500
21358W        W93783  11.209  44.109  13.445
21359W        W93784  42.396  16.455   3.565
21360W        W93785  38.012  21.676  14.884
21361W        W93786  16.587  22.708  11.790
21362W        W93787  40.061  20.093  13.593
21363W        W93788  10.712  43.973   0.482
21364W        W93789  26.959  24.099  11.967
21365W        W93790  28.588  24.431   4.313
21366W        W93791  37.510  32.222  13.906
21367W        W93792  22.455  39.081   3.378
21368W        W93793  23.713  10.052  13.111
21369W        W93794   3.704  20.566  14.381
21370W        W93795  26.555  16.171   2.725
21371W        W93796  29.560   6.775   1.710
21372W        W93797  19.372  22.528  13.478
21373W        W93798  17.644   1.965   1.801
21374W        W93799  43.874  44.030  14.934
21375W        W93800  30.203  23.770  11.675
21376W        W93801   3.533  29.012   3.558
21377W        W93802   1.560  10.829  14.371
21378W        W93803  24.279  29.011   1.929
21379W        W93804  38.748  25.940   4.708
21380W        W93805   5.245   7.191   4.383
21381W        W93806  19.276  37.354   0.384
21382W        W93807   9.880  15.555  12.114
21383W        W93808  42.309  44.963  14.813
21384W        W93809  26.578  42.813   0.554
21385W        W93810  27.215  37.918   2.726
21386W        W93811  12.567  30.426  12.914
21387W        W93812  23.520  42.720   4.545
21388W        W93813  20.172  35.319   0.078
21389W        W93814  24.988   6.935   0.695
21390W        W93815  16.831  27.231  11.389
21391W        W93816  37.777  40.030  11.954
21392W        W93817  33.578  44.136   2.895
21393W        W93818   5.868   4.682  14.893
21394W        W93819   1.424   7.475  11.805
21395W        W93820  24.623  41.200  13.853
21396W        W93821  15.831  31.543  10.269
21397W        W93822   2.875  10.439  13.947
21398W        W93823  29.919  43.728   1.771
21399W        W93824  39.883  36.609   3.716
21400W        W93825   6.381  34.107   4.360
21401W        W93826  10.209   8.112   0.839
21402W        W93827  39.884  27.677  14.999
21403W        W93828   8.411  39.614  10.979
21404W        W93829  19.804  23.567   4.178
21405W        W93830  31.447  11.377   3.662
21406W        W93831  44.039  44.495  11.510
21407W        W93832   8.705  39.126   0.792
21408W        W93833  10.911  20.055   4.983
21409W        W93834   6.773  31.316  10.544
21410W        W93835   5.747  22.250   0.288
21411W        W93836  19.713  22.117   3.819
21412W        W93837  13.237  40.551  14.937
21413W        W93838   3.310   6.805  11.213
21414W        W93839  23.435  34.565   3.370
21415W        W93840   7.433   9.658  11.225
21416W        W93841  26.381  14.215  11.680
21417W        W93842  11.791  15.931  13.396
21418W        W93843  39.933  14.785  13.849
21419W        W93844  33.853  12.060  11.832
21420W        W93845  32.374  30.728  12.406
21421W        W93846  32.404  16.808   0.784
21422W        W93847  12.916   0.423   0.297
21423W        W93848  12.128  29.862  13.954
21424W        W93849  12.760   4.682  12.811
21425W        W93850   1.852  20.084  11.539
21426W        W93851   8.429  35.388   0.874
21427W        W93852  16.868  43.077   3.710
21428W        W93853  26.950   6.809   0.021
21429W        W93854  11.793   2.916   0.774
21430W        W93855   8.474  12.378   0.044
21431W        W93856  36.022  14.054  13.968
21432W        W93857  13.294  12.907   4.476
21433W        W93858  23.937  16.882  14.093
21434W        W93859  36.603  28.000  12.558
21435W        W93860  36.432  27.855   0.382
21436W        W93861  37.545   7.663  10.398
21437W        W93862  44.057   2.918  12.520
21438W        W93863   5.387   3.881   3.437
21439W        W93864  38.773  20.727   2.698
21440W        W93865  27.718   7.861   1.312
21441W        W93866  18.907  28.834   4.315
21442W        W93867   9.639  19.458  11.459
21443W        W93868  35.594  11.544   1.421
21444W        W93869  10.661   5.382  14.255
21445W        W93870   1.903   1.249  12.196
21446W        W93871  21.987   8.172   0.746
21447W        W93872  32.567  33.166  12.023
21448W        W93873  19.252  19.708  10.498
21449W        W93874  31.731  20.180  12.969
21450W        W93875  26.789  39.178   0.013
21451W        W93876  13.661  24.172   3.991
21452W        W93877  42.090   6.397  12.396
21453W        W93878  10.636   9.162   1.293
21454W        W93879   7.184  43.828  13.361
21455W        W93880  39.798  19.712  13.358
21456W        W93881  27.010  19.368   0.407
21457W        W93882  13.922  11.696  12.114
21458W        W93883   8.833  12.145  13.813
21459W        W93884  13.190  16.301  14.587
21460W        W93885  23.192  29.200  11.186
21461W        W93886  32.052  29.867  13.878
21462W        W93887  23.054   2.925  13.793
21463W        W93888  16.070  28.084  10.506
21464W        W93889  26.713  25.948  14.515
21465W        W93890   1.572  43.452  11.631
21466W        W93891  20.105   6.632   2.650
21467W        W93892   6.578  28.527   2.710
21468W        W93893  29.894  29.870  12.912
21469W        W93894  31.201  43.278  12.000
21470W        W93895  26.602   8.699   2.806
21471W        W93896  33.895  41.987   2.414
21472W        W93897   9.857  29.982   0.579
21473W        W93898   2.411  21.552  14.412
21474W        W93899  26.699  30.767  11.184
21475W        W93900  44.175  38.386   4.208
21476W        W93901   8.318  27.344   1.758
21477W        W93902  33.433  38.627   4.581
21478W        W93903  40.022   0.451  13.989
21479W        W93904  31.046  15.467   5.083
21480W        W93905   8.333  32.623   2.739
21481W        W93906  18.082  25.209  11.087
21482W        W93907  26.176   4.785   2.243
21483W        W93908   7.402   0.141  13.913
21484W        W93909  21.395  12.746  10.021
21485W        W93910   2.491  41.172   2.515
21486W        W93911   1.438   2.315  11.437
21487W        W93912  15.859   4.442   0.356
21488W        W93913  10.198   2.065  11.049
21489W        W93914  28.409  39.045   4.999
21490W        W93915   1.867   4.951   2.661
21491W        W93916   7.907  29.984  12.722
21492W        W93917  18.223  34.519   0.803
21493W        W93918  21.943   0.742   3.107
21494W        W93919  20.029  16.548   1.772
21495W        W93920  43.970   0.011   0.250
21496W        W93921   1.268  17.597  12.581
21497W        W93922   5.933  30.450   2.094
21498W        W93923  32.926  15.046   2.668
21499W        W93924  24.073  25.665   3.689
21500W        W93925  19.716  41.283   1.436
21501W        W93926  29.510  19.112  11.539
21502W        W93927  39.494  38.531  13.894
21503W        W93928  26.620  16.657   1.596
21504W        W93929  31.442  24.559  12.817
21505W        W93930  32.726  13.074   0.760
21506W        W93931  35.211  18.777  11.464
21507W        W93932  39.825  15.205  12.043
21508W        W93933   5.615  39.496   4.189
21509W        W93934  14.804   9.091   2.466
21510W        W93935   7.503  42.520  14.982
21511W        W93936  26.683  35.797  13.693
21512W        W93937  28.675  28.600  12.958
21513W        W93938   5.701  20.293   4.654
21514W        W93939   0.063  33.822  12.347
21515W        W93940  17.735  18.686   2.938
21516W        W93941  34.861  28.725   0.931
21517W        W93942   1.322  34.159  14.260
21518W        W93943   5.753  40.946  13.471
21519W        W93944  33.655  23.666  13.288
21520W        W93945   6.808   4.406  13.494
21521W        W93946   2.816  15.733  12.855
21522W        W93947   5.199  32.603  11.516
21523W        W93948  43.211   1.830  13.951
21524W        W93949  38.058  44.103   0.022
21525W        W93950  16.770  21.591  12.463
21526W        W93951  36.991  31.469  11.403
21527W        W93952   6.835  38.977   2.468
21528W        W93953   6.874   7.813  11.321
21529W        W93954  17.119  43.901   4.606
21530W        W93955  17.074   0.881  11.442
21531W        W93956  27.676  13.654   3.869
21532W        W93957  30.884  28.447  12.174
21533W        W93958  33.863  13.610  12.603
21534W        W93959  41.936  42.291   1.933
21535W        W93960  28.007  43.309   1.440
21536W        W93961  42.066  11.196  12.213
21537W        W93962  39.787   7.788  11.455
21538W        W93963  19.480  29.109   2.811
21539W        W93964  27.446   4.248  14.316
21540W        W93965  35.370  38.759  13.485
21541W        W93966   0.997  29.130  14.532
21542W        W93967   1.374  17.132   0.449
21543W        W93968  21.381  32.270   2.809
21544W        W93969   5.143  26.448   0.516
21545W        W93970  10.348  17.748   3.835
21546W        W93971  35.949  38.262   2.233
21547W        W93972   6.652  13.816   0.877
21548W        W93973   4.050   4.789   1.293
21549W        W93974  26.085  20.623  11.106
21550W        W93975  37.164  29.523  12.391
21551W        W93976  34.931  25.011   2.868
21552W        W93977   0.712  23.988  10.385
21553W        W93978  28.478  15.379  12.970
21554W        W93979   5.941   9.834  13.763
21555W        W93980  14.257  11.101  13.297
21556W        W93981   7.243  42.297   3.150
21557W        W93982  19.661  32.645  10.424
21558W        W93983  37.996  40.211  10.690
21559W        W93984   4.255  31.009   3.686
21560W        W93985  42.389   9.289   2.300
21561W        W93986  32.886  32.337   4.015
21562W        W93987   1.071  37.639  10.007
21563W        W93988  41.328  22.664  14.531
21564W        W93989   1.151  37.999   1.754
21565W        W93990  19.202   3.873   2.742
21566W        W93991   6.967   6.915   0.549
21567W        W93992   8.145  29.655   2.217
21568W        W93993   8.695  33.398  14.872
21569W        W93994  44.490   5.922   4.570
21570W        W93995  24.196  31.715   5.446
21571W        W93996  35.440   0.302   1.763
21572W        W93997   4.784  15.869  11.541
21573W        W93998  11.349  16.149   3.731
21574W        W93999  23.491   5.201  10.645
21575W        W94000  11.684   1.616   1.209
21576W        W94001   4.692  38.264  11.499
21577W        W94002  17.080  39.795  12.418
21578W        W94003  36.010  13.179   4.455
21579W        W94004   1.571  10.835  10.362
21580W        W94005  42.881  11.415   9.920
21581W        W94006  13.124  30.011   0.767
21582W        W94007  35.146  12.155  13.255
21583W        W94008   2.391  14.505  14.530
21584W        W94009  29.671  27.812  10.532
21585W        W94010   5.987  16.305   4.177
21586W        W94011  17.032  31.885  14.852
21587W        W94012   8.891  14.469  14.744
21588W        W94013  13.076  28.839  11.946
21589W        W94014  31.594  22.083  12.590
21590W        W94015  12.350  29.494  14.457
21591W        W94016   6.432  43.805   2.480
21592W        W94017   3.916   8.872  14.141
21593W        W94018  13.387  39.916   1.615
21594W        W94019  44.489  35.935   0.057
21595W        W94020  32.385   9.722  13.865
21596W        W94021  29.719  23.491  11.933
21597W        W94022  35.944   2.723   0.904
21598W        W94023   4.103  14.057  14.170
21599W        W94024  34.192   0.750  12.881
21600W        W94025   3.437  36.869  11.571
21601W        W94026  27.222   3.396   2.625
21602W        W94027  10.911   4.312  12.971
21603W        W94028  12.354   2.906   2.674
21604W        W94029  37.017  21.204  12.963
21605W        W94030   3.761  37.427   4.186
21606W        W94031   1.342  10.188   0.441
21607W        W94032   4.370  23.214   1.489
21608W        W94033   4.185   8.930  12.004
21609W        W94034  34.117  35.869  10.589
21610W        W94035  41.335  44.919  13.981
21611W        W94036  19.029   6.395  10.751
21612W        W94037  22.535  28.120  12.992
21613W        W94038  27.535  33.527   2.346
21614W        W94039  15.862  23.741   3.189
21615W        W94040  34.631  38.994  11.915
21616W        W94041  36.979  43.751  11.600
21617W        W94042   3.819  37.467  11.477
21618W        W94043  34.502  35.576  14.430
21619W        W94044  14.293   0.858  14.264
21620W        W94045  40.117  22.167  11.212
21621W        W94046   2.030  27.442  14.261
21622W        W94047  31.927   7.600   3.888
21623W        W94048   9.180  20.277  14.404
21624W        W94049  11.456  18.613  11.733
21625W        W94050  23.508   7.845   1.522
21626W        W94051  13.821  23.404  11.090
21627W        W94052   9.248  37.222  13.903
21628W        W94053  13.837   3.490   1.799
21629W        W94054  20.754  30.390  13.901
21630W        W94055  25.027  39.295   0.009
21631W        W94056  21.609  20.164   2.268
21632W        W94057  10.341   3.212  11.703
21633W        W94058  29.055   3.643  12.480
21634W        W94059  28.387  41.415  14.960
21635W        W94060  21.138  35.613   2.596
21636W        W94061   3.773  33.819   0.758
21637W        W94062   5.452   1.777   0.362
21638W        W94063  11.725  43.007  14.045
21639W        W94064  17.524  30.170   4.181
21640W        W94065  15.117  24.286  13.851
21641W        W94066   6.739  10.007  10.686
21642W        W94067  14.560  32.264   2.804
21643W        W94068   0.084  11.575  14.824
21644W        W94069  25.278   4.723  13.940
21645W        W94070   7.700  25.992   4.607
21646W        W94071  35.015  22.091   1.786
21647W        W94072   9.897  19.484   0.681
21648W        W94073  33.413  15.773   4.059
21649W        W94074   3.167  11.264  13.536
21650W        W94075  29.267  27.075   1.106
21651W        W94076  40.604  26.149   4.255
21652W        W94077   0.713   3.371  12.934
21653W        W94078   1.005  12.633  14.407
21654W        W94079  28.963   9.830  12.494
21655W        W94080  20.776  43.977  10.671
21656W        W94081  43.105  25.115  14.452
21657W        W94082   6.996  21.147   0.842
21658W        W94083   6.833   1.739   4.684
21659W        W94084  43.877  23.575  14.031
21660W        W94085  33.880  22.166   2.784
21661W        W94086   3.893  21.102   3.244
21662W        W94087   1.721   9.863   0.338
21663W        W94088  20.685   5.697  13.601
21664W        W94089  23.083  17.064   1.309
21665W        W94090  22.510  41.683   4.985
21666W        W94091  30.072   7.180   4.657
21667W        W94092   7.877  38.774   2.761
21668W        W94093  25.426  17.230  14.841
21669W        W94094  18.328  20.594  14.452
21670W        W94095  18.451   5.441   3.458
21671W        W94096  37.264  40.916  12.134
21672W        W94097   0.736  25.583   0.775
21673W        W94098  23.620  16.687  11.962
21674W        W94099  33.501  39.780   2.401
21675W        W94100   0.437   0.774  13.755
21676W        W94101  24.475   1.153   4.713
21677W        W94102  11.324  27.153   2.653
21678W        W94103  29.525  13.789  14.274
21679W        W94104  10.167  10.163   9.941
21680W        W94105   2.512   3.223   3.761
21681W        W94106  43.559  40.807   3.946
21682W        W94107  34.102  13.720   3.724
21683W        W94108  35.407  22.111   4.896
21684W        W94109  13.258  35.123  10.756
21685W        W94110  17.941  33.326  14.455
21686W        W94111  10.248   5.116  12.886
21687W        W94112  25.940  20.990   3.346
21688W        W94113  31.022  11.286   3.166
21689W        W94114  36.486  24.686  12.566
21690W        W94115  38.372  25.532   2.202
21691W        W94116  16.251  13.061   0.874
21692W        W94117  30.617  35.537  14.298
21693W        W94118   0.778  23.670   1.138
21694W        W94119  36.364  12.795   4.589
21695W        W94120  17.734  20.048  11.204
21696W        W94121  32.592  14.062  12.082
21697W        W94122  27.432  20.132  13.539
21698W        W94123  18.684  42.859  13.143
21699W        W94124  22.942  21.661   1.128
21700W        W94125  40.323  33.780   0.481
21701W        W94126   3.717  27.219   0.080
21702W        W94127  34.360  42.225  12.969
21703W        W94128   5.767  21.123  11.101
21704W        W94129  11.193  19.982  14.516
21705W        W94130  23.476  15.719   2.446
21706W        W94131   9.483  19.791   0.542
21707W        W94132  42.110   1.123   3.722
21708W        W94133  34.677  44.627  12.477
21709W        W94134   8.338  33.117  10.627
21710W        W94135  10.411  42.366   3.471
21711W        W94136  26.986  27.762   2.369
21712W        W94137  33.589   9.334   3.601
21713W        W94138   2.741  25.095  13.026
21714W        W94139  13.821   1.743   3.378
21715W        W94140  24.269  34.528  13.936
21716W        W94141  35.954  22.551   1.463
21717W        W94142  12.329  44.131  13.085
21718W        W94143  38.332  25.042  14.354
21719W        W94144  34.594  20.841  14.263
21720W        W94145  21.076   4.634  12.941
21721W        W94146  24.158  17.568   0.236
21722W        W94147  38.779  36.337  11.251
21723W        W94148  19.730  26.688  11.829
21724W        W94149   0.345  25.461   1.222
21725W        W94150  25.928  25.962   0.291
21726W        W94151   5.290  28.951  10.265
21727W        W94152  36.513  17.182   4.727
21728W        W94153  25.710   5.697   2.282
21729W        W94154  42.809  29.493   2.103
21730W        W94155   3.931  40.486   3.813
21731W        W94156  20.468  37.567   2.308
21732W        W94157  42.072  16.535   1.354
21733W        W94158  33.987  31.080  13.595
21734W        W94159  13.189   1.473   3.739
21735W        W94160  12.184   4.431   4.020
21736W        W94161  36.485  29.109  13.374
21737W        W94162  10.141  41.965   2.294
21738W        W94163  13.329   2.216  10.118
21739W        W94164  33.105  13.825  10.568
21740W        W94165  16.607  25.793  14.454
21741W        W94166   3.956  13.348  11.254
21742W        W94167   5.248  37.468   0.938
21743W        W94168  22.181  12.889   5.463
21744W        W94169   0.990  24.825   4.649
21745W        W94170  30.341  29.053   1.403
21746W        W94171  12.405  26.963  13.938
21747W        W94172  24.154  25.684   2.785
21748W        W94173  12.232  35.198  11.560
21749W        W94174  33.961   1.333   4.136
21750W        W94175   8.761   5.220  10.910
21751W        W94176  10.386  11.833   1.720
21752W        W94177  42.256  23.657   4.375
21753W        W94178  28.441  36.035  11.109
21754W        W94179  36.720  24.145   3.285
21755W        W94180  36.523   1.552  14.147
21756W        W94181  19.594  31.561  11.085
21757W        W94182  13.097   2.950  13.889
21758W        W94183  30.001  22.806  14.273
21759W        W94184  40.097   6.741  11.223
21760W        W94185  24.139  18.732   1.819
21761W        W94186   1.209  13.233  11.100
21762W        W94187  34.995  10.482  13.601
21763W        W94188  32.081  24.256   3.733
21764W        W94189   0.481  44.364  12.476
21765W        W94190  23.997  34.128  12.924
21766W        W94191  40.889  14.375  10.950
21767W        W94192  35.881  43.112   1.723
21768W        W94193   6.521  21.587   0.169
21769W        W94194  18.631   0.469   0.943
21770W        W94195  26.205  20.166   1.645
21771W        W94196  29.202   5.870  13.815
21772W        W94197  42.967  26.203  12.389
21773W        W94198   8.909  38.969   4.749
21774W        W94199  39.764   6.329  11.122
21775W        W94200  39.918   5.818  11.103
21776W        W94201  39.909   0.490   3.889
21777W        W94202  15.108  25.261  10.729
21778W        W94203  43.049   9.331   4.274
21779W        W94204  28.953  10.319   4.149
21780W        W94205  19.644   2.520  14.911
21781W        W94206   7.454   2.156   2.200
21782W        W94207  11.329   9.760  14.556
21783W        W94208  32.078  11.848   4.180
21784W        W94209  10.213  43.915  14.576
21785W        W94210  44.667  23.418  14.825
21786W        W94211  34.100  40.352  10.728
21787W        W94212   9.121  44.712  14.893
21788W        W94213  38.925  28.124   3.337
21789W        W94214  44.731  24.109  12.513
21790W        W94215   1.370  36.330   4.026
21791W        W94216  16.319   5.817  11.451
21792W        W94217  43.809   8.082   2.333
21793W        W94218  33.487  24.246   0.877
21794W        W94219  30.577  40.146  12.562
21795W        W94220  44.931  25.931   2.438
21796W        W94221  41.537  13.620   4.371
21797W        W94222  37.076  30.677  11.048
21798W        W94223   7.796   3.322   1.394
21799W        W94224  26.118  29.603   9.808
21800W        W94225  26.219  19.723  11.645
21801W        W94226  12.211  20.733   4.312
21802W        W94227   8.342   1.861   1.667
21803W        W94228  24.715  13.106  11.859
21804W        W94229  15.970  23.111   0.373
21805W        W94230  37.060  32.536  12.853
21806W        W94231  26.804   0.104   1.876
21807W        W94232   4.749  16.305   3.350
21808W        W94233  21.223   7.674  14.801
21809W        W94234  23.639  43.688  10.686
21810W        W94235  39.718  11.146   3.232
21811W        W94236  37.802   6.832   0.257
21812W        W94237  10.158   4.418  11.876
21813W        W94238   4.282  37.681   1.191
21814W        W94239  34.842  13.709  12.496
21815W        W94240  33.034  12.750  13.530
21816W        W94241  35.079  27.612  12.265
21817W        W94242   9.524  22.589  13.352
21818W        W94243  44.415  24.956  12.939
21819W        W94244  44.345  32.918  14.885
21820W        W94245  12.045  18.232   4.133
21821W        W94246  30.476  31.393  12.997
21822W        W94247  17.686  27.053   2.889
21823W        W94248  42.542   8.961   3.517
21824W        W94249   8.155  32.972   4.499
21825W        W94250   1.445   6.499   2.430
21826W        W94251  37.444  38.389  14.274
21827W        W94252   4.921  39.616   2.202
21828W        W94253  41.479  28.428  11.736
21829W        W94254  18.497  12.702   4.126
21830W        W94255  42.045  15.674   1.538
21831W        W94256  36.067   0.989  12.478
21832W        W94257  24.277  10.235  13.970
21833W        W94258  30.246  22.484  10.718
21834W        W94259   1.358  38.530   0.849
21835W        W94260   7.921  35.427  12.466
21836W        W94261  42.474  27.574  12.200
21837W        W94262   2.687   0.366   2.240
21838W        W94263  19.104  32.920   3.871
21839W        W94264  37.805  20.515   0.354
21840W        W94265  39.935  26.018   0.478
21841W        W94266  25.580   0.086   2.455
21842W        W94267  24.603  42.096  14.178
21843W        W94268   9.794   1.914  14.344
21844W        W94269  37.064  31.801  13.513
21845W        W94270  42.592  35.356  13.469
21846W        W94271  13.697  35.918   2.011
21847W        W94272  16.131  19.597  11.612
21848W        W94273   5.906   7.277   3.595
21849W        W94274   7.686  25.831  12.804
21850W        W94275   0.445  44.842  13.775
21851W        W94276  13.659  28.459   4.570
21852W        W94277  44.027   6.809  14.981
21853W        W94278  27.966  43.345   0.906
21854W        W94279  23.629  26.279   3.267
21855W        W94280  18.752   6.015  10.981
21856W        W94281  28.889  43.338  12.323
21857W        W94282  23.933  34.438   1.737
21858W        W94283  42.550  31.900   1.781
21859W        W94284  27.429   5.315   3.287
21860W        W94285  33.391   1.075   0.911
21861W        W94286  12.658   4.392   4.212
21862W        W94287   1.834   9.415   4.658
21863W        W94288   3.877  12.281  13.059
21864W        W94289   0.191  25.341   2.668
21865W        W94290   8.631   6.199   2.832
21866W        W94291  21.191  27.939  14.239
21867W        W94292   6.504  32.055   2.773
21868W        W94293  27.475  25.019   0.771
21869W        W94294  31.390  16.808   3.832
21870W        W94295  43.456  19.154   9.506
21871W        W94296   6.159  29.356  13.046
21872W        W94297  12.295  44.980   4.191
21873W        W94298  20.122   9.640  14.500
21874W        W94299  26.415  24.942   0.736
21875W        W94300  27.138  28.913   2.741
21876W        W94301  40.484  44.874  12.540
21877W        W94302  15.217  44.290   0.301
21878W        W94303  14.424   3.869   2.676
21879W        W94304  15.646  10.144   1.355
21880W        W94305  10.251  15.586  13.772
21881W        W94306   3.541   9.941  14.357
21882W        W94307  41.058  39.484  10.774
21883W        W94308  11.747  25.081   0.441
21884W        W94309  25.493   3.423  10.442
21885W        W94310  20.998  10.911  14.835
21886W        W94311  10.577  13.092  13.041
21887W        W94312  41.319  32.403   3.169
21888W        W94313   2.216  41.461  10.363
21889W        W94314  32.766  31.380   1.925
21890W        W94315  13.730  10.622  12.845
21891W        W94316   4.098  20.324  11.016
21892W        W94317  12.174   1.965   5.413
21893W        W94318  19.147  40.240  11.118
21894W        W94319   9.487  38.971   2.946
21895W        W94320  36.806  19.182  11.945
21896W        W94321   2.544  44.861   3.238
21897W        W94322  33.545  37.860   1.288
21898W        W94323  17.007   4.921   0.832
21899W        W94324  25.140  35.057  13.102
21900W        W94325   4.397  25.616   2.877
21901W        W94326   3.424   1.898   4.201
21902W        W94327  27.347  28.331   0.794
21903W        W94328  36.595   2.933  14.750
21904W        W94329  36.609  23.281   0.973
21905W        W94330  37.926  35.601   1.454
21906W        W94331  14.326  31.612   0.945
21907W        W94332  37.346  38.340  13.387
21908W        W94333  14.051  37.175   2.202
21909W        W94334   1.496  38.862  14.460
21910W        W94335  20.110   0.371   3.396
21911W        W94336  28.429  35.542  14.544
21912W        W94337  22.424   6.827  11.053
21913W        W94338  10.735  18.248   2.446
21914W        W94339  43.501   5.984  12.577
21915W        W94340  38.615  33.725   0.005
21916W        W94341  36.594  17.798  13.593
21917W        W94342   0.757  27.523  13.553
21918W        W94343  14.532  35.338  11.780
21919W        W94344  33.901   3.290  13.372
21920W        W94345  40.573  23.681  14.663
21921W        W94346  25.775  40.012  11.398
21922W        W94347  39.587  25.249  11.087
21923W        W94348  22.989   7.887  14.855
21924W        W94349  19.087  26.734  10.963
21925W        W94350  17.021  20.568  11.204
21926W        W94351  10.122  39.068   2.892
21927W        W94352  24.569  13.668   3.618
21928W        W94353  38.104   8.780  14.973
21929W        W94354  26.170  40.304  10.648
21930W        W94355  32.174  40.948   2.818
21931W        W94356   5.520  12.741  13.152
21932W        W94357  44.464   0.780  13.345
21933W        W94358   0.060   4.543  13.690
21934W        W94359  40.420  15.566  11.689
21935W        W94360  41.362  31.022   0.777
21936W        W94361  10.709  33.131  11.186
21937W        W94362   6.225   3.337  13.800
21938W        W94363  44.282  39.858  13.616
21939W        W94364  43.751  36.811  13.805
21940W        W94365   8.406  31.727   0.089
21941W        W94366  17.867  14.023  11.178
21942W        W94367  24.496  44.021   3.128
21943W        W94368  35.768   8.860  11.036
21944W        W94369  20.682  26.049   4.712
21945W        W94370  19.107  14.523  10.698
21946W        W94371  36.379   4.549  10.703
21947W        W94372  27.226   4.858   0.494
21948W        W94373  23.119  22.343   4.042
21949W        W94374  13.577  12.602  13.183
21950W        W94375  16.302  15.970   0.206
21951W        W94376   5.196  44.724  11.437
21952W        W94377  36.969  40.998  13.884
21953W        W94378  30.386  43.474   1.763
21954W        W94379   2.472  29.874   0.858
21955W        W94380  30.422   2.039   0.312
21956W        W94381  27.250  32.092   2.862
21957W        W94382  37.924  29.433   1.267
21958W        W94383  31.179   7.331   5.029
21959W        W94384  29.415  35.042  14.505
21960W        W94385   4.504  23.453   2.141
21961W        W94386  25.203  32.710  11.015
21962W        W94387   2.446   4.942   5.339
21963W        W94388  24.710  11.927   3.350
21964W        W94389   2.368  32.410   0.718
21965W        W94390  44.237  35.561  11.691
21966W        W94391  20.496  27.183  12.266
21967W        W94392  27.959   9.202  11.151
21968W        W94393   3.410  16.106  12.427
21969W        W94394   0.376  14.239   1.674
21970W        W94395  14.740  44.717  14.820
21971W        W94396  41.891  26.671  11.179
21972W        W94397  13.577  28.717   4.097
21973W        W94398  38.202  29.023  11.456
21974W        W94399  14.817  11.651   3.943
21975W        W94400  29.559  11.378   2.776
21976W        W94401  19.628  43.184   0.039
21977W        W94402   0.033  26.642   4.748
21978W        W94403  32.664  26.044  12.184
21979W        W94404  35.818  35.557   0.341
21980W        W94405  37.339  20.958   4.720
21981W        W94406  37.516   4.207  13.120
21982W        W94407   7.723   3.207  11.676
21983W        W94408   8.871  16.112  12.506
21984W        W94409  23.732  32.961   2.308
21985W        W94410  10.813  19.794  13.553
21986W        W94411  33.037   0.868  10.615
21987W        W94412   8.380  18.563   2.369
21988W        W94413  36.967  30.518   4.528
21989W        W94414  28.570  44.905  13.165
21990W        W94415   4.862  44.843  12.596
21991W        W94416  16.297  38.334  13.043
21992W        W94417  29.382   9.271   0.871
21993W        W94418  28.147  24.968  13.741
21994W        W94419  27.591  23.330   2.599
21995W        W94420  22.079   8.918   4.687
21996W        W94421  39.495  37.271  14.193
21997W        W94422  44.601   5.903  11.004
21998W        W94423  33.299  20.598   0.436
21999W        W94424  43.530  14.817   2.772
22000W        W94425  31.927  28.359   4.547
22001W        W94426   3.014  37.505   1.634
22002W        W94427  12.580  30.100  10.983
22003W        W94428  10.594  14.661  10.698
22004W        W94429   2.028   3.245   0.717
22005W        W94430   9.685  22.797   0.188
22006W        W94431  40.077  30.461   4.120
22007W        W94432   5.705  44.453  13.975
22008W        W94433  30.565  14.391  11.298
22009W        W94434  14.128  42.583   2.050
22010W        W94435  40.747  26.118  14.871
22011W        W94436  33.052  21.128  14.384
22012W        W94437  40.843  20.873   1.256
22013W        W94438  33.300  14.786   4.059
22014W        W94439  36.500  41.017   0.384
22015W        W94440  11.764  19.221   4.700
22016W        W94441   9.854  27.510  14.853
22017W        W94442   2.338  19.092  14.873
22018W        W94443   6.672  12.651  11.634
22019W        W94444  37.081  36.771  11.814
22020W        W94445  32.529   0.221   1.871
22021W        W94446  28.728  18.574   3.186
22022W        W94447  42.862  37.128  11.072
22023W        W94448  44.358  29.555   5.044
22024W        W94449  34.043   2.974  12.967
22025W        W94450   3.717  44.531  12.640
22026W        W94451  17.289  28.721  11.153
22027W        W94452   8.159  30.140  13.481
22028W        W94453  42.061  34.423  12.953
22029W        W94454  43.435  35.573  11.497
22030W        W94455  34.074  35.814  11.593
22031W        W94456  23.179  25.984   4.799
22032W        W94457  23.561   2.763  13.799
22033W        W94458   1.324   8.599  11.135
22034W        W94459  35.289  28.602   1.211
22035W        W94460  27.217  37.393  13.912
22036W        W94461  43.584  32.597  10.661
22037W        W94462   3.868  21.001   5.059
22038W        W94463  39.779  38.100  13.886
22039W        W94464  35.134   7.327   9.805
22040W        W94465  43.988   4.820  12.113
22041W        W94466  27.546   5.795  11.417
22042W        W94467   6.804  11.599  14.483
22043W        W94468   7.046  31.464  14.683
22044W        W94469  44.857   9.198   0.892
22045W        W94470  25.891  26.455   0.403
22046W        W94471  30.261  43.960  14.283
22047W        W94472  23.119   4.247   2.924
22048W        W94473  13.777   2.239   3.211
22049W        W94474  28.303  14.706  11.715
22050W        W94475   5.241   2.976   0.793
22051W        W94476   3.955  13.637  13.910
22052W        W94477  11.040  24.913   2.820
22053W        W94478  15.317  35.624  11.379
22054W        W94479  32.090  39.502   4.257
22055W        W94480   2.344  25.439   0.371
22056W        W94481   4.515  25.106  10.943
22057W        W94482  27.670   7.019  14.312
22058W        W94483  42.066  10.842  14.717
22059W        W94484  14.116  24.162   3.649
22060W        W94485  12.178  37.060  11.233
22061W        W94486  38.963  36.814  10.954
22062W        W94487  10.836  10.266  13.597
22063W        W94488  16.332  21.027   4.489
22064W        W94489  42.167  10.378  12.809
22065W        W94490   8.491   1.618   4.517
22066W        W94491   5.939  18.127  14.831
22067W        W94492  20.165  12.308  11.028
22068W        W94493  39.902  14.927   4.696
22069W        W94494  36.029  17.024  11.621
22070W        W94495   1.905   5.902  12.954
22071W        W94496  44.257  41.422  11.146
22072W        W94497  20.385   9.246  11.880
22073W        W94498  35.685   4.963   2.833
22074W        W94499   0.869   7.827  12.447
22075W        W94500  44.043  34.773  14.862
22076W        W94501  22.616  27.966   2.269
22077W        W94502  43.180  29.658  10.715
22078W        W94503  29.793  37.978   2.172
22079W        W94504  40.332  41.865  14.015
22080W        W94505  37.445  28.220  11.883
22081W        W94506  22.136  12.226  12.028
22082W        W94507   9.422  42.822  10.847
22083W        W94508  15.703   9.641   1.284
22084W        W94509  43.911  12.627   0.746
22085W        W94510  40.947   0.908   2.398
22086W        W94511  17.510  29.210   4.169
22087W        W94512  16.415  11.064   1.753
22088W        W94513  23.388  43.724  13.845
22089W        W94514  44.815  25.798   1.338
22090W        W94515  13.038  25.052   1.733
22091W        W94516   3.369  41.886   1.474
22092W        W94517  14.397  29.470   3.872
22093W        W94518  21.645   3.971   1.383
22094W        W94519   9.133  42.764   3.736
22095W        W94520  30.342  13.346  13.169
22096W        W94521  17.507  38.109  11.038
22097W        W94522  23.733  39.359  11.093
22098W        W94523  15.243  42.975   4.303
22099W        W94524   9.933  27.828  12.106
22100W        W94525  27.904   5.411   0.277
22101W        W94526   1.141  34.026  12.371
22102W        W94527  20.862  20.725   1.257
22103W        W94528  35.428  29.131  11.923
22104W        W94529   2.846  28.237  14.511
22105W        W94530  42.332  30.151   0.616
22106W        W94531  18.315  26.984   2.586
22107W        W94532  36.392  42.538  12.841
22108W        W94533  21.641   1.258  10.668
22109W        W94534  11.727  33.649   2.263
22110W        W94535  24.835   1.908  14.400
22111W        W94536  15.358   9.724   2.224
22112W        W94537  16.354  23.188  13.027
22113W        W94538  36.074   7.036   1.948
22114W        W94539  16.673  34.449  11.044
22115W        W94540   7.685  24.428  12.612
22116W        W94541   9.801   0.255   4.928
22117W        W94542   7.835  21.765   1.294
22118W        W94543  36.173  40.072   1.059
22119W        W94544  27.653   1.296  13.364
22120W        W94545   6.153   7.459   1.320
22121W        W94546   3.736  42.119  12.274
22122W        W94547  37.082  15.591   4.536
22123W        W94548  38.836  16.863  10.717
22124W        W94549  12.305   9.281   0.312
22125W        W94550  11.955  44.838  10.299
22126W        W94551  38.083  27.677   1.936
22127W        W94552  14.961  33.535   4.166
22128W        W94553   1.522  20.350   4.244
22129W        W94554  44.815  21.093   1.232
22130W        W94555  40.236  40.330   2.640
22131W        W94556  32.969  18.071  10.956
22132W        W94557  30.483  44.713   4.577
22133W        W94558   9.364  21.612  13.372
22134W        W94559  44.177  14.796   0.873
22135W        W94560  15.822  13.811  12.942
22136W        W94561  26.475  27.442  11.552
22137W        W94562  38.926  13.409   4.601
22138W        W94563  26.555  39.931   0.601
22139W        W94564   9.878  19.346  12.302
22140W        W94565  12.158  15.738   2.311
22141W        W94566  32.883  44.866   4.182
22142W        W94567  31.523  30.283   3.248
22143W        W94568  13.342  36.765  14.491
22144W        W94569  33.365  16.012  13.322
22145W        W94570  12.065  31.570   0.812
22146W        W94571  40.665  17.812   1.884
22147W        W94572   7.792  38.569   3.594
22148W        W94573  12.285  26.487   2.582
22149W        W94574   1.271  27.578  13.524
22150W        W94575  27.503  16.795  11.883
22151W        W94576  15.181   1.569   1.657
22152W        W94577  43.848  30.142   3.715
22153W        W94578  38.063  38.382  12.973
22154W        W94579  35.107  24.205  13.344
22155W        W94580   4.357  24.157   1.208
22156W        W94581  20.108  39.037   0.782
22157W        W94582  26.581   2.655  14.901
22158W        W94583  23.014  19.776   2.765
22159W        W94584  26.428  37.841  13.921
22160W        W94585   7.694  11.318   2.133
22161W        W94586  42.009  19.106   2.331
22162W        W94587  17.801  36.360   1.212
22163W        W94588   1.956   3.320   1.307
22164W        W94589   8.787  39.357  13.430
22165W        W94590  33.522  34.212  13.785
22166W        W94591   1.471   2.417  10.923
22167W        W94592  38.512   7.068  13.176
22168W        W94593  39.199   4.454   9.897
22169W        W94594  35.104  38.602   4.001
22170W        W94595  19.114  41.455  12.395
22171W        W94596  26.973  38.011   3.195
22172W        W94597  43.497  16.947   1.518
22173W        W94598  15.517  31.629   4.724
22174W        W94599   1.260   4.300  14.432
22175W        W94600   5.920  44.538   0.882
22176W        W94601   1.446  14.760   0.590
22177W        W94602  35.934  11.518  12.506
22178W        W94603   5.886  17.569  11.095
22179W        W94604  27.039  42.236   3.352
22180W        W94605  28.529  17.407  13.312
22181W        W94606  40.450  16.620   4.207
22182W        W94607  11.664  37.333  12.417
22183W        W94608  25.301  13.894   1.788
22184W        W94609   1.803  23.215  10.406
22185W        W94610   4.360  18.556  13.503
22186W        W94611  15.107  22.599  14.119
22187W        W94612  36.932  11.303   3.710
22188W        W94613   7.403  31.162   4.551
22189W        W94614  11.655  28.269  14.249
22190W        W94615  27.190   5.871   3.246
22191W        W94616  31.391  35.086  10.825
22192W        W94617  15.054  31.006  14.935
22193W        W94618  14.794  29.261  14.853
22194W        W94619  10.196  41.352  10.421
22195W        W94620  27.415  18.751  10.747
22196W        W94621  30.866  32.167  10.266
22197W        W94622   2.492   4.461   1.894
22198W        W94623  33.531  19.954  12.133
22199W        W94624   5.187  23.532   4.346
22200W        W94625  22.560  17.372   0.355
22201W        W94626  44.191  33.632   4.039
22202W        W94627  44.036  21.063   2.171
22203W        W94628   2.425  31.036   0.378
22204W        W94629  39.923  31.628   2.795
22205W        W94630  24.173  36.362   1.722
22206W        W94631  40.479  18.464  12.539
22207W        W94632   2.181  19.205  10.711
22208W        W94633  17.403   4.153   2.454
22209W        W94634   2.915  33.029   0.226
22210W        W94635  38.444  25.900  11.192
22211W        W94636  16.242   6.641   2.755
22212W        W94637  44.530  15.603   4.660
22213W        W94638  40.096  37.542   0.873
22214W        W94639  42.561  18.659  12.924
22215W        W94640  12.785  23.362   0.554
22216W        W94641  30.511  15.953  12.499
22217W        W94642   5.675  36.471   2.643
22218W        W94643   0.311  43.714   1.299
22219W        W94644  39.159  36.140  11.603
22220W        W94645  40.177  39.900   3.882
22221W        W94646  42.492  35.486   0.220
22222W        W94647  19.110   5.204  14.578
22223W        W94648  25.526   0.025   2.952
22224W        W94649  42.366  15.226  11.204
22225W        W94650  23.063   9.705   5.107
22226W        W94651  38.512  15.876   3.167
22227W        W94652  10.032   7.858  13.978
22228W        W94653  43.211  20.388   5.408
22229W        W94654  41.991  30.952  12.530
22230W        W94655  29.650  27.542  11.385
22231W        W94656   8.187  32.837  12.848
22232W        W94657  38.816  24.630  11.985
22233W        W94658  27.188  13.822   1.769
22234W        W94659  13.147  42.908   4.544
22235W        W94660  37.015   5.402   2.318
22236W        W94661  12.910  13.663   2.602
22237W        W94662  33.337  19.143  10.557
22238W        W94663  22.834  23.952  12.445
22239W        W94664  37.919  40.300   4.507
22240W        W94665  14.236  24.210  14.357
22241W        W94666  25.258   4.738  10.596
22242W        W94667   9.571  32.508  14.755
22243W        W94668  11.270  16.773   3.229
22244W        W94669  23.022  13.554   2.261
22245W        W94670   0.268  26.625  10.654
22246W        W94671  14.209  32.874  13.456
22247W        W94672   3.316  35.034   2.650
22248W        W94673  22.615   4.180   2.870
22249W        W94674  29.425  43.124   0.026
22250W        W94675   7.344  30.193   2.194
22251W        W94676  31.570   5.295   4.356
22252W        W94677   3.266  42.727  11.029
22253W        W94678  14.585  24.273  11.040
22254W        W94679  28.417  21.650  11.658
22255W        W94680  44.952   6.948   4.775
22256W        W94681  34.861  13.680   1.139
22257W        W94682  12.700  31.098   4.594
22258W        W94683  20.271  28.676   4.230
22259W        W94684  13.496  17.482  13.989
22260W        W94685  12.534  24.041  14.826
22261W        W94686  23.112  28.939  12.094
22262W        W94687   5.964  20.662   2.836
22263W        W94688   3.272  14.824   4.247
22264W        W94689  28.483   3.225  12.889
22265W        W94690  40.257  38.471  12.731
22266W        W94691  36.085  22.932   2.718
22267W        W94692  11.049  36.950   4.304
22268W        W94693  29.890  21.020   1.334
22269W        W94694   6.940  29.111  11.138
22270W        W94695  11.721  19.513   3.449
22271W        W94696  25.672   8.177  13.845
22272W        W94697  15.851  37.652  10.352
22273W        W94698  43.394   3.324  14.826
22274W        W94699   2.799  24.677  14.228
22275W        W94700   8.371   0.504  11.712
22276W        W94701  27.213  14.097   4.088
22277W        W94702  31.208   9.784  13.367
22278W        W94703  10.340  25.759  13.024
22279W        W94704  19.122  30.010   0.797
22280W        W94705  12.828  19.647   2.623
22281W        W94706  36.640   9.203   3.526
22282W        W94707  39.373  25.255   0.853
22283W        W94708   5.003  30.132   3.723
22284W        W94709  13.435  12.818  13.905
22285W        W94710   9.904  13.447   1.523
22286W        W94711  26.401  38.588  10.249
22287W        W94712   0.898  37.861   3.250
22288W        W94713  17.444   5.782   2.760
22289W        W94714   7.139  13.726   3.093
22290W        W94715  27.155  35.558  13.787
22291W        W94716  34.548  41.565  10.588
22292W        W94717  20.783  44.524  11.966
22293W        W94718  12.162  26.773  13.529
22294W        W94719  20.665  35.020   4.786
22295W        W94720  34.547  32.213  14.359
22296W        W94721  15.057  34.188   1.642
22297W        W94722  11.180   6.755   4.223
22298W        W94723   2.284  39.328   4.839
22299W        W94724  29.436   6.923   0.289
22300W        W94725  30.458   9.716   4.326
22301W        W94726   3.492  42.648  13.387
22302W        W94727  17.131   6.630  12.007
22303W        W94728  34.550   7.154  12.399
22304W        W94729   8.363  15.891  11.971
22305W        W94730   1.075   3.198  11.944
22306W        W94731  28.528   5.465  14.293
22307W        W94732  17.956  36.151  14.456
22308W        W94733  20.354  42.954  11.185
22309W        W94734  17.523  42.936   4.342
22310W        W94735  10.615  29.061   5.101
22311W        W94736   0.021   3.455  14.015
22312W        W94737  30.211  10.340  14.412
22313W        W94738  12.193   8.370  13.817
22314W        W94739  40.619  36.946  12.995
22315W        W94740  16.108  32.717  12.317
22316W        W94741  16.200  19.945  12.017
22317W        W94742   3.687  33.845   4.580
22318W        W94743  17.247   8.338  12.602
22319W        W94744  25.541  42.224  13.114
22320W        W94745  23.166  44.463  14.950
22321W        W94746  37.489  19.382  14.843
22322W        W94747   1.995  43.104  10.467
22323W        W94748   1.139   1.756   2.827
22324W        W94749   0.230  38.921  13.773
22325W        W94750  22.141  40.990   2.457
22326W        W94751  41.552  18.127   1.442
22327W        W94752  35.062  33.341  12.490
22328W        W94753  33.561  38.403  14.100
22329W        W94754   1.796   8.403   3.237
22330W        W94755  29.190   4.968   0.469
22331W        W94756   5.320   0.696   0.177
22332W        W94757  34.140   0.151  12.373
22333W        W94758   2.776   3.717  14.012
22334W        W94759  21.622   7.448   2.347
22335W        W94760  20.754  39.180  14.474
22336W        W94761  13.421  26.552   2.652
22337W        W94762  25.693   9.794  11.446
22338W        W94763  42.789  13.860   1.323
22339W        W94764  19.106  25.293   0.280
22340W        W94765   1.795   8.893   3.437
22341W        W94766  41.016  21.220  12.450
22342W        W94767  30.330  10.187   4.482
22343W        W94768   9.451  15.981  10.778
22344W        W94769  43.028  25.043   1.327
22345W        W94770  26.262  24.488  11.412
22346W        W94771   3.459  10.912  12.131
22347W        W94772  21.583   1.942   3.325
22348W        W94773  27.876  29.390   4.999
22349W        W94774   2.797  16.861  11.174
22350W        W94775  31.921  24.458  14.009
22351W        W94776  10.825   5.829  11.679
22352W        W94777  19.690  10.681  10.688
22353W        W94778  43.362   6.936  12.420
22354W        W94779  30.226  26.905  13.141
22355W        W94780  22.668  11.322   3.155
22356W        W94781  10.040   2.238   3.780
22357W        W94782  42.659  42.880  11.152
22358W        W94783   8.143  33.586  12.468
22359W        W94784  26.752  12.271   0.975
22360W        W94785  10.911  15.324   3.712
22361W        W94786  22.000  23.741   2.609
22362W        W94787  20.155  42.521  10.387
22363W        W94788  39.988  13.736  13.490
22364W        W94789   3.563  24.390   1.361
22365W        W94790  35.331   3.851   3.270
22366W        W94791  20.533  27.438  14.928
22367W        W94792  43.205  39.712   2.086
22368W        W94793   2.567  36.451  13.570
22369W        W94794  15.549  43.890  12.867
22370W        W94795  43.548  37.922   0.229
22371W        W94796  26.394  11.929  13.921
22372W        W94797  38.327  34.122  11.101
22373W        W94798  42.702   3.399   3.894
22374W        W94799   9.136  40.955   0.070
22375W        W94800  10.171  37.513   1.225
22376W        W94801  22.172  19.469  11.207
22377W        W94802   4.664  18.176  10.707
22378W        W94803  15.604  34.375  11.620
22379W        W94804  39.027   3.399  12.486
22380W        W94805  20.714   6.834  14.538
22381W        W94806  26.833   1.858   3.801
22382W        W94807   5.814   9.751   2.310
22383W        W94808   3.748   6.459  12.894
22384W        W94809  19.316  28.362   2.402
22385W        W94810  12.709  17.754   3.226
22386W        W94811   0.276  44.263  12.014
22387W        W94812   7.474  36.627  10.508
22388W        W94813  32.192  41.456   2.161
22389W        W94814  26.090  39.945  12.765
22390W        W94815  39.414   9.262  10.645
22391W        W94816  15.801  17.818   1.823
22392W        W94817  10.344  20.547  10.719
22393W        W94818  12.888  19.070   0.829
22394W        W94819  17.638  25.869   4.072
22395W        W94820  21.353  29.901   2.983
22396W        W94821   1.014  21.250   1.001
22397W        W94822  14.174   8.064   2.057
22398W        W94823  18.672   3.223   3.928
22399W        W94824  42.716   8.243   0.446
22400W        W94825  19.551  14.621   1.046
22401W        W94826  19.672  24.137   3.826
22402W        W94827   9.600  30.989   1.803
22403W        W94828  40.532   4.768   3.690
22404W        W94829  15.169  22.621  10.672
22405W        W94830  25.924  22.944  13.807
22406W        W94831  10.415   5.921  10.868
22407W        W94832  40.506  25.217  11.040
22408W        W94833  32.756  20.183  12.838
22409W        W94834  27.538  32.842   4.898
22410W        W94835  22.097  25.707  12.152
22411W        W94836  21.748  16.310   1.808
22412W        W94837   8.022  21.104   0.757
22413W        W94838  28.696  18.818   1.848
22414W        W94839  12.004  36.154  14.388
22415W        W94840  25.192   6.975   4.296
22416W        W94841  24.709  25.351  12.513
22417W        W94842   8.219   0.478  14.406
22418W        W94843  34.342  34.468   3.006
22419W        W94844  25.808  43.019  13.423
22420W        W94845   2.327  18.290  13.451
22421W        W94846  11.469   7.152   9.828
22422W        W94847  11.829  43.587   1.136
22423W        W94848  24.944  16.071  12.840
22424W        W94849  24.621  22.711   1.227
22425W        W94850  22.578  12.666   3.903
22426W        W94851  39.270   2.813  13.420
22427W        W94852  32.412  19.115   2.231
22428W        W94853  16.427  40.863   3.943
22429W        W94854  20.165  18.058   0.311
22430W        W94855  10.736  32.054  14.545
22431W        W94856  24.677  18.722   1.924
22432W        W94857   7.413  11.405   1.214
22433W        W94858  23.179  26.492   2.198
22434W        W94859  22.551  26.984   1.721
22435W        W94860  44.019  31.631   0.965
22436W        W94861   8.407  10.641   0.025
22437W        W94862  26.827  37.220   4.141
22438W        W94863  35.827   4.009   3.590
22439W        W94864  42.767   6.840   0.455
22440W        W94865  13.276  12.887  11.176
22441W        W94866  14.769  39.295   4.640
22442W        W94867  35.372   1.438   3.784
22443W        W94868  36.140  12.100  11.146
22444W        W94869  30.335  44.752  13.879
22445W        W94870   0.926   6.466  14.373
22446W        W94871   9.522  14.068  10.167
22447W        W94872  31.600  41.233  13.884
22448W        W94873  18.130   4.060   4.894
22449W        W94874  23.569  41.480   3.915
22450W        W94875  11.910  44.427   3.586
22451W        W94876   5.718  43.121  12.051
22452W        W94877  37.892   1.348  10.830
22453W        W94878  24.328  37.250  14.029
22454W        W94879   7.014  15.440  13.851
22455W        W94880  16.034  30.972  10.932
22456W        W94881  20.077   5.821  13.976
22457W        W94882   3.939   8.895   1.608
22458W        W94883  16.131  44.014  12.085
22459W        W94884   1.476  25.977   0.222
22460W        W94885  24.023  38.054   1.580
22461W        W94886  23.855  32.247   3.401
22462W        W94887  42.227   8.126   0.287
22463W        W94888  30.909  27.569  10.935
22464W        W94889   7.514   3.232   1.920
22465W        W94890  20.276  13.286  12.220
22466W        W94891  21.524  44.365  11.770
22467W        W94892  18.868  21.297   4.475
22468W        W94893  21.418  42.867   1.478
22469W        W94894  13.912  10.287   3.192
22470W        W94895  26.280   2.415   0.739
22471W        W94896  41.100  17.094  11.122
22472W        W94897  13.702  22.217  12.538
22473W        W94898   0.295  38.792   3.619
22474W        W94899  21.216   8.257  11.598
22475W        W94900  16.996  35.184  11.731
22476W        W94901  13.741  26.202  13.869
22477W        W94902  10.007  38.507   1.742
22478W        W94903  14.499  39.118  10.205
22479W        W94904  17.740   0.274  12.573
22480W        W94905  35.905  14.542  12.053
22481W        W94906  36.138  17.243  14.897
22482W        W94907  34.021  16.994   0.475
22483W        W94908   0.919  24.021  14.836
22484W        W94909  28.524  39.257  12.507
22485W        W94910   1.425  20.038   4.648
22486W        W94911  22.308  36.090   2.494
22487W        W94912  13.723  35.895  12.585
22488W        W94913   4.859  21.977   3.353
22489W        W94914  18.754   2.030   3.284
22490W        W94915  39.603  30.191  11.166
22491W        W94916  15.721  22.725   3.147
22492W        W94917   8.891  44.389   2.018
22493W        W94918  42.678  40.040   0.467
22494W        W94919   2.412  19.989  10.802
22495W        W94920  44.342  16.781  10.577
22496W        W94921  14.016   9.373  14.801
22497W        W94922   5.190  11.349   4.211
22498W        W94923  36.338   7.388   4.288
22499W        W94924  21.660  14.530  11.432
22500W        W94925  38.488  16.131   2.662
22501W        W94926  26.672  39.454  10.729
22502W        W94927  31.614   0.755  10.546
22503W        W94928   0.938  14.852  14.905
22504W        W94929  21.481  18.689   4.335
22505W        W94930  25.094  40.809   3.722
22506W        W94931  13.738  16.729  11.517
22507W        W94932  19.698  19.072   0.844
22508W        W94933   0.750  21.159  12.894
22509W        W94934  35.875   6.427   1.325
22510W        W94935   3.176   6.901  13.989
22511W        W94936  29.928  32.780  13.446
22512W        W94937   5.912  41.946  11.610
22513W        W94938  41.028   1.375   1.043
22514W        W94939   7.753   2.787  13.460
22515W        W94940   1.278  41.451  11.650
22516W        W94941  16.253  38.317   3.052
22517W        W94942  28.391  11.875  11.579
22518W        W94943  24.679  25.016  10.747
22519W        W94944   0.739  15.346   4.097
22520W        W94945  44.080  29.153   3.285
22521W        W94946  18.841  42.673  13.918
22522W        W94947  27.370  19.186   2.676
22523W        W94948  29.996   5.464  12.094
22524W        W94949  23.206   9.048   2.499
22525W        W94950  28.339  21.039  11.085
22526W        W94951  11.857   3.650  14.671
22527W        W94952  42.610  26.240   1.940
22528W        W94953  31.775   6.249   3.833
22529W        W94954   6.727  12.281  13.362
22530W        W94955  37.059  12.389   0.774
22531W        W94956  31.186   0.332   2.438
22532W        W94957  24.585  18.592   0.526
22533W        W94958  11.205   7.353   0.932
22534W        W94959  36.847   2.099  12.329
22535W        W94960  38.116  44.856  12.216
22536W        W94961  42.637  39.409  12.020
22537W        W94962   4.447  31.587   2.566
22538W        W94963   2.920  19.985   3.182
22539W        W94964  27.047   4.603   9.899
22540W        W94965   9.629  32.530  14.228
22541W        W94966  39.020  10.428   1.868
22542W        W94967  32.430  39.821  13.018
22543W        W94968  15.803   1.362   0.388
22544W        W94969   2.405  40.497  12.414
22545W        W94970  36.851  20.030   3.290
22546W        W94971  27.493  19.536   0.382
22547W        W94972  34.414  33.932  14.846
22548W        W94973  26.630   5.192  11.428
22549W        W94974  24.632  22.258   0.982
22550W        W94975  37.265  42.509   3.808
22551W        W94976  15.250   0.822   2.627
22552W        W94977   8.850  16.040   0.372
22553W        W94978  14.579  20.998  14.403
22554W        W94979  12.361  22.106  12.606
22555W        W94980  19.789  33.537  11.898
22556W        W94981   6.846  21.710  13.468
22557W        W94982  12.087  34.468   1.719
22558W        W94983   0.269  13.782   0.871
22559W        W94984  27.393  10.820  13.397
22560W        W94985  24.387   1.140  13.525
22561W        W94986  35.373   3.160   2.655
22562W        W94987  13.333  29.584  13.515
22563W        W94988  30.839  22.573   2.142
22564W        W94989  33.452  40.567  13.607
22565W        W94990  33.857  26.282  14.986
22566W        W94991   3.687  24.020  11.633
22567W        W94992  23.781   9.230  12.512
22568W        W94993  11.855  41.469  14.903
22569W        W94994  18.778  30.958   0.723
22570W        W94995  18.567   7.149   4.603
22571W        W94996  15.633  28.720  12.970
22572W        W94997  43.237   0.880   2.733
22573W        W94998  23.594   3.963  13.498
22574W        W94999   8.613  28.113  13.912
22575W        W95000  25.547  33.763  11.022
22576W        W95001  16.887  33.751  12.950
22577W        W95002  18.657   0.578   2.968
22578W        W95003  30.111  42.504  14.290
22579W        W95004   0.861   5.707   0.992
22580W        W95005   0.994  41.842   3.356
22581W        W95006  28.209  20.470   2.737
22582W        W95007  23.033  27.383  12.014
22583W        W95008   6.204   5.646  13.414
22584W        W95009   0.488   6.972   4.821
22585W        W95010  25.014   4.817   3.337
22586W        W95011  25.437  36.826  11.604
22587W        W95012   8.665  27.388   3.302
22588W        W95013  39.092   5.659  14.042
22589W        W95014  22.789  42.300  13.197
22590W        W95015  13.164  21.263  11.429
22591W        W95016  34.474  24.764  13.755
22592W        W95017  41.370  21.614  10.501
22593W        W95018  15.541  11.389  12.949
22594W        W95019  27.932  31.824   3.192
22595W        W95020   0.830  29.728   2.716
22596W        W95021  35.526  42.464  12.541
22597W        W95022  17.301  28.018  14.904
22598W        W95023  13.804  44.748   3.770
22599W        W95024   6.381  36.496   2.904
22600W        W95025   7.487  25.399  13.869
22601W        W95026   9.892  18.335  14.302
22602W        W95027   6.756  42.124   1.444
22603W        W95028  14.721  34.506  10.605
22604W        W95029  43.586  11.935   1.916
22605W        W95030   6.700  40.415  13.764
22606W        W95031  31.069  28.097  13.062
22607W        W95032  21.961  18.137  14.904
22608W        W95033  44.904  23.599  14.359
22609W        W95034  41.575   0.455   4.294
22610W        W95035  36.567  15.514  11.383
22611W        W95036  23.569  39.721   2.872
22612W        W95037   7.136  26.197   4.597
22613W        W95038  25.440   9.811  14.301
22614W        W95039   3.151  43.951  12.281
22615W        W95040  38.469  35.734  12.021
22616W        W95041  30.188  32.935  12.200
22617W        W95042  20.152  28.117  11.335
22618W        W95043  35.482   5.822   3.151
22619W        W95044  24.649  32.614   1.744
22620W        W95045  33.444   8.348   0.382
22621W        W95046   2.975   0.767   3.222
22622W        W95047   7.461  26.987  11.565
22623W        W95048  40.245  34.077   1.373
22624W        W95049   5.088   7.977   2.361
22625W        W95050   1.027  33.633  14.011
22626W        W95051   0.862  37.598   4.549
22627W        W95052  11.442  35.903   3.066
22628W        W95053   3.905  30.360  14.832
22629W        W95054  24.236  27.631  11.167
22630W        W95055  25.466  41.573   2.320
22631W        W95056  21.659   1.819   1.754
22632W        W95057   3.709  26.065   4.702
22633W        W95058  32.890  25.706  13.688
22634W        W95059  22.985  14.388  10.982
22635W        W95060   3.494  26.463   3.717
22636W        W95061  13.094  33.393  12.151
22637W        W95062  44.573   3.813  13.151
22638W        W95063  39.900  40.038  13.533
22639W        W95064   0.695   8.720  14.962
22640W        W95065  10.378  14.379  13.289
22641W        W95066  41.361  37.891   2.456
22642W        W95067  27.399  27.978   2.702
22643W        W95068  27.848   1.590  11.163
22644W        W95069  22.721  14.154   2.780
22645W        W95070   0.378   2.669  12.217
22646W        W95071  28.652  11.139   1.818
22647W        W95072  22.048   6.956  12.042
22648W        W95073  34.954   9.177   3.750
22649W        W95074  20.705  44.498  10.721
22650W        W95075   2.882  41.864  14.250
22651W        W95076   9.629  27.030   1.532
22652W        W95077   8.362  38.555   0.408
22653W        W95078  41.423  26.571  14.664
22654W        W95079  26.080  14.789   4.687
22655W        W95080  10.790  18.695  14.338
22656W        W95081  22.240  39.827  14.574
22657W        W95082  18.997  43.322   2.229
22658W        W95083  32.913  39.531   2.183
22659W        W95084   0.403   8.825  14.478
22660W        W95085  11.465  42.292   1.810
22661W        W95086  14.719  32.626   4.253
22662W        W95087  35.407  16.312  14.336
22663W        W95088  34.923   9.184   3.217
22664W        W95089  31.167  14.621  11.988
22665W        W95090  19.531  38.960   3.256
22666W        W95091  26.768  11.887  14.793
22667W        W95092  26.473  35.470  10.608
22668W        W95093  28.427  13.315   0.335
22669W        W95094  16.140   8.109  13.115
22670W        W95095  42.489  35.598  12.381
22671W        W95096  18.073  37.128  11.082
22672W        W95097  27.441   6.736   1.911
22673W        W95098  29.946   0.610  13.043
22674W        W95099   5.929  30.030   2.890
22675W        W95100  29.177  15.782  12.060
22676W        W95101  29.881  23.210   0.867
22677W        W95102   3.362  39.539   2.436
22678W        W95103  24.553  32.468  14.682
22679W        W95104  13.057  42.759   1.740
22680W        W95105  28.072  19.239  14.195
22681W        W95106   1.821  22.747  12.874
22682W        W95107  34.479  30.158  12.940
22683W        W95108   5.008  22.044  14.801
22684W        W95109   4.725  43.616   1.369
22685W        W95110   7.713  27.692  14.186
22686W        W95111  11.608   5.381   4.138
22687W        W95112   4.508  20.678  14.759
22688W        W95113  13.639  24.253   5.424
22689W        W95114  40.961  38.593  11.983
22690W        W95115  19.041  41.422   2.170
22691W        W95116  42.970  14.668  10.575
22692W        W95117  20.825  19.166  14.717
22693W        W95118  28.453   9.848  14.698
22694W        W95119   8.989  40.930   3.750
22695W        W95120  26.739  26.983  14.511
22696W        W95121  18.667  42.453  10.881
22697W        W95122  35.912  32.219   4.272
22698W        W95123  44.930  30.493   1.251
22699W        W95124  43.001  42.923   2.471
22700W        W95125   8.220  26.096   0.391
22701W        W95126  30.099  36.026   0.775
22702W        W95127  15.129  36.109   0.910
22703W        W95128  16.233  41.960  14.844
22704W        W95129  42.909  20.605   1.751
22705W        W95130   9.897  38.599  12.740
22706W        W95131  18.037  10.283  11.125
22707W        W95132   2.964  18.292  11.210
22708W        W95133  37.946   2.969  12.944
22709W        W95134   8.581  29.009   0.797
22710W        W95135  43.575   0.168  13.942
22711W        W95136  14.230  33.690   2.865
22712W        W95137  18.590  11.537   0.318
22713W        W95138  15.021  35.536  14.282
22714W        W95139  14.090  11.201   4.230
22715W        W95140  19.101  16.566   1.684
22716W        W95141  19.682  34.064   4.002
22717W        W95142   7.947  35.148  11.996
22718W        W95143  36.322  29.219  12.866
22719W        W95144   0.764  12.777  13.968
22720W        W95145  12.532  15.602  12.950
22721W        W95146  44.011  33.056   2.769
22722W        W95147  43.354  38.811   2.371
22723W        W95148  28.223   3.746  11.596
22724W        W95149  12.177  42.474  13.539
22725W        W95150   5.261  44.360   0.696
22726W        W95151   1.542  41.975   1.792
22727W        W95152  16.748  10.834  12.641
22728W        W95153  38.343  18.110  13.402
22729W        W95154  30.538   3.285  13.553
22730W        W95155  19.252  44.336   2.806
22731W        W95156   0.613   3.325   2.451
22732W        W95157  16.208   7.727  12.323
22733W        W95158  31.326   9.578   3.495
22734W        W95159  40.397  43.443  14.754
22735W        W95160  12.756  26.031  14.338
22736W        W95161  35.517  12.698   0.909
22737W        W95162  29.013   3.142   0.793
22738W        W95163   1.755  21.087   2.776
22739W        W95164  18.081  40.042  14.364
22740W        W95165   0.415   3.382   0.026
22741W        W95166  31.917  12.784  11.561
22742W        W95167  39.444  15.061  10.759
22743W        W95168  42.302  30.935   4.044
22744W        W95169   1.624  43.331   5.029
22745W        W95170  16.202  41.548   0.184
22746W        W95171  17.193  28.946   0.068
22747W        W95172  21.494   3.776   3.263
22748W        W95173  27.478  11.095  12.965
22749W        W95174  27.886  18.279   1.687
22750W        W95175  26.247  12.265  14.733
22751W        W95176   3.291  14.856   2.220
22752W        W95177  20.166  41.349   5.150
22753W        W95178   6.943  26.392   3.181
22754W        W95179  25.035  21.457   3.135
22755W        W95180  12.932  15.182  10.741
22756W        W95181  26.005  38.874  10.985
22757W        W95182  15.278  12.792   3.372
22758W        W95183  39.789  15.361   3.920
22759W        W95184  40.624  37.783  13.967
22760W        W95185  42.375  30.214  11.077
22761W        W95186  35.861   1.951   1.724
22762W        W95187  28.262  16.516  13.379
22763W        W95188  22.959  10.641   1.522
22764W        W95189  14.852  29.844   3.100
22765W        W95190  36.759  38.093  11.473
22766W        W95191   7.194   4.208   1.257
22767W        W95192   0.432  16.999   2.700
22768W        W95193  13.368  34.517  14.756
22769W        W95194  18.221  17.240  14.920
22770W        W95195  23.817   0.134  11.076
22771W        W95196  27.526  42.311   0.374
22772W        W95197  22.189  26.487   0.936
22773W        W95198  42.080   1.183  12.378
22774W        W95199  34.644   1.500  12.450
22775W        W95200  18.428  13.414   1.943
22776W        W95201   3.236   6.825   4.395
22777W        W95202  12.867  38.873  12.595
22778W        W95203  12.658  21.684   5.510
22779W        W95204  21.288  22.643  11.846
22780W        W95205  34.750  22.501   1.976
22781W        W95206  29.722  34.021   2.166
22782W        W95207   6.314  29.900   4.111
22783W        W95208  30.365  12.712  10.630
22784W        W95209  28.368  39.897   3.672
22785W        W95210  26.172  28.994   3.789
22786W        W95211   5.491   1.225   1.499
22787W        W95212  35.078  35.807   2.853
22788W        W95213  36.836  11.750   2.462
22789W        W95214  42.023  29.063  11.990
22790W        W95215  29.254   1.826   1.862
22791W        W95216   4.423  28.005   0.994
22792W        W95217  31.436   4.392  14.467
22793W        W95218  39.960  18.266  12.943
22794W        W95219  39.200  23.005   9.960
22795W        W95220  26.998  35.509   0.388
22796W        W95221  42.897  27.244   4.231
22797W        W95222  30.463  24.231  10.964
22798W        W95223   9.085  12.801   4.782
22799W        W95224   5.203  27.549   1.289
22800W        W95225  35.639  17.186   4.594
22801W        W95226  38.992  16.077   2.840
22802W        W95227  37.511  27.211   1.374
22803W        W95228  44.863   3.324   4.599
22804W        W95229  31.558   5.182   3.858
22805W        W95230   2.396  16.334  14.939
22806W        W95231   3.352  18.773  14.362
22807W        W95232   8.016  14.260  12.541
22808W        W95233  18.784   5.670   4.908
22809W        W95234  15.149   5.737  13.012
22810W        W95235  20.195  25.600  11.163
22811W        W95236  16.288  32.482   0.927
22812W        W95237   0.092  41.033  14.572
22813W        W95238  36.908  19.083   3.867
22814W        W95239  26.083  24.075  12.871
22815W        W95240  20.847   2.158  10.231
22816W        W95241  26.576  20.221   2.183
22817W        W95242  35.323   4.346  11.230
22818W        W95243  14.227  27.886  12.392
22819W        W95244  36.353  40.634  11.805
22820W        W95245  37.370  24.976   2.248
22821W        W95246  29.928  31.445  13.523
22822W        W95247  36.500  35.178   0.795
22823W        W95248   3.611  38.963   1.367
22824W        W95249  25.516  15.429  11.106
22825W        W95250  17.320  12.338   2.650
22826W        W95251  13.282  23.795   1.765
22827W        W95252   9.132  19.672   2.826
22828W        W95253  24.962  33.413  14.545
22829W        W95254  17.768  15.023  13.800
22830W        W95255   0.664  27.449   0.460
22831W        W95256  44.033  25.549  13.678
22832W        W95257  44.034  27.973   4.101
22833W        W95258   2.215  30.413  12.631
22834W        W95259  41.906   9.953  11.462
22835W        W95260  28.205  29.045   4.716
22836W        W95261   2.438  35.082  13.846
22837W        W95262  24.976  35.993  13.801
22838W        W95263  13.537  43.380   2.355
22839W        W95264  44.544  39.017  12.396
22840W        W95265  42.427  16.261  10.385
22841W        W95266  10.244  12.553   1.216
22842W        W95267  13.844   5.649   1.271
22843W        W95268  21.946  15.937   4.123
22844W        W95269  10.590   7.820  11.263
22845W        W95270   0.483  36.975  13.796
22846W        W95271  13.168  38.919   4.165
22847W        W95272  26.434  33.309  10.172
22848W        W95273  15.795  26.405   2.846
22849W        W95274  17.190  24.893   1.207
22850W        W95275  37.945  33.784   2.318
22851W        W95276   9.848  13.971   1.620
22852W        W95277  38.080  35.772  13.887
22853W        W95278  38.401  37.777   2.760
22854W        W95279   1.052  42.424  11.710
22855W        W95280   3.536  10.492   1.813
22856W        W95281   9.016  14.406  12.597
22857W        W95282  10.743   6.020  14.943
22858W        W95283  12.309  29.910   3.249
22859W        W95284  21.936   3.756  12.069
22860W        W95285   8.760  14.108  12.961
22861W        W95286  29.237  41.724  14.004
22862W        W95287  31.466  34.673  13.937
22863W        W95288  43.775  19.902  14.651
22864W        W95289   3.273  33.319  12.965
22865W        W95290  26.054  44.498  10.727
22866W        W95291  23.699  30.921   4.987
22867W        W95292  33.376  17.128   1.729
22868W        W95293  37.334  18.732   1.812
22869W        W95294   2.531  24.295   1.384
22870W        W95295   1.817  38.934   1.711
22871W        W95296  28.580  17.554  11.391
22872W        W95297  22.591  19.060  14.374
22873W        W95298  24.525  31.125   4.705
22874W        W95299  29.579   6.623   3.395
22875W        W95300  22.264  22.246   3.610
22876W        W95301  26.746   3.440   2.846
22877W        W95302  13.519   9.828   3.807
22878W        W95303  39.585  43.781   0.386
22879W        W95304  27.950  14.806   4.228
22880W        W95305  13.345  29.234   1.346
22881W        W95306  41.860  25.953   4.600
22882W        W95307  10.710  10.642  13.282
22883W        W95308   2.847  31.517  12.907
22884W        W95309  36.881  23.142  12.977
22885W        W95310  35.017   2.793  10.658
22886W        W95311   3.253  15.795   1.126
22887W        W95312   7.372   1.796   0.690
22888W        W95313  34.139   6.799  14.519
22889W        W95314  14.553  26.178   4.622
22890W        W95315  14.630  35.423   2.140
22891W        W95316   5.821  13.786  14.140
22892W        W95317  18.991  13.760   4.936
22893W        W95318  20.868  23.637   3.350
22894W        W95319  12.909  29.557   0.008
22895W        W95320  28.435   3.188   4.649
22896W        W95321  40.870  16.783   3.668
22897W        W95322   8.578  44.529  11.662
22898W        W95323   9.702   4.400   4.637
22899W        W95324   7.105   2.150   3.112
22900W        W95325   1.197   7.741  13.198
22901W        W95326   0.496  34.907   2.758
22902W        W95327  32.057  22.293  10.013
22903W        W95328  41.188  21.386  12.926
22904W        W95329   8.343  14.775   4.689
22905W        W95330  43.947  28.946  14.552
22906W        W95331  44.017  20.104  13.896
22907W        W95332  10.683  12.817  14.308
22908W        W95333  37.040  25.591   2.051
22909W        W95334  13.732  16.601   1.906
22910W        W95335  24.208  34.440  12.523
22911W        W95336  32.552  28.436   2.637
22912W        W95337  36.909  16.495   2.790
22913W        W95338  33.010  38.222   4.064
22914W        W95339  13.746  37.951  14.411
22915W        W95340   5.846  13.853  13.073
22916W        W95341   4.707  25.806   1.242
22917W        W95342   3.671  38.832  13.986
22918W        W95343   1.311   5.994   4.230
22919W        W95344  27.116  29.949   5.525
22920W        W95345  39.989  12.291  13.329
22921W        W95346  39.450  37.898  11.282
22922W        W95347  25.840  34.932   0.330
22923W        W95348  37.719  36.156   1.003
22924W        W95349  25.797  12.285  14.480
22925W        W95350  43.924   2.415   2.366
22926W        W95351  19.674   3.779  14.623
22927W        W95352   4.372  17.027  12.003
22928W        W95353   3.201   2.347   0.303
22929W        W95354  17.096  31.183  12.555
22930W        W95355  32.453   0.341  10.899
22931W        W95356  10.202  19.046  11.540
22932W        W95357  13.103  20.528   4.198
22933W        W95358  42.743  15.134   2.660
22934W        W95359   0.734   4.819   1.984
22935W        W95360  44.498  31.839  12.390
22936W        W95361  12.756  22.642  12.497
22937W        W95362   0.909   8.103  13.424
22938W        W95363   6.679  34.201   2.670
22939W        W95364  43.342   7.901   2.210
22940W        W95365  23.282  30.056   0.382
22941W        W95366  12.755   1.467   4.850
22942W        W95367  15.028   6.431   0.723
22943W        W95368  16.810  26.836   0.807
22944W        W95369  38.299  18.316  12.840
22945W        W95370   2.050  15.360   5.143
22946W        W95371   1.763  41.452  14.083
22947W        W95372  31.085  28.943   4.827
22948W        W95373  40.496  28.969   3.823
22949W        W95374  15.410  10.941  11.185
22950W        W95375   0.315  17.837  14.356
22951W        W95376  10.327  38.056  12.228
22952W        W95377  22.011  23.249   2.793
22953W        W95378  23.967  40.934   4.673
22954W        W95379  17.567  35.675   3.017
22955W        W95380  20.773  25.948   3.774
22956W        W95381  24.107  18.824   2.702
22957W        W95382  34.412  32.045   4.717
22958W        W95383  31.480  43.347  14.336
22959W        W95384  36.081  19.335   1.941
22960W        W95385  18.148  20.992   4.090
22961W        W95386  23.718  42.728   3.794
22962W        W95387  41.638   9.385   1.157
22963W        W95388  12.174  11.730   1.799
22964W        W95389   5.204   5.716   2.459
22965W        W95390  39.101  15.490  14.811
22966W        W95391  17.234  31.620  13.938
22967W        W95392   9.661  18.725   3.909
22968W        W95393   4.254  38.129  11.228
22969W        W95394  20.717   6.282  10.744
22970W        W95395  31.007  27.041  11.136
22971W        W95396  19.824  32.129   3.768
22972W        W95397   3.842  26.900   4.136
22973W        W95398  24.510   7.885  12.561
22974W        W95399  31.955   5.018   4.569
22975W        W95400  16.354  37.322  13.535
22976W        W95401  25.584   1.765   0.875
22977W        W95402  40.263  44.264  11.917
22978W        W95403  26.613   3.650  13.988
22979W        W95404  24.639  14.605  12.992
22980W        W95405  22.618  30.020  14.508
22981W        W95406  15.270  21.618  14.917
22982W        W95407  37.291  10.827  14.007
22983W        W95408  37.282  16.032  11.844
22984W        W95409  16.408  42.602  13.307
22985W        W95410  30.159   1.200   0.432
22986W        W95411  43.709  35.264  12.837
22987W        W95412  34.054  43.339   2.791
22988W        W95413  22.383  10.468   3.355
22989W        W95414   7.189  21.799   2.863
22990W        W95415  41.730   8.583  11.193
22991W        W95416  35.016  21.620   0.945
22992W        W95417  26.273  19.741   1.935
22993W        W95418  27.788  28.028   2.296
22994W        W95419  38.957   3.462   3.202
22995W        W95420  19.491   8.101   4.285
22996W        W95421   8.767  30.552   0.245
22997W        W95422  25.602  31.879   0.277
22998W        W95423  33.836  20.715   4.037
22999W        W95424  15.123   4.652   2.758
23000W        W95425   5.012  42.489  13.393
23001W        W95426  41.898  37.375   2.290
23002W        W95427  26.563  36.440   2.351
23003W        W95428  37.864  26.657   4.254
23004W        W95429  44.238   6.139  13.993
23005W        W95430  41.349  31.442   3.176
23006W        W95431   2.313  18.122   0.254
23007W        W95432  37.642   6.707   0.842
23008W        W95433  43.498   5.269   1.841
23009W        W95434  29.474  43.072  13.914
23010W        W95435  23.106  30.935   0.963
23011W        W95436  19.844   3.345   4.575
23012W        W95437  27.069  39.418   0.386
23013W        W95438  36.203   5.298  11.575
23014W        W95439   4.181  12.285  11.505
23015W        W95440  36.639  42.531  11.971
23016W        W95441  30.898  39.934   5.433
23017W        W95442  33.626   3.683  12.511
23018W        W95443  21.017  11.771  14.360
23019W        W95444  39.588  21.694   0.344
23020W        W95445  43.794  43.159  12.943
23021W        W95446  29.913  19.030  13.008
23022W        W95447  41.570  19.383   2.301
23023W        W95448  28.058  35.816  10.011
23024W        W95449  28.055  24.464  12.869
23025W        W95450   1.420  28.200   3.773
23026W        W95451  22.355   9.630  13.523
23027W        W95452  27.784   3.971  12.599
23028W        W95453   3.325   6.370   4.133
23029W        W95454  11.158  29.297  14.295
23030W        W95455  39.599  24.734  12.677
23031W        W95456   1.246   7.258   3.192
23032W        W95457  22.547  15.421   1.765
23033W        W95458  12.416  13.182   3.950
23034W        W95459  38.017  13.903   2.599
23035W        W95460  13.048  19.615  13.000
23036W        W95461  38.849  31.031  11.741
23037W        W95462  18.129  17.759  13.235
23038W        W95463  22.518  42.415  13.984
23039W        W95464   1.002  40.902  12.988
23040W        W95465   3.702  27.571   2.430
23041W        W95466  38.256  32.694   2.685
23042W        W95467  22.120   8.278  11.113
23043W        W95468  12.818  25.765  12.951
23044W        W95469  43.268  32.016  11.689
23045W        W95470   0.801  29.487  14.858
23046W        W95471   2.858  36.387   2.585
23047W        W95472  15.615   7.964   2.821
23048W        W95473  19.779  30.649  12.964
23049W        W95474  34.355   4.700   1.299
23050W        W95475  43.845   7.739   0.575
23051W        W95476   7.823   0.345  13.078
23052W        W95477   0.452  40.354   1.301
23053W        W95478   5.613  42.905   3.160
23054W        W95479  29.370  42.713  11.182
23055W        W95480  23.644  20.450  12.926
23056W        W95481   3.238  14.277   4.429
23057W        W95482  41.645  26.577   2.334
23058W        W95483  44.847  10.692   1.380
23059W        W95484  29.590  29.534  14.886
23060W        W95485  17.690  16.551  10.978
23061W        W95486  31.903  11.754   1.900
23062W        W95487  41.743   5.090   0.415
23063W        W95488  29.762  19.715   0.844
23064W        W95489  14.298  16.636  14.726
23065W        W95490   4.212  22.538  11.213
23066W        W95491  31.155  10.297   4.118
23067W        W95492  34.048  37.547   3.874
23068W        W95493  29.121  32.660  14.591
23069W        W95494  20.045  43.935   4.037
23070W        W95495  40.046  18.293  13.988
23071W        W95496  36.898  19.170   3.353
23072W        W95497  31.894  18.294   0.762
23073W        W95498   4.861  42.915   0.872
23074W        W95499  44.892  41.504   0.447
23075W        W95500  31.441   5.474   1.377
23076W        W95501  18.540   8.239  10.484
23077W        W95502   5.832  26.963   1.833
23078W        W95503   7.245  35.865   1.428
23079W        W95504   7.421  28.597   3.676
23080W        W95505  34.459  23.694  10.658
23081W        W95506   8.131  23.505   3.689
23082W        W95507  31.327  12.151   0.276
23083W        W95508  39.477  35.109   0.892
23084W        W95509  40.402  18.528   1.352
23085W        W95510   0.524  42.524   3.199
23086W        W95511   8.807  12.642   0.504
23087W        W95512  35.947  34.894  14.256
23088W        W95513  35.875  36.423  11.151
23089W        W95514   1.760  25.453  10.581
23090W        W95515  41.835  14.227   2.744
23091W        W95516  36.231  25.319  14.936
23092W        W95517   9.192  30.223   0.331
23093W        W95518   0.212  27.510  10.625
23094W        W95519  29.604  20.534   2.624
23095W        W95520   4.219   7.641  14.458
23096W        W95521  24.564  19.989  12.793
23097W        W95522  14.746  38.911  14.732
23098W        W95523   1.115  38.964   1.280
23099W        W95524  10.887   9.763  14.927
23100W        W95525  36.281  29.567  14.610
23101W        W95526  41.278  37.646   4.244
23102W        W95527  26.391  31.962  13.023
23103W        W95528   5.866  17.735   2.485
23104W        W95529   1.940   9.922  13.768
23105W        W95530  24.445  33.973   2.901
23106W        W95531  14.612  44.006  12.836
23107W        W95532  25.721  36.021   4.449
23108W        W95533  10.632  29.225  12.507
23109W        W95534  23.172  41.010   4.123
23110W        W95535  35.529  22.935  13.006
23111W        W95536  30.021  36.916  14.086
23112W        W95537  39.498  39.581   1.760
23113W        W95538   1.517   1.485   0.824
23114W        W95539  10.180   5.631   2.355
23115W        W95540  16.812  41.909   2.398
23116W        W95541  18.233  22.804   3.126
23117W        W95542  16.671  40.357   3.880
23118W        W95543   7.493  42.044  12.848
23119W        W95544  36.766  35.471   0.429
23120W        W95545  27.522  19.582  11.634
23121W        W95546  16.362  26.191   3.673
23122W        W95547  11.987  30.693  14.242
23123W        W95548  23.928  22.286  12.449
23124W        W95549   3.218  42.450  10.591
23125W        W95550  16.236  22.646   4.437
23126W        W95551   8.646  44.156   3.020
23127W        W95552  10.069  42.231   1.832
23128W        W95553  20.189  28.158  13.824
23129W        W95554  19.557  40.803  11.902
23130W        W95555  42.283  26.431   1.183
23131W        W95556  16.221  39.086  12.021
23132W        W95557   2.800  22.927   2.789
23133W        W95558   2.845  22.195   1.622
23134W        W95559  44.539  31.016  12.317
23135W        W95560  42.706  37.843  12.323
23136W        W95561  20.752   3.552   0.952
23137W        W95562  43.985  13.768   3.380
23138W        W95563   2.212  36.495  13.097
23139W        W95564  40.388  18.699  14.096
23140W        W95565   0.819  38.411  14.351
23141W        W95566   2.388  30.634   2.313
23142W        W95567   7.917  33.447   1.886
23143W        W95568  41.421  21.666  14.743
23144W        W95569  19.277  36.012   2.067
23145W        W95570  30.776  21.619   9.760
23146W        W95571  10.348  11.310  12.369
23147W        W95572  15.212  19.561   3.741
23148W        W95573  30.691  10.598  14.470
23149W        W95574  15.762   0.478   3.877
23150W        W95575  25.672   7.831   5.010
23151W        W95576  15.849   1.462   2.650
23152W        W95577  34.643   8.359  10.056
23153W        W95578  17.741   0.187   4.547
23154W        W95579  39.795  36.591  11.152
23155W        W95580   5.249  32.142   4.153
23156W        W95581  16.213  44.520   0.865
23157W        W95582  25.000  31.161  13.596
23158W        W95583  43.486  42.743   0.188
23159W        W95584   8.484  13.736  12.619
23160W        W95585  32.047  34.771  14.812
23161W        W95586  30.150   8.555   3.749
23162W        W95587  43.532   8.846   5.089
23163W        W95588  10.298  11.306   1.809
23164W        W95589  33.787  16.290  13.366
23165W        W95590  40.036  19.247  13.447
23166W        W95591  40.551  42.279   3.883
23167W        W95592  27.929   0.702  11.498
23168W        W95593  10.860   3.464  14.853
23169W        W95594  28.639  40.293   2.555
23170W        W95595  28.560  24.657  13.922
23171W        W95596  39.408   4.751   1.148
23172W        W95597  12.406  36.658  11.504
23173W        W95598  22.832  10.789  11.863
23174W        W95599  27.109  19.270   4.802
23175W        W95600   1.581   3.438   0.870
23176W        W95601  40.629  44.701   1.031
23177W        W95602   3.767  42.127   4.666
23178W        W95603  34.098  41.758  11.581
23179W        W95604  31.863  20.111   4.589
23180W        W95605  28.575   7.367  11.549
23181W        W95606   9.573  18.241  13.860
23182W        W95607  25.358  14.924  10.896
23183W        W95608  30.387  29.468  10.508
23184W        W95609  13.680  42.604   4.441
23185W        W95610  33.082   2.485  12.957
23186W        W95611   3.076  10.877  10.559
23187W        W95612  15.769   6.486   5.099
23188W        W95613   2.273  14.586   2.692
23189W        W95614  43.925   2.944  14.461
23190W        W95615  19.341  43.079   3.161
23191W        W95616  37.079   3.754  10.971
23192W        W95617   1.385  36.930   3.254
23193W        W95618  21.294  31.379  11.624
23194W        W95619  32.674  32.378  11.539
23195W        W95620  41.909  39.878  12.628
23196W        W95621  40.430  13.626   4.557
23197W        W95622  16.268   6.170  10.636
23198W        W95623  22.207  11.283  12.504
23199W        W95624  43.961  20.081  13.372
23200W        W95625  43.930  29.768  12.935
23201W        W95626  41.874  42.383  11.800
23202W        W95627  27.265  29.481  13.521
23203W        W95628  23.395  10.996  11.791
23204W        W95629  30.456  12.571  13.887
23205W        W95630  31.093  13.327  10.142
23206W        W95631  28.051  41.068   5.382
23207W        W95632  35.810  37.505  12.494
23208W        W95633  36.515  26.339  14.981
23209W        W95634  17.100   6.330  14.370
23210W        W95635  22.292  27.592  13.474
23211W        W95636  34.003   2.333  12.417
23212W        W95637  30.629  16.640   2.343
23213W        W95638  32.335  14.276   5.052
23214W        W95639  10.322   8.759   1.422
23215W        W95640  12.548  28.049   0.700
23216W        W95641  20.158  38.883  12.684
23217W        W95642  20.116   1.007   4.120
23218W        W95643  42.636  17.168  11.274
23219W        W95644  39.752  29.485  13.628
23220W        W95645  40.859  11.546  10.983
23221W        W95646  15.244  24.533   2.682
23222W        W95647   2.230   8.680  11.403
23223W        W95648  44.028  27.031   3.248
23224W        W95649  33.303   1.243  12.419
23225W        W95650   6.132  22.543   1.790
23226W        W95651  28.458  27.376   3.264
23227W        W95652  38.860  44.283   4.126
23228W        W95653  42.646  11.829  13.915
23229W        W95654  41.455   0.458   1.279
23230W        W95655  28.945  38.990   4.973
23231W        W95656  22.504  18.588  14.550
23232W        W95657  26.578  34.028   0.024
23233W        W95658  33.166  16.247  14.474
23234W        W95659  42.346  31.173   2.483
23235W        W95660  30.099  32.494   3.619
23236W        W95661  17.588  11.742   3.596
23237W        W95662  25.945  23.099   1.848
23238W        W95663  21.985  18.348   1.768
23239W        W95664  15.243  44.644  11.266
23240W        W95665   4.870  27.162   1.167
23241W        W95666  21.400   2.503  13.312
23242W        W95667  29.229  19.821  11.865
23243W        W95668  29.423   4.362   1.703
23244W        W95669  19.409   7.598  11.505
23245W        W95670  38.991   5.604   2.342
23246W        W95671  12.834   2.017  10.211
23247W        W95672  34.489  37.614   1.254
23248W        W95673  28.290  27.275  14.355
23249W        W95674  32.862   4.153  10.873
23250W        W95675  40.601  16.513  13.416
23251W        W95676  19.639  29.706  10.593
23252W        W95677   2.166  41.152   3.188
23253W        W95678  22.669   8.714   1.063
23254W        W95679  17.099  37.281  10.622
23255W        W95680  28.215  36.737   2.352
23256W        W95681   3.215  17.071   3.302
23257W        W95682  38.358  27.912  13.383
23258W        W95683  41.909  28.793  14.027
23259W        W95684  40.802  25.256   2.321
23260W        W95685  44.430   5.142  12.054
23261W        W95686  40.867  21.060  14.707
23262W        W95687  42.391  29.961  11.704
23263W        W95688   3.765  16.294   4.540
23264W        W95689  12.891  22.058  12.917
23265W        W95690  36.432  26.394   2.890
23266W        W95691  33.956  21.250   2.762
23267W        W95692  25.132  33.335  10.437
23268W        W95693  20.085  14.806  13.910
23269W        W95694  35.602  10.650   4.125
23270W        W95695  25.493  37.976   2.397
23271W        W95696   3.864   6.149  11.069
23272W        W95697  29.426  16.081  12.531
23273W        W95698  19.194  16.292  13.343
23274W        W95699  10.759   1.719   3.889
23275W        W95700  23.031  25.012   2.695
23276W        W95701  39.267  26.914  12.144
23277W        W95702  12.629  11.210   0.333
23278W        W95703  33.171   2.011   0.874
23279W        W95704  11.275  16.446  12.219
23280W        W95705  38.867  24.897  11.549
23281W        W95706  35.759   0.539   0.454
23282W        W95707   1.304  31.527  11.444
23283W        W95708  16.261  26.175  14.794
23284W        W95709  34.143   9.203   1.273
23285W        W95710  15.328   5.512   2.219
23286W        W95711  26.379  25.567  10.402
23287W        W95712  30.475  18.558  11.469
23288W        W95713  44.161   7.403  14.250
23289W        W95714  30.475  25.681  13.075
23290W        W95715   7.257  38.902  11.792
23291W        W95716  28.086  21.201  10.629
23292W        W95717  30.724  43.296   4.591
23293W        W95718  31.619  43.307   0.775
23294W        W95719  25.729   6.314  13.573
23295W        W95720  42.225  22.989  14.050
23296W        W95721  41.486  30.183  10.704
23297W        W95722   6.722  27.550  12.957
23298W        W95723   4.227  13.379   1.428
23299W        W95724  20.216  14.442  13.473
23300W        W95725   4.263  29.651   3.992
23301W        W95726  27.614   3.459   0.473
23302W        W95727   3.970  26.328  10.285
23303W        W95728  16.112   1.802   3.854
23304W        W95729  19.482  10.815   1.259
23305W        W95730  36.978  23.900  11.643
23306W        W95731   9.070  37.908   1.893
23307W        W95732  24.115  30.369  11.037
23308W        W95733  32.195  32.079  11.274
23309W        W95734   6.701  35.941  10.719
23310W        W95735   5.361  10.878   1.697
23311W        W95736  40.467  17.743   0.927
23312W        W95737  17.988  38.854   4.043
23313W        W95738  28.405  29.020   1.472
23314W        W95739   5.870  31.115  12.001
23315W        W95740  29.631  25.280   0.434
23316W        W95741  16.066  17.353   3.156
23317W        W95742  22.025  42.810   1.887
23318W        W95743   4.323  15.350  14.696
23319W        W95744  17.026  14.676   0.879
23320W        W95745  42.571  22.947   1.104
23321W        W95746   6.302  12.728   3.528
23322W        W95747  12.595  29.440   1.422
23323W        W95748  20.439   5.996  12.612
23324W        W95749  34.609   7.622  11.984
23325W        W95750  16.013  30.758   3.824
23326W        W95751  43.301   0.919  11.554
23327W        W95752  27.749  31.041   0.821
23328W        W95753  24.982  19.323   2.945
23329W        W95754  17.323  25.650  11.959
23330W        W95755  11.170  40.917   4.688
23331W        W95756  16.602  24.241   2.587
23332W        W95757  26.588  23.077  14.022
23333W        W95758  35.861  20.034  14.465
23334W        W95759  15.723   9.812  11.601
23335W        W95760  39.258  42.691  10.420
23336W        W95761  24.025  26.179   3.665
23337W        W95762  26.330  43.933   2.149
23338W        W95763  39.585   0.663  13.773
23339W        W95764  31.109  15.472  12.105
23340W        W95765  40.441   4.658  12.580
23341W        W95766  24.699  34.490   1.164
23342W        W95767  26.779  16.157   1.665
23343W        W95768  17.777   6.204   0.876
23344W        W95769  30.110  30.483   3.843
23345W        W95770   2.784  13.760   1.325
23346W        W95771  34.516  42.232   0.373
23347W        W95772  24.124  33.112  12.996
23348W        W95773  15.610  37.977  14.294
23349W        W95774  29.427  23.000   0.977
23350W        W95775  43.856  27.031  14.381
23351W        W95776  41.290  26.143   2.309
23352W        W95777  37.228  23.425   0.165
23353W        W95778  22.801  24.110   2.646
23354W        W95779  38.422  13.385  12.648
23355W        W95780   4.653  21.680  11.550
23356W        W95781  17.128  36.107  13.139
23357W        W95782   1.755  15.884  14.748
23358W        W95783  36.305   9.204   5.581
23359W        W95784  37.634  21.227  14.488
23360W        W95785   2.891   7.105  14.785
23361W        W95786  39.955  30.013  14.370
23362W        W95787  41.254  17.993  14.779
23363W        W95788  26.157  32.088  13.464
23364W        W95789  10.360  40.880   4.072
23365W        W95790   3.847  40.424   0.241
23366W        W95791  26.060  34.415   4.175
23367W        W95792   8.306  26.993   2.598
23368W        W95793   7.281   7.395   3.631
23369W        W95794  43.411   1.342  13.981
23370W        W95795  34.352  38.986  10.450
23371W        W95796  41.338  26.435  12.365
23372W        W95797  40.498  21.745  13.751
23373W        W95798   3.802  25.464   1.315
23374W        W95799  34.884  30.571  12.473
23375W        W95800  35.414   5.008  12.643
23376W        W95801  12.238  31.927  12.934
23377W        W95802  14.381   3.794  11.651
23378W        W95803  16.784  16.202   0.296
23379W        W95804  18.354  35.983  14.949
23380W        W95805  39.537  16.745   1.422
23381W        W95806   9.714  12.924   4.081
23382W        W95807  16.780  34.465  14.764
23383W        W95808  31.658  34.042  12.373
23384W        W95809   8.927  38.090   4.568
23385W        W95810   3.187  19.851  12.850
23386W        W95811   3.964  24.584  10.766
23387W        W95812  13.868  40.825  12.094
23388W        W95813  26.670  13.386   0.401
23389W        W95814  16.680  30.038  11.980
23390W        W95815  41.964  29.541  12.832
23391W        W95816  32.667  22.006  14.273
23392W        W95817  20.169   0.787  13.446
23393W        W95818   4.891  42.143  11.599
23394W        W95819  12.205  37.456   3.476
23395W        W95820  32.979  43.574   0.342
23396W        W95821  26.283   6.315   4.298
23397W        W95822   1.209  16.802  12.928
23398W        W95823  44.973  25.129   3.894
23399W        W95824  20.252   1.978   1.684
23400W        W95825   8.945   2.418   5.105
23401W        W95826   2.330   1.203  11.296
23402W        W95827  36.834   2.777   0.353
23403W        W95828  44.916  35.289  14.507
23404W        W95829  23.141   3.619  12.584
23405W        W95830  40.606  37.046   1.257
23406W        W95831  10.663   0.921  11.556
23407W        W95832  37.838  15.200  12.410
23408W        W95833  27.692  23.069  13.974
23409W        W95834  14.711  11.844  12.101
23410W        W95835  27.607   4.635   3.701
23411W        W95836  19.106  12.644   1.358
23412W        W95837  37.858  37.775   2.365
23413W        W95838  33.858  17.997   0.383
23414W        W95839  30.011  14.106   2.876
23415W        W95840  31.742  29.044   1.793
23416W        W95841  27.031  14.128  12.508
23417W        W95842  31.408  25.075   3.189
23418W        W95843  39.485   9.189   0.426
23419W        W95844  12.887  28.393   3.391
23420W        W95845  42.914  18.927  11.136
23421W        W95846  15.354   8.172  14.397
23422W        W95847  38.557  37.656  13.548
23423W        W95848  12.324  15.268   0.489
23424W        W95849  29.570  20.463   5.443
23425W        W95850  33.066  27.713   0.936
23426W        W95851  21.765  38.305  12.526
23427W        W95852  14.274  33.919   2.153
23428W        W95853  15.838  30.139  11.074
23429W        W95854   1.796  17.158  14.358
23430W        W95855  38.473  35.414  13.952
23431W        W95856   9.575   4.902   1.438
23432W        W95857   1.765  30.742   3.307
23433W        W95858   5.291  43.728  14.446
23434W        W95859  11.148  19.044   4.184
23435W        W95860  17.116  22.048   2.658
23436W        W95861  32.113  21.254   1.259
23437W        W95862  37.399   8.374   0.057
23438W        W95863  26.488  44.731  10.904
23439W        W95864  36.562  25.985   3.158
23440W        W95865   8.819   8.598  11.639
23441W        W95866  33.306  16.570  14.078
23442W        W95867   6.882  14.552  11.865
23443W        W95868  42.051  41.462  14.277
23444W        W95869  20.181  38.303   2.815
23445W        W95870   1.339  28.906  13.781
23446W        W95871  35.003  12.857  10.749
23447W        W95872  19.644  41.860  12.761
23448W        W95873   6.941  44.477   3.839
23449W        W95874  34.560   2.742   0.770
23450W        W95875  41.489  33.618  14.279
23451W        W95876   2.456  27.421  12.890
23452W        W95877   9.442  32.621   1.858
23453W        W95878  32.339   8.936   1.231
23454W        W95879  35.986  42.138  10.704
23455W        W95880  38.362  31.787   0.287
23456W        W95881  30.055   1.257   2.268
23457W        W95882  13.866  27.717  13.168
23458W        W95883   6.383  31.096  14.036
23459W        W95884  14.213  24.307   9.742
23460W        W95885  20.984   8.667  10.052
23461W        W95886  20.024  13.219   0.437
23462W        W95887  11.877  35.162  10.109
23463W        W95888  27.468  23.652  10.751
23464W        W95889  39.370   5.192   4.105
23465W        W95890  23.616  13.251  14.149
23466W        W95891  12.073  20.726  12.840
23467W        W95892   1.995  19.836   4.102
23468W        W95893  38.350  34.969   1.024
23469W        W95894  17.340   9.600   4.557
23470W        W95895  18.550   1.879   0.808
23471W        W95896  25.226   4.012   2.700
23472W        W95897  36.374   0.195   4.105
23473W        W95898  33.185  25.152   1.372
23474W        W95899  27.471  41.023   1.453
23475W        W95900  15.748  20.046  12.276
23476W        W95901  31.438  23.584  10.145
23477W        W95902   7.834  15.798   2.642
23478W        W95903  20.795  40.079  12.933
23479W        W95904  28.138  28.931  12.130
23480W        W95905   7.057  34.448   3.284
23481W        W95906   8.275  32.673  14.739
23482W        W95907  12.829  12.276  10.983
23483W        W95908  34.799  40.366  11.491
23484W        W95909  31.954  23.235   0.003
23485W        W95910   3.548  20.274   0.815
23486W        W95911   9.353  24.732  14.566
23487W        W95912  31.088  28.589   1.152
23488W        W95913  12.194  11.349  12.017
23489W        W95914  43.276   0.370   2.412
23490W        W95915   7.211  11.183   4.550
23491W        W95916   9.365  39.443  14.150
23492W        W95917   4.231  35.682  13.542
23493W        W95918  38.475   9.685  10.167
23494W        W95919  18.605  12.756   4.643
23495W        W95920   8.375  19.624   2.310
23496W        W95921  12.655  13.762   1.135
23497W        W95922  35.811  35.031  13.754
23498W        W95923  16.340  12.553   0.906
23499W        W95924  20.617  20.185  10.843
23500W        W95925  39.042  24.681   1.702
23501W        W95926  44.534  39.353   1.833
23502W        W95927   5.282  20.320  13.241
23503W        W95928  42.396  39.454  11.122
23504W        W95929  38.839   0.924   1.300
23505W        W95930  44.419  36.523   1.279
23506W        W95931  11.475  26.933  12.500
23507W        W95932  21.718  27.177  14.366
23508W        W95933  38.915   1.636   1.879
23509W        W95934  38.466   9.643   1.144
23510W        W95935   3.303   3.547   1.714
23511W        W95936  36.914   0.327  12.417
23512W        W95937  15.869   6.264  11.165
23513W        W95938  16.567  33.501  10.650
23514W        W95939   0.262  30.991  10.626
23515W        W95940  29.511  12.414  13.070
23516W        W95941  21.220  10.843  13.413
23517W        W95942  18.757  10.840  11.158
23518W        W95943  11.326  12.318   4.630
23519W        W95944  16.911  39.601   2.680
23520W        W95945  39.346   8.718   4.400
23521W        W95946   1.394  14.661   0.089
23522W        W95947  39.349  11.111   0.732
23523W        W95948  43.015  19.378   4.137
23524W        W95949  20.320  42.526  14.906
23525W        W95950   0.160  20.230  11.459
23526W        W95951   8.420  35.072   0.257
23527W        W95952  37.494  39.253  13.001
23528W        W95953  43.411  15.561   4.153
23529W        W95954   9.513  35.076  11.432
23530W        W95955  33.958  10.823  13.946
23531W        W95956  42.618   6.816  10.364
23532W        W95957  27.055   1.044   2.866
23533W        W95958   4.217  33.184  11.682
23534W        W95959  29.151  23.942   3.768
23535W        W95960  12.572  22.899  12.057
23536W        W95961  13.315  16.201   0.082
23537W        W95962  39.771  35.547  11.870
23538W        W95963  25.270   2.672  12.542
23539W        W95964   7.367  15.647   0.738
23540W        W95965  26.905  14.248  11.589
23541W        W95966  41.455  27.309   3.706
23542W        W95967  42.342  14.423  11.593
23543W        W95968  26.403   9.441  11.115
23544W        W95969  27.119  21.987   4.388
23545W        W95970  29.733  13.741  11.622
23546W        W95971  23.885  33.524  12.416
23547W        W95972  10.288  16.332   4.173
23548W        W95973  42.273   8.222   1.457
23549W        W95974  43.684  20.358  10.456
23550W        W95975  19.687  34.568  11.521
23551W        W95976   5.669   3.516  11.703
23552W        W95977   6.371  15.153   1.667
23553W        W95978  23.730  39.061  13.004
23554W        W95979  16.353  31.715  10.234
23555W        W95980  31.300  40.482  10.891
23556W        W95981   0.109  14.781   2.672
23557W        W95982  10.747   6.855   4.601
23558W        W95983  26.695  27.963  14.952
23559W        W95984  22.196  36.780   0.259
23560W        W95985  12.827  27.527  14.845
23561W        W95986  21.143  13.337  13.299
23562W        W95987   1.648  15.262  11.991
23563W        W95988  13.015  38.120   1.692
23564W        W95989  24.033  28.291  13.136
23565W        W95990  10.187  39.252  11.513
23566W        W95991  13.087  23.394  10.399
23567W        W95992  20.082  22.735  13.032
23568W        W95993   4.919  25.158  11.269
23569W        W95994   8.760  40.118   3.289
23570W        W95995  36.114  17.820  11.150
23571W        W95996  12.253   1.343   3.701
23572W        W95997   2.903   2.462  13.527
23573W        W95998  30.675  13.351   3.126
23574W        W95999  24.790   8.442  13.477
23575W        W96000  23.032  20.636   3.772
23576W        W96001  13.502  21.289  13.861
23577W        W96002  22.996  35.503  14.524
23578W        W96003  16.444  34.690   4.971
23579W        W96004  26.753  12.614  13.391
23580W        W96005   4.713  15.707   4.122
23581W        W96006   8.753  15.983  11.549
23582W        W96007  15.223  19.104  13.479
23583W        W96008   8.479  32.944   2.330
23584W        W96009  41.448   1.175  11.525
23585W        W96010   1.485   6.168  11.058
23586W        W96011  27.795  18.600   1.266
23587W        W96012  10.571  22.488   3.754
23588W        W96013   3.950  16.695   3.059
23589W        W96014  15.726  35.322  11.507
23590W        W96015  34.001  32.810  13.379
23591W        W96016   1.613  30.950  14.831
23592W        W96017  39.395   3.340   4.396
23593W        W96018  19.316   1.247   3.189
23594W        W96019  26.117  38.530  12.399
23595W        W96020  37.603  42.409   2.454
23596W        W96021  11.100  44.014   3.664
23597W        W96022  41.482  27.082   2.320
23598W        W96023  43.522  43.007   2.529
23599W        W96024  33.541  10.303   0.436
23600W        W96025   5.394  10.803   4.596
23601W        W96026  16.033  44.711   1.303
23602W        W96027   6.415   0.712  14.067
23603W        W96028  36.089  30.367  12.522
23604W        W96029   3.453  27.492   0.462
23605W        W96030  15.046   5.079   4.345
23606W        W96031  33.578  14.737   0.937
23607W        W96032   5.682  26.262  12.451
23608W        W96033  37.419  19.831   2.803
23609W        W96034  16.955  27.996  12.130
23610W        W96035   7.343  42.755   2.289
23611W        W96036   0.752  17.210  12.357
23612W        W96037   7.458  44.420   0.801
23613W        W96038  22.068   1.141   3.371
23614W        W96039   6.691  26.656  13.908
23615W        W96040  39.304   0.261  10.919
23616W        W96041   7.955  11.876   0.476
23617W        W96042  18.347  40.873  14.007
23618W        W96043  26.504  16.153  13.010
23619W        W96044  32.662  34.853   1.332
23620W        W96045   1.515  21.211  12.217
23621W        W96046  36.030  34.135  11.618
23622W        W96047  25.754  27.866   5.427
23623W        W96048   0.753   7.103  10.762
23624W        W96049  28.121  17.765  14.004
23625W        W96050  22.621   4.874  11.828
23626W        W96051  29.772  35.774  11.480
23627W        W96052   3.033  42.845  12.512
23628W        W96053  36.552  42.477   3.147
23629W        W96054  14.237   3.216   4.129
23630W        W96055  38.023  10.081  12.911
23631W        W96056  40.177  35.111   4.060
23632W        W96057  23.675  34.246  11.084
23633W        W96058  31.411   2.707  12.438
23634W        W96059  44.737  20.939  10.990
23635W        W96060  34.314  21.685  14.459
23636W        W96061  43.344   8.076   2.697
23637W        W96062  15.568  39.495  11.974
23638W        W96063  18.613  42.759  14.393
23639W        W96064  10.777   7.392   3.874
23640W        W96065  44.486  43.503   1.807
23641W        W96066  34.044  39.308   3.882
23642W        W96067  28.193   1.047   3.242
23643W        W96068  26.469  35.175  13.450
23644W        W96069   9.155  30.805  11.795
23645W        W96070   9.313  14.803  14.040
23646W        W96071  29.857   7.228  11.165
23647W        W96072  26.045  29.913   0.422
23648W        W96073  25.658   0.764  11.978
23649W        W96074   7.803  31.130  14.761
23650W        W96075   4.200  34.022  13.356
23651W        W96076  34.193   2.807  14.808
23652W        W96077   9.524  13.793   2.813
23653W        W96078  13.122  30.356   3.303
23654W        W96079  23.015  44.038   2.355
23655W        W96080  22.462   1.620   4.991
23656W        W96081  28.873  36.321   4.225
23657W        W96082  28.107   8.634  12.388
23658W        W96083  10.818  33.960   0.943
23659W        W96084  17.212   0.830  14.979
23660W        W96085  43.559   0.860   1.767
23661W        W96086  44.554  24.930   5.095
23662W        W96087   1.333  34.035  13.760
23663W        W96088  35.963  30.367  13.264
23664W        W96089  23.776  25.071  10.590
23665W        W96090  27.193  35.923   0.846
23666W        W96091   5.017   4.744  13.402
23667W        W96092  11.658  15.764  14.476
23668W        W96093  23.091  15.839   3.133
23669W        W96094  37.262  43.722   1.668
23670W        W96095  26.606  41.876  11.948
23671W        W96096  20.682  44.069   1.959
23672W        W96097  35.641   0.653  11.504
23673W        W96098  36.413  40.565  13.313
23674W        W96099  43.894  22.995   2.708
23675W        W96100  17.735  39.272  11.599
23676W        W96101  20.710  14.724   0.360
23677W        W96102   8.632  21.462  11.077
23678W        W96103  28.421  16.017  13.020
23679W        W96104  12.393  14.272  14.366
23680W        W96105  28.150  12.873   0.280
23681W        W96106  31.324   4.982  11.489
23682W        W96107  17.532  40.861   0.231
23683W        W96108  25.187  11.629  12.558
23684W        W96109  24.683  11.280   9.672
23685W        W96110  44.909  37.338   2.011
23686W        W96111   4.186  17.324  14.799
23687W        W96112  20.532   3.635  13.497
23688W        W96113  27.816  13.868  11.694
23689W        W96114  13.285  28.051   4.684
23690W        W96115   2.666  11.656   3.264
23691W        W96116  19.537  30.442   1.664
23692W        W96117  36.341   8.883  10.133
23693W        W96118  23.897  31.923   1.405
23694W        W96119  10.141  29.023  11.532
23695W        W96120   4.725  39.165  13.295
23696W        W96121  40.537  35.027   5.422
23697W        W96122  31.691  37.058   1.381
23698W        W96123  17.263  33.881  14.129
23699W        W96124  13.214  15.524   4.064
23700W        W96125   5.729  37.661  12.990
23701W        W96126  15.364  14.737  11.907
23702W        W96127   9.768  11.152  11.659
23703W        W96128  42.991  29.771   0.839
23704W        W96129  18.803   4.783  14.336
23705W        W96130  30.575  40.551   1.576
23706W        W96131  35.836   1.888  13.848
23707W        W96132   3.691  21.839  13.028
23708W        W96133  32.411  15.703  12.779
23709W        W96134  21.225  10.465   4.301
23710W        W96135  13.290  26.100   0.165
23711W        W96136  14.218  29.048  10.745
23712W        W96137   7.612  34.571  11.122
23713W        W96138   9.269  30.122   3.807
23714W        W96139   2.643  17.353  11.136
23715W        W96140   4.200  29.264   3.648
23716W        W96141  33.476  24.768   0.774
23717W        W96142  37.469  42.318   4.236
23718W        W96143  27.436  18.802   4.149
23719W        W96144  26.167   3.753   0.255
23720W        W96145  28.088   9.841   2.652
23721W        W96146  29.124   9.781   3.227
23722W        W96147  23.782  30.101   3.191
23723W        W96148  28.312  23.485  14.463
23724W        W96149  26.150  12.210   4.776
23725W        W96150  20.884   8.308  14.363
23726W        W96151  32.944  25.987  11.748
23727W        W96152   2.972  27.323   0.281
23728W        W96153  39.830   1.833   4.516
23729W        W96154  21.729  25.598   3.926
23730W        W96155  39.475  41.967  12.110
23731W        W96156  12.802  13.589   0.289
23732W        W96157  21.087  26.526  12.811
23733W        W96158  12.598  25.869   4.226
23734W        W96159  26.709  10.362  12.972
23735W        W96160  40.038  13.157   0.904
23736W        W96161  32.613  41.293   1.855
23737W        W96162  20.919   0.309  13.150
23738W        W96163  32.949  14.024   1.309
23739W        W96164  35.168  32.921  14.351
23740W        W96165   8.170  26.903   3.753
23741W        W96166  13.818  43.493  14.540
23742W        W96167  44.415  23.085   4.479
23743W        W96168  12.547  43.665  11.811
23744W        W96169   4.444  40.363  12.641
23745W        W96170  39.060  37.809  12.667
23746W        W96171  13.585   6.549   3.701
23747W        W96172  29.512  37.018  14.373
23748W        W96173   8.789  31.269   5.059
23749W        W96174  42.985   9.733  12.110
23750W        W96175  27.999  44.393  12.951
23751W        W96176  22.919  18.786   4.858
23752W        W96177   5.684  23.168  13.498
23753W        W96178   7.803  36.169   3.581
23754W        W96179  16.838  27.944  13.952
23755W        W96180  29.991  31.142  14.826
23756W        W96181  17.288  42.955  12.410
23757W        W96182  38.966   5.613  11.730
23758W        W96183  37.302  12.734  13.037
23759W        W96184  13.851  38.109  13.652
23760W        W96185   5.767  20.670  11.347
23761W        W96186  16.183  34.975  12.132
23762W        W96187  32.909   6.843  11.932
23763W        W96188  41.017  22.998  10.749
23764W        W96189  41.763  19.371  12.009
23765W        W96190  20.091  31.490   0.237
23766W        W96191  38.260  30.600   2.290
23767W        W96192  41.029  18.244  13.822
23768W        W96193   0.773  27.392   2.237
23769W        W96194  39.053  36.815   1.230
23770W        W96195  15.113  36.552  12.270
23771W        W96196  23.703  14.708  10.804
23772W        W96197   3.909  22.033   2.900
23773W        W96198  25.642  21.202   2.170
23774W        W96199  33.140  30.363  13.387
23775W        W96200   1.446   3.625  11.221
23776W        W96201  42.376  34.406  11.926
23777W        W96202  23.131  21.786   0.347
23778W        W96203  31.574  14.084   0.822
23779W        W96204   4.451   3.268  13.318
23780W        W96205   5.531   2.638   0.070
23781W        W96206  38.729  27.800  12.137
23782W        W96207  43.428  36.284   1.244
23783W        W96208  31.975   0.915   0.242
23784W        W96209  10.742   0.348   2.165
23785W        W96210  24.482   8.183   2.202
23786W        W96211  38.996   6.511  10.638
23787W        W96212  15.733  24.777   3.351
23788W        W96213  32.555  32.181  13.432
23789W        W96214  37.563   2.797  13.616
23790W        W96215  10.139  40.419   4.289
23791W        W96216  19.815  20.060  12.508
23792W        W96217  25.698   9.187  14.942
23793W        W96218  24.938   8.971   4.231
23794W        W96219  37.868  11.117   2.219
23795W        W96220  29.793  16.023   1.225
23796W        W96221   5.753  16.314  12.552
23797W        W96222  33.741  18.061  10.593
23798W        W96223  36.337  20.153   3.180
23799W        W96224   0.666  42.318   0.742
23800W        W96225   4.177  38.076  12.075
23801W        W96226   7.641  36.265   0.281
23802W        W96227  21.275  11.342  13.506
23803W        W96228  20.144  18.131  12.932
23804W        W96229  37.320  21.240  11.628
23805W        W96230  42.365  20.974  12.837
23806W        W96231  28.500  15.148   0.097
23807W        W96232  29.111  23.037   2.449
23808W        W96233  21.144  39.863  13.889
23809W        W96234  43.505  36.506   2.231
23810W        W96235  40.596  17.062  11.095
23811W        W96236  28.832  19.268  10.428
23812W        W96237   2.396  24.000  12.861
23813W        W96238  35.614  38.506  13.892
23814W        W96239  42.296  31.895   1.313
23815W        W96240  41.933  11.323  11.719
23816W        W96241  29.044  42.054   1.986
23817W        W96242  38.081  31.516   2.724
23818W        W96243  24.461  30.322  14.509
23819W        W96244  39.421   7.860   0.708
23820W        W96245  14.861  33.479  11.047
23821W        W96246   7.704  20.289   4.097
23822W        W96247  40.343  18.678   2.308
23823W        W96248  38.327   9.768  10.934
23824W        W96249  13.717  33.626   1.420
23825W        W96250   5.809   1.852  12.292
23826W        W96251   5.467  31.133  14.340
23827W        W96252   4.824   9.430   4.738
23828W        W96253  20.843  10.594   0.764
23829W        W96254  12.347  36.039   0.433
23830W        W96255   3.729  27.661   4.644
23831W        W96256  20.223  30.964  10.935
23832W        W96257  35.466  30.713  10.644
23833W        W96258  12.272   4.241  10.147
23834W        W96259   3.966  26.341  11.971
23835W        W96260   9.206  13.819   0.048
23836W        W96261  15.241  11.865  12.468
23837W        W96262  12.577  39.621   2.173
23838W        W96263  22.961  12.642  13.050
23839W        W96264  33.406   7.338   0.280
23840W        W96265   9.328  42.908  14.131
23841W        W96266  41.543  12.625   1.367
23842W        W96267  31.644  37.936   0.290
23843W        W96268  31.102   8.327  12.881
23844W        W96269  15.881  42.365  14.947
23845W        W96270  33.084   9.656   0.877
23846W        W96271  17.175   3.664   5.147
23847W        W96272  19.309   6.691   2.098
23848W        W96273  38.379  26.033   2.428
23849W        W96274  15.088  16.692  11.883
23850W        W96275  25.780   2.413   0.505
23851W        W96276  17.683  22.616  13.107
23852W        W96277  37.880  26.850   3.665
23853W        W96278  44.040  39.314   0.817
23854W        W96279  41.016  39.269   2.021
23855W        W96280  14.328   3.669   1.778
23856W        W96281  41.206  43.957  10.477
23857W        W96282  15.596  17.586   3.158
23858W        W96283  13.751  26.990   3.783
23859W        W96284   9.601   9.684   3.496
23860W        W96285  10.491   7.929  13.703
23861W        W96286  40.548  17.226  13.306
23862W        W96287  36.694  20.266   1.016
23863W        W96288  25.156  43.605  11.599
23864W        W96289   2.536  17.695   1.502
23865W        W96290  26.239   7.736  13.103
23866W        W96291   3.797  10.387   1.367
23867W        W96292  20.281  22.240   3.667
23868W        W96293   0.461   5.126   2.936
23869W        W96294  37.438  21.675   3.256
23870W        W96295  17.220  44.440  14.403
23871W        W96296  15.743  39.394  12.469
23872W        W96297  30.769   8.826  14.546
23873W        W96298  39.033  30.370  13.809
23874W        W96299  16.094  40.898  11.446
23875W        W96300  25.762  30.928  10.941
23876W        W96301  41.823  18.341   0.861
23877W        W96302   8.773  27.073  10.677
23878W        W96303  43.768  38.022   4.908
23879W        W96304  43.447  33.064  12.055
23880W        W96305  27.805   5.257   1.595
23881W        W96306  15.070  12.823  11.500
23882W        W96307  22.730  35.044  12.929
23883W        W96308  36.900   9.275  12.598
23884W        W96309  12.410  14.269   3.291
23885W        W96310  25.216  35.882   0.462
23886W        W96311  43.253  28.200   2.769
23887W        W96312   1.901  34.649  12.436
23888W        W96313  22.996  14.719   4.602
23889W        W96314   8.352  42.866   0.833
23890W        W96315   3.235  25.392  14.319
23891W        W96316  19.868  26.690  13.904
23892W        W96317   1.244  43.744  13.979
23893W        W96318  30.122  43.092  12.068
23894W        W96319  21.647   0.804  11.265
23895W        W96320  20.164   6.943  12.478
23896W        W96321  35.395  36.554  11.477
23897W        W96322  34.731  12.657   3.546
23898W        W96323  30.679  14.762  14.871
23899W        W96324  34.417  27.910  11.074
23900W        W96325   5.087  34.626  11.657
23901W        W96326  35.906  32.425   4.766
23902W        W96327  21.582  25.039  11.556
23903W        W96328  28.771  16.893  10.677
23904W        W96329   2.952  12.280   2.863
23905W        W96330   6.290  43.972   3.489
23906W        W96331  33.721   5.168  10.789
23907W        W96332  24.488  33.626   0.294
23908W        W96333   1.878   0.078   0.808
23909W        W96334  18.618   6.651  13.383
23910W        W96335  40.253  26.953  10.306
23911W        W96336   6.697  39.611   1.680
23912W        W96337  29.669  35.518   3.277
23913W        W96338  20.193  34.318  11.979
23914W        W96339  29.908  11.215   0.648
23915W        W96340   6.183   0.049  11.568
23916W        W96341  23.186  38.847  13.868
23917W        W96342   9.316  17.994   4.452
23918W        W96343   7.229   4.703  13.561
23919W        W96344  31.444  36.501  10.959
23920W        W96345   2.817  34.031  14.306
23921W        W96346   5.766  28.962   1.310
23922W        W96347  34.993  19.190  12.013
23923W        W96348  32.932  26.076  12.665
23924W        W96349  29.138  19.718  13.129
23925W        W96350  21.366  14.558  13.668
23926W        W96351  26.510   0.097  10.555
23927W        W96352  39.655  29.036   0.876
23928W        W96353  33.009  14.261  13.969
23929W        W96354   3.503  28.065  14.935
23930W        W96355  14.771  10.655   4.326
23931W        W96356  39.443   1.341   3.597
23932W        W96357  38.390   1.990   4.523
23933W        W96358  12.180   3.971   4.237
23934W        W96359  35.699   8.835   2.147
23935W        W96360   1.274  32.949  13.442
23936W        W96361  34.666   8.786  12.995
23937W        W96362  11.592  42.032  12.630
23938W        W96363  20.589  31.937  11.172
23939W        W96364   1.548   0.783  14.082
23940W        W96365   9.544   3.723   3.758
23941W        W96366  34.634   5.215  11.850
23942W        W96367   9.698  23.570   0.849
23943W        W96368   4.493  44.291   2.846
23944W        W96369  44.211   9.740   3.536
23945W        W96370  15.697  22.970   1.233
23946W        W96371  10.882  26.801   3.811
23947W        W96372  24.954  20.233   2.772
23948W        W96373  18.496  11.834   0.738
23949W        W96374  35.078  43.971  11.585
23950W        W96375  15.984  28.216  11.006
23951W        W96376  25.035   0.522   1.466
23952W        W96377  12.075   3.729  10.154
23953W        W96378  13.735  18.929   2.004
23954W        W96379   7.719  38.001  14.470
23955W        W96380   1.378  15.562  11.551
23956W        W96381  22.091  21.536  12.448
23957W        W96382  38.744  41.452  10.310
23958W        W96383   1.102  31.437   1.784
23959W        W96384  15.288  29.071   4.674
23960W        W96385  19.140   5.446   4.574
23961W        W96386  40.532  16.777   3.226
23962W        W96387   8.168  12.567   2.173
23963W        W96388  35.676  31.053   1.611
23964W        W96389  16.435  13.233  13.996
23965W        W96390   2.746  23.414   4.591
23966W        W96391   5.252  36.761  11.422
23967W        W96392  12.106  33.963  13.563
23968W        W96393   8.784   8.140  12.560
23969W        W96394  25.604  19.107   0.703
23970W        W96395  16.380  18.057   3.347
23971W        W96396   7.072  38.820   3.873
23972W        W96397  11.482   0.337   4.135
23973W        W96398  36.955  23.684   4.841
23974W        W96399  18.530  35.426  14.368
23975W        W96400  30.421  37.124  11.518
23976W        W96401  21.678  29.497   1.352
23977W        W96402   1.965  35.086   3.372
23978W        W96403  40.460  41.204   2.863
23979W        W96404   9.796  30.377  13.945
23980W        W96405  24.114  32.994  11.255
23981W        W96406  19.117  42.340  11.144
23982W        W96407  20.800   3.981  14.449
23983W        W96408  18.676  13.112  14.195
23984W        W96409  35.991  27.978  12.589
23985W        W96410  22.200  30.982  10.995
23986W        W96411  19.708  29.497   1.288
23987W        W96412  28.717  11.689  10.675
23988W        W96413  40.762   4.593   3.011
23989W        W96414  23.338  32.678   1.444
23990W        W96415  34.007  44.473  11.449
23991W        W96416   9.995  21.804  10.839
23992W        W96417  31.512  12.592   0.076
23993W        W96418  25.753  28.044  13.940
23994W        W96419  16.185  43.791   2.602
23995W        W96420  21.223  40.206   1.735
23996W        W96421  25.188  17.257  10.514
23997W        W96422  26.991  34.517  13.003
23998W        W96423  39.900  11.824  13.552
23999W        W96424  29.825  44.975   0.316
24000W        W96425  14.161  41.258   2.267
24001W        W96426  17.704   1.889   4.261
24002W        W96427  32.768  24.418  12.905
24003W        W96428  28.179   9.160   4.368
24004W        W96429  26.126   1.697  10.622
24005W        W96430  44.010  19.716  10.987
24006W        W96431   9.899  17.245  11.461
24007W        W96432  17.612  44.941  13.891
24008W        W96433   9.698  15.241   3.721
24009W        W96434   2.365   1.746  10.649
24010W        W96435  12.121   0.915   4.601
24011W        W96436  23.952  12.629   2.348
24012W        W96437  31.603  29.158   0.313
24013W        W96438  35.747   0.267   2.598
24014W        W96439  36.766  41.011  13.380
24015W        W96440  20.997  40.564  14.345
24016W        W96441  38.560  34.444  13.851
24017W        W96442  43.356  34.135  11.333
24018W        W96443   0.722  27.934  14.387
24019W        W96444  13.614  20.057  11.099
24020W        W96445  40.164   3.009  11.040
24021W        W96446  29.554   4.347   2.639
24022W        W96447  25.786   0.915   3.280
24023W        W96448   8.312  14.623   2.594
24024W        W96449  35.560   7.331  12.826
24025W        W96450  42.850  41.484  13.896
24026W        W96451  16.674  33.997  10.784
24027W        W96452   8.725   2.865  10.880
24028W        W96453   8.147  11.989   0.013
24029W        W96454   1.790   6.500   2.821
24030W        W96455  28.218  30.466  13.934
24031W        W96456  28.948  31.056   1.442
24032W        W96457  21.310  12.790  10.933
24033W        W96458  20.916  39.125  13.239
24034W        W96459   7.062  31.893  12.887
24035W        W96460  13.742  20.361  12.589
24036W        W96461  27.475  39.939  10.696
24037W        W96462  33.093  26.463   2.888
24038W        W96463   2.267  13.824   1.247
24039W        W96464   8.691  11.613  14.863
24040W        W96465  17.955  29.855  14.251
24041W        W96466   0.735  14.434  10.364
24042W        W96467  36.789   7.190   3.585
24043W        W96468   3.727  21.776  14.816
24044W        W96469  24.137  31.583  14.229
24045W        W96470  11.973   4.939  14.780
24046W        W96471  40.832  14.596   1.189
24047W        W96472  31.012  27.485   0.194
24048W        W96473   8.957  39.338   4.379
24049W        W96474  23.763  28.587   1.759
24050W        W96475   3.205  23.929   0.330
24051W        W96476  33.190  10.279   1.816
24052W        W96477  38.269  32.892   3.170
24053W        W96478  16.956   4.387   3.367
24054W        W96479  28.254  27.527  13.874
24055W        W96480  37.894  16.652   4.398
24056W        W96481  40.958  34.503  14.630
24057W        W96482  21.098  38.934  12.369
24058W        W96483  35.316  42.855  14.929
24059W        W96484  23.609   8.948  12.901
24060W        W96485  22.462  39.477  14.875
24061W        W96486   6.533  20.195  12.856
24062W        W96487  20.004   5.070  11.712
24063W        W96488  44.561  19.813   0.990
24064W        W96489   6.335  44.865  11.136
24065W        W96490  27.587  33.365   4.861
24066W        W96491   7.206  12.126  11.065
24067W        W96492  29.897  14.816  12.891
24068W        W96493  26.283   8.307  14.890
24069W        W96494  16.182  33.089  11.553
24070W        W96495  18.652  43.016  14.942
24071W        W96496  34.732  14.640  14.032
24072W        W96497  25.512   8.742  14.725
24073W        W96498  43.866  14.589  13.405
24074W        W96499   3.457  17.110   1.727
24075W        W96500  23.102  39.021   1.708
24076W        W96501  31.129   5.755   2.796
24077W        W96502  22.611  26.728  10.582
24078W        W96503  24.267  42.757   1.233
24079W        W96504  20.810  22.999   0.430
24080W        W96505   7.618   2.535   0.460
24081W        W96506  31.145   2.264   4.191
24082W        W96507  28.616  31.040  10.367
24083W        W96508  10.248   6.277  10.509
24084W        W96509  15.820  37.610  13.950
24085W        W96510  31.528   1.181   3.444
24086W        W96511  32.026  44.476   4.206
24087W        W96512  11.313  37.136   4.716
24088W        W96513  13.351  27.583  13.218
24089W        W96514   4.747   0.523   3.221
24090W        W96515  24.330  40.064   0.975
24091W        W96516   8.725  27.121   2.297
24092W        W96517  43.269  13.422  11.105
24093W        W96518  25.685  44.384   0.339
24094W        W96519  35.546  43.876  13.833
24095W        W96520  26.503   0.969   0.410
24096W        W96521   7.861  30.900  14.305
24097W        W96522  35.402   5.798  13.189
24098W        W96523   5.354  42.879  13.302
24099W        W96524  42.777  40.058  12.531
24100W        W96525  33.057  38.815  13.489
24101W        W96526   3.561  44.006   2.673
24102W        W96527   3.753  24.242  12.095
24103W        W96528  20.553  41.446   1.876
24104W        W96529  40.292  21.053  12.586
24105W        W96530   7.251  23.270  10.436
24106W        W96531   2.464  43.949  13.302
24107W        W96532  27.275  43.906  10.829
24108W        W96533  23.725  31.746  13.939
24109W        W96534  31.484   0.816   0.391
24110W        W96535  28.333  26.353   1.528
24111W        W96536  10.707  27.247  12.838
24112W        W96537  20.827   1.856  13.023
24113W        W96538  25.667  33.422  13.830
24114W        W96539  11.689   9.262   1.348
24115W        W96540  34.610  42.436  12.051
24116W        W96541  12.739  23.962   1.977
24117W        W96542   4.878   0.871   1.356
24118W        W96543   4.585  19.633  11.162
24119W        W96544  30.310   1.291  14.915
24120W        W96545  27.952  22.696  14.581
24121W        W96546  29.472  40.627   0.128
24122W        W96547  13.101  26.132  12.588
24123W        W96548  43.516  30.922   4.081
24124W        W96549  29.865  39.890   1.346
24125W        W96550   4.241  21.363  13.955
24126W        W96551  24.703  35.772  12.028
24127W        W96552   9.099   9.127   0.208
24128W        W96553  29.221  20.689   0.057
24129W        W96554  27.462  41.254  13.469
24130W        W96555  13.978  21.799  12.223
24131W        W96556   7.418   0.309   0.325
24132W        W96557  26.349  35.332   3.155
24133W        W96558  41.874   6.136  12.019
24134W        W96559  23.152  33.661   0.389
24135W        W96560  11.139  29.912  14.781
24136W        W96561  24.565  24.677   2.958
24137W        W96562   9.669  13.129   0.537
24138W        W96563   0.417   0.827   4.128
24139W        W96564  17.321  19.515   1.777
24140W        W96565  40.742   0.323  11.164
24141W        W96566  23.001  10.200  12.020
24142W        W96567  26.415  29.602  14.280
24143W        W96568  13.107  40.556  11.638
24144W        W96569  25.110   9.827   1.885
24145W        W96570  16.250   5.166  12.862
24146W        W96571  39.646   4.389   1.450
24147W        W96572  20.594  26.629   4.333
24148W        W96573  43.891  13.798  10.508
24149W        W96574  23.245  24.301  14.439
24150W        W96575  15.074  11.247  10.901
24151W        W96576   2.434  28.407  11.516
24152W        W96577  15.879  41.209   1.749
24153W        W96578  23.705  36.850  13.318
24154W        W96579  19.844  37.526  13.945
24155W        W96580  24.852   4.336  13.649
24156W        W96581  20.560  43.356   3.130
24157W        W96582  15.162  18.110  10.752
24158W        W96583  40.071  20.247   1.588
24159W        W96584  35.980  18.103  12.543
24160W        W96585  37.386  35.169   0.886
24161W        W96586  24.083   3.832  10.996
24162W        W96587  15.560  26.761   4.599
24163W        W96588   1.760  24.207  14.298
24164W        W96589  19.884   0.597   4.596
24165W        W96590  13.658   3.896   3.641
24166W        W96591  17.234  40.927   2.408
24167W        W96592   3.580   7.866   3.792
24168W        W96593  23.675  27.455  14.326
24169W        W96594  39.318  31.146  12.982
24170W        W96595  33.797  21.255  11.715
24171W        W96596  19.503   4.623  11.194
24172W        W96597   3.499  43.976  13.823
24173W        W96598  32.878  37.470  11.662
24174W        W96599  14.862   6.449  13.311
24175W        W96600  10.331  29.971   0.314
24176W        W96601   8.577  12.718  12.137
24177W        W96602  22.741  17.717   1.997
24178W        W96603  16.576  43.081  13.394
24179W        W96604  37.228   0.394  13.094
24180W        W96605  13.862  10.630   0.336
24181W        W96606  25.500  29.875   3.182
24182W        W96607   0.142  35.001   1.771
24183W        W96608  14.819  27.756   4.713
24184W        W96609  37.538   9.476  14.475
24185W        W96610  38.962  22.948  12.593
24186W        W96611  20.437  28.365   4.609
24187W        W96612  15.646   1.928   2.547
24188W        W96613  27.200   8.490  12.586
24189W        W96614  25.491  23.096   3.928
24190W        W96615  31.414  23.227  10.553
24191W        W96616  31.052  37.975   1.676
24192W        W96617  35.511  37.163  10.922
24193W        W96618  15.550  31.923  14.854
24194W        W96619   6.208  31.611   1.945
24195W        W96620  38.604   6.418  13.923
24196W        W96621  16.262  44.238   3.682
24197W        W96622  30.693   4.933   3.601
24198W        W96623  19.496  22.217   0.549
24199W        W96624  15.718   9.326  11.417
24200W        W96625  21.274  26.392  13.780
24201W        W96626  42.756  33.595   2.676
24202W        W96627  21.129  40.578  11.589
24203W        W96628   0.393  20.071  13.566
24204W        W96629  27.168  32.519   5.752
24205W        W96630  12.146  41.614  12.968
24206W        W96631  39.916   9.672  14.863
24207W        W96632   6.504  42.390   4.634
24208W        W96633  27.242  38.958  14.981
24209W        W96634  40.983  42.473   2.754
24210W        W96635  22.667  16.807   2.913
24211W        W96636  43.451  21.699   2.724
24212W        W96637   3.805  25.998  13.204
24213W        W96638  30.650  22.164   0.930
24214W        W96639  31.454  23.152   1.266
24215W        W96640   1.357  28.682   0.049
24216W        W96641  17.954  16.768   1.154
24217W        W96642  38.790  15.683   0.964
24218W        W96643  23.197  36.866  14.427
24219W        W96644  36.624  42.779  13.407
24220W        W96645  43.387   9.492   1.143
24221W        W96646  21.055  39.363   2.980
24222W        W96647  20.047  32.360  12.443
24223W        W96648   1.409  33.787  12.767
24224W        W96649  19.593  24.902   2.703
24225W        W96650  40.316   7.235  13.821
24226W        W96651   8.357   2.821   1.166
24227W        W96652  11.884  29.949  11.621
24228W        W96653  22.172  32.539   4.136
24229W        W96654  27.180  37.020   4.742
24230W        W96655  23.783  18.176  11.084
24231W        W96656   0.963  23.482   3.609
24232W        W96657  40.279  29.714   1.472
24233W        W96658   2.800  40.022  11.570
24234W        W96659  42.208   9.282   1.245
24235W        W96660  36.477  17.670   0.875
24236W        W96661   7.732  16.644   2.127
24237W        W96662  15.131  33.020   0.889
24238W        W96663   9.245  25.606  12.356
24239W        W96664  29.306  41.474   3.791
24240W        W96665  28.344  42.502   3.972
24241W        W96666  34.375   9.758  13.003
24242W        W96667  33.988  43.510   3.391
24243W        W96668   6.141  44.884   3.738
24244W        W96669  20.626  23.213   3.539
24245W        W96670  38.256  35.239  14.387
24246W        W96671  12.358  22.149  14.057
24247W        W96672  15.271  11.194   0.353
24248W        W96673   6.469   4.910   1.983
24249W        W96674   1.432  27.966  13.839
24250W        W96675  25.750   1.522  11.490
24251W        W96676  35.628  37.469  14.014
24252W        W96677  19.619   6.764  11.652
24253W        W96678   8.254   7.125  14.794
24254W        W96679  44.712  31.918   4.556
24255W        W96680   3.452  10.897  11.268
24256W        W96681  34.858  13.963   3.232
24257W        W96682  42.769  23.584   2.622
24258W        W96683  43.755  10.775   2.843
24259W        W96684   3.680  31.975   3.547
24260W        W96685  17.720  29.040  12.385
24261W        W96686  30.467   0.933   0.832
24262W        W96687  20.639  20.622   4.282
24263W        W96688  16.202  38.919   0.845
24264W        W96689  37.847  21.764   0.814
24265W        W96690   1.799   3.482  12.646
24266W        W96691  24.982   2.903  12.006
24267W        W96692   0.790  28.996  12.966
24268W        W96693  31.003  22.533   0.203
24269W        W96694  31.132  12.373   1.801
24270W        W96695  17.844  44.797   1.211
24271W        W96696  15.307   5.925   3.180
24272W        W96697  38.411  41.137  13.028
24273W        W96698  29.894  44.444   1.406
24274W        W96699  19.657  11.105   0.764
24275W        W96700  27.711  25.576  11.212
24276W        W96701  12.390  39.798   0.297
24277W        W96702   0.768  41.911  14.819
24278W        W96703  32.934  31.133   1.397
24279W        W96704  27.674  10.383   1.530
24280W        W96705  20.696   9.491   5.346
24281W        W96706  34.108   3.250   1.840
24282W        W96707  33.492  29.982  13.531
24283W        W96708  30.226  36.014  11.366
24284W        W96709  38.881  35.302  13.584
24285W        W96710   9.771  16.283   4.706
24286W        W96711   6.952  18.888   2.346
24287W        W96712  27.997  26.405  11.863
24288W        W96713  29.648  27.702   2.895
24289W        W96714   3.378  28.183  13.837
24290W        W96715  19.977  15.061   1.306
24291W        W96716   0.876   7.023   1.810
24292W        W96717  11.690   1.191   2.657
24293W        W96718  43.813  39.616   0.459
24294W        W96719  20.235  39.662   0.331
24295W        W96720  40.715  26.185   3.723
24296W        W96721   2.322  21.349   3.765
24297W        W96722  25.194  37.035  14.370
24298W        W96723   6.886   0.342   2.095
24299W        W96724  11.093  10.952   1.224
24300W        W96725  34.989  14.552   0.890
24301W        W96726   4.765  24.116   0.842
24302W        W96727  16.586   1.470  12.486
24303W        W96728  11.130  30.202   0.895
24304W        W96729  12.123   7.184  14.400
24305W        W96730  12.312   7.145   4.118
24306W        W96731  35.551  39.863  13.581
24307W        W96732  20.957  22.290  14.493
24308W        W96733  43.154  31.171   3.809
24309W        W96734  30.386  43.423   0.045
24310W        W96735  30.634  32.850   2.384
24311W        W96736  25.449   8.859   4.091
24312W        W96737   6.343  10.660   1.828
24313W        W96738  41.854  29.253  12.435
24314W        W96739  27.199  24.574   0.812
24315W        W96740  12.982  27.929  11.652
24316W        W96741  41.065   6.744   3.786
24317W        W96742   2.485  16.198  14.417
24318W        W96743  24.122  41.175   4.112
24319W        W96744  30.907   6.753  11.602
24320W        W96745  23.579  33.711   3.376
24321W        W96746  37.844  20.292  12.992
24322W        W96747  28.474   7.111  10.580
24323W        W96748  37.552  14.511   1.269
24324W        W96749  25.589  22.422   0.457
24325W        W96750  11.838  42.413   1.248
24326W        W96751  13.475   8.787  10.623
24327W        W96752   1.531  26.584   4.397
24328W        W96753  37.209   7.848   2.073
24329W        W96754   5.000  12.377   2.254
24330W        W96755  30.997  35.831  11.495
24331W        W96756   9.171  29.636   1.162
24332W        W96757   0.198   7.300  11.016
24333W        W96758  40.309  43.491   4.026
24334W        W96759  44.441  40.456   1.314
24335W        W96760  19.221  27.049   3.101
24336W        W96761  13.185  44.372  10.793
24337W        W96762   0.426  37.741  11.735
24338W        W96763   1.794  13.757   1.549
24339W        W96764  23.768  27.439  11.116
24340W        W96765  27.442  37.260   1.833
24341W        W96766  44.385   5.082  14.855
24342W        W96767   9.167  31.085  11.122
24343W        W96768  15.012  28.894  10.699
24344W        W96769  40.429   3.961   4.172
24345W        W96770  14.046  43.427   2.320
24346W        W96771  34.961  17.581   1.170
24347W        W96772  22.981   3.989   2.231
24348W        W96773  13.812  15.387   1.394
24349W        W96774  37.567  15.557   0.309
24350W        W96775   4.824  30.037   1.095
24351W        W96776  15.605  32.562  11.024
24352W        W96777  36.648   4.977   1.802
24353W        W96778   7.730  29.857   0.453
24354W        W96779  40.941  34.799   3.721
24355W        W96780  12.221   7.128  11.897
24356W        W96781   3.865  28.223  13.054
24357W        W96782   7.696  24.936  13.964
24358W        W96783  10.347  43.850  11.131
24359W        W96784  14.379  12.758   3.233
24360W        W96785   6.728   4.663   3.141
24361W        W96786  20.598  42.397   3.235
24362W        W96787  44.367   1.985  11.893
24363W        W96788  18.638  14.670   2.275
24364W        W96789  14.844  27.688   0.116
24365W        W96790  42.760   0.861   2.576
24366W        W96791  14.267  36.776  10.711
24367W        W96792  43.396  27.734  14.639
24368W        W96793  11.328   0.827   0.800
24369W        W96794   2.759  15.853   2.659
24370W        W96795  38.417  41.036  10.738
24371W        W96796  17.634  32.858   4.777
24372W        W96797  26.669   3.361   4.272
24373W        W96798  22.128  27.119  13.361
24374W        W96799  13.380  29.409  10.573
24375W        W96800  36.516  38.792  14.997
24376W        W96801  41.331  19.599   1.357
24377W        W96802   3.058  20.524   1.273
24378W        W96803  21.712  23.340   3.347
24379W        W96804  40.069  19.655   2.662
24380W        W96805  18.601   4.907   2.303
24381W        W96806  10.173  31.209   0.794
24382W        W96807  13.609  16.745   1.430
24383W        W96808   0.387  44.450  13.428
24384W        W96809  22.338  36.994   1.811
24385W        W96810  28.302  32.444   0.336
24386W        W96811  37.422  19.010   4.400
24387W        W96812  30.927  30.923  11.678
24388W        W96813   9.454   2.399   4.397
24389W        W96814  26.969   4.741   0.946
24390W        W96815  40.302  17.107   1.241
24391W        W96816   9.255  44.269  13.807
24392W        W96817  11.359  33.388   3.586
24393W        W96818   4.670   6.322   0.816
24394W        W96819  42.392  40.317   3.809
24395W        W96820  25.010  15.829   2.700
24396W        W96821  44.946   2.802  11.061
24397W        W96822  11.312  16.288   4.741
24398W        W96823  38.445   9.627   1.650
24399W        W96824  23.128  20.927  11.102
24400W        W96825  21.575  27.974   1.201
24401W        W96826  27.458  22.737  11.044
24402W        W96827   7.269  11.632   2.091
24403W        W96828  20.310  11.139  11.724
24404W        W96829  20.242   6.622  12.087
24405W        W96830   7.810  22.229  14.282
24406W        W96831  13.137   6.755   3.065
24407W        W96832  41.718  37.061  12.158
24408W        W96833  15.597  13.869   0.717
24409W        W96834  21.174  23.316  12.468
24410W        W96835  23.312   8.917  12.456
24411W        W96836  14.490  43.495  14.520
24412W        W96837  42.313  14.638   3.484
24413W        W96838  20.725   8.014  13.049
24414W        W96839  37.904  34.196  13.058
24415W        W96840   3.788   8.011  10.790
24416W        W96841  17.842  28.082   2.013
24417W        W96842  29.065  37.025   2.810
24418W        W96843  10.613  21.994  12.036
24419W        W96844  28.376  20.098  13.147
24420W        W96845  17.241  10.644   2.363
24421W        W96846   6.311   6.062   2.812
24422W        W96847  30.672  35.441  13.407
24423W        W96848  10.027   1.456  14.313
24424W        W96849   4.109   7.611   0.056
24425W        W96850   4.687   7.941   4.124
24426W        W96851  27.751  43.424  10.274
24427W        W96852  30.935  11.907   0.862
24428W        W96853  14.837  31.334   3.187
24429W        W96854  38.609   1.686   4.149
24430W        W96855  38.651  10.169  11.949
24431W        W96856  33.591   4.978   2.848
24432W        W96857  35.119  19.730   1.403
24433W        W96858  32.563   7.919  10.757
24434W        W96859  19.502   0.886  12.583
24435W        W96860  21.718  30.535   5.021
24436W        W96861   2.211  32.976  10.695
24437W        W96862  36.077   5.455   0.504
24438W        W96863  22.669  14.470  11.575
24439W        W96864  35.627   8.803  14.871
24440W        W96865   1.314  37.016  10.801
24441W        W96866  23.113  26.029   3.595
24442W        W96867  32.346  19.284  10.820
24443W        W96868   9.922  27.643  12.591
24444W        W96869  20.121  27.875   0.288
24445W        W96870  33.075   7.468  13.904
24446W        W96871  14.200  34.412  11.572
24447W        W96872  21.211  21.304  14.317
24448W        W96873   5.902  35.604   3.740
24449W        W96874  37.594   9.835   1.834
24450W        W96875  41.893  37.785  10.676
24451W        W96876   7.375  23.580  11.378
24452W        W96877  42.252  40.387   1.801
24453W        W96878  10.429  14.254   4.311
24454W        W96879  24.479  34.519  14.834
24455W        W96880  12.313  14.034  11.884
24456W        W96881  11.837  24.413   3.366
24457W        W96882  44.284   5.196  11.171
24458W        W96883  16.286  11.560  10.678
24459W        W96884   7.285   5.655  10.372
24460W        W96885  10.640  35.487  11.193
24461W        W96886  15.663  15.343   1.733
24462W        W96887  11.211  12.699  11.021
24463W        W96888  13.279  14.820  13.484
24464W        W96889  34.068  24.028  10.590
24465W        W96890  24.796  29.069   1.891
24466W        W96891   2.081  42.489   4.645
24467W        W96892  42.927   5.800  13.942
24468W        W96893  27.217  28.253  12.931
24469W        W96894  13.057  20.201  14.839
24470W        W96895  18.813  38.099  13.360
24471W        W96896  27.575   5.811   0.470
24472W        W96897   5.842   2.278   0.404
24473W        W96898  42.053  22.174   9.771
24474W        W96899   1.871  11.905  10.747
24475W        W96900  16.869   6.343   2.287
24476W        W96901  21.103   4.312  12.120
24477W        W96902  29.207  43.981  11.564
24478W        W96903  16.700  20.084  14.479
24479W        W96904  18.023  37.910   1.390
24480W        W96905  19.033  21.101   2.752
24481W        W96906   2.381  26.539   4.486
24482W        W96907  29.510  27.076   3.699
24483W        W96908  30.602  27.250   2.872
24484W        W96909  22.656  16.748   1.416
24485W        W96910  28.673  42.579  13.428
24486W        W96911  41.659  15.712  10.244
24487W        W96912  43.490   7.199   4.997
24488W        W96913  39.331   2.687   2.393
24489W        W96914  42.528  37.610  11.850
24490W        W96915  41.824  13.257   4.108
24491W        W96916  27.112  30.359  11.878
24492W        W96917  32.867   9.140   0.855
24493W        W96918   5.982  20.040   2.370
24494W        W96919   4.740  20.690  12.789
24495W        W96920  34.606   4.580   2.294
24496W        W96921  33.600  24.713   2.836
24497W        W96922  31.884  36.008   2.315
24498W        W96923  41.833  43.807  12.789
24499W        W96924  22.753  11.025  13.500
24500W        W96925  12.227  10.322  13.399
24501W        W96926  27.766  35.412   1.094
24502W        W96927  38.886  32.152  13.605
24503W        W96928  33.104  15.305  11.516
24504W        W96929  10.249  29.018  13.534
24505W        W96930   4.450  38.006   4.133
24506W        W96931  34.431  16.336  12.030
24507W        W96932  22.014  38.006  12.024
24508W        W96933   5.166  10.453  14.881
24509W        W96934   8.818  34.733  13.792
24510W        W96935   7.374  33.883  12.859
24511W        W96936  34.460  28.112   4.874
24512W        W96937  15.436   1.732  12.361
24513W        W96938  18.615  36.593   4.152
24514W        W96939   8.776  32.370  13.866
24515W        W96940  14.789  17.715   0.288
24516W        W96941  40.017  42.931   2.872
24517W        W96942  24.942  23.058  12.433
24518W        W96943  43.833  41.745   0.932
24519W        W96944   7.210  11.568  14.844
24520W        W96945  10.376  28.774   1.370
24521W        W96946  20.515   6.318   0.775
24522W        W96947  44.362  37.039   2.381
24523W        W96948  29.411  18.207   2.735
24524W        W96949   7.511   1.460  11.117
24525W        W96950  28.009   6.245   3.235
24526W        W96951   2.346  29.420  10.640
24527W        W96952  14.485  17.227  13.279
24528W        W96953  17.520  20.079  10.676
24529W        W96954  20.152   6.140   0.405
24530W        W96955  38.135   5.875   0.244
24531W        W96956  11.361  36.808  10.657
24532W        W96957  42.304  40.942  13.321
24533W        W96958  12.526  37.864  12.183
24534W        W96959  11.822  44.957  14.206
24535W        W96960  11.812  34.907  11.426
24536W        W96961   4.012  38.861   3.653
24537W        W96962  21.252  23.589   1.496
24538W        W96963  11.703   0.237  12.088
24539W        W96964  28.138  24.511   4.084
24540W        W96965   5.807   7.384  10.726
24541W        W96966  12.654  11.720  12.574
24542W        W96967   2.818  11.561  11.053
24543W        W96968  39.583  28.862  13.756
24544W        W96969   2.867  16.910   1.908
24545W        W96970  36.862  12.509   1.250
24546W        W96971  27.298  44.799  10.727
24547W        W96972  14.455  26.311  14.798
24548W        W96973   0.222  28.158  11.163
24549W        W96974  13.324   3.324   1.874
24550W        W96975  16.350  31.718  12.581
24551W        W96976  16.738  43.968   0.451
24552W        W96977   1.913  35.865  12.055
24553W        W96978   8.556  10.532   3.792
24554W        W96979  21.728   5.371   4.554
24555W        W96980   8.359  15.813  11.258
24556W        W96981  16.112  17.661  11.526
24557W        W96982  26.433  43.163   1.420
24558W        W96983  22.326  39.597   3.359
24559W        W96984  33.626  10.723  11.587
24560W        W96985   4.078   0.186   0.958
24561W        W96986  11.895  44.573  10.747
24562W        W96987  29.471  19.551   0.414
24563W        W96988   7.895   0.470  11.488
24564W        W96989  23.274  12.179   1.882
24565W        W96990  41.858  39.348  12.451
24566W        W96991  26.915  24.932  13.423
24567W        W96992  35.484  29.689  11.041
24568W        W96993   9.876  42.893  11.073
24569W        W96994  28.493  34.945   1.704
24570W        W96995  24.913  22.976   2.040
24571W        W96996  30.655  39.531   4.635
24572W        W96997  13.890   9.684  13.266
24573W        W96998  31.431  41.522   4.295
24574W        W96999  32.548  33.685  11.102
24575W        W97000  35.384  35.999  14.271
24576W        W97001  13.863  17.833  13.375
24577W        W97002   4.259  25.322  14.772
24578W        W97003  20.201  37.772  11.573
24579W        W97004  11.190   6.441  13.374
24580W        W97005   6.200  20.746   1.026
24581W        W97006  24.047  38.165   1.078
24582W        W97007  26.456  24.380   4.043
24583W        W97008   1.414   5.165  10.984
24584W        W97009   0.237  35.566   0.901
24585W        W97010  39.583  39.569  12.985
24586W        W97011  17.353  38.980  14.280
24587W        W97012  44.514   5.612  14.845
24588W        W97013  36.882  40.376   0.048
24589W        W97014   0.981  18.230   0.867
24590W        W97015  38.046  18.125  14.475
24591W        W97016  34.033   4.326  11.914
24592W        W97017  13.714  22.080   4.800
24593W        W97018  17.310  19.705   0.383
24594W        W97019  14.771  16.982   4.184
24595W        W97020  10.728  26.373  12.585
24596W        W97021  15.327  43.772  11.524
24597W        W97022  37.600  33.666   4.384
24598W        W97023  19.288  36.934   4.820
24599W        W97024  17.203  25.446  12.873
24600W        W97025  16.595  43.187   2.189
24601W        W97026  12.536  29.182  13.471
24602W        W97027  31.603   7.789  14.224
24603W        W97028  32.679  16.281  14.304
24604W        W97029  26.419   0.874   0.908
24605W        W97030  26.982  27.474  12.502
24606W        W97031  25.620  35.656  12.077
24607W        W97032   6.970  41.179   2.825
24608W        W97033   9.654  44.672   0.354
24609W        W97034  31.115  34.047   2.358
24610W        W97035  39.292  15.105  13.450
24611W        W97036  22.211  41.271   1.767
24612W        W97037  31.219   7.853  10.542
24613W        W97038  28.409  39.936   0.331
24614W        W97039   6.161  24.737   3.431
24615W        W97040   5.698  41.398   2.539
24616W        W97041  22.065  26.645   2.207
24617W        W97042  37.195  30.460   3.837
24618W        W97043   5.272   8.744  10.142
24619W        W97044  39.233  22.340   2.350
24620W        W97045  33.560  21.313   1.455
24621W        W97046  34.835   8.315   0.706
24622W        W97047  24.611  24.176   3.195
24623W        W97048   0.745   1.274   0.340
24624W        W97049  27.098   8.758  12.174
24625W        W97050  15.050  24.234   1.287
24626W        W97051  11.707  23.124   3.342
24627W        W97052   8.405  41.976  14.443
24628W        W97053   2.283  15.686   2.846
24629W        W97054  26.747  39.485   0.871
24630W        W97055   9.563  15.996   5.120
24631W        W97056   4.111  42.578   2.122
24632W        W97057  28.619  32.470  11.588
24633W        W97058  20.116  41.835  13.315
24634W        W97059  14.323  14.741   0.805
24635W        W97060  27.712  15.769  13.635
24636W        W97061  37.794  15.644  11.178
24637W        W97062  14.088  24.141  10.485
24638W        W97063  17.607  38.087  13.539
24639W        W97064  28.412  32.531  12.044
24640W        W97065  13.495  38.268   1.673
24641W        W97066  26.610  34.405  11.645
24642W        W97067  33.632  25.210  13.532
24643W        W97068  25.692  13.238  12.194
24644W        W97069  18.205   5.927   2.192
24645W        W97070  28.983  35.853   1.727
24646W        W97071  11.216  30.417  14.851
24647W        W97072   6.229  29.443  11.089
24648W        W97073   8.919   6.717   4.567
24649W        W97074  22.499   0.996  10.130
24650W        W97075  35.085  18.905   2.631
24651W        W97076  25.211  30.733   1.429
24652W        W97077  40.979   4.090   3.010
24653W        W97078   9.918  38.029  13.914
24654W        W97079  40.828   2.228  12.025
24655W        W97080  26.444  13.255  14.941
24656W        W97081  41.939  24.211   3.267
24657W        W97082  30.154   2.899   3.218
24658W        W97083  16.352  39.907   4.535
24659W        W97084  11.775  23.143   1.175
24660W        W97085   2.828  11.953   3.718
24661W        W97086  13.797  36.178   0.314
24662W        W97087   4.074  18.593  13.064
24663W        W97088   8.289  32.461   4.621
24664W        W97089  26.428  30.878  13.131
24665W        W97090  26.218   6.705   3.685
24666W        W97091  29.441   9.241   4.814
24667W        W97092   9.782  24.187   3.572
24668W        W97093  38.281  22.805  10.198
24669W        W97094  31.880  13.072  14.486
24670W        W97095  10.347   7.472   2.236
24671W        W97096  17.791   3.698  13.905
24672W        W97097  24.532   2.035   1.482
24673W        W97098  16.854  26.608   4.277
24674W        W97099  39.963  41.748   1.358
24675W        W97100  13.754  24.310   4.478
24676W        W97101  24.161  40.505  11.782
24677W        W97102   8.784  28.619  12.170
24678W        W97103   3.129   4.699  11.587
24679W        W97104   1.345  30.410  11.989
24680W        W97105   3.792  29.350  14.958
24681W        W97106  25.107  25.179  13.959
24682W        W97107  25.485  38.336  12.588
24683W        W97108  18.398   1.982  10.967
24684W        W97109  29.155  24.930   2.200
24685W        W97110  13.836  39.505   3.718
24686W        W97111  31.197  39.943   1.937
24687W        W97112  41.335  10.365  12.407
24688W        W97113  13.156  23.010   3.395
24689W        W97114  39.920  12.329   3.699
24690W        W97115   6.718  40.110   1.827
24691W        W97116  30.415  42.057   0.468
24692W        W97117  41.870  33.099   5.078
24693W        W97118   7.068   1.791  13.472
24694W        W97119   1.854  40.080  12.591
24695W        W97120  14.800   8.533   0.773
24696W        W97121  15.508  10.213   4.696
24697W        W97122  27.053  19.339   3.125
24698W        W97123  10.307  21.743  14.327
24699W        W97124  27.201  23.099  12.930
24700W        W97125  26.287  30.193   2.824
24701W        W97126  33.042   0.214   0.819
24702W        W97127  40.854   5.143   3.884
24703W        W97128  40.258  13.252   0.208
24704W        W97129  14.647   3.476  12.976
24705W        W97130  26.433   2.240   3.788
24706W        W97131  35.614   7.759  14.982
24707W        W97132  16.479   3.622   0.838
24708W        W97133  39.573  42.299  13.428
24709W        W97134  15.497  30.845   2.107
24710W        W97135   4.143  14.480   4.732
24711W        W97136  36.021   7.367  12.121
24712W        W97137  42.524   3.891  13.859
24713W        W97138  41.458  39.876  14.914
24714W        W97139   7.199  32.508  10.728
24715W        W97140  35.955  18.226  13.084
24716W        W97141  24.460  25.526   3.196
24717W        W97142   1.546  35.360  12.875
24718W        W97143  11.521  32.139   0.183
24719W        W97144  38.392  27.774  12.519
24720W        W97145  15.363  28.868   1.380
24721W        W97146  29.407  34.894   3.347
24722W        W97147  23.841  29.951  13.402
24723W        W97148  39.528  10.339   3.163
24724W        W97149   3.808  12.923  10.731
24725W        W97150   1.267   5.860  11.546
24726W        W97151   5.118   0.418   1.407
24727W        W97152  29.465  36.901  11.404
24728W        W97153  18.182   0.754   4.256
24729W        W97154  37.583  30.480  10.983
24730W        W97155  11.175  31.310   3.902
24731W        W97156   8.816  33.033  10.427
24732W        W97157  14.124  33.392   4.302
24733W        W97158  38.164  40.836  11.727
24734W        W97159  23.253  29.063   2.065
24735W        W97160   3.746  10.666  13.829
24736W        W97161  23.481  19.172  13.324
24737W        W97162  34.644  25.023  13.326
24738W        W97163  25.155  23.222  12.907
24739W        W97164  35.397  26.677  11.511
24740W        W97165   3.231  14.145  13.748
24741W        W97166  13.609  40.331  13.065
24742W        W97167  20.012  17.856   4.006
24743W        W97168  40.342  22.558   1.400
24744W        W97169  22.337  21.287  11.109
24745W        W97170  12.684  38.381   0.504
24746W        W97171  38.975  41.691   2.221
24747W        W97172  41.468  33.985   2.291
24748W        W97173  21.410  12.562  11.567
24749W        W97174  39.864   4.782   3.280
24750W        W97175  19.092   4.743  11.486
24751W        W97176   7.158  44.289   2.377
24752W        W97177  38.366   7.135  10.937
24753W        W97178  21.693  12.272  12.309
24754W        W97179  27.625  39.887   0.722
24755W        W97180  27.438  36.109  14.871
24756W        W97181  42.862  34.403   1.925
24757W        W97182  17.116  19.476   2.678
24758W        W97183   8.472  35.829  13.291
24759W        W97184   9.659  35.408   3.135
24760W        W97185  33.848  39.864  13.747
24761W        W97186  40.289  18.149  14.994
24762W        W97187  25.036  14.392   1.740
24763W        W97188   4.126  43.474   4.544
24764W        W97189  43.672   5.734  12.029
24765W        W97190  13.524  28.466  12.929
24766W        W97191  28.199  25.191   4.651
24767W        W97192  40.985  17.546  14.827
24768W        W97193  41.998   3.694   3.817
24769W        W97194  19.046  17.672  12.990
24770W        W97195   9.502   4.486  13.542
24771W        W97196   9.454  24.078   0.755
24772W        W97197  34.493  40.122   4.671
24773W        W97198  12.223   9.223  12.049
24774W        W97199  32.195  14.303   1.828
24775W        W97200   7.704   5.947  14.815
24776W        W97201  28.036  26.529  12.366
24777W        W97202   1.468   5.668  11.097
24778W        W97203  19.172  28.222  11.220
24779W        W97204   5.216  38.547   4.561
24780W        W97205  24.250   0.849  11.663
24781W        W97206  42.096  23.648  14.797
24782W        W97207  24.165   3.006   2.165
24783W        W97208  22.145  21.796  13.389
24784W        W97209  35.789  41.582   0.272
24785W        W97210   1.967  34.420  12.885
24786W        W97211  22.820  33.223   3.801
24787W        W97212  17.754  26.088   2.787
24788W        W97213   7.305  13.175   1.891
24789W        W97214  28.582  11.696  12.498
24790W        W97215  22.949  19.750  14.045
24791W        W97216  30.395   4.886  14.819
24792W        W97217   7.306  22.700  13.966
24793W        W97218   1.050   8.297  12.345
24794W        W97219  41.979  29.268   1.811
24795W        W97220  40.580  20.168   5.087
24796W        W97221  26.095   4.410  11.646
24797W        W97222  43.894  30.235  14.284
24798W        W97223  12.434  28.620   3.294
24799W        W97224   8.170   0.807   4.953
24800W        W97225  27.012  39.386   3.745
24801W        W97226  39.305  37.669  10.468
24802W        W97227  23.222  26.757  11.140
24803W        W97228  14.343  31.069  13.754
24804W        W97229  33.845  25.049   1.060
24805W        W97230   2.647  21.899   0.789
24806W        W97231  18.219  22.174   3.615
24807W        W97232  31.114  33.046  12.059
24808W        W97233  32.041  21.177  13.416
24809W        W97234  15.104  20.875   4.195
24810W        W97235  10.129  41.421   3.810
24811W        W97236  37.879  26.709  13.005
24812W        W97237  13.868  25.028   2.352
24813W        W97238  39.634  17.832  12.429
24814W        W97239   4.288  39.479   4.614
24815W        W97240  11.086  20.527   1.380
24816W        W97241  16.334  14.190  14.500
24817W        W97242  12.622  20.471   2.268
24818W        W97243  37.304  27.904   1.661
24819W        W97244  22.189  26.462  10.384
24820W        W97245  31.960   6.842   2.362
24821W        W97246   9.387   7.447   2.734
24822W        W97247   9.316   1.423  13.036
24823W        W97248  42.881  14.419  11.470
24824W        W97249  28.044  40.209  11.390
24825W        W97250  28.940  41.061   0.804
24826W        W97251   3.471   1.669   3.358
24827W        W97252  43.821  33.994   4.084
24828W        W97253   0.163  21.093  13.933
24829W        W97254  29.610  19.722  14.085
24830W        W97255  38.812  34.371  14.395
24831W        W97256  39.071  26.816  13.122
24832W        W97257  14.762  32.161   5.038
24833W        W97258   1.429  27.472  11.541
24834W        W97259  44.297  12.764  10.441
24835W        W97260  21.106   6.286   1.868
24836W        W97261  10.326  25.714  12.063
24837W        W97262  28.028  20.319   3.227
24838W        W97263   8.694  19.116  11.439
24839W        W97264  31.348  36.045   1.383
24840W        W97265   0.180   8.775  14.965
24841W        W97266  36.475   0.967  13.455
24842W        W97267  26.130  41.417  10.540
24843W        W97268  37.107  22.991  14.281
24844W        W97269  42.485   1.373   0.888
24845W        W97270  14.707  10.955   2.277
24846W        W97271  33.593  19.529  12.531
24847W        W97272   2.830  14.731   0.213
24848W        W97273   2.249  32.914  14.045
24849W        W97274  29.907   8.392   2.332
24850W        W97275  26.252  22.844   4.173
24851W        W97276  12.604   2.759   3.122
24852W        W97277  38.372  28.436  13.336
24853W        W97278   9.420  38.488  10.533
24854W        W97279  37.848  17.639   3.924
24855W        W97280   3.687  42.966  11.188
24856W        W97281  30.700   2.029   4.087
24857W        W97282   1.672  33.477  13.078
24858W        W97283   3.386   6.378   3.614
24859W        W97284  44.416  31.841  13.329
24860W        W97285  33.447  24.964  13.961
24861W        W97286  10.708  26.585   1.689
24862W        W97287  12.573  44.870  12.003
24863W        W97288  21.064   4.448  14.518
24864W        W97289  42.339  20.346  14.054
24865W        W97290   4.242  15.855   4.315
24866W        W97291   8.726  30.584  12.509
24867W        W97292  10.903  36.629  11.422
24868W        W97293  37.516  19.128  10.552
24869W        W97294  10.714  21.293   1.247
24870W        W97295   9.786   4.643   1.854
24871W        W97296  26.011  19.842   1.303
24872W        W97297  31.439  38.941  13.348
24873W        W97298  38.526  33.620  12.360
24874W        W97299  31.841  19.550   1.889
24875W        W97300  27.931  14.139  12.565
24876W        W97301  35.491  23.468  13.969
24877W        W97302  14.597   6.212   1.497
24878W        W97303  24.126   0.698   1.764
24879W        W97304  35.329  40.890  11.069
24880W        W97305  25.726   4.289  10.923
24881W        W97306   1.308  28.023   0.796
24882W        W97307  32.210   5.807   0.364
24883W        W97308  32.873   9.467   3.243
24884W        W97309  15.686  34.252  10.524
24885W        W97310  36.367  16.660   4.730
24886W        W97311  39.346  37.986   0.483
24887W        W97312  41.718  38.881  11.179
24888W        W97313   1.811  12.585   1.412
24889W        W97314  37.394  19.543   1.295
24890W        W97315  39.993  24.041   0.364
24891W        W97316  20.987  19.601   9.838
24892W        W97317  42.243  33.468  11.578
24893W        W97318  36.633  40.859  12.913
24894W        W97319   7.786  34.318   1.623
24895W        W97320  30.899   1.834   0.056
24896W        W97321   0.405  30.943   3.729
24897W        W97322   6.717  25.315  10.562
24898W        W97323  28.241  41.790   0.826
24899W        W97324   0.587  33.883   0.749
24900W        W97325  37.287  25.465  14.783
24901W        W97326  42.001  33.232  12.487
24902W        W97327   4.376  35.400   3.848
24903W        W97328  27.043   0.387  14.644
24904W        W97329  11.686  28.664  11.124
24905W        W97330  42.314   5.984  10.982
24906W        W97331  29.418   5.769   0.006
24907W        W97332  28.814  38.088  11.853
24908W        W97333   3.413  38.419  13.799
24909W        W97334  23.232  41.151   3.633
24910W        W97335   3.730  37.743  13.443
24911W        W97336  24.898  43.348  11.243
24912W        W97337   5.271  26.883   1.267
24913W        W97338  44.916  17.605  14.621
24914W        W97339  35.231   7.342   2.776
24915W        W97340  32.016  23.976  14.134
24916W        W97341  20.977  33.027   0.007
24917W        W97342  35.838   0.235   4.566
24918W        W97343  13.894  24.536   3.332
24919W        W97344   3.164  36.749   1.703
24920W        W97345  14.183  36.227   5.192
24921W        W97346   2.452  20.026  10.291
24922W        W97347  10.707   5.066   1.774
24923W        W97348  12.123  44.969   3.297
24924W        W97349  10.639   0.796   3.121
24925W        W97350  17.700  25.661  12.849
24926W        W97351  37.862  16.250   3.601
24927W        W97352   2.272  23.150   4.161
24928W        W97353   3.931  16.647  11.928
24929W        W97354  27.747  22.329   9.746
24930W        W97355  37.164  32.734   1.300
24931W        W97356  25.943  44.766   2.238
24932W        W97357  35.523  35.934   4.585
24933W        W97358  37.109  31.318   4.124
24934W        W97359  26.285  34.049  14.241
24935W        W97360   8.255  39.964  12.292
24936W        W97361  37.616  15.829   1.839
24937W        W97362  38.831  14.982  11.085
24938W        W97363  44.989   5.928  13.498
24939W        W97364   2.822  29.107  14.154
24940W        W97365  10.000  13.360   4.095
24941W        W97366  11.146   0.406   1.044
24942W        W97367  37.748  40.353   1.251
24943W        W97368  29.883  28.544  12.517
24944W        W97369  37.022   2.528  10.572
24945W        W97370  20.025  31.517   2.607
24946W        W97371  13.396  21.803   3.677
24947W        W97372  23.641  23.739  12.540
24948W        W97373  15.083   2.825   0.221
24949W        W97374  41.732  18.068  10.584
24950W        W97375  16.572  42.371   3.198
24951W        W97376  24.172  26.462   0.024
24952W        W97377  40.499  18.780   0.890
24953W        W97378  42.472  10.627   2.876
24954W        W97379  32.685  41.758  13.576
24955W        W97380  34.362  14.650  10.352
24956W        W97381  31.622  17.187   4.530
24957W        W97382  42.509  41.022   2.548
24958W        W97383   7.632   7.163  11.901
24959W        W97384  18.197  35.624   4.363
24960W        W97385   8.450   9.780  13.031
24961W        W97386  36.862   1.996  10.672
24962W        W97387  43.010  43.455  10.587
24963W        W97388   2.419   3.478   3.285
24964W        W97389  24.210  24.776  10.735
24965W        W97390  35.975  28.498   2.407
24966W        W97391   9.726  11.227  11.137
24967W        W97392  37.926  27.948   1.011
24968W        W97393  33.387  10.822  11.125
24969W        W97394   7.426  18.737  13.264
24970W        W97395  36.599  33.558  14.906
24971W        W97396  39.025  18.770   3.679
24972W        W97397  13.214  39.354  11.446
24973W        W97398  30.357  22.630   0.789
24974W        W97399   5.328  32.559   2.690
24975W        W97400  42.317  40.050  14.402
24976W        W97401   4.280   5.796   2.940
24977W        W97402  20.793  41.013  11.670
24978W        W97403  25.011   5.274  10.650
24979W        W97404  40.097   1.750  12.029
24980W        W97405  12.099  19.757   4.088
24981W        W97406  36.221   4.428   2.118
24982W        W97407   2.368  16.487  13.423
24983W        W97408  27.679  40.763  13.417
24984W        W97409  44.294  17.165  12.099
24985W        W97410  42.217  25.067   0.521
24986W        W97411  43.499  32.472   1.939
24987W        W97412  18.095   6.930   1.508
24988W        W97413  26.293  32.191  10.107
24989W        W97414  40.373  26.969   0.352
24990W        W97415  34.038  30.385   1.468
24991W        W97416  19.259  42.998  13.300
24992W        W97417  29.398  13.340   1.653
24993W        W97418  41.013   7.737  13.947
24994W        W97419  27.366  40.450  10.128
24995W        W97420  19.604  18.777   0.396
24996W        W97421  24.212   4.842  11.413
24997W        W97422  38.813   9.437   2.793
24998W        W97423   7.931   4.977  12.585
24999W        W97424  24.776   0.975  10.779
25000W        W97425   1.210  28.147  14.391
25001W        W97426  26.115  21.077  11.928
25002W        W97427  37.438  25.272   1.395
25003W        W97428  26.538  23.175  11.994
25004W        W97429  12.189  11.728  13.454
25005W        W97430  14.086  41.852   0.976
25006W        W97431  14.115  39.761   4.130
25007W        W97432  11.399   0.783   3.324
25008W        W97433  27.768  35.554   3.895
25009W        W97434  32.954  27.975   0.512
25010W        W97435  26.586  16.191  10.901
25011W        W97436  27.084  20.149  14.536
25012W        W97437  32.647  24.053  12.499
25013W        W97438   7.521   3.689  12.108
25014W        W97439  44.749  43.967   2.157
25015W        W97440  14.622  32.379  10.727
25016W        W97441  11.744  17.627   0.496
25017W        W97442  39.989  39.884  12.164
25018W        W97443   3.428  36.814  12.886
25019W        W97444  24.372  41.772   2.697
25020W        W97445  14.092  21.240  13.461
25021W        W97446  32.486  14.556  11.981
25022W        W97447  18.102  27.428   1.206
25023W        W97448  21.514  34.095  12.074
25024W        W97449  41.207  20.329   3.235
25025W        W97450  31.697  34.335  14.815
25026W        W97451  31.681  11.660  13.458
25027W        W97452  44.399  14.266  11.600
25028W        W97453  20.691   0.723   0.289
25029W        W97454   7.829  29.953  13.887
25030W        W97455  44.465   3.653   3.679
25031W        W97456  15.035  15.792  12.468
25032W        W97457  37.609   8.691  11.478
25033W        W97458  10.834  26.123   1.462
25034W        W97459  35.731  21.480   3.658
25035W        W97460  14.226  40.013  13.835
25036W        W97461  39.952  22.536   1.048
25037W        W97462   5.177   4.865   3.160
25038W        W97463  42.087   4.455  13.300
25039W        W97464   9.125  31.537   2.651
25040W        W97465  19.883  27.888  10.508
25041W        W97466  17.976  42.492   1.839
25042W        W97467  26.908  44.396   1.286
25043W        W97468  41.267   5.272  12.011
25044W        W97469  35.139  42.476   0.937
25045W        W97470  29.214   0.937   0.284
25046W        W97471   6.839  23.594  13.801
25047W        W97472  43.378   5.194  13.995
25048W        W97473  41.337   3.474  10.680
25049W        W97474  25.790  41.242  13.903
25050W        W97475  10.619  11.097  11.544
25051W        W97476  24.058   8.716  12.413
25052W        W97477  11.828  43.228  12.781
25053W        W97478  12.461   7.223   1.283
25054W        W97479   1.838  18.058   4.575
25055W        W97480  30.590  34.190   3.623
25056W        W97481  35.100  20.702   4.758
25057W        W97482  41.032  26.071   4.577
25058W        W97483  16.563  40.586   3.456
25059W        W97484  18.597  11.382  13.335
25060W        W97485  28.229  42.297   0.996
25061W        W97486   1.876  43.228  14.870
25062W        W97487   8.079  17.531   4.211
25063W        W97488  25.576  44.898  14.114
25064W        W97489  35.724   3.983  11.127
25065W        W97490  28.384  16.218   3.292
25066W        W97491   5.194   1.663   4.902
25067W        W97492   0.288  21.150  11.528
25068W        W97493  34.903  19.685  12.166
25069W        W97494  17.269  12.666   0.385
25070W        W97495  17.473  42.510  11.633
25071W        W97496  11.662  12.998   3.591
25072W        W97497  19.053  32.466  12.460
25073W        W97498  41.371  39.310   4.437
25074W        W97499  43.443  21.063  11.180
25075W        W97500  32.582  10.922  10.669
25076W        W97501  29.333   0.840  11.689
25077W        W97502  16.104   7.912  11.262
25078W        W97503  24.692  16.669   3.801
25079W        W97504  37.132  30.371   3.289
25080W        W97505   3.402  40.937  14.352
25081W        W97506  28.086  28.535  10.727
25082W        W97507  28.600  28.644   1.184
25083W        W97508   4.629  27.773   4.612
25084W        W97509   9.773  43.174   0.612
25085W        W97510  12.081  32.533  13.550
25086W        W97511  24.463  27.217   2.930
25087W        W97512   9.390  32.996  14.394
25088W        W97513  38.447  28.150  14.725
25089W        W97514  40.509  23.067   1.325
25090W        W97515  27.481  29.830  12.864
25091W        W97516  19.307  44.475   4.597
25092W        W97517   8.279  30.387   2.015
25093W        W97518  27.491  39.506   5.041
25094W        W97519  38.959   3.837  14.793
25095W        W97520  37.455  11.817   1.248
25096W        W97521   2.743   5.619   5.012
25097W        W97522   1.972  23.117   1.387
25098W        W97523  11.722  35.637  12.130
25099W        W97524   7.675  30.055  10.654
25100W        W97525  42.695   1.341   4.356
25101W        W97526  22.037  33.629   3.687
25102W        W97527  42.565  22.076   2.373
25103W        W97528  25.845   2.400   1.016
25104W        W97529  34.546  42.064  13.491
25105W        W97530  21.729  19.227   2.667
25106W        W97531   7.511  11.775  11.278
25107W        W97532  17.493  24.207   1.895
25108W        W97533   6.229  15.482   2.728
25109W        W97534  11.274  11.693   1.929
25110W        W97535  23.770  43.446  14.433
25111W        W97536  19.101  32.928   4.427
25112W        W97537   1.140  40.865   3.541
25113W        W97538  17.161  34.607   3.674
25114W        W97539  39.490   3.822  14.806
25115W        W97540  26.506   1.338   2.216
25116W        W97541  20.342  35.953  12.878
25117W        W97542  10.215   0.038  12.081
25118W        W97543  41.435  16.533  10.677
25119W        W97544  30.896  16.733  10.718
25120W        W97545  28.708  36.848  10.703
25121W        W97546  16.969  16.784   4.396
25122W        W97547  12.340   1.409   4.545
25123W        W97548  32.889  36.902   2.834
25124W        W97549  37.867  30.209  10.624
25125W        W97550  43.658  21.121  13.815
25126W        W97551  41.065  23.431  10.469
25127W        W97552  44.924  34.192   3.547
25128W        W97553  32.105   2.992   3.348
25129W        W97554  21.753  28.397   4.240
25130W        W97555   9.185  36.248  11.905
25131W        W97556  39.459   0.441  14.702
25132W        W97557   5.769  13.356  13.833
25133W        W97558  34.004  19.561  10.958
25134W        W97559  18.211   2.318  14.166
25135W        W97560  15.669  26.466  13.470
25136W        W97561  14.639  18.661  12.428
25137W        W97562  15.272  23.125  13.486
25138W        W97563  28.914  35.114   0.409
25139W        W97564  43.242  43.681  13.808
25140W        W97565  20.097   6.680  10.734
25141W        W97566  21.564   2.508  12.372
25142W        W97567  31.665  14.394  10.738
25143W        W97568   4.096  14.235   2.767
25144W        W97569  25.377  22.476  14.427
25145W        W97570  11.788  10.154   2.411
25146W        W97571  37.486  22.513   0.595
25147W        W97572  43.561  32.386  11.543
25148W        W97573   0.396   3.016  13.224
25149W        W97574  39.299   2.962  11.043
25150W        W97575  22.686   6.692  10.640
25151W        W97576  14.814  38.158   1.392
25152W        W97577  25.724  43.236  13.961
25153W        W97578  21.874  40.019  13.485
25154W        W97579  13.280  44.297   3.082
25155W        W97580   1.841  27.097   2.842
25156W        W97581   1.038  43.982   2.720
25157W        W97582   2.169  40.292  11.982
25158W        W97583   7.656  24.927   4.602
25159W        W97584  21.470  11.863   3.473
25160W        W97585  21.231  36.487  13.750
25161W        W97586  40.760  22.048   4.276
25162W        W97587   5.739  20.140   3.638
25163W        W97588  27.751  26.985  12.517
25164W        W97589  33.150  33.898  12.562
25165W        W97590  20.228  44.702  10.751
25166W        W97591  31.712  39.832   1.990
25167W        W97592  16.205  11.259  11.551
25168W        W97593  44.338  26.161  11.421
25169W        W97594   8.529  19.342   1.268
25170W        W97595  17.287  31.971   1.180
25171W        W97596  43.554  17.107  12.891
25172W        W97597  19.188  24.408  11.594
25173W        W97598  22.258  19.503   3.834
25174W        W97599  35.092   5.418   0.741
25175W        W97600  42.989   7.681  12.090
25176W        W97601  27.377  28.880   0.818
25177W        W97602  13.802  15.763   3.399
25178W        W97603  34.320  11.811   0.858
25179W        W97604  38.927   4.648   5.068
25180W        W97605   0.522  22.924  12.581
25181W        W97606  19.123   0.139  12.984
25182W        W97607  28.518  44.078   0.480
25183W        W97608   0.669  40.513  14.263
25184W        W97609  35.705  39.156  11.533
25185W        W97610   4.321  43.706   3.262
25186W        W97611  37.858  35.192   1.110
25187W        W97612  30.646  29.488   1.395
25188W        W97613  44.879  42.026  12.579
25189W        W97614  15.709  29.399   3.510
25190W        W97615  34.475   9.832   0.502
25191W        W97616  37.613   5.865  14.400
25192W        W97617  13.913  44.933   2.683
25193W        W97618  22.733   5.459  12.944
25194W        W97619  35.424  41.577   4.167
25195W        W97620   9.341  10.132   2.220
25196W        W97621  44.405  44.537   4.602
25197W        W97622  12.077  27.753  13.606
25198W        W97623  33.086  10.662   3.522
25199W        W97624  11.141  39.447   2.419
25200W        W97625  25.958   4.599   1.803
25201W        W97626   2.977  26.868  11.133
25202W        W97627  26.283  13.940   4.057
25203W        W97628   1.674  32.472  12.351
25204W        W97629  35.101   3.667   4.029
25205W        W97630  26.258  35.617  12.663
25206W        W97631  35.858   5.255  11.976
25207W        W97632  39.923  10.665   3.215
25208W        W97633  29.439   0.922   0.768
25209W        W97634  33.441  11.160  14.396
25210W        W97635  33.494  17.073   0.469
25211W        W97636  19.746  16.568  14.387
25212W        W97637  40.053  39.930   4.384
25213W        W97638  24.081  29.475   2.225
25214W        W97639  21.276   8.753  12.101
25215W        W97640  36.110   6.331   1.791
25216W        W97641  35.141   0.159   3.879
25217W        W97642  37.908  14.776   2.878
25218W        W97643  16.564  18.818  11.488
25219W        W97644  33.330  26.970   2.777
25220W        W97645  26.461  10.323   3.929
25221W        W97646  39.907  33.695  14.890
25222W        W97647  19.299  29.510   0.505
25223W        W97648  29.697   3.400   0.063
25224W        W97649  11.701  27.397  11.412
25225W        W97650  18.684   9.130   2.181
25226W        W97651  19.978  16.033   3.745
25227W        W97652   3.054  40.754  12.934
25228W        W97653  39.955   2.470   0.554
25229W        W97654  36.070  43.544   1.976
25230W        W97655  14.710  10.371  13.256
25231W        W97656  16.160   7.607   0.562
25232W        W97657  25.662  37.351  13.860
25233W        W97658  16.586   0.319   0.811
25234W        W97659  30.147  23.798   3.576
25235W        W97660  14.514  39.536   0.889
25236W        W97661  24.091  21.407   5.317
25237W        W97662  20.264   6.308  13.942
25238W        W97663  35.063  18.273   4.307
25239W        W97664  31.190  38.340  10.682
25240W        W97665  40.756   9.778  14.071
25241W        W97666  11.049  33.455   4.019
25242W        W97667  34.907  26.914   0.310
25243W        W97668  18.767  26.284   1.867
25244W        W97669  42.498   0.824   3.877
25245W        W97670  38.493   1.913   2.735
25246W        W97671   6.404   3.244  11.635
25247W        W97672  19.371  37.366  11.159
25248W        W97673  15.659  33.719   3.472
25249W        W97674  11.813  31.959   3.482
25250W        W97675   1.310   2.944   0.870
25251W        W97676  42.338  20.265   1.471
25252W        W97677  16.127  24.548  11.210
25253W        W97678  12.116  16.150   0.741
25254W        W97679  25.726  27.771  14.451
25255W        W97680  36.014  37.496   2.752
25256W        W97681  29.072  18.039   3.137
25257W        W97682  41.121  29.547  12.177
25258W        W97683   4.111  42.531   4.646
25259W        W97684  41.349  14.485  10.745
25260W        W97685  17.862  35.906  10.376
25261W        W97686  38.490  43.583  12.631
25262W        W97687   2.360   5.824   2.681
25263W        W97688   4.661  40.051   1.282
25264W        W97689   6.409  39.825   3.734
25265W        W97690  30.007  27.147  14.030
25266W        W97691   9.258  19.723  10.220
25267W        W97692  42.873  28.867  12.469
25268W        W97693   0.233  27.532  13.535
25269W        W97694  34.405   2.944   3.227
25270W        W97695  29.197  31.258   4.147
25271W        W97696  22.212  25.951  10.289
25272W        W97697  10.404   4.424   3.194
25273W        W97698   5.913  20.678  11.821
25274W        W97699   2.875  42.698  13.469
25275W        W97700   7.319  14.250   1.875
25276W        W97701  17.608  22.259   1.720
25277W        W97702  26.642  37.635   0.449
25278W        W97703   4.906  21.344   0.877
25279W        W97704  19.289   0.837  13.349
25280W        W97705   9.287  36.420  12.368
25281W        W97706  38.811  36.344   1.259
25282W        W97707   2.371  39.262   3.368
25283W        W97708  12.801  34.046   0.959
25284W        W97709  38.919  40.267   3.072
25285W        W97710  26.506  20.750   4.641
25286W        W97711   3.387  37.327  12.964
25287W        W97712  37.971  21.295   1.694
25288W        W97713  28.357  42.105   3.653
25289W        W97714  41.441  39.326   0.701
25290W        W97715  33.643  39.430   1.567
25291W        W97716  17.598  18.652  11.636
25292W        W97717  21.918  37.613   2.228
25293W        W97718  36.798   7.412   4.048
25294W        W97719  34.530  25.896   4.810
25295W        W97720   5.419  38.820   2.335
25296W        W97721   2.002  27.086   0.640
25297W        W97722  39.029  24.759   2.212
25298W        W97723  37.445  23.091   1.393
25299W        W97724   9.999   5.126  12.437
25300W        W97725   3.800  42.937   1.931
25301W        W97726   2.507  16.234  11.566
25302W        W97727  41.712   1.720   0.988
25303W        W97728  38.999  21.242   1.791
25304W        W97729  28.390  10.804  13.286
25305W        W97730   4.087  23.477   0.660
25306W        W97731  24.770  34.344   0.677
25307W        W97732   6.391  23.657  13.493
25308W        W97733  39.436  21.616  14.734
25309W        W97734  17.616   9.831  14.588
25310W        W97735  38.804  37.624  10.584
25311W        W97736  33.270  28.120  12.719
25312W        W97737   2.804  29.656   1.692
25313W        W97738   1.254  32.365   3.710
25314W        W97739  34.460  43.393  14.885
25315W        W97740   9.425  38.562  12.471
25316W        W97741   6.289  33.090   0.878
25317W        W97742  30.472  18.748   3.285
25318W        W97743  12.194   9.194   3.564
25319W        W97744   3.586  38.363  14.298
25320W        W97745  10.585  17.368  13.026
25321W        W97746  11.115  28.994  14.736
25322W        W97747  44.757  14.641  12.587
25323W        W97748   5.772  25.091  13.937
25324W        W97749  13.677  10.487  13.978
25325W        W97750  37.537  44.870   3.587
25326W        W97751  21.208  42.048   1.370
25327W        W97752  22.555  22.510  12.469
25328W        W97753  30.608  28.166  10.977
25329W        W97754  19.544  33.901   3.497
25330W        W97755  18.076   0.312   2.452
25331W        W97756  40.408  20.594   1.432
25332W        W97757  38.023  19.810  14.856
25333W        W97758  38.572  33.056   2.138
25334W        W97759  32.152  18.476   2.748
25335W        W97760  30.404  20.363   2.260
25336W        W97761  24.600  27.137  11.649
25337W        W97762  38.263  41.026   0.850
25338W        W97763  31.069  36.155   0.884
25339W        W97764  31.697  25.142   1.820
25340W        W97765   9.639  27.520   4.044
25341W        W97766  29.922   0.233   4.434
25342W        W97767   4.937   2.807  11.734
25343W        W97768   1.342  15.647  14.942
25344W        W97769   3.342   4.960  12.001
25345W        W97770  28.519  44.182  14.948
25346W        W97771  11.826  44.820   0.526
25347W        W97772  36.976  17.285  14.883
25348W        W97773   8.285  33.182   4.024
25349W        W97774   1.188  16.164  10.718
25350W        W97775   1.807  11.638  13.054
25351W        W97776  18.254  31.699   1.473
25352W        W97777  22.260  15.570   1.305
25353W        W97778  37.423   9.191   5.026
25354W        W97779  44.260  17.593   1.264
25355W        W97780  27.397  10.833  12.522
25356W        W97781  41.937  17.083   2.987
25357W        W97782  20.172  11.918  12.503
25358W        W97783   4.246  27.895  12.911
25359W        W97784  19.466  21.242  11.851
25360W        W97785  21.022  38.271  14.677
25361W        W97786  29.249  40.922  14.304
25362W        W97787  17.556  43.362  13.520
25363W        W97788  33.170  36.605   1.014
25364W        W97789  36.867  17.681  11.711
25365W        W97790  14.053   1.737  10.700
25366W        W97791  30.084   3.462   2.371
25367W        W97792  24.469  29.084   0.093
25368W        W97793  29.954  11.134   2.169
25369W        W97794   8.632  21.100   2.764
25370W        W97795   0.781   4.428  13.071
25371W        W97796  30.610  44.333  11.099
25372W        W97797  12.216   7.656  11.911
25373W        W97798   3.230  12.440   4.228
25374W        W97799  26.473  22.734  11.703
25375W        W97800   1.375  16.073  14.399
25376W        W97801  33.326  35.337   1.363
25377W        W97802   5.960  18.664   0.716
25378W        W97803  29.157   4.445   1.276
25379W        W97804  26.417  31.902  13.881
25380W        W97805  39.929  29.395   4.304
25381W        W97806  24.046  26.124  12.544
25382W        W97807  41.471  37.468  10.688
25383W        W97808  18.797  11.350  11.197
25384W        W97809  27.615  33.304  14.491
25385W        W97810   4.732  38.419  10.500
25386W        W97811  41.603   2.770   3.776
25387W        W97812  16.826  19.220   4.180
25388W        W97813  20.407   5.161  11.338
25389W        W97814   9.436  32.922   2.286
25390W        W97815  43.810  28.103   4.543
25391W        W97816  28.623  20.212   1.734
25392W        W97817  35.072   6.395   1.836
25393W        W97818  31.609   7.250   2.377
25394W        W97819   9.601   9.659   4.301
25395W        W97820   4.963  15.327   1.811
25396W        W97821  32.165  39.663   3.757
25397W        W97822  36.868  38.598  13.417
25398W        W97823  31.307   8.901  12.068
25399W        W97824  19.222  38.347   3.105
25400W        W97825  24.106  40.912   2.305
25401W        W97826  26.540  33.665   2.363
25402W        W97827  19.454  16.646  13.976
25403W        W97828  12.791   2.802  11.612
25404W        W97829  10.637   5.657   0.300
25405W        W97830   1.461  19.820   4.168
25406W        W97831  17.763   9.319  10.335
25407W        W97832  32.461  18.313   0.252
25408W        W97833  13.469  19.194  13.633
25409W        W97834  36.893   9.877  13.947
25410W        W97835   4.537  33.393  10.401
25411W        W97836   8.715  10.696  12.226
25412W        W97837   8.375  31.367  13.028
25413W        W97838   7.958  30.416   4.268
25414W        W97839   3.743   4.299  13.351
25415W        W97840   5.293  30.154  14.275
25416W        W97841  17.130   3.430  11.370
25417W        W97842   6.477   3.150  14.214
25418W        W97843  41.461  43.044   2.238
25419W        W97844  11.184   6.883   1.223
25420W        W97845  34.633  26.852  14.060
25421W        W97846   7.176   4.908   3.342
25422W        W97847   2.187  15.720  10.649
25423W        W97848  13.000   1.252   0.947
25424W        W97849  26.305  13.770  11.988
25425W        W97850   7.290  32.656  13.518
25426W        W97851  35.008  17.355  12.150
25427W        W97852   9.179  10.654   0.779
25428W        W97853  23.321  35.973  10.776
25429W        W97854   7.000   5.964  10.681
25430W        W97855  21.055  17.842   2.280
25431W        W97856  35.941   8.826   5.815
25432W        W97857  24.658  26.071   0.814
25433W        W97858  42.365  15.538  11.606
25434W        W97859  34.050  44.308  14.276
25435W        W97860   6.181  39.035  14.343
25436W        W97861  38.395  20.075   2.122
25437W        W97862  18.392  35.387  13.459
25438W        W97863  20.740  40.189  14.575
25439W        W97864  28.589  13.254  14.838
25440W        W97865  44.803   8.487   3.644
25441W        W97866  33.134   0.467  13.481
25442W        W97867  27.034   1.809  14.074
25443W        W97868   3.303   4.631   1.982
25444W        W97869  37.391  37.356   1.995
25445W        W97870  39.994  15.758   4.148
25446W        W97871  43.391   9.906   0.821
25447W        W97872  10.969  35.109  11.057
25448W        W97873  25.610  44.839  11.981
25449W        W97874   4.914  17.319  12.423
25450W        W97875  36.940   2.245  13.547
25451W        W97876  13.099  41.822  14.455
25452W        W97877   4.790  15.605  11.096
25453W        W97878  30.028  15.758   4.101
25454W        W97879  34.589  42.666  12.500
25455W        W97880  40.179  25.191   2.770
25456W        W97881  28.145  44.801  10.257
25457W        W97882  39.589  29.669  14.971
25458W        W97883   7.073  16.792   0.346
25459W        W97884  28.828  41.870  11.300
25460W        W97885   7.930  11.152   4.012
25461W        W97886  22.849  31.146  13.873
25462W        W97887  32.453  30.234  13.876
25463W        W97888  29.500  17.707   2.756
25464W        W97889  38.803  26.751   2.258
25465W        W97890  15.417   7.768  11.127
25466W        W97891   2.736  43.490   0.914
25467W        W97892   8.887  19.830  12.501
25468W        W97893  12.160   6.683   0.957
25469W        W97894  16.393  33.054  12.034
25470W        W97895  20.614  17.869  10.475
25471W        W97896   0.306  23.942   2.244
25472W        W97897   2.048   7.629   3.508
25473W        W97898  21.802  37.592   0.261
25474W        W97899  32.112  40.231  11.194
25475W        W97900  25.084  22.268  11.955
25476W        W97901  24.264  16.526   4.102
25477W        W97902  38.349  22.579  14.541
25478W        W97903  29.688  16.766   2.548
25479W        W97904  36.105  10.227  12.851
25480W        W97905  44.926  14.509  10.797
25481W        W97906   2.254  29.937  14.416
25482W        W97907  37.538  38.051   4.100
25483W        W97908  43.343  13.218  13.826
25484W        W97909  35.361  39.908  13.093
25485W        W97910  39.398   7.680   4.103
25486W        W97911   9.795   9.198   4.387
25487W        W97912  20.248  17.099  13.878
25488W        W97913  12.576  25.488  10.730
25489W        W97914  38.238   4.706  14.333
25490W        W97915   3.427  40.179  10.223
25491W        W97916   4.202  30.276   1.477
25492W        W97917   6.349  19.641   1.781
25493W        W97918  22.519  34.165   0.962
25494W        W97919  15.361  39.776  14.659
25495W        W97920  27.134  11.220   3.653
25496W        W97921  22.183  39.814  11.834
25497W        W97922   2.338  19.244  12.796
25498W        W97923  19.738  21.504   0.058
25499W        W97924   2.841  33.492  11.956
25500W        W97925  13.443   1.007  12.593
25501W        W97926  25.793  22.139  10.786
25502W        W97927  30.693  36.688  11.563
25503W        W97928  18.689  15.914   1.747
25504W        W97929  37.783  35.337   0.308
25505W        W97930  35.651  17.675   4.802
25506W        W97931   2.068  33.560   0.782
25507W        W97932   7.879  11.653   4.042
25508W        W97933  30.551  37.031   3.846
25509W        W97934  34.846  20.181   0.885
25510W        W97935   9.319  24.617   0.067
25511W        W97936  23.220  36.366   4.860
25512W        W97937   6.399   6.996  14.962
25513W        W97938  20.981   7.224  14.750
25514W        W97939  31.839  38.534   3.833
25515W        W97940  22.422  27.016   0.968
25516W        W97941  37.939  25.737   2.396
25517W        W97942   7.710   6.485  13.577
25518W        W97943  23.718  40.462  14.173
25519W        W97944  34.391  11.609   0.002
25520W        W97945  36.396  42.100  11.926
25521W        W97946  41.347   7.723   2.295
25522W        W97947  13.253  19.589   1.667
25523W        W97948  31.716  43.322   1.302
25524W        W97949  23.452   6.672  11.174
25525W        W97950  30.467   8.573   3.101
25526W        W97951  13.105  37.099   0.844
25527W        W97952  22.661  32.846   3.476
25528W        W97953  31.461  14.068   4.199
25529W        W97954   4.737  17.747   2.705
25530W        W97955  14.635  24.615   9.613
25531W        W97956  18.688  21.007  13.754
25532W        W97957   6.090  12.087   2.229
25533W        W97958  40.994  35.269  11.068
25534W        W97959  29.907   9.897  11.656
25535W        W97960  10.775  35.535  10.711
25536W        W97961  22.223  12.539   1.856
25537W        W97962  40.391  24.947   1.414
25538W        W97963  16.677  31.570  10.599
25539W        W97964  41.852  40.743  12.519
25540W        W97965  37.857   7.195  11.062
25541W        W97966   2.493  32.580   2.365
25542W        W97967  28.621   6.259   4.637
25543W        W97968  26.589  12.263   4.269
25544W        W97969  44.191  13.231  12.163
25545W        W97970  16.149  22.287  10.703
25546W        W97971  44.869  16.166   1.961
25547W        W97972  34.861  17.531   4.216
25548W        W97973  38.782  16.268   0.393
25549W        W97974  31.274  23.056  10.098
25550W        W97975  36.544  27.901  14.552
25551W        W97976  13.597  40.773   0.931
25552W        W97977  22.817  12.085  14.180
25553W        W97978   4.751  42.993  13.047
25554W        W97979  41.835  19.271  14.905
25555W        W97980  27.382   1.843  11.146
25556W        W97981   9.171  10.623   2.160
25557W        W97982  27.397  20.216   0.973
25558W        W97983  40.984  33.367  11.903
25559W        W97984  20.029  27.545  14.888
25560W        W97985  41.774  15.122  11.954
25561W        W97986  23.275   3.847  13.056
25562W        W97987  33.612  23.757  10.535
25563W        W97988   7.772  12.608  13.292
25564W        W97989  10.174  30.826  11.155
25565W        W97990  39.073  23.062  13.080
25566W        W97991  35.524  16.230  13.842
25567W        W97992  19.643  39.297  14.066
25568W        W97993  22.430  35.567  11.910
25569W        W97994  16.563  36.874   2.282
25570W        W97995   6.241  20.204  10.098
25571W        W97996  20.714  22.739   1.834
25572W        W97997  39.328  29.215   1.274
25573W        W97998   5.253  43.852  13.407
25574W        W97999  35.422   0.236  14.309
25575W        W98000  24.395  22.193   2.007
25576W        W98001   5.839   3.766   2.715
25577W        W98002   1.764  41.512   1.868
25578W        W98003  20.832  40.439  12.357
25579W        W98004  35.283  36.407  13.601
25580W        W98005  24.036  22.082  11.956
25581W        W98006  19.370  22.789   1.272
25582W        W98007   9.780  23.787  11.216
25583W        W98008  12.612  26.627   3.817
25584W        W98009   0.655  16.018  13.811
25585W        W98010   5.929   0.834   3.838
25586W        W98011  24.404  41.134  11.137
25587W        W98012   9.313  22.331  12.941
25588W        W98013  31.683  30.093  12.498
25589W        W98014  24.941  38.118   4.288
25590W        W98015   0.595  39.885  11.606
25591W        W98016  15.659  19.819  12.921
25592W        W98017  20.627  14.553   3.248
25593W        W98018  31.263  10.028   3.713
25594W        W98019  13.656  22.430  10.918
25595W        W98020  15.528  11.794  14.912
25596W        W98021  21.066  23.091   2.762
25597W        W98022   7.080   1.282  13.516
25598W        W98023  15.702  29.573  14.345
25599W        W98024   7.704  14.633   1.212
25600W        W98025  12.344  27.772   1.376
25601W        W98026  26.572  28.652  10.364
25602W        W98027  44.967  41.960   3.207
25603W        W98028   7.203  15.142   2.038
25604W        W98029  24.703  25.050  14.741
25605W        W98030  43.710  25.938   0.787
25606W        W98031  10.177  42.810   3.651
25607W        W98032   8.815  33.663   3.380
25608W        W98033  22.068  32.082   2.409
25609W        W98034   8.667   6.916   4.135
25610W        W98035  14.266  10.117  13.371
25611W        W98036   2.749  21.542   4.023
25612W        W98037  15.712  15.070   3.940
25613W        W98038   7.146  37.006   1.568
25614W        W98039   9.893   6.760   2.822
25615W        W98040  38.270  34.540  12.889
25616W        W98041  43.023  43.759   3.367
25617W        W98042  24.501  31.144  10.656
25618W        W98043   0.043  15.257  11.187
25619W        W98044  21.149  44.143   4.788
25620W        W98045  40.529  11.557   0.952
25621W        W98046   3.192  25.656  13.889
25622W        W98047  42.714  40.530   2.625
25623W        W98048  43.443  33.511  10.671
25624W        W98049  40.301  34.605   0.739
25625W        W98050  30.178  23.642   5.439
25626W        W98051  21.189  19.510   0.634
25627W        W98052  10.421  35.449  12.451
25628W        W98053  38.479   8.763   4.211
25629W        W98054  18.756  33.286   4.587
25630W        W98055  30.089  19.848  10.854
25631W        W98056  23.348  30.579  13.189
25632W        W98057  24.442  42.773   4.477
25633W        W98058  35.131  16.597   4.129
25634W        W98059  11.876  37.833   2.604
25635W        W98060  29.730  35.081   4.177
25636W        W98061  16.072   9.829   4.271
25637W        W98062  22.621  20.808  11.075
25638W        W98063  19.164  10.239   0.488
25639W        W98064   9.320  18.153  12.949
25640W        W98065   2.281  22.576   0.689
25641W        W98066  11.771  11.402  11.748
25642W        W98067  39.849  38.814   3.224
25643W        W98068  43.493  11.333   0.670
25644W        W98069  31.310  18.439  10.847
25645W        W98070  19.100  12.817   4.798
25646W        W98071   5.719   7.423  14.327
25647W        W98072  21.363   1.257  11.252
25648W        W98073  15.656  29.723   4.004
25649W        W98074  37.651  32.217  12.083
25650W        W98075   1.937  21.304   3.220
25651W        W98076  41.779  43.369  12.002
25652W        W98077  25.734  37.065  10.704
25653W        W98078  19.300   7.295   4.168
25654W        W98079  40.366  11.372   1.438
25655W        W98080   9.291  26.044  11.970
25656W        W98081  33.028  16.315  11.692
25657W        W98082  27.181   6.695   3.618
25658W        W98083  41.963  37.271  10.643
25659W        W98084  39.902  21.000   0.793
25660W        W98085   9.935  34.350  12.478
25661W        W98086  15.789  23.299  11.510
25662W        W98087  27.042  34.956  11.083
25663W        W98088  14.732  10.325   0.358
25664W        W98089  31.683   7.177  11.465
25665W        W98090  10.400  37.906   3.374
25666W        W98091  21.269  25.531  13.758
25667W        W98092  39.819  33.703   3.646
25668W        W98093  21.650  38.237   2.295
25669W        W98094  16.811  40.995  13.779
25670W        W98095  34.428  25.402  10.902
25671W        W98096  23.524   1.812   1.224
25672W        W98097  29.406  12.344   2.375
25673W        W98098   6.495  35.341  11.486
25674W        W98099  17.878  34.890  13.923
25675W        W98100  35.993  24.236  13.878
25676W        W98101   8.612  32.124   1.517
25677W        W98102  38.294  42.116  13.119
25678W        W98103   6.761   8.884   1.825
25679W        W98104  11.163  36.163   3.418
25680W        W98105  25.529  20.071  14.329
25681W        W98106   0.400  37.938  10.716
25682W        W98107   5.790  31.508   3.199
25683W        W98108  26.367   6.185   3.779
25684W        W98109  34.499  43.428  11.715
25685W        W98110   4.489   1.769   4.358
25686W        W98111   6.363  12.014   1.320
25687W        W98112   1.411  36.927  14.801
25688W        W98113   0.818  16.140   0.421
25689W        W98114  44.289   4.449  10.642
25690W        W98115  22.255  33.843  10.508
25691W        W98116  31.047  15.487   3.196
25692W        W98117   6.392   4.896  11.846
25693W        W98118  36.930  25.850  14.750
25694W        W98119   1.999  21.183  13.956
25695W        W98120  38.550  40.995  12.039
25696W        W98121  12.398  28.877  13.880
25697W        W98122  12.842  37.328  10.659
25698W        W98123  14.207  32.984  13.954
25699W        W98124   2.885  13.784  14.783
25700W        W98125  26.097  44.486  12.654
25701W        W98126   0.728  12.213  13.455
25702W        W98127  25.163  20.701  10.719
25703W        W98128  19.660  34.813  14.006
25704W        W98129  35.774  14.681  13.834
25705W        W98130  29.661  19.800  11.127
25706W        W98131  17.035  35.209  11.143
25707W        W98132  44.416  28.087  14.961
25708W        W98133   3.816  37.916   1.859
25709W        W98134   0.957   0.488   4.591
25710W        W98135  22.102   0.355   2.814
25711W        W98136  26.241  39.782  10.651
25712W        W98137  22.783  34.595   0.799
25713W        W98138  13.312  11.852  14.787
25714W        W98139   9.165  35.122  12.876
25715W        W98140  21.648   6.130   0.772
25716W        W98141  10.147  42.339  10.695
25717W        W98142  21.144  33.627   1.727
25718W        W98143   0.509  24.007   1.761
25719W        W98144  24.840  12.428  12.709
25720W        W98145  44.379  30.195   0.813
25721W        W98146  43.232   8.719  11.197
25722W        W98147   8.275  21.706   0.967
25723W        W98148  27.064  42.552   0.529
25724W        W98149  44.493  14.203  12.535
25725W        W98150   5.935  43.980  13.980
25726W        W98151  25.135  41.979   4.480
25727W        W98152  43.864   0.845   1.347
25728W        W98153  35.146   1.751   9.832
25729W        W98154  33.574  31.604   4.320
25730W        W98155  37.555  13.799   4.374
25731W        W98156  26.047   3.075   4.244
25732W        W98157  31.558  23.322  11.028
25733W        W98158  20.110   1.934   3.982
25734W        W98159  24.546  14.762   4.031
25735W        W98160   4.936  38.004  12.586
25736W        W98161  33.533  41.842   2.772
25737W        W98162  21.712  40.968   0.721
25738W        W98163  37.331  34.058  14.858
25739W        W98164  39.657  31.459   0.429
25740W        W98165  42.731  26.909  14.016
25741W        W98166   7.524   9.596   2.703
25742W        W98167  33.304   6.230   1.831
25743W        W98168  10.874  35.543  14.928
25744W        W98169   0.883  16.303  12.288
25745W        W98170  31.818  22.509   2.577
25746W        W98171  16.407   2.308  14.986
25747W        W98172   7.291  21.662  13.892
25748W        W98173   2.810  28.755  11.478
25749W        W98174  27.924   8.727   2.278
25750W        W98175  27.128  30.616   2.472
25751W        W98176  38.502  11.243   4.651
25752W        W98177   9.956  27.447  11.749
25753W        W98178   4.750  29.540   2.131
25754W        W98179  13.627  30.404  12.907
25755W        W98180  31.672  25.473   1.319
25756W        W98181  15.807   3.745  11.422
25757W        W98182  27.651  14.145  12.121
25758W        W98183  29.454  32.707  11.930
25759W        W98184  42.392  38.081  12.005
25760W        W98185  44.446  39.840   1.962
25761W        W98186  38.287   8.630  12.878
25762W        W98187  42.266  37.562  14.933
25763W        W98188  15.029  28.082   2.184
25764W        W98189  16.080  27.502  13.307
25765W        W98190  27.968   3.460   4.689
25766W        W98191  41.879  40.899  13.004
25767W        W98192  44.944   9.667  13.770
25768W        W98193  39.969   9.111   1.327
25769W        W98194   0.745  19.708   1.268
25770W        W98195  12.405  13.065   2.240
25771W        W98196  33.635   2.199   0.795
25772W        W98197  13.662  30.960   3.651
25773W        W98198  40.112  10.776  13.085
25774W        W98199  16.056  15.094  14.062
25775W        W98200   7.641   7.666   0.307
25776W        W98201  12.310   3.935  10.569
25777W        W98202  31.469  13.155  10.477
25778W        W98203   7.920  28.273  10.282
25779W        W98204   8.301  34.125  14.869
25780W        W98205  35.884  41.060   0.246
25781W        W98206  41.751   4.643  12.975
25782W        W98207  10.202  44.646   4.229
25783W        W98208  10.773  17.289  14.105
25784W        W98209  27.244  32.665   2.914
25785W        W98210   5.325   5.018  14.691
25786W        W98211  29.209  42.567  13.381
25787W        W98212   4.866  22.070   1.476
25788W        W98213   9.143  23.503  13.759
25789W        W98214  25.669  42.077   2.300
25790W        W98215   2.049  30.744  13.043
25791W        W98216  41.547  21.027  12.951
25792W        W98217  27.217  30.920   0.787
25793W        W98218  35.606  42.474  13.447
25794W        W98219  39.037  33.879   0.768
25795W        W98220  28.189   2.424  11.231
25796W        W98221  34.401  38.567  11.720
25797W        W98222  12.281  27.959  10.742
25798W        W98223   8.291   9.752   2.773
25799W        W98224   3.851  30.165   2.386
25800W        W98225  21.093  25.957  11.020
25801W        W98226   5.626  13.823   4.220
25802W        W98227  41.555  12.715   4.055
25803W        W98228  28.968   8.655  10.615
25804W        W98229  38.994  14.013   3.096
25805W        W98230  11.793  24.594  14.788
25806W        W98231   3.921  24.850   4.138
25807W        W98232  24.523  14.400   1.732
25808W        W98233  12.691  19.594   3.717
25809W        W98234  11.364  25.927   3.762
25810W        W98235   4.170   8.870   4.591
25811W        W98236  30.095   4.585   4.234
25812W        W98237  11.247  30.187  11.567
25813W        W98238   9.399  31.388   4.236
25814W        W98239  14.730  30.151  11.533
25815W        W98240  44.657  36.334  14.744
25816W        W98241  25.583   5.457   1.854
25817W        W98242  15.266  12.203  10.793
25818W        W98243  26.494   4.541  12.201
25819W        W98244  12.544   7.962  14.811
25820W        W98245  23.521  28.707  13.855
25821W        W98246   1.293  31.126   3.282
25822W        W98247  37.977  39.092  13.398
25823W        W98248  27.588  17.797  10.615
25824W        W98249  38.947  34.098  14.813
25825W        W98250  38.780  18.226   0.229
25826W        W98251  39.928  29.157   4.800
25827W        W98252  38.001  35.288  14.828
25828W        W98253  44.869  19.568  12.582
25829W        W98254  13.161  19.836  10.839
25830W        W98255   9.312  30.106   1.396
25831W        W98256  37.688   9.459   3.829
25832W        W98257  31.090   1.900   2.497
25833W        W98258  11.780  39.004  10.093
25834W        W98259  36.889   9.198  11.621
25835W        W98260  32.705  35.309   3.161
25836W        W98261  21.267  43.065   0.301
25837W        W98262  34.142  44.981   2.008
25838W        W98263  17.483  13.534  12.365
25839W        W98264  42.224   6.925  12.458
25840W        W98265  15.278  20.286  14.407
25841W        W98266  28.713   0.244   3.858
25842W        W98267   7.234  31.042   2.715
25843W        W98268  43.234  29.543   2.937
25844W        W98269   2.523  32.070  14.370
25845W        W98270  34.462  34.467  13.500
25846W        W98271  16.661  44.216   2.445
25847W        W98272  19.173  31.570   1.662
25848W        W98273  17.851  26.612   4.251
25849W        W98274  12.564  17.019   2.666
25850W        W98275  17.657  30.572   0.231
25851W        W98276  43.355  20.047  13.702
25852W        W98277  30.954   7.868   1.677
25853W        W98278  44.337  37.228  14.419
25854W        W98279  42.197  26.621  12.509
25855W        W98280  24.468  11.671  14.992
25856W        W98281  14.006  22.709  13.424
25857W        W98282   3.704  39.980  14.382
25858W        W98283   8.672   6.674  13.873
25859W        W98284   3.000  33.536   2.389
25860W        W98285  40.358   6.167  14.780
25861W        W98286  17.764  33.167   4.391
25862W        W98287  16.801  37.458  10.990
25863W        W98288  33.468  11.655  11.139
25864W        W98289  11.599  14.681  11.655
25865W        W98290  28.565   8.372  11.696
25866W        W98291  28.702   4.076  12.448
25867W        W98292  10.099  23.575   0.034
25868W        W98293  29.508  10.325  11.648
25869W        W98294   6.782   1.335   2.249
25870W        W98295   9.288  35.516  13.940
25871W        W98296   5.801   9.896   3.344
25872W        W98297  16.677  13.108   2.903
25873W        W98298  40.114  18.251   3.340
25874W        W98299  28.410  16.939   2.354
25875W        W98300  44.785  12.594   0.866
25876W        W98301  34.378   3.543   0.437
25877W        W98302  12.088  40.349   4.622
25878W        W98303  17.602  29.895  12.438
25879W        W98304   6.259  44.551  14.862
25880W        W98305  13.557  23.704  12.573
25881W        W98306   9.352  16.160   0.369
25882W        W98307  17.183  14.814   2.872
25883W        W98308  38.446  31.533  11.154
25884W        W98309  27.048  15.667  12.482
25885W        W98310  12.658   5.652   3.417
25886W        W98311  23.313  32.204   3.301
25887W        W98312  33.486   9.319  10.932
25888W        W98313  10.245  12.224   3.932
25889W        W98314  12.052  27.625   4.914
25890W        W98315   8.452  27.589  13.261
25891W        W98316   1.914   7.283  13.351
25892W        W98317  21.620  18.739   0.877
25893W        W98318  11.406  26.914   2.199
25894W        W98319  11.831  44.154  11.033
25895W        W98320   2.065  12.657   0.962
25896W        W98321   6.620  34.499   2.248
25897W        W98322  14.720  13.844  14.424
25898W        W98323  23.948  44.446  14.258
25899W        W98324  28.319  33.416  10.160
25900W        W98325  35.770   6.138  13.444
25901W        W98326   8.723  15.554   3.853
25902W        W98327  13.304  24.771   2.769
25903W        W98328   3.288  10.753   0.257
25904W        W98329  20.064  16.581  12.005
25905W        W98330  29.698  10.161   4.624
25906W        W98331   4.275   4.282   3.025
25907W        W98332   8.618  11.128   0.052
25908W        W98333  34.106  33.091   1.877
25909W        W98334  20.640  24.540   2.355
25910W        W98335  41.651  16.306  11.539
25911W        W98336  35.650  44.020  10.712
25912W        W98337  42.271  11.587  14.956
25913W        W98338  12.036  43.096   3.285
25914W        W98339  42.992  16.813  10.032
25915W        W98340  43.873  36.790  10.333
25916W        W98341  17.265  10.295  13.113
25917W        W98342  22.724  14.073  11.265
25918W        W98343  35.078  20.848  10.007
25919W        W98344  40.312  14.574   3.785
25920W        W98345  29.948   5.442  13.581
25921W        W98346   4.329  36.418   2.960
25922W        W98347  34.473  27.463   0.499
25923W        W98348  41.443  24.171   4.567
25924W        W98349  17.990  20.091   4.574
25925W        W98350  14.329  42.099  13.343
25926W        W98351  40.214  23.540   4.174
25927W        W98352  26.130  28.998  12.549
25928W        W98353  13.889  14.101  14.276
25929W        W98354  39.047  18.644   0.345
25930W        W98355  28.975   8.260  13.279
25931W        W98356  14.313   0.684   0.433
25932W        W98357  24.253  25.567   4.182
25933W        W98358  39.215  11.589   4.510
25934W        W98359  28.569  22.147  11.634
25935W        W98360  31.150  17.409  10.740
25936W        W98361  27.621  10.337   4.668
25937W        W98362  32.313  23.789  11.510
25938W        W98363   7.833  28.613   1.357
25939W        W98364  12.936  21.722  11.212
25940W        W98365  21.006  35.172   1.719
25941W        W98366  40.008  17.252  12.624
25942W        W98367  38.156  33.064  12.010
25943W        W98368  29.517  25.709  13.847
25944W        W98369  21.026  42.793  12.312
25945W        W98370  43.015  38.050   1.234
25946W        W98371  24.600  35.787   3.583
25947W        W98372  40.837  10.517  12.547
25948W        W98373   6.394  25.450   0.228
25949W        W98374   6.123  37.766   4.439
25950W        W98375  32.540   3.975  12.370
25951W        W98376   6.365  34.029  11.011
25952W        W98377   6.664   7.342  14.238
25953W        W98378  30.342  25.226  13.440
25954W        W98379  31.540  33.180  14.427
25955W        W98380   0.418   0.541   1.788
25956W        W98381  29.635   1.508  14.023
25957W        W98382  44.505  10.638  13.216
25958W        W98383   8.429  35.479  12.487
25959W        W98384  41.021   9.185  14.788
25960W        W98385  20.786  14.577  10.603
25961W        W98386   7.889  19.125   3.410
25962W        W98387   4.630  35.868  12.151
25963W        W98388  38.946  28.689  11.984
25964W        W98389  16.203  35.373  11.767
25965W        W98390  16.375  14.785  11.651
25966W        W98391  41.451  15.600   0.873
25967W        W98392  15.619  19.992   1.415
25968W        W98393  11.726  30.984  13.829
25969W        W98394  35.577  40.123   4.061
25970W        W98395  21.790   3.953  13.814
25971W        W98396   1.982   1.191  13.064
25972W        W98397  25.036   5.661   1.648
25973W        W98398  34.377  19.267   1.331
25974W        W98399  43.322  19.655  13.368
25975W        W98400   8.016  24.923   0.351
25976W        W98401  11.431  30.583   5.016
25977W        W98402  41.764   4.216   0.724
25978W        W98403  33.024  27.164  11.178
25979W        W98404   4.762  44.317  12.891
25980W        W98405  30.626  32.685   2.922
25981W        W98406  11.484   2.246  11.487
25982W        W98407  26.650  10.833  14.868
25983W        W98408  38.707   8.294   1.434
25984W        W98409   9.782  15.345   1.460
25985W        W98410  37.097   3.101  13.707
25986W        W98411   3.248  20.245  13.197
25987W        W98412  21.239   8.677  14.282
25988W        W98413  28.615  36.843   2.648
25989W        W98414  41.620  39.931   2.910
25990W        W98415  41.236  22.369   0.495
25991W        W98416  10.221   8.026  11.599
25992W        W98417  17.114  13.974  10.637
25993W        W98418  42.588  11.546   3.036
25994W        W98419  36.027   0.404  12.529
25995W        W98420  15.730  17.129   1.358
25996W        W98421  10.900  32.062   0.885
25997W        W98422  28.690   3.892   4.950
25998W        W98423  23.634  36.012  12.783
25999W        W98424  42.820  18.003   3.879
26000W        W98425  30.619  35.316  12.052
26001W        W98426  12.329   4.445  10.611
26002W        W98427  27.510  15.541  11.703
26003W        W98428  11.423  40.543  11.096
26004W        W98429  41.427  39.841   2.445
26005W        W98430   1.379  32.044  12.505
26006W        W98431  13.549  22.768  14.195
26007W        W98432   3.444   7.341   0.809
26008W        W98433  21.576  38.054   0.125
26009W        W98434  20.037  12.188  12.942
26010W        W98435  40.792  12.334  11.546
26011W        W98436  13.422  17.039   5.012
26012W        W98437   7.528  16.475  11.684
26013W        W98438  34.540  23.709   0.415
26014W        W98439  29.802  23.680   5.052
26015W        W98440   4.502   7.858   2.359
26016W        W98441   5.013   1.312   4.137
26017W        W98442  31.486  42.785   1.946
26018W        W98443  11.181   1.036  11.031
26019W        W98444  25.166  33.092   3.247
26020W        W98445  14.197  24.493  11.930
26021W        W98446  19.332  38.638   2.708
26022W        W98447   6.307  39.615   3.250
26023W        W98448  34.028   8.675   3.004
26024W        W98449  15.258   0.205   0.369
26025W        W98450  14.604   2.980  14.986
26026W        W98451  15.351  40.812  13.054
26027W        W98452  30.239   1.795   4.141
26028W        W98453  44.513  43.859  12.032
26029W        W98454  20.678  40.541  13.938
26030W        W98455   0.579  21.293  12.013
26031W        W98456  28.571  15.681  10.215
26032W        W98457  15.046   4.132  14.897
26033W        W98458  13.761  37.869   1.840
26034W        W98459  20.573   9.488  14.130
26035W        W98460  32.808  34.578  12.131
26036W        W98461  32.437   1.945  14.306
26037W        W98462  15.724  12.665   2.212
26038W        W98463  39.971  44.579   0.473
26039W        W98464  10.402  17.307   3.076
26040W        W98465  12.379   3.452  12.816
26041W        W98466   9.897  13.713   9.881
26042W        W98467   2.751  33.189  10.641
26043W        W98468  11.094  44.714   4.864
26044W        W98469  30.447  10.195  12.470
26045W        W98470  34.558  34.743  11.462
26046W        W98471  40.657  11.321  14.249
26047W        W98472  37.102  20.724   4.226
26048W        W98473   0.097  38.464  12.583
26049W        W98474   5.421  26.157   3.155
26050W        W98475  43.195  43.020   2.946
26051W        W98476  10.344   5.149   0.674
26052W        W98477  27.577   0.439   2.193
26053W        W98478  14.132  21.989   1.111
26054W        W98479  10.337  10.180  12.917
26055W        W98480  26.633  42.290   0.432
26056W        W98481  26.720  43.804  14.415
26057W        W98482  27.668  16.788   3.183
26058W        W98483  17.798  28.402  13.339
26059W        W98484  42.474   3.300   2.726
26060W        W98485  26.067  40.798  13.902
26061W        W98486  20.766  35.041  11.488
26062W        W98487  15.798   3.227  12.525
26063W        W98488  39.894  25.130   2.274
26064W        W98489  25.049  14.893   4.857
26065W        W98490  36.277  37.080   4.226
26066W        W98491   3.997  29.390   4.883
26067W        W98492  29.501   7.362  13.529
26068W        W98493   2.538  16.656   2.408
26069W        W98494   5.873  36.460  10.680
26070W        W98495  13.706  42.732   0.928
26071W        W98496  43.273   8.418   2.278
26072W        W98497  35.325  15.829  13.344
26073W        W98498  20.695  13.877  13.073
26074W        W98499  22.215   9.856   2.316
26075W        W98500  13.247  38.627   3.767
26076W        W98501  26.807  31.529   4.540
26077W        W98502  37.094  32.584  11.494
26078W        W98503  37.850   7.432  13.627
26079W        W98504  28.198  30.612   5.054
26080W        W98505  14.584  10.330  14.307
26081W        W98506  11.871   4.216  10.505
26082W        W98507  36.313  26.017   1.651
26083W        W98508  10.691  14.727   4.890
26084W        W98509   2.942  29.554   1.196
26085W        W98510  27.493   7.581  11.969
26086W        W98511  26.649  35.933   0.950
26087W        W98512  29.955  33.578  10.805
26088W        W98513  23.954   4.812  10.976
26089W        W98514  26.100  30.547  14.844
26090W        W98515  27.304  31.472   4.621
26091W        W98516  38.617  21.686  14.398
26092W        W98517  16.827  26.826  13.012
26093W        W98518  41.469  21.492  14.262
26094W        W98519   4.816  19.782  10.731
26095W        W98520  30.653  41.336   2.237
26096W        W98521  43.025  11.393  13.258
26097W        W98522   4.325  13.096  11.866
26098W        W98523  29.931  40.985  10.103
26099W        W98524  41.838   2.144   0.710
26100W        W98525   7.907   0.741  11.923
26101W        W98526  40.045  42.547   1.791
26102W        W98527  16.873  36.190   3.362
26103W        W98528  21.710  23.750   3.031
26104W        W98529   4.274  14.582   0.455
26105W        W98530  31.432   4.253  11.190
26106W        W98531  36.038  36.624  14.255
26107W        W98532  12.270   0.797   1.349
26108W        W98533  14.818   2.536  14.849
26109W        W98534  32.439  35.981   3.687
26110W        W98535  15.309   8.918   4.237
26111W        W98536   5.324   9.602   2.232
26112W        W98537   9.912  28.575   1.444
26113W        W98538   4.511  43.485   3.700
26114W        W98539  24.498   1.809  12.091
26115W        W98540   8.217  14.085  12.980
26116W        W98541   2.192  35.828  11.605
26117W        W98542  21.558  44.648   3.816
26118W        W98543  43.543  14.597   4.455
26119W        W98544   6.904  39.333   0.649
26120W        W98545  27.149   3.412  11.896
26121W        W98546  34.500  22.218   1.620
26122W        W98547   0.352  20.024  12.368
26123W        W98548  42.281  11.138   2.836
26124W        W98549  20.247  42.514  12.936
26125W        W98550  14.347  24.218   2.717
26126W        W98551  28.784  38.272   5.458
26127W        W98552  28.981  39.517   4.956
26128W        W98553  12.632   1.025  13.571
26129W        W98554  28.932  38.309   0.100
26130W        W98555  22.224  27.122  12.852
26131W        W98556   8.946  42.746  12.383
26132W        W98557  32.922  42.040  11.721
26133W        W98558   6.898  35.584  14.474
26134W        W98559  41.259  32.133   2.722
26135W        W98560  10.648  34.332  11.942
26136W        W98561  20.469  11.372   9.649
26137W        W98562  17.690   5.946  12.455
26138W        W98563  31.787  40.826  12.530
26139W        W98564  31.981  35.482  12.100
26140W        W98565  16.123  19.519   0.036
26141W        W98566  35.083  27.886   1.229
26142W        W98567   5.078   8.197  13.980
26143W        W98568  30.971  27.652  12.817
26144W        W98569  44.975  21.334  13.489
26145W        W98570   2.408  28.425  13.030
26146W        W98571   4.373   9.338  12.270
26147W        W98572  37.642  26.107   3.055
26148W        W98573  40.832   5.495   2.698
26149W        W98574  20.818  11.746   3.156
26150W        W98575  44.235  30.939  11.513
26151W        W98576  28.960  41.814   9.489
26152W        W98577  41.882  25.637  12.558
26153W        W98578  37.079   2.778   3.254
26154W        W98579  30.158  27.191   0.539
26155W        W98580  11.354  23.161  13.978
26156W        W98581   1.223   1.404   1.271
26157W        W98582  29.070  28.706   2.198
26158W        W98583  12.308  39.887  10.600
26159W        W98584  40.293  26.557  11.493
26160W        W98585  37.982  12.757  14.426
26161W        W98586  42.354  11.630   3.984
26162W        W98587  17.604  42.845  14.114
26163W        W98588   7.711   0.828   2.114
26164W        W98589  26.115  39.004   0.433
26165W        W98590  26.138   2.087   3.312
26166W        W98591  44.349  39.308   3.140
26167W        W98592  13.577  26.108  11.127
26168W        W98593  35.341  16.350  13.374
26169W        W98594  12.725  16.207  11.611
26170W        W98595   0.256  31.920   2.786
26171W        W98596  38.476  20.292   2.643
26172W        W98597  21.546  16.548   2.266
26173W        W98598  18.087   4.139  13.881
26174W        W98599  15.932  17.139   3.623
26175W        W98600  36.167  22.483   0.013
26176W        W98601  32.984  25.276   2.307
26177W        W98602  14.938  22.344   1.417
26178W        W98603  25.271  32.501  11.884
26179W        W98604   9.291  34.830  10.084
26180W        W98605  42.936  25.713  14.761
26181W        W98606  15.336  28.396  14.208
26182W        W98607  42.750  37.009   2.201
26183W        W98608   3.864   4.182   3.340
26184W        W98609  41.304  33.638   2.930
26185W        W98610  44.942  15.290  14.890
26186W        W98611  30.468  23.692  10.104
26187W        W98612   6.263  41.027  13.396
26188W        W98613  27.774   0.434   1.670
26189W        W98614  38.840   4.221   4.662
26190W        W98615   5.334  24.518   4.496
26191W        W98616   4.691   6.147  11.685
26192W        W98617  39.403  40.018  12.051
26193W        W98618  20.703  13.157  13.457
26194W        W98619  41.893  12.613   2.914
26195W        W98620  42.836  22.109  11.125
26196W        W98621  20.581  24.324  13.509
26197W        W98622   4.854  28.778   0.502
26198W        W98623  16.056  10.510  13.371
26199W        W98624  37.785  24.235   3.179
26200W        W98625   4.238  40.360   1.483
26201W        W98626  24.312   8.545   1.156
26202W        W98627  19.969  17.520  13.771
26203W        W98628  15.746  20.088   2.287
26204W        W98629  43.745  34.095   4.957
26205W        W98630  32.578   7.243  13.904
26206W        W98631  24.029  12.278   4.571
26207W        W98632  17.049  35.525  13.981
26208W        W98633  14.686  26.579  11.400
26209W        W98634  42.450  43.204   4.586
26210W        W98635  11.853  40.783   4.438
26211W        W98636  41.071  37.397   4.651
26212W        W98637  33.802   8.200   0.754
26213W        W98638   5.366  26.494  12.850
26214W        W98639  28.538  41.583  11.933
26215W        W98640  44.300  17.365   1.760
26216W        W98641   6.385  44.831   1.412
26217W        W98642  38.491  32.823  13.431
26218W        W98643  16.973  29.896   3.516
26219W        W98644  18.771  24.767  11.614
26220W        W98645   1.112  11.747  10.303
26221W        W98646  21.950  28.560  10.613
26222W        W98647  42.510  11.057  12.021
26223W        W98648   1.110  26.188   0.530
26224W        W98649  10.734  31.487   3.664
26225W        W98650  43.953  33.010   1.428
26226W        W98651  37.051  26.346  14.834
26227W        W98652  14.087   3.336  13.275
26228W        W98653  29.811   3.875   4.779
26229W        W98654  16.132   3.173   2.498
26230W        W98655  19.796  19.681  11.971
26231W        W98656   2.944  35.139  11.215
26232W        W98657   6.166   0.873  12.031
26233W        W98658  35.393  34.009  10.482
26234W        W98659  42.528  43.473  12.370
26235W        W98660  17.564   1.005  11.463
26236W        W98661  36.928  11.603   4.519
26237W        W98662   3.124  34.638  11.542
26238W        W98663  36.532  31.077   3.793
26239W        W98664   8.198   8.657  10.692
26240W        W98665  17.224   5.470   0.845
26241W        W98666   5.247  43.365   0.333
26242W        W98667  36.608  23.247   1.828
26243W        W98668  19.191  40.609  13.901
26244W        W98669  35.569  29.603   3.373
26245W        W98670  31.187  36.329   4.845
26246W        W98671  32.456   2.482   4.138
26247W        W98672  18.518  19.260   0.410
26248W        W98673   0.101  22.520  11.243
26249W        W98674  32.655  21.594   0.343
26250W        W98675   0.320  44.709   4.684
26251W        W98676   3.963  25.599  10.506
26252W        W98677  30.361  42.605   1.204
26253W        W98678  14.692  44.918  13.358
26254W        W98679  11.826  32.054  14.436
26255W        W98680  36.130  42.994  13.859
26256W        W98681   9.225  11.877   2.872
26257W        W98682  30.251  44.448   3.452
26258W        W98683  12.655   3.740   1.400
26259W        W98684   4.167   4.262   0.780
26260W        W98685  42.331   1.183  11.913
26261W        W98686  18.309  23.862  13.164
26262W        W98687  20.285  32.972   3.648
26263W        W98688  21.906  21.991   4.769
26264W        W98689  17.219  32.843   4.448
26265W        W98690  21.106   6.375  11.667
26266W        W98691   8.189   6.622  11.353
26267W        W98692  35.010  15.110   0.914
26268W        W98693  17.102  21.993   1.552
26269W        W98694  31.566  37.970  11.572
26270W        W98695  19.746  10.402  11.786
26271W        W98696  28.295  44.870  14.748
26272W        W98697  26.257  15.148   2.946
26273W        W98698  25.695  33.357  14.365
26274W        W98699  31.405  28.473  12.132
26275W        W98700  43.300  26.935   1.804
26276W        W98701  20.332  33.375   1.354
26277W        W98702   9.359  19.981  14.801
26278W        W98703  27.948  12.607  14.879
26279W        W98704  20.839  42.851   0.473
26280W        W98705  22.276  16.658  14.758
26281W        W98706  10.805  44.557   1.843
26282W        W98707  42.058  28.366  12.593
26283W        W98708  10.295  18.509  12.461
26284W        W98709  26.255   9.829   2.169
26285W        W98710  13.559  42.855  12.081
26286W        W98711  32.041   6.446  11.105
26287W        W98712   0.242   1.838   2.620
26288W        W98713  26.514  28.971  13.157
26289W        W98714  24.140  23.718  11.629
26290W        W98715  34.373  16.116   2.378
26291W        W98716  18.906  26.314  13.102
26292W        W98717  41.244   1.326   0.276
26293W        W98718  40.780  40.071  13.510
26294W        W98719   7.657  18.031  11.546
26295W        W98720   6.063  28.561   2.837
26296W        W98721  10.313  29.552  14.467
26297W        W98722   2.458   5.689   1.472
26298W        W98723  31.532  17.638   1.718
26299W        W98724  22.340  27.082   2.263
26300W        W98725  25.517  34.029   3.772
26301W        W98726  30.044  29.964   0.433
26302W        W98727  31.824  11.267   2.132
26303W        W98728  33.514  22.909   3.187
26304W        W98729  15.211  33.900   2.023
26305W        W98730  30.996  25.494  11.599
26306W        W98731  40.637  29.473   3.775
26307W        W98732   0.363   4.751   0.516
26308W        W98733  26.936   0.986   0.963
26309W        W98734  41.970  28.529   2.254
26310W        W98735   8.708  13.537   4.562
26311W        W98736  31.555  40.876   3.226
26312W        W98737  18.383  37.321   3.339
26313W        W98738  10.362   1.787   0.857
26314W        W98739  28.642   5.718  11.627
26315W        W98740  43.989  42.061   0.468
26316W        W98741  20.742  19.579  14.371
26317W        W98742   8.777   8.210   2.756
26318W        W98743  14.217   8.601   0.206
26319W        W98744   7.795  15.152  10.995
26320W        W98745  31.603   7.348   4.708
26321W        W98746  26.945  37.850  13.855
26322W        W98747  39.990  43.826   0.758
26323W        W98748  44.015  20.540  13.161
26324W        W98749  35.930  25.982  11.627
26325W        W98750  41.778  16.638  12.887
26326W        W98751   1.439  40.406   0.025
26327W        W98752  27.214  33.313   1.974
26328W        W98753  28.534  29.213   2.909
26329W        W98754  40.575  38.994  10.721
26330W        W98755  35.495  19.605  10.625
26331W        W98756  20.835   0.210   3.609
26332W        W98757  20.480  17.791   1.340
26333W        W98758  24.271  12.720  13.873
26334W        W98759  27.092  36.886  11.064
26335W        W98760  29.049  11.392  11.169
26336W        W98761  24.947  17.007   3.301
26337W        W98762  34.285  15.937   0.994
26338W        W98763  38.513   3.647  11.326
26339W        W98764   2.424   4.183  13.666
26340W        W98765  27.078  31.709   0.783
26341W        W98766  16.756  39.315   1.355
26342W        W98767  42.548  43.668  10.664
26343W        W98768  11.251  15.044  13.473
26344W        W98769  43.816  32.720   3.186
26345W        W98770  37.906  44.193   4.108
26346W        W98771  41.467  40.841   1.256
26347W        W98772  31.565  22.491  13.414
26348W        W98773  37.630   9.232   4.296
26349W        W98774  17.111   9.764  11.855
26350W        W98775  20.544  41.359  12.464
26351W        W98776   6.097  22.929   3.569
26352W        W98777  41.349  43.335  12.277
26353W        W98778  24.071   6.103  13.010
26354W        W98779  23.652  38.898   4.798
26355W        W98780   5.371   4.110   2.938
26356W        W98781  23.635  43.089  12.516
26357W        W98782  41.445  37.690  12.026
26358W        W98783  17.056   0.464  12.011
26359W        W98784  12.676  32.207  12.815
26360W        W98785  41.029  31.372   3.712
26361W        W98786   6.804   4.806   0.196
26362W        W98787   9.805  43.932  12.292
26363W        W98788   3.560  37.659  11.083
26364W        W98789   3.004  40.262   3.717
26365W        W98790   4.855  30.968   0.575
26366W        W98791   8.028   3.009  12.488
26367W        W98792  43.711  14.055  14.323
26368W        W98793  41.998  10.364   4.028
26369W        W98794  10.474  40.374  14.779
26370W        W98795   7.720  34.712  12.887
26371W        W98796  42.812  35.620   4.186
26372W        W98797  22.669  21.969   3.813
26373W        W98798   6.711  11.908  10.993
26374W        W98799   8.145  38.774   3.216
26375W        W98800  29.661   4.235   2.157
26376W        W98801  38.467   5.150   1.886
26377W        W98802  26.603   9.700  13.401
26378W        W98803  31.848  37.475  11.677
26379W        W98804  28.993   1.801  12.845
26380W        W98805   6.359  42.916   2.348
26381W        W98806  12.408   0.825  10.402
26382W        W98807  42.115  37.338  12.993
26383W        W98808  15.598  17.078   2.304
26384W        W98809  11.899  19.079   0.862
26385W        W98810  17.330  31.075  11.229
26386W        W98811   8.101  43.414   4.086
26387W        W98812  33.013  26.398  13.207
26388W        W98813  24.876   9.646   4.690
26389W        W98814  19.457  39.585  14.461
26390W        W98815  20.510  41.015   4.922
26391W        W98816  18.309  13.241   1.159
26392W        W98817  12.073   1.476   9.785
26393W        W98818  22.540   1.403   0.124
26394W        W98819   6.715  26.405   3.652
26395W        W98820  44.596  24.823   3.690
26396W        W98821  25.156  43.622   0.219
26397W        W98822   1.304   4.417   0.760
26398W        W98823   2.227  23.075  12.133
26399W        W98824  14.625  40.747   1.697
26400W        W98825  19.295  23.040  13.434
26401W        W98826  16.697  15.897   4.052
26402W        W98827  32.208  16.720   4.118
26403W        W98828   3.536  35.347   0.018
26404W        W98829  33.469  39.936   0.192
26405W        W98830  34.101  17.664  12.481
26406W        W98831  26.428   7.095   3.946
26407W        W98832  12.467  24.227   3.134
26408W        W98833   9.015  44.234  11.590
26409W        W98834  25.676  34.108   4.374
26410W        W98835  31.502  15.709  13.336
26411W        W98836   6.386  11.237  14.532
26412W        W98837  22.067   5.813  13.963
26413W        W98838  20.116  25.125  11.047
26414W        W98839   2.076  15.993   1.388
26415W        W98840  13.254   4.428   3.059
26416W        W98841  36.405  41.120   2.211
26417W        W98842  37.323  10.264   1.173
26418W        W98843   7.411  10.277   2.681
26419W        W98844  36.067  26.942  14.547
26420W        W98845  11.208  26.104  10.708
26421W        W98846  39.213  22.386  10.286
26422W        W98847  16.024  11.626  14.769
26423W        W98848  27.439  23.059   0.410
26424W        W98849  26.145  18.270  14.420
26425W        W98850   7.108  35.977  12.666
26426W        W98851  25.502  20.126   0.429
26427W        W98852   9.159  12.632  14.449
26428W        W98853   2.157  22.470  13.885
26429W        W98854   9.030  29.296   0.764
26430W        W98855  27.120   1.739  11.583
26431W        W98856  16.794  22.628   4.244
26432W        W98857   2.913  34.627   1.073
26433W        W98858  10.204  11.013   1.393
26434W        W98859   2.847  43.322   3.609
26435W        W98860   6.797  37.273  12.098
26436W        W98861  30.214  14.586   2.897
26437W        W98862  27.710  37.931  12.857
26438W        W98863  14.859  29.697  14.001
26439W        W98864  19.554  19.294   0.386
26440W        W98865  31.001  25.814  13.013
26441W        W98866  28.407   4.431   3.614
26442W        W98867  23.954  17.195   2.103
26443W        W98868   2.332  11.353   0.959
26444W        W98869  29.898  29.593  12.446
26445W        W98870  23.462  43.884   0.272
26446W        W98871   8.809  32.626   3.157
26447W        W98872  23.628  22.308  13.381
26448W        W98873   6.957  27.059   3.129
26449W        W98874  26.407  29.868   1.864
26450W        W98875  27.260  18.697   3.319
26451W        W98876  28.549  18.321  14.943
26452W        W98877   5.005  32.367  14.272
26453W        W98878  41.613   5.664  12.178
26454W        W98879  27.460  18.072  12.451
26455W        W98880  35.105  40.795   0.342
26456W        W98881  29.071  20.621   5.645
26457W        W98882  17.363  21.157   1.960
26458W        W98883   7.760  28.903   3.326
26459W        W98884  14.577   5.852  12.485
26460W        W98885  14.253  21.993   3.220
26461W        W98886   4.893  11.563   1.346
26462W        W98887  27.928  32.939   0.334
26463W        W98888  12.331  44.137   0.790
26464W        W98889  13.846   7.729  12.354
26465W        W98890   1.900  34.048  13.863
26466W        W98891  30.544  14.835   0.402
26467W        W98892  29.626  24.721   2.316
26468W        W98893   4.566  44.441  12.414
26469W        W98894   5.718  24.300   2.503
26470W        W98895  17.180  15.737  12.932
26471W        W98896  38.941  40.760   2.712
26472W        W98897   8.687   7.192  13.837
26473W        W98898  30.969   5.933  13.979
26474W        W98899  31.545  32.114  13.439
26475W        W98900  14.276  17.489   1.206
26476W        W98901  40.530  12.670  13.925
26477W        W98902  44.488  43.062   3.707
26478W        W98903  18.875  30.703  14.847
26479W        W98904   4.647  44.886   3.812
26480W        W98905  43.477   4.203   4.675
26481W        W98906   7.288  15.266  10.765
26482W        W98907  37.532  12.930   4.141
26483W        W98908  13.615   5.287   3.309
26484W        W98909  16.883  36.643  12.031
26485W        W98910  32.028   7.052  13.907
26486W        W98911  21.753  19.085   4.140
26487W        W98912  17.289  23.282  10.658
26488W        W98913   7.243   8.687   2.623
26489W        W98914   9.230  38.939  11.665
26490W        W98915   6.537  11.056   4.667
26491W        W98916  22.986  24.224   0.373
26492W        W98917  44.038   2.857  13.458
26493W        W98918  32.415  27.603   4.563
26494W        W98919   3.373  26.663   4.178
26495W        W98920  29.875  21.660   5.900
26496W        W98921  43.394  12.082   3.343
26497W        W98922  20.085  35.371   3.233
26498W        W98923  37.048   7.025  11.464
26499W        W98924   5.161  15.403   4.093
26500W        W98925  31.593  30.481   0.962
26501W        W98926  43.467  18.994   3.173
26502W        W98927  22.786   3.383   1.201
26503W        W98928  27.657  31.501   3.467
26504W        W98929   4.266  15.722   4.845
26505W        W98930  37.287  20.530   2.269
26506W        W98931  21.679  36.879  14.479
26507W        W98932  30.267  29.998   4.701
26508W        W98933  19.643  39.072   2.767
26509W        W98934  28.097   3.637  12.946
26510W        W98935  40.039  40.845   4.048
26511W        W98936   6.761  31.446   3.282
26512W        W98937  26.182  42.492   4.649
26513W        W98938  15.229  19.586  11.704
26514W        W98939   0.365  13.046  14.781
26515W        W98940   4.448  44.405  10.947
26516W        W98941  44.358   7.540  13.801
26517W        W98942  14.146   1.404  11.100
26518W        W98943  24.904  21.917   1.262
26519W        W98944  33.548  21.013  14.569
26520W        W98945  25.716   0.478  12.403
26521W        W98946  38.552  25.714  11.654
26522W        W98947  27.720  24.964   4.739
26523W        W98948  42.968  25.455   2.302
26524W        W98949  38.974   3.339  11.635
26525W        W98950  15.360   5.219   1.386
26526W        W98951  20.458  21.381   3.625
26527W        W98952  32.527  34.808  13.896
26528W        W98953  38.340  12.659  11.661
26529W        W98954  38.947  27.637   1.847
26530W        W98955  15.426  23.791  13.046
26531W        W98956  24.576  40.254  11.975
26532W        W98957  36.577   2.660  12.337
26533W        W98958  18.764  44.887  11.855
26534W        W98959  43.072  40.110   1.734
26535W        W98960  10.284  13.577  10.590
26536W        W98961   5.917  22.694  13.483
26537W        W98962  27.709  24.969  14.845
26538W        W98963  13.145  18.603   0.901
26539W        W98964  13.296  44.621   1.756
26540W        W98965  23.472   1.348  12.184
26541W        W98966  26.254  31.005  11.058
26542W        W98967  17.629  17.042  13.796
26543W        W98968  42.163  44.504  13.898
26544W        W98969  22.424  17.738  14.475
26545W        W98970  34.697   9.316   2.125
26546W        W98971  40.426  35.769   0.350
26547W        W98972  21.026  11.249   4.661
26548W        W98973   2.362  37.019  12.895
26549W        W98974  29.592  11.363  13.002
26550W        W98975  28.613  23.686  12.861
26551W        W98976  22.141  37.639   4.554
26552W        W98977   4.920  16.987  12.797
26553W        W98978  41.107  44.094  12.662
26554W        W98979  17.003  32.897   1.372
26555W        W98980  10.654  37.555  13.037
26556W        W98981  34.188  38.794  12.131
26557W        W98982  39.946  15.987  14.728
26558W        W98983  22.002  20.559  10.658
26559W        W98984  41.524  29.613   4.080
26560W        W98985  36.167  28.576  14.800
26561W        W98986   7.825  10.146  13.399
26562W        W98987  13.678  27.946   1.217
26563W        W98988  27.473   4.879   0.950
26564W        W98989  27.269  18.635   0.810
26565W        W98990  20.724  23.879   2.924
26566W        W98991  14.785  22.129   3.250
26567W        W98992   8.285   3.904  12.602
26568W        W98993  39.355   1.928   4.733
26569W        W98994  37.884  41.423   1.109
26570W        W98995  37.814   8.878  13.789
26571W        W98996  14.936  12.055   4.787
26572W        W98997  28.437  13.565   4.853
26573W        W98998  11.725  11.256  11.265
26574W        W98999  25.461  27.546   3.952
26575W        W99000  38.897   2.403   2.324
26576W        W99001   2.467  39.454   3.836
26577W        W99002  32.067  40.113   4.951
26578W        W99003  37.566  39.912   0.017
26579W        W99004  11.890  40.519  14.803
26580W        W99005  27.451  23.469  11.586
26581W        W99006  18.648  14.250  10.616
26582W        W99007   4.268   3.726   1.844
26583W        W99008  28.634   3.996  10.712
26584W        W99009  36.784   0.552  11.983
26585W        W99010   1.537  20.449  10.612
26586W        W99011   4.463  19.107   3.696
26587W        W99012   3.257  18.614   4.964
26588W        W99013  17.753  42.298  14.828
26589W        W99014  44.884   3.799  11.934
26590W        W99015  33.085  41.952  13.856
26591W        W99016  26.572  16.147  14.040
26592W        W99017  41.561   2.866   2.744
26593W        W99018  23.926  25.759  11.602
26594W        W99019  14.004  41.260   4.221
26595W        W99020  13.149   1.691  11.117
26596W        W99021  18.291  14.293  11.176
26597W        W99022  16.540  15.789  13.990
26598W        W99023  16.322   9.096   1.438
26599W        W99024  33.651  32.640   0.068
26600W        W99025   9.001  21.046  11.642
26601W        W99026  38.026  32.555  11.941
26602W        W99027  18.121  22.533  13.434
26603W        W99028  18.770   8.356   2.894
26604W        W99029  31.999  43.637   0.967
26605W        W99030  18.488  19.288   4.543
26606W        W99031  43.944  16.186   4.684
26607W        W99032  29.762  40.594   5.086
26608W        W99033  42.050  25.735   1.974
26609W        W99034  36.616  33.442  12.143
26610W        W99035  23.247   6.280   1.743
26611W        W99036  31.180   0.492  10.361
26612W        W99037   5.980  25.097   4.246
26613W        W99038  22.407  44.876   3.687
26614W        W99039  27.332  19.701  13.282
26615W        W99040  28.235  14.495  14.350
26616W        W99041  27.145  42.989   0.272
26617W        W99042   5.878  25.052   3.127
26618W        W99043  31.453  25.082   2.286
26619W        W99044   5.967  25.239  11.677
26620W        W99045   1.290   4.824  12.204
26621W        W99046  44.813  34.097   2.316
26622W        W99047  12.269  13.737  14.475
26623W        W99048  13.315  23.345   0.764
26624W        W99049  31.118  41.061   5.022
26625W        W99050  24.139   8.626  14.518
26626W        W99051  18.527  23.189   3.323
26627W        W99052  11.292  26.724  13.347
26628W        W99053  35.785  43.938   2.793
26629W        W99054  26.015  16.308  14.802
26630W        W99055  21.025  28.020  11.148
26631W        W99056   2.149   4.002   4.156
26632W        W99057  27.600   1.978  11.596
26633W        W99058  30.672  27.179   0.450
26634W        W99059  13.674  21.679  12.623
26635W        W99060  10.889  41.256  14.993
26636W        W99061  26.592  22.692   0.291
26637W        W99062  29.435   0.257   2.335
26638W        W99063  21.698  43.803   2.367
26639W        W99064  12.138   9.803  11.025
26640W        W99065  36.449   1.810   5.016
26641W        W99066  41.561  19.695  13.956
26642W        W99067  17.090   9.774   2.848
26643W        W99068  39.939   4.197   1.074
26644W        W99069  37.981  42.419   4.246
26645W        W99070   6.745  23.118   4.592
26646W        W99071   6.672  13.595  13.562
26647W        W99072  31.115  18.157   4.825
26648W        W99073   6.183  11.194  12.842
26649W        W99074  34.429  22.582  14.256
26650W        W99075   4.793   5.518   1.153
26651W        W99076  40.854  38.434   3.484
26652W        W99077  22.315  27.439   1.778
26653W        W99078  21.541  22.035  14.936
26654W        W99079  15.460   6.729  12.530
26655W        W99080  31.101  31.878  13.561
26656W        W99081   0.899  23.952  12.022
26657W        W99082  28.621   3.486  12.272
26658W        W99083  40.040  43.044   0.301
26659W        W99084  28.165  15.757   4.117
26660W        W99085  10.257  26.643   5.063
26661W        W99086  19.347   7.033  13.891
26662W        W99087  44.498  16.974   5.014
26663W        W99088   3.420   8.912  14.941
26664W        W99089  44.424  40.499  12.083
26665W        W99090  31.276  30.040  12.120
26666W        W99091  36.509  23.944   1.261
26667W        W99092   8.039  23.169   0.786
26668W        W99093  34.709  14.330   1.652
26669W        W99094  30.210  14.729  13.588
26670W        W99095  39.036  25.081   4.537
26671W        W99096   5.765   9.333   0.314
26672W        W99097   5.434  31.569  13.456
26673W        W99098  10.163  28.090  14.849
26674W        W99099  25.275  22.581   3.282
26675W        W99100   5.914  34.699   1.491
26676W        W99101  38.837  32.404   1.925
26677W        W99102  40.457  20.539   0.290
26678W        W99103  17.183  37.395  12.500
26679W        W99104  15.441   3.011   4.965
26680W        W99105  19.722  41.312  14.485
26681W        W99106   8.652  32.321   4.974
26682W        W99107  38.139  10.091  11.989
26683W        W99108   7.183   9.194   4.128
26684W        W99109   0.699  39.980  14.001
26685W        W99110   1.679  29.035  11.911
26686W        W99111  19.682  34.571   0.465
26687W        W99112  12.097  33.128  12.431
26688W        W99113  15.085  23.449  11.049
26689W        W99114  21.975  20.723  13.368
26690W        W99115  27.463   7.419   2.175
26691W        W99116  40.328  37.008   2.253
26692W        W99117  30.445  26.483  14.484
26693W        W99118   0.415  40.757  12.494
26694W        W99119  41.702   2.289   4.365
26695W        W99120   6.851   3.465  14.823
26696W        W99121  27.220  24.024   3.211
26697W        W99122  28.854  20.920  10.226
26698W        W99123   8.633  10.097   1.671
26699W        W99124  42.768  34.848   1.726
26700W        W99125  40.422  12.840  12.075
26701W        W99126  15.282  42.820   1.332
26702W        W99127   6.471  18.854  13.167
26703W        W99128  33.678  18.103   4.475
26704W        W99129  28.201   7.745  13.489
26705W        W99130  41.567  17.237  11.787
26706W        W99131   2.001  11.409  13.919
26707W        W99132  38.158   4.945   3.559
26708W        W99133  11.795  43.181  11.912
26709W        W99134  25.472  12.704  14.480
26710W        W99135  10.040  28.056   0.793
26711W        W99136  10.962   7.748  13.838
26712W        W99137  27.197  29.160   3.214
26713W        W99138   4.433  31.777   1.691
26714W        W99139  18.983  32.446   3.704
26715W        W99140  32.348  35.361   4.124
26716W        W99141  37.484  27.215  11.457
26717W        W99142  41.482  23.062   4.311
26718W        W99143  17.923  11.507   4.442
26719W        W99144  42.869  32.076   4.116
26720W        W99145   1.916  29.951  11.972
26721W        W99146  16.685  32.854   4.144
26722W        W99147  17.588   4.343   1.500
26723W        W99148   3.311  32.150   4.477
26724W        W99149   4.875  13.463  13.811
26725W        W99150  15.017  44.910  13.792
26726W        W99151  34.869  26.993   2.743
26727W        W99152  34.527  30.200   4.147
26728W        W99153  42.810  22.173  14.271
26729W        W99154  22.762  44.473  12.969
26730W        W99155  34.237  22.232  12.414
26731W        W99156  17.775  39.981   1.806
26732W        W99157  22.520   3.748   3.676
26733W        W99158  26.624  18.164   2.858
26734W        W99159  30.686  43.409  12.022
26735W        W99160  28.182  10.189   3.126
26736W        W99161   8.139  31.255   2.210
26737W        W99162  44.818  43.461   4.123
26738W        W99163  32.784   3.394   0.026
26739W        W99164  21.327   3.896  10.622
26740W        W99165  16.067  11.297   2.043
26741W        W99166  38.421   9.348   4.951
26742W        W99167  11.131  25.107  13.380
26743W        W99168  31.647  30.996   0.890
26744W        W99169  27.919   8.413  12.912
26745W        W99170   6.167  21.459  11.194
26746W        W99171  23.425   7.368  13.234
26747W        W99172  13.299  28.380  14.765
26748W        W99173  27.600  41.700  11.844
26749W        W99174  11.207  35.700   4.802
26750W        W99175   2.288  13.653  10.516
26751W        W99176  19.762   1.303   0.728
26752W        W99177  44.979  17.523   3.756
26753W        W99178  27.114  26.672   0.479
26754W        W99179  40.006  31.881   4.331
26755W        W99180  25.636  12.617  10.603
26756W        W99181  12.318   4.885  12.103
26757W        W99182  37.324  25.299  11.542
26758W        W99183  21.633  37.375   4.379
26759W        W99184  17.495   3.285  11.709
26760W        W99185  19.844   2.062  11.180
26761W        W99186  44.324  17.729  10.658
26762W        W99187  31.412  33.119   4.804
26763W        W99188  23.172  15.646   4.864
26764W        W99189  32.617  32.481  10.652
26765W        W99190  23.187   1.671  14.446
26766W        W99191  34.950  31.904  14.297
26767W        W99192  28.667  32.979   1.784
26768W        W99193  13.870  13.363   3.578
26769W        W99194  10.106  24.994  13.503
26770W        W99195   6.656  19.051   1.908
26771W        W99196   0.195  26.099   0.188
26772W        W99197  13.379  21.000  11.810
26773W        W99198  18.426   0.947  11.224
26774W        W99199  37.952  39.626   1.752
26775W        W99200  23.587  35.710   4.112
26776W        W99201  13.834  26.943   1.942
26777W        W99202  35.172   9.271   1.232
26778W        W99203   4.835  25.152  14.026
26779W        W99204  28.416   1.441   3.835
26780W        W99205  41.286  28.765   0.195
26781W        W99206  24.535  28.214  12.048
26782W        W99207   1.237  26.422   2.655
26783W        W99208  44.329  20.640  11.041
26784W        W99209  30.648  10.437   4.144
26785W        W99210  38.268  12.343  14.428
26786W        W99211  25.198  37.581  12.010
26787W        W99212  39.335  10.806   3.271
26788W        W99213  16.911  22.085  12.334
26789W        W99214   5.255  20.569  12.806
26790W        W99215  12.448   4.393   3.568
26791W        W99216  14.164  36.169  11.965
26792W        W99217  22.585   0.972   0.376
26793W        W99218   4.117  20.053  11.507
26794W        W99219   0.276  17.499   2.719
26795W        W99220  26.372   4.817  12.617
26796W        W99221  32.156  30.465   2.171
26797W        W99222   0.233  35.958   4.772
26798W        W99223  21.659  38.648  12.946
26799W        W99224  25.591  31.614   1.270
26800W        W99225   0.917   8.907  12.986
26801W        W99226  39.778  15.639   2.651
26802W        W99227  30.391  41.463  13.331
26803W        W99228  13.946  15.413   2.116
26804W        W99229  14.239  31.367  13.357
26805W        W99230  14.639  35.360   4.694
26806W        W99231  17.113  26.536   2.217
26807W        W99232  39.322  11.879   3.260
26808W        W99233  35.020  18.545  13.873
26809W        W99234  39.159  43.141  13.757
26810W        W99235   4.659  15.449   5.113
26811W        W99236   0.851   0.517  12.989
26812W        W99237  42.011  17.692  12.651
26813W        W99238  40.992  15.349  13.829
26814W        W99239  31.672  40.596   0.353
26815W        W99240   0.987   5.167  14.884
26816W        W99241  37.515   6.191  10.569
26817W        W99242  10.114  21.016   3.834
26818W        W99243  26.142  18.762   3.757
26819W        W99244   8.238  13.117   2.154
26820W        W99245  42.787  10.881  11.563
26821W        W99246  39.336  35.034  10.694
26822W        W99247   0.020   1.001   3.838
26823W        W99248  29.635  40.839   3.261
26824W        W99249   7.287  21.161  14.969
26825W        W99250  37.036  41.322   3.340
26826W        W99251  44.316   2.444  12.429
26827W        W99252  42.893   5.360  11.706
26828W        W99253  27.503  25.005  12.530
26829W        W99254  32.556  29.484  10.236
26830W        W99255  39.232  34.018  11.938
26831W        W99256  15.174  32.166   1.340
26832W        W99257   1.988  39.398  10.647
26833W        W99258  38.769  34.390   4.513
26834W        W99259  14.201  24.251   5.185
26835W        W99260  14.870   3.411   3.296
26836W        W99261  30.813  31.550   4.159
26837W        W99262  16.577  41.007  12.349
26838W        W99263  14.569  22.010   3.717
26839W        W99264  19.227  11.656  13.833
26840W        W99265  30.489  39.308   3.050
26841W        W99266   4.484  24.593  10.811
26842W        W99267  22.825  42.326  14.873
26843W        W99268  18.141   8.152  11.678
26844W        W99269   6.784  33.877  12.522
26845W        W99270  40.795  31.582  13.847
26846W        W99271  13.958   8.441  11.979
26847W        W99272   4.369   8.730   2.144
26848W        W99273  25.028  14.385  12.411
26849W        W99274  18.008  43.060   2.372
26850W        W99275  13.439  21.614  12.153
26851W        W99276  27.828  15.127   2.041
26852W        W99277   2.109  33.417  14.481
26853W        W99278  16.710   7.726  10.634
26854W        W99279  19.205  25.410  14.777
26855W        W99280  22.706  31.359  11.610
26856W        W99281   2.473  21.840  11.631
26857W        W99282  35.947  15.673   1.682
26858W        W99283   3.012  30.483   0.396
26859W        W99284  22.887  18.641   4.354
26860W        W99285  37.672  13.098  14.221
26861W        W99286  29.077   1.537  13.900
26862W        W99287   0.306  19.766  14.446
26863W        W99288  20.697   7.723  14.959
26864W        W99289  24.663   4.812  12.848
26865W        W99290  41.926  28.189  11.652
26866W        W99291  43.785  24.949  11.993
26867W        W99292   6.258  24.679   4.413
26868W        W99293  14.832  19.651  12.065
26869W        W99294  28.197   4.260  12.373
26870W        W99295  17.397  28.087  14.039
26871W        W99296   7.032  10.733   3.275
26872W        W99297  14.145  16.222  14.999
26873W        W99298  12.646   2.880   4.538
26874W        W99299   0.707  30.478  12.924
26875W        W99300  17.695  18.780   3.433
26876W        W99301  38.416   2.916  14.022
26877W        W99302  31.901  26.502   0.261
26878W        W99303  33.208  14.109   1.798
26879W        W99304  16.798  37.940   3.814
26880W        W99305  32.677   6.277   2.055
26881W        W99306  13.128  36.977  14.040
26882W        W99307  41.687  20.100   4.979
26883W        W99308  43.069  11.784  12.460
26884W        W99309  30.157   5.249   0.986
26885W        W99310   1.886   8.468   1.737
26886W        W99311   0.916   8.890  11.193
26887W        W99312   5.146  22.626  12.611
26888W        W99313   2.025  36.547  13.556
26889W        W99314   4.903  18.467  13.426
26890W        W99315  25.710   6.724   0.228
26891W        W99316   4.948  40.223  11.496
26892W        W99317  23.413   8.189  14.883
26893W        W99318  31.068   5.527  11.160
26894W        W99319  35.439   0.500   3.384
26895W        W99320  33.892  31.402  11.401
26896W        W99321  43.961  41.413   4.457
26897W        W99322   8.620  41.907  11.170
26898W        W99323   2.700  10.270   1.800
26899W        W99324   6.836  38.901   0.927
26900W        W99325  25.642   7.475  14.482
26901W        W99326  12.648  35.918   0.912
26902W        W99327   2.364  44.449   4.524
26903W        W99328  44.999  33.015   1.260
26904W        W99329   0.881   3.146  14.992
26905W        W99330   6.400  41.312  12.938
26906W        W99331  23.591   3.080  14.249
26907W        W99332  16.588  29.015   2.162
26908W        W99333   9.330  42.418  11.632
26909W        W99334  15.139  15.511  12.894
26910W        W99335  18.210  26.115   2.544
26911W        W99336  33.925   2.889  10.332
26912W        W99337  21.539  14.801   2.085
26913W        W99338  11.741  22.617   3.611
26914W        W99339  22.491   2.270   1.699
26915W        W99340  37.592   0.749   2.593
26916W        W99341  11.894  23.024  12.415
26917W        W99342  29.687  22.035  14.823
26918W        W99343  27.750   6.668   4.680
26919W        W99344  19.153   9.777  14.725
26920W        W99345  42.114  15.537   3.255
26921W        W99346  26.599  17.649  10.967
26922W        W99347  21.276  44.289   1.769
26923W        W99348  43.948  40.204  11.388
26924W        W99349   6.058  13.709   2.655
26925W        W99350  41.556  22.175  11.882
26926W        W99351  31.114  16.137   0.323
26927W        W99352   1.454   8.304  11.551
26928W        W99353  17.072  39.599  12.950
26929W        W99354   6.686  22.731  11.765
26930W        W99355  13.490   2.894   0.323
26931W        W99356   3.817  17.565   4.146
26932W        W99357   2.966  43.174   2.700
26933W        W99358  30.044  12.196  11.281
26934W        W99359  32.961  21.749  12.994
26935W        W99360  23.546  14.940  11.614
26936W        W99361   5.283  34.115  13.345
26937W        W99362  19.655  30.693   0.780
26938W        W99363  13.566   8.723  13.150
26939W        W99364  40.826  36.249  11.216
26940W        W99365  16.316  26.300   0.337
26941W        W99366  36.970  21.141  10.659
26942W        W99367  38.738  40.379  10.191
26943W        W99368  12.100  38.391  12.983
26944W        W99369  44.472  43.858   2.604
26945W        W99370  16.177   4.114  14.882
26946W        W99371  31.895  16.728   0.674
26947W        W99372  38.793   9.389  13.000
26948W        W99373  14.700  17.512  11.217
26949W        W99374  16.707  18.388   1.954
26950W        W99375  37.470  34.924  10.894
26951W        W99376  27.754  41.009   4.979
26952W        W99377  22.006  38.062   3.328
26953W        W99378  39.289  21.352   4.673
26954W        W99379  12.906  28.900  13.930
26955W        W99380  11.206  22.776  14.316
26956W        W99381  10.277  41.525   3.275
26957W        W99382  16.397   4.822   1.656
26958W        W99383  29.442  28.045  10.102
26959W        W99384  14.978  27.477   4.314
26960W        W99385  15.765   8.385   0.307
26961W        W99386  30.396  35.454   3.759
26962W        W99387  44.362  14.186   1.727
26963W        W99388  12.663  21.756  13.901
26964W        W99389  35.607  32.033   2.650
26965W        W99390   0.840  40.471   2.706
26966W        W99391  37.629  38.012  11.983
26967W        W99392   5.796  28.465  12.829
26968W        W99393   8.806  11.823  13.320
26969W        W99394   3.527   1.336  12.862
26970W        W99395   3.725   0.249   2.312
26971W        W99396  21.453   7.834  13.394
26972W        W99397  38.250  25.426  13.478
26973W        W99398  12.076  44.846   2.378
26974W        W99399   8.924  26.669   0.202
26975W        W99400  17.735   6.928  13.431
26976W        W99401  17.518  25.882  13.316
26977W        W99402  18.136  31.386   4.118
26978W        W99403  25.469  27.686  11.527
26979W        W99404  35.356   4.156   2.523
26980W        W99405  33.048  16.479  10.738
26981W        W99406   4.785  35.560   0.340
26982W        W99407  14.603   6.219  11.633
26983W        W99408  12.154  38.042  10.741
26984W        W99409  32.961   5.319   0.323
26985W        W99410  21.193   3.495   1.751
26986W        W99411  21.564  44.791   2.133
26987W        W99412  42.603   8.785  12.001
26988W        W99413  18.880  11.436   4.064
26989W        W99414   6.871  12.133   1.349
26990W        W99415  18.617  29.125  10.925
26991W        W99416  28.611  41.948   1.183
26992W        W99417  16.740  15.775  10.663
26993W        W99418   5.278  21.597  14.780
26994W        W99419  12.793  19.279   4.714
26995W        W99420  40.619  24.147  13.786
26996W        W99421  30.683  35.103  12.691
26997W        W99422  28.144  10.300  12.002
26998W        W99423  37.682  13.395  13.437
26999W        W99424  18.207  16.124   1.642
27000W        W99425  10.076   0.550   2.299
27001W        W99426  15.430  22.479  14.962
27002W        W99427  43.427   7.479   0.317
27003W        W99428   5.789  34.261   2.799
27004W        W99429  12.106  22.696   1.713
27005W        W99430  26.722  13.776  11.630
27006W        W99431  32.957   5.083  13.047
27007W        W99432  13.107   3.482   1.411
27008W        W99433  27.241  19.618   3.981
27009W        W99434  29.268  44.710   3.226
27010W        W99435  26.066  14.364   0.794
27011W        W99436  16.611  16.374  11.609
27012W        W99437  10.666  18.055  13.555
27013W        W99438  31.888  15.230   0.334
27014W        W99439  12.868  25.197  10.421
27015W        W99440  39.057  27.967  11.153
27016W        W99441  13.932  42.848   4.069
27017W        W99442  16.396   1.928  14.310
27018W        W99443  17.119   7.411  11.482
27019W        W99444  30.413   3.069   2.347
27020W        W99445  36.405   9.688  11.283
27021W        W99446   9.987  22.594   4.438
27022W        W99447   3.887  39.461   1.421
27023W        W99448  28.029  39.388   1.416
27024W        W99449   3.452  22.727   4.042
27025W        W99450  26.532   6.480   1.192
27026W        W99451  38.035  42.017   2.393
27027W        W99452  40.029   5.402   1.311
27028W        W99453   4.425  16.029   3.843
27029W        W99454  24.609  31.479   3.569
27030W        W99455  31.460  25.555  10.428
27031W        W99456  39.054  28.906  10.992
27032W        W99457   9.079  29.114   4.950
27033W        W99458  37.766  33.144  12.450
27034W        W99459  44.487  28.747   2.323
27035W        W99460  12.413  23.069  12.513
27036W        W99461  27.915  41.432   3.291
27037W        W99462   1.965  11.335   3.696
27038W        W99463  26.914   0.646   1.790
27039W        W99464  42.859  41.550  11.151
27040W        W99465  19.950  40.958   4.862
27041W        W99466  44.831  11.645  11.419
27042W        W99467  15.685  37.561   0.117
27043W        W99468  39.596  43.835  12.330
27044W        W99469  23.078  20.685  13.066
27045W        W99470  41.270  44.920   1.449
27046W        W99471  14.041  39.343   0.704
27047W        W99472  42.445  26.620   0.724
27048W        W99473  25.495  14.221  11.569
27049W        W99474  10.166   0.283   0.955
27050W        W99475  32.008  40.117  12.054
27051W        W99476  13.347  40.495   3.741
27052W        W99477   0.351  17.797  13.840
27053W        W99478   6.897   9.828  13.882
27054W        W99479  44.448  22.474   5.149
27055W        W99480  14.531   3.979  12.126
27056W        W99481  27.924   1.751  13.886
27057W        W99482  29.523  19.416   2.587
27058W        W99483  20.192   8.770   0.683
27059W        W99484  40.931  23.124  13.884
27060W        W99485  14.730  25.461   1.136
27061W        W99486  40.730  29.617  11.805
27062W        W99487   8.650   6.714   0.048
27063W        W99488  23.117  37.950  11.304
27064W        W99489   9.318  20.609   1.434
27065W        W99490  33.585   1.474   2.311
27066W        W99491   1.133  37.005   2.760
27067W        W99492  15.929   0.084  11.616
27068W        W99493  41.493  17.038  13.146
27069W        W99494  31.734  12.067   3.859
27070W        W99495  24.404  22.462  12.618
27071W        W99496  38.991  34.281  10.641
27072W        W99497  14.845  17.336   1.788
27073W        W99498  15.794  18.333  12.956
27074W        W99499  15.698  10.388   0.415
27075W        W99500   0.493  40.848   0.485
27076W        W99501  18.682  37.134   2.444
27077W        W99502  35.089  21.789  12.460
27078W        W99503   7.779  41.539  14.952
27079W        W99504  24.261  33.018   4.121
27080W        W99505  28.550  36.070  13.947
27081W        W99506  36.055  11.102  12.210
27082W        W99507  13.886   1.942  13.367
27083W        W99508  11.882  35.358  14.855
27084W        W99509   1.824  14.380  13.918
27085W        W99510   3.815   0.763  14.052
27086W        W99511  23.185  22.138  10.357
27087W        W99512  27.504  12.676   4.504
27088W        W99513  35.825   2.004  12.987
27089W        W99514  33.177   5.279   4.986
27090W        W99515  41.475  41.185  13.745
27091W        W99516  25.137  44.936  11.001
27092W        W99517  41.299  31.599   2.667
27093W        W99518  10.340   2.811   2.461
27094W        W99519  24.712   3.059  14.836
27095W        W99520  10.213   2.906  13.521
27096W        W99521  12.160  31.067   0.776
27097W        W99522   3.520  41.227  11.207
27098W        W99523  16.826   5.681   1.220
27099W        W99524  34.965  16.780   2.175
27100W        W99525  31.431  42.070   4.233
27101W        W99526   8.206  20.261   4.167
27102W        W99527  44.516   2.378  13.752
27103W        W99528   4.118  41.248   0.958
27104W        W99529  29.355  16.613   0.698
27105W        W99530  33.062   1.654  12.638
27106W        W99531  20.186  17.737   2.652
27107W        W99532  16.454  27.862  12.121
27108W        W99533  41.962   9.313  13.746
27109W        W99534   1.195  40.095  12.070
27110W        W99535  39.937  23.049  11.609
27111W        W99536  41.257  20.739  11.067
27112W        W99537   7.909  41.333  10.281
27113W        W99538   4.961   4.869   1.837
27114W        W99539  15.477  38.966  14.063
27115W        W99540  28.772  41.433   1.380
27116W        W99541  16.220  17.138   1.169
27117W        W99542  38.960   8.191  10.941
27118W        W99543  16.556  28.909  12.158
27119W        W99544  41.501  39.990   3.939
27120W        W99545  13.981   9.535   3.728
27121W        W99546  34.825  42.422  12.906
27122W        W99547   1.870  40.705   1.470
27123W        W99548  28.047  12.819  12.160
27124W        W99549  14.727   2.469  13.058
27125W        W99550  33.118  44.733  13.984
27126W        W99551   5.963  29.213   1.744
27127W        W99552  26.310  40.010   2.995
27128W        W99553  16.620   7.398  14.026
27129W        W99554   9.374  13.322  14.928
27130W        W99555  25.338  32.252   1.162
27131W        W99556  22.027  39.760   3.749
27132W        W99557  28.478  44.472  14.483
27133W        W99558  17.434  14.554   1.831
27134W        W99559  24.749   0.972   3.383
27135W        W99560   0.417  24.633  14.431
27136W        W99561  13.320  28.899  14.773
27137W        W99562  25.078  24.509  10.855
27138W        W99563  11.601  37.544  12.906
27139W        W99564   1.453  43.217  10.528
27140W        W99565  18.614   7.451  13.557
27141W        W99566  20.641   3.094   1.122
27142W        W99567  43.222  26.770  14.315
27143W        W99568  28.012  44.891   0.777
27144W        W99569  19.530  19.294  10.701
27145W        W99570   1.441  41.788  14.548
27146W        W99571  26.878   1.744   1.306
27147W        W99572  26.647  18.378   0.247
27148W        W99573  14.520  33.355   3.987
27149W        W99574  32.319  33.493   4.256
27150W        W99575   7.905  17.662   2.698
27151W        W99576  33.108  32.860  13.241
27152W        W99577  17.994  36.940  12.507
27153W        W99578  43.534   3.744  11.248
27154W        W99579  39.803  35.859   4.754
27155W        W99580  28.661   6.939   3.282
27156W        W99581  22.138   3.228   1.435
27157W        W99582  23.521  30.233   2.758
27158W        W99583  13.709  23.624   3.314
27159W        W99584  14.136   3.159   5.052
27160W        W99585  13.280   0.294   4.308
27161W        W99586  39.739  32.622  11.102
27162W        W99587  10.778  39.516   2.777
27163W        W99588  13.221  11.377  13.876
27164W        W99589  29.940   7.170   3.795
27165W        W99590  17.507  35.090   4.283
27166W        W99591  43.222  30.689   3.675
27167W        W99592  25.570   2.763  12.947
27168W        W99593   9.254   8.896  11.669
27169W        W99594  42.452  37.096   1.769
27170W        W99595  25.557  35.655   3.416
27171W        W99596   2.836  25.262   0.299
27172W        W99597  15.895  20.032   0.438
27173W        W99598  37.370  33.131   0.879
27174W        W99599  17.891   5.789  10.895
27175W        W99600  20.974  16.535   1.013
27176W        W99601  35.414  13.591   1.031
27177W        W99602  33.444   7.764  10.672
27178W        W99603   7.803   0.641   3.111
27179W        W99604  22.334   0.391   0.728
27180W        W99605   7.918  32.510   1.779
27181W        W99606  27.742  35.580   3.381
27182W        W99607  39.751  33.995  11.899
27183W        W99608  19.265  19.202   1.559
27184W        W99609   1.359  27.641  14.320
27185W        W99610   8.883  31.878   4.818
27186W        W99611  24.092  26.578  11.139
27187W        W99612  33.200  33.581   0.488
27188W        W99613   1.316  38.824  10.486
27189W        W99614  34.393  21.063   1.797
27190W        W99615  21.122  17.485  12.329
27191W        W99616  32.197  33.183   3.849
27192W        W99617  15.838  27.984   3.876
27193W        W99618  27.916   0.482   0.369
27194W        W99619  10.215  11.728  11.548
27195W        W99620  22.857  12.682   2.278
27196W        W99621   7.884  15.785  12.786
27197W        W99622   8.692  18.672  11.180
27198W        W99623   9.172  29.454  12.964
27199W        W99624   6.295  10.161   2.924
27200W        W99625  35.965  24.380   4.550
27201W        W99626  26.182  12.101  10.896
27202W        W99627  33.008   9.409   2.218
27203W        W99628  42.908  13.138   1.876
27204W        W99629   4.866  43.206  11.626
27205W        W99630  10.375  25.390   1.847
27206W        W99631  39.402  26.702  12.601
27207W        W99632  11.092  16.783   4.082
27208W        W99633  40.012  38.897  12.537
27209W        W99634  12.603  37.512  12.908
27210W        W99635  33.866  29.145   1.354
27211W        W99636  29.084  18.884   3.430
27212W        W99637  33.889   8.114  14.022
27213W        W99638  15.624   1.842  14.735
27214W        W99639  14.175  14.506  13.104
27215W        W99640  19.348   3.265  13.071
27216W        W99641  15.778  33.429   1.331
27217W        W99642  32.830  39.316   3.118
27218W        W99643  14.771  11.062   4.668
27219W        W99644  11.850  37.338  14.811
27220W        W99645  38.790  26.701  13.766
27221W        W99646  40.608  29.989  11.056
27222W        W99647  18.710  28.713   3.006
27223W        W99648  39.551  41.441   0.699
27224W        W99649   6.212  21.224   1.243
27225W        W99650  20.205  35.365  13.762
27226W        W99651  21.720  12.592   1.767
27227W        W99652  10.125  10.268   4.145
27228W        W99653  29.356  25.238   1.829
27229W        W99654  31.368  37.553   0.533
27230W        W99655  42.597  44.058   3.261
27231W        W99656  44.734   7.691   3.253
27232W        W99657  41.509  18.772   0.800
27233W        W99658  25.934  43.727   0.763
27234W        W99659  34.918  38.936   0.026
27235W        W99660   1.818   4.186  13.085
27236W        W99661  21.463  31.377  10.558
27237W        W99662  15.325  23.510  14.379
27238W        W99663  23.048  39.352  10.613
27239W        W99664  25.115   4.516   0.124
27240W        W99665  42.945  24.948   2.229
27241W        W99666   4.824  42.406   0.206
27242W        W99667   0.019  21.180   4.145
27243W        W99668  34.793  27.371  14.090
27244W        W99669  36.902  24.952   2.703
27245W        W99670   3.939   6.958  12.862
27246W        W99671   8.757  12.636  12.924
27247W        W99672   8.656  38.651  11.046
27248W        W99673  25.309  27.451   4.433
27249W        W99674  42.028  22.997   5.038
27250W        W99675  23.194  13.891  12.585
27251W        W99676   5.950  34.804  12.495
27252W        W99677  13.270  23.440  12.147
27253W        W99678  37.050  29.888  14.882
27254W        W99679  21.532   0.079   1.678
27255W        W99680   7.900   1.852  11.938
27256W        W99681  22.243  30.066  12.612
27257W        W99682  23.745  23.193  10.795
27258W        W99683   1.223  35.034  13.166
27259W        W99684  36.814  21.079  14.499
27260W        W99685   9.873  44.773   3.648
27261W        W99686  44.600   5.814   2.464
27262W        W99687   4.904  24.409  13.480
27263W        W99688  43.745  39.114  13.730
27264W        W99689  11.995  14.259   2.653
27265W        W99690  31.080  32.978   1.259
27266W        W99691  27.352   8.152   0.015
27267W        W99692  25.063   2.404   5.033
27268W        W99693  28.400  29.113  14.966
27269W        W99694  27.510  34.841   3.151
27270W        W99695  24.111   4.407  12.239
27271W        W99696  28.495  42.607  14.514
27272W        W99697  21.700   8.236  11.891
27273W        W99698   1.925  43.865   4.380
27274W        W99699  12.349  35.309  11.058
27275W        W99700  28.579  36.597  14.722
27276W        W99701  24.719  43.022  10.601
27277W        W99702   9.430  37.024   2.351
27278W        W99703   0.513  34.568   3.985
27279W        W99704   8.229   9.748  12.043
27280W        W99705  20.961  44.802  12.399
27281W        W99706  26.608  30.154  12.571
27282W        W99707  32.391  37.886  14.338
27283W        W99708   3.852  24.883   4.962
27284W        W99709   8.483  24.172   3.776
27285W        W99710  32.497  40.552   0.477
27286W        W99711  32.440   1.940   1.314
27287W        W99712  38.359  15.060  14.443
27288W        W99713  25.055  30.150  10.163
27289W        W99714  22.552  38.997   0.963
27290W        W99715  31.181  23.606   5.190
27291W        W99716  14.762  39.943  11.332
27292W        W99717  17.768  27.707  13.921
27293W        W99718  17.140  18.831   4.169
27294W        W99719  31.867  15.718   2.972
27295W        W99720  18.683  18.737   1.649
27296W        W99721  31.629  13.577   4.214
27297W        W99722  16.107  43.245   4.272
27298W        W99723  37.872  11.057   0.174
27299W        W99724  27.290  38.490  11.571
27300W        W99725  32.149  22.714   1.161
27301W        W99726  39.033  25.121  13.416
27302W        W99727  23.005  42.113  11.195
27303W        W99728   0.226  31.967   4.535
27304W        W99729  31.009   4.858  12.884
27305W        W99730   8.294  13.814  13.580
27306W        W99731  37.033   9.723  14.420
27307W        W99732   5.369  40.256  10.678
27308W        W99733  34.605  35.055   0.299
27309W        W99734  15.236   1.063   4.713
27310W        W99735   0.892  43.064  12.720
27311W        W99736  11.729  28.136  12.863
27312W        W99737   6.631  33.576   0.400
27313W        W99738   5.046   1.328  12.994
27314W        W99739  27.940  28.948   0.168
27315W        W99740  12.907  20.709  10.673
27316W        W99741  13.875  31.719   0.390
27317W        W99742  27.974   4.203   3.803
27318W        W99743  16.621  14.309  11.539
27319W        W99744  35.287  42.878  13.503
27320W        W99745  34.126  39.614  14.413
27321W        W99746   3.853  40.222   1.821
27322W        W99747  35.499  15.919   2.830
27323W        W99748  10.836   6.378  14.451
27324W        W99749  21.429  37.827   2.101
27325W        W99750   0.770  22.290  12.576
27326W        W99751  14.678  20.095   1.844
27327W        W99752  28.161  44.054  14.506
27328W        W99753  24.264   3.666   2.703
27329W        W99754   0.187  23.226  12.974
27330W        W99755   8.069  20.259  12.188
27331W        W99756  37.160  33.978   3.655
27332W        W99757  17.296  43.234   1.738
27333W        W99758  17.817   6.731  10.457
27334W        W99759   3.355  26.238  11.435
27335W        W99760  42.935   7.673   3.789
27336W        W99761  11.806  13.755   1.467
27337W        W99762  12.154  30.142  14.976
27338W        W99763  33.848  33.095  12.940
27339W        W99764  24.736  21.598  14.400
27340W        W99765   7.666  24.181   0.095
27341W        W99766   6.762  23.540   2.639
27342W        W99767   9.343  27.411  11.195
27343W        W99768  20.711  18.547   2.198
27344W        W99769  36.270  43.349  14.820
27345W        W99770  21.065  27.698   2.814
27346W        W99771   4.251  38.952  10.905
27347W        W99772   0.896   1.915  12.578
27348W        W99773   9.423  28.219  10.341
27349W        W99774  29.616   2.905  13.316
27350W        W99775  34.518  25.594  11.356
27351W        W99776   2.418  40.959  11.622
27352W        W99777  38.366  37.028   4.668
27353W        W99778   8.733  13.582  11.687
27354W        W99779  21.251  21.563   1.706
27355W        W99780  13.017  15.310  12.868
27356W        W99781   8.802  19.234  14.879
27357W        W99782  10.233  39.421  10.655
27358W        W99783  26.455  14.404  10.670
27359W        W99784  10.390   2.576  10.989
27360W        W99785  33.564  20.022   4.548
27361W        W99786  36.516  42.984   2.386
27362W        W99787  34.437   6.181   3.577
27363W        W99788   8.316  40.908   4.359
27364W        W99789  23.838  35.108  11.334
27365W        W99790   0.230   7.559   0.340
27366W        W99791  13.552   2.050   3.691
27367W        W99792  38.506  20.112  10.979
27368W        W99793   7.364   8.897  12.935
27369W        W99794   2.926  40.997  11.658
27370W        W99795  10.133  22.655   0.447
27371W        W99796  17.085  25.170  14.877
27372W        W99797  29.960   9.585  12.499
27373W        W99798  21.597  21.239   3.185
27374W        W99799  14.356  30.982  11.496
27375W        W99800  38.409  43.990  10.626
27376W        W99801  12.649  32.704  12.855
27377W        W99802  15.725  10.245  10.811
27378W        W99803  31.957   3.639  14.533
27379W        W99804   9.307  23.072   0.483
27380W        W99805  23.562  23.714  13.356
27381W        W99806   8.682   6.652   3.686
27382W        W99807  26.062  42.271   4.073
27383W        W99808  37.541  25.919   3.515
27384W        W99809  44.673   3.961   2.668
27385W        W99810  36.391  23.455   1.404
27386W        W99811   9.073  11.866   2.379
27387W        W99812  42.383   7.380  14.923
27388W        W99813  36.908  21.105   0.023
27389W        W99814   2.414  33.538  11.673
27390W        W99815   9.421   0.751  14.806
27391W        W99816   9.844  24.950  12.188
27392W        W99817  24.789  14.316  13.996
27393W        W99818  18.247  30.205   1.363
27394W        W99819  37.009   5.364   0.792
27395W        W99820  25.415  18.992  14.453
27396W        W99821  18.003  42.007  10.420
27397W        W99822   1.873  28.349   4.539
27398W        W99823  15.665  38.950   2.883
27399W        W99824  43.592   0.704  12.002
27400W        W99825  16.152   7.365  14.719
27401W        W99826  44.771  35.785   0.871
27402W        W99827  18.238  16.667  13.058
27403W        W99828  41.065  17.280   2.543
27404W        W99829   0.976  16.779  12.137
27405W        W99830  29.886   3.814  13.771
27406W        W99831  42.798  25.028  12.303
27407W        W99832   5.460  36.987   0.897
27408W        W99833  41.322   0.501  14.208
27409W        W99834  33.293  18.087  14.221
27410W        W99835  11.421  40.864   1.644
27411W        W99836  32.083  22.202   1.382
27412W        W99837  16.516  37.581  11.855
27413W        W99838   2.630  34.488   0.329
27414W        W99839  39.529  21.941  10.682
27415W        W99840  22.780  20.093   1.869
27416W        W99841  31.807  16.570   0.154
27417W        W99842   0.998   2.180   0.153
27418W        W99843  44.151  12.188   2.871
27419W        W99844  32.661  37.394   2.786
27420W        W99845  20.838  17.617  11.341
27421W        W99846   9.702   4.649  10.243
27422W        W99847  21.240  10.770   4.709
27423W        W99848  10.838  36.901  12.334
27424W        W99849  40.366  39.266  14.970
27425W        W99850  37.005   7.912  14.025
27426W        W99851  23.055  34.132   0.220
27427W        W99852  25.704  24.428  13.048
27428W        W99853  35.557  27.077   1.381
27429W        W99854  13.340  20.127  14.410
27430W        W99855  18.174  17.779  14.763
27431W        W99856  38.915  37.376  11.030
27432W        W99857  17.305  41.405  10.673
27433W        W99858  20.731  35.872  14.539
27434W        W99859  37.852   9.967   3.651
27435W        W99860   9.841  18.047   4.595
27436W        W99861  15.977  24.059   3.765
27437W        W99862  38.939   9.333   0.285
27438W        W99863  28.161  24.700  14.708
27439W        W99864   1.096  37.382   3.238
27440W        W99865   6.547  15.260  14.055
27441W        W99866  23.533  13.578   2.166
27442W        W99867  44.815  31.012   2.135
27443W        W99868  36.858   5.405  10.942
27444W        W99869   7.468  38.898  13.211
27445W        W99870  22.619  34.116  12.055
27446W        W99871  21.014  25.852   0.956
27447W        W99872  27.917  17.033   2.353
27448W        W99873   8.803  23.746   3.740
27449W        W99874  29.086  13.252   1.239
27450W        W99875   7.620  26.928   0.482
27451W        W99876  30.898  19.958   4.247
27452W        W99877  30.496  13.744   1.847
27453W        W99878  18.305  14.260  14.373
27454W        W99879  13.065  20.089  13.338
27455W        W99880   6.919  17.725  10.640
27456W        W99881   4.956  35.600  11.874
27457W        W99882  19.747   6.219   4.700
27458W        W99883  35.895  41.429   1.356
27459W        W99884  17.748  10.542  10.347
27460W        W99885   2.879   0.453   4.774
27461W        W99886   6.252  40.552  11.488
27462W        W99887   4.791  31.948  11.501
27463W        W99888   8.892   7.672  12.337
27464W        W99889  38.181  16.583   1.699
27465W        W99890  32.357  26.975   3.125
27466W        W99891  41.905  31.149  13.962
27467W        W99892   4.676  28.520  13.468
27468W        W99893  31.554  30.391  14.903
27469W        W99894   7.259  14.209   2.896
27470W        W99895  38.522  27.688   4.514
27471W        W99896  33.198  18.596  14.281
27472W        W99897  36.013  29.873  13.360
27473W        W99898  16.289   4.013  13.541
27474W        W99899  27.649  25.277   2.327
27475W        W99900  38.185   1.411  10.346
27476W        W99901  43.536  21.656   1.355
27477W        W99902  38.365  14.055  11.699
27478W        W99903  35.150  20.210   4.507
27479W        W99904  15.276  32.612  12.428
27480W        W99905  30.496  34.619  12.597
27481W        W99906  15.295  34.758   4.132
27482W        W99907   1.722  13.591   1.047
27483W        W99908  16.217  12.774   0.449
27484W        W99909  44.409   7.151   0.043
27485W        W99910  15.028  30.980  11.963
27486W        W99911  14.192  32.666  10.625
27487W        W99912  25.145  23.828  14.857
27488W        W99913  36.803  40.546   3.712
27489W        W99914   4.821  14.811   1.813
27490W        W99915  33.449  31.624  11.013
27491W        W99916   6.537  24.001   9.954
27492W        W99917  23.028  30.134  14.852
27493W        W99918   1.807  32.657  10.856
27494W        W99919  19.468  35.831  12.438
27495W        W99920  17.137  44.001  11.475
27496W        W99921  43.049  26.416  12.848
27497W        W99922   5.203   6.946  11.878
27498W        W99923  10.285  24.647   4.719
27499W        W99924  16.012  34.531   0.758
27500W        W99925  12.724  43.807  13.155
27501W        W99926  24.508  12.326   1.345
27502W        W99927  15.177  15.386  13.995
27503W        W99928  41.344  36.918  11.553
27504W        W99929   4.018  36.174   3.303
27505W        W99930  26.847  29.062  10.561
27506W        W99931  43.967  21.046  12.511
27507W        W99932  35.484   9.190   4.843
27508W        W99933   2.589  41.560   2.180
27509W        W99934  19.014  25.180   1.621
27510W        W99935  38.999  17.227   0.844
27511W        W99936  41.849  24.634  12.220
27512W        W99937  38.425   8.345   0.980
27513W        W99938  23.436  21.722  13.088
27514W        W99939  17.761  35.440   4.565
27515W        W99940  11.597  16.240   0.762
27516W        W99941  42.071  24.684  14.823
27517W        W99942  39.486  24.691  13.979
27518W        W99943  10.087  37.308   3.680
27519W        W99944  35.373  17.607  12.918
27520W        W99945  12.072  27.147  11.085
27521W        W99946   1.493  36.844   0.339
27522W        W99947  29.006   5.421  14.035
27523W        W99948   3.693  12.194  14.385
27524W        W99949  43.294   1.875   1.917
27525W        W99950   9.270  40.697   4.153
27526W        W99951   1.219   0.932   4.659
27527W        W99952   0.038   6.184  12.663
27528W        W99953  25.737   5.839  13.826
27529W        W99954  26.165  36.425  12.008
27530W        W99955  18.627  12.082  13.125
27531W        W99956  38.052  14.334   0.713
27532W        W99957  39.718  31.626  11.254
27533W        W99958  36.546  11.554   1.505
27534W        W99959   5.351  39.267  12.114
27535W        W99960   4.408  31.794  11.836
27536W        W99961  23.116  35.957  11.259
27537W        W99962  23.181   6.653  10.731
27538W        W99963  33.861  28.435   0.767
27539W        W99964  24.610  16.190  10.554
27540W        W99965   0.228  41.789   1.244
27541W        W99966   3.360  37.944   3.571
27542W        W99967  16.622  40.820   0.222
27543W        W99968  38.858  25.982  12.536
27544W        W99969  18.397   3.945  13.484
27545W        W99970  44.724  42.231   4.667
27546W        W99971   7.632  39.368  10.624
27547W        W99972  34.150  20.602   1.835
27548W        W99973  34.635  17.841  13.350
27549W        W99974  15.323  38.183   1.398
27550W        W99975   1.597   0.385  11.378
27551W        W99976   8.682  36.897   1.182
27552W        W99977  25.792  30.089   2.758
27553W        W99978  42.906  43.928   2.847
27554W        W99979  32.418  32.847  12.970
27555W        W99980  30.554  22.988   1.945
27556W        W99981  17.007  40.515   3.182
27557W        W99982   2.470  11.945  12.586
27558W        W99983  39.399   1.674   4.275
27559W        W99984  11.675  33.085   3.866
27560W        W99985  21.533   0.834   4.434
27561W        W99986  25.491  36.296  11.682
27562W        W99987  41.546  44.290  10.148
27563W        W99988   1.738  44.083   0.927
27564W        W99989  40.342  28.904  10.778
27565W        W99990  33.884   5.439   4.227
27566W        W99991  41.396   8.856  11.482
27567W        W99992  24.101  24.263  10.835
27568W        W99993  42.432  21.650  13.748
27569W        W99994  39.324  28.587   4.399
27570W        W99995  42.881  40.835   4.625
27571W        W99996  20.358  15.675  11.565
27572W        W99997  30.978  39.575   5.054
27573W        W99998  34.601  19.195  11.661
27574W        W99999  35.091  29.973  14.845
27575W        W    0  42.760  44.515   3.475
27576W        W    1  11.340  33.296   2.783
27577W        W    2  11.188  34.207   4.567
27578W        W    3  28.153  29.277  14.240
27579W        W    4  32.656  42.754   4.187
27580W        W    5  25.612  43.387  12.270
27581W        W    6  29.385   7.363   1.478
27582W        W    7   2.316  23.779   3.796
27583W        W    8  27.637   7.195   5.106
27584W        W    9  34.109   9.198  12.321
27585W        W   10  34.451   1.288   3.808
27586W        W   11  21.029  23.212  12.964
27587W        W   12  37.129  34.400   1.023
27588W        W   13  21.668  44.458   0.517
27589W        W   14  42.281  29.899  14.059
27590W        W   15   0.764  20.172   3.638
27591W        W   16  42.386  33.962  13.231
27592W        W   17  34.911  26.407  11.515
27593W        W   18  37.586  34.994  14.878
27594W        W   19  19.149   7.819  12.938
27595W        W   20  44.827  18.073  13.548
27596W        W   21   3.179  36.000  11.177
27597W        W   22   6.623   7.660  10.453
27598W        W   23  44.602  40.281   1.767
27599W        W   24   5.795  14.602   4.756
27600W        W   25  32.081  43.494   2.743
27601W        W   26  22.055   1.898  14.878
27602W        W   27  10.777  17.316  13.570
27603W        W   28   4.600   7.349   2.251
27604W        W   29   7.976  20.471  14.764
27605W        W   30  24.562   2.955   3.292
27606W        W   31   8.134   8.891   4.838
27607W        W   32  14.823  26.831  14.730
27608W        W   33  17.854  34.038   0.511
27609W        W   34  10.292  35.828  13.600
27610W        W   35   4.347  18.832  13.952
27611W        W   36  10.173  39.811   2.210
27612W        W   37  19.729  11.205   2.547
27613W        W   38   2.201   8.126   3.404
27614W        W   39  15.589  41.314   3.144
27615W        W   40   2.544   6.776   3.245
27616W        W   41  24.562  41.862   3.166
27617W        W   42  17.155   7.184   1.299
27618W        W   43  13.786  14.908   0.296
27619W        W   44   6.684  13.536   0.461
27620W        W   45  25.781  19.792   1.775
27621W        W   46   7.228   5.435  14.047
27622W        W   47  33.145  34.864   4.249
27623W        W   48  31.070   2.292  14.230
27624W        W   49  41.016  19.995   3.639
27625W        W   50  27.410  21.831  14.396
27626W        W   51   5.331  44.239   4.786
27627W        W   52  23.829   0.239  14.700
27628W        W   53  38.763  39.432   1.259
27629W        W   54   1.528  27.056   0.948
27630W        W   55  13.787  23.312  12.822
27631W        W   56  34.326  11.293  11.515
27632W        W   57  23.381  27.218   3.864
27633W        W   58   1.836  11.725   1.800
27634W        W   59  15.259  28.591   2.998
27635W        W   60   9.762   2.494  14.873
27636W        W   61  13.344  24.235   0.265
27637W        W   62  37.576  12.822  12.556
27638W        W   63  16.306  22.203   1.147
27639W        W   64  40.806  28.188   4.538
27640W        W   65  13.626   2.972   4.430
27641W        W   66   0.229  16.039  12.253
27642W        W   67  13.046  37.561  11.984
27643W        W   68  12.622  35.447   4.595
27644W        W   69  35.602  41.528   2.317
27645W        W   70  44.128  14.799   1.779
27646W        W   71   7.763   3.717   3.411
27647W        W   72  16.006  36.440  12.544
27648W        W   73  11.113   2.745   5.689
27649W        W   74  37.205  28.140  13.774
27650W        W   75   0.518  35.062   3.712
27651W        W   76  19.210  21.453  11.125
27652W        W   77  26.980  31.911  13.875
27653W        W   78   5.531  34.675  13.870
27654W        W   79  37.476  41.060   3.511
27655W        W   80  13.598  31.856  13.037
27656W        W   81  44.391  30.701   1.970
27657W        W   82  36.153  43.139   0.295
27658W        W   83  15.019  19.149  11.042
27659W        W   84  30.988  33.591   2.544
27660W        W   85  27.503  26.120  14.327
27661W        W   86  42.463  33.976  13.963
27662W        W   87  17.039   5.814   4.807
27663W        W   88  34.457  14.239  13.821
27664W        W   89  20.725  27.550   0.787
27665W        W   90  11.325  15.079   3.503
27666W        W   91   6.821  42.001   2.430
27667W        W   92  36.485  16.116  14.061
27668W        W   93   9.486  20.953  13.531
27669W        W   94   5.387  40.981  14.319
27670W        W   95   8.239  11.080   3.605
27671W        W   96   0.998  22.293   0.953
27672W        W   97  42.376  23.165   4.282
27673W        W   98  24.922  36.812   2.205
27674W        W   99   1.556  42.020   4.198
27675W        W  100  37.315  24.973  11.154
27676W        W  101  28.944  39.069   9.721
27677W        W  102  22.474   4.263   2.384
27678W        W  103  31.130  31.392   1.334
27679W        W  104  39.486  22.834   0.768
27680W        W  105  20.187  11.016   2.364
27681W        W  106   4.047   4.791  10.873
27682W        W  107  40.990  26.104  14.412
27683W        W  108  31.407   0.113  11.860
27684W        W  109  14.805  17.428   2.729
27685W        W  110  13.610  33.512   3.576
27686W        W  111   8.717  25.611   5.199
27687W        W  112  25.726   1.145   4.197
27688W        W  113  13.841   1.433   1.953
27689W        W  114  24.205   6.640   2.764
27690W        W  115  33.628   6.282   3.963
27691W        W  116  41.617   9.220   4.507
27692W        W  117  42.017   3.586   2.828
27693W        W  118  44.474  21.022   3.238
27694W        W  119  20.092  15.290  10.865
27695W        W  120  28.630   8.531  12.352
27696W        W  121  19.505  19.123   2.850
27697W        W  122   4.856   2.751  14.283
27698W        W  123  30.310  37.855  12.890
27699W        W  124   2.517  37.025   4.626
27700W        W  125  33.685  37.299   3.613
27701W        W  126  31.863  26.868   4.787
27702W        W  127   6.616   4.361  12.596
27703W        W  128   2.075  16.777  10.621
27704W        W  129   1.411  36.882   1.461
27705W        W  130   9.751   9.067  11.545
27706W        W  131   0.285  12.582  11.666
27707W        W  132   0.857  30.502  13.747
27708W        W  133  28.136  35.277   3.651
27709W        W  134   2.880  16.145   3.591
27710W        W  135  38.993   0.269  13.383
27711W        W  136  14.980   3.990   4.152
27712W        W  137  28.629  11.339   2.747
27713W        W  138  26.486  35.304   2.314
27714W        W  139   4.666   4.888   2.257
27715W        W  140   0.239  30.120  11.480
27716W        W  141  11.351  12.682  12.871
27717W        W  142  41.340  30.623   0.411
27718W        W  143  39.786  31.996   0.288
27719W        W  144  26.497  39.541   3.733
27720W        W  145   7.959  35.373   4.662
27721W        W  146  39.768   2.352   3.693
27722W        W  147  14.361   1.035   4.191
27723W        W  148  33.555   0.682  10.829
27724W        W  149  13.150  37.109   5.124
27725W        W  150  40.389  21.110   1.433
27726W        W  151  16.731  38.531   3.268
27727W        W  152  44.303   8.286   5.029
27728W        W  153  19.734  31.831  11.662
27729W        W  154   3.840   7.222   4.916
27730W        W  155  26.979  44.985   1.014
27731W        W  156  24.440   9.435  10.607
27732W        W  157  38.504  28.597  12.867
27733W        W  158   7.038   2.993   4.098
27734W        W  159  10.865   0.520   2.729
27735W        W  160  32.122  30.644   1.688
27736W        W  161   5.672  30.575   0.305
27737W        W  162  28.046  33.320  11.033
27738W        W  163  32.996  38.547   2.132
27739W        W  164  38.616  19.775  12.137
27740W        W  165  13.831  44.436   4.766
27741W        W  166  32.258  30.257   0.197
27742W        W  167  35.610  11.071  11.929
27743W        W  168  31.771  30.152   0.316
27744W        W  169  19.982  30.502  12.061
27745W        W  170   3.294  30.153   3.189
27746W        W  171  31.892  32.729  14.880
27747W        W  172  37.796  32.573  10.893
27748W        W  173  11.051  15.840   3.269
27749W        W  174   4.821   2.518   4.269
27750W        W  175  12.578  14.681  12.477
27751W        W  176  18.757  16.327  10.743
27752W        W  177  25.952  15.501  11.397
27753W        W  178  38.733  27.710  10.200
27754W        W  179  15.843  34.778   1.707
27755W        W  180   5.197  25.019   1.714
27756W        W  181   2.430  12.850   2.353
27757W        W  182  23.614   6.449  14.935
27758W        W  183  14.794   8.123   4.218
27759W        W  184  11.383  39.952   1.174
27760W        W  185  39.050  34.543  13.985
27761W        W  186   2.396  36.301   0.426
27762W        W  187  16.356  35.016  11.220
27763W        W  188  41.032  28.146   2.274
27764W        W  189   0.804  24.169   1.311
27765W        W  190  37.580  33.623  13.588
27766W        W  191  22.009  35.323   3.415
27767W        W  192  21.041   0.312   2.796
27768W        W  193  31.389  25.699  14.321
27769W        W  194  38.907  28.723  14.600
27770W        W  195   7.359  37.627   0.748
27771W        W  196  36.018  26.244  13.106
27772W        W  197   1.484  17.826  13.015
27773W        W  198  14.165  19.082   1.351
27774W        W  199  14.910   5.243  13.062
27775W        W  200   4.900  30.112   0.586
27776W        W  201   1.410  19.539  14.259
27777W        W  202  33.354  24.603   4.135
27778W        W  203  33.585  30.889   2.215
27779W        W  204  18.961  14.841  12.453
27780W        W  205  27.084  26.072  11.121
27781W        W  206  16.182  39.391   3.309
27782W        W  207  12.366  34.078  13.996
27783W        W  208  13.413   3.859   9.807
27784W        W  209  27.996  42.824  10.679
27785W        W  210  27.417   4.952   2.842
27786W        W  211  33.070  39.356   4.895
27787W        W  212   2.759  17.968   0.439
27788W        W  213  18.608   9.069   3.843
27789W        W  214   4.420   6.148  14.473
27790W        W  215   1.359  29.225   3.718
27791W        W  216  38.269  11.730  13.810
27792W        W  217   5.670  23.669   1.148
27793W        W  218  31.974   2.670   4.279
27794W        W  219  10.413   4.404   4.083
27795W        W  220  17.238   8.925   0.798
27796W        W  221  20.108   0.570  14.851
27797W        W  222   4.708  13.298  12.875
27798W        W  223  28.885  22.762   0.683
27799W        W  224   3.583   4.474  11.678
27800W        W  225  13.332   2.269  12.928
27801W        W  226  40.022  32.986   4.821
27802W        W  227   1.421   6.148   2.898
27803W        W  228  32.445  27.159  11.460
27804W        W  229  38.134  24.470   3.630
27805W        W  230  42.102  12.686   0.527
27806W        W  231   4.861  26.957  14.381
27807W        W  232  20.978  15.623  11.160
27808W        W  233  15.869  42.510   2.717
27809W        W  234  11.066  28.015   0.749
27810W        W  235  12.381   2.715   3.652
27811W        W  236  24.012  27.130   1.683
27812W        W  237   0.215  15.905   0.481
27813W        W  238  39.561  40.093  13.948
27814W        W  239   7.261  23.527  13.511
27815W        W  240  24.700   5.484  14.585
27816W        W  241  28.567  42.948  11.987
27817W        W  242   0.994   0.868   3.316
27818W        W  243  44.171  29.613  11.634
27819W        W  244  11.211  11.341   4.256
27820W        W  245  17.018  38.603   0.510
27821W        W  246  42.077  18.088   2.675
27822W        W  247  35.805  20.043  14.979
27823W        W  248   0.170  22.715  12.909
27824W        W  249  23.722  37.705  14.442
27825W        W  250  43.024  15.822   4.710
27826W        W  251  31.213   3.642   0.817
27827W        W  252   4.457  28.978  11.669
27828W        W  253  28.315  20.676  12.161
27829W        W  254   3.513  16.067  10.674
27830W        W  255   9.828   0.978  13.478
27831W        W  256  14.832  24.373  12.468
27832W        W  257   7.698  28.062   0.141
27833W        W  258   1.734  23.908  13.851
27834W        W  259  24.484  37.144   3.258
27835W        W  260   7.403   3.213   2.413
27836W        W  261  42.507   1.242   3.089
27837W        W  262  27.587  10.381  14.291
27838W        W  263  39.047  22.984   2.797
27839W        W  264  39.892  23.533   1.060
27840W        W  265  19.561  21.792  12.630
27841W        W  266   4.407  28.612  11.324
27842W        W  267  31.153  39.933   1.056
27843W        W  268  14.809  43.250   2.697
27844W        W  269  14.528  39.545   1.407
27845W        W  270   3.879  33.371   4.554
27846W        W  271   6.960   3.295   0.865
27847W        W  272  16.138   4.381   2.743
27848W        W  273  38.274  41.663  10.195
27849W        W  274  21.590   4.456  11.878
27850W        W  275  16.228  39.873  10.765
27851W        W  276   1.777   8.696  11.684
27852W        W  277  15.965   9.508   0.526
27853W        W  278  29.646  36.763   0.476
27854W        W  279  28.662  24.372   5.086
27855W        W  280  41.753   4.401  12.385
27856W        W  281   2.129  21.955  12.020
27857W        W  282  21.757   4.204  12.294
27858W        W  283   6.088   3.188   4.193
27859W        W  284  34.164   0.038   3.691
27860W        W  285  10.620  13.140   1.956
27861W        W  286  20.038  14.701   0.937
27862W        W  287  19.313  17.372   2.221
27863W        W  288  31.121  25.071   5.003
27864W        W  289  27.202  11.561  14.769
27865W        W  290  43.696   4.255  11.487
27866W        W  291  14.391  33.850   0.397
27867W        W  292   8.332  18.236   4.376
27868W        W  293   7.499  36.092  13.058
27869W        W  294  17.284  16.580   2.897
27870W        W  295   9.248  22.969   1.436
27871W        W  296  42.993  41.214   1.012
27872W        W  297  39.876  20.257  12.658
27873W        W  298  40.412  32.864  11.461
27874W        W  299  44.225  35.978   2.193
27875W        W  300  26.277  40.396   4.196
27876W        W  301   2.023  33.005   4.118
27877W        W  302   3.697  39.413   0.604
27878W        W  303   8.079  22.033  13.019
27879W        W  304   8.219  41.289  10.712
27880W        W  305  23.993  17.892  13.977
27881W        W  306  17.308  14.824  11.962
27882W        W  307  30.860  16.724   4.739
27883W        W  308  16.139  13.108   1.776
27884W        W  309  25.466  24.157   0.516
27885W        W  310  10.176  24.500   0.131
27886W        W  311   9.842  34.400  10.910
27887W        W  312   7.595  25.745  14.282
27888W        W  313  31.646  23.682   4.370
27889W        W  314   9.680  24.652   1.852
27890W        W  315  24.718  10.198   3.929
27891W        W  316   6.421  21.742   4.288
27892W        W  317  41.147  33.994  14.496
27893W        W  318  28.033  36.042  11.456
27894W        W  319  14.645   7.216   1.727
27895W        W  320  39.079  17.738  11.684
27896W        W  321  28.507   9.446  12.518
27897W        W  322  41.584  22.006   0.597
27898W        W  323  24.729  31.118  10.203
27899W        W  324  18.586  42.512   0.034
27900W        W  325  23.541  40.021   3.720
27901W        W  326   8.355   0.435   2.176
27902W        W  327  26.849   7.886   3.283
27903W        W  328  19.467  18.588  11.113
27904W        W  329  30.677  40.443   2.620
27905W        W  330  36.950  40.735   4.196
27906W        W  331  16.112   1.370   4.697
27907W        W  332  28.011  11.693  12.389
27908W        W  333  42.265   3.292   3.630
27909W        W  334   7.193  18.676  10.941
27910W        W  335  35.576  33.393   0.699
27911W        W  336  38.809   2.255  11.982
27912W        W  337   8.123   1.483   4.168
27913W        W  338  12.570  18.543   1.546
27914W        W  339  28.601  32.237   3.669
27915W        W  340  42.341  31.978   0.273
27916W        W  341  25.023  32.570   4.613
27917W        W  342  36.666  23.674   3.067
27918W        W  343  40.428  31.603   2.882
27919W        W  344  35.363  34.886   3.102
27920W        W  345  20.731  28.133  10.666
27921W        W  346   1.401  34.882   0.477
27922W        W  347  23.905  37.688   1.228
27923W        W  348   3.676  41.034   0.375
27924W        W  349  33.092   8.955   1.922
27925W        W  350   2.003   5.206  13.922
27926W        W  351  29.769  38.913   1.637
27927W        W  352   4.286  13.232  14.014
27928W        W  353   3.667   5.000   0.361
27929W        W  354  10.207   0.023   1.414
27930W        W  355  36.938  28.441   4.099
27931W        W  356  32.003  24.798   0.806
27932W        W  357  43.349   9.817  13.399
27933W        W  358  28.209   0.130   1.848
27934W        W  359  30.008   6.124  11.576
27935W        W  360  36.803  39.972   1.786
27936W        W  361   4.894  16.430  12.786
27937W        W  362   4.044  15.660   0.884
27938W        W  363   3.505  35.953   3.367
27939W        W  364   9.756  32.495   1.175
27940W        W  365  31.821  20.292  10.686
27941W        W  366   4.903  28.537  10.555
27942W        W  367   3.771  20.564  10.675
27943W        W  368  11.818  26.276   3.803
27944W        W  369  27.981   4.336  11.416
27945W        W  370  19.510  40.929  14.171
27946W        W  371  17.291  33.211   0.358
27947W        W  372   0.884  27.416  14.390
27948W        W  373  35.953  34.092  12.589
27949W        W  374  18.334  13.194   3.261
27950W        W  375  40.265  41.519   0.423
27951W        W  376  20.671  38.534   3.635
27952W        W  377  42.285  12.217   4.682
27953W        W  378  28.045   5.843   3.610
27954W        W  379   7.776  24.458   3.332
27955W        W  380  19.333  27.210   0.305
27956W        W  381  31.676  25.092   4.163
27957W        W  382   8.269   1.769  11.235
27958W        W  383  19.643  19.946   3.105
27959W        W  384  20.506  19.257   2.853
27960W        W  385  20.157  41.584  11.144
27961W        W  386  33.635  29.439   0.970
27962W        W  387   4.092  28.463   2.724
27963W        W  388   1.046  32.046  14.613
27964W        W  389  12.131  40.425   3.181
27965W        W  390  12.828  37.903  13.155
27966W        W  391  36.918  11.208   4.880
27967W        W  392  28.999   0.305   2.034
27968W        W  393  15.812   6.925  12.845
27969W        W  394  17.716  40.592   3.656
27970W        W  395  21.037  19.820   4.341
27971W        W  396  22.442  11.291   4.246
27972W        W  397  40.096  31.525  12.519
27973W        W  398  37.575  44.323  11.189
27974W        W  399  25.538  35.501   4.387
27975W        W  400  16.790  10.908   4.611
27976W        W  401  26.990  18.711  13.782
27977W        W  402   9.249   4.946   2.879
27978W        W  403  18.697  34.033   2.996
27979W        W  404  32.139  35.038  12.329
27980W        W  405  18.989  29.205  12.200
27981W        W  406  38.473  21.235  13.625
27982W        W  407  11.510  17.716  10.212
27983W        W  408  16.805  41.035   4.263
27984W        W  409  32.233  31.190  11.000
27985W        W  410  18.688  24.040  12.837
27986W        W  411  28.006  34.153  10.624
27987W        W  412   0.995   1.475   0.782
27988W        W  413  43.068  44.810   4.258
27989W        W  414  41.455  30.526   0.951
27990W        W  415  44.737  24.111  14.377
27991W        W  416  22.216  42.516   2.278
27992W        W  417  26.691  42.702  11.768
27993W        W  418  23.559  19.345   4.691
27994W        W  419  31.778   3.008   4.635
27995W        W  420   6.243  11.272   0.520
27996W        W  421  37.926   8.046   9.708
27997W        W  422   2.921  36.788  12.127
27998W        W  423   2.840  32.510   4.508
27999W        W  424   0.022   4.479   3.704
28000W        W  425  33.057   5.968   2.234
28001W        W  426  13.108  10.319   3.865
28002W        W  427   0.798   3.331  11.109
28003W        W  428  16.131  38.248   0.315
28004W        W  429  35.406  11.403   0.751
28005W        W  430  12.392   7.707  12.955
28006W        W  431  35.170  17.569   2.992
28007W        W  432  40.043  15.379   0.790
28008W        W  433  16.351  30.672   1.949
28009W        W  434  40.288   3.206  12.110
28010W        W  435  36.302  23.519  13.497
28011W        W  436  41.834  39.406   1.916
28012W        W  437   7.680  33.580   0.279
28013W        W  438  26.390   7.730  10.810
28014W        W  439  40.092  27.925  12.097
28015W        W  440  16.035  10.507   0.002
28016W        W  441  32.222  43.021   4.131
28017W        W  442  34.909  32.550  12.958
28018W        W  443  40.013  14.790   2.643
28019W        W  444  24.512  11.716  10.928
28020W        W  445  17.327  19.683  12.586
28021W        W  446   1.691  36.521  14.984
28022W        W  447  32.115  31.140   1.229
28023W        W  448  30.138  35.478  14.499
28024W        W  449  18.399   6.767   4.289
28025W        W  450  35.092  43.369  14.303
28026W        W  451  17.682  33.940  13.287
28027W        W  452  18.855  19.172   1.888
28028W        W  453  17.842  33.479  13.083
28029W        W  454  17.668   0.948  14.239
28030W        W  455  19.433  31.731  12.140
28031W        W  456  38.851  40.818  10.533
28032W        W  457  37.380  18.005   3.242
28033W        W  458  28.522  44.964   0.835
28034W        W  459  39.624  41.880   1.870
28035W        W  460  23.233  16.945  11.008
28036W        W  461  39.663   9.373  11.085
28037W        W  462  39.860  29.653   0.449
28038W        W  463   8.222  14.037   1.856
28039W        W  464  34.462   5.463   3.386
28040W        W  465  39.486  39.239  11.707
28041W        W  466   0.236  39.988   0.755
28042W        W  467   0.227  43.228  13.996
28043W        W  468   1.289   4.981   2.124
28044W        W  469  38.786  15.239  13.469
28045W        W  470   1.208  41.388   2.673
28046W        W  471  37.426  15.320   2.786
28047W        W  472  22.272  31.459   4.566
28048W        W  473  42.537  16.032   1.898
28049W        W  474   8.643   2.638   2.845
28050W        W  475  20.028  26.054  11.957
28051W        W  476  37.908  33.968  11.596
28052W        W  477   5.906   9.455  14.157
28053W        W  478  42.444  44.258   2.800
28054W        W  479  40.317   8.742   1.284
28055W        W  480  23.285  27.716   4.635
28056W        W  481   3.812   3.205  10.444
28057W        W  482  26.609  38.317  13.787
28058W        W  483   4.170  36.752  14.937
28059W        W  484  42.449  35.053  13.872
28060W        W  485  14.824  32.603   3.741
28061W        W  486   6.860  27.796   4.315
28062W        W  487  37.163   9.536  10.051
28063W        W  488  34.544  20.894  10.542
28064W        W  489   0.748   4.195   4.117
28065W        W  490  28.899  13.408  11.787
28066W        W  491   8.204  35.653   4.248
28067W        W  492  41.947  22.526  11.178
28068W        W  493  25.491  37.891  14.967
28069W        W  494   1.322  22.085  13.772
28070W        W  495  40.834   0.396   2.477
28071W        W  496  42.081  35.187  14.768
28072W        W  497  33.950  28.402  13.533
28073W        W  498  32.772  38.979   0.746
28074W        W  499   6.258  10.866  11.716
28075W        W  500  11.698  35.641   2.724
28076W        W  501  41.240  27.763  11.143
28077W        W  502  34.021  17.781   1.368
28078W        W  503  13.233   9.663   3.016
28079W        W  504   5.114  31.969  13.504
28080W        W  505  41.920  31.952  10.554
28081W        W  506   1.184  16.243   1.680
28082W        W  507  30.583  16.819   1.882
28083W        W  508   2.507   3.188  11.745
28084W        W  509   1.298  22.972  11.637
28085W        W  510   1.994  16.691  14.184
28086W        W  511  25.917  29.481   5.371
28087W        W  512  37.799   4.341   1.843
28088W        W  513  32.021   7.794  12.500
28089W        W  514  12.705   9.494  13.071
28090W        W  515  33.423  42.255  12.952
28091W        W  516  33.094  16.685  14.908
28092W        W  517  32.624  31.855  13.007
28093W        W  518  10.865  29.024   2.268
28094W        W  519   0.788  31.700   0.489
28095W        W  520  10.308  36.036   4.329
28096W        W  521   7.302  14.359   0.290
28097W        W  522  32.473  40.925  14.421
28098W        W  523  26.531  43.818   3.053
28099W        W  524  22.592  23.527  11.684
28100W        W  525   9.804  20.330   1.506
28101W        W  526  35.302  13.355   3.788
28102W        W  527  14.952  21.978   5.063
28103W        W  528   9.811  39.137   4.874
28104W        W  529  14.192  32.931   3.113
28105W        W  530  15.146   0.908  13.809
28106W        W  531  35.902   9.336   9.589
28107W        W  532  17.584   8.861   2.682
28108W        W  533  18.207  34.631  14.755
28109W        W  534  39.391  39.404   4.417
28110W        W  535  36.423  18.762  13.977
28111W        W  536  10.776  33.089   2.737
28112W        W  537  44.209  12.388  11.172
28113W        W  538  18.677  31.126  11.177
28114W        W  539  25.221  30.463   2.274
28115W        W  540  24.744   2.664   4.222
28116W        W  541  12.454   3.818   2.806
28117W        W  542  44.363  22.754   0.743
28118W        W  543  11.928  26.969  11.596
28119W        W  544  39.839  40.312   1.344
28120W        W  545  44.376  20.085   4.733
28121W        W  546  15.404  35.096  10.734
28122W        W  547  32.236   9.665   3.592
28123W        W  548  29.886  38.928  10.718
28124W        W  549  44.286  32.333  13.339
28125W        W  550   4.816  31.473   1.483
28126W        W  551  34.990  29.395   5.161
28127W        W  552  36.574  34.515  14.662
28128W        W  553  11.599  21.035  11.113
28129W        W  554  43.683   2.462   4.708
28130W        W  555  38.009  15.233  11.001
28131W        W  556  38.912  15.043   1.433
28132W        W  557  33.605  25.258   4.999
28133W        W  558   5.235  20.948   1.771
28134W        W  559  32.395  37.019  13.454
28135W        W  560  13.814   3.738   2.267
28136W        W  561  39.879  37.412   4.679
28137W        W  562  26.174   5.376  14.633
28138W        W  563  25.970  23.513  10.514
28139W        W  564  24.859  15.556  12.877
28140W        W  565  31.671  41.637   5.247
28141W        W  566  44.215  35.539  12.694
28142W        W  567  10.686  32.520  10.870
28143W        W  568  41.056  12.365   3.216
28144W        W  569  26.255  27.893   0.407
28145W        W  570   4.866   9.663   3.731
28146W        W  571  26.526  34.782  13.116
28147W        W  572  16.784  13.885   2.663
28148W        W  573   3.961   2.612  12.365
28149W        W  574  31.339   0.028   4.065
28150W        W  575  25.452  25.753  14.906
28151W        W  576  27.510   3.643   3.414
28152W        W  577  16.786  30.166  12.491
28153W        W  578  11.558   2.784   5.440
28154W        W  579  10.301  36.390  13.334
28155W        W  580  33.402  42.915   2.326
28156W        W  581  41.039  42.889   1.916
28157W        W  582  18.721  24.162  13.367
28158W        W  583  36.821  10.885  13.097
28159W        W  584  11.174  35.544  14.452
28160W        W  585   8.799   8.857   2.103
28161W        W  586  11.573   4.034  13.984
28162W        W  587  32.133   0.481  10.507
28163W        W  588  35.122  24.939   3.342
28164W        W  589  28.025   8.265   0.207
28165W        W  590  36.037  35.109   2.789
28166W        W  591  18.082  32.437  14.216
28167W        W  592   1.920   9.268  12.512
28168W        W  593   3.044  31.285  12.194
28169W        W  594  35.431  37.828  14.354
28170W        W  595  31.919   4.000   2.376
28171W        W  596  42.794  11.540  14.892
28172W        W  597  30.486  25.485   2.131
28173W        W  598  29.810  10.070   3.774
28174W        W  599   9.421  18.706   2.873
28175W        W  600   7.559  42.522   0.932
28176W        W  601  16.209  32.502   3.429
28177W        W  602  40.286  14.401   1.029
28178W        W  603   3.898   2.316  13.811
28179W        W  604  31.112  16.528  12.882
28180W        W  605  34.570   5.705  11.588
28181W        W  606  31.862   9.200   0.851
28182W        W  607  25.360  15.365   0.273
28183W        W  608   1.523   1.909  11.115
28184W        W  609   8.853  16.653  10.628
28185W        W  610  21.097   1.082   4.204
28186W        W  611   0.416  28.420   2.836
28187W        W  612  28.766  26.042   4.496
28188W        W  613   8.417   8.204  14.428
28189W        W  614   4.397  33.127   3.354
28190W        W  615  30.813  12.568   3.145
28191W        W  616  12.263  22.534   3.656
28192W        W  617  39.405  17.734  14.781
28193W        W  618  12.394  13.607   2.658
28194W        W  619  37.447   3.273  11.547
28195W        W  620  30.584  35.341  14.780
28196W        W  621   5.448  43.417   1.867
28197W        W  622  15.674  27.554  14.445
28198W        W  623  26.294   2.749  13.379
28199W        W  624  11.253  18.374  12.542
28200W        W  625  38.452  17.924   1.179
28201W        W  626   8.333  27.259  14.906
28202W        W  627  33.510  30.822  10.623
28203W        W  628  29.019  36.130   0.724
28204W        W  629  41.736  33.347   2.228
28205W        W  630  37.492  22.128  11.965
28206W        W  631  36.903  36.980  14.263
28207W        W  632   0.898  31.818  10.608
28208W        W  633   2.542   1.210  13.860
28209W        W  634  16.967  10.587   3.256
28210W        W  635  40.993  27.633   2.410
28211W        W  636   2.250  44.490  10.515
28212W        W  637  37.314   4.187  12.114
28213W        W  638  23.698  33.497   2.317
28214W        W  639  32.646  33.883  13.889
28215W        W  640   5.479  35.951  11.088
28216W        W  641  33.310   0.372  11.171
28217W        W  642  14.382  31.861   0.481
28218W        W  643  10.211  35.989   0.172
28219W        W  644  17.189  41.928  10.928
28220W        W  645  39.234  41.984  11.108
28221W        W  646   7.310  31.901  11.946
28222W        W  647  38.304  28.303  12.490
28223W        W  648  13.793  26.171  11.594
28224W        W  649  42.676  28.045   2.905
28225W        W  650  43.528   1.613   1.531
28226W        W  651  31.996  38.970   0.049
28227W        W  652  34.952  32.427   2.396
28228W        W  653  11.834   6.204  14.455
28229W        W  654  19.400   8.838   4.980
28230W        W  655  23.731  35.901   0.826
28231W        W  656  29.442   9.109   0.168
28232W        W  657  38.305  34.485   4.743
28233W        W  658   7.830  36.586  12.459
28234W        W  659   5.156  44.808  12.127
28235W        W  660  20.697   1.342  13.907
28236W        W  661   8.576  10.108   4.629
28237W        W  662  30.946  41.626   3.196
28238W        W  663  19.280  11.188   3.900
28239W        W  664  28.787   7.012   2.329
28240W        W  665  34.511  10.121   1.415
28241W        W  666  38.586  22.745   2.880
28242W        W  667  28.270  10.694  10.025
28243W        W  668  24.016  10.588   3.046
28244W        W  669  40.752  32.654  14.781
28245W        W  670   2.476   1.452  14.343
28246W        W  671  23.729   4.911   1.968
28247W        W  672  39.000  10.679  11.570
28248W        W  673  27.138  41.927  14.824
28249W        W  674  38.763  31.664  12.492
28250W        W  675   9.652   1.877  11.507
28251W        W  676  24.729   2.175  11.377
28252W        W  677  25.346  42.492   2.280
28253W        W  678  30.858  44.913   1.254
28254W        W  679   7.154  23.272  14.560
28255W        W  680  28.845  29.162   0.259
28256W        W  681  11.855  36.804   1.693
28257W        W  682  18.525   1.768   9.915
28258W        W  683  12.448  37.850  14.175
28259W        W  684  43.784   2.513  12.332
28260W        W  685   4.695   5.171  13.385
28261W        W  686  26.700   0.284  12.438
28262W        W  687  19.517  32.572   3.696
28263W        W  688  11.395  16.108  11.864
28264W        W  689  19.582  24.016  11.450
28265W        W  690  22.970   5.190  10.655
28266W        W  691  40.017  40.374  14.755
28267W        W  692  40.565  16.514  11.153
28268W        W  693  10.667  43.469  12.870
28269W        W  694   7.522  36.948   4.259
28270W        W  695   4.203  19.262  11.078
28271W        W  696   9.686  12.594  11.742
28272W        W  697  28.766  17.189  12.874
28273W        W  698  36.721  41.838  13.041
28274W        W  699  32.654   1.375   1.293
28275W        W  700   5.293  10.723   3.655
28276W        W  701  11.513   2.489   0.850
28277W        W  702  15.145  12.383   0.908
28278W        W  703  27.482   0.463  12.835
28279W        W  704  37.918  32.144   0.471
28280W        W  705  33.957  21.956  13.114
28281W        W  706  27.084  15.246  11.518
28282W        W  707   1.044  24.514  13.269
28283W        W  708   1.024  27.872  10.823
28284W        W  709  28.981  27.235  11.604
28285W        W  710  10.622  39.659   1.318
28286W        W  711  30.422  20.637   1.583
28287W        W  712  19.641  44.596  12.446
28288W        W  713  27.068  31.133   2.357
28289W        W  714  12.019   4.121   2.698
28290W        W  715   1.518  44.508   1.873
28291W        W  716  16.117   9.182   4.793
28292W        W  717   0.677  20.858  14.435
28293W        W  718  40.864  22.772   4.567
28294W        W  719  37.974  27.454  13.903
28295W        W  720  20.053  33.870  12.174
28296W        W  721  38.496  24.570  14.473
28297W        W  722  15.614  35.006   1.241
28298W        W  723  14.250  42.310   3.291
28299W        W  724  31.041   1.891   1.956
28300W        W  725  13.377   4.952  14.846
28301W        W  726  15.114   5.954  12.550
28302W        W  727  20.469  13.629  14.843
28303W        W  728  34.528  17.579   3.798
28304W        W  729  17.378   5.421  13.432
28305W        W  730  20.777  33.199  10.700
28306W        W  731  10.653  30.718  13.087
28307W        W  732  44.395   2.272  14.816
28308W        W  733  15.202  11.298   1.374
28309W        W  734  27.996   8.504  11.193
28310W        W  735  27.161  28.006  12.440
28311W        W  736  40.494   5.688  12.521
28312W        W  737  10.599   6.332   0.388
28313W        W  738  24.661  18.796   4.538
28314W        W  739  44.366  23.244   2.778
28315W        W  740  26.944  15.845  13.846
28316W        W  741  25.920   0.940  12.563
28317W        W  742  20.637  28.391  11.121
28318W        W  743  21.635  28.739  11.116
28319W        W  744   7.660  25.625   2.477
28320W        W  745  14.580  29.744   0.750
28321W        W  746  23.780  34.169   4.288
28322W        W  747   1.658  35.948   4.513
28323W        W  748  33.557   2.861   2.385
28324W        W  749  32.533  17.636   1.617
28325W        W  750  35.983  34.214   4.124
28326W        W  751  12.675  23.565   2.380
28327W        W  752  44.012  42.896  10.685
28328W        W  753   6.307  33.348  10.943
28329W        W  754  23.704  36.637   1.757
28330W        W  755  42.014  21.372  13.584
28331W        W  756   5.743  13.830  13.619
28332W        W  757  15.219  34.625  12.573
28333W        W  758  44.828  17.068   0.865
28334W        W  759  11.261  23.026   2.323
28335W        W  760  32.005  13.483   5.096
28336W        W  761   4.700  25.607  11.186
28337W        W  762   8.431  44.937  13.955
28338W        W  763   3.456  32.635   0.356
28339W        W  764   3.668  32.029   1.289
28340W        W  765  22.242  13.853   0.353
28341W        W  766   2.364  37.927   3.341
28342W        W  767  26.859  17.272   0.939
28343W        W  768  44.929  41.440   0.971
28344W        W  769  44.511   3.322   1.783
28345W        W  770   5.754   2.518   3.248
28346W        W  771  22.129  41.047   3.362
28347W        W  772   9.382   0.179  12.563
28348W        W  773  27.586  41.531   1.468
28349W        W  774  20.167  21.577   1.841
28350W        W  775  30.804  23.827  10.892
28351W        W  776  42.519   9.611  11.067
28352W        W  777  42.983  19.326  14.310
28353W        W  778  23.913  23.036   3.194
28354W        W  779  24.879  44.589   4.557
28355W        W  780   6.414  30.819  14.496
28356W        W  781  38.498   6.347   2.256
28357W        W  782  12.629  21.668  12.647
28358W        W  783   2.280  23.802  13.361
28359W        W  784  26.094  12.093   4.266
28360W        W  785  19.057  24.717   1.865
28361W        W  786  11.358  11.932   0.920
28362W        W  787  31.928  15.525  10.151
28363W        W  788   9.804  38.765   2.615
28364W        W  789  41.379  44.521  14.334
28365W        W  790  35.074  10.737  11.553
28366W        W  791  38.049  39.969   2.319
28367W        W  792  25.417   3.954   3.624
28368W        W  793  43.287  37.971   3.209
28369W        W  794  22.949  17.575  14.798
28370W        W  795   6.661  11.324   0.834
28371W        W  796  33.894  43.064  13.012
28372W        W  797  41.007   8.735   0.791
28373W        W  798  15.119   1.901  13.803
28374W        W  799   5.769  32.473  13.830
28375W        W  800   4.282  29.153   4.178
28376W        W  801  40.371   4.903   3.173
28377W        W  802  38.943  28.881   4.152
28378W        W  803  15.435  23.037   1.761
28379W        W  804   1.642  23.275   3.174
28380W        W  805  21.017   2.590  12.973
28381W        W  806  13.811  39.042  14.433
28382W        W  807  38.360   2.144  13.553
28383W        W  808  26.091  15.888  10.251
28384W        W  809  43.709   6.685   4.114
28385W        W  810  36.139  38.140   3.324
28386W        W  811  22.218  21.895  10.570
28387W        W  812  17.479  16.119   2.742
28388W        W  813  34.447   3.222   2.793
28389W        W  814  39.603   8.751  10.503
28390W        W  815   4.495  25.450  10.501
28391W        W  816   9.214  10.588   1.283
28392W        W  817  16.451  31.516  11.098
28393W        W  818   5.187  19.176  11.608
28394W        W  819  20.747  26.753  12.106
28395W        W  820   1.383  14.070  13.956
28396W        W  821  20.178  19.063  11.413
28397W        W  822  20.073  25.136  14.051
28398W        W  823  25.279  24.166   1.752
28399W        W  824  29.469  15.627   1.498
28400W        W  825  42.829  38.343  12.065
28401W        W  826  23.431   8.078  10.951
28402W        W  827  35.627  13.843  10.753
28403W        W  828  40.418  44.756  12.041
28404W        W  829  27.809  34.281  12.515
28405W        W  830  40.050  10.844   3.698
28406W        W  831  41.552  37.432   1.864
28407W        W  832  17.351   7.847   1.253
28408W        W  833  20.137   6.220   3.346
28409W        W  834  16.077  16.203  14.802
28410W        W  835  18.207  43.789  13.369
28411W        W  836  12.161  27.681   3.397
28412W        W  837  13.117   0.559  12.429
28413W        W  838   1.353  32.779   2.915
28414W        W  839  13.601  42.936   4.818
28415W        W  840  10.640  35.836   0.394
28416W        W  841  33.335  24.571  10.833
28417W        W  842  18.057   6.393   1.658
28418W        W  843  27.255  22.473   2.593
28419W        W  844  20.090  28.867   1.947
28420W        W  845  39.810  25.545   2.851
28421W        W  846  37.820  12.192   2.236
28422W        W  847  21.967  35.510  11.443
28423W        W  848  24.792  32.034   2.514
28424W        W  849  34.661  33.521  11.577
28425W        W  850  29.510   6.814  13.422
28426W        W  851  17.868  15.775  12.466
28427W        W  852  33.171  40.826   3.181
28428W        W  853  35.169   9.389   2.330
28429W        W  854  41.326  19.314  14.928
28430W        W  855   8.495  22.966   0.968
28431W        W  856   5.377  29.677  14.064
28432W        W  857  37.782  39.981   2.776
28433W        W  858   2.732  40.770   1.309
28434W        W  859  35.514   0.278  12.928
28435W        W  860  22.656   8.069   1.846
28436W        W  861  33.043  15.775  10.252
28437W        W  862  34.243  35.479  12.926
28438W        W  863   7.155   7.347  14.033
28439W        W  864  40.102  39.777   1.397
28440W        W  865  39.471  21.201   0.112
28441W        W  866  18.312  31.429   0.029
28442W        W  867  40.244  34.160   4.086
28443W        W  868   8.225  34.322   1.948
28444W        W  869  14.621  17.531   2.245
28445W        W  870  29.992  36.105  11.814
28446W        W  871  15.723  20.595   4.827
28447W        W  872  25.167  21.146  11.061
28448W        W  873   5.238  43.242   3.172
28449W        W  874   2.783  40.798   1.813
28450W        W  875  14.565  32.567  10.245
28451W        W  876   9.506  25.301   4.309
28452W        W  877  30.245  21.219  10.472
28453W        W  878  13.812  14.692   0.787
28454W        W  879   8.951  27.359  14.003
28455W        W  880   9.719  27.059   4.799
28456W        W  881  15.330  18.134  13.185
28457W        W  882   9.150  26.835  10.404
28458W        W  883  11.404   5.335   0.512
28459W        W  884  25.779  37.932   2.823
28460W        W  885  44.431  37.575   2.411
28461W        W  886  10.413  31.310   0.349
28462W        W  887  41.762   1.765  14.011
28463W        W  888  25.842  13.316   1.285
28464W        W  889  27.942  43.707  14.160
28465W        W  890  12.058  12.364  12.993
28466W        W  891  14.202  31.501  11.424
28467W        W  892  37.472  37.036  12.110
28468W        W  893   1.457   2.362  10.405
28469W        W  894  23.071  33.473   1.788
28470W        W  895   9.844  19.940   0.917
28471W        W  896  32.640  41.377  12.789
28472W        W  897  12.716   1.813   9.746
28473W        W  898   4.308  29.870  13.331
28474W        W  899  19.444  27.070   0.799
28475W        W  900  42.056  28.696   0.972
28476W        W  901  17.328  36.950   2.764
28477W        W  902  37.712  15.684  12.552
28478W        W  903  13.123  36.124   0.019
28479W        W  904  44.780  27.504  10.947
28480W        W  905  32.412   7.556   0.316
28481W        W  906  13.651  29.654   2.707
28482W        W  907  44.311  15.022  11.146
28483W        W  908  29.649   6.770  13.912
28484W        W  909  42.730  35.042   0.322
28485W        W  910  28.481  44.872  13.677
28486W        W  911  20.461  34.661  10.747
28487W        W  912  13.120   9.273  10.688
28488W        W  913   4.620  44.772   2.484
28489W        W  914   3.788  13.716   3.204
28490W        W  915   1.434   0.929  12.589
28491W        W  916  24.418  38.555   0.026
28492W        W  917  19.644  31.321  11.554
28493W        W  918   3.215   6.320  11.929
28494W        W  919  37.029  14.394   0.837
28495W        W  920   4.837  28.002   4.209
28496W        W  921  37.694  23.135  13.471
28497W        W  922  27.847  28.452   0.778
28498W        W  923   4.914  21.042  11.067
28499W        W  924  21.361  42.056  10.648
28500W        W  925  38.120  43.479   0.293
28501W        W  926  28.688  25.112   2.416
28502W        W  927  37.681  30.371  10.045
28503W        W  928  20.742   0.712  11.781
28504W        W  929  43.942   2.955   4.282
28505W        W  930  18.589   3.166  11.669
28506W        W  931   9.915   7.478   3.387
28507W        W  932  23.853  15.857  14.895
28508W        W  933  10.828  11.265  12.560
28509W        W  934  39.448   3.613   3.285
28510W        W  935  43.232   4.546  11.680
28511W        W  936  11.483  41.061   9.963
28512W        W  937  18.737  35.073   1.177
28513W        W  938   3.440  20.889   1.287
28514W        W  939   2.873  16.368   2.680
28515W        W  940   5.711  29.849  12.430
28516W        W  941  38.333   5.446   0.927
28517W        W  942   5.978  29.117   0.866
28518W        W  943  33.578  44.911  11.166
28519W        W  944  36.067  10.900   1.880
28520W        W  945   9.212  25.446   3.860
28521W        W  946  19.201  24.784  11.947
28522W        W  947  43.642  44.921  14.408
28523W        W  948  39.422  42.075   4.276
28524W        W  949  13.822  40.933  11.175
28525W        W  950  26.602   8.702  12.269
28526W        W  951   2.173  20.646   4.928
28527W        W  952   8.429  23.232   4.059
28528W        W  953   5.828  17.199   1.331
28529W        W  954  40.237  32.936   3.597
28530W        W  955  17.111  23.655   3.761
28531W        W  956  42.321  32.934   4.347
28532W        W  957  30.282  31.002   0.756
28533W        W  958  41.011   6.475   2.713
28534W        W  959   0.315  36.138  12.712
28535W        W  960   3.880   2.509  14.813
28536W        W  961  19.831  38.460  11.752
28537W        W  962  25.085   5.407   4.516
28538W        W  963  30.333  14.674  14.416
28539W        W  964  38.020  18.794   4.146
28540W        W  965  38.683  43.590   0.264
28541W        W  966   0.450   4.049   3.689
28542W        W  967  44.023   4.322  11.932
28543W        W  968   5.893  36.515  11.528
28544W        W  969  25.128  24.017   4.597
28545W        W  970  41.389  23.937   2.673
28546W        W  971  12.861  31.463   0.027
28547W        W  972  20.304  30.503   4.298
28548W        W  973  18.294  12.181   3.414
28549W        W  974  12.649  14.649  10.794
28550W        W  975  37.778  12.663  13.935
28551W        W  976   2.176  16.228  13.958
28552W        W  977  39.393  32.072   2.223
28553W        W  978  39.505   8.904  14.718
28554W        W  979  22.187  12.897   3.643
28555W        W  980  20.839  37.777  12.559
28556W        W  981  14.261  14.646   0.297
28557W        W  982  10.428   7.874  12.811
28558W        W  983  17.940  33.610   0.797
28559W        W  984  16.968   8.909  11.662
28560W        W  985  17.498  31.598  13.328
28561W        W  986  11.358  17.658   2.893
28562W        W  987  32.623  20.360  13.702
28563W        W  988   4.265   4.365  13.687
28564W        W  989  25.487  36.416  14.846
28565W        W  990  28.702  23.842  10.894
28566W        W  991  18.564  32.068   1.697
28567W        W  992  17.306  18.466   3.234
28568W        W  993  25.628  41.119  10.707
28569W        W  994  15.552  28.129   3.069
28570W        W  995   8.119  27.423   3.766
28571W        W  996  19.285  27.323  13.018
28572W        W  997   5.983  15.055  14.892
28573W        W  998  19.820  17.060  11.862
28574W        W  999  11.931   4.425  14.033
28575W        W 1000   4.525  23.999  11.995
28576W        W 1001   4.918   5.723   1.649
28577W        W 1002   7.070  17.828   4.981
28578W        W 1003  13.758  35.950  10.651
28579W        W 1004   0.480  31.957   0.157
28580W        W 1005   0.237  43.252  14.808
28581W        W 1006  25.949  13.451  11.792
28582W        W 1007  18.078  12.780   4.552
28583W        W 1008  42.808  26.579  14.556
28584W        W 1009  40.270   6.219  11.041
28585W        W 1010  12.204   0.944  13.287
28586W        W 1011  18.879  37.497   3.208
28587W        W 1012  41.308  13.963   1.757
28588W        W 1013  29.584  23.205   0.356
28589W        W 1014  10.295  10.918  13.433
28590W        W 1015   2.174  44.279  14.741
28591W        W 1016  35.422   8.392   2.198
28592W        W 1017  37.859  26.446  11.457
28593W        W 1018   2.421   1.793  12.419
28594W        W 1019  21.706   6.916  13.840
28595W        W 1020  18.143   4.363   2.180
28596W        W 1021  36.428  40.652  10.095
28597W        W 1022  10.089  20.554   3.656
28598W        W 1023  23.959  39.233   3.645
28599W        W 1024  27.537  33.403  11.174
28600W        W 1025  18.589  34.027   2.483
28601W        W 1026  27.927  28.472  12.047
28602W        W 1027  37.095  12.284  12.825
28603W        W 1028   6.583   2.352   0.950
28604W        W 1029  23.876  31.457  11.830
28605W        W 1030  13.676  11.930   2.702
28606W        W 1031  21.242  25.134   2.292
28607W        W 1032   7.309   6.905  13.804
28608W        W 1033  29.435  28.270  10.589
28609W        W 1034  43.930  16.107   1.692
28610W        W 1035  13.674  10.735   3.183
28611W        W 1036  23.127  24.647  11.228
28612W        W 1037  35.413   1.598  13.033
28613W        W 1038  33.061  17.005  10.697
28614W        W 1039  43.832  32.829  14.229
28615W        W 1040  26.454  23.636  14.676
28616W        W 1041  31.901  27.735   3.836
28617W        W 1042  35.644  24.037   0.944
28618W        W 1043  10.509  26.185   2.832
28619W        W 1044  12.360  37.964  11.680
28620W        W 1045   5.262  12.759  11.196
28621W        W 1046  21.834  17.563   2.255
28622W        W 1047  12.076   2.949  10.639
28623W        W 1048  16.995  23.064  11.021
28624W        W 1049   9.118  26.133   2.494
28625W        W 1050  25.070  23.053   2.530
28626W        W 1051  41.406  12.628  12.049
28627W        W 1052  38.611  15.726   0.464
28628W        W 1053   1.559  29.382  11.181
28629W        W 1054   7.978  27.102  11.652
28630W        W 1055  12.391  40.816  11.083
28631W        W 1056   3.938   3.602  12.420
28632W        W 1057  36.125  27.150  14.066
28633W        W 1058   3.352  13.041   0.787
28634W        W 1059  41.801  11.335   3.349
28635W        W 1060  36.552  27.966   1.380
28636W        W 1061   3.509   2.839   0.987
28637W        W 1062   9.886  38.817  11.116
28638W        W 1063  38.783  28.424   1.446
28639W        W 1064  18.716  44.475   3.727
28640W        W 1065   7.240   8.019  14.870
28641W        W 1066  36.772   6.317   5.078
28642W        W 1067  39.346  17.870   4.555
28643W        W 1068  27.081  14.695   4.778
28644W        W 1069  34.509  33.619  12.101
28645W        W 1070  40.507  42.257  11.590
28646W        W 1071  28.013   2.406   4.949
28647W        W 1072   2.687  36.002  14.608
28648W        W 1073  36.873   6.375   0.285
28649W        W 1074  13.136  15.112   3.734
28650W        W 1075   9.548  30.747   2.248
28651W        W 1076   9.972  27.037   1.984
28652W        W 1077   9.159  21.607  11.941
28653W        W 1078  22.559   5.293   1.635
28654W        W 1079  20.190  36.394  13.864
28655W        W 1080   8.669  43.900  11.907
28656W        W 1081  28.263  16.198   1.323
28657W        W 1082   0.958  24.021   3.437
28658W        W 1083  26.534  36.560   1.620
28659W        W 1084  15.135  37.786  13.478
28660W        W 1085  41.986  21.285  10.242
28661W        W 1086   8.384  19.294   3.186
28662W        W 1087  36.321   7.862   2.165
28663W        W 1088  33.295   9.114   0.050
28664W        W 1089   2.055  19.334   4.197
28665W        W 1090   4.798  16.787   1.324
28666W        W 1091  44.786  36.002  12.285
28667W        W 1092  43.412  21.638   5.146
28668W        W 1093  18.111   6.501  12.661
28669W        W 1094  19.070  32.744   1.178
28670W        W 1095  42.357  13.953  13.552
28671W        W 1096  26.750  22.494   2.766
28672W        W 1097  21.046  13.835   3.140
28673W        W 1098   6.535   3.680  12.394
28674W        W 1099  17.627   7.949   4.130
28675W        W 1100  16.746  37.056  12.976
28676W        W 1101  36.613  37.800   0.020
28677W        W 1102  32.970   9.557  11.663
28678W        W 1103   3.274  24.886  14.321
28679W        W 1104  10.708   9.830  10.720
28680W        W 1105  12.319  39.353   0.838
28681W        W 1106  11.315  31.950   1.181
28682W        W 1107  13.588  26.123   2.388
28683W        W 1108  37.338   7.642   3.019
28684W        W 1109  19.336  31.226  12.128
28685W        W 1110   2.890  11.943  12.884
28686W        W 1111  22.313  20.518   0.831
28687W        W 1112  11.833  16.114   3.396
28688W        W 1113  36.337  24.695   0.770
28689W        W 1114  32.083  42.354   1.377
28690W        W 1115   1.940  32.892  14.477
28691W        W 1116  22.544  22.146   0.273
28692W        W 1117  42.267   4.991   4.104
28693W        W 1118   5.746  10.800   1.010
28694W        W 1119   7.636  36.948   1.387
28695W        W 1120   0.284  37.474  13.753
28696W        W 1121  30.887  41.440   1.768
28697W        W 1122   0.943  34.917  11.652
28698W        W 1123  14.202  16.547   3.622
28699W        W 1124  27.917  38.963   1.739
28700W        W 1125  33.867  42.496  11.244
28701W        W 1126  18.246  30.975  13.139
28702W        W 1127  33.882  29.907   3.677
28703W        W 1128  35.157   8.150  13.446
28704W        W 1129  18.280  44.616  14.487
28705W        W 1130  21.686   0.491  14.468
28706W        W 1131  31.495   0.442  11.317
28707W        W 1132  10.878  38.749   3.101
28708W        W 1133  22.956  22.127   4.480
28709W        W 1134   2.269  39.075  11.940
28710W        W 1135   5.668  36.864   1.772
28711W        W 1136   0.473  31.529  12.337
28712W        W 1137  34.878  13.640  13.337
28713W        W 1138  18.080   7.794   0.491
28714W        W 1139  28.162  28.692  11.628
28715W        W 1140  30.906  14.465   1.306
28716W        W 1141  30.012  35.958   0.261
28717W        W 1142  10.348  38.796   0.215
28718W        W 1143  24.087  44.034   0.933
28719W        W 1144  26.469  40.719  12.061
28720W        W 1145  23.264  24.143  11.474
28721W        W 1146   7.335   7.219   0.335
28722W        W 1147  44.105  25.653   3.472
28723W        W 1148  36.830  31.693  10.400
28724W        W 1149   6.691  15.272  11.623
28725W        W 1150   0.756  16.594   0.693
28726W        W 1151  23.764  14.302   2.751
28727W        W 1152  43.260  17.964   3.609
28728W        W 1153   7.729  39.848  11.467
28729W        W 1154  35.732  25.089   0.019
28730W        W 1155  25.842  35.322   3.149
28731W        W 1156  11.073  30.210   2.384
28732W        W 1157  24.176  34.860  10.564
28733W        W 1158  42.755  34.961  12.960
28734W        W 1159  11.640  16.599   1.909
28735W        W 1160   5.707  40.528   4.032
28736W        W 1161  13.888   7.914  12.856
28737W        W 1162  18.204  36.563   0.869
28738W        W 1163   2.969  39.516  14.303
28739W        W 1164   1.501  16.540   0.849
28740W        W 1165  13.204  26.681  13.467
28741W        W 1166  18.568  38.523   1.781
28742W        W 1167  44.356  26.523   2.611
28743W        W 1168  38.945  33.583   4.492
28744W        W 1169  29.410  40.045  10.595
28745W        W 1170  37.834  14.218   3.698
28746W        W 1171   6.751   3.873   4.595
28747W        W 1172  40.751  18.548  14.518
28748W        W 1173  10.821  22.016   1.726
28749W        W 1174   8.864  34.046  10.929
28750W        W 1175  33.306  39.072   0.782
28751W        W 1176  38.461  27.146  13.873
28752W        W 1177   7.509  40.538  11.969
28753W        W 1178  24.541  41.073   1.654
28754W        W 1179  42.430  11.219   1.989
28755W        W 1180  12.253  43.983  12.567
28756W        W 1181  44.279  34.169  11.077
28757W        W 1182  43.451  41.313   4.133
28758W        W 1183  39.404  40.308  11.558
28759W        W 1184  31.456  30.037   0.727
28760W        W 1185  10.683   7.083  13.627
28761W        W 1186   4.644   2.442  11.926
28762W        W 1187  33.852  40.388  12.474
28763W        W 1188  22.239  26.965  10.259
28764W        W 1189  30.274  29.560   2.689
28765W        W 1190  39.015  19.106   2.349
28766W        W 1191  16.135  28.607  12.359
28767W        W 1192  40.203  14.654   1.508
28768W        W 1193  30.452  24.990  12.024
28769W        W 1194  22.566   8.798  13.544
28770W        W 1195  26.634  34.902   3.277
28771W        W 1196  34.949   8.418  14.880
28772W        W 1197  20.085  18.505   1.630
28773W        W 1198  29.803  32.806   2.772
28774W        W 1199  23.892  30.952  12.024
28775W        W 1200  20.639  40.088   4.678
28776W        W 1201  41.330  27.241  11.073
28777W        W 1202  32.124  25.506  12.074
28778W        W 1203  21.253  29.560   4.100
28779W        W 1204   1.339   5.962  13.704
28780W        W 1205  31.099  11.292  14.861
28781W        W 1206  39.438   1.252   0.290
28782W        W 1207  27.289   2.861   2.391
28783W        W 1208  33.650  34.421   4.772
28784W        W 1209  29.181  33.561   3.998
28785W        W 1210  28.542  22.821  11.048
28786W        W 1211  33.935  28.516  11.560
28787W        W 1212  23.017  37.835   1.350
28788W        W 1213  40.591  24.172   1.884
28789W        W 1214  33.287   0.387   3.836
28790W        W 1215  24.949  25.502  14.753
28791W        W 1216  22.454  11.218  14.813
28792W        W 1217  13.837  17.286   4.843
28793W        W 1218  27.849   2.367   3.265
28794W        W 1219  41.920  41.523  13.789
28795W        W 1220  19.244  25.039   4.762
28796W        W 1221  22.673  42.339   2.462
28797W        W 1222  25.376  39.591   2.691
28798W        W 1223   6.228  31.950  13.468
28799W        W 1224  24.369  44.537   2.295
28800W        W 1225  23.457   5.303  11.540
28801W        W 1226  44.462  17.022   0.397
28802W        W 1227  21.969  13.365   3.728
28803W        W 1228  11.691  42.659   3.373
28804W        W 1229   4.860  16.017  14.044
28805W        W 1230  41.820  14.261  13.636
28806W        W 1231  19.452  14.800  14.715
28807W        W 1232  26.515  34.162   4.290
28808W        W 1233   5.268   6.056   3.859
28809W        W 1234   7.648   5.064   2.193
28810W        W 1235  41.795  43.377  13.526
28811W        W 1236  17.003   1.548   1.487
28812W        W 1237  16.878   4.247   0.362
28813W        W 1238  27.674   6.368   1.654
28814W        W 1239   5.112   3.682   0.162
28815W        W 1240   3.680  33.355  14.748
28816W        W 1241  31.199   9.449   2.385
28817W        W 1242  30.926  39.356   3.653
28818W        W 1243   0.716  23.257  14.328
28819W        W 1244   4.103   0.497   4.150
28820W        W 1245   0.336  31.415  10.913
28821W        W 1246  17.293   6.284  11.579
28822W        W 1247  43.947  35.852  10.766
28823W        W 1248  27.500  22.866   2.833
28824W        W 1249  22.982   7.953  14.328
28825W        W 1250  43.480  15.515  10.843
28826W        W 1251  32.332  35.418   0.300
28827W        W 1252   9.650  43.588  10.695
28828W        W 1253   7.326  43.726  12.529
28829W        W 1254  33.444   4.467   0.598
28830W        W 1255  35.181  17.862   3.996
28831W        W 1256  27.551  17.990   0.313
28832W        W 1257  10.164  39.103  14.736
28833W        W 1258  21.550   5.083  13.413
28834W        W 1259  10.604  28.370  14.915
28835W        W 1260  37.003  33.821  14.517
28836W        W 1261  34.861   3.190   3.326
28837W        W 1262  36.741   7.452  11.483
28838W        W 1263  24.593  20.916   4.482
28839W        W 1264  21.815   7.708   1.892
28840W        W 1265  16.334   9.792  13.845
28841W        W 1266  38.544  20.186  11.502
28842W        W 1267  18.180  23.814  13.886
28843W        W 1268  19.285  43.390   0.743
28844W        W 1269  42.515  42.507  14.452
28845W        W 1270  12.278  39.764  13.005
28846W        W 1271  23.646   3.893  11.280
28847W        W 1272   8.397  21.608  14.865
28848W        W 1273  21.527  42.090  14.884
28849W        W 1274  37.646  34.884   3.090
28850W        W 1275   1.073  18.054  12.751
28851W        W 1276  17.850  41.380   2.758
28852W        W 1277  16.069  11.092  10.642
28853W        W 1278  37.371  12.492  10.789
28854W        W 1279  44.485   0.618  12.342
28855W        W 1280  16.330  15.259   4.618
28856W        W 1281  31.880  36.876  13.398
28857W        W 1282  31.474  24.097  10.005
28858W        W 1283  36.941  19.674  12.106
28859W        W 1284  28.487  15.048  11.006
28860W        W 1285  40.498  32.528   3.907
28861W        W 1286   2.845  18.674  10.680
28862W        W 1287  22.627  38.644  10.964
28863W        W 1288  27.254  24.003  13.373
28864W        W 1289  35.564  13.771   0.532
28865W        W 1290   3.360  25.213   2.237
28866W        W 1291  10.597  24.284  14.943
28867W        W 1292  42.734  31.479  10.683
28868W        W 1293   6.859  16.817  13.726
28869W        W 1294  20.831  13.536   4.219
28870W        W 1295  38.231   2.758   0.021
28871W        W 1296  18.325  25.178  10.640
28872W        W 1297  16.385  19.990   3.706
28873W        W 1298   6.748  17.752  13.796
28874W        W 1299   3.228  27.443  12.004
28875W        W 1300  18.107  13.618   2.353
28876W        W 1301  17.798   1.977  11.578
28877W        W 1302  12.873  23.480   1.876
28878W        W 1303   5.942   4.652  11.959
28879W        W 1304  21.266  33.377   1.268
28880W        W 1305  27.436  38.016  12.365
28881W        W 1306   9.643  12.592   3.210
28882W        W 1307   7.674  19.693   1.259
28883W        W 1308   6.450   1.609   2.560
28884W        W 1309   9.916  42.369  13.914
28885W        W 1310   1.458   2.427   2.497
28886W        W 1311  30.123  16.702   2.245
28887W        W 1312   7.270  31.012   0.824
28888W        W 1313  22.235  36.916  12.632
28889W        W 1314  43.379  18.971   4.853
28890W        W 1315   0.245  15.388   3.249
28891W        W 1316  15.435  43.727  10.657
28892W        W 1317  38.579  22.377   3.266
28893W        W 1318   3.310  18.949  13.835
28894W        W 1319   7.875  38.277   4.765
28895W        W 1320  29.122  40.052   4.878
28896W        W 1321  44.870  15.360   4.380
28897W        W 1322  41.452   2.729   4.266
28898W        W 1323  33.240  17.774   3.281
28899W        W 1324  18.000   4.414  11.564
28900W        W 1325  31.983  11.657  11.894
28901W        W 1326  33.681  16.292  14.358
28902W        W 1327  28.611   5.916  12.482
28903W        W 1328  31.519  42.737   2.864
28904W        W 1329   4.437  32.275  10.163
28905W        W 1330  34.818   6.843  11.953
28906W        W 1331  33.525   8.236  14.404
28907W        W 1332  26.543   7.284  13.493
28908W        W 1333  26.666  19.463  11.529
28909W        W 1334  35.776  16.083   0.417
28910W        W 1335  44.082   5.006   2.657
28911W        W 1336  24.632  43.887   3.999
28912W        W 1337  38.094  29.005   4.202
28913W        W 1338  30.016  43.814   3.780
28914W        W 1339  29.949  38.218   5.502
28915W        W 1340  39.339  41.312   4.641
28916W        W 1341   2.378   2.484  13.230
28917W        W 1342   1.227  34.485   2.316
28918W        W 1343   6.805  13.327   2.705
28919W        W 1344  16.023  17.330  14.430
28920W        W 1345  15.655  43.278   3.080
28921W        W 1346  17.023  15.507   1.910
28922W        W 1347  24.606  10.077  12.896
28923W        W 1348  14.738  33.068  14.847
28924W        W 1349   9.246  43.253  10.624
28925W        W 1350   0.288  39.899   3.150
28926W        W 1351   6.722  11.379  13.990
28927W        W 1352  28.860   2.651   1.718
28928W        W 1353  29.686  42.710  14.844
28929W        W 1354  30.661  15.673   0.067
28930W        W 1355  40.238  36.302  13.831
28931W        W 1356  22.004  42.839  12.001
28932W        W 1357  40.387  22.798   0.879
28933W        W 1358   5.373  14.194  13.569
28934W        W 1359  12.913  15.248   2.267
28935W        W 1360   3.698  41.559  12.421
28936W        W 1361  29.496  33.046   0.573
28937W        W 1362  14.991  17.375  14.430
28938W        W 1363  18.917  21.264  13.365
28939W        W 1364   5.860   9.945  14.285
28940W        W 1365  44.293  34.636  13.920
28941W        W 1366  24.746  26.363  12.515
28942W        W 1367   7.659   9.257   4.257
28943W        W 1368  11.044  38.130   2.574
28944W        W 1369  44.128  31.121  11.995
28945W        W 1370  34.834  36.747  12.991
28946W        W 1371  18.607  17.799   4.747
28947W        W 1372  43.803  15.098  13.271
28948W        W 1373   2.754  23.440   1.018
28949W        W 1374  31.446  28.178   4.624
28950W        W 1375  38.120  25.515  14.285
28951W        W 1376  41.415  38.268   3.451
28952W        W 1377   3.196  26.836  13.472
28953W        W 1378  10.384  17.300   1.318
28954W        W 1379  34.421   1.054  11.646
28955W        W 1380  14.946  38.080  14.949
28956W        W 1381  18.490  32.940  11.946
28957W        W 1382  19.276  18.955   3.276
28958W        W 1383  15.753  17.325   2.741
28959W        W 1384   0.725  19.127   4.153
28960W        W 1385  43.869  28.174   2.752
28961W        W 1386  26.125  39.281  10.668
28962W        W 1387  22.916   0.884  12.498
28963W        W 1388  27.986  31.969   4.643
28964W        W 1389  44.700  43.238  11.275
28965W        W 1390  44.764  16.279   3.919
28966W        W 1391   9.247  32.406   3.340
28967W        W 1392  14.671   4.274   0.282
28968W        W 1393  24.310  30.727  12.827
28969W        W 1394  26.102  39.471  12.961
28970W        W 1395  28.126  28.922   3.676
28971W        W 1396  39.541  20.176   0.002
28972W        W 1397  33.157   1.839  14.108
28973W        W 1398   1.855  13.009   4.572
28974W        W 1399  37.576  15.241  10.430
28975W        W 1400  36.624  11.496   4.085
28976W        W 1401   5.620  23.602   4.592
28977W        W 1402  28.073  38.398  11.128
28978W        W 1403  19.688  32.170  12.071
28979W        W 1404  42.005  38.891   1.893
28980W        W 1405  19.768  23.669  10.666
28981W        W 1406   2.676  33.078   3.316
28982W        W 1407  14.675   7.115  12.013
28983W        W 1408  35.613  42.520  10.772
28984W        W 1409   8.406   9.752  14.921
28985W        W 1410  16.116   7.246  12.567
28986W        W 1411  31.371  12.687   0.858
28987W        W 1412   4.812  10.136   4.067
28988W        W 1413   0.961  19.214  14.912
28989W        W 1414  40.338  42.254   2.672
28990W        W 1415   2.844  14.928  10.805
28991W        W 1416  37.012   4.310   4.501
28992W        W 1417  21.985   5.196   0.225
28993W        W 1418  42.561  36.601   4.435
28994W        W 1419  11.048  28.931  12.705
28995W        W 1420   5.172  17.530   3.247
28996W        W 1421  15.872  29.111  11.147
28997W        W 1422  32.628  43.902  14.072
28998W        W 1423  39.590  44.903  10.555
28999W        W 1424   3.823  37.608  12.935
29000W        W 1425  41.375  12.791  11.550
29001W        W 1426  32.899   6.089  10.611
29002W        W 1427  29.055   1.785   0.485
29003W        W 1428  39.480  32.132   3.162
29004W        W 1429   1.939  27.260   0.152
29005W        W 1430  13.749  39.670   1.878
29006W        W 1431   9.690  41.762   2.467
29007W        W 1432  30.428   0.385  13.413
29008W        W 1433  15.632  27.882  11.711
29009W        W 1434  39.498  20.254   2.767
29010W        W 1435   9.536  13.634  14.231
29011W        W 1436  29.836  15.429  11.240
29012W        W 1437  34.496  40.732  12.511
29013W        W 1438  39.446  16.083  12.051
29014W        W 1439  30.543  11.644   2.674
29015W        W 1440  22.546  19.096   3.636
29016W        W 1441  36.045  21.908  14.970
29017W        W 1442   8.617  35.867   0.659
29018W        W 1443  36.797  21.481   0.535
29019W        W 1444  42.375  44.898  10.967
29020W        W 1445   3.709  24.074   0.291
29021W        W 1446  42.355  19.688  11.704
29022W        W 1447  18.022  24.536  12.458
29023W        W 1448   5.894  12.630   0.316
29024W        W 1449  33.081  34.955  10.944
29025W        W 1450   0.769  12.120   3.921
29026W        W 1451  24.279   3.915   0.463
29027W        W 1452  36.123   4.128   1.389
29028W        W 1453  14.873  43.309   3.633
29029W        W 1454  21.475  28.405  11.545
29030W        W 1455  19.257  44.717  12.126
29031W        W 1456  23.642  21.278   1.092
29032W        W 1457   3.394  27.712   4.263
29033W        W 1458  42.469   7.879  14.073
29034W        W 1459  28.079  11.692   0.251
29035W        W 1460   8.619  16.050   0.848
29036W        W 1461  33.898  20.461  12.434
29037W        W 1462  33.279   8.441  10.991
29038W        W 1463  33.333  30.530  13.878
29039W        W 1464  33.381  19.186  13.142
29040W        W 1465  42.050   4.708   3.692
29041W        W 1466   9.128  14.349  13.865
29042W        W 1467  33.859  37.765  11.976
29043W        W 1468  36.001   3.459   5.027
29044W        W 1469  12.226  22.218   2.653
29045W        W 1470  20.513  41.961   1.939
29046W        W 1471   1.955  43.494   3.159
29047W        W 1472  44.210  41.883  10.930
29048W        W 1473  21.704   3.290  14.996
29049W        W 1474   8.155  44.478  12.554
29050W        W 1475  35.814   1.739   2.623
29051W        W 1476   2.808  23.884   0.011
29052W        W 1477   0.234  22.183   3.863
29053W        W 1478  15.442  44.877  13.501
29054W        W 1479  34.047   5.458   3.713
29055W        W 1480  16.777  32.760  13.513
29056W        W 1481   2.321  42.276  11.979
29057W        W 1482  37.593  39.472   0.362
29058W        W 1483  23.158  14.230  11.508
29059W        W 1484  32.875  20.833  12.004
29060W        W 1485  38.813  32.569  13.953
29061W        W 1486  38.036  40.459  12.084
29062W        W 1487   9.644  25.562   3.570
29063W        W 1488  17.750  16.734  12.931
29064W        W 1489  20.070  13.703  12.457
29065W        W 1490  29.912   8.275  14.465
29066W        W 1491   2.653  44.471  14.410
29067W        W 1492   2.131  13.183   4.154
29068W        W 1493  44.030  19.293   2.321
29069W        W 1494  26.969  37.435   1.756
29070W        W 1495   3.311  19.287   1.807
29071W        W 1496  11.831   6.259   2.210
29072W        W 1497  11.711  16.022  12.882
29073W        W 1498   6.431  40.898   1.290
29074W        W 1499  41.377  15.351  14.961
29075W        W 1500  17.722  36.833   4.634
29076W        W 1501  38.548  37.970  14.736
29077W        W 1502  37.578  23.142   3.721
29078W        W 1503  27.026  20.225   0.543
29079W        W 1504  10.256  21.207  13.035
29080W        W 1505  44.281   3.403   1.306
29081W        W 1506  19.991  33.556  10.895
29082W        W 1507  44.718  21.296   5.147
29083W        W 1508  42.015  42.794   1.745
29084W        W 1509  31.748  34.372   0.827
29085W        W 1510  14.043  41.771   4.306
29086W        W 1511   6.166  14.181  12.116
29087W        W 1512   7.876   9.384   0.717
29088W        W 1513   6.708   6.497  13.228
29089W        W 1514  38.923  35.994  12.128
29090W        W 1515  21.663  39.567  12.574
29091W        W 1516  40.552  40.256  11.595
29092W        W 1517  26.645   5.251   0.863
29093W        W 1518   7.679  11.229  12.931
29094W        W 1519  19.649  26.444  13.510
29095W        W 1520  21.114   6.868  11.883
29096W        W 1521  33.947  37.114   2.581
29097W        W 1522  31.913  39.813   1.438
29098W        W 1523  27.438  28.392  11.907
29099W        W 1524  23.136  41.528   2.162
29100W        W 1525  20.325  37.378  14.006
29101W        W 1526  35.555  36.773   0.852
29102W        W 1527   4.891  36.190   9.835
29103W        W 1528  37.535  38.334   1.394
29104W        W 1529  13.209  40.479  10.741
29105W        W 1530  28.931  24.783  10.463
29106W        W 1531   1.244  26.177   3.663
29107W        W 1532  37.015  32.074   0.376
29108W        W 1533  12.141  41.019  14.899
29109W        W 1534  22.829   0.409  13.249
29110W        W 1535  21.616  24.693  14.597
29111W        W 1536  21.167  23.593   2.936
29112W        W 1537   7.439   4.778   0.440
29113W        W 1538   5.261  11.701   1.022
29114W        W 1539  27.478  32.219   4.237
29115W        W 1540  38.980  39.859  13.621
29116W        W 1541   3.511  21.224   4.198
29117W        W 1542  17.149  20.482  12.874
29118W        W 1543  22.115   8.464   2.235
29119W        W 1544   6.408  24.181   4.575
29120W        W 1545  21.624  10.715   1.224
29121W        W 1546  40.528  21.909   3.746
29122W        W 1547  42.368  39.417   0.813
29123W        W 1548  12.785  17.005   3.717
29124W        W 1549  25.495  27.659  12.794
29125W        W 1550  38.854  37.044  11.405
29126W        W 1551  34.641  33.761   3.065
29127W        W 1552   6.906  43.922   2.642
29128W        W 1553   2.708  11.414   0.270
29129W        W 1554  23.016   8.421   1.778
29130W        W 1555  44.103   1.953  12.585
29131W        W 1556  11.832  23.819   2.538
29132W        W 1557  24.577  39.961   3.641
29133W        W 1558   8.519  18.836  12.173
29134W        W 1559  41.000  36.866  13.500
29135W        W 1560  44.370  20.116  11.083
29136W        W 1561  19.589   2.641   3.804
29137W        W 1562   8.493  14.559   3.773
29138W        W 1563  15.147  20.690  10.731
29139W        W 1564  13.149   7.433   4.653
29140W        W 1565  40.839  41.488   2.713
29141W        W 1566  31.834  20.268   1.331
29142W        W 1567  16.729  25.580   0.395
29143W        W 1568  33.432  24.597  12.842
29144W        W 1569  42.867  10.468  13.244
29145W        W 1570  25.102  35.243  14.782
29146W        W 1571   6.479  34.059   0.954
29147W        W 1572   2.769  14.239  13.473
29148W        W 1573   8.235  17.273  14.636
29149W        W 1574  31.847  44.374  13.962
29150W        W 1575   3.586  10.761   0.684
29151W        W 1576  34.950  39.465   3.903
29152W        W 1577  30.206  44.499   1.861
29153W        W 1578   7.643  33.909   2.801
29154W        W 1579  22.039  34.842   3.293
29155W        W 1580  31.607  12.716  14.115
29156W        W 1581  40.492  15.138   4.572
29157W        W 1582   7.669  18.229  10.700
29158W        W 1583  31.845  19.207   2.428
29159W        W 1584  43.976  24.821  12.509
29160W        W 1585   8.982  20.151   1.319
29161W        W 1586   9.897  24.127  12.089
29162W        W 1587  41.662  15.837   2.401
29163W        W 1588  30.881   8.737   1.351
29164W        W 1589  21.760  19.179  10.559
29165W        W 1590  40.421  19.384  11.670
29166W        W 1591   6.196  27.717  13.813
29167W        W 1592  30.492  14.239   2.640
29168W        W 1593  19.386  28.627   4.573
29169W        W 1594  17.090  10.231  10.953
29170W        W 1595   9.119  37.873   2.718
29171W        W 1596   0.741  38.174   1.455
29172W        W 1597  23.216  16.194  14.248
29173W        W 1598  35.020   8.743  11.609
29174W        W 1599   9.707  25.732   4.537
29175W        W 1600  31.608  13.379   0.232
29176W        W 1601  34.832   4.389  12.339
29177W        W 1602   0.991  35.130   2.637
29178W        W 1603   0.288  11.220  13.035
29179W        W 1604  39.337  23.270  10.939
29180W        W 1605  24.149  11.993   5.010
29181W        W 1606  34.323   2.521  14.380
29182W        W 1607  18.207  42.885  12.909
29183W        W 1608   2.289  18.502  12.532
29184W        W 1609  38.054   9.472   4.567
29185W        W 1610  12.795   8.821  14.820
29186W        W 1611  24.163   3.282   4.540
29187W        W 1612  21.182   0.259  13.592
29188W        W 1613  17.758  13.596   2.797
29189W        W 1614  43.087   8.679  13.856
29190W        W 1615   1.770   4.028   0.235
29191W        W 1616  37.063  21.633   2.261
29192W        W 1617  39.959  18.812   1.375
29193W        W 1618  35.038   0.240  14.763
29194W        W 1619  37.600  14.441  11.157
29195W        W 1620  15.384  38.868   3.340
29196W        W 1621  21.583  26.951   3.180
29197W        W 1622  15.240  24.192  10.616
29198W        W 1623  43.299  41.351  11.031
29199W        W 1624  26.042  32.608   9.931
29200W        W 1625  26.560  15.247  13.590
29201W        W 1626  28.037  36.917  12.964
29202W        W 1627  32.172   5.479   4.935
29203W        W 1628   5.922  35.081   3.748
29204W        W 1629  30.067  11.692   0.771
29205W        W 1630  15.868  33.440  11.117
29206W        W 1631   3.689   9.294  13.478
29207W        W 1632  27.038  12.689   0.868
29208W        W 1633  30.051  37.917   1.370
29209W        W 1634   1.264  38.374  11.123
29210W        W 1635  11.311  10.777   3.622
29211W        W 1636  44.450  34.846   2.318
29212W        W 1637  23.813  32.216  10.126
29213W        W 1638  32.085  43.214   3.172
29214W        W 1639   4.051  31.899  12.480
29215W        W 1640  31.318  31.119   0.388
29216W        W 1641   2.896   4.324   4.174
29217W        W 1642  30.816   4.859  12.402
29218W        W 1643  40.465  25.581  11.404
29219W        W 1644   9.334  37.144  12.907
29220W        W 1645  39.835  11.311  13.292
29221W        W 1646  16.247  30.681  14.716
29222W        W 1647  39.545  31.618  12.994
29223W        W 1648  29.984   0.397  14.354
29224W        W 1649  16.652   6.411  14.103
29225W        W 1650  33.269  42.711   0.810
29226W        W 1651  11.390  22.713   3.244
29227W        W 1652   2.736   3.858  11.074
29228W        W 1653  33.111  22.636   3.733
29229W        W 1654   4.558  17.876   1.725
29230W        W 1655   0.850  25.383  13.686
29231W        W 1656  34.424  13.735  10.916
29232W        W 1657  17.680  21.507   4.126
29233W        W 1658  12.318  22.969  14.758
29234W        W 1659   9.017  35.092  11.610
29235W        W 1660  18.461  39.586  14.956
29236W        W 1661  24.220  33.527   2.748
29237W        W 1662  36.829  10.361  13.323
29238W        W 1663  18.623   7.103  13.148
29239W        W 1664  41.442  29.186   0.449
29240W        W 1665  41.379  19.316  13.604
29241W        W 1666  15.203  13.259   4.189
29242W        W 1667  39.467  14.372  14.019
29243W        W 1668  26.184  33.408  14.505
29244W        W 1669  39.298  41.465  11.011
29245W        W 1670  43.043  27.713   2.752
29246W        W 1671   0.889  39.520  12.404
29247W        W 1672  21.193  38.333  11.690
29248W        W 1673   2.395  27.550   1.928
29249W        W 1674  41.755   0.302   2.139
29250W        W 1675  13.663  34.687  13.506
29251W        W 1676  18.806   3.256  12.125
29252W        W 1677  44.243  15.844  11.459
29253W        W 1678   8.978  25.190   4.233
29254W        W 1679  17.679  24.541  11.594
29255W        W 1680  40.062  27.665  10.545
29256W        W 1681  40.345   8.081   2.734
29257W        W 1682  36.765   6.537   3.621
29258W        W 1683  39.492  24.175   0.301
29259W        W 1684  38.204   0.992  12.379
29260W        W 1685  18.732   6.683   0.815
29261W        W 1686   2.668  19.723  12.794
29262W        W 1687  11.765  28.654  12.894
29263W        W 1688  23.129  25.439   2.364
29264W        W 1689  33.501   4.368   1.718
29265W        W 1690  23.233  33.173   1.343
29266W        W 1691  43.182  27.909  12.121
29267W        W 1692  18.666   8.106   2.443
29268W        W 1693  39.054  22.345   1.711
29269W        W 1694  37.798  14.842  10.744
29270W        W 1695   3.824  41.868   4.210
29271W        W 1696  27.172  24.688  11.383
29272W        W 1697  39.307   9.380  13.049
29273W        W 1698  35.322   7.956  11.214
29274W        W 1699  27.105   9.828   4.119
29275W        W 1700  32.189  41.696   3.276
29276W        W 1701   6.320  41.933   2.347
29277W        W 1702   2.946  40.041  12.432
29278W        W 1703  11.348  41.525  14.765
29279W        W 1704  41.300   5.278   2.769
29280W        W 1705  19.789  38.043  11.409
29281W        W 1706  36.705   9.273   1.257
29282W        W 1707   7.832  12.775  10.733
29283W        W 1708   4.868  27.999  14.537
29284W        W 1709  30.122  30.093  13.924
29285W        W 1710  17.673   4.936   2.798
29286W        W 1711  11.377   0.773  11.441
29287W        W 1712  17.276  39.527  11.559
29288W        W 1713   7.624  29.432  13.854
29289W        W 1714  42.067  12.928   3.285
29290W        W 1715  30.329  11.323   0.353
29291W        W 1716  13.157  38.526   1.968
29292W        W 1717  27.442  21.055  10.170
29293W        W 1718  24.051  12.403  12.967
29294W        W 1719  10.661   4.291  11.049
29295W        W 1720  32.391   1.402  14.882
29296W        W 1721  30.895  43.869   3.224
29297W        W 1722   4.718  43.101  14.068
29298W        W 1723  40.790   4.866   4.301
29299W        W 1724  38.510  34.520   0.798
29300W        W 1725   9.724  26.227  10.795
29301W        W 1726   0.900  13.819  11.580
29302W        W 1727  33.439   4.147  13.762
29303W        W 1728  31.642   3.385   0.920
29304W        W 1729  23.928  16.338   2.756
29305W        W 1730  10.315  28.273   1.183
29306W        W 1731  30.952   6.658   0.858
29307W        W 1732  43.982  41.542   1.750
29308W        W 1733  36.942  27.659  13.958
29309W        W 1734  29.396  25.055  11.549
29310W        W 1735   2.743  33.508   4.737
29311W        W 1736  13.807  24.711  12.865
29312W        W 1737   8.984  18.639   3.154
29313W        W 1738  23.153  37.021  13.424
29314W        W 1739  38.552  10.775  12.857
29315W        W 1740  35.152   8.443   1.735
29316W        W 1741   6.647   3.772  12.919
29317W        W 1742  42.358  26.711   4.668
29318W        W 1743  26.718  32.062   9.818
29319W        W 1744   2.834  25.763   0.200
29320W        W 1745   3.840   8.439  13.061
29321W        W 1746  35.708  33.611  12.413
29322W        W 1747  34.414  35.131   3.745
29323W        W 1748  12.726  21.625   1.912
29324W        W 1749  20.957   7.258  12.565
29325W        W 1750  41.766   4.971  13.982
29326W        W 1751  12.210  15.702  11.724
29327W        W 1752   0.395  20.100   1.353
29328W        W 1753   2.393  37.558  12.913
29329W        W 1754  31.841  34.451   2.795
29330W        W 1755   7.338  12.590   4.562
29331W        W 1756  29.416   6.244  11.172
29332W        W 1757  23.004  37.880   0.348
29333W        W 1758  10.178  34.723   2.348
29334W        W 1759  18.858  21.116  10.598
29335W        W 1760  27.137  17.895  12.852
29336W        W 1761  41.098   9.875   3.676
29337W        W 1762  27.494  16.687   1.287
29338W        W 1763   2.367  20.705   0.029
29339W        W 1764  33.077  41.441  11.580
29340W        W 1765  13.595  43.527   1.285
29341W        W 1766   0.395  23.503   1.909
29342W        W 1767  35.073  43.895   0.487
29343W        W 1768  24.710  37.279  11.962
29344W        W 1769  17.594  29.536  11.498
29345W        W 1770  20.708  34.123  12.766
29346W        W 1771  43.373  33.666   1.346
29347W        W 1772  21.003  25.941  13.526
29348W        W 1773   4.087  33.371  12.549
29349W        W 1774   3.972   9.196  14.713
29350W        W 1775  24.104  30.279   4.369
29351W        W 1776  43.435  13.706  14.066
29352W        W 1777  10.670  39.815   2.351
29353W        W 1778  24.412  25.568  14.906
29354W        W 1779  44.338  35.680   4.223
29355W        W 1780  24.150   5.198  14.678
29356W        W 1781  25.533  20.209   4.390
29357W        W 1782  36.169  28.889   1.737
29358W        W 1783  10.877  15.431  13.513
29359W        W 1784  26.834   4.199  12.451
29360W        W 1785  20.987   8.184   4.980
29361W        W 1786  35.416   2.674   0.807
29362W        W 1787  37.007  32.361   2.642
29363W        W 1788  10.798   2.463  12.027
29364W        W 1789  20.764  35.998  11.540
29365W        W 1790  36.168  28.488  13.986
29366W        W 1791  29.049  38.987  14.413
29367W        W 1792   5.628  14.311  12.994
29368W        W 1793  19.641  26.333  11.476
29369W        W 1794   9.348  17.367  14.387
29370W        W 1795  16.888  35.874  10.752
29371W        W 1796  12.685  31.804   3.200
29372W        W 1797   6.831  37.889   1.971
29373W        W 1798   0.305  10.063   2.318
29374W        W 1799   5.238  26.369   4.100
29375W        W 1800  44.897  24.288  10.372
29376W        W 1801  28.665   4.911   0.456
29377W        W 1802  35.068  18.224   4.832
29378W        W 1803   8.356   8.851   3.376
29379W        W 1804   7.863  44.617   4.015
29380W        W 1805  24.131  16.293   3.637
29381W        W 1806  37.905  30.135   4.351
29382W        W 1807   3.964  34.096  12.883
29383W        W 1808  27.077  38.857   3.099
29384W        W 1809  38.569  31.169   3.824
29385W        W 1810  14.972  18.723   3.204
29386W        W 1811  31.957  33.576   4.610
29387W        W 1812   0.201   3.452  13.051
29388W        W 1813  35.350  23.707  12.685
29389W        W 1814  20.068  29.091  11.018
29390W        W 1815  18.105  20.145  12.723
29391W        W 1816  18.324  21.476   4.067
29392W        W 1817  30.312  25.411   5.231
29393W        W 1818  29.202  12.047   0.086
29394W        W 1819  32.935  27.889  11.812
29395W        W 1820  18.285   8.367  14.057
29396W        W 1821  33.123  24.147  12.675
29397W        W 1822   4.563  18.339  13.937
29398W        W 1823  17.711  38.001   0.939
29399W        W 1824  25.475  41.157  14.351
29400W        W 1825  29.759  43.476  12.203
29401W        W 1826  13.663   3.415   9.862
29402W        W 1827  26.191   9.144  13.489
29403W        W 1828  23.580  19.019  12.419
29404W        W 1829   3.507  26.420  12.771
29405W        W 1830  21.276  32.869   0.435
29406W        W 1831  38.611  27.285   4.832
29407W        W 1832  31.115   9.282  14.291
29408W        W 1833   4.978  24.318   1.288
29409W        W 1834  44.561  34.655   1.158
29410W        W 1835  24.442  10.384  12.488
29411W        W 1836  37.833   3.553   2.386
29412W        W 1837  31.948  12.541  12.895
29413W        W 1838  32.965   3.596  14.037
29414W        W 1839   9.487  18.723   3.387
29415W        W 1840   5.819  42.700   2.231
29416W        W 1841  38.149  34.551  12.390
29417W        W 1842  21.194  24.743  12.807
29418W        W 1843  36.548   0.127  10.707
29419W        W 1844  14.605  35.465   3.272
29420W        W 1845  22.763  32.307  14.631
29421W        W 1846  11.432   8.772   1.242
29422W        W 1847  13.084  15.657  10.527
29423W        W 1848   4.780  31.900   2.817
29424W        W 1849  42.431  18.438  14.074
29425W        W 1850  10.546   9.727   2.609
29426W        W 1851  36.370  34.095   0.697
29427W        W 1852  23.076   5.770   4.888
29428W        W 1853  16.542  19.730  11.345
29429W        W 1854   1.974   0.416   4.567
29430W        W 1855  10.883   6.872  11.667
29431W        W 1856   7.708  42.357   2.312
29432W        W 1857  34.945  30.673   5.161
29433W        W 1858  34.495  24.807   2.681
29434W        W 1859   9.273  38.358  14.411
29435W        W 1860  13.704   6.678  13.236
29436W        W 1861  33.024  34.366   1.183
29437W        W 1862  28.738  36.936  12.426
29438W        W 1863  34.504  30.954   0.917
29439W        W 1864   3.825  21.472  14.372
29440W        W 1865   3.575  11.323  14.314
29441W        W 1866  18.458   8.641   4.761
29442W        W 1867  27.701  30.537   3.225
29443W        W 1868  42.105   0.338  13.845
29444W        W 1869  29.136  24.687   3.392
29445W        W 1870   3.860  29.396  13.823
29446W        W 1871  13.971  32.377   1.223
29447W        W 1872  31.021  17.549   0.105
29448W        W 1873  22.152  35.536   4.703
29449W        W 1874  38.829  12.296   0.426
29450W        W 1875   6.039  30.937  11.456
29451W        W 1876  39.089  41.756   4.057
29452W        W 1877  44.706  26.500  12.152
29453W        W 1878   8.221  23.301  14.950
29454W        W 1879  11.297   0.261  12.468
29455W        W 1880   0.488  32.142  11.600
29456W        W 1881   4.951  24.955   0.324
29457W        W 1882  23.474  39.169   4.315
29458W        W 1883   5.662   2.705   0.639
29459W        W 1884  10.301  34.597  10.663
29460W        W 1885  12.765  28.889   0.451
29461W        W 1886  19.266   5.087   3.373
29462W        W 1887   3.268   5.860   4.302
29463W        W 1888   6.842  32.483   3.609
29464W        W 1889  22.293  35.102  11.619
29465W        W 1890  33.515   8.333   4.547
29466W        W 1891  22.502  37.933   3.846
29467W        W 1892   4.610  11.129   0.433
29468W        W 1893  14.585   9.239  12.953
29469W        W 1894  42.524  38.942   1.837
29470W        W 1895  40.562  34.399   4.475
29471W        W 1896  26.080  39.211  11.422
29472W        W 1897  18.966  31.757   0.440
29473W        W 1898   1.474   5.253  11.990
29474W        W 1899  23.948  44.772   1.515
29475W        W 1900  27.643  31.372  14.827
29476W        W 1901  38.927  36.048   5.294
29477W        W 1902  31.953  16.945  13.374
29478W        W 1903  11.642  19.763  12.298
29479W        W 1904  43.518  18.662  14.809
29480W        W 1905  22.772  17.840   3.310
29481W        W 1906  16.184  14.662  13.824
29482W        W 1907   2.082  41.836   3.792
29483W        W 1908  26.049  19.243   0.461
29484W        W 1909  37.633   0.865   4.604
29485W        W 1910  17.472  27.464   3.173
29486W        W 1911  21.969  38.942   3.253
29487W        W 1912  14.535  31.938  12.667
29488W        W 1913  20.344   5.611   1.942
29489W        W 1914   8.128  12.067   2.309
29490W        W 1915  40.015  24.732   2.633
29491W        W 1916   6.743  34.014  13.947
29492W        W 1917  21.112  37.854  11.948
29493W        W 1918  21.033  22.513   0.707
29494W        W 1919  30.312  16.439  12.513
29495W        W 1920  25.081   8.784   3.741
29496W        W 1921  33.913  26.385  13.263
29497W        W 1922   4.985  23.252   2.185
29498W        W 1923   6.067  37.619  10.326
29499W        W 1924  34.010  12.938   0.480
29500W        W 1925  25.101  19.138   1.379
29501W        W 1926  26.184  39.572   1.723
29502W        W 1927  29.956  22.160   4.662
29503W        W 1928   2.314  30.863  14.452
29504W        W 1929   6.197  35.612  12.247
29505W        W 1930  41.543  10.871  13.256
29506W        W 1931   4.381  42.914   0.643
29507W        W 1932  36.938  42.813   1.381
29508W        W 1933  22.084  42.031   3.180
29509W        W 1934  14.616   7.197  14.376
29510W        W 1935  14.100  39.920  12.501
29511W        W 1936   2.694   8.867   1.751
29512W        W 1937   0.919   5.959   3.070
29513W        W 1938  20.945  11.930  10.742
29514W        W 1939  24.252  12.956   3.258
29515W        W 1940  40.223  21.301  13.665
29516W        W 1941  26.813   3.201   2.378
29517W        W 1942  12.781  38.614   2.317
29518W        W 1943  13.813  36.544   0.786
29519W        W 1944  15.195   4.382   4.466
29520W        W 1945  16.254  38.574  13.985
29521W        W 1946  24.524   8.877  11.481
29522W        W 1947  37.099  40.908   0.766
29523W        W 1948  33.581  37.027   1.768
29524W        W 1949  18.331  13.363  14.475
29525W        W 1950   1.517  22.034   2.274
29526W        W 1951  27.080   1.228  11.603
29527W        W 1952  40.013  35.151   1.021
29528W        W 1953  26.162   7.326  11.638
29529W        W 1954  10.353   4.634   0.687
29530W        W 1955  26.511   2.858   4.218
29531W        W 1956  21.259  10.948   0.812
29532W        W 1957  11.785  30.931   0.004
29533W        W 1958  32.870   4.209  11.376
29534W        W 1959  17.769  23.669  14.495
29535W        W 1960  28.275  10.220   3.629
29536W        W 1961  29.924   3.583  12.453
29537W        W 1962  28.558  19.622   2.601
29538W        W 1963  37.872  17.296   4.438
29539W        W 1964  26.992  28.546  11.666
29540W        W 1965  19.304  10.272   3.743
29541W        W 1966  15.994   4.164  10.702
29542W        W 1967  24.832   0.015  12.774
29543W        W 1968   5.726   6.962   2.741
29544W        W 1969  13.484  32.486   1.412
29545W        W 1970  19.245  30.078  11.653
29546W        W 1971  33.217  23.114   3.586
29547W        W 1972  26.129  44.268  10.152
29548W        W 1973  25.468   9.949  12.391
29549W        W 1974  34.169  34.705   3.942
29550W        W 1975   0.327   5.955  14.390
29551W        W 1976  41.588  34.667  11.586
29552W        W 1977  27.099  33.377  14.675
29553W        W 1978  27.549  10.683   2.229
29554W        W 1979  22.520   2.348   2.561
29555W        W 1980   2.320  39.111  11.026
29556W        W 1981  27.102  14.407   1.657
29557W        W 1982  17.618  36.864  10.716
29558W        W 1983  13.077  23.653  14.090
29559W        W 1984  21.748  20.116   4.985
29560W        W 1985   9.365  28.630  11.077
29561W        W 1986  36.459  18.264  13.828
29562W        W 1987  41.375  20.463  11.516
29563W        W 1988  21.935  24.168  13.885
29564W        W 1989  32.139  37.829   4.228
29565W        W 1990  44.926  26.975   4.181
29566W        W 1991  34.336   2.281  12.008
29567W        W 1992  43.738   6.772  14.572
29568W        W 1993  20.996  13.203  10.936
29569W        W 1994  18.196  26.548   0.249
29570W        W 1995  12.905  37.278  14.904
29571W        W 1996  18.062  41.872  13.498
29572W        W 1997   0.945  30.620  11.722
29573W        W 1998  27.307  28.173  13.838
29574W        W 1999  35.050   9.342  10.151
29575W        W 2000  39.301  25.430   2.809
29576W        W 2001   7.352  16.439   1.270
29577W        W 2002   4.505   1.874  14.355
29578W        W 2003  13.832  34.967   0.931
29579W        W 2004  14.343  12.796  11.126
29580W        W 2005  18.592  20.569   1.447
29581W        W 2006  33.969   4.725   3.102
29582W        W 2007   2.250  31.582  11.086
29583W        W 2008  32.807  25.204   0.237
29584W        W 2009  26.506  25.321  13.917
29585W        W 2010   0.965  14.776  11.131
29586W        W 2011  35.162  30.708   2.855
29587W        W 2012   8.664   5.772  10.814
29588W        W 2013  28.037  35.954   2.618
29589W        W 2014  22.010   9.784  11.461
29590W        W 2015  24.183  30.115  14.032
29591W        W 2016  31.066  24.248  14.035
29592W        W 2017  10.086  23.016   1.784
29593W        W 2018  36.916  10.193  12.472
29594W        W 2019   9.627  17.820   1.443
29595W        W 2020   9.348  23.473   1.357
29596W        W 2021   3.901  23.998   2.817
29597W        W 2022  16.690  28.880  14.889
29598W        W 2023  25.669  31.023   1.309
29599W        W 2024  29.560  27.446   4.244
29600W        W 2025  21.091   4.160   0.035
29601W        W 2026  22.560  20.076  14.331
29602W        W 2027  25.237  15.362  10.657
29603W        W 2028  35.625   7.409  13.339
29604W        W 2029  20.283  44.951  11.196
29605W        W 2030  30.000   6.653   4.697
29606W        W 2031  16.290   5.787   0.806
29607W        W 2032  11.043  10.078   2.831
29608W        W 2033  17.818  27.572   0.246
29609W        W 2034  16.279  22.808  12.527
29610W        W 2035   8.912  34.577  12.475
29611W        W 2036  33.541  36.565  14.899
29612W        W 2037  24.241  18.679  14.950
29613W        W 2038  25.126  38.887  13.093
29614W        W 2039  42.148  31.866  13.827
29615W        W 2040  14.629  19.895  11.639
29616W        W 2041  25.014   7.658   4.736
29617W        W 2042  14.415   7.979  11.055
29618W        W 2043  42.300  21.687   0.297
29619W        W 2044  41.115  44.433  13.877
29620W        W 2045  35.601  43.915  11.646
29621W        W 2046  26.734  31.953   2.808
29622W        W 2047  23.124  23.468  10.523
29623W        W 2048  27.531  40.094  13.758
29624W        W 2049   8.466  36.506   2.862
29625W        W 2050  34.453  24.730   0.703
29626W        W 2051  21.551   0.371  10.972
29627W        W 2052  14.005  17.614  13.862
29628W        W 2053  15.168  17.853   3.131
29629W        W 2054  22.152  42.280  14.417
29630W        W 2055  34.703   6.141  11.939
29631W        W 2056  20.947   1.676   1.244
29632W        W 2057   7.167  18.598  12.530
29633W        W 2058   4.526  22.499  13.275
29634W        W 2059  15.255  17.199  13.301
29635W        W 2060  16.748  33.374   4.169
29636W        W 2061   2.629  16.957  14.957
29637W        W 2062  14.180  32.068   3.369
29638W        W 2063  26.819  27.102   0.378
29639W        W 2064  34.156  18.276  12.860
29640W        W 2065  43.279  23.800  10.980
29641W        W 2066   3.172  12.204   3.406
29642W        W 2067   3.905  28.667  11.501
29643W        W 2068  19.329  26.764  11.435
29644W        W 2069  12.491  22.839   1.396
29645W        W 2070   7.886  21.805   3.217
29646W        W 2071  36.078  17.963  13.996
29647W        W 2072  28.021  21.100   0.966
29648W        W 2073  10.298  23.468   1.566
29649W        W 2074  11.242  17.266   4.199
29650W        W 2075  12.176  39.167  13.939
29651W        W 2076  22.626  17.229   1.168
29652W        W 2077  31.239  39.403  12.402
29653W        W 2078   5.782  32.132   3.828
29654W        W 2079  20.248  22.206   0.261
29655W        W 2080  29.589  17.402   0.168
29656W        W 2081  20.116  40.457  11.468
29657W        W 2082   5.383   3.194  14.342
29658W        W 2083   8.226   7.358   3.173
29659W        W 2084  11.387   3.786  14.442
29660W        W 2085  18.583  12.710   0.808
29661W        W 2086  11.875  38.475   4.030
29662W        W 2087   5.229  37.771  11.239
29663W        W 2088  14.901   3.703  11.589
29664W        W 2089   9.207  20.786  13.126
29665W        W 2090  38.410  41.925   0.868
29666W        W 2091  40.882  23.553   1.007
29667W        W 2092  28.123  42.622  13.302
29668W        W 2093  21.728  13.819   0.452
29669W        W 2094  25.519  40.212   4.899
29670W        W 2095  28.871  34.569  11.539
29671W        W 2096  42.380  32.471   4.535
29672W        W 2097   7.790  41.858   3.574
29673W        W 2098  31.967  29.401   0.954
29674W        W 2099  25.260  18.072   4.653
29675W        W 2100  24.723  26.337  13.374
29676W        W 2101   3.609  42.997  12.204
29677W        W 2102  20.244   9.232  12.740
29678W        W 2103  31.156  12.894  13.875
29679W        W 2104  42.465  42.991  12.176
29680W        W 2105  11.696   5.618   3.701
29681W        W 2106  37.940  37.042   0.708
29682W        W 2107  42.594  22.958   0.562
29683W        W 2108  22.993   3.462  11.093
29684W        W 2109   2.991  25.567  12.098
29685W        W 2110  36.285  21.624   0.380
29686W        W 2111  44.294   5.897  14.456
29687W        W 2112  15.184   2.443   3.806
29688W        W 2113  41.335  23.940   0.345
29689W        W 2114   5.314  15.672   4.513
29690W        W 2115  41.402  37.161  11.119
29691W        W 2116  28.904  34.329   0.739
29692W        W 2117  31.532  15.653  12.334
29693W        W 2118  42.810  15.305  13.601
29694W        W 2119   2.098  11.842   0.050
29695W        W 2120  43.381   6.169  12.108
29696W        W 2121  13.846  31.370   4.579
29697W        W 2122  21.738  26.428  14.071
29698W        W 2123  19.829  42.370  14.851
29699W        W 2124  38.225  14.960  12.677
29700W        W 2125  12.870  12.313   2.665
29701W        W 2126  41.120  13.246  14.952
29702W        W 2127  15.512  36.446   1.351
29703W        W 2128  31.518   2.246  14.493
29704W        W 2129  28.109  12.577  13.512
29705W        W 2130  30.742  34.877   2.000
29706W        W 2131  26.220  13.764  11.459
29707W        W 2132   0.319  23.513   3.450
29708W        W 2133  42.105  34.637  11.517
29709W        W 2134  12.270  24.009  12.414
29710W        W 2135  29.100  28.850  12.443
29711W        W 2136  34.943  40.244  13.388
29712W        W 2137  17.742   2.793   0.253
29713W        W 2138   5.441  23.477  10.698
29714W        W 2139   4.389  31.873  14.329
29715W        W 2140   7.225  11.641   3.689
29716W        W 2141   8.665  19.030  12.626
29717W        W 2142   5.058   7.739   1.502
29718W        W 2143  21.648   4.851   4.576
29719W        W 2144   8.264  16.002  13.106
29720W        W 2145  10.355  29.889   5.112
29721W        W 2146  25.129  16.816  14.882
29722W        W 2147  20.260  16.174  10.976
29723W        W 2148  16.553  41.198  12.874
29724W        W 2149  29.533  24.255   0.267
29725W        W 2150   3.289  21.016  12.594
29726W        W 2151  11.884  26.952  13.990
29727W        W 2152  36.337  16.697  14.763
29728W        W 2153  23.205  36.969   0.280
29729W        W 2154  28.228  28.031  13.963
29730W        W 2155  42.598   6.991   2.783
29731W        W 2156  43.898  32.988  13.734
29732W        W 2157  42.568  11.389   2.470
29733W        W 2158  19.268  14.828   0.210
29734W        W 2159  22.536  34.978   5.107
29735W        W 2160  12.896  16.215   0.367
29736W        W 2161  20.268  27.926   4.839
29737W        W 2162  13.764  22.684  10.489
29738W        W 2163  40.551   5.310   2.064
29739W        W 2164  22.742  10.813   4.399
29740W        W 2165  37.028  21.285   1.459
29741W        W 2166  10.914  35.942   2.205
29742W        W 2167   5.474  23.443  13.107
29743W        W 2168  36.977  34.348  13.512
29744W        W 2169  30.247   4.901   3.277
29745W        W 2170  41.119  34.320   3.746
29746W        W 2171  16.034  26.334   1.414
29747W        W 2172  38.389   1.181   2.208
29748W        W 2173  26.520  39.455   2.373
29749W        W 2174  41.881  24.664   0.451
29750W        W 2175  26.585  42.710   1.654
29751W        W 2176   5.839   3.654   4.202
29752W        W 2177  32.437  30.047  10.378
29753W        W 2178  19.590  13.548   2.295
29754W        W 2179  15.198  26.151   4.211
29755W        W 2180  40.287  16.093  11.489
29756W        W 2181   4.254  25.625   1.971
29757W        W 2182  20.029  44.262  13.294
29758W        W 2183  42.908   0.298   4.404
29759W        W 2184  29.542  38.929   3.131
29760W        W 2185  16.203  25.244  11.061
29761W        W 2186  43.725  40.896   1.908
29762W        W 2187  19.868  15.231   3.243
29763W        W 2188  17.196  31.215   3.388
29764W        W 2189   1.965   7.665   0.804
29765W        W 2190  23.224   0.250   4.679
29766W        W 2191   7.534  10.647  13.966
29767W        W 2192   8.903  36.808   1.681
29768W        W 2193  43.839   8.217  10.725
29769W        W 2194  29.456   9.339  11.567
29770W        W 2195  36.086  38.270  13.762
29771W        W 2196  19.759  44.017   1.901
29772W        W 2197  22.264   0.861  10.627
29773W        W 2198  36.274  43.376   3.230
29774W        W 2199  35.851  25.202   2.379
29775W        W 2200  13.634  25.145  11.384
29776W        W 2201  40.453  21.623  10.034
29777W        W 2202  12.341  17.603   1.199
29778W        W 2203  38.140  11.627  14.425
29779W        W 2204   0.501  30.392   5.073
29780W        W 2205  34.720  26.039  13.275
29781W        W 2206  23.456   6.213   2.207
29782W        W 2207  37.365   1.203   2.669
29783W        W 2208  37.559  20.302   2.669
29784W        W 2209   0.454   2.224   4.550
29785W        W 2210   7.885  11.130  14.354
29786W        W 2211   3.353  29.729  10.586
29787W        W 2212  40.491  40.221  10.715
29788W        W 2213  36.793  21.511   1.056
29789W        W 2214  34.085  27.839  10.693
29790W        W 2215  13.168  29.893  13.981
29791W        W 2216   2.346  27.762   1.068
29792W        W 2217   3.952   3.283  13.405
29793W        W 2218   8.677  33.677   1.326
29794W        W 2219   1.898  35.443   1.091
29795W        W 2220  22.662  27.067   0.504
29796W        W 2221  22.076  35.809  14.857
29797W        W 2222  32.123  10.048   3.968
29798W        W 2223   9.786  13.270   1.034
29799W        W 2224  15.752  31.484   2.838
29800W        W 2225  21.241   7.485  14.328
29801W        W 2226   1.522  24.689   1.891
29802W        W 2227   2.229  25.712   2.299
29803W        W 2228  35.586  18.174  14.064
29804W        W 2229  28.682  17.987   1.326
29805W        W 2230  36.995  20.024  14.979
29806W        W 2231  44.039   3.349  13.677
29807W        W 2232  21.046  32.589   2.544
29808W        W 2233   3.613  32.499   2.234
29809W        W 2234  36.424  38.054   1.861
29810W        W 2235   1.924  33.003   1.861
29811W        W 2236   7.302  16.025  11.657
29812W        W 2237  33.012  42.893  10.830
29813W        W 2238  24.762  40.789  10.947
29814W        W 2239  18.725   9.583   2.450
29815W        W 2240  31.073  41.082  12.014
29816W        W 2241  42.806  32.911   3.160
29817W        W 2242  29.488  31.662  12.870
29818W        W 2243  38.279  25.527   0.036
29819W        W 2244   7.760   7.464   3.778
29820W        W 2245   4.884  14.647  10.040
29821W        W 2246  27.188  21.509  14.738
29822W        W 2247  36.955  13.397  14.599
29823W        W 2248  43.770  30.973  14.867
29824W        W 2249  13.023  43.317   2.323
29825W        W 2250   2.698   7.848   0.329
29826W        W 2251  36.417   4.540   1.644
29827W        W 2252   8.616  28.304  14.827
29828W        W 2253  21.993   2.809   4.509
29829W        W 2254  29.054  35.833  13.288
29830W        W 2255  12.853   3.751  14.483
29831W        W 2256  43.969  19.468  14.879
29832W        W 2257  44.870  20.244   2.616
29833W        W 2258  34.391   3.297  13.535
29834W        W 2259  39.434  37.404  14.693
29835W        W 2260  18.353  31.922  11.465
29836W        W 2261  41.003  41.489  11.094
29837W        W 2262  20.567  31.483  13.477
29838W        W 2263  23.610  18.737   1.811
29839W        W 2264   9.408  13.801  11.027
29840W        W 2265  17.132   1.205  10.628
29841W        W 2266  19.575  14.443   5.150
29842W        W 2267  34.062  19.011  13.813
29843W        W 2268  13.835   0.340  13.028
29844W        W 2269  16.069  36.916   2.417
29845W        W 2270  34.153   8.212  10.844
29846W        W 2271   6.887  25.953   1.904
29847W        W 2272  11.873  16.393   3.835
29848W        W 2273   7.323   5.658  12.619
29849W        W 2274  11.476  23.893   0.705
29850W        W 2275   3.231   8.808   2.369
29851W        W 2276   5.636  14.615  11.010
29852W        W 2277  30.149  26.046  10.616
29853W        W 2278   4.297  21.112   1.957
29854W        W 2279   9.469  19.822   4.616
29855W        W 2280  25.036  29.055   2.887
29856W        W 2281  24.187  39.237   4.130
29857W        W 2282  12.346  32.207   3.055
29858W        W 2283  43.427   7.645  13.898
29859W        W 2284  20.530   4.381   3.562
29860W        W 2285  21.731  16.215  14.297
29861W        W 2286  36.785  11.213  13.552
29862W        W 2287  27.266  41.969   2.224
29863W        W 2288  27.098  14.651   1.088
29864W        W 2289   0.794   7.602  10.699
29865W        W 2290   7.896   6.313   2.216
29866W        W 2291  10.237  27.942   3.097
29867W        W 2292  34.879  29.408  14.165
29868W        W 2293  29.119  23.226   0.599
29869W        W 2294   1.498  43.885   4.069
29870W        W 2295  26.031  36.396   2.808
29871W        W 2296  42.534  24.610   3.780
29872W        W 2297  20.941   5.749   0.887
29873W        W 2298  31.168   5.116   1.640
29874W        W 2299  39.424   9.779   1.352
29875W        W 2300   4.926  36.564   3.619
29876W        W 2301  35.033  39.688  13.426
29877W        W 2302  16.929  38.598  12.618
29878W        W 2303  31.352   6.078   1.676
29879W        W 2304  18.779  24.937  10.521
29880W        W 2305  31.508  31.776   3.231
29881W        W 2306  36.999  41.541  13.911
29882W        W 2307  30.926  32.555  14.247
29883W        W 2308   5.739  29.490   2.292
29884W        W 2309  14.228  31.643   4.809
29885W        W 2310  15.884   8.023   4.139
29886W        W 2311  37.948  14.782  14.845
29887W        W 2312   2.512  21.275   2.409
29888W        W 2313  14.949  18.050  14.785
29889W        W 2314  37.270  29.187  11.828
29890W        W 2315  16.047   8.672   1.492
29891W        W 2316  28.544  35.711  13.559
29892W        W 2317  44.397  29.672   4.115
29893W        W 2318  25.981  33.874  10.754
29894W        W 2319  18.165  10.160  14.027
29895W        W 2320  25.527  28.320   0.836
29896W        W 2321  32.539  26.703   9.978
29897W        W 2322  10.142  21.813  13.393
29898W        W 2323  34.348  31.163   1.447
29899W        W 2324   9.139   1.091   9.826
29900W        W 2325  16.155  22.030   4.531
29901W        W 2326  16.582  21.009  14.116
29902W        W 2327  43.269  40.429  14.116
29903W        W 2328  12.415  40.697   3.527
29904W        W 2329   3.396  22.666   2.710
29905W        W 2330  10.303   2.803  14.589
29906W        W 2331   8.184   3.281  14.999
29907W        W 2332  27.643  36.872   4.585
29908W        W 2333  19.595  22.754  14.840
29909W        W 2334   3.941  19.739   3.333
29910W        W 2335   3.962  17.691   0.280
29911W        W 2336  37.582  42.533  14.299
29912W        W 2337  15.643  12.225   1.066
29913W        W 2338  21.988  13.277  11.176
29914W        W 2339  24.446   6.820   1.309
29915W        W 2340  35.561  44.846  12.596
29916W        W 2341  44.195  30.826  13.902
29917W        W 2342  30.074  23.263  14.541
29918W        W 2343  27.231  13.839   2.288
29919W        W 2344   8.857   1.319   2.573
29920W        W 2345  37.612  25.258   4.386
29921W        W 2346  14.564  35.839  11.941
29922W        W 2347   9.440  40.239  10.955
29923W        W 2348  20.179  35.871  13.901
29924W        W 2349  28.694  43.373   3.190
29925W        W 2350  40.094  10.228   4.447
29926W        W 2351  35.544  10.137   2.982
29927W        W 2352  41.382  40.714  10.487
29928W        W 2353  31.076  11.215  13.929
29929W        W 2354  28.451  27.622   0.254
29930W        W 2355  33.879  44.901  13.154
29931W        W 2356  38.758  21.538  12.047
29932W        W 2357  19.947  15.670  11.240
29933W        W 2358   8.260  40.991   2.964
29934W        W 2359  34.861  11.587  14.774
29935W        W 2360  33.028  43.940   1.416
29936W        W 2361  43.723  24.729   3.166
29937W        W 2362  20.197  28.161   2.638
29938W        W 2363  25.144  12.305   4.760
29939W        W 2364  26.256   7.630   3.891
29940W        W 2365  33.409   0.381  13.054
29941W        W 2366   5.687  13.676   0.469
29942W        W 2367  18.556  38.737   5.029
29943W        W 2368  14.840  22.271  11.169
29944W        W 2369  33.787  17.301   1.437
29945W        W 2370  21.610  18.725   1.769
29946W        W 2371   5.438   4.601   2.768
29947W        W 2372   6.773  30.085   4.914
29948W        W 2373  30.196  12.911  13.546
29949W        W 2374  17.096  27.971   2.293
29950W        W 2375   1.804   2.187  14.811
29951W        W 2376  19.972  39.562  14.415
29952W        W 2377   5.334   8.214  14.427
29953W        W 2378  32.612   3.217  12.035
29954W        W 2379  13.268  42.531   0.788
29955W        W 2380  25.113  31.774  10.684
29956W        W 2381  24.931  22.814  14.880
29957W        W 2382  14.172   1.235   4.654
29958W        W 2383  27.040  28.398  14.759
29959W        W 2384  23.114  41.499  12.947
29960W        W 2385   1.887  11.113  12.761
29961W        W 2386  41.965   2.769   3.095
29962W        W 2387  16.673  44.242  14.501
29963W        W 2388   4.857  33.135  10.728
29964W        W 2389  10.744  30.120  10.882
29965W        W 2390  31.576  22.126  10.135
29966W        W 2391  19.320   5.315   2.374
29967W        W 2392  43.589  37.047   2.858
29968W        W 2393  37.018   8.698  14.426
29969W        W 2394  13.278  13.568  12.648
29970W        W 2395  44.907  30.951   3.558
29971W        W 2396  43.336  25.045  14.911
29972W        W 2397  36.497  24.209  14.475
29973W        W 2398  32.582  17.250  10.699
29974W        W 2399   5.781  27.099  11.207
29975W        W 2400   7.309  39.552   0.400
29976W        W 2401   8.196  31.703   0.850
29977W        W 2402  14.923  32.315   9.847
29978W        W 2403  19.507  14.257   3.292
29979W        W 2404  34.931   8.540   4.592
29980W        W 2405  33.975  16.781  14.671
29981W        W 2406  19.262   1.398  13.967
29982W        W 2407   2.403   9.917   1.501
29983W        W 2408  28.078   8.953  14.570
29984W        W 2409  16.234  16.554   1.785
29985W        W 2410  32.849  27.192  13.942
29986W        W 2411  15.311  27.626   2.284
29987W        W 2412   8.787   1.979   4.848
29988W        W 2413  25.923  14.584   0.356
29989W        W 2414  29.380   5.962   2.055
29990W        W 2415  31.633  36.495  14.489
29991W        W 2416  29.140  16.862  14.399
29992W        W 2417   4.239  40.803   4.151
29993W        W 2418   5.014  29.377   1.706
29994W        W 2419  18.678  20.538  13.500
29995W        W 2420   7.797  36.930   2.883
29996W        W 2421  44.516  25.628   4.693
29997W        W 2422  22.793  21.072  13.249
29998W        W 2423   7.644  32.653   0.188
29999W        W 2424   0.877  17.103   4.894
30000W        W 2425  33.686  14.850   2.251
30001W        W 2426  10.508  38.497   1.797
30002W        W 2427  43.212   8.850   4.120
30003W        W 2428  31.525  34.713  11.154
30004W        W 2429  29.020   8.491   4.600
30005W        W 2430  14.710  44.272  10.972
30006W        W 2431  13.182   2.510   0.199
30007W        W 2432   1.307  25.437  13.416
30008W        W 2433  31.538  44.489   4.913
30009W        W 2434   0.403  28.617   1.440
30010W        W 2435   6.426  20.633   1.458
30011W        W 2436   4.538   7.378   3.110
30012W        W 2437  25.444  35.548  10.550
30013W        W 2438  19.836  34.597   2.820
30014W        W 2439  34.527  23.134  13.868
30015W        W 2440   4.905   5.402   5.009
30016W        W 2441  34.012  16.856   2.328
30017W        W 2442  30.976  10.226  12.465
30018W        W 2443   1.398  44.119  12.203
30019W        W 2444   4.707   3.389  12.867
30020W        W 2445  34.416   2.545   0.250
30021W        W 2446  12.091  43.522  11.632
30022W        W 2447  18.169  20.521   1.768
30023W        W 2448  44.950  17.583  13.596
30024W        W 2449   4.913  42.806   2.469
30025W        W 2450  27.065  10.642  11.003
30026W        W 2451   8.226   1.753   3.739
30027W        W 2452  22.719  37.995  14.511
30028W        W 2453   7.469  14.627   2.648
30029W        W 2454   0.871  39.079  12.683
30030W        W 2455  15.371   0.465   2.276
30031W        W 2456   9.855  20.713   0.014
30032W        W 2457  31.057  19.706  12.985
30033W        W 2458   0.286   6.443  10.983
30034W        W 2459  15.576  22.191   0.715
30035W        W 2460  23.038  28.115  14.680
30036W        W 2461  32.864  24.136  14.939
30037W        W 2462  28.193  35.127   0.776
30038W        W 2463  30.703  27.514  12.396
30039W        W 2464  10.737  33.981  13.986
30040W        W 2465  28.482  42.703  12.946
30041W        W 2466   4.009  19.359  14.842
30042W        W 2467  37.550  28.667   2.786
30043W        W 2468  33.427  40.764  14.562
30044W        W 2469  38.967   7.413   4.153
30045W        W 2470  39.423   7.688   1.741
30046W        W 2471  37.866  20.433  13.490
30047W        W 2472   7.408   2.331   4.812
30048W        W 2473  12.278  35.754  10.773
30049W        W 2474  25.887  37.529  12.401
30050W        W 2475   9.857  40.409   0.405
30051W        W 2476  20.201   0.873   0.345
30052W        W 2477  33.875  40.829  10.735
30053W        W 2478  11.789  27.140   1.404
30054W        W 2479  39.529   0.156  12.526
30055W        W 2480  15.243  42.322   0.444
30056W        W 2481  11.890  15.120   0.213
30057W        W 2482   4.725  18.532   4.712
30058W        W 2483   4.318  39.389  13.556
30059W        W 2484  25.434   1.502   3.874
30060W        W 2485  24.104  23.202   2.299
30061W        W 2486  29.111   0.278  14.173
30062W        W 2487   3.618  41.474  10.697
30063W        W 2488  35.889   5.709   0.987
30064W        W 2489   7.195  33.264   3.451
30065W        W 2490  12.212  18.776   1.200
30066W        W 2491  15.157  42.581  11.140
30067W        W 2492  10.471  29.506  10.488
30068W        W 2493   3.196  40.920   1.143
30069W        W 2494   6.307  29.021   2.834
30070W        W 2495  28.373  22.734   4.617
30071W        W 2496  31.122   7.817   0.336
30072W        W 2497  28.958  19.299  10.943
30073W        W 2498   5.771  28.042  14.049
30074W        W 2499  22.643  13.671   2.592
30075W        W 2500  14.984  13.788   0.882
30076W        W 2501  19.608  37.470   2.031
30077W        W 2502  19.147  21.563   1.840
30078W        W 2503  32.263  40.392   2.674
30079W        W 2504   1.476  18.397   3.614
30080W        W 2505  13.356  44.927   1.314
30081W        W 2506   1.708  11.270   4.169
30082W        W 2507  33.497  15.560  13.950
30083W        W 2508   4.415   4.761   1.800
30084W        W 2509  43.806  24.312  12.427
30085W        W 2510  43.221   1.315   4.314
30086W        W 2511  43.779  11.642   2.301
30087W        W 2512  24.601  38.728  13.003
30088W        W 2513  22.558  25.062   4.141
30089W        W 2514  37.015  39.515   2.651
30090W        W 2515   8.991  20.491  10.645
30091W        W 2516  24.205   5.756   4.049
30092W        W 2517   0.986  23.070  14.718
30093W        W 2518  41.903  12.366   4.293
30094W        W 2519  27.172  10.568  14.928
30095W        W 2520  20.406   8.450  14.251
30096W        W 2521  39.332  18.600   3.265
30097W        W 2522  14.300  21.143   1.910
30098W        W 2523  15.916  18.780   2.937
30099W        W 2524   3.643  18.035   3.210
30100W        W 2525  12.214  42.441   0.085
30101W        W 2526  29.004  10.144  11.493
30102W        W 2527  10.889   0.757  14.880
30103W        W 2528  26.562  30.019   3.213
30104W        W 2529   7.279  43.500   4.575
30105W        W 2530  13.082   3.653  10.220
30106W        W 2531  17.343  43.034  10.965
30107W        W 2532  11.147  21.553   4.394
30108W        W 2533   3.912   8.019   0.283
30109W        W 2534  31.459  14.885  11.546
30110W        W 2535   8.594  20.694   1.918
30111W        W 2536   4.984  34.314  12.054
30112W        W 2537  12.316  39.445   2.629
30113W        W 2538   8.632   6.277   4.491
30114W        W 2539   1.681  20.795  14.468
30115W        W 2540  21.051  44.608   3.684
30116W        W 2541  40.964  26.454   0.806
30117W        W 2542  14.879  10.008   9.888
30118W        W 2543  39.763  19.271   1.848
30119W        W 2544   8.341  31.141  14.057
30120W        W 2545  35.314   1.295  12.172
30121W        W 2546  36.917  26.228   2.811
30122W        W 2547   4.246  21.107  12.575
30123W        W 2548  13.829  25.576  12.350
30124W        W 2549  11.844   6.169   4.609
30125W        W 2550  25.050  42.257  14.908
30126W        W 2551   7.720  41.460   2.213
30127W        W 2552  29.360  34.354   0.964
30128W        W 2553  41.748  31.972   4.878
30129W        W 2554  21.666  27.598  12.145
30130W        W 2555  29.723  32.181  13.525
30131W        W 2556  37.950  11.340  13.679
30132W        W 2557  30.001  37.136  11.098
30133W        W 2558  14.651  36.377  12.057
30134W        W 2559  44.903  33.999  14.353
30135W        W 2560  42.820  34.269   3.242
30136W        W 2561  13.661   8.378   1.916
30137W        W 2562  23.792  37.504   2.691
30138W        W 2563  17.798  28.131  14.863
30139W        W 2564  18.610   8.769   3.421
30140W        W 2565  14.846  38.139   3.295
30141W        W 2566  41.082  27.683   1.594
30142W        W 2567   2.690  41.152  11.213
30143W        W 2568  22.232  38.448   4.590
30144W        W 2569  22.190  31.232  14.984
30145W        W 2570   5.233  34.887  11.071
30146W        W 2571  19.859  41.796  13.764
30147W        W 2572   6.464  12.191  11.736
30148W        W 2573  27.965  24.633   5.083
30149W        W 2574  17.552   1.208  12.434
30150W        W 2575  26.869  32.919  14.593
30151W        W 2576  37.835   5.342   0.835
30152W        W 2577  21.459  37.014  12.160
30153W        W 2578  42.601   5.428   4.090
30154W        W 2579  34.414  23.262   1.734
30155W        W 2580   5.266  24.868  14.081
30156W        W 2581  34.362  44.533  10.653
30157W        W 2582  39.447  42.591   4.243
30158W        W 2583  14.649   3.296  14.454
30159W        W 2584  36.546  41.087   1.326
30160W        W 2585  30.366  37.868  11.953
30161W        W 2586  32.331  10.221  12.563
30162W        W 2587  14.121  18.537  13.248
30163W        W 2588   5.847  41.682   0.426
30164W        W 2589   7.314   5.202  10.610
30165W        W 2590  26.740  15.151   1.021
30166W        W 2591  23.739  17.692  14.934
30167W        W 2592  14.493  39.264   1.837
30168W        W 2593  11.306  38.924  11.028
30169W        W 2594  37.258  35.877   1.879
30170W        W 2595  21.539  37.332  14.264
30171W        W 2596  40.631  26.204  13.983
30172W        W 2597   1.880  40.188   1.436
30173W        W 2598   2.186  33.059   0.921
30174W        W 2599  31.042  27.978   4.908
30175W        W 2600  15.118   2.829  12.028
30176W        W 2601  13.221  10.163   1.745
30177W        W 2602  13.009  24.655   2.370
30178W        W 2603  13.281  10.224  11.500
30179W        W 2604  27.562  20.111  11.539
30180W        W 2605  38.139  44.421  13.020
30181W        W 2606  44.212  18.146   3.712
30182W        W 2607  23.720  38.979  13.798
30183W        W 2608  16.103  42.061   1.839
30184W        W 2609  19.563  31.936  13.996
30185W        W 2610   3.339   5.949  12.799
30186W        W 2611  44.377  18.201   2.770
30187W        W 2612   6.015  31.685   3.628
30188W        W 2613  18.061  15.611   4.242
30189W        W 2614  18.253  14.320  13.525
30190W        W 2615   8.783  13.587   3.089
30191W        W 2616  41.946   7.800  12.472
30192W        W 2617   5.111  28.777   0.049
30193W        W 2618  29.982  24.286   3.824
30194W        W 2619   0.004   4.707   4.589
30195W        W 2620  31.666  27.409   4.157
30196W        W 2621   7.671  13.664  11.543
30197W        W 2622   9.875  21.237   2.440
30198W        W 2623  12.125  22.729  14.287
30199W        W 2624  17.308  42.799  10.508
30200W        W 2625  32.215  31.970   2.307
30201W        W 2626  18.322  10.305   3.821
30202W        W 2627   6.590  32.252   0.691
30203W        W 2628  10.645  27.868  14.814
30204W        W 2629   2.734  12.890  12.882
30205W        W 2630  10.322  37.436   3.157
30206W        W 2631  41.287  31.368  11.185
30207W        W 2632  35.998  11.813  11.552
30208W        W 2633  23.440  16.613   0.435
30209W        W 2634  17.656   1.593  14.834
30210W        W 2635  30.174  15.548  12.536
30211W        W 2636  31.037  40.315  14.043
30212W        W 2637  29.809   7.343  12.074
30213W        W 2638  19.186  36.395  13.395
30214W        W 2639   9.439  21.159  12.539
30215W        W 2640  15.667  12.271   3.875
30216W        W 2641  14.652  34.529   2.411
30217W        W 2642  31.479   9.702  12.892
30218W        W 2643  39.957  12.172  11.442
30219W        W 2644  22.905  13.154  11.567
30220W        W 2645  12.227   2.236   4.115
30221W        W 2646  29.111  26.060   3.129
30222W        W 2647  18.961  31.600   4.096
30223W        W 2648  10.907  26.168   3.767
30224W        W 2649   8.414  35.037  11.674
30225W        W 2650   4.135  22.227   0.777
30226W        W 2651  44.533   0.153  10.657
30227W        W 2652  36.995  34.167   3.191
30228W        W 2653   5.376   0.267   3.416
30229W        W 2654  21.523  18.163  11.631
30230W        W 2655  33.917   3.663   1.604
30231W        W 2656  18.251   1.424  12.872
30232W        W 2657   9.578  16.829  12.463
30233W        W 2658  14.177   7.281  10.534
30234W        W 2659  11.329  11.717   2.963
30235W        W 2660  26.464   0.988  12.477
30236W        W 2661  12.419   9.705   1.373
30237W        W 2662  19.690  29.986   4.783
30238W        W 2663  43.438   6.004   3.427
30239W        W 2664  42.315  20.717   1.214
30240W        W 2665  25.733  34.908  10.275
30241W        W 2666   0.429  39.194  13.375
30242W        W 2667   8.380  25.700   2.603
30243W        W 2668  29.559   2.921   3.894
30244W        W 2669  29.308  16.269  10.993
30245W        W 2670  22.473  17.050   3.332
30246W        W 2671   7.371  16.956   1.411
30247W        W 2672   0.501  30.412  14.483
30248W        W 2673   6.646  31.401  12.362
30249W        W 2674   9.779   6.424  14.363
30250W        W 2675  33.364  30.728   5.092
30251W        W 2676  41.310  14.133   0.906
30252W        W 2677  28.948  42.438  12.115
30253W        W 2678  36.851  24.452  14.839
30254W        W 2679   7.098  30.684  14.778
30255W        W 2680  20.227  29.149   4.512
30256W        W 2681  12.165  36.982   3.757
30257W        W 2682  24.778  10.145  14.109
30258W        W 2683   5.656  34.250   0.363
30259W        W 2684  41.304  21.010   0.795
30260W        W 2685  39.168  37.396  12.943
30261W        W 2686  36.934   5.489  12.618
30262W        W 2687   1.901  26.697  11.593
30263W        W 2688  21.191  36.846   4.562
30264W        W 2689  14.228   1.992   2.570
30265W        W 2690   8.959  40.876   4.559
30266W        W 2691  41.064  17.413  12.555
30267W        W 2692   6.031  29.711   1.865
30268W        W 2693  10.787  21.791   1.257
30269W        W 2694   4.238  29.734   3.455
30270W        W 2695  39.693  23.523   4.278
30271W        W 2696  16.260   3.402  11.682
30272W        W 2697  30.497   0.166  12.434
30273W        W 2698  21.827  40.799  14.293
30274W        W 2699  15.211  29.370  14.208
30275W        W 2700   9.672   9.201  12.943
30276W        W 2701  17.253  24.363  11.894
30277W        W 2702  44.810  37.853   1.975
30278W        W 2703  23.568  15.445  11.516
30279W        W 2704  12.297  21.803  10.644
30280W        W 2705   0.134  16.599   2.767
30281W        W 2706  36.420   1.720  10.785
30282W        W 2707  12.429  42.453  12.544
30283W        W 2708  16.741  17.855   1.943
30284W        W 2709   1.095  20.808   5.116
30285W        W 2710   7.377  16.626   3.457
30286W        W 2711  38.077  41.875   3.625
30287W        W 2712  10.847   4.344  12.431
30288W        W 2713   5.722   7.844   1.647
30289W        W 2714  27.158  28.168  10.311
30290W        W 2715  41.492  39.327   2.325
30291W        W 2716   8.803  31.338  13.887
30292W        W 2717   4.806  10.616   3.816
30293W        W 2718  33.920  40.712  11.644
30294W        W 2719  42.869  32.001  14.499
30295W        W 2720   4.313  22.175   2.627
30296W        W 2721   7.942   5.274  13.746
30297W        W 2722   0.375  19.056  14.827
30298W        W 2723  33.589   6.737  12.505
30299W        W 2724  41.970   9.434  10.937
30300W        W 2725  18.376  16.380  11.508
30301W        W 2726   7.678  35.053   3.231
30302W        W 2727   8.171  13.272   0.317
30303W        W 2728  12.606  12.752   3.734
30304W        W 2729  14.095  18.693  11.665
30305W        W 2730   5.977  26.005   3.244
30306W        W 2731  10.282  23.135   0.322
30307W        W 2732  14.875  27.252   0.449
30308W        W 2733  14.540  35.467  14.068
30309W        W 2734  20.166  26.185   2.774
30310W        W 2735   0.845  16.683   2.040
30311W        W 2736  28.803   2.846  13.642
30312W        W 2737  17.697   1.349   0.685
30313W        W 2738   2.756   2.682  12.024
30314W        W 2739  18.486   3.291   4.820
30315W        W 2740   4.684  10.911  14.838
30316W        W 2741  18.088  21.805  12.857
30317W        W 2742  40.459  16.674  12.444
30318W        W 2743   3.479   6.662   0.294
30319W        W 2744  16.817   7.365   2.276
30320W        W 2745  19.427   3.768   3.216
30321W        W 2746   9.832  24.049  13.471
30322W        W 2747  41.270   5.777   2.887
30323W        W 2748   0.736  28.739  12.533
30324W        W 2749  14.259  13.233  13.993
30325W        W 2750   6.576   6.267  11.934
30326W        W 2751  38.066  44.933   1.866
30327W        W 2752  41.325  31.946  13.629
30328W        W 2753  15.305  36.073   2.423
30329W        W 2754   2.225  36.365  10.794
30330W        W 2755  41.643   6.443   5.140
30331W        W 2756  14.327  18.094  10.717
30332W        W 2757  10.638  13.684   2.043
30333W        W 2758  27.132  38.345  13.898
30334W        W 2759  32.456  26.154  11.723
30335W        W 2760  40.361   2.179   0.759
30336W        W 2761  25.570  44.698  11.115
30337W        W 2762  26.004   1.500  12.955
30338W        W 2763  41.733  42.515   2.363
30339W        W 2764  29.525  23.408   2.982
30340W        W 2765  36.535   7.174   0.358
30341W        W 2766  34.578   7.581  13.542
30342W        W 2767  25.889  17.973  12.472
30343W        W 2768  41.494  33.935   3.850
30344W        W 2769   9.077   5.750   1.832
30345W        W 2770  25.901  22.759   0.702
30346W        W 2771  22.164  16.981   1.969
30347W        W 2772  25.727  43.829   2.462
30348W        W 2773  15.640  31.218  10.656
30349W        W 2774  40.979  17.507   0.801
30350W        W 2775  40.903  34.490   2.683
30351W        W 2776  25.679  36.604   0.540
30352W        W 2777  41.709   1.861  12.969
30353W        W 2778  32.356  29.635  10.684
30354W        W 2779  43.772   2.846   2.637
30355W        W 2780  22.701  22.098  11.630
30356W        W 2781   5.195  22.319  10.393
30357W        W 2782  27.655  41.901  12.789
30358W        W 2783  38.789  40.504  14.785
30359W        W 2784   5.286   8.952   1.747
30360W        W 2785  23.093  29.960  13.865
30361W        W 2786  37.428  22.238   2.927
30362W        W 2787  24.200   0.773   4.069
30363W        W 2788  42.005   9.492   3.698
30364W        W 2789   2.879  31.157  11.576
30365W        W 2790  43.316  14.227  12.093
30366W        W 2791   3.958   8.449   1.990
30367W        W 2792   2.909  41.002   2.261
30368W        W 2793  13.110   2.447  13.347
30369W        W 2794  31.112  34.547  13.374
30370W        W 2795   2.395  29.557   3.388
30371W        W 2796  22.979  41.424  14.451
30372W        W 2797  40.452  29.391  10.950
30373W        W 2798   1.196   0.390   2.223
30374W        W 2799  23.607  35.508  12.643
30375W        W 2800  35.935   8.408  14.954
30376W        W 2801   7.347   7.977   3.214
30377W        W 2802  30.370  22.155  12.078
30378W        W 2803  39.196  40.717   4.112
30379W        W 2804  13.066  21.944   1.238
30380W        W 2805  38.389  13.517  13.899
30381W        W 2806  37.475  44.975  14.781
30382W        W 2807  25.265  14.814   0.269
30383W        W 2808  27.703   0.341   0.841
30384W        W 2809   4.873  26.660   1.019
30385W        W 2810  23.174  44.118   2.842
30386W        W 2811  17.515  24.426  12.590
30387W        W 2812  27.117  37.529   3.226
30388W        W 2813  38.315  37.952  12.770
30389W        W 2814   9.632  26.136   0.029
30390W        W 2815   9.327  20.884  10.788
30391W        W 2816   9.509  40.594   2.411
30392W        W 2817   0.360  35.474   1.818
30393W        W 2818  10.829  17.100  12.509
30394W        W 2819  26.429  38.090  12.401
30395W        W 2820  21.651  40.454  11.146
30396W        W 2821   5.402   5.754   1.465
30397W        W 2822  21.531  20.698  12.888
30398W        W 2823  30.036  23.593  12.566
30399W        W 2824  25.267  32.429   0.436
30400W        W 2825  13.788   4.807  13.881
30401W        W 2826   8.421  31.983  14.409
30402W        W 2827  15.042  44.252  14.785
30403W        W 2828  23.012  10.693  12.915
30404W        W 2829  15.058  44.800   4.225
30405W        W 2830  23.257  30.539   0.128
30406W        W 2831  17.050  19.723  14.597
30407W        W 2832  39.034  22.914  14.949
30408W        W 2833  36.934  34.325  12.466
30409W        W 2834  38.851  30.880  13.002
30410W        W 2835  28.414  11.209  10.916
30411W        W 2836   6.203  40.464   0.386
30412W        W 2837  19.133  30.218  14.740
30413W        W 2838  25.497   7.944  14.303
30414W        W 2839  21.557  44.209   0.040
30415W        W 2840  40.688  37.320   3.848
30416W        W 2841  25.777  39.986  10.806
30417W        W 2842  32.525  11.366  12.930
30418W        W 2843  13.228  37.662   1.624
30419W        W 2844   6.263   6.470  12.937
30420W        W 2845  10.676   3.849  13.071
30421W        W 2846  30.597  11.738  14.534
30422W        W 2847  43.348  24.975   1.764
30423W        W 2848  26.150  29.918   2.379
30424W        W 2849  11.309   5.001  11.907
30425W        W 2850  32.074  35.875   2.813
30426W        W 2851  30.946  16.706  13.770
30427W        W 2852  24.977  40.652   2.365
30428W        W 2853  44.761  21.601   3.796
30429W        W 2854  25.055   6.120  11.501
30430W        W 2855  13.171  28.062  12.484
30431W        W 2856   8.363  39.690  13.843
30432W        W 2857  31.895  30.569   2.606
30433W        W 2858  42.202  15.542   3.760
30434W        W 2859  29.459  44.153   3.125
30435W        W 2860   1.911   6.874  14.525
30436W        W 2861  33.091   6.039  12.794
30437W        W 2862  14.116   0.994   1.269
30438W        W 2863  10.371  39.102  11.057
30439W        W 2864   9.131   2.563  11.709
30440W        W 2865  11.562  41.290   0.302
30441W        W 2866  12.403   4.004   2.317
30442W        W 2867  22.796   7.818   3.716
30443W        W 2868  36.027  20.748  13.098
30444W        W 2869  41.480  33.209  11.918
30445W        W 2870  35.651  44.751  11.195
30446W        W 2871   4.186  36.887   1.841
30447W        W 2872  10.696  42.103   0.808
30448W        W 2873   6.347  31.255   2.343
30449W        W 2874  14.588   5.374   0.300
30450W        W 2875  38.923  23.937   4.576
30451W        W 2876  37.122  26.243  12.068
30452W        W 2877   6.861  43.515  11.051
30453W        W 2878  19.516  27.234   2.152
30454W        W 2879   0.897   2.769  13.558
30455W        W 2880  31.923   2.276   2.751
30456W        W 2881   6.647  16.165   3.409
30457W        W 2882  43.509   6.447   0.621
30458W        W 2883  31.086  43.962  14.972
30459W        W 2884  13.352   0.460   1.368
30460W        W 2885  20.230  19.639  14.381
30461W        W 2886  35.944   5.425   1.449
30462W        W 2887  13.376   5.711  11.199
30463W        W 2888  10.823   4.132   3.372
30464W        W 2889  40.454   5.885   4.540
30465W        W 2890  29.009  43.039   4.568
30466W        W 2891  25.086  31.438   0.833
30467W        W 2892  19.156  29.738   3.974
30468W        W 2893  41.300  33.755  11.804
30469W        W 2894  31.100  23.054   3.364
30470W        W 2895  33.238   3.855  12.208
30471W        W 2896  36.506  20.124   1.975
30472W        W 2897   1.207  26.203  12.244
30473W        W 2898  41.409  32.799   4.664
30474W        W 2899  17.569  22.179  12.843
30475W        W 2900  24.134  31.342  10.982
30476W        W 2901  40.896  13.404   4.743
30477W        W 2902  34.446  44.335  11.651
30478W        W 2903  12.382  43.689  14.411
30479W        W 2904  34.852  41.016   2.194
30480W        W 2905  21.971  22.576  10.602
30481W        W 2906  13.925  39.982  11.618
30482W        W 2907  12.398  21.553   5.071
30483W        W 2908  23.546  32.280  11.988
30484W        W 2909  29.719  33.520  12.978
30485W        W 2910   3.934   7.363   1.692
30486W        W 2911  15.615   8.103  14.874
30487W        W 2912  44.273  19.235   3.655
30488W        W 2913  29.413  41.013   5.056
30489W        W 2914   2.112   9.677  11.572
30490W        W 2915  40.940  19.117  13.360
30491W        W 2916  37.411   0.830   0.715
30492W        W 2917  38.387  20.610  12.189
30493W        W 2918  25.736  12.129   0.933
30494W        W 2919  31.667   3.302  14.047
30495W        W 2920  30.451  36.685   4.239
30496W        W 2921  26.256  24.683  12.412
30497W        W 2922   0.806  37.569   5.170
30498W        W 2923  24.436   0.622  13.469
30499W        W 2924  22.239  35.011   4.640
30500W        W 2925  29.114  41.404  10.243
30501W        W 2926   6.957  18.551   2.760
30502W        W 2927  12.236  20.555   0.771
30503W        W 2928  14.142  33.705  10.755
30504W        W 2929  15.656  17.122   4.610
30505W        W 2930  26.539  18.066   0.719
30506W        W 2931  23.723  36.495  12.946
30507W        W 2932  27.539  21.989   3.614
30508W        W 2933  24.586  29.586  11.193
30509W        W 2934  40.806  38.566  10.595
30510W        W 2935  34.401  23.059   1.253
30511W        W 2936   1.349  28.481   0.525
30512W        W 2937  14.238  38.559  12.419
30513W        W 2938  34.431  27.673   1.785
30514W        W 2939  14.222   6.416   5.073
30515W        W 2940  44.810  11.858   4.275
30516W        W 2941   0.889  21.783  12.534
30517W        W 2942  40.301  19.226  14.077
30518W        W 2943  27.899  10.813  10.385
30519W        W 2944  30.563  21.351   0.458
30520W        W 2945   3.940   9.364   1.326
30521W        W 2946  30.575  29.170  11.180
30522W        W 2947  15.999  22.995  12.128
30523W        W 2948  31.482  27.510  14.746
30524W        W 2949  22.488  33.118  11.844
30525W        W 2950  12.273  19.096   4.771
30526W        W 2951  30.530  30.473  10.697
30527W        W 2952  31.296  22.112   0.356
30528W        W 2953  31.817  43.914  10.753
30529W        W 2954  26.449  15.645   1.152
30530W        W 2955  15.563  33.822  13.904
30531W        W 2956   2.768  25.996  14.746
30532W        W 2957  24.616   3.027   4.634
30533W        W 2958  29.453  33.666   5.273
30534W        W 2959   5.016   4.486  12.915
30535W        W 2960  40.011  36.592  14.242
30536W        W 2961  30.144  41.764   5.713
30537W        W 2962  28.606  42.467  14.037
30538W        W 2963  18.333   7.270   3.253
30539W        W 2964  34.140  37.032   3.702
30540W        W 2965  17.691  35.083   9.912
30541W        W 2966   1.756  40.896   2.816
30542W        W 2967  22.229  31.019  13.312
30543W        W 2968  23.212  15.901  10.924
30544W        W 2969   8.892  36.915  12.093
30545W        W 2970   9.749  19.265  10.620
30546W        W 2971  31.437  24.072  14.756
30547W        W 2972  38.112  25.634   0.524
30548W        W 2973  36.319  29.044  11.422
30549W        W 2974  12.634   0.637  12.125
30550W        W 2975   8.211   4.764  14.919
30551W        W 2976  30.167   9.553  13.052
30552W        W 2977   8.208   5.482   1.774
30553W        W 2978  44.927  32.800  13.770
30554W        W 2979   6.259  43.049   0.040
30555W        W 2980  15.787  22.250   2.371
30556W        W 2981  17.806  43.042  13.207
30557W        W 2982  24.228  41.906  13.606
30558W        W 2983  36.976  28.648  11.257
30559W        W 2984  25.653  30.375   3.173
30560W        W 2985  44.434  35.399  14.456
30561W        W 2986  39.778  30.961   3.316
30562W        W 2987  27.224  32.717   4.127
30563W        W 2988  42.472  22.578  14.241
30564W        W 2989  36.961  38.904  10.615
30565W        W 2990   9.855  43.973   1.858
30566W        W 2991  41.251  29.473  13.303
30567W        W 2992   7.137  16.022  14.775
30568W        W 2993  24.325  15.403  11.135
30569W        W 2994  38.857  14.534   1.330
30570W        W 2995  35.668  43.064  10.819
30571W        W 2996  31.948  28.174   0.261
30572W        W 2997   8.633  26.057   2.287
30573W        W 2998  18.780  13.510  11.283
30574W        W 2999  44.841  32.089   3.085
30575W        W 3000   5.916  20.511  13.484
30576W        W 3001  28.903  44.008   4.888
30577W        W 3002  14.518   3.851  11.164
30578W        W 3003  42.702  12.111   1.765
30579W        W 3004  18.797  30.369   2.365
30580W        W 3005  42.486  14.012   4.660
30581W        W 3006  36.283  38.847  13.033
30582W        W 3007  35.530  15.341   3.195
30583W        W 3008  21.166  14.667  11.988
30584W        W 3009   6.649  18.247   0.733
30585W        W 3010  31.568  31.161  11.016
30586W        W 3011   8.247   4.609  14.384
30587W        W 3012  18.034  37.387  11.520
30588W        W 3013  35.774  35.378  11.142
30589W        W 3014  35.414  25.775   3.889
30590W        W 3015  37.955   0.139  11.204
30591W        W 3016   2.361   6.467  10.975
30592W        W 3017  36.429  12.622   5.198
30593W        W 3018  32.389  41.817   4.134
30594W        W 3019  27.308  23.983   1.380
30595W        W 3020  17.254   2.475  13.078
30596W        W 3021   7.142  39.351   3.877
30597W        W 3022  21.769  15.016   3.241
30598W        W 3023  32.763  31.600  13.835
30599W        W 3024  18.516  36.984   1.338
30600W        W 3025  24.664  33.070   0.042
30601W        W 3026   9.461  21.310  11.598
30602W        W 3027  17.624  18.362   1.696
30603W        W 3028   9.607  44.864  12.040
30604W        W 3029  10.785   2.128   3.309
30605W        W 3030  33.341  44.832   1.330
30606W        W 3031  24.111  17.969   2.236
30607W        W 3032  34.899  36.804   2.199
30608W        W 3033   2.864   0.832  14.997
30609W        W 3034  29.176  24.584   0.488
30610W        W 3035  10.232  12.146   3.437
30611W        W 3036  17.968  26.124  14.023
30612W        W 3037   8.692   9.353  13.888
30613W        W 3038  13.681   6.838   1.837
30614W        W 3039  28.093   7.115  10.162
30615W        W 3040  12.846  16.686   2.364
30616W        W 3041  36.519  11.089   1.172
30617W        W 3042  11.908  42.448   4.812
30618W        W 3043  30.536  14.329  13.672
30619W        W 3044   5.032  40.475  11.033
30620W        W 3045   4.677  13.689  10.597
30621W        W 3046  40.050  14.131   1.420
30622W        W 3047  43.973  40.438  13.746
30623W        W 3048   2.455  31.082   1.332
30624W        W 3049  12.025  36.118  13.479
30625W        W 3050   3.878  25.486   2.827
30626W        W 3051  38.887  40.074  14.486
30627W        W 3052  31.114  12.109   1.315
30628W        W 3053   9.155  35.336  12.056
30629W        W 3054  12.371  31.372   1.222
30630W        W 3055  33.828   2.322  11.913
30631W        W 3056  41.538  10.273   3.774
30632W        W 3057  18.650   8.773  13.871
30633W        W 3058   5.439  28.907   0.863
30634W        W 3059  22.608   4.670  14.396
30635W        W 3060  20.060  44.262   2.389
30636W        W 3061  10.389  43.287   3.708
30637W        W 3062  16.785   2.275  13.096
30638W        W 3063   9.757  20.216   4.418
30639W        W 3064   8.921   8.162   0.503
30640W        W 3065  23.177   6.643   3.760
30641W        W 3066  20.803  29.612  14.791
30642W        W 3067  21.488  37.113   1.479
30643W        W 3068   8.476   0.478  12.616
30644W        W 3069  33.486  14.134   0.896
30645W        W 3070  33.069  35.400  13.515
30646W        W 3071   3.467   8.589   0.368
30647W        W 3072  36.091   6.285  14.799
30648W        W 3073  44.455  11.085   4.578
30649W        W 3074   8.049  35.742  14.650
30650W        W 3075  11.388  11.733   3.963
30651W        W 3076  44.505  12.754  10.919
30652W        W 3077  27.088  11.793  11.124
30653W        W 3078  12.405  25.657  11.578
30654W        W 3079  11.253  22.002   1.430
30655W        W 3080  17.744  39.328   2.228
30656W        W 3081  30.169  29.919   3.022
30657W        W 3082  28.854  34.076   1.885
30658W        W 3083  41.818  43.477   1.380
30659W        W 3084  15.879  41.187  10.661
30660W        W 3085  23.213  11.159  12.954
30661W        W 3086  16.556  28.048   4.929
30662W        W 3087  11.569  17.193   3.795
30663W        W 3088   5.983  27.143  14.489
30664W        W 3089  29.879   2.528   1.722
30665W        W 3090  21.570  10.450   3.622
30666W        W 3091  23.040  31.548  14.181
30667W        W 3092   5.971   6.767   1.835
30668W        W 3093  44.562  31.840  13.883
30669W        W 3094  19.852  21.887   0.410
30670W        W 3095  41.078  25.739   0.008
30671W        W 3096   3.248  42.162   1.035
30672W        W 3097   8.443  38.225  14.081
30673W        W 3098  29.871  31.345  10.998
30674W        W 3099   2.914  37.546  13.116
30675W        W 3100  34.095  21.123  10.750
30676W        W 3101  39.375  40.893   3.626
30677W        W 3102  38.892  21.221   2.719
30678W        W 3103  36.620  42.023   3.374
30679W        W 3104  27.167  27.997  13.378
30680W        W 3105  16.719  34.004   1.367
30681W        W 3106   7.766  21.063   3.210
30682W        W 3107  12.427  41.902   1.951
30683W        W 3108  33.295  31.876   3.044
30684W        W 3109  31.669   7.106  10.449
30685W        W 3110  29.998  23.800   9.914
30686W        W 3111   2.994  22.141   3.316
30687W        W 3112  41.985   6.999   4.800
30688W        W 3113   7.392  35.993  14.070
30689W        W 3114   9.379   5.372  10.765
30690W        W 3115  33.379  33.020  14.734
30691W        W 3116  35.319  35.636  11.025
30692W        W 3117  16.537   9.288  13.870
30693W        W 3118  41.521  10.268  10.311
30694W        W 3119  13.511  12.074   4.974
30695W        W 3120  34.943   5.173   1.436
30696W        W 3121  34.324  17.639   2.899
30697W        W 3122  35.483  35.274   1.975
30698W        W 3123  25.084  33.154   2.667
30699W        W 3124  42.066  39.402   1.261
30700W        W 3125  25.833  29.493   1.359
30701W        W 3126  21.317  44.998   3.413
30702W        W 3127  29.963  43.000  11.572
30703W        W 3128   3.161  36.432  11.481
30704W        W 3129   7.362  13.836   0.293
30705W        W 3130  23.214   2.157  12.323
30706W        W 3131   5.376  24.001  10.943
30707W        W 3132  33.630  20.604   1.803
30708W        W 3133  42.603  36.766  14.343
30709W        W 3134  37.120  23.591   0.665
30710W        W 3135  22.436  29.161  13.532
30711W        W 3136  37.402  20.480   4.903
30712W        W 3137  20.093  44.962   4.735
30713W        W 3138  37.030  38.967  11.643
30714W        W 3139   7.303  22.492  13.474
30715W        W 3140  16.129   0.027  12.966
30716W        W 3141   7.916  22.579   4.491
30717W        W 3142  15.655   6.496   2.788
30718W        W 3143  22.602  44.232   2.099
30719W        W 3144  21.604   2.310  14.852
30720W        W 3145  18.730   3.851   0.179
30721W        W 3146  23.439  37.894  12.483
30722W        W 3147  23.482  31.994   5.002
30723W        W 3148  24.796   1.487  13.497
30724W        W 3149  22.701  43.357  10.330
30725W        W 3150   9.677  18.084   4.086
30726W        W 3151  26.137  35.357  11.014
30727W        W 3152  12.399  22.657  10.396
30728W        W 3153  43.803   2.927  13.942
30729W        W 3154  33.557  32.022  12.978
30730W        W 3155  40.264  37.273   3.587
30731W        W 3156   0.901  32.794  14.946
30732W        W 3157  22.778  24.153   4.399
30733W        W 3158  21.218  43.547   1.248
30734W        W 3159  20.789  33.365  14.307
30735W        W 3160  21.775  27.940   4.559
30736W        W 3161  37.709  15.315   1.688
30737W        W 3162  16.159   1.031  14.216
30738W        W 3163  36.307  18.443  12.785
30739W        W 3164  21.420   8.212   4.662
30740W        W 3165  42.538  10.141   2.596
30741W        W 3166   6.673  43.911  13.292
30742W        W 3167  21.732  37.030   0.428
30743W        W 3168  32.214  35.449  10.624
30744W        W 3169  20.195  23.267   4.337
30745W        W 3170   5.950  39.084   1.034
30746W        W 3171   6.066  36.732   2.085
30747W        W 3172   9.719   3.360   4.875
30748W        W 3173   1.129  16.351   1.174
30749W        W 3174  43.445  24.257  11.494
30750W        W 3175  32.107  41.652  14.129
30751W        W 3176  42.056  10.885  12.831
30752W        W 3177   3.819   2.223   2.322
30753W        W 3178   0.164  11.090   3.222
30754W        W 3179  31.424   3.763   2.318
30755W        W 3180  32.017   4.920  12.097
30756W        W 3181  31.228  12.171   3.901
30757W        W 3182  33.234  17.293   2.401
30758W        W 3183  41.851  21.559   0.518
30759W        W 3184  29.278  44.898  14.490
30760W        W 3185  37.596   3.773   3.694
30761W        W 3186  11.416  41.865  13.390
30762W        W 3187   1.463  37.326   0.514
30763W        W 3188  20.986   5.408   4.075
30764W        W 3189  32.515  35.539   0.770
30765W        W 3190  39.476  40.307   4.309
30766W        W 3191   4.251  13.151  13.023
30767W        W 3192  44.209   9.929   2.188
30768W        W 3193  41.517  32.641  10.765
30769W        W 3194  22.202   8.000   2.064
30770W        W 3195  37.674  42.999  14.077
30771W        W 3196  42.782  23.099  10.985
30772W        W 3197  28.449  27.066   3.699
30773W        W 3198  20.217  16.823   4.050
30774W        W 3199  28.390  43.401  12.161
30775W        W 3200  34.839  28.339   1.284
30776W        W 3201   5.401  11.293   3.749
30777W        W 3202  43.321   2.069  10.711
30778W        W 3203  19.836  27.338  13.533
30779W        W 3204  11.165  29.753   2.138
30780W        W 3205  39.892  38.129  12.928
30781W        W 3206  29.176  36.575  12.335
30782W        W 3207  19.477  27.588   2.738
30783W        W 3208  35.543  37.670  10.915
30784W        W 3209  21.237  19.583   4.759
30785W        W 3210   7.312   0.475   3.187
30786W        W 3211  16.170  28.466   1.290
30787W        W 3212   8.624   7.312  12.925
30788W        W 3213   5.939  34.559   3.667
30789W        W 3214  36.360  19.378  14.575
30790W        W 3215   0.167  33.901   5.425
30791W        W 3216  24.299   6.609   4.312
30792W        W 3217  21.046  35.921   4.385
30793W        W 3218  10.652   5.648  11.228
30794W        W 3219   5.717  43.382   3.354
30795W        W 3220  23.190   5.665  12.930
30796W        W 3221  17.124  15.661   4.314
30797W        W 3222  13.240  33.150  10.800
30798W        W 3223  41.668  27.801   2.813
30799W        W 3224  14.343  43.369   0.940
30800W        W 3225  27.609  38.596  11.155
30801W        W 3226  38.869  11.079   2.512
30802W        W 3227  19.570  21.500  13.906
30803W        W 3228   1.815  24.694   0.239
30804W        W 3229  11.716  27.318   3.668
30805W        W 3230   9.768   3.727  14.331
30806W        W 3231  34.647  37.136  13.277
30807W        W 3232  30.400  39.962   4.496
30808W        W 3233  19.638  10.122  14.735
30809W        W 3234  29.715  29.258   3.698
30810W        W 3235  39.051  37.057  14.020
30811W        W 3236   7.860  24.927  11.227
30812W        W 3237  44.481  43.303  10.814
30813W        W 3238  42.666   9.105   1.448
30814W        W 3239  23.730  13.068  12.789
30815W        W 3240  32.980  27.644   4.590
30816W        W 3241   1.862  23.083   0.262
30817W        W 3242  38.722  13.389  13.510
30818W        W 3243  38.037  34.848   2.268
30819W        W 3244  16.380  21.295  10.700
30820W        W 3245  19.271  42.931  11.852
30821W        W 3246  34.061  42.836   2.319
30822W        W 3247   7.465  44.015  12.983
30823W        W 3248  17.077  36.032   3.850
30824W        W 3249  23.442  42.370  13.892
30825W        W 3250   5.374  18.122   0.322
30826W        W 3251  35.095  41.450   9.987
30827W        W 3252   3.456  17.704   4.647
30828W        W 3253  26.687  38.108   3.610
30829W        W 3254  21.090   3.492  10.854
30830W        W 3255   4.577  22.961   2.356
30831W        W 3256   0.282  41.107   1.863
30832W        W 3257  44.048  34.313  13.087
30833W        W 3258  44.944   0.836  13.586
30834W        W 3259  24.884  13.630  13.392
30835W        W 3260  31.959  40.629  13.004
30836W        W 3261  30.107  36.935  12.562
30837W        W 3262  29.128   8.490   1.873
30838W        W 3263   3.559  21.519   4.608
30839W        W 3264   6.466  43.162  14.457
30840W        W 3265  30.762  28.136  12.601
30841W        W 3266  36.332  12.206  12.862
30842W        W 3267  18.235  18.223  10.733
30843W        W 3268  11.738  40.760   3.929
30844W        W 3269  30.582   2.963  10.918
30845W        W 3270  15.791  43.505   1.719
30846W        W 3271  42.048  25.452   2.408
30847W        W 3272  40.333  33.207  10.609
30848W        W 3273  32.620  22.216   3.393
30849W        W 3274  15.607  41.301   4.060
30850W        W 3275  27.609   8.823  12.443
30851W        W 3276   0.261  12.324  12.142
30852W        W 3277  28.117  40.691  11.584
30853W        W 3278  17.137   8.316  10.970
30854W        W 3279  31.815   1.506   0.845
30855W        W 3280  24.921  14.868   2.766
30856W        W 3281  12.104   5.887   0.276
30857W        W 3282  20.811  33.458  11.939
30858W        W 3283  19.629   0.801   4.081
30859W        W 3284  12.052  20.964   2.589
30860W        W 3285   5.289  41.869  13.358
30861W        W 3286   0.928   1.844  13.503
30862W        W 3287   4.502  34.438   0.915
30863W        W 3288  28.507  20.988   2.252
30864W        W 3289  44.517  17.360  13.051
30865W        W 3290  29.981  13.204   3.089
30866W        W 3291  10.752  37.749  12.238
30867W        W 3292  39.033  40.425   4.557
30868W        W 3293  26.254   0.533   0.512
30869W        W 3294  43.685  23.252  11.475
30870W        W 3295   6.315   7.304  10.665
30871W        W 3296  20.633   0.819  13.035
30872W        W 3297   8.413  29.431   0.576
30873W        W 3298  26.828  32.504  11.191
30874W        W 3299   6.852   5.121   1.168
30875W        W 3300  19.557  26.214   3.090
30876W        W 3301  33.067  38.280   0.271
30877W        W 3302  11.396  37.747   3.320
30878W        W 3303  17.468  31.814  14.422
30879W        W 3304  22.218  22.297  13.540
30880W        W 3305  13.841  19.533   2.452
30881W        W 3306  38.814  36.742   2.604
30882W        W 3307  36.382   1.639   1.941
30883W        W 3308  34.225  18.581   4.296
30884W        W 3309  36.851  33.934   4.586
30885W        W 3310  34.436  12.823  13.542
30886W        W 3311  16.989  21.581   3.646
30887W        W 3312  29.423  19.071   2.993
30888W        W 3313  37.431  27.685   9.722
30889W        W 3314  35.360  12.256  11.950
30890W        W 3315  29.504  20.167   0.869
30891W        W 3316  35.960  43.579   1.486
30892W        W 3317  30.184  19.421  10.591
30893W        W 3318  25.678  38.597   1.713
30894W        W 3319  25.368  43.520  11.115
30895W        W 3320  31.971  43.855   0.347
30896W        W 3321  16.910  34.506   5.026
30897W        W 3322  34.918  35.992   0.304
30898W        W 3323  32.034   5.182   4.091
30899W        W 3324  36.548   6.156   2.786
30900W        W 3325  24.964  37.830   3.384
30901W        W 3326  30.648  43.592   1.330
30902W        W 3327  39.456  19.727   1.806
30903W        W 3328   2.682  25.151  12.193
30904W        W 3329  40.253   7.336   1.931
30905W        W 3330   6.280  33.500  13.513
30906W        W 3331  42.982  25.209   4.929
30907W        W 3332  23.117  42.550   2.673
30908W        W 3333   2.307  15.320  14.895
30909W        W 3334  33.066  32.298   2.809
30910W        W 3335  37.880  25.603  13.840
30911W        W 3336  42.889  43.815  14.892
30912W        W 3337   3.454  23.236  12.878
30913W        W 3338  26.559  43.734  12.049
30914W        W 3339   8.736  20.591   4.527
30915W        W 3340   5.161  36.564  11.894
30916W        W 3341  14.353   9.414   2.301
30917W        W 3342  28.679  16.483   0.730
30918W        W 3343  14.700  38.198  10.894
30919W        W 3344  33.454  43.914  12.575
30920W        W 3345   6.907  33.818   0.765
30921W        W 3346   7.998  26.052  14.896
30922W        W 3347  17.815  14.776  11.968
30923W        W 3348  16.053  22.681   3.946
30924W        W 3349  12.278  35.182  14.518
30925W        W 3350   8.247  18.101   2.723
30926W        W 3351  19.266  18.755   3.733
30927W        W 3352   0.823  13.098   2.917
30928W        W 3353  42.443   2.220   2.769
30929W        W 3354  30.276  37.747   2.353
30930W        W 3355  23.224  29.757  12.963
30931W        W 3356  40.591  19.037  14.481
30932W        W 3357  39.447  40.790   4.561
30933W        W 3358  32.037  34.766  11.050
30934W        W 3359  44.526  43.429   2.311
30935W        W 3360  28.331   4.735   9.645
30936W        W 3361  10.286  32.979   1.874
30937W        W 3362  17.534  30.667  14.273
30938W        W 3363  19.086  11.919   2.682
30939W        W 3364  34.583   0.762  12.062
30940W        W 3365  36.418  30.750   2.386
30941W        W 3366  31.471  33.710  11.483
30942W        W 3367  22.622   0.454   0.275
30943W        W 3368  33.535  19.482   4.573
30944W        W 3369  41.718   4.958   2.781
30945W        W 3370  39.162  19.542   0.797
30946W        W 3371  25.007  12.132  13.850
30947W        W 3372   1.277  15.206  14.705
30948W        W 3373   7.729  21.265  11.151
30949W        W 3374  18.705  34.919  10.625
30950W        W 3375  38.462  34.821   2.772
30951W        W 3376  14.760  15.815  13.153
30952W        W 3377  23.599   4.608   4.804
30953W        W 3378  16.088  16.044  13.938
30954W        W 3379   7.555  10.658   3.213
30955W        W 3380  43.030  14.779  11.112
30956W        W 3381  37.242  30.325   0.154
30957W        W 3382  16.620  16.778  13.811
30958W        W 3383   8.780  29.128   1.673
30959W        W 3384  32.604  36.499  11.570
30960W        W 3385   2.748  24.752   0.276
30961W        W 3386   8.689  34.011  10.444
30962W        W 3387  44.061  29.660   3.287
30963W        W 3388   3.868  27.191   2.109
30964W        W 3389  12.307  15.902  14.880
30965W        W 3390  40.902  20.117  12.184
30966W        W 3391  43.590  41.261  11.437
30967W        W 3392  14.343  38.348   2.623
30968W        W 3393  21.093  24.227   0.261
30969W        W 3394  19.060   5.778   1.630
30970W        W 3395   4.476  40.974   4.576
30971W        W 3396  39.853   8.000  12.992
30972W        W 3397   5.184  11.645   3.451
30973W        W 3398  26.082  33.895   4.132
30974W        W 3399  33.393   7.856   3.566
30975W        W 3400  24.066  19.509   4.546
30976W        W 3401  12.883  12.326  13.320
30977W        W 3402  39.886  19.039   0.062
30978W        W 3403  23.026  41.476  10.637
30979W        W 3404   8.645  37.369  12.133
30980W        W 3405  22.443  43.505  13.150
30981W        W 3406   8.862  13.364  13.386
30982W        W 3407  38.283  16.219   4.583
30983W        W 3408  19.866   8.761   4.750
30984W        W 3409  20.699  15.118   0.831
30985W        W 3410  42.583  35.589  11.447
30986W        W 3411  11.419   4.856  14.901
30987W        W 3412  39.748  38.119   0.157
30988W        W 3413   9.926  38.400   0.172
30989W        W 3414  29.423  10.180  12.546
30990W        W 3415   7.928  27.236   3.337
30991W        W 3416  19.070  20.817  14.069
30992W        W 3417  17.978  11.401  12.110
30993W        W 3418  13.583  15.857   1.414
30994W        W 3419  32.611  24.243   2.913
30995W        W 3420  44.233   2.666   3.770
30996W        W 3421  28.516  30.547   4.602
30997W        W 3422   4.753  23.860   1.337
30998W        W 3423  12.306  38.764   1.551
30999W        W 3424  15.202  15.599  14.469
31000W        W 3425  35.747   6.228   5.191
31001W        W 3426  19.753  42.133   3.065
31002W        W 3427  15.218  11.094   2.298
31003W        W 3428  38.738   2.258  13.198
31004W        W 3429  10.544  33.933  14.464
31005W        W 3430  13.565  36.814  10.534
31006W        W 3431   9.687  17.083   3.880
31007W        W 3432   1.195  19.657  13.335
31008W        W 3433  37.615   1.779  12.012
31009W        W 3434  37.888  43.871  10.587
31010W        W 3435  28.744  18.280  13.622
31011W        W 3436  23.170  40.963  14.291
31012W        W 3437  31.724  37.329   0.926
31013W        W 3438  33.562   2.737  12.972
31014W        W 3439  16.343   9.779   3.401
31015W        W 3440   0.282  35.543  14.896
31016W        W 3441  13.798  34.388   1.869
31017W        W 3442  37.101  14.270   2.232
31018W        W 3443  32.900  25.087   0.908
31019W        W 3444  38.950  38.325  12.608
31020W        W 3445   2.349   7.299  14.082
31021W        W 3446  44.038  36.330   4.774
31022W        W 3447   0.284  37.266  11.887
31023W        W 3448  21.144  28.552  11.112
31024W        W 3449  40.204   2.851   0.185
31025W        W 3450  14.754  40.586  12.450
31026W        W 3451  43.449  43.265   0.191
31027W        W 3452   1.058  35.521  12.957
31028W        W 3453   0.255  37.791   1.725
31029W        W 3454   7.900  10.942  10.662
31030W        W 3455  11.608   5.254  14.615
31031W        W 3456  18.656  30.564   0.399
31032W        W 3457  26.493  23.614  11.700
31033W        W 3458  17.056   8.946   1.837
31034W        W 3459   8.246  15.281   4.698
31035W        W 3460   1.981  10.722   4.903
31036W        W 3461  25.032  20.810  12.980
31037W        W 3462  14.148  12.261   2.862
31038W        W 3463  43.921  41.548  14.661
31039W        W 3464  38.543  36.614   2.152
31040W        W 3465  38.561  34.982  12.700
31041W        W 3466  31.966  29.032   2.281
31042W        W 3467  35.808  44.408   2.187
31043W        W 3468  20.026  36.518   2.247
31044W        W 3469  10.080  22.013  14.691
31045W        W 3470  43.474   4.734   4.691
31046W        W 3471   0.270  38.878   3.090
31047W        W 3472  23.738  13.098   2.246
31048W        W 3473  21.138  24.445  11.977
31049W        W 3474  11.960   9.721   0.324
31050W        W 3475  22.481  40.180  10.553
31051W        W 3476  42.485  21.686  13.217
31052W        W 3477  37.492   5.198   2.444
31053W        W 3478  32.483  43.681   0.368
31054W        W 3479   1.738  34.445  14.414
31055W        W 3480  26.099  33.401  10.553
31056W        W 3481  28.925  17.504   4.515
31057W        W 3482   7.969  14.709   0.774
31058W        W 3483  15.587  17.589   2.268
31059W        W 3484  15.886  25.729   3.673
31060W        W 3485  17.047   5.345  14.459
31061W        W 3486  42.784   8.246  13.868
31062W        W 3487   7.740  32.212   2.197
31063W        W 3488   5.626  24.415  11.181
31064W        W 3489  16.072  35.970  11.091
31065W        W 3490  11.977  43.430  10.681
31066W        W 3491   9.229  13.386   2.908
31067W        W 3492   6.865  26.644  12.202
31068W        W 3493  33.439  24.302  11.780
31069W        W 3494  12.585   8.676  10.947
31070W        W 3495   4.689  24.397   4.221
31071W        W 3496   1.363  28.611  10.784
31072W        W 3497  38.345  20.149  13.015
31073W        W 3498  10.295  13.429  13.330
31074W        W 3499   5.704  20.390   0.389
31075W        W 3500  43.882  33.666  10.452
31076W        W 3501  43.661  41.521  13.353
31077W        W 3502   3.982   0.886   0.512
31078W        W 3503  40.354  21.116   0.015
31079W        W 3504  23.724  26.758   1.433
31080W        W 3505   8.424  44.503   0.879
31081W        W 3506   6.889  14.923  13.823
31082W        W 3507  12.832  34.539   4.482
31083W        W 3508  12.095  21.623   4.653
31084W        W 3509  42.990  32.522  11.481
31085W        W 3510  28.859  29.146   1.232
31086W        W 3511  15.830   4.360  12.488
31087W        W 3512  35.487  27.335   0.421
31088W        W 3513  38.555  43.715  14.390
31089W        W 3514  22.937   8.126   4.108
31090W        W 3515  32.028   7.416  11.166
31091W        W 3516   2.509  19.264  11.580
31092W        W 3517  44.402  11.337  13.784
31093W        W 3518   0.358  16.735   2.254
31094W        W 3519  15.322  32.421  10.157
31095W        W 3520  17.061  36.635   3.136
31096W        W 3521  22.827  35.922  10.688
31097W        W 3522  33.686   5.426  12.231
31098W        W 3523  37.823  21.791  13.993
31099W        W 3524  24.408  29.574  11.678
31100W        W 3525  12.086  30.943   1.274
31101W        W 3526   0.215  25.540   2.183
31102W        W 3527  26.582  41.406   4.175
31103W        W 3528  25.983  41.672   2.388
31104W        W 3529  18.462   9.149   1.723
31105W        W 3530  33.644   4.210  10.558
31106W        W 3531   1.902  40.357   0.915
31107W        W 3532  19.134  43.202   1.192
31108W        W 3533  18.813  31.919   4.693
31109W        W 3534  19.946  33.082  10.676
31110W        W 3535   0.168  18.651   4.650
31111W        W 3536  42.068  32.433  12.093
31112W        W 3537  43.936  18.547  11.566
31113W        W 3538   0.372  22.734   3.538
31114W        W 3539  20.151  24.158   4.730
31115W        W 3540  12.143  11.270   0.172
31116W        W 3541  16.729   1.730   2.187
31117W        W 3542  25.527   8.342   4.678
31118W        W 3543   9.163  28.364   4.027
31119W        W 3544   9.269   5.743   4.525
31120W        W 3545  30.549   2.224  13.569
31121W        W 3546  34.131  10.276   2.662
31122W        W 3547  12.039   3.695  13.126
31123W        W 3548  39.516  10.266  10.749
31124W        W 3549  23.593  32.680  14.741
31125W        W 3550  43.876  18.085   2.848
31126W        W 3551  24.454  36.814   2.879
31127W        W 3552   7.782  39.863  10.567
31128W        W 3553  22.224   9.348   0.630
31129W        W 3554  25.747   5.394  14.357
31130W        W 3555  34.560  42.234   1.982
31131W        W 3556  22.646  31.634  13.844
31132W        W 3557  12.115   8.876  10.757
31133W        W 3558  11.715  44.038   2.779
31134W        W 3559   0.014  13.422  14.687
31135W        W 3560  24.960   4.694  12.410
31136W        W 3561  22.480  43.907  12.779
31137W        W 3562  11.666   2.768  14.862
31138W        W 3563  38.330  29.285   2.428
31139W        W 3564  19.043   7.956   2.140
31140W        W 3565   4.038  21.370   4.742
31141W        W 3566  17.423  33.433  14.398
31142W        W 3567  24.492  32.470   2.482
31143W        W 3568  43.465   1.839   2.410
31144W        W 3569   7.298  18.708   0.332
31145W        W 3570  18.215  24.145   3.255
31146W        W 3571  27.169  30.594   1.925
31147W        W 3572  21.261   5.142  14.771
31148W        W 3573  13.362  31.446  13.422
31149W        W 3574  27.888   0.952   1.667
31150W        W 3575  37.315   6.953   2.864
31151W        W 3576  41.917  20.596  12.493
31152W        W 3577   6.649  13.314   0.001
31153W        W 3578  14.853  24.662  12.937
31154W        W 3579  28.059  32.900   1.955
31155W        W 3580  15.148  27.946  11.933
31156W        W 3581  41.634  41.311  14.536
31157W        W 3582   0.822   6.529  11.061
31158W        W 3583  22.802   9.792  13.334
31159W        W 3584  22.771  26.183   2.284
31160W        W 3585   4.837  30.951   4.615
31161W        W 3586   1.348  33.451  13.625
31162W        W 3587  32.277  12.960   3.017
31163W        W 3588  33.809   0.490   3.739
31164W        W 3589  17.654  27.553   4.626
31165W        W 3590  44.301  35.584   1.821
31166W        W 3591   1.081  25.609   2.737
31167W        W 3592  19.233  41.677  11.939
31168W        W 3593  21.588  19.005   2.213
31169W        W 3594  16.715  34.813   5.422
31170W        W 3595  31.487  41.922  10.618
31171W        W 3596  14.170  29.471   0.923
31172W        W 3597  43.782  38.858  11.368
31173W        W 3598   8.104  20.465   3.710
31174W        W 3599  21.368  20.168  14.890
31175W        W 3600  22.997   5.946   2.077
31176W        W 3601   7.633  38.909   3.209
31177W        W 3602   5.298  44.849   3.125
31178W        W 3603  19.085  15.751   0.455
31179W        W 3604  30.577  28.996   4.701
31180W        W 3605  42.443   0.253   1.270
31181W        W 3606  11.018  39.917   3.665
31182W        W 3607  43.910   1.948   2.646
31183W        W 3608   4.799  36.390   0.760
31184W        W 3609   6.531  13.885  11.173
31185W        W 3610  22.146  17.237   3.704
31186W        W 3611   0.042  15.235  13.997
31187W        W 3612  36.321  14.402  12.610
31188W        W 3613  26.088   4.801   3.191
31189W        W 3614  15.503  17.540  12.574
31190W        W 3615  24.001  36.523   0.393
31191W        W 3616  31.690  24.142   4.077
31192W        W 3617   4.839  20.591  13.732
31193W        W 3618  22.674  41.792  10.956
31194W        W 3619  38.446   3.941  14.857
31195W        W 3620  15.456  42.204   2.847
31196W        W 3621  39.759  15.105  11.172
31197W        W 3622   6.112  35.996   2.784
31198W        W 3623  24.448  22.121  11.056
31199W        W 3624  32.502  24.933  11.070
31200W        W 3625  32.187  31.403  12.548
31201W        W 3626  27.230  13.849  14.935
31202W        W 3627  33.466  11.358   3.816
31203W        W 3628  15.853  39.750   4.690
31204W        W 3629   6.532  32.925  10.715
31205W        W 3630   4.167  42.166  11.075
31206W        W 3631  42.917  15.225  13.114
31207W        W 3632  12.905  16.925  11.111
31208W        W 3633  27.727  27.518   2.720
31209W        W 3634   6.870   7.924   1.485
31210W        W 3635  20.242  26.044   0.421
31211W        W 3636  42.110   0.682  12.528
31212W        W 3637  42.767  14.409   0.252
31213W        W 3638   0.232  17.195  11.603
31214W        W 3639  41.941  36.688   0.075
31215W        W 3640  18.469  10.592  14.032
31216W        W 3641   5.616  27.601   0.611
31217W        W 3642  30.901  39.953   4.145
31218W        W 3643  11.743  18.492   3.345
31219W        W 3644   9.362   0.946  13.250
31220W        W 3645  35.479  30.601  14.403
31221W        W 3646  37.931   1.985  13.858
31222W        W 3647  36.073  10.228   4.582
31223W        W 3648  16.831  43.441   4.552
31224W        W 3649  16.480  15.639  11.094
31225W        W 3650  33.098  28.191   3.313
31226W        W 3651  19.854  11.454  10.939
31227W        W 3652  30.695  13.853   1.367
31228W        W 3653   5.346   2.676  12.940
31229W        W 3654   8.784   5.465  14.455
31230W        W 3655  34.612  34.484   4.883
31231W        W 3656   0.966  18.219  13.829
31232W        W 3657   0.453  25.917   2.471
31233W        W 3658  23.181  17.760   1.726
31234W        W 3659  30.841  33.944  13.087
31235W        W 3660  12.612   6.894   3.106
31236W        W 3661  11.650  35.918   3.523
31237W        W 3662  33.405  24.067   3.888
31238W        W 3663   6.897  16.327  11.592
31239W        W 3664  26.280  17.517   3.145
31240W        W 3665   7.926  31.771   0.322
31241W        W 3666  43.409  42.002  14.447
31242W        W 3667  36.750  34.214   1.334
31243W        W 3668  26.059  35.589   3.598
31244W        W 3669  24.468  32.396  13.341
31245W        W 3670  27.546  40.547  12.921
31246W        W 3671  12.613  30.105   0.821
31247W        W 3672   4.197   5.980  10.695
31248W        W 3673  30.414  29.631  12.406
31249W        W 3674  39.856   3.438  13.825
31250W        W 3675  17.059  10.678  11.915
31251W        W 3676  14.272  35.044  12.657
31252W        W 3677  12.409   8.697   2.356
31253W        W 3678  18.331   0.444  11.322
31254W        W 3679  44.050  36.058  11.619
31255W        W 3680  20.163  42.431  12.446
31256W        W 3681  44.288  26.088  12.988
31257W        W 3682  43.508  21.388  10.231
31258W        W 3683  25.658  17.601  14.000
31259W        W 3684  36.455  37.530   1.964
31260W        W 3685  35.840  34.023   2.176
31261W        W 3686  34.656   7.415  12.864
31262W        W 3687  22.270  36.391  11.176
31263W        W 3688  12.287  31.436  13.048
31264W        W 3689  33.647  38.220   3.275
31265W        W 3690  39.594  11.832   1.759
31266W        W 3691  13.166  25.675  12.088
31267W        W 3692   1.716  11.102  11.539
31268W        W 3693  31.432  33.449  13.990
31269W        W 3694  35.096  26.097  11.093
31270W        W 3695  41.248   8.306   1.868
31271W        W 3696  14.708  28.678  13.847
31272W        W 3697   6.021  17.714  14.442
31273W        W 3698  40.099  35.523  14.801
31274W        W 3699  16.220  35.153   1.847
31275W        W 3700  30.820  23.218   4.153
31276W        W 3701  22.725   4.716   2.844
31277W        W 3702  10.871  13.734   1.568
31278W        W 3703  26.834  22.020  12.064
31279W        W 3704  12.384  33.180  11.911
31280W        W 3705  28.528  31.126  12.885
31281W        W 3706  22.916  40.560   0.275
31282W        W 3707  31.354   9.559  14.707
31283W        W 3708  16.037   2.916   2.946
31284W        W 3709  27.945   3.207  10.768
31285W        W 3710   2.800  18.314  12.021
31286W        W 3711  32.946  23.995  13.146
31287W        W 3712  31.015  41.383   5.691
31288W        W 3713   1.558  35.064  10.813
31289W        W 3714   5.588  33.844  11.876
31290W        W 3715  35.136  37.092   0.983
31291W        W 3716  20.575  31.016   3.686
31292W        W 3717  24.181  44.507  10.986
31293W        W 3718  29.492  43.439   1.884
31294W        W 3719  10.881  41.238  13.367
31295W        W 3720  31.895  31.994   0.278
31296W        W 3721  34.375  42.416   3.908
31297W        W 3722   0.804   2.898   0.444
31298W        W 3723  26.549   0.578  14.597
31299W        W 3724  44.556  17.852  12.328
31300W        W 3725  37.182  31.877   9.994
31301W        W 3726   4.400  11.190   4.867
31302W        W 3727  30.651  22.922  11.581
31303W        W 3728  11.820   6.562   1.802
31304W        W 3729  38.372  22.661  14.026
31305W        W 3730  12.099  42.864   4.605
31306W        W 3731  11.665  37.576   1.293
31307W        W 3732  20.100   1.868  11.968
31308W        W 3733   9.319  34.820  13.649
31309W        W 3734  17.870  26.950  12.482
31310W        W 3735  13.018   3.249   3.704
31311W        W 3736  31.655  18.136  11.072
31312W        W 3737  16.589  32.502   4.583
31313W        W 3738  42.935  32.882  11.065
31314W        W 3739  10.184  39.292   1.455
31315W        W 3740  41.874  21.450  12.044
31316W        W 3741  22.572  26.938  12.491
31317W        W 3742   0.388   4.321  14.661
31318W        W 3743  19.146   8.342  11.838
31319W        W 3744  18.656   3.060   3.426
31320W        W 3745  17.608  18.999  12.986
31321W        W 3746  41.469  31.734  12.334
31322W        W 3747   1.472  10.879  10.950
31323W        W 3748  26.347  29.577   1.416
31324W        W 3749  26.086  29.678  13.569
31325W        W 3750   0.387  20.805  13.025
31326W        W 3751  10.785  32.564   0.859
31327W        W 3752  36.628  34.133  14.303
31328W        W 3753  14.706  27.166  14.276
31329W        W 3754   3.400  36.536  12.456
31330W        W 3755  36.780   2.455  11.012
31331W        W 3756  31.498   0.245   1.742
31332W        W 3757   9.212  12.608  13.182
31333W        W 3758   9.831  11.162  12.170
31334W        W 3759  18.408  24.319  13.992
31335W        W 3760  25.545   4.016  14.377
31336W        W 3761   1.848   5.274  14.456
31337W        W 3762  10.190  28.898  12.545
31338W        W 3763  36.344   1.059   0.881
31339W        W 3764  18.775  13.248  10.434
31340W        W 3765   0.549  36.497   0.189
31341W        W 3766  37.241  11.193  13.292
31342W        W 3767  36.492  31.577   0.895
31343W        W 3768  38.362  21.016  12.605
31344W        W 3769  12.377  42.313   4.653
31345W        W 3770   5.909   2.049  11.419
31346W        W 3771  26.927  34.467   3.204
31347W        W 3772  40.988  10.205  13.577
31348W        W 3773  16.013  15.668  12.402
31349W        W 3774  24.127  44.393   3.273
31350W        W 3775   4.374  23.041  14.829
31351W        W 3776  24.684   9.130   3.594
31352W        W 3777  25.586  39.114  14.295
31353W        W 3778  27.734   8.638   3.728
31354W        W 3779  41.939   2.815  12.660
31355W        W 3780  43.859  25.460   2.143
31356W        W 3781  28.976  41.288  12.101
31357W        W 3782  14.752  12.193  10.719
31358W        W 3783  12.684  13.187   2.752
31359W        W 3784  21.811   4.670  12.473
31360W        W 3785   5.380  18.107   1.208
31361W        W 3786   1.969   0.584  11.741
31362W        W 3787  11.449  23.148  14.920
31363W        W 3788  41.586  29.389  12.006
31364W        W 3789  31.999  18.741   2.290
31365W        W 3790  29.651  10.778   0.511
31366W        W 3791  20.484  41.765   1.463
31367W        W 3792  35.965   6.603   2.218
31368W        W 3793  32.363  15.657   2.881
31369W        W 3794  28.518  23.516   1.247
31370W        W 3795   4.864  25.528   4.572
31371W        W 3796  44.767  18.323  12.464
31372W        W 3797  27.248  39.636  14.385
31373W        W 3798  16.006  23.106  11.055
31374W        W 3799  43.775   3.301   2.321
31375W        W 3800  35.984  32.416  11.610
31376W        W 3801  11.813  14.125  12.022
31377W        W 3802  31.610  21.305   3.399
31378W        W 3803  43.319  34.159   3.193
31379W        W 3804  15.642  14.590   3.631
31380W        W 3805  43.274  24.532   3.348
31381W        W 3806  15.883  40.336   1.708
31382W        W 3807  33.389  14.027  11.646
31383W        W 3808  25.598  10.333   3.452
31384W        W 3809  25.660  25.265   4.244
31385W        W 3810  37.060  44.829   4.401
31386W        W 3811   9.672  37.933  14.435
31387W        W 3812  38.988  11.825   0.317
31388W        W 3813   2.776  44.446  14.919
31389W        W 3814  39.466  41.336  11.478
31390W        W 3815   8.737  33.466   4.764
31391W        W 3816  34.379   1.201  12.985
31392W        W 3817  14.613  26.039  10.702
31393W        W 3818  20.254  14.186   1.652
31394W        W 3819  23.932  13.408   1.835
31395W        W 3820  30.579  32.924  10.824
31396W        W 3821  23.419  33.977   0.995
31397W        W 3822  33.686  44.641   2.813
31398W        W 3823  11.386  23.583  13.020
31399W        W 3824  25.773  29.435   3.265
31400W        W 3825   5.513  34.936   1.695
31401W        W 3826  39.578  34.279  12.324
31402W        W 3827  26.497  36.309  11.634
31403W        W 3828  37.900   0.974  11.593
31404W        W 3829   4.509  27.207  14.678
31405W        W 3830   8.462  43.780  12.982
31406W        W 3831  34.451   2.657   4.143
31407W        W 3832  33.337  15.346  11.980
31408W        W 3833   2.757  22.806  13.171
31409W        W 3834  11.741  10.989  10.421
31410W        W 3835  24.118  32.704  10.388
31411W        W 3836  10.266  32.182  13.923
31412W        W 3837   4.128  41.764   2.720
31413W        W 3838   9.295  32.549   4.323
31414W        W 3839  21.116   4.033   3.570
31415W        W 3840   5.159   4.049  11.945
31416W        W 3841  28.252  12.382  11.543
31417W        W 3842  12.740  25.071  12.763
31418W        W 3843  27.642  35.109   3.583
31419W        W 3844  23.120  43.368   3.953
31420W        W 3845  27.766  19.848   3.243
31421W        W 3846  37.454  34.077   4.092
31422W        W 3847  32.920  19.083   1.317
31423W        W 3848  13.874  35.872   1.539
31424W        W 3849  24.018   2.790   1.090
31425W        W 3850  24.321  24.201  14.805
31426W        W 3851  14.064   8.664   2.822
31427W        W 3852  43.025   4.417  11.232
31428W        W 3853  43.716  12.447   2.760
31429W        W 3854  33.796  30.766   2.929
31430W        W 3855  36.430  33.360   4.989
31431W        W 3856  20.479   3.888  11.158
31432W        W 3857  40.302  20.869   4.050
31433W        W 3858  34.625  28.686  12.000
31434W        W 3859  24.966   6.780   1.232
31435W        W 3860  35.511  42.929   4.028
31436W        W 3861  39.083  20.416  14.946
31437W        W 3862   0.735  11.955   1.007
31438W        W 3863  24.593   7.275  10.728
31439W        W 3864  15.578  42.306   3.334
31440W        W 3865  23.524   6.335   1.297
31441W        W 3866  36.896  32.875   0.853
31442W        W 3867  24.115  10.352  12.936
31443W        W 3868   9.997  20.915  13.391
31444W        W 3869   8.870  44.906   1.832
31445W        W 3870  10.167  15.719   5.065
31446W        W 3871  29.417  31.455  13.341
31447W        W 3872  32.723  33.482   0.299
31448W        W 3873  37.829   7.524   9.773
31449W        W 3874   0.273  16.231  10.543
31450W        W 3875  34.472  29.651  12.938
31451W        W 3876  24.174  18.047   3.148
31452W        W 3877  40.490  36.911   1.743
31453W        W 3878  20.617   1.865  13.932
31454W        W 3879  16.104   0.489   1.956
31455W        W 3880  11.479  18.807  14.970
31456W        W 3881  34.887  13.544   4.087
31457W        W 3882   2.128  38.415  10.739
31458W        W 3883  44.322  27.559  13.737
31459W        W 3884  21.120  23.460   3.778
31460W        W 3885   4.351  36.312   0.492
31461W        W 3886  21.724  33.573  13.095
31462W        W 3887  43.516  44.883  14.928
31463W        W 3888  38.175   7.194   0.242
31464W        W 3889  35.649   6.957  13.582
31465W        W 3890  19.538  17.349  13.478
31466W        W 3891  22.040  26.750  14.360
31467W        W 3892  21.579  21.961   1.472
31468W        W 3893   7.979  21.064   4.568
31469W        W 3894   1.268  21.054   4.681
31470W        W 3895  24.484   9.542   0.842
31471W        W 3896   4.755  29.027   1.403
31472W        W 3897  40.488   7.427   1.443
31473W        W 3898  36.009   0.323   1.707
31474W        W 3899  11.057  18.424  13.466
31475W        W 3900   5.680  44.001  12.939
31476W        W 3901  23.065  25.007   3.584
31477W        W 3902  16.024  15.455  13.282
31478W        W 3903  20.778  23.753   1.585
31479W        W 3904  35.563   2.114  14.945
31480W        W 3905  17.054  15.186   9.878
31481W        W 3906  13.389   4.489   3.554
31482W        W 3907  35.115   2.067  12.549
31483W        W 3908   5.734  14.122  11.149
31484W        W 3909  31.630  40.809   0.837
31485W        W 3910   1.242   0.206   3.134
31486W        W 3911   9.830  28.838  11.913
31487W        W 3912  30.331  40.030   3.474
31488W        W 3913  35.472  36.866   3.880
31489W        W 3914  16.761  15.618  11.927
31490W        W 3915  23.408  32.013   2.474
31491W        W 3916  43.251  34.183   2.319
31492W        W 3917  40.551  39.334   4.818
31493W        W 3918  35.874  13.833   2.256
31494W        W 3919  23.551  36.915   0.640
31495W        W 3920  44.421   3.334  13.326
31496W        W 3921  20.585  15.609   2.098
31497W        W 3922   7.608   5.324  12.311
31498W        W 3923  33.151   5.314  12.554
31499W        W 3924   0.918  33.882  10.933
31500W        W 3925  40.432  23.134  12.966
31501W        W 3926   4.783  27.714   1.910
31502W        W 3927   6.415  32.430  13.456
31503W        W 3928   6.051  36.998   4.121
31504W        W 3929  34.170  16.163   2.859
31505W        W 3930  32.698  34.058  12.396
31506W        W 3931  32.008  41.243  11.064
31507W        W 3932  42.924  36.280   1.789
31508W        W 3933  20.070  41.753   2.895
31509W        W 3934  19.047  29.344   4.281
31510W        W 3935  33.441  16.083  13.942
31511W        W 3936  25.518  29.413   4.117
31512W        W 3937  21.184   2.971  13.373
31513W        W 3938  12.619   3.874   0.894
31514W        W 3939   9.184  20.293  13.026
31515W        W 3940  28.720  29.071   4.851
31516W        W 3941  32.183  25.158   2.740
31517W        W 3942  13.152  17.265   4.030
31518W        W 3943  23.781  23.630   2.255
31519W        W 3944  43.840   6.383   4.874
31520W        W 3945  41.763   5.756  10.278
31521W        W 3946  12.863  30.579   3.833
31522W        W 3947  19.782   0.710  11.465
31523W        W 3948  34.428   4.297   0.090
31524W        W 3949  28.976  34.061   4.191
31525W        W 3950   4.131  17.399  12.263
31526W        W 3951   3.334  43.239  14.507
31527W        W 3952  17.657  37.407   3.251
31528W        W 3953  17.447  38.470   0.872
31529W        W 3954  17.298  17.217  10.004
31530W        W 3955  22.110   8.045  11.609
31531W        W 3956  22.005   6.272  13.759
31532W        W 3957   1.159  32.645   9.756
31533W        W 3958  18.708  39.138   0.088
31534W        W 3959  24.264  32.172  11.595
31535W        W 3960   1.368  11.633  10.739
31536W        W 3961   6.915  41.333  11.239
31537W        W 3962  34.918  43.374   3.007
31538W        W 3963  11.778  13.202   0.267
31539W        W 3964  24.083   8.323   4.190
31540W        W 3965  43.549  11.474   3.906
31541W        W 3966  18.742  15.693  12.645
31542W        W 3967  24.232   9.317   1.768
31543W        W 3968  12.469  44.973   3.716
31544W        W 3969   2.965  19.261   4.140
31545W        W 3970  23.192  43.541   0.809
31546W        W 3971   4.303   0.266  11.649
31547W        W 3972  28.068  14.756  10.679
31548W        W 3973  33.610  17.771  14.498
31549W        W 3974  15.797  26.706  11.976
31550W        W 3975  40.410  10.725   4.189
31551W        W 3976  28.217   5.251   4.622
31552W        W 3977  25.035  10.111   2.312
31553W        W 3978  20.011  32.192  13.853
31554W        W 3979  24.639   7.434   0.298
31555W        W 3980  24.512   7.362  12.603
31556W        W 3981  19.292  26.673   4.582
31557W        W 3982  17.151  14.765  14.812
31558W        W 3983  21.280  24.212  13.976
31559W        W 3984  15.369   1.393  10.512
31560W        W 3985  24.039  25.488  14.530
31561W        W 3986   5.454   9.773   1.342
31562W        W 3987  21.301   4.355   1.492
31563W        W 3988  35.582   2.325  12.518
31564W        W 3989  17.955  35.019  11.155
31565W        W 3990  41.769  10.131   4.421
31566W        W 3991  18.781  33.548  12.900
31567W        W 3992  17.167  18.201   2.439
31568W        W 3993  16.093   1.385   1.492
31569W        W 3994  35.878  44.353  13.993
31570W        W 3995  22.202   4.742  14.986
31571W        W 3996  14.299   3.175   0.355
31572W        W 3997  28.069  27.308   1.495
31573W        W 3998   0.409   3.009  11.235
31574W        W 3999   0.768  29.619  13.782
31575W        W 4000   1.602   2.933   1.319
31576W        W 4001  14.255   0.146   3.011
31577W        W 4002   9.306  13.047  13.437
31578W        W 4003  44.900  12.947  11.606
31579W        W 4004  19.716   2.611   0.961
31580W        W 4005  32.947  17.768   4.830
31581W        W 4006  25.217  11.814  10.684
31582W        W 4007  34.317   9.681   4.237
31583W        W 4008  22.293  38.555   2.596
31584W        W 4009  28.010  31.058   1.359
31585W        W 4010  11.390  15.283   0.882
31586W        W 4011  41.308   6.828  11.651
31587W        W 4012  43.348  20.072  14.939
31588W        W 4013  26.203   5.968  11.351
31589W        W 4014  31.787  33.325   4.192
31590W        W 4015  22.453  15.190   4.617
31591W        W 4016  18.521  33.935  11.962
31592W        W 4017  23.513  39.916   1.319
31593W        W 4018  13.269  43.451  13.222
31594W        W 4019  15.960  34.622   9.879
31595W        W 4020  38.396  41.938  12.658
31596W        W 4021  26.415  30.448   0.829
31597W        W 4022   9.616  23.398  14.910
31598W        W 4023   7.989  13.705  11.144
31599W        W 4024   3.650   9.795  13.323
31600W        W 4025  17.729  44.267   2.390
31601W        W 4026  37.875  37.304   0.268
31602W        W 4027  36.793  22.775   1.137
31603W        W 4028  36.139  31.029   1.356
31604W        W 4029  42.323  38.022   2.948
31605W        W 4030  42.613  10.576  11.942
31606W        W 4031   8.534   4.190  14.398
31607W        W 4032  25.564  19.169  10.425
31608W        W 4033  40.863  23.461  10.943
31609W        W 4034  25.677  36.926  12.527
31610W        W 4035   4.014  35.648   1.257
31611W        W 4036  14.767  20.001   4.124
31612W        W 4037  28.822   4.914   4.402
31613W        W 4038  10.642   2.903  12.600
31614W        W 4039  38.944   9.610  12.206
31615W        W 4040  12.744   5.832   2.319
31616W        W 4041  42.536  29.918   4.886
31617W        W 4042  31.534   9.208  13.948
31618W        W 4043  26.727  23.612   2.802
31619W        W 4044  15.330  13.876  12.768
31620W        W 4045   1.946  20.822  12.154
31621W        W 4046   2.907  17.023   0.542
31622W        W 4047  28.096  13.855  12.168
31623W        W 4048  38.411   4.935   1.238
31624W        W 4049  30.110  44.340   2.392
31625W        W 4050  19.093  14.812   4.110
31626W        W 4051  29.432  26.113   3.660
31627W        W 4052  22.913   8.786   0.311
31628W        W 4053   5.340  40.589  11.562
31629W        W 4054  35.518   6.643   4.960
31630W        W 4055  28.134  14.851  12.169
31631W        W 4056   2.264  35.395   2.615
31632W        W 4057  27.063   1.163   1.951
31633W        W 4058  18.815  43.096  13.569
31634W        W 4059  22.577  21.757  10.924
31635W        W 4060  14.111  44.289  14.470
31636W        W 4061  43.741   1.946  12.980
31637W        W 4062  41.738   6.771  12.347
31638W        W 4063  26.181  18.021   3.123
31639W        W 4064  25.986  31.084   3.574
31640W        W 4065   5.190   1.347   1.902
31641W        W 4066  23.594  15.222  10.631
31642W        W 4067  40.866   3.264   2.664
31643W        W 4068  39.712  30.469  11.635
31644W        W 4069  19.022  40.592   0.809
31645W        W 4070  17.279  23.855   3.303
31646W        W 4071  34.611  39.472  11.255
31647W        W 4072  15.642  17.703  14.986
31648W        W 4073  16.977  28.194  10.795
31649W        W 4074  18.783  39.057   0.593
31650W        W 4075   9.929  35.040  11.058
31651W        W 4076  21.747  13.017  10.791
31652W        W 4077   9.609  26.632  11.080
31653W        W 4078  27.386   4.409   0.728
31654W        W 4079  23.223  20.772  12.170
31655W        W 4080  16.110  35.544  10.755
31656W        W 4081  44.250  13.054   4.621
31657W        W 4082  15.738  37.114   4.206
31658W        W 4083  11.805  41.943   1.456
31659W        W 4084   0.513   5.513  12.465
31660W        W 4085  23.926  20.998   2.711
31661W        W 4086  15.927  20.865   0.879
31662W        W 4087  41.065  16.586  11.119
31663W        W 4088  23.971  26.988  13.584
31664W        W 4089  40.639   7.953  11.935
31665W        W 4090  13.350  22.971   4.275
31666W        W 4091   4.945  24.928  13.559
31667W        W 4092  21.619  15.815   1.806
31668W        W 4093  21.621  13.504  13.139
31669W        W 4094   9.170   0.553   2.501
31670W        W 4095   4.341  12.142   3.299
31671W        W 4096  33.104   5.631   1.843
31672W        W 4097  21.551  40.508   1.986
31673W        W 4098  34.450  34.019   4.730
31674W        W 4099  21.975  32.083  11.552
31675W        W 4100  20.416  35.525  14.239
31676W        W 4101  25.737   3.735   3.978
31677W        W 4102  35.515  31.856  10.589
31678W        W 4103  40.358  37.570  13.434
31679W        W 4104   5.948   8.242  11.218
31680W        W 4105  25.959  44.977  12.335
31681W        W 4106  35.871   4.940  12.973
31682W        W 4107  30.099  25.392   1.278
31683W        W 4108   1.383  19.937   1.019
31684W        W 4109  40.511  22.411   3.631
31685W        W 4110  28.963  33.039   4.652
31686W        W 4111   2.549   2.680  12.496
31687W        W 4112  18.521  30.057   4.556
31688W        W 4113  22.897  34.443   4.228
31689W        W 4114   2.650  36.155  11.042
31690W        W 4115  24.111  22.507  13.103
31691W        W 4116  15.756   4.474  13.128
31692W        W 4117   9.365  28.017  12.092
31693W        W 4118  16.053   6.726  13.251
31694W        W 4119  27.992   7.626  10.194
31695W        W 4120  41.574   2.662   0.013
31696W        W 4121   3.811  33.245  10.686
31697W        W 4122   9.347  14.616  11.412
31698W        W 4123  24.150  14.271   2.425
31699W        W 4124  28.695   7.858   2.531
31700W        W 4125  23.752  27.435  13.460
31701W        W 4126  29.696  28.807   0.292
31702W        W 4127  10.260  20.591  11.602
31703W        W 4128  25.240  41.700   1.392
31704W        W 4129  31.901  36.925   3.889
31705W        W 4130  26.556  12.965   3.292
31706W        W 4131  23.658  15.670   0.326
31707W        W 4132  33.651   8.867   4.523
31708W        W 4133  44.499  44.773   4.127
31709W        W 4134  34.316   9.406  10.732
31710W        W 4135   6.183  41.495  11.552
31711W        W 4136   9.600  44.823   4.644
31712W        W 4137  17.287  44.006  13.001
31713W        W 4138  16.835  23.173   4.407
31714W        W 4139  34.478   2.280   1.718
31715W        W 4140  39.127  12.085   2.540
31716W        W 4141   1.003  38.467   0.419
31717W        W 4142  18.243  10.259  13.028
31718W        W 4143  32.369  28.415  14.480
31719W        W 4144  11.548  30.682   2.306
31720W        W 4145  44.718  37.462   0.230
31721W        W 4146   8.285   1.175  13.017
31722W        W 4147  42.023  11.381  12.961
31723W        W 4148  31.612   1.499   3.049
31724W        W 4149  43.890  35.755  13.718
31725W        W 4150  28.173  33.918  10.179
31726W        W 4151  35.199  37.186  11.747
31727W        W 4152  16.677  40.924   4.757
31728W        W 4153  18.794  40.380  10.773
31729W        W 4154  41.969  28.177   0.953
31730W        W 4155  20.173  22.136   2.689
31731W        W 4156  11.111  36.945  14.877
31732W        W 4157  11.064   1.900  10.616
31733W        W 4158  25.681  39.874   2.348
31734W        W 4159  36.312  30.042   4.243
31735W        W 4160   5.749  24.538  13.021
31736W        W 4161   7.732  36.103   2.110
31737W        W 4162  25.475   6.341   3.699
31738W        W 4163  44.853  25.712  14.441
31739W        W 4164  42.753  16.193  13.112
31740W        W 4165   5.281  31.789   0.368
31741W        W 4166  31.619  17.354  12.846
31742W        W 4167  10.402  21.074  11.493
31743W        W 4168   7.459  27.982  13.214
31744W        W 4169  29.498   3.450  10.215
31745W        W 4170  23.209   5.387  11.966
31746W        W 4171   1.258  33.178  14.063
31747W        W 4172  36.830  36.346   0.349
31748W        W 4173  18.995  10.155   1.895
31749W        W 4174   6.350   4.373  11.796
31750W        W 4175  17.513   8.959  14.938
31751W        W 4176  43.500  10.940  10.998
31752W        W 4177  37.074  21.169  12.088
31753W        W 4178  43.775  33.464   0.554
31754W        W 4179  16.267  35.487   9.800
31755W        W 4180  37.317  11.173   4.085
31756W        W 4181   8.168   1.426  14.324
31757W        W 4182  19.660  25.710  14.848
31758W        W 4183   0.458  24.082   4.165
31759W        W 4184   1.723  35.085  13.267
31760W        W 4185  28.208  16.647  12.473
31761W        W 4186  44.400  21.781   2.695
31762W        W 4187  44.200  22.962   1.217
31763W        W 4188  12.223  17.235   2.983
31764W        W 4189  25.193   2.932   3.568
31765W        W 4190  44.372   7.199   2.627
31766W        W 4191  38.621   2.350  12.707
31767W        W 4192  44.309   1.099  12.504
31768W        W 4193  15.072  39.127  11.086
31769W        W 4194  35.081  10.835   3.294
31770W        W 4195  39.983  21.648   5.686
31771W        W 4196  30.637   0.882  14.793
31772W        W 4197  40.819   5.094   2.984
31773W        W 4198  15.576  44.317   3.718
31774W        W 4199  18.397  17.370  14.439
31775W        W 4200  16.346  17.639   0.494
31776W        W 4201  22.729   1.781   1.719
31777W        W 4202  31.788  16.120  12.458
31778W        W 4203   7.335  28.150   0.953
31779W        W 4204   5.230  37.592   4.732
31780W        W 4205  42.816  43.056  13.923
31781W        W 4206  43.809  40.356  14.238
31782W        W 4207  29.448  39.798   3.150
31783W        W 4208   1.285  13.894   0.865
31784W        W 4209  44.468  26.961   2.922
31785W        W 4210  44.387  13.497  13.076
31786W        W 4211  28.228  11.387  11.573
31787W        W 4212  28.550   3.296  11.786
31788W        W 4213  13.612  41.690  12.070
31789W        W 4214   8.892  37.349  10.772
31790W        W 4215  33.052  16.246  12.984
31791W        W 4216  42.817  16.690  12.960
31792W        W 4217  31.904  18.105  14.383
31793W        W 4218  15.398   2.701  14.270
31794W        W 4219   7.439   3.270   1.016
31795W        W 4220  43.903  42.109   1.802
31796W        W 4221  15.294  11.354  14.735
31797W        W 4222  23.299  24.154  12.545
31798W        W 4223  12.586  28.673   0.019
31799W        W 4224  16.150  24.311  10.540
31800W        W 4225   6.301   1.719  12.626
31801W        W 4226  24.692  21.087   1.354
31802W        W 4227   0.694   7.313  12.477
31803W        W 4228  40.006  36.470   0.238
31804W        W 4229  10.181   1.923  12.353
31805W        W 4230  14.091   6.715  14.867
31806W        W 4231   9.432   6.683   4.581
31807W        W 4232  38.508   7.262   1.965
31808W        W 4233  13.167  38.613  14.818
31809W        W 4234  12.228  28.136  12.528
31810W        W 4235  31.932   9.565   4.755
31811W        W 4236  33.716  18.830   0.875
31812W        W 4237   2.477   9.729   0.214
31813W        W 4238  13.796  34.653   1.404
31814W        W 4239   3.844  16.006   2.378
31815W        W 4240  35.059  38.434   4.473
31816W        W 4241   2.531  32.051  11.174
31817W        W 4242  24.996  21.741  13.017
31818W        W 4243  20.146  39.419  11.338
31819W        W 4244  20.519  25.612   4.098
31820W        W 4245  27.476  19.028   3.676
31821W        W 4246   2.173  43.666  14.840
31822W        W 4247  32.032   6.700   3.725
31823W        W 4248  28.426  22.638  11.510
31824W        W 4249   3.353  21.213   2.308
31825W        W 4250  34.587  17.121  11.506
31826W        W 4251  16.247  44.785   4.128
31827W        W 4252  41.474  20.547   2.861
31828W        W 4253  42.124   8.237  11.236
31829W        W 4254  15.139  18.087   0.278
31830W        W 4255  42.411  40.123   3.298
31831W        W 4256  14.780  24.791   1.892
31832W        W 4257  22.644  13.123  12.908
31833W        W 4258  23.648  18.562  14.848
31834W        W 4259   5.452  23.165  11.438
31835W        W 4260  28.022  39.738  13.005
31836W        W 4261  25.325  24.666  12.147
31837W        W 4262  31.867   9.954   0.505
31838W        W 4263  42.816   6.253  13.737
31839W        W 4264   3.261  13.543  12.361
31840W        W 4265  29.169  29.636   4.315
31841W        W 4266   2.444  41.883   4.668
31842W        W 4267  27.095  16.227   3.606
31843W        W 4268  14.347  15.223   1.458
31844W        W 4269   4.957  25.636  14.077
31845W        W 4270  27.466  32.882   1.699
31846W        W 4271  15.160  11.090  11.872
31847W        W 4272  13.375  40.912   4.594
31848W        W 4273  32.457  35.616   1.772
31849W        W 4274  15.486   7.915   2.299
31850W        W 4275  18.087  37.419  10.664
31851W        W 4276  21.081  29.650  13.435
31852W        W 4277   4.377  11.233   2.511
31853W        W 4278   3.272  30.478  11.805
31854W        W 4279   9.714  16.636  11.070
31855W        W 4280  32.214  22.821  14.850
31856W        W 4281  12.494   2.785   0.259
31857W        W 4282  17.346  34.188   0.559
31858W        W 4283   9.172  14.782   2.680
31859W        W 4284   3.536  27.785   1.211
31860W        W 4285  19.234   9.249   2.809
31861W        W 4286  25.146  21.577  14.031
31862W        W 4287   6.409  44.209   4.714
31863W        W 4288  40.105  41.013  14.402
31864W        W 4289  40.898  18.005   0.762
31865W        W 4290  11.733  26.808   3.764
31866W        W 4291  18.599  28.439  11.625
31867W        W 4292  15.688  44.966  14.958
31868W        W 4293  15.272  22.587   4.837
31869W        W 4294  26.903  24.992   3.313
31870W        W 4295  10.226  38.667  13.476
31871W        W 4296  39.431  44.283   4.006
31872W        W 4297  36.073   6.803   3.175
31873W        W 4298  35.586  40.768   0.610
31874W        W 4299  21.134  16.131  11.072
31875W        W 4300  42.054   6.847  10.702
31876W        W 4301  16.629  42.905  12.456
31877W        W 4302  36.535  26.723  11.524
31878W        W 4303  44.043  27.509   4.529
31879W        W 4304  28.045  21.774  13.622
31880W        W 4305  31.128   4.454   0.767
31881W        W 4306   3.644  15.079  11.560
31882W        W 4307  11.826  43.944  14.291
31883W        W 4308  14.996  38.442   2.660
31884W        W 4309  24.335  22.955  12.972
31885W        W 4310   3.293  13.859   2.303
31886W        W 4311  32.166   7.393   3.109
31887W        W 4312  36.807   3.483   0.972
31888W        W 4313   4.754  22.339  14.441
31889W        W 4314   7.682  44.474  12.337
31890W        W 4315  25.834  43.849   1.977
31891W        W 4316  30.875  22.182  11.956
31892W        W 4317  28.668   9.415   2.282
31893W        W 4318  16.498  39.472   1.836
31894W        W 4319   4.047  12.151  12.572
31895W        W 4320  41.627  32.907   1.381
31896W        W 4321   2.968  20.704  13.278
31897W        W 4322  43.743  11.904  13.978
31898W        W 4323  35.491  44.433   2.611
31899W        W 4324  31.420  32.510  14.875
31900W        W 4325  37.890  14.680  12.348
31901W        W 4326   3.799   2.951   0.512
31902W        W 4327  28.517  13.227   2.911
31903W        W 4328   7.773  21.510  11.661
31904W        W 4329  44.636  17.210   4.559
31905W        W 4330  13.636   6.907  11.544
31906W        W 4331   9.765  44.310  13.590
31907W        W 4332  35.907   4.837   3.990
31908W        W 4333  43.763  36.538   2.711
31909W        W 4334   5.205   2.347   2.784
31910W        W 4335  38.564  12.400   2.669
31911W        W 4336  33.491  43.917  13.075
31912W        W 4337  41.035  40.378  12.528
31913W        W 4338  13.795  43.066  13.842
31914W        W 4339  20.641   0.007  10.582
31915W        W 4340  31.463  10.397  12.029
31916W        W 4341  30.960  29.704  14.773
31917W        W 4342  33.128  41.442  13.955
31918W        W 4343  26.992  38.172  14.817
31919W        W 4344  15.599  26.219  13.929
31920W        W 4345  36.672   1.383   1.191
31921W        W 4346  33.882  15.103  12.449
31922W        W 4347  15.596  13.668  14.315
31923W        W 4348  15.213  36.024   1.421
31924W        W 4349  15.507  42.353   2.344
31925W        W 4350  10.838   3.788  14.430
31926W        W 4351  38.020  41.011  14.776
31927W        W 4352  28.456  31.957   0.200
31928W        W 4353  39.063  42.235  13.514
31929W        W 4354   5.831  33.632  10.916
31930W        W 4355   6.236  22.547  10.568
31931W        W 4356  36.589  22.063  13.567
31932W        W 4357  11.081  24.123   5.001
31933W        W 4358  16.595  14.275  12.915
31934W        W 4359   6.580  37.458  14.020
31935W        W 4360  17.692   5.203   3.731
31936W        W 4361  35.120  16.244  12.914
31937W        W 4362  31.159  17.782  13.495
31938W        W 4363   0.495  28.307   4.171
31939W        W 4364   0.499   6.741  12.017
31940W        W 4365  33.070   1.915  12.105
31941W        W 4366  35.495  33.528   2.616
31942W        W 4367  30.940  38.636   0.576
31943W        W 4368  21.125  11.818  13.422
31944W        W 4369  37.572  22.505  10.712
31945W        W 4370  43.158  41.433  13.392
31946W        W 4371   2.830   2.689  14.030
31947W        W 4372  33.007   4.727   3.255
31948W        W 4373  43.439  32.482  12.023
31949W        W 4374  32.828  17.143  11.138
31950W        W 4375  12.261  41.781   4.651
31951W        W 4376   3.313   7.827   1.956
31952W        W 4377  32.110  28.438   1.149
31953W        W 4378  13.652   4.220   2.298
31954W        W 4379  42.776  15.098  12.134
31955W        W 4380  15.512  10.286   2.258
31956W        W 4381  44.404  41.027  13.302
31957W        W 4382  39.097   5.247  12.100
31958W        W 4383  32.223  25.129  10.477
31959W        W 4384  40.490  22.758  12.616
31960W        W 4385  42.607   0.802  13.144
31961W        W 4386  28.884  24.611   2.961
31962W        W 4387  36.939   0.792  14.286
31963W        W 4388  33.962  13.290  11.153
31964W        W 4389  29.205  13.824  11.657
31965W        W 4390   5.356  43.011   0.687
31966W        W 4391   4.003  23.070  14.445
31967W        W 4392  35.952  42.779   4.638
31968W        W 4393   6.243   8.880   2.404
31969W        W 4394  44.827  40.525   3.698
31970W        W 4395  39.444  22.302   0.702
31971W        W 4396   1.883  19.311  12.132
31972W        W 4397  38.616  35.372   0.767
31973W        W 4398   7.288   9.340   0.197
31974W        W 4399  38.452  32.410  12.763
31975W        W 4400   3.309  27.936   4.752
31976W        W 4401  14.356  36.051   1.475
31977W        W 4402  21.290  31.024  13.517
31978W        W 4403  15.871   2.872   2.191
31979W        W 4404  15.511  29.502   0.727
31980W        W 4405  26.320  25.634   2.192
31981W        W 4406  24.286  24.519   2.336
31982W        W 4407  14.066  29.175   4.119
31983W        W 4408  20.369  41.829  12.331
31984W        W 4409  19.237   5.379   1.298
31985W        W 4410  41.641  28.122  12.121
31986W        W 4411   4.790  13.525  12.403
31987W        W 4412  44.025  20.729  14.959
31988W        W 4413  32.430  35.318   1.270
31989W        W 4414  15.587  38.772  11.673
31990W        W 4415  37.892  28.902   1.287
31991W        W 4416  30.465  42.008   2.609
31992W        W 4417  11.313  43.509  13.453
31993W        W 4418  17.171   5.290  13.892
31994W        W 4419  34.597  39.446  10.726
31995W        W 4420   7.235   7.458  12.119
31996W        W 4421  31.429   4.667  13.989
31997W        W 4422  13.147  13.226  14.028
31998W        W 4423  17.220  35.576  11.455
31999W        W 4424  15.944  39.040   4.216
32000W        W 4425  22.265  29.971   2.581
32001W        W 4426  41.302  42.508   1.374
32002W        W 4427  36.992   6.872   3.928
32003W        W 4428  14.322   2.438   1.250
32004W        W 4429  18.737  30.700   1.966
32005W        W 4430   2.800  42.994  12.084
32006W        W 4431  33.466  13.358  14.764
32007W        W 4432  44.837   5.500   0.248
32008W        W 4433  23.249  20.142  13.891
32009W        W 4434  32.465  17.545   4.163
32010W        W 4435  41.442  10.690   1.692
32011W        W 4436  18.462  33.425   1.767
32012W        W 4437  26.547   0.964  10.290
32013W        W 4438  27.511  14.829  12.300
32014W        W 4439  15.919   0.461  12.731
32015W        W 4440  39.811  17.136   4.346
32016W        W 4441  44.408  13.717  10.533
32017W        W 4442  23.220  40.066  14.468
32018W        W 4443  21.006   8.980  12.507
32019W        W 4444  25.215   7.389  12.107
32020W        W 4445  32.498  32.055  13.962
32021W        W 4446  37.880  14.054  14.851
32022W        W 4447  42.297  11.127   1.483
32023W        W 4448  43.418  42.507   0.771
32024W        W 4449   8.980  14.078  11.647
32025W        W 4450  24.746  23.054  10.694
32026W        W 4451  32.374  32.461   0.758
32027W        W 4452  19.395  14.299   0.319
32028W        W 4453  42.749  27.654   3.279
32029W        W 4454  18.566   1.730   1.952
32030W        W 4455   2.127  12.695   9.851
32031W        W 4456  22.131  27.212  11.539
32032W        W 4457  41.253  27.136  14.980
32033W        W 4458  26.388  10.846   4.088
32034W        W 4459   9.952  37.891   2.382
32035W        W 4460   3.037  17.330  12.875
32036W        W 4461  33.084   8.619  11.999
32037W        W 4462  16.696  26.562  13.472
32038W        W 4463  36.762  43.853  12.906
32039W        W 4464  18.833  27.109   4.276
32040W        W 4465   6.176  23.472  12.450
32041W        W 4466  31.902  19.228  11.977
32042W        W 4467  27.769  31.715  11.973
32043W        W 4468  22.738  42.392  11.554
32044W        W 4469  14.825  19.995  14.448
32045W        W 4470  40.292  33.970   2.220
32046W        W 4471  13.043  24.184   0.695
32047W        W 4472  20.995  23.620   1.067
32048W        W 4473  15.602  23.529  13.488
32049W        W 4474   7.681   6.412   0.011
32050W        W 4475  39.401  40.342  12.529
32051W        W 4476  29.793  44.798  14.451
32052W        W 4477  10.832  11.059  11.068
32053W        W 4478  12.892  21.212   1.626
32054W        W 4479   4.693  23.460  11.103
32055W        W 4480  36.524  32.917  10.410
32056W        W 4481   3.547  37.999  12.643
32057W        W 4482   0.759  28.240  11.682
32058W        W 4483  10.152   7.332  12.004
32059W        W 4484   2.938   7.905   2.322
32060W        W 4485   6.326  37.553  12.140
32061W        W 4486  17.392  16.144   1.395
32062W        W 4487  15.529  44.753   0.414
32063W        W 4488  25.706  36.354  12.948
32064W        W 4489  41.780  15.144   4.613
32065W        W 4490  33.886  36.432   4.770
32066W        W 4491  14.167   9.829   3.317
32067W        W 4492   8.714  15.319  11.096
32068W        W 4493  41.985   7.837   3.508
32069W        W 4494  10.404  34.921  14.365
32070W        W 4495  32.640  24.558  14.692
32071W        W 4496   7.651  14.215  11.351
32072W        W 4497  43.387  38.991   3.185
32073W        W 4498   5.873  23.892   0.728
32074W        W 4499   6.520  14.205   4.439
32075W        W 4500  18.232  14.478   4.469
32076W        W 4501  29.246  22.312   3.397
32077W        W 4502   8.823  27.434  14.994
32078W        W 4503   6.923   0.709  11.479
32079W        W 4504  21.646  27.031  13.521
32080W        W 4505  23.234  30.754  11.027
32081W        W 4506   8.795   5.802  12.635
32082W        W 4507  30.585  20.512  14.354
32083W        W 4508  43.902  22.494   2.899
32084W        W 4509  15.289  21.493  11.320
32085W        W 4510  19.338  37.059   1.876
32086W        W 4511  34.845   7.758  11.153
32087W        W 4512  41.516  13.619   3.842
32088W        W 4513  14.843  32.174  11.724
32089W        W 4514  36.520  34.324  11.490
32090W        W 4515  15.685   7.402   0.452
32091W        W 4516  41.864  24.172   4.151
32092W        W 4517  25.085  15.145   1.438
32093W        W 4518  21.552   7.232   0.976
32094W        W 4519  14.244  11.797   3.241
32095W        W 4520   2.339  14.893   0.888
32096W        W 4521  32.428  41.350  13.281
32097W        W 4522  22.808   2.263  12.591
32098W        W 4523  22.847  27.449   0.843
32099W        W 4524   9.683  31.476  14.906
32100W        W 4525   3.411  33.592  10.688
32101W        W 4526  39.795  36.594  12.918
32102W        W 4527  24.788  34.075   1.478
32103W        W 4528   1.203   4.905  11.702
32104W        W 4529   3.513  25.256  13.876
32105W        W 4530  33.892  20.798  12.047
32106W        W 4531   6.733  31.630  10.994
32107W        W 4532  39.353   6.386   3.318
32108W        W 4533  42.121  16.762   4.850
32109W        W 4534  13.570  44.040   1.313
32110W        W 4535  16.692  31.128   3.278
32111W        W 4536   8.376  20.299  12.635
32112W        W 4537  11.719  11.916  13.918
32113W        W 4538  11.897  11.786   4.182
32114W        W 4539  16.820   4.800   0.341
32115W        W 4540  16.989   7.606  11.965
32116W        W 4541   0.711   0.301  13.453
32117W        W 4542  26.170  31.751  11.488
32118W        W 4543  19.819  12.712  12.616
32119W        W 4544  28.659  24.437   3.397
32120W        W 4545  16.215  24.364  12.140
32121W        W 4546  44.741  24.508   4.143
32122W        W 4547   1.611  38.423  10.656
32123W        W 4548   5.913  42.782   3.704
32124W        W 4549  15.038  10.952  14.957
32125W        W 4550  40.241  20.601  11.075
32126W        W 4551   6.256  44.047   2.052
32127W        W 4552   1.684   5.827   1.902
32128W        W 4553   8.883  19.146  11.903
32129W        W 4554  14.039  20.665   2.036
32130W        W 4555   3.265   8.770  14.438
32131W        W 4556  35.384   3.476  13.289
32132W        W 4557   6.810   8.626   2.299
32133W        W 4558   0.531   2.423   0.636
32134W        W 4559  32.674  32.496   1.735
32135W        W 4560  44.252  22.700   2.067
32136W        W 4561  16.553  24.670  13.598
32137W        W 4562  24.433  29.861  12.386
32138W        W 4563  25.784  41.551  14.308
32139W        W 4564  10.475  17.887   4.310
32140W        W 4565  12.852  21.711  10.667
32141W        W 4566  11.101   3.946  14.846
32142W        W 4567  40.047  16.665   2.306
32143W        W 4568  28.939   9.612  11.610
32144W        W 4569  14.975   7.407  10.418
32145W        W 4570  27.356  35.399  12.933
32146W        W 4571   6.116  40.721  14.911
32147W        W 4572   6.816   6.897  13.989
32148W        W 4573  29.168  15.549   4.116
32149W        W 4574  36.311  10.191   1.313
32150W        W 4575   8.239  20.851  12.882
32151W        W 4576  42.519  34.331  13.576
32152W        W 4577  24.435   2.875  13.966
32153W        W 4578   1.795  14.684   2.883
32154W        W 4579  28.725   8.212  10.791
32155W        W 4580  21.506  43.605  12.882
32156W        W 4581  27.163  31.982  10.093
32157W        W 4582  29.460  31.169   0.545
32158W        W 4583  29.879   8.804   1.467
32159W        W 4584  42.755  24.155  14.382
32160W        W 4585   0.911  16.322  13.458
32161W        W 4586  20.124  32.900  11.128
32162W        W 4587  21.684   8.767   4.087
32163W        W 4588  20.915  22.274  13.544
32164W        W 4589   8.283  30.552  11.242
32165W        W 4590  20.710  36.353   0.221
32166W        W 4591  39.103  17.654   1.786
32167W        W 4592  18.726  38.780   2.732
32168W        W 4593  39.560  19.805  12.904
32169W        W 4594  33.210  34.504   3.880
32170W        W 4595   4.183  13.856  10.627
32171W        W 4596  11.176   5.329   0.038
32172W        W 4597  30.734  30.038   0.202
32173W        W 4598   6.376   0.853  13.105
32174W        W 4599  12.838  12.693  12.563
32175W        W 4600  14.779  36.251   1.274
32176W        W 4601   4.237  14.382   2.286
32177W        W 4602  36.906   8.964   2.708
32178W        W 4603  41.139   5.377   0.734
32179W        W 4604   4.401   4.480  10.673
32180W        W 4605   1.931  26.551   4.734
32181W        W 4606  19.658  33.443   4.349
32182W        W 4607  28.539  27.607  10.296
32183W        W 4608  42.795  12.622   1.876
32184W        W 4609  15.684  24.516  10.578
32185W        W 4610  39.411  35.534   4.163
32186W        W 4611  39.103   5.086   0.464
32187W        W 4612  34.524  41.422   2.376
32188W        W 4613   5.623  42.836  11.069
32189W        W 4614   0.387   0.166   3.393
32190W        W 4615  33.232  31.874  12.453
32191W        W 4616   4.282  27.663  14.725
32192W        W 4617  15.233  21.106  11.008
32193W        W 4618  21.482   5.684  12.505
32194W        W 4619  18.019  17.020  14.508
32195W        W 4620  24.262  41.343  10.686
32196W        W 4621  35.111  14.342  14.933
32197W        W 4622  41.942  30.028   1.317
32198W        W 4623  11.884   7.955   3.510
32199W        W 4624  30.341  34.311   4.104
32200W        W 4625  17.519   6.390   1.370
32201W        W 4626  33.652  32.016   3.996
32202W        W 4627  32.196  40.768  11.027
32203W        W 4628  35.185  19.133   1.629
32204W        W 4629   1.575  12.326   1.808
32205W        W 4630  38.397  42.788  14.480
32206W        W 4631  43.815  33.801  14.031
32207W        W 4632  31.200  31.593   2.266
32208W        W 4633   6.454  19.559   2.295
32209W        W 4634  39.510  17.751  10.670
32210W        W 4635  12.617   7.386  12.131
32211W        W 4636  32.484  27.671  10.916
32212W        W 4637  41.845   9.189  12.336
32213W        W 4638  31.927  24.287   1.808
32214W        W 4639  38.935  33.595  12.655
32215W        W 4640  13.496   3.751   0.554
32216W        W 4641  35.546  31.201  14.675
32217W        W 4642  27.863  35.441   0.492
32218W        W 4643  20.218  26.872   3.351
32219W        W 4644  19.777  24.557  10.752
32220W        W 4645  25.213  27.282  13.144
32221W        W 4646  40.398  23.433   2.306
32222W        W 4647  15.743  24.752  14.434
32223W        W 4648  37.064  15.958   2.707
32224W        W 4649   9.270   2.018  14.382
32225W        W 4650  18.170  44.479   0.887
32226W        W 4651  24.879  23.533   1.062
32227W        W 4652  23.213  40.617   3.672
32228W        W 4653  29.545   1.341  11.679
32229W        W 4654  31.691  36.960   4.812
32230W        W 4655  29.952  29.077  11.841
32231W        W 4656  18.573   6.565  14.444
32232W        W 4657  10.227   4.329   4.551
32233W        W 4658  21.008  15.566  12.035
32234W        W 4659  10.700  36.503  13.645
32235W        W 4660  41.927  36.046   2.669
32236W        W 4661  15.155  28.551   4.041
32237W        W 4662  14.362  31.700   2.438
32238W        W 4663  16.529  37.017   0.291
32239W        W 4664  21.706  29.816   3.685
32240W        W 4665  22.926  43.904  14.003
32241W        W 4666  17.366   9.806   1.142
32242W        W 4667   3.196  23.988  13.436
32243W        W 4668  37.043  16.319  14.913
32244W        W 4669  43.762  25.692   3.070
32245W        W 4670  13.056   6.238  13.792
32246W        W 4671   7.955  38.825  12.979
32247W        W 4672   7.675  37.709   1.995
32248W        W 4673  36.212  28.059   2.663
32249W        W 4674   5.481  35.148  10.702
32250W        W 4675  36.592   4.709   0.390
32251W        W 4676  14.027  16.194  12.684
32252W        W 4677  11.992  32.897   0.396
32253W        W 4678  31.878  44.216   4.622
32254W        W 4679  11.257  19.183  11.390
32255W        W 4680  38.430  14.447  12.668
32256W        W 4681   4.998   2.024   5.221
32257W        W 4682  27.438  42.597  12.327
32258W        W 4683  13.357  37.034  10.084
32259W        W 4684  25.201  22.682   4.916
32260W        W 4685  23.717  42.569  11.486
32261W        W 4686  11.650   3.767  12.219
32262W        W 4687   4.161  42.331  10.596
32263W        W 4688  43.570   5.258  12.260
32264W        W 4689  21.649  43.827  13.580
32265W        W 4690  32.189   0.426   0.389
32266W        W 4691  11.243  40.488   3.919
32267W        W 4692  14.619   5.864   0.124
32268W        W 4693  32.541  13.644  12.399
32269W        W 4694  15.211   7.163  12.623
32270W        W 4695  26.895  16.143   0.782
32271W        W 4696  12.178  19.266  10.854
32272W        W 4697   8.918  23.960   1.859
32273W        W 4698   8.451  34.027   0.368
32274W        W 4699  14.553  10.447   2.368
32275W        W 4700  21.662  44.497  10.899
32276W        W 4701  24.632  29.742   0.763
32277W        W 4702  33.485   4.895   1.521
32278W        W 4703  27.189  30.764   3.357
32279W        W 4704  25.694  17.210   1.746
32280W        W 4705  26.575  17.738   1.669
32281W        W 4706  24.468  19.348  13.380
32282W        W 4707   7.999  34.592   2.451
32283W        W 4708  37.773  15.747  13.822
32284W        W 4709   3.317   9.113  13.150
32285W        W 4710   9.797  36.590   4.908
32286W        W 4711   3.933  36.535  14.075
32287W        W 4712  26.866  28.483   1.694
32288W        W 4713  39.889  38.298   3.248
32289W        W 4714   8.481  42.321  14.883
32290W        W 4715  15.857  30.549   2.925
32291W        W 4716   0.972  34.626   1.366
32292W        W 4717  44.014  26.567  11.493
32293W        W 4718  19.997  38.397  12.911
32294W        W 4719  17.195  13.761   1.326
32295W        W 4720  22.426  34.600   1.916
32296W        W 4721  28.027   6.877   3.783
32297W        W 4722  11.222  24.607   5.186
32298W        W 4723  16.332   5.620  14.968
32299W        W 4724  25.174   4.955  14.841
32300W        W 4725  40.929  33.388   1.183
32301W        W 4726   6.111   1.501   0.885
32302W        W 4727  30.132  16.133  14.310
32303W        W 4728  17.109  35.630  14.475
32304W        W 4729  13.783  44.124  12.294
32305W        W 4730   4.182  16.553  11.059
32306W        W 4731  33.098  25.668   3.385
32307W        W 4732  19.829  24.456   3.408
32308W        W 4733  32.208  14.278  14.997
32309W        W 4734  32.523  43.713   1.799
32310W        W 4735  33.139   6.361  11.978
32311W        W 4736   8.818  34.909   2.901
32312W        W 4737  25.412  26.501   0.579
32313W        W 4738  16.377  14.371   0.156
32314W        W 4739  23.940  25.035  13.766
32315W        W 4740   4.327  13.301  10.548
32316W        W 4741  20.259  32.378   5.126
32317W        W 4742  15.455   3.386   4.606
32318W        W 4743  19.510   6.225  12.607
32319W        W 4744   7.875   6.238  11.284
32320W        W 4745  38.315  37.596   4.206
32321W        W 4746  22.251  33.439  12.211
32322W        W 4747  14.460   3.293  11.619
32323W        W 4748   1.764  18.714  12.857
32324W        W 4749  20.853   7.316   0.236
32325W        W 4750  27.177  44.468  12.468
32326W        W 4751  39.930  12.426   2.726
32327W        W 4752  13.094  41.966  11.552
32328W        W 4753  23.523  40.037  11.907
32329W        W 4754  40.236  39.091  14.497
32330W        W 4755  29.253  10.626   2.383
32331W        W 4756  18.779   8.409   0.453
32332W        W 4757  25.609   3.826   4.476
32333W        W 4758  34.576  32.110  12.969
32334W        W 4759  24.688  21.973   4.535
32335W        W 4760  25.738  36.255  11.235
32336W        W 4761  43.830  19.191   1.857
32337W        W 4762  19.822  25.899  14.400
32338W        W 4763  18.329   9.302   2.651
32339W        W 4764  23.320  18.584   2.244
32340W        W 4765  11.906  42.354  14.405
32341W        W 4766  44.952  29.276   2.033
32342W        W 4767  27.130  25.280   2.091
32343W        W 4768  28.244  44.276   2.615
32344W        W 4769  39.077  26.424  14.815
32345W        W 4770   0.333  18.385  10.715
32346W        W 4771  39.350   1.297   2.703
32347W        W 4772  22.218  32.878  13.510
32348W        W 4773  37.461  11.637  10.732
32349W        W 4774  29.104  23.615  10.163
32350W        W 4775  20.987  36.439   2.125
32351W        W 4776  28.959  29.438  11.189
32352W        W 4777  27.207  31.304   3.267
32353W        W 4778  39.005  16.439  14.727
32354W        W 4779  40.862   8.798  10.645
32355W        W 4780  34.784  24.093   1.848
32356W        W 4781  29.714  21.724   4.533
32357W        W 4782  14.000  33.591  11.993
32358W        W 4783  16.565  33.116  14.431
32359W        W 4784  10.295   9.199   3.570
32360W        W 4785  14.540  18.419  11.520
32361W        W 4786  24.775  28.179  14.817
32362W        W 4787  36.945  44.795  11.532
32363W        W 4788  15.176  20.935   2.298
32364W        W 4789  38.944  20.659  12.242
32365W        W 4790  17.221   6.662  13.011
32366W        W 4791  27.467  25.285   5.139
32367W        W 4792  20.585  21.560   2.150
32368W        W 4793  18.024  38.087  11.054
32369W        W 4794   3.385  24.640   4.900
32370W        W 4795   6.361  35.444   1.006
32371W        W 4796  32.041  11.531   9.957
32372W        W 4797   3.840  12.857   0.782
32373W        W 4798   3.395  26.110  14.094
32374W        W 4799  40.361  36.970  11.503
32375W        W 4800   7.856  38.881   4.072
32376W        W 4801  42.082  41.827  10.692
32377W        W 4802  31.733  40.089  14.438
32378W        W 4803  23.409  11.638  12.986
32379W        W 4804  40.846  35.765  12.546
32380W        W 4805  22.492   5.959  14.952
32381W        W 4806  32.319  31.969  14.944
32382W        W 4807   1.965  30.722  11.665
32383W        W 4808  18.924   5.265  13.484
32384W        W 4809  44.969  18.244  14.545
32385W        W 4810  20.485   6.293   2.665
32386W        W 4811  11.955   8.863  13.964
32387W        W 4812   6.604  18.653  12.681
32388W        W 4813  13.787  42.521  11.594
32389W        W 4814   0.691  23.339  11.255
32390W        W 4815   5.742  30.012  10.528
32391W        W 4816  20.985  25.311   0.994
32392W        W 4817  13.686  13.961  11.531
32393W        W 4818  39.413  44.401  10.652
32394W        W 4819  37.558  25.159  13.899
32395W        W 4820  38.509  12.829  14.391
32396W        W 4821   3.296   0.924  14.753
32397W        W 4822   2.239  25.178   3.867
32398W        W 4823  27.904   4.593   0.937
32399W        W 4824  37.046   8.195  13.507
32400W        W 4825  24.654  14.343   4.293
32401W        W 4826   0.425  32.632  14.020
32402W        W 4827  29.832   0.521   4.877
32403W        W 4828  23.167  11.152  11.250
32404W        W 4829  22.959  11.206  14.836
32405W        W 4830  22.149  29.075  14.966
32406W        W 4831  19.696  31.137   3.799
32407W        W 4832  15.233  33.514  11.447
32408W        W 4833   0.030  24.732   0.296
32409W        W 4834   2.804  10.623  14.828
32410W        W 4835  31.955   8.733   4.147
32411W        W 4836   7.384  38.375   3.868
32412W        W 4837  42.834   0.413   3.889
32413W        W 4838  32.682  13.123  13.365
32414W        W 4839   3.965  20.290   1.701
32415W        W 4840  41.328   6.439   0.872
32416W        W 4841  11.375   8.797  13.300
32417W        W 4842  11.562   3.255   0.469
32418W        W 4843   7.792  29.930   1.416
32419W        W 4844  27.611  44.781   4.631
32420W        W 4845  38.511  40.342  11.882
32421W        W 4846  28.599  41.745  12.997
32422W        W 4847   8.885  36.684  12.584
32423W        W 4848  20.600   4.421   0.898
32424W        W 4849  13.717  22.043   5.313
32425W        W 4850  13.139  44.344   1.338
32426W        W 4851  36.808  34.070  14.954
32427W        W 4852  43.285  35.442   1.686
32428W        W 4853  22.783  41.818  14.004
32429W        W 4854  34.566  27.505   4.093
32430W        W 4855  16.549   0.903   1.870
32431W        W 4856  30.202  24.551  11.405
32432W        W 4857  14.140  23.784   1.245
32433W        W 4858  24.683  39.459  10.674
32434W        W 4859  37.460   8.695   4.259
32435W        W 4860  41.770  26.467   4.603
32436W        W 4861  32.906   1.410  11.212
32437W        W 4862  15.117  26.555   1.365
32438W        W 4863   1.511  20.063   2.953
32439W        W 4864  12.566  21.545   0.250
32440W        W 4865  24.476   1.032   1.262
32441W        W 4866  13.625  12.621  14.349
32442W        W 4867  15.825  34.132   3.190
32443W        W 4868  36.605  28.124   4.419
32444W        W 4869   2.214   8.228   2.380
32445W        W 4870   4.499   3.384  13.857
32446W        W 4871  37.283  19.664   0.235
32447W        W 4872  33.554  44.385  14.587
32448W        W 4873  41.082  19.647   1.826
32449W        W 4874  27.172   5.922   3.933
32450W        W 4875  11.376  40.728  13.795
32451W        W 4876  10.778   4.785  11.915
32452W        W 4877   2.885  37.048   3.320
32453W        W 4878  23.110  22.691  12.062
32454W        W 4879  38.287  23.168  13.877
32455W        W 4880  37.797  30.291   3.859
32456W        W 4881  17.014   6.374   4.077
32457W        W 4882   3.219  26.778   0.921
32458W        W 4883  37.009   0.329  11.518
32459W        W 4884  18.692   5.082  11.574
32460W        W 4885  31.624   4.161  14.889
32461W        W 4886  36.904  10.315   2.063
32462W        W 4887  14.157  25.937  12.526
32463W        W 4888   0.939  14.028   3.801
32464W        W 4889  28.216  16.736   3.183
32465W        W 4890  36.547  15.211  13.188
32466W        W 4891  26.192  43.065   3.275
32467W        W 4892  31.010  26.280   3.201
32468W        W 4893  28.395  16.053   0.038
32469W        W 4894  31.272   6.014  13.583
32470W        W 4895  29.722  20.720   0.918
32471W        W 4896  39.027   7.160   4.602
32472W        W 4897  21.195  34.027  10.677
32473W        W 4898  11.526  20.963   3.481
32474W        W 4899  22.741  32.915  13.427
32475W        W 4900  14.186  29.331  13.328
32476W        W 4901   9.374   6.243  11.592
32477W        W 4902  32.989  18.083   0.716
32478W        W 4903   7.676  30.620  12.121
32479W        W 4904  23.969   8.448   1.528
32480W        W 4905  28.692   8.102  12.631
32481W        W 4906  43.419  27.900   0.123
32482W        W 4907  24.965  40.582   3.260
32483W        W 4908  44.012  36.445   2.253
32484W        W 4909   5.814   9.134  13.750
32485W        W 4910  29.669  15.636  12.582
32486W        W 4911  20.665  31.902   4.289
32487W        W 4912  28.788  27.792   2.380
32488W        W 4913   9.653  32.951  11.364
32489W        W 4914   9.892  39.450  13.894
32490W        W 4915  43.008  29.979   1.336
32491W        W 4916  40.488  34.622  14.416
32492W        W 4917  18.711   6.421   1.270
32493W        W 4918  17.184  26.616  10.631
32494W        W 4919  11.398  21.867  10.616
32495W        W 4920  12.193  38.818   3.820
32496W        W 4921  37.356  17.747   0.487
32497W        W 4922   7.368   9.683   1.710
32498W        W 4923   4.347  27.473  14.269
32499W        W 4924   3.364  32.449   3.555
32500W        W 4925  16.311  23.696   1.365
32501W        W 4926  39.093  43.587   2.931
32502W        W 4927  25.881  33.090  11.462
32503W        W 4928  36.558  22.751  14.769
32504W        W 4929  35.053  16.979  11.259
32505W        W 4930  26.843  14.670  13.365
32506W        W 4931  24.978  15.680  11.048
32507W        W 4932  36.069  24.492  14.325
32508W        W 4933  14.205  23.690   3.412
32509W        W 4934  10.532  12.775  11.879
32510W        W 4935   4.614  37.371   2.833
32511W        W 4936   2.718  10.840   2.259
32512W        W 4937   7.264  30.064   4.568
32513W        W 4938  14.268  42.627   2.857
32514W        W 4939  25.733  26.880   0.971
32515W        W 4940  28.757  22.458   3.285
32516W        W 4941   2.985  42.466   4.285
32517W        W 4942   7.918  13.205  11.507
32518W        W 4943  37.496  39.300   4.957
32519W        W 4944  26.496  44.961   4.310
32520W        W 4945  40.452  11.606   3.705
32521W        W 4946  25.587  33.793   1.603
32522W        W 4947  38.513  23.723   1.803
32523W        W 4948  15.176  26.716  13.463
32524W        W 4949  43.301  35.979  11.134
32525W        W 4950  38.516   0.790  11.999
32526W        W 4951  20.105  29.961  10.736
32527W        W 4952  21.268  26.605   1.621
32528W        W 4953  39.799  38.644  12.935
32529W        W 4954  41.290  39.004  12.034
32530W        W 4955  15.394  16.535  14.444
32531W        W 4956  16.681   6.751  11.456
32532W        W 4957  21.115  33.565   2.739
32533W        W 4958  32.457  11.881  11.693
32534W        W 4959  14.885  22.147   1.896
32535W        W 4960  44.206  14.814   3.619
32536W        W 4961  27.706   6.915   1.302
32537W        W 4962  25.140  17.139   5.022
32538W        W 4963   9.313  36.442   4.750
32539W        W 4964   1.503   7.740   3.962
32540W        W 4965  16.563   2.961  10.767
32541W        W 4966  39.032  32.123  14.108
32542W        W 4967  44.764   6.377  11.704
32543W        W 4968  13.702  34.193  11.974
32544W        W 4969  29.099  11.152  11.617
32545W        W 4970  13.374  37.557   2.667
32546W        W 4971  33.305   7.272  14.763
32547W        W 4972  40.301  21.697  11.058
32548W        W 4973  40.372  37.295  12.063
32549W        W 4974  30.091  19.119   1.321
32550W        W 4975  10.143  43.702   4.511
32551W        W 4976  18.181  44.424   3.678
32552W        W 4977  32.213  12.844  11.966
32553W        W 4978  13.697  11.991  11.106
32554W        W 4979  40.557  13.830  14.439
32555W        W 4980  11.789  11.663   4.675
32556W        W 4981   0.653   0.907   4.618
32557W        W 4982  23.434  20.622   4.568
32558W        W 4983  21.043   1.902   3.500
32559W        W 4984  22.998  25.011  11.593
32560W        W 4985  18.204   6.178   1.210
32561W        W 4986   3.484   9.240  14.550
32562W        W 4987   4.645  35.353  14.829
32563W        W 4988  42.717  18.512   3.798
32564W        W 4989  31.984   6.715   5.089
32565W        W 4990  31.594  23.695   9.656
32566W        W 4991  24.732  12.302  12.218
32567W        W 4992   2.007   4.831  14.276
32568W        W 4993  20.476   7.573   1.572
32569W        W 4994  30.144  16.977   2.733
32570W        W 4995  38.330  28.710  13.775
32571W        W 4996  34.947  27.696   1.691
32572W        W 4997  31.158   8.679   1.799
32573W        W 4998  20.093  39.399  12.849
32574W        W 4999  26.523   1.356  10.685
32575W        W 5000   4.823  13.865  11.954
32576W        W 5001  35.353  23.140  11.896
32577W        W 5002  29.568  12.228  11.599
32578W        W 5003   4.945  27.518   3.355
32579W        W 5004  10.615  36.316  14.453
32580W        W 5005  26.441  27.256   4.564
32581W        W 5006  43.441   2.166   2.845
32582W        W 5007  15.119  32.933  13.083
32583W        W 5008  43.002  24.440   1.357
32584W        W 5009  12.132   7.182   0.843
32585W        W 5010  30.939  39.069  11.117
32586W        W 5011  23.484   4.755   1.263
32587W        W 5012   5.886  14.729  13.755
32588W        W 5013   9.114  15.605  10.577
32589W        W 5014  18.615  44.972  11.371
32590W        W 5015   3.148  19.077   3.584
32591W        W 5016   6.876  37.151   2.586
32592W        W 5017  28.551  17.475  10.541
32593W        W 5018  18.176  26.149   3.271
32594W        W 5019  43.906  16.236   1.184
32595W        W 5020   8.358  14.519  11.566
32596W        W 5021  11.379  20.570   0.273
32597W        W 5022  19.788   0.393   0.713
32598W        W 5023   9.841  34.836  10.585
32599W        W 5024  19.051  31.410   2.142
32600W        W 5025  10.280  18.124  12.812
32601W        W 5026  40.008  44.764  12.834
32602W        W 5027  26.441  18.670   1.156
32603W        W 5028  14.588  22.525  14.048
32604W        W 5029  24.505  33.521   3.204
32605W        W 5030  21.545  42.760   3.274
32606W        W 5031  44.475  44.494   1.848
32607W        W 5032  17.577   1.554  10.746
32608W        W 5033   7.351  35.607  12.933
32609W        W 5034  36.617   6.832   1.320
32610W        W 5035  25.489  20.036  12.980
32611W        W 5036  42.421  42.478   1.867
32612W        W 5037  27.538  29.633   4.588
32613W        W 5038  20.940  34.032   3.209
32614W        W 5039  15.108   6.255  11.628
32615W        W 5040  16.330  23.674  12.770
32616W        W 5041  17.032  13.500  13.493
32617W        W 5042  39.041  38.765  13.802
32618W        W 5043  16.172  44.484   1.749
32619W        W 5044  13.639  16.219   3.207
32620W        W 5045  27.643   7.561  11.078
32621W        W 5046  37.760   8.318  10.117
32622W        W 5047   6.698  38.431   1.150
32623W        W 5048  20.477  27.008   1.911
32624W        W 5049  39.357  37.148   0.957
32625W        W 5050  20.636   2.919  12.905
32626W        W 5051  11.855  32.870  13.258
32627W        W 5052  16.403  16.190  11.160
32628W        W 5053  21.316   2.363   4.157
32629W        W 5054  11.846  29.533  14.296
32630W        W 5055  12.081   1.188   4.155
32631W        W 5056  14.279   4.708   3.936
32632W        W 5057  25.871  37.440   2.711
32633W        W 5058  33.922  21.484  13.346
32634W        W 5059   7.012   3.417  12.445
32635W        W 5060   1.941   3.391  10.142
32636W        W 5061  13.584  21.640   0.394
32637W        W 5062  30.068  27.508   0.090
32638W        W 5063  12.020  35.020   4.084
32639W        W 5064  37.113   8.921  10.582
32640W        W 5065   3.929  19.020  10.689
32641W        W 5066   5.401  25.924   2.659
32642W        W 5067  29.950  23.932  12.127
32643W        W 5068  39.440  44.955  14.499
32644W        W 5069  28.257  37.010  13.459
32645W        W 5070  39.863  11.581  12.118
32646W        W 5071  19.423  36.566  14.372
32647W        W 5072  39.337   9.754   3.862
32648W        W 5073  11.761   8.981   5.064
32649W        W 5074  42.610  12.666  12.901
32650W        W 5075  17.692   2.223   3.808
32651W        W 5076  37.479   4.744   3.794
32652W        W 5077  17.717  19.518  14.347
32653W        W 5078  19.764  16.739   4.282
32654W        W 5079   8.683   1.803   0.263
32655W        W 5080  18.347  12.745  13.989
32656W        W 5081  13.229  18.779  12.858
32657W        W 5082  13.618  28.881   0.369
32658W        W 5083  31.836  33.917   1.545
32659W        W 5084   9.458   7.198  14.478
32660W        W 5085  35.520   1.867   3.540
32661W        W 5086  20.136  16.279   2.448
32662W        W 5087  30.861  22.401  12.445
32663W        W 5088  35.188  29.181  13.518
32664W        W 5089  13.805  36.387  13.397
32665W        W 5090  33.983   6.721   4.573
32666W        W 5091  33.448  34.954  12.711
32667W        W 5092  39.320  37.533   0.188
32668W        W 5093  37.385   9.689  14.000
32669W        W 5094  17.215  31.598  12.894
32670W        W 5095  18.328  24.189  14.821
32671W        W 5096  16.976   7.288   4.547
32672W        W 5097   4.237  12.811  11.440
32673W        W 5098   2.246  36.214   2.368
32674W        W 5099  38.010   7.786   4.176
32675W        W 5100  41.590   1.422  13.250
32676W        W 5101   5.854  43.289   3.849
32677W        W 5102   3.809  36.903  13.716
32678W        W 5103  30.727  12.883  13.509
32679W        W 5104  42.774  12.082   2.763
32680W        W 5105  43.860  24.962   2.303
32681W        W 5106  34.487  44.496   0.540
32682W        W 5107  24.164   1.025  10.254
32683W        W 5108   0.707  42.758   0.461
32684W        W 5109   0.763  19.008  12.940
32685W        W 5110   1.501  15.122   3.542
32686W        W 5111   5.444  39.893  13.324
32687W        W 5112  36.762  35.133  12.042
32688W        W 5113  30.086   1.877  12.178
32689W        W 5114  34.207  32.337   2.837
32690W        W 5115  41.082   9.058  12.282
32691W        W 5116  30.455  15.774   3.828
32692W        W 5117  33.652   7.633   3.961
32693W        W 5118  38.519  13.085  11.227
32694W        W 5119  15.287  35.200   0.800
32695W        W 5120  28.520  31.726   0.824
32696W        W 5121  43.719  39.922  11.018
32697W        W 5122  39.076   8.221   3.238
32698W        W 5123  35.393  39.472   2.001
32699W        W 5124  13.129  19.068  11.987
32700W        W 5125  29.569  12.100  13.486
32701W        W 5126  39.089  31.858  12.864
32702W        W 5127  16.112  29.610   1.435
32703W        W 5128  31.999  15.172  14.823
32704W        W 5129  25.007   5.426   0.573
32705W        W 5130  18.915  10.727  12.792
32706W        W 5131  13.679  16.878  12.033
32707W        W 5132  16.911   4.863  12.184
32708W        W 5133  13.233   1.407  11.996
32709W        W 5134  34.191   8.864  14.393
32710W        W 5135  36.242  10.553  14.015
32711W        W 5136  21.239  35.978  12.364
32712W        W 5137  10.489  23.012   0.782
32713W        W 5138  11.962  17.266  14.682
32714W        W 5139   9.885  27.180  14.035
32715W        W 5140  43.810  38.815  12.873
32716W        W 5141  40.849  25.741  14.057
32717W        W 5142  25.965  30.602   2.772
32718W        W 5143  36.866  27.010  12.513
32719W        W 5144  41.180  10.331   1.351
32720W        W 5145   6.554  17.590   0.218
32721W        W 5146   3.986  40.419  14.272
32722W        W 5147  33.657   8.683   5.014
32723W        W 5148   0.502  44.901   0.682
32724W        W 5149  37.004   5.078  12.975
32725W        W 5150   0.463  10.320  12.356
32726W        W 5151  13.353  41.510  14.862
32727W        W 5152  28.909   0.243  13.455
32728W        W 5153  38.454   4.750  12.420
32729W        W 5154  23.555  27.682  13.880
32730W        W 5155  20.251   0.872  14.415
32731W        W 5156  15.816   5.405  13.087
32732W        W 5157  13.761  12.718   1.795
32733W        W 5158  29.424  21.528  13.730
32734W        W 5159  10.740  33.836  10.617
32735W        W 5160  12.054   5.300   2.431
32736W        W 5161  11.614   2.939   3.178
32737W        W 5162  43.298  11.584   1.299
32738W        W 5163   0.470   3.950   2.182
32739W        W 5164  14.870  27.303  11.380
32740W        W 5165  10.662  36.962   2.970
32741W        W 5166  34.132  38.877  13.953
32742W        W 5167  11.599  42.655  11.992
32743W        W 5168  11.393  28.582  10.614
32744W        W 5169  13.359  42.528  12.987
32745W        W 5170   5.222   1.460   0.724
32746W        W 5171  20.696  31.870   3.166
32747W        W 5172  28.922  24.582   4.707
32748W        W 5173   4.482  10.650   3.204
32749W        W 5174  39.850  13.203   2.398
32750W        W 5175  40.853   2.199   0.033
32751W        W 5176   3.842  24.427  12.570
32752W        W 5177  12.645  29.955  14.817
32753W        W 5178  18.593  35.238   0.680
32754W        W 5179  36.941  44.376  14.711
32755W        W 5180   4.774  14.847   3.324
32756W        W 5181   7.395   6.217  14.403
32757W        W 5182  19.291   1.796   1.511
32758W        W 5183  38.523  36.539  14.919
32759W        W 5184  26.533  13.097  11.166
32760W        W 5185  21.686   3.185   2.213
32761W        W 5186  36.432   8.355   3.255
32762W        W 5187  15.141  42.460   1.759
32763W        W 5188  17.119  25.496   4.257
32764W        W 5189  16.249  17.652  13.478
32765W        W 5190  17.403  44.886   2.040
32766W        W 5191  43.386  21.415  14.579
32767W        W 5192  12.736  15.773  13.449
32768W        W 5193  29.713  20.584  14.912
32769W        W 5194  44.264  19.955  14.417
32770W        W 5195  27.707   0.753  14.743
32771W        W 5196  18.685  32.686  11.171
32772W        W 5197   6.282   9.613   2.884
32773W        W 5198  39.475  18.105  11.081
32774W        W 5199  20.035   5.830   1.302
32775W        W 5200  18.568   2.132   0.345
32776W        W 5201  34.194  37.419   0.866
32777W        W 5202  36.838  29.218  12.111
32778W        W 5203  29.102  13.601   0.827
32779W        W 5204  29.413  21.583   4.108
32780W        W 5205  23.715  27.677  12.042
32781W        W 5206  13.708  14.393  13.290
32782W        W 5207  25.378  32.352   9.833
32783W        W 5208  43.036  42.477   2.808
32784W        W 5209  38.733  17.288  10.438
32785W        W 5210  42.311  16.057  10.869
32786W        W 5211  16.556  19.526  14.724
32787W        W 5212   4.092  11.732   4.220
32788W        W 5213  15.152  33.417   5.056
32789W        W 5214   1.290  29.582  14.043
32790W        W 5215  31.634   3.945   0.865
32791W        W 5216  38.976   5.112   2.214
32792W        W 5217   2.001  36.930   4.649
32793W        W 5218   0.019  14.712   3.703
32794W        W 5219  18.662   6.975  11.133
32795W        W 5220  17.796  28.902   4.647
32796W        W 5221  20.736  39.380  11.160
32797W        W 5222   6.442  21.330  11.614
32798W        W 5223  26.211  31.502  11.936
32799W        W 5224   0.198  32.476  11.155
32800W        W 5225  24.222   8.691   4.591
32801W        W 5226  20.206   4.325   4.127
32802W        W 5227  36.534  21.671   2.260
32803W        W 5228  13.255   1.657  13.981
32804W        W 5229  16.021  19.193   2.642
32805W        W 5230  23.645   3.875  10.722
32806W        W 5231  25.565  14.192  10.656
32807W        W 5232  34.037  28.796  13.899
32808W        W 5233  37.364   2.489   4.190
32809W        W 5234  21.511   0.879   1.462
32810W        W 5235  34.944  33.912  11.809
32811W        W 5236   6.963   2.224   3.598
32812W        W 5237   0.431  44.969  12.004
32813W        W 5238  29.454  20.403   1.328
32814W        W 5239   1.618  25.612   2.653
32815W        W 5240  37.670  37.499  10.724
32816W        W 5241  17.121  18.542   1.667
32817W        W 5242  23.953   4.421   2.681
32818W        W 5243  19.180  17.175   1.321
32819W        W 5244   2.516  35.769   2.902
32820W        W 5245   2.613   4.192   2.312
32821W        W 5246   0.557  18.809   0.247
32822W        W 5247  23.754  29.833   2.551
32823W        W 5248   4.861  11.190  10.078
32824W        W 5249  42.925   4.269  10.768
32825W        W 5250  39.031  36.371  13.427
32826W        W 5251  33.066  23.469   1.802
32827W        W 5252   3.986  34.857   2.139
32828W        W 5253   7.575  11.150   2.619
32829W        W 5254  15.561  10.089  14.430
32830W        W 5255  23.974  39.847  11.139
32831W        W 5256   5.997  19.159   3.627
32832W        W 5257   2.836  37.226  14.001
32833W        W 5258  14.008  16.693   0.152
32834W        W 5259  32.381  22.231   4.421
32835W        W 5260  22.697  19.752  14.698
32836W        W 5261  25.418   1.777  11.800
32837W        W 5262   0.593  34.913   0.003
32838W        W 5263   6.716  24.986   3.687
32839W        W 5264  37.452  14.030   1.922
32840W        W 5265   6.634   4.191   3.391
32841W        W 5266  13.182  23.773  10.742
32842W        W 5267  21.809  41.158  12.509
32843W        W 5268   4.952  41.863   2.296
32844W        W 5269  44.987  30.047   4.404
32845W        W 5270  18.844  16.888   4.716
32846W        W 5271   1.295   4.360  12.417
32847W        W 5272  43.858   8.674   4.711
32848W        W 5273  41.923  41.957   4.807
32849W        W 5274  22.725  22.730   2.827
32850W        W 5275   6.805  29.526  13.360
32851W        W 5276  31.985  18.862  11.635
32852W        W 5277  22.699  37.527  10.170
32853W        W 5278  34.310   8.243   2.258
32854W        W 5279  20.724  16.062  10.759
32855W        W 5280  30.064  19.976   2.231
32856W        W 5281   7.471  25.990   3.287
32857W        W 5282  16.116  26.238   4.127
32858W        W 5283  17.695  37.647   2.724
32859W        W 5284  13.626  30.640   2.276
32860W        W 5285  19.736   3.311  14.415
32861W        W 5286   6.902   1.469  13.954
32862W        W 5287   8.881   8.860  10.678
32863W        W 5288   5.632  12.437   0.797
32864W        W 5289  22.583   1.465   2.745
32865W        W 5290  15.608  37.536  14.597
32866W        W 5291  12.157   1.502  14.923
32867W        W 5292  43.311  31.372   4.854
32868W        W 5293  38.636  44.865  13.540
32869W        W 5294  23.249  44.528   4.343
32870W        W 5295   9.624  19.101   0.394
32871W        W 5296  39.417  34.657  13.659
32872W        W 5297  40.866  30.451  12.034
32873W        W 5298  23.646  14.739   3.395
32874W        W 5299  32.556  24.660   0.713
32875W        W 5300  34.590  44.277   3.133
32876W        W 5301  12.141  44.504   4.064
32877W        W 5302  26.662  17.617  11.977
32878W        W 5303   1.030  14.048  14.815
32879W        W 5304   1.186  30.016  14.276
32880W        W 5305   3.223  19.737   2.085
32881W        W 5306   2.798  26.840   2.105
32882W        W 5307  31.665  43.306   0.259
32883W        W 5308  24.469  31.932  11.198
32884W        W 5309  12.623  24.119  13.513
32885W        W 5310  40.481   9.804  12.969
32886W        W 5311  29.075  11.180   3.043
32887W        W 5312  13.808   8.958   0.028
32888W        W 5313   5.186   4.832   2.352
32889W        W 5314   0.448  31.265   5.424
32890W        W 5315  12.169  12.549  14.897
32891W        W 5316  23.810  23.041  13.003
32892W        W 5317  29.021  15.324  12.964
32893W        W 5318  33.964  10.314  10.679
32894W        W 5319  14.399  17.165   2.881
32895W        W 5320  42.955  38.571   3.774
32896W        W 5321  14.181  15.665   2.562
32897W        W 5322  29.056  31.523   2.603
32898W        W 5323  41.508  40.022  12.923
32899W        W 5324  19.550  43.261  14.520
32900W        W 5325   1.517  19.566  13.729
32901W        W 5326   5.258  24.643   3.495
32902W        W 5327  22.050  29.065  10.707
32903W        W 5328   0.887  33.261   2.198
32904W        W 5329  44.149   2.378   1.892
32905W        W 5330  40.020  18.795  13.715
32906W        W 5331  21.364   2.823   0.019
32907W        W 5332  10.290   3.799   2.490
32908W        W 5333  13.085   7.641   2.861
32909W        W 5334  12.588  31.532   4.231
32910W        W 5335  36.600  19.524  13.780
32911W        W 5336  32.404  42.805   2.264
32912W        W 5337  18.783  29.640  12.019
32913W        W 5338  42.055  24.914  10.607
32914W        W 5339  12.870   0.918   0.479
32915W        W 5340  20.013  27.649   2.719
32916W        W 5341  36.374  29.232   0.856
32917W        W 5342  20.105  37.956   2.364
32918W        W 5343   4.261   7.714   0.536
32919W        W 5344  14.323  15.322  14.494
32920W        W 5345   2.222  23.677   2.165
32921W        W 5346  39.357   5.747   1.544
32922W        W 5347  13.900  23.200  13.799
32923W        W 5348  32.433  10.856  13.887
32924W        W 5349  17.870  29.423  12.051
32925W        W 5350  37.063   3.825   4.359
32926W        W 5351   0.059  26.932   0.766
32927W        W 5352   3.828  12.598  11.697
32928W        W 5353  33.613   6.840  14.560
32929W        W 5354  29.805   4.749   3.833
32930W        W 5355  38.868  12.329   3.933
32931W        W 5356  30.185  35.476   3.272
32932W        W 5357  34.249  43.366   2.240
32933W        W 5358  44.826  33.615  14.737
32934W        W 5359  44.274  11.811  10.696
32935W        W 5360  14.249  12.163   0.515
32936W        W 5361  44.632   9.625   2.252
32937W        W 5362  28.018   3.376   3.286
32938W        W 5363  41.634  43.467  11.501
32939W        W 5364  32.935  30.529   3.119
32940W        W 5365   0.797   6.752  11.609
32941W        W 5366  42.374  31.690  12.557
32942W        W 5367  16.510  22.467  13.878
32943W        W 5368  24.843  13.544   2.793
32944W        W 5369  29.921  15.969   2.709
32945W        W 5370  40.343   2.098  14.851
32946W        W 5371  13.994  41.367  11.414
32947W        W 5372  14.058  37.558   1.449
32948W        W 5373  27.581  30.346   2.146
32949W        W 5374  17.742  38.360   3.272
32950W        W 5375  32.694  40.630   2.862
32951W        W 5376  29.829   1.815   1.159
32952W        W 5377  44.334  42.390  10.981
32953W        W 5378   9.124  14.462   1.471
32954W        W 5379   0.068  28.649  11.083
32955W        W 5380  35.576  36.442  14.037
32956W        W 5381  34.371  18.043   0.421
32957W        W 5382  13.819  21.594   2.777
32958W        W 5383  36.874  13.722   1.398
32959W        W 5384  32.330   9.321   3.193
32960W        W 5385  21.093  24.465   1.266
32961W        W 5386  40.868  30.493   5.010
32962W        W 5387   4.761   5.664   3.155
32963W        W 5388  33.080  13.192   0.397
32964W        W 5389   1.140  11.886  13.430
32965W        W 5390  14.740  42.083   1.888
32966W        W 5391   9.735  19.777  10.505
32967W        W 5392  31.420  35.051  14.385
32968W        W 5393   8.277   3.211  11.999
32969W        W 5394  16.306  27.081  14.761
32970W        W 5395  44.516  11.099   1.254
32971W        W 5396   0.758  24.197   0.331
32972W        W 5397  32.449   4.014   3.665
32973W        W 5398  43.293  26.212   1.001
32974W        W 5399  26.947  12.144   1.431
32975W        W 5400   8.680  34.953  11.238
32976W        W 5401   6.814  24.722   0.346
32977W        W 5402  39.142   6.181   3.758
32978W        W 5403  32.828  10.826   4.530
32979W        W 5404   7.129   3.430   3.835
32980W        W 5405  15.474  40.204  11.547
32981W        W 5406  22.636  31.876   4.585
32982W        W 5407  33.118  23.738  11.150
32983W        W 5408  37.420  12.373   3.365
32984W        W 5409  36.317  36.467  11.457
32985W        W 5410  25.274   0.746  11.627
32986W        W 5411  44.968  44.270  12.583
32987W        W 5412  18.553  11.229   2.288
32988W        W 5413   2.848   3.528   4.944
32989W        W 5414  38.942  14.386   4.433
32990W        W 5415  34.115  38.053   3.104
32991W        W 5416  11.349  41.393  11.598
32992W        W 5417  20.228  24.685   1.202
32993W        W 5418   6.583  40.414   4.578
32994W        W 5419  28.253  12.209   0.027
32995W        W 5420  36.121   9.638   0.777
32996W        W 5421  42.469  16.164  13.553
32997W        W 5422  26.195  34.555  11.970
32998W        W 5423  24.968   4.873  11.922
32999W        W 5424  11.217  35.264  10.630
33000W        W 5425  19.220   9.787   0.788
33001W        W 5426   2.779  10.255  10.571
33002W        W 5427  24.029   1.491  10.016
33003W        W 5428   4.851  28.759  13.052
33004W        W 5429   7.554  22.963   0.810
33005W        W 5430  32.302   2.750  13.644
33006W        W 5431  17.629  14.730  11.492
33007W        W 5432  41.496  40.384  14.936
33008W        W 5433  43.711  36.497  14.737
33009W        W 5434  10.761  22.850   5.454
33010W        W 5435   9.551  27.069   3.762
33011W        W 5436  20.692   9.330   2.645
33012W        W 5437  38.978   9.761   4.398
33013W        W 5438   1.822  14.854  14.840
33014W        W 5439  43.971  15.708   1.205
33015W        W 5440  28.542  36.865  12.885
33016W        W 5441  26.478   9.407  13.837
33017W        W 5442  38.475  29.060   2.877
33018W        W 5443  39.664  29.467   2.740
33019W        W 5444  21.939  44.193   1.409
33020W        W 5445  39.309  44.476   0.900
33021W        W 5446  16.713   9.779   1.039
33022W        W 5447  33.565  25.627  12.948
33023W        W 5448  23.528   7.353  14.231
33024W        W 5449  37.177  30.189  11.038
33025W        W 5450  41.793  39.893   4.561
33026W        W 5451  39.021  11.568   2.576
33027W        W 5452  10.836  29.864   0.208
33028W        W 5453  15.352  37.061   4.957
33029W        W 5454  26.103  32.184   1.848
33030W        W 5455  20.144  35.881  13.377
33031W        W 5456  38.169  30.549   4.576
33032W        W 5457  39.460  28.469   1.961
33033W        W 5458  39.312  40.301   1.337
33034W        W 5459   7.803  14.122  14.459
33035W        W 5460   8.167  28.714  13.422
33036W        W 5461   0.305   0.965  12.125
33037W        W 5462  44.372   0.794   1.380
33038W        W 5463  11.763  39.948  12.952
33039W        W 5464  38.775   5.366  13.775
33040W        W 5465   2.369   7.471  12.003
33041W        W 5466  24.644  42.229   0.216
33042W        W 5467  22.029  14.743  11.131
33043W        W 5468  43.753  29.957  12.471
33044W        W 5469   6.952  31.565   0.179
33045W        W 5470  37.784  40.454  13.420
33046W        W 5471  10.628  32.958   1.164
33047W        W 5472  19.002   4.760  14.819
33048W        W 5473  33.811  23.708  14.423
33049W        W 5474  41.024   5.181   4.622
33050W        W 5475  26.995  20.279   3.348
33051W        W 5476  13.592  10.976   0.653
33052W        W 5477  19.028  20.469   0.009
33053W        W 5478  19.696  37.305  12.103
33054W        W 5479   3.840  13.824  12.967
33055W        W 5480  24.031   9.371  13.021
33056W        W 5481  37.494  25.163   4.904
33057W        W 5482  26.081  13.601  10.571
33058W        W 5483  17.270  14.757  11.092
33059W        W 5484  21.292  26.084   0.404
33060W        W 5485   7.371  29.591   4.745
33061W        W 5486   5.809  20.152  14.379
33062W        W 5487  22.658  13.126   3.637
33063W        W 5488   6.762  42.415  14.696
33064W        W 5489  16.072  42.723   4.255
33065W        W 5490  15.015  43.844   1.961
33066W        W 5491  44.524   9.583   3.138
33067W        W 5492   0.859   0.557  12.029
33068W        W 5493   6.136  14.564  14.238
33069W        W 5494  26.204  40.019  11.102
33070W        W 5495  27.514  35.845   2.802
33071W        W 5496  17.035  27.594  11.074
33072W        W 5497  32.534  21.669  13.883
33073W        W 5498  40.271  40.738   0.041
33074W        W 5499  24.653  32.952   2.334
33075W        W 5500   4.352  43.441  12.391
33076W        W 5501  10.182  16.881   3.295
33077W        W 5502  31.390  43.549  14.839
33078W        W 5503  13.290  26.953  13.901
33079W        W 5504   3.944  29.365  11.131
33080W        W 5505   8.307  39.442  12.423
33081W        W 5506  21.274  42.241   0.896
33082W        W 5507   7.059  22.464  14.914
33083W        W 5508  42.405  16.268   4.179
33084W        W 5509  36.594  30.803  11.217
33085W        W 5510   0.420  29.736   3.079
33086W        W 5511   1.236  41.850  12.540
33087W        W 5512   4.544   4.183   4.141
33088W        W 5513  10.710  10.496   4.172
33089W        W 5514  30.057   8.126   4.664
33090W        W 5515  34.382  10.758   1.949
33091W        W 5516  23.940  26.695   2.836
33092W        W 5517   0.324   2.527  11.387
33093W        W 5518  22.151   5.046  12.525
33094W        W 5519  40.776  13.358  10.774
33095W        W 5520  42.764  17.431   2.389
33096W        W 5521  44.863  29.906  14.896
33097W        W 5522  13.073  39.339   1.414
33098W        W 5523  23.231  12.323  14.352
33099W        W 5524  39.266  41.406  10.476
33100W        W 5525   7.611  24.524   3.816
33101W        W 5526  33.256  44.486   4.285
33102W        W 5527   0.757  35.764   4.520
33103W        W 5528  26.694  41.470  11.627
33104W        W 5529  32.970  29.429   2.814
33105W        W 5530   7.946  34.178  11.143
33106W        W 5531  21.438   9.911   2.772
33107W        W 5532  13.106   7.343  10.667
33108W        W 5533  17.778  11.230   1.881
33109W        W 5534  36.430   9.835   9.733
33110W        W 5535  32.089  40.047   2.306
33111W        W 5536  32.414  35.369   2.255
33112W        W 5537  43.620  26.127  10.829
33113W        W 5538  12.718  16.830  13.999
33114W        W 5539  43.125  36.788  12.198
33115W        W 5540   5.859   0.883  11.507
33116W        W 5541  43.240   2.566  10.556
33117W        W 5542  36.362  24.069   3.811
33118W        W 5543   5.769  41.977  12.565
33119W        W 5544  38.850  35.861  14.433
33120W        W 5545  31.117  17.604   4.215
33121W        W 5546  25.617  19.743   4.144
33122W        W 5547  36.792  37.016   4.549
33123W        W 5548  44.502   1.381  11.664
33124W        W 5549  19.787  18.943   3.245
33125W        W 5550   4.471  33.673   4.114
33126W        W 5551  12.811  39.303   0.973
33127W        W 5552  40.108  18.692   3.673
33128W        W 5553  33.973   9.803  10.628
33129W        W 5554  27.382  42.574   3.638
33130W        W 5555   5.905  18.239   4.214
33131W        W 5556  13.781  21.137   4.470
33132W        W 5557  17.008  42.898   2.017
33133W        W 5558  23.635  37.731  13.617
33134W        W 5559  23.146  10.763  14.427
33135W        W 5560  12.699  17.684  12.967
33136W        W 5561   1.520  36.128   1.874
33137W        W 5562  15.863  42.033   3.652
33138W        W 5563   0.174   6.265   0.337
33139W        W 5564  13.899   3.449  10.602
33140W        W 5565  37.555  42.771  12.813
33141W        W 5566  18.057   2.377  10.889
33142W        W 5567   2.477  30.088   3.607
33143W        W 5568  25.524  44.866   0.531
33144W        W 5569  11.426  27.700   4.915
33145W        W 5570   2.891  10.214  13.442
33146W        W 5571  44.768   0.903  14.975
33147W        W 5572  20.937   6.869  10.985
33148W        W 5573  42.879   6.276  14.270
33149W        W 5574  16.241  38.005  10.396
33150W        W 5575   8.881  11.377  12.398
33151W        W 5576  24.997  20.544   4.394
33152W        W 5577  20.744  10.827   3.558
33153W        W 5578  27.594   0.234  10.884
33154W        W 5579  21.720  24.817   1.427
33155W        W 5580  32.384  41.938   1.355
33156W        W 5581  42.674  24.805  11.861
33157W        W 5582  17.109  23.216  12.821
33158W        W 5583   5.699  27.439   2.113
33159W        W 5584  42.724  11.747   3.599
33160W        W 5585  20.720  18.633  12.954
33161W        W 5586   9.880  23.878   2.638
33162W        W 5587  40.760   7.924  13.423
33163W        W 5588  39.880   3.149  14.292
33164W        W 5589  10.183  26.209  10.506
33165W        W 5590  41.630  43.891   1.620
33166W        W 5591   7.364  40.216  14.913
33167W        W 5592  11.556  17.672  13.528
33168W        W 5593  31.025   1.381   0.342
33169W        W 5594  40.039  29.124  11.173
33170W        W 5595   7.353  23.481   0.024
33171W        W 5596  24.857   1.170  14.903
33172W        W 5597  32.637  34.208  11.041
33173W        W 5598  13.311  24.139   4.669
33174W        W 5599  39.822  23.089   3.384
33175W        W 5600  41.361  32.991   2.341
33176W        W 5601   3.486  35.793   1.948
33177W        W 5602  22.102   4.706   1.444
33178W        W 5603  23.742  17.595   2.395
33179W        W 5604  29.166  11.327   3.556
33180W        W 5605   2.220   1.517   4.083
33181W        W 5606  37.391   2.384  13.338
33182W        W 5607  15.285  26.728   3.320
33183W        W 5608   4.991   2.814   4.734
33184W        W 5609  23.674  39.835  12.368
33185W        W 5610  27.230  16.423  11.657
33186W        W 5611  17.302  38.065   2.749
33187W        W 5612  31.446  26.146   2.937
33188W        W 5613  34.874  17.683  13.809
33189W        W 5614   8.731  13.710   3.591
33190W        W 5615  24.051  41.294  12.862
33191W        W 5616   5.193  31.062  14.789
33192W        W 5617  25.989  29.494   3.844
33193W        W 5618  33.372   7.705  11.689
33194W        W 5619  31.006  20.193  11.331
33195W        W 5620   6.187  23.468   3.734
33196W        W 5621  22.454  25.757   0.081
33197W        W 5622  33.600  30.191  11.581
33198W        W 5623  40.335  30.684   0.222
33199W        W 5624  14.175  11.714   2.729
33200W        W 5625  25.143  26.833   2.338
33201W        W 5626  42.167  24.272   4.983
33202W        W 5627  19.794   3.182  13.863
33203W        W 5628   5.479   5.266   0.729
33204W        W 5629  24.155   9.192   3.732
33205W        W 5630  27.570  21.423   5.591
33206W        W 5631  42.070  28.766   1.807
33207W        W 5632  39.443  26.417  14.399
33208W        W 5633   6.113  14.788  10.990
33209W        W 5634  18.529  28.625   1.761
33210W        W 5635  15.694  17.185  14.819
33211W        W 5636  20.669  16.149  11.274
33212W        W 5637  36.335  13.737  11.277
33213W        W 5638  28.702  30.644  13.045
33214W        W 5639  35.112  16.151  12.033
33215W        W 5640  14.210  42.513  13.048
33216W        W 5641   7.203   4.620  14.450
33217W        W 5642  39.136  17.053   3.647
33218W        W 5643   2.417  15.462   9.906
33219W        W 5644  29.478  30.909  14.050
33220W        W 5645  42.870   9.218  12.128
33221W        W 5646  36.412   3.244   1.865
33222W        W 5647  10.310  26.932   0.833
33223W        W 5648   7.225  19.881  14.292
33224W        W 5649  31.392   1.824  14.752
33225W        W 5650  28.945  27.763   4.001
33226W        W 5651  13.600   2.046  13.816
33227W        W 5652   6.875  44.318   4.893
33228W        W 5653  21.134  23.801   2.475
33229W        W 5654   2.224   8.359  14.835
33230W        W 5655  25.615  36.126   2.642
33231W        W 5656  35.429  37.091   4.925
33232W        W 5657  44.966  39.508   0.920
33233W        W 5658  17.226  44.919  14.712
33234W        W 5659  21.538  39.545   0.747
33235W        W 5660  31.578  39.590  14.408
33236W        W 5661  17.290  32.127  14.032
33237W        W 5662   8.506  33.497   0.333
33238W        W 5663  39.271  43.864  10.334
33239W        W 5664  18.603   1.296  12.460
33240W        W 5665  33.087  25.196  12.173
33241W        W 5666  40.107  13.542  11.065
33242W        W 5667  23.151   6.673  14.890
33243W        W 5668  20.625  37.702  12.100
33244W        W 5669  30.431  27.067   4.907
33245W        W 5670  14.033  35.148  13.129
33246W        W 5671  16.220  21.700  14.230
33247W        W 5672  35.926  18.661  13.387
33248W        W 5673  28.934  15.210   0.401
33249W        W 5674   7.966  26.095  11.804
33250W        W 5675  13.576  25.592  10.686
33251W        W 5676  33.341  28.144   3.803
33252W        W 5677  33.286  26.142   3.295
33253W        W 5678  14.888  32.149  10.338
33254W        W 5679  25.196  15.246  13.398
33255W        W 5680  35.510  27.027  14.750
33256W        W 5681  21.861  29.950   2.911
33257W        W 5682  35.358  28.027  12.121
33258W        W 5683  28.854  28.622  14.393
33259W        W 5684   6.404  33.430  11.668
33260W        W 5685  19.099   9.318  14.999
33261W        W 5686  40.811  11.228   1.683
33262W        W 5687  24.447  19.663  12.385
33263W        W 5688  37.564  27.106   4.322
33264W        W 5689  38.774  26.477   1.429
33265W        W 5690   8.255  26.985  14.482
33266W        W 5691   6.122  30.465  14.757
33267W        W 5692  11.720  38.361  13.921
33268W        W 5693  34.447  15.270  14.947
33269W        W 5694  41.588  44.826  13.001
33270W        W 5695  35.493   4.488   2.896
33271W        W 5696  32.356  16.737  14.157
33272W        W 5697   9.256   9.375   1.819
33273W        W 5698  19.177  28.742  12.430
33274W        W 5699  13.104  10.040  11.062
33275W        W 5700   1.944  21.485  14.984
33276W        W 5701  12.528  43.237   2.449
33277W        W 5702  10.864  43.781  14.984
33278W        W 5703  33.693  18.126  11.492
33279W        W 5704  25.638  15.571  10.354
33280W        W 5705   5.331  16.308  10.717
33281W        W 5706  38.782  18.304   2.715
33282W        W 5707   1.818  31.593  11.839
33283W        W 5708  16.327  39.908  13.802
33284W        W 5709  33.423  13.730   4.846
33285W        W 5710  23.447  10.361   4.200
33286W        W 5711  43.954  42.705  14.278
33287W        W 5712  34.949  41.548   0.802
33288W        W 5713  12.125  40.425  11.811
33289W        W 5714  12.586   4.509  13.352
33290W        W 5715   0.916   5.157   4.207
33291W        W 5716   0.435  25.804   3.347
33292W        W 5717  23.340  40.908  12.889
33293W        W 5718  17.801  38.091   1.856
33294W        W 5719  24.694  14.885   1.644
33295W        W 5720  24.043  19.756  12.653
33296W        W 5721  21.730  18.643  11.624
33297W        W 5722  44.293   0.488  14.580
33298W        W 5723   3.813  11.767  12.983
33299W        W 5724  30.076  29.127   4.628
33300W        W 5725  40.361   0.792   0.033
33301W        W 5726  16.752  20.481   1.016
33302W        W 5727  41.342  24.742   3.055
33303W        W 5728  37.788  31.975  11.656
33304W        W 5729   6.443   6.708   4.199
33305W        W 5730   2.761  16.970  14.440
33306W        W 5731  18.842  14.719  11.480
33307W        W 5732  33.344  37.815  12.087
33308W        W 5733  32.505  30.155   2.413
33309W        W 5734  36.258  29.541  11.577
33310W        W 5735  30.287  40.680  14.481
33311W        W 5736  12.048  37.309   2.101
33312W        W 5737  18.310  32.710  13.812
33313W        W 5738   9.132   6.488  11.994
33314W        W 5739   3.806   3.064   1.865
33315W        W 5740  25.051  28.101   0.253
33316W        W 5741  25.669  24.013   0.016
33317W        W 5742  16.502  32.003   1.388
33318W        W 5743  25.200   0.455   0.341
33319W        W 5744  39.616   8.773  11.041
33320W        W 5745  44.000  26.118   3.809
33321W        W 5746  14.396  26.734   2.790
33322W        W 5747  16.539  11.734  13.083
33323W        W 5748  36.015  13.213  14.894
33324W        W 5749  38.505  20.928   1.997
33325W        W 5750  12.745  15.754   1.480
33326W        W 5751  22.291  32.126   9.857
33327W        W 5752   1.341  43.268  14.175
33328W        W 5753  16.258  39.476   1.318
33329W        W 5754  33.666  33.332   1.769
33330W        W 5755   8.601  43.372   2.747
33331W        W 5756  17.539  33.953   0.977
33332W        W 5757  14.115  40.326   4.149
33333W        W 5758  36.531  34.294  10.485
33334W        W 5759  34.660   8.622  13.504
33335W        W 5760  25.651   1.384  12.597
33336W        W 5761  36.548  38.070  11.008
33337W        W 5762   4.952  17.079   1.708
33338W        W 5763  35.103  43.470  11.565
33339W        W 5764  38.434   7.812   2.193
33340W        W 5765   0.957  32.717  14.036
33341W        W 5766  22.867   0.518   2.120
33342W        W 5767  34.361  15.476   3.122
33343W        W 5768  44.456  12.464  13.141
33344W        W 5769  34.059  37.245   3.249
33345W        W 5770   1.374  30.242   2.243
33346W        W 5771   3.662  33.137   1.310
33347W        W 5772   1.827  32.580  12.828
33348W        W 5773  19.148  40.582   3.696
33349W        W 5774  32.894  21.315   5.162
33350W        W 5775  20.492  17.836   4.801
33351W        W 5776  11.429  19.274   3.814
33352W        W 5777  20.742  35.838   1.060
33353W        W 5778  35.304  27.432  13.004
33354W        W 5779  38.889  33.851   1.252
33355W        W 5780  43.022   5.120   1.662
33356W        W 5781  14.779  28.188   0.862
33357W        W 5782  41.795  19.097  13.371
33358W        W 5783  27.639   5.697  12.333
33359W        W 5784  23.509  24.737  13.384
33360W        W 5785  16.567  31.926  11.402
33361W        W 5786  22.483   7.704   2.735
33362W        W 5787  37.292   5.755   4.641
33363W        W 5788  37.334  25.539   3.177
33364W        W 5789  17.589  28.565  11.554
33365W        W 5790  23.303  20.958   4.944
33366W        W 5791  21.410  37.313  14.758
33367W        W 5792  15.772  43.735  14.892
33368W        W 5793   9.269  18.666   0.379
33369W        W 5794  38.269  31.725   4.641
33370W        W 5795  14.739  38.823   1.836
33371W        W 5796  18.026   4.353  14.791
33372W        W 5797  17.901  32.183  11.480
33373W        W 5798  34.303  16.121  13.428
33374W        W 5799  40.033  43.564   0.271
33375W        W 5800   8.658  16.729   4.417
33376W        W 5801  43.943   9.406  11.438
33377W        W 5802  30.574  23.102   0.928
33378W        W 5803  28.616  30.492   3.080
33379W        W 5804  32.421  13.826   1.836
33380W        W 5805   0.601  18.388  11.146
33381W        W 5806  21.581  13.806   0.957
33382W        W 5807  27.226  13.334   0.379
33383W        W 5808  42.909  21.760  13.527
33384W        W 5809  31.000  20.214  11.853
33385W        W 5810  17.862  18.522  12.539
33386W        W 5811  10.171   6.671   1.344
33387W        W 5812  15.670   0.297  13.740
33388W        W 5813  29.877   8.185   0.378
33389W        W 5814   2.702   1.819  11.976
33390W        W 5815  14.527   6.374  12.493
33391W        W 5816  40.775  15.807   0.153
33392W        W 5817  34.925  17.288   2.163
33393W        W 5818  41.027  23.829   4.457
33394W        W 5819  28.102  12.483  10.688
33395W        W 5820  16.631  39.092   3.297
33396W        W 5821  36.060   3.400  12.438
33397W        W 5822  43.503  11.834   0.895
33398W        W 5823   6.361  20.420   4.268
33399W        W 5824   5.654  30.378   1.307
33400W        W 5825   0.871  26.051   0.979
33401W        W 5826  14.719  22.789  12.849
33402W        W 5827  36.798  40.826  14.394
33403W        W 5828   7.667  17.723   4.526
33404W        W 5829  20.939  43.366  14.469
33405W        W 5830  28.944   1.300  12.577
33406W        W 5831  27.473  40.025   5.133
33407W        W 5832  36.021  42.526   2.246
33408W        W 5833  34.018  28.601   0.157
33409W        W 5834   7.388  32.040  10.547
33410W        W 5835  18.572  32.267   4.985
33411W        W 5836  29.551  40.103  14.435
33412W        W 5837  35.402  21.181   2.852
33413W        W 5838  22.170  26.889   2.723
33414W        W 5839  38.277  37.256   1.856
33415W        W 5840   9.391   6.912  11.815
33416W        W 5841  42.685  19.798  11.311
33417W        W 5842  44.058  14.690  14.810
33418W        W 5843  16.781  27.406  13.832
33419W        W 5844  12.299  33.128   4.118
33420W        W 5845   0.013  35.935   3.741
33421W        W 5846  16.965  30.049   0.756
33422W        W 5847  16.136  31.169  13.434
33423W        W 5848   8.831   1.851   2.809
33424W        W 5849  20.567  19.330  11.652
33425W        W 5850   8.200  18.556   0.002
33426W        W 5851  36.844  33.160   3.157
33427W        W 5852   4.730  41.954   0.497
33428W        W 5853  11.978  14.616   0.257
33429W        W 5854  35.440  28.179   4.520
33430W        W 5855  16.082  10.641   3.919
33431W        W 5856  10.709  11.978  11.563
33432W        W 5857  22.662   8.456  11.951
33433W        W 5858  14.580  26.669  12.398
33434W        W 5859  32.486   8.714  13.766
33435W        W 5860  42.971   1.356  14.696
33436W        W 5861  36.415  20.777  12.509
33437W        W 5862  40.423   1.213   0.958
33438W        W 5863  19.533  34.640   3.937
33439W        W 5864  13.585  27.675   3.319
33440W        W 5865  39.476  37.334  11.917
33441W        W 5866  14.295  32.667   5.026
33442W        W 5867  24.208  13.318   2.284
33443W        W 5868  34.965  27.177   3.206
33444W        W 5869  29.981  25.453  10.915
33445W        W 5870  44.894   8.165   1.949
33446W        W 5871  14.433  41.342  11.669
33447W        W 5872  33.060  33.197  11.993
33448W        W 5873  16.902  34.290   5.490
33449W        W 5874  36.995  43.360   1.384
33450W        W 5875  26.586  23.563  14.173
33451W        W 5876  11.273  37.395  10.426
33452W        W 5877  29.523  39.799   0.964
33453W        W 5878  20.839  38.239  10.526
33454W        W 5879   6.863  40.575   3.662
33455W        W 5880  33.023  17.254  13.058
33456W        W 5881  23.369  31.938  12.361
33457W        W 5882  22.326  42.431  14.936
33458W        W 5883  14.315   3.157  10.569
33459W        W 5884   7.260  28.915  11.492
33460W        W 5885  43.875  42.587   0.530
33461W        W 5886  11.269  33.470  11.200
33462W        W 5887  21.648   1.653   0.792
33463W        W 5888  31.252  30.118   4.455
33464W        W 5889   9.719  38.380  14.706
33465W        W 5890  12.799  36.463  11.771
33466W        W 5891  14.108  43.778  14.226
33467W        W 5892  16.609   1.224   4.525
33468W        W 5893   4.361  17.626  10.654
33469W        W 5894   5.167  30.282   3.227
33470W        W 5895  13.720  33.707   3.116
33471W        W 5896  39.064  17.210   3.158
33472W        W 5897   0.488  34.680  12.830
33473W        W 5898  38.084  19.084  11.666
33474W        W 5899  23.899   2.800   2.740
33475W        W 5900   9.817  25.888  12.695
33476W        W 5901  38.889   9.904  14.401
33477W        W 5902  43.804  34.477   3.936
33478W        W 5903  25.053   5.261  14.084
33479W        W 5904  39.016  37.411   1.249
33480W        W 5905   5.094   9.412   0.955
33481W        W 5906  11.833   7.987  12.001
33482W        W 5907  13.135  33.887   3.124
33483W        W 5908  21.308  30.444   1.188
33484W        W 5909  42.591  14.970  11.583
33485W        W 5910   4.450  24.653   2.341
33486W        W 5911  28.677  14.752   3.863
33487W        W 5912  23.798  20.177   1.807
33488W        W 5913  36.343   7.282   1.216
33489W        W 5914  39.584  40.757   1.292
33490W        W 5915  32.956  28.962  12.850
33491W        W 5916  10.892  23.061  12.525
33492W        W 5917  22.087  10.373   1.439
33493W        W 5918  27.022  32.698   0.803
33494W        W 5919  24.989   0.679   0.972
33495W        W 5920  27.738  24.129   3.254
33496W        W 5921   2.697  39.526  11.097
33497W        W 5922  28.721  23.130   1.528
33498W        W 5923  25.546  36.399  10.791
33499W        W 5924  20.015  14.394  10.683
33500W        W 5925   9.433  14.231   4.007
33501W        W 5926  20.970  18.813  11.207
33502W        W 5927  12.684  11.829  13.573
33503W        W 5928   0.960  24.157   3.938
33504W        W 5929  38.027  18.263   1.419
33505W        W 5930  40.830  25.171   0.589
33506W        W 5931  40.611   4.640  14.747
33507W        W 5932  32.083  41.538  10.624
33508W        W 5933  27.620  41.865   3.247
33509W        W 5934  11.232  21.829   0.953
33510W        W 5935  16.704   0.241  13.399
33511W        W 5936  34.100   6.406   4.152
33512W        W 5937  24.057  25.166   0.324
33513W        W 5938  25.572  44.946  13.152
33514W        W 5939   3.457  23.784  12.066
33515W        W 5940  42.060   0.948   5.044
33516W        W 5941  10.801   6.426   0.875
33517W        W 5942  13.640  40.293   3.215
33518W        W 5943  28.022  39.703  10.095
33519W        W 5944  31.560  27.260  14.244
33520W        W 5945  34.401  27.533  14.424
33521W        W 5946  15.128  24.838   0.168
33522W        W 5947  36.876   5.862  10.641
33523W        W 5948  22.814  10.807  12.408
33524W        W 5949   4.393  15.488   0.319
33525W        W 5950  44.226  41.892   3.402
33526W        W 5951   2.851   7.752   3.215
33527W        W 5952  32.693  21.013   3.283
33528W        W 5953  37.328   5.780  11.640
33529W        W 5954  16.772  39.556   4.192
33530W        W 5955   1.752  32.490  11.327
33531W        W 5956  24.445  40.465   3.338
33532W        W 5957   3.767  34.636  12.005
33533W        W 5958  10.804  17.120   4.439
33534W        W 5959   3.684   9.388   0.862
33535W        W 5960  30.613   9.496   1.697
33536W        W 5961  43.746   6.907   3.149
33537W        W 5962  27.853  35.586  11.564
33538W        W 5963  35.617  33.919   3.427
33539W        W 5964   0.525  22.170   0.048
33540W        W 5965  25.571  13.046   3.348
33541W        W 5966  37.804  31.459   3.204
33542W        W 5967  36.536  16.214  13.533
33543W        W 5968  25.671  25.105   1.467
33544W        W 5969  36.013  33.453  11.987
33545W        W 5970  10.633  32.236   1.269
33546W        W 5971  19.213  44.303  10.130
33547W        W 5972  12.660  30.789  11.484
33548W        W 5973   6.881  26.730   0.353
33549W        W 5974  21.540  15.211   2.825
33550W        W 5975   4.485  38.727   3.535
33551W        W 5976   3.179  19.638   1.219
33552W        W 5977  22.328  32.100  12.405
33553W        W 5978  15.021  20.154   4.827
33554W        W 5979  18.711  38.778  14.689
33555W        W 5980  30.527  25.590   4.757
33556W        W 5981  41.368  20.260   0.644
33557W        W 5982   9.297  15.375  10.988
33558W        W 5983  27.232  41.792   1.196
33559W        W 5984  12.610  16.693  11.805
33560W        W 5985  41.020  24.957  13.575
33561W        W 5986  28.698  36.493  14.209
33562W        W 5987  16.271   2.302   3.764
33563W        W 5988  19.673   2.367  10.513
33564W        W 5989  40.859  24.773   4.032
33565W        W 5990  43.018  18.766   1.769
33566W        W 5991  37.422  12.764   0.173
33567W        W 5992   2.413  20.978  11.048
33568W        W 5993   4.218  33.784   4.551
33569W        W 5994   5.345  32.530  12.476
33570W        W 5995  29.687  17.046  14.395
33571W        W 5996  37.469   4.121   1.029
33572W        W 5997  28.542  40.935   9.775
33573W        W 5998  25.201  38.008   1.966
33574W        W 5999  11.671  35.444   3.225
33575W        W 6000  36.060  15.713   0.200
33576W        W 6001  33.648  42.481   2.423
33577W        W 6002   3.343   0.617   0.195
33578W        W 6003  35.927  32.000  13.040
33579W        W 6004  23.000  27.529   3.303
33580W        W 6005  24.740  29.966  13.395
33581W        W 6006  42.499  43.239  11.492
33582W        W 6007  26.486  16.198  13.534
33583W        W 6008   0.421   2.950  14.739
33584W        W 6009  43.654  31.584   2.734
33585W        W 6010  15.725   8.736   1.050
33586W        W 6011  29.104  42.935  12.035
33587W        W 6012  33.646  42.332   0.589
33588W        W 6013  18.938   1.952  13.084
33589W        W 6014  17.781  36.186  11.847
33590W        W 6015  43.314   4.214   2.686
33591W        W 6016  42.970  25.140  13.954
33592W        W 6017  28.918  30.952  11.238
33593W        W 6018  15.030  28.134   3.101
33594W        W 6019  32.414  14.181  11.615
33595W        W 6020  21.446  31.054  12.629
33596W        W 6021  22.260  41.475   2.302
33597W        W 6022  10.581  19.761  13.080
33598W        W 6023  24.047   4.597   4.535
33599W        W 6024  17.224  32.494   1.965
33600W        W 6025  43.332   0.732   4.306
33601W        W 6026  25.915   8.638   4.030
33602W        W 6027  44.427  14.645   4.201
33603W        W 6028  21.077  24.290   0.778
33604W        W 6029  16.776  41.421  13.484
33605W        W 6030  16.751  38.846   4.575
33606W        W 6031  31.691  19.876  12.143
33607W        W 6032  36.500  38.510  14.361
33608W        W 6033  20.156  20.055  12.054
33609W        W 6034  28.354   5.838   0.944
33610W        W 6035   7.637  24.752   1.795
33611W        W 6036  20.694  40.509  11.867
33612W        W 6037  39.093  36.600  14.852
33613W        W 6038  44.025  16.383   2.230
33614W        W 6039  33.974   2.712   4.974
33615W        W 6040  14.800  41.561  12.430
33616W        W 6041  20.094  39.530   3.445
33617W        W 6042  29.470   2.773   4.376
33618W        W 6043  19.540  26.458  11.000
33619W        W 6044  27.680  12.324   4.903
33620W        W 6045  36.565  23.711  14.368
33621W        W 6046   1.033  14.607   2.153
33622W        W 6047  11.354  23.692   0.171
33623W        W 6048  19.676  12.346  10.907
33624W        W 6049   7.884  16.223  14.465
33625W        W 6050  17.237  40.436  10.926
33626W        W 6051   4.922  15.200  10.803
33627W        W 6052   1.869  24.773   4.604
33628W        W 6053   0.718  10.577   4.092
33629W        W 6054  24.698  32.402  12.345
33630W        W 6055  33.529  40.317  12.871
33631W        W 6056  11.790  14.510  13.006
33632W        W 6057  10.130  35.495  11.143
33633W        W 6058  10.691  43.081   0.563
33634W        W 6059  23.503   5.817  12.054
33635W        W 6060  37.959   7.262   5.024
33636W        W 6061  44.489  26.904   1.588
33637W        W 6062  11.360   4.345  14.640
33638W        W 6063  34.532  43.010   1.312
33639W        W 6064  22.957  29.007  11.608
33640W        W 6065  21.074   6.181  13.936
33641W        W 6066  24.025  43.775  13.066
33642W        W 6067  11.136   7.414  11.924
33643W        W 6068  24.056   3.451   0.536
33644W        W 6069  36.878  25.698   2.874
33645W        W 6070  30.395  26.567   3.217
33646W        W 6071  14.346  42.892  10.843
33647W        W 6072   8.845  18.663  13.536
33648W        W 6073  17.974  43.757   4.425
33649W        W 6074  21.624   2.639   1.695
33650W        W 6075  40.971   8.662   4.817
33651W        W 6076   7.445  31.094  13.942
33652W        W 6077  37.369  18.274   0.558
33653W        W 6078  21.520   8.148   0.965
33654W        W 6079  24.576  22.464   3.717
33655W        W 6080  14.337  13.597  13.614
33656W        W 6081   3.779  14.720   3.507
33657W        W 6082  26.274  38.130   1.362
33658W        W 6083  28.063   1.941   3.105
33659W        W 6084   3.227  34.538   2.933
33660W        W 6085   3.772   5.615  11.101
33661W        W 6086  37.869  32.594   4.270
33662W        W 6087  27.657  12.335   2.826
33663W        W 6088  27.042   6.497   1.312
33664W        W 6089  24.225  14.664  10.795
33665W        W 6090  22.168  31.091  10.484
33666W        W 6091  11.317  18.189  11.402
33667W        W 6092   0.842  10.455   0.482
33668W        W 6093  17.230  14.772  10.201
33669W        W 6094  30.764  20.615  12.407
33670W        W 6095  17.168  21.893   1.048
33671W        W 6096  29.632  36.876   1.380
33672W        W 6097  22.798  17.186  12.042
33673W        W 6098  25.642   9.460   3.192
33674W        W 6099  44.069  30.386  11.064
33675W        W 6100  42.460  26.111   3.443
33676W        W 6101  27.979  28.776  14.278
33677W        W 6102  40.788   1.411   0.058
33678W        W 6103  15.310  36.530   3.739
33679W        W 6104   6.586  22.123   1.216
33680W        W 6105  42.123  25.630  14.357
33681W        W 6106   0.858  14.495   1.324
33682W        W 6107  44.253  11.490  12.869
33683W        W 6108  21.308   4.123  11.550
33684W        W 6109  33.130  13.053  13.085
33685W        W 6110  41.958  12.024  14.352
33686W        W 6111  42.359  10.934   1.011
33687W        W 6112  27.100   5.718   0.232
33688W        W 6113  31.252  30.092   0.253
33689W        W 6114  44.068  39.685  11.567
33690W        W 6115  34.826   6.227  11.125
33691W        W 6116  16.818  41.426  12.488
33692W        W 6117  38.020  16.216   0.807
33693W        W 6118   9.517  34.895  13.181
33694W        W 6119  39.282  41.332  13.400
33695W        W 6120  35.819  23.143   3.130
33696W        W 6121  11.062  30.923  10.774
33697W        W 6122  11.583  34.915   3.731
33698W        W 6123  15.926  38.864   5.082
33699W        W 6124  37.687   3.477  11.148
33700W        W 6125  23.868   8.045   3.678
33701W        W 6126  29.596  33.269   2.704
33702W        W 6127   3.190  36.352  12.914
33703W        W 6128  26.247  27.606  11.112
33704W        W 6129  44.482  36.969   1.849
33705W        W 6130  43.852  17.638  14.718
33706W        W 6131  12.608   8.398   2.752
33707W        W 6132  21.413  18.304   0.733
33708W        W 6133  10.825  44.022   4.106
33709W        W 6134  27.496  24.206  12.065
33710W        W 6135  34.872   5.147  14.806
33711W        W 6136  20.309  31.943  13.484
33712W        W 6137   2.712  21.084   4.683
33713W        W 6138  42.909   3.832  12.441
33714W        W 6139   5.898  28.853  10.312
33715W        W 6140  13.908   7.793   4.108
33716W        W 6141  43.585  43.846   3.294
33717W        W 6142  16.508  44.716  12.392
33718W        W 6143  44.090  10.338   2.699
33719W        W 6144   0.827   0.158   1.014
33720W        W 6145  43.401  29.735  12.907
33721W        W 6146   8.212  11.328  13.814
33722W        W 6147  26.721  23.189   4.948
33723W        W 6148   4.742  42.497  12.924
33724W        W 6149   6.265  34.961   1.238
33725W        W 6150   6.217  15.389  12.492
33726W        W 6151  18.811   7.823  12.095
33727W        W 6152  41.868  40.135   0.822
33728W        W 6153   9.739  33.435  11.238
33729W        W 6154  24.663  21.863   0.626
33730W        W 6155  35.324   7.815   5.021
33731W        W 6156  16.092  11.935  12.264
33732W        W 6157   1.212   8.078  12.790
33733W        W 6158   9.445   5.953  13.423
33734W        W 6159  36.843  33.148   1.287
33735W        W 6160  36.173   9.196   1.278
33736W        W 6161   8.800   0.509  12.129
33737W        W 6162  35.201  13.538   1.509
33738W        W 6163  16.634  40.458  13.021
33739W        W 6164  24.129  44.442   0.475
33740W        W 6165  15.665  27.726   5.127
33741W        W 6166   1.740  26.397   3.432
33742W        W 6167   0.978  26.969   4.122
33743W        W 6168  31.586   6.695   2.854
33744W        W 6169  44.737  18.539  14.114
33745W        W 6170  41.283   6.296  14.985
33746W        W 6171  24.554  27.103   4.570
33747W        W 6172  44.229  32.026  11.963
33748W        W 6173   2.274  15.839   4.119
33749W        W 6174   6.821  34.204  12.077
33750W        W 6175   7.728  22.429   4.969
33751W        W 6176   0.218  13.212  11.204
33752W        W 6177   4.268   4.834   4.802
33753W        W 6178  11.026  27.155  14.265
33754W        W 6179  33.601  43.706   0.350
33755W        W 6180   9.736  13.795   3.679
33756W        W 6181   9.141   4.924  10.719
33757W        W 6182  31.897  43.791  12.429
33758W        W 6183  16.511  17.134  12.893
33759W        W 6184   3.018  41.752   4.298
33760W        W 6185  13.084  19.056   4.284
33761W        W 6186   1.246  19.325  12.916
33762W        W 6187  13.618  37.290   3.657
33763W        W 6188  30.080  40.597   3.400
33764W        W 6189  29.195  29.925  11.012
33765W        W 6190   4.888  13.787   0.884
33766W        W 6191  15.439  16.115  11.211
33767W        W 6192  38.999  13.781   2.093
33768W        W 6193  38.901  27.844  14.723
33769W        W 6194  35.336  17.383   4.239
33770W        W 6195  17.248  18.675  11.238
33771W        W 6196  23.389  20.778  10.663
33772W        W 6197  29.349  34.501   3.800
33773W        W 6198  35.477   0.971   2.532
33774W        W 6199  16.638  39.350  14.913
33775W        W 6200   2.004  15.140   3.452
33776W        W 6201  19.734  26.463   2.679
33777W        W 6202  42.479  14.284   1.305
33778W        W 6203  18.503  34.680   5.195
33779W        W 6204  25.565   5.000  13.525
33780W        W 6205  25.001  30.452   4.931
33781W        W 6206  31.627   7.879   0.265
33782W        W 6207  26.179   6.885   1.183
33783W        W 6208  15.230  37.006   3.941
33784W        W 6209   1.482  36.555  12.583
33785W        W 6210  29.177  18.047  10.939
33786W        W 6211   3.931  44.077  13.474
33787W        W 6212  41.396  35.438  12.262
33788W        W 6213  37.074  44.732   3.885
33789W        W 6214   4.817  34.679  10.807
33790W        W 6215  38.065  33.080  13.580
33791W        W 6216  21.975   8.942   2.301
33792W        W 6217   1.227  18.147   1.356
33793W        W 6218  30.663  12.392  12.510
33794W        W 6219  38.828  26.253   2.289
33795W        W 6220  15.601  34.520   0.412
33796W        W 6221  37.776  34.473   4.600
33797W        W 6222  41.552  31.665  13.234
33798W        W 6223  38.969  14.375   3.491
33799W        W 6224   1.446  10.658   1.466
33800W        W 6225  26.187  28.432  12.496
33801W        W 6226  32.629  14.265  11.141
33802W        W 6227  39.314  42.623  13.786
33803W        W 6228  15.360   2.747   2.193
33804W        W 6229   0.727  15.086  12.033
33805W        W 6230  38.513   1.755   0.399
33806W        W 6231  40.369  27.420  14.404
33807W        W 6232   1.969  19.797  11.023
33808W        W 6233  21.557  34.746  11.162
33809W        W 6234   1.636  21.274  11.312
33810W        W 6235  16.842  27.515   2.460
33811W        W 6236  31.905  22.973   2.318
33812W        W 6237  32.451   1.678  11.970
33813W        W 6238  41.418  16.045  14.426
33814W        W 6239  29.710  16.200  12.960
33815W        W 6240  32.525  14.267  13.754
33816W        W 6241  11.131  23.625  14.104
33817W        W 6242  43.366  26.189  14.056
33818W        W 6243  43.175  22.046   1.207
33819W        W 6244  29.380  43.286  12.485
33820W        W 6245  23.088  29.362   3.117
33821W        W 6246  11.633  24.226  11.925
33822W        W 6247  39.937  20.881   5.034
33823W        W 6248  44.092  11.738  14.897
33824W        W 6249  12.587   9.713   2.266
33825W        W 6250  24.518  14.592   1.254
33826W        W 6251  28.902  28.927   1.712
33827W        W 6252   6.320  11.076   1.534
33828W        W 6253   7.808  34.882   4.537
33829W        W 6254  10.089  38.165  13.453
33830W        W 6255  16.581  14.755  13.180
33831W        W 6256  42.428  35.288   1.174
33832W        W 6257   3.222  15.667   1.638
33833W        W 6258  35.468   1.782   0.950
33834W        W 6259  38.721  44.358  14.488
33835W        W 6260  44.214  25.726  12.639
33836W        W 6261  28.184  41.062   2.377
33837W        W 6262  21.720  23.362  14.150
33838W        W 6263  12.259  13.188  14.402
33839W        W 6264  29.144  18.123   3.965
33840W        W 6265  34.544   8.632   0.986
33841W        W 6266   1.459  32.776  14.324
33842W        W 6267  27.653   5.134  14.885
33843W        W 6268  30.574  15.584   4.849
33844W        W 6269  16.783  39.412  11.539
33845W        W 6270   3.362  21.003   1.791
33846W        W 6271  10.234   2.406  14.237
33847W        W 6272  26.121  26.905   4.353
33848W        W 6273  27.942  12.202   1.455
33849W        W 6274  18.591  32.261  13.852
33850W        W 6275  22.729   0.979   2.382
33851W        W 6276  40.852   6.224   4.612
33852W        W 6277  28.200  36.413   0.261
33853W        W 6278   0.381  17.786  13.327
33854W        W 6279  33.021  18.680   3.665
33855W        W 6280   6.270  15.734   9.996
33856W        W 6281  10.678  42.555   0.427
33857W        W 6282   8.716  22.199   1.429
33858W        W 6283   0.165  28.510  13.465
33859W        W 6284  34.944  42.527   3.275
33860W        W 6285  33.316  14.835   1.393
33861W        W 6286  34.642  13.275  13.649
33862W        W 6287  44.591  14.786   2.751
33863W        W 6288  12.773  22.024   0.265
33864W        W 6289   1.026  10.388   3.709
33865W        W 6290  20.897  22.839   3.221
33866W        W 6291  44.826   5.960  14.527
33867W        W 6292  25.035  16.680   4.765
33868W        W 6293  21.459  26.679  13.168
33869W        W 6294  31.682  16.812  12.946
33870W        W 6295   1.590   9.702  11.582
33871W        W 6296  22.795  35.528  11.007
33872W        W 6297  44.487  14.701   0.455
33873W        W 6298   5.378  40.508   2.806
33874W        W 6299  16.791  39.010  11.884
33875W        W 6300  25.943  20.242  13.115
33876W        W 6301  38.413  28.108  10.306
33877W        W 6302  18.191  21.032   1.645
33878W        W 6303  42.313  20.779   3.619
33879W        W 6304  40.012  29.011  13.354
33880W        W 6305   9.920  40.002   4.613
33881W        W 6306   5.798  23.155   4.393
33882W        W 6307  28.403  25.651   3.735
33883W        W 6308  35.499  29.814  12.598
33884W        W 6309  23.651  43.216   0.850
33885W        W 6310  30.686  30.054  12.591
33886W        W 6311   2.780  26.568  11.494
33887W        W 6312  26.020  43.950  12.779
33888W        W 6313  44.501  12.749   1.313
33889W        W 6314   1.159   1.343  12.761
33890W        W 6315  42.555  43.490   1.693
33891W        W 6316  12.736  24.574  11.281
33892W        W 6317  31.020  37.817  11.620
33893W        W 6318  25.097  22.560   0.314
33894W        W 6319   2.669   8.945  11.374
33895W        W 6320   6.811  15.912   1.911
33896W        W 6321   1.868  21.978  13.217
33897W        W 6322  33.162  26.020  11.262
33898W        W 6323   1.295  14.269   0.460
33899W        W 6324  35.928  21.491  10.526
33900W        W 6325   2.953   7.893   4.550
33901W        W 6326   5.071  33.800   0.954
33902W        W 6327   3.643   7.781  11.670
33903W        W 6328  32.606   5.877   1.743
33904W        W 6329  42.913  35.250   2.005
33905W        W 6330  11.767   7.561  13.508
33906W        W 6331  23.464  34.910  14.967
33907W        W 6332  10.807  14.852  14.872
33908W        W 6333  30.088  42.512   3.087
33909W        W 6334  20.869  27.591  11.527
33910W        W 6335  32.994  11.885   4.401
33911W        W 6336  23.739  41.318  14.849
33912W        W 6337  41.899  23.494   4.946
33913W        W 6338   1.791  28.827   0.353
33914W        W 6339  17.975  26.016  13.134
33915W        W 6340  12.085  15.899  11.261
33916W        W 6341  14.188  31.044   3.494
33917W        W 6342  29.555  36.534   0.937
33918W        W 6343  11.421   1.157   1.335
33919W        W 6344  11.805  16.632   3.322
33920W        W 6345  42.656   2.382   4.652
33921W        W 6346  13.233  33.435   1.405
33922W        W 6347   6.142   5.371  11.829
33923W        W 6348  21.894   3.578   4.208
33924W        W 6349  28.989  31.381  10.935
33925W        W 6350   5.205  44.468  13.967
33926W        W 6351  41.553  32.973   3.706
33927W        W 6352  15.764  29.902  12.495
33928W        W 6353   1.199   5.865  10.685
33929W        W 6354   4.922  38.246  14.333
33930W        W 6355  26.268  33.578   2.808
33931W        W 6356  28.131  40.684  10.585
33932W        W 6357  26.628  22.564  13.981
33933W        W 6358  42.388  18.101  12.104
33934W        W 6359  43.004  14.325   1.224
33935W        W 6360  18.046   5.673  12.179
33936W        W 6361  15.357  39.508   0.139
33937W        W 6362  39.548  16.341   4.663
33938W        W 6363  40.361  15.694  14.856
33939W        W 6364  24.931   8.394  12.090
33940W        W 6365  14.333  17.931   1.579
33941W        W 6366   2.949  17.522   3.334
33942W        W 6367   7.006  37.825  10.866
33943W        W 6368  15.158  44.219   1.612
33944W        W 6369  41.094  36.916   3.721
33945W        W 6370  15.384  37.380   1.772
33946W        W 6371  12.613  19.134  10.562
33947W        W 6372  23.549  27.150  13.869
33948W        W 6373  27.152  24.544  10.892
33949W        W 6374   4.885  38.951   0.305
33950W        W 6375  21.162   9.617   3.628
33951W        W 6376  13.827  38.848  11.988
33952W        W 6377  25.485  11.641   0.891
33953W        W 6378  35.508  11.130   3.265
33954W        W 6379  27.459  25.885   4.426
33955W        W 6380  23.910  11.045  11.816
33956W        W 6381  35.440  29.620  13.617
33957W        W 6382   5.303  34.170  11.566
33958W        W 6383   8.243  22.490  13.259
33959W        W 6384  19.234   5.801  13.410
33960W        W 6385  40.962  42.592  13.581
33961W        W 6386  21.295   7.345   4.380
33962W        W 6387   2.263   2.864  12.070
33963W        W 6388  34.893  12.610  14.375
33964W        W 6389  18.648  12.337  11.719
33965W        W 6390   3.313  44.314  11.928
33966W        W 6391  36.563  40.930  11.411
33967W        W 6392  20.250  11.098  10.059
33968W        W 6393  44.016  38.975  13.319
33969W        W 6394  14.033  26.555   3.694
33970W        W 6395  13.342  11.218   4.835
33971W        W 6396   7.426  40.454   0.429
33972W        W 6397  33.345  20.215  14.763
33973W        W 6398   7.830  35.072   1.403
33974W        W 6399  22.012  27.374   2.703
33975W        W 6400  21.441  38.504  14.921
33976W        W 6401   6.792   8.920  13.050
33977W        W 6402  26.303  17.002  12.589
33978W        W 6403  33.636  28.435   2.376
33979W        W 6404  15.825  15.850  14.507
33980W        W 6405  14.180  34.091  11.150
33981W        W 6406  37.816  41.380  14.332
33982W        W 6407  35.153   1.474  11.190
33983W        W 6408  43.263  16.713   1.904
33984W        W 6409  10.733   7.448  12.449
33985W        W 6410  32.329  20.152   1.170
33986W        W 6411  12.507  42.906  11.174
33987W        W 6412  26.533  19.325   0.222
33988W        W 6413  32.980  25.038  11.663
33989W        W 6414  31.304  32.554  13.864
33990W        W 6415   3.206   6.342   1.736
33991W        W 6416  28.057  37.097   4.341
33992W        W 6417   6.849  13.145  10.691
33993W        W 6418  31.475  24.575  14.312
33994W        W 6419   7.543   4.484   2.384
33995W        W 6420  10.392   4.200  11.476
33996W        W 6421  24.952  24.134  13.907
33997W        W 6422   3.807  29.877  10.261
33998W        W 6423   5.310   0.350   2.907
33999W        W 6424   7.406  27.216   0.894
34000W        W 6425  17.052  28.039  13.008
34001W        W 6426  44.823  10.899  11.930
34002W        W 6427   3.163   9.587  13.856
34003W        W 6428  17.577   7.096   2.768
34004W        W 6429  15.614   5.200   1.891
34005W        W 6430   6.427  15.902   4.520
34006W        W 6431  18.301  42.023   0.850
34007W        W 6432   6.445  33.944  14.407
34008W        W 6433  21.456   7.276   2.814
34009W        W 6434  39.457  40.395   3.797
34010W        W 6435  24.736  39.406  11.190
34011W        W 6436  22.507  25.450   4.517
34012W        W 6437   7.321  21.471  11.423
34013W        W 6438  34.974  15.596  14.392
34014W        W 6439  21.408  37.517  11.059
34015W        W 6440  44.451  11.419   0.842
34016W        W 6441  18.561   6.876   1.909
34017W        W 6442  40.255   4.170  12.637
34018W        W 6443  18.855  39.434  10.868
34019W        W 6444   6.396  35.441  12.673
34020W        W 6445  14.760  38.391  14.562
34021W        W 6446  43.397  14.347   3.691
34022W        W 6447  25.509  14.906  12.934
34023W        W 6448  33.246  43.749   2.802
34024W        W 6449  32.702  39.880   3.154
34025W        W 6450  30.951   2.440  13.278
34026W        W 6451  12.753  13.238   4.371
34027W        W 6452   1.787  35.692   4.053
34028W        W 6453   2.802  38.987  11.695
34029W        W 6454   8.412  38.228   0.814
34030W        W 6455  34.908   4.310  12.853
34031W        W 6456  12.423  18.398  13.325
34032W        W 6457  25.449  29.018   0.289
34033W        W 6458   2.835  40.250   1.328
34034W        W 6459  10.809  31.115  11.975
34035W        W 6460  17.813  23.024  11.242
34036W        W 6461  42.038  43.528  10.624
34037W        W 6462  20.636  22.548   4.757
34038W        W 6463   7.896  16.663  13.238
34039W        W 6464   8.285   6.227   1.418
34040W        W 6465  29.983  24.701  14.479
34041W        W 6466  31.551  15.316   2.902
34042W        W 6467  19.883  11.944   2.810
34043W        W 6468  22.497  22.082   1.745
34044W        W 6469  29.122   1.190  13.054
34045W        W 6470  27.966  33.432  13.701
34046W        W 6471  42.755  39.774   2.341
34047W        W 6472  34.986  15.034  10.908
34048W        W 6473   7.113  35.103   1.921
34049W        W 6474  17.213  30.185  13.996
34050W        W 6475  29.916  38.795  14.322
34051W        W 6476  19.165  10.757   3.621
34052W        W 6477   5.665  11.381  12.128
34053W        W 6478  30.989  21.610   3.227
34054W        W 6479   0.735  21.443   3.333
34055W        W 6480  23.153  38.796   3.336
34056W        W 6481  34.159  21.008  10.213
34057W        W 6482  36.510  25.755  13.476
34058W        W 6483   9.700  44.904  10.692
34059W        W 6484   9.692  31.016  13.160
34060W        W 6485  26.435  17.216   2.416
34061W        W 6486   1.552  34.030   1.704
34062W        W 6487  30.481   9.394   3.819
34063W        W 6488  32.080  28.906  13.848
34064W        W 6489  16.155  44.209   1.302
34065W        W 6490  22.906  41.944   1.697
34066W        W 6491  37.560  37.006   1.051
34067W        W 6492  36.401   9.680   1.380
34068W        W 6493  15.422  19.811  14.290
34069W        W 6494   1.342  24.138  13.583
34070W        W 6495  12.776  21.248   3.309
34071W        W 6496  11.889  24.790   2.323
34072W        W 6497  29.910   5.867  14.873
34073W        W 6498  31.114  30.630   0.075
34074W        W 6499   6.920  20.547   1.292
34075W        W 6500  22.003  27.725   1.459
34076W        W 6501  14.565  29.028   4.165
34077W        W 6502  15.602  11.689  14.388
34078W        W 6503   5.421  12.596  14.126
34079W        W 6504  30.843  44.658  13.989
34080W        W 6505  22.445  41.269   3.711
34081W        W 6506  44.378  24.642  10.702
34082W        W 6507   2.301  40.791   2.836
34083W        W 6508  36.676   9.745  12.592
34084W        W 6509  34.748  40.557   4.566
34085W        W 6510  15.170  27.984  12.869
34086W        W 6511   8.447  31.684   2.147
34087W        W 6512  23.676  18.946  10.629
34088W        W 6513  27.391   0.473   0.462
34089W        W 6514  18.059   4.478  14.282
34090W        W 6515  21.310  22.739   1.098
34091W        W 6516  32.601  34.603   1.857
34092W        W 6517  44.263  27.590  13.239
34093W        W 6518  35.458  14.769   0.910
34094W        W 6519  40.065  43.404   3.571
34095W        W 6520  23.968  30.116  12.497
34096W        W 6521   0.289   2.678   4.327
34097W        W 6522  41.601  16.983  13.665
34098W        W 6523  39.754  33.330  13.882
34099W        W 6524  20.148  18.667  12.914
34100W        W 6525   2.139  10.217   4.959
34101W        W 6526  32.465  42.933  11.576
34102W        W 6527  33.613  31.518  12.365
34103W        W 6528  39.793   4.031   0.192
34104W        W 6529  18.663   7.146   0.313
34105W        W 6530  26.584  19.197   1.732
34106W        W 6531  10.679  38.449   0.028
34107W        W 6532  23.990  25.917   3.218
34108W        W 6533  29.570   9.405  12.066
34109W        W 6534  18.196  31.031   0.343
34110W        W 6535  24.679  28.489   0.237
34111W        W 6536  15.148  28.052  13.377
34112W        W 6537  15.614  31.642  12.115
34113W        W 6538  33.071   4.631   1.621
34114W        W 6539   6.969  19.994  13.778
34115W        W 6540  40.174  31.623   1.866
34116W        W 6541  33.431  20.646  13.977
34117W        W 6542  24.739  29.254   3.269
34118W        W 6543  24.985  32.611  11.457
34119W        W 6544  18.424  28.559   5.010
34120W        W 6545  15.858   5.345  12.560
34121W        W 6546  43.512  29.372   1.959
34122W        W 6547  26.942  29.938   4.208
34123W        W 6548  12.551  17.590   4.623
34124W        W 6549   5.424  26.386  11.030
34125W        W 6550  44.227  32.507   0.482
34126W        W 6551  30.298  27.471  12.046
34127W        W 6552  26.371  27.840   1.732
34128W        W 6553  29.230  39.228   4.585
34129W        W 6554  21.823  25.906   2.694
34130W        W 6555  10.759  18.449   0.955
34131W        W 6556  36.523   8.333  12.109
34132W        W 6557  17.347  26.139  10.769
34133W        W 6558  18.253  14.777  13.759
34134W        W 6559   2.857  11.776  11.509
34135W        W 6560   2.948  20.312   3.585
34136W        W 6561  36.094  43.403  14.329
34137W        W 6562  19.367  36.044   4.244
34138W        W 6563  10.826  17.037   3.170
34139W        W 6564  36.425   5.916  12.961
34140W        W 6565  38.753  44.960   3.186
34141W        W 6566  15.655  34.999   0.237
34142W        W 6567  24.198   6.939   2.300
34143W        W 6568   6.919  42.532  10.725
34144W        W 6569  32.397  34.555  10.747
34145W        W 6570  28.231  28.247   4.494
34146W        W 6571   7.152  14.177  14.831
34147W        W 6572  37.701   0.301   1.816
34148W        W 6573  13.613  15.611   0.972
34149W        W 6574   1.317  43.398   1.190
34150W        W 6575  39.460  29.794  14.003
34151W        W 6576   8.003  40.838  13.680
34152W        W 6577  19.416   5.351  13.592
34153W        W 6578  29.592  18.282  10.514
34154W        W 6579  16.145   4.576   0.768
34155W        W 6580  16.490   5.114   2.816
34156W        W 6581  16.940  32.425  11.434
34157W        W 6582  23.309  17.066  12.838
34158W        W 6583   9.386  31.449  13.082
34159W        W 6584  18.489  27.378   2.912
34160W        W 6585  18.817  29.601   0.715
34161W        W 6586  26.556  44.006  13.496
34162W        W 6587  37.704  42.483   4.680
34163W        W 6588   5.336  34.817   0.496
34164W        W 6589   6.430  28.667  10.682
34165W        W 6590  29.540   3.886  11.133
34166W        W 6591   4.692  17.167   4.860
34167W        W 6592   9.219  18.260  12.078
34168W        W 6593  14.125  33.166   5.131
34169W        W 6594  42.104  34.341   4.618
34170W        W 6595  17.040  18.567   0.753
34171W        W 6596  16.870  18.644   1.227
34172W        W 6597   3.337  30.715   4.033
34173W        W 6598   2.872  13.849   4.555
34174W        W 6599   4.767  39.760  14.937
34175W        W 6600   8.996  24.910  13.962
34176W        W 6601  21.974  17.081  14.931
34177W        W 6602  42.138  29.068   2.287
34178W        W 6603   9.602  12.272   0.873
34179W        W 6604  22.035  13.929  10.686
34180W        W 6605   6.966  39.951   1.375
34181W        W 6606  41.357  36.174  12.026
34182W        W 6607  40.768  25.674   4.437
34183W        W 6608   5.734  11.698  10.283
34184W        W 6609  22.531  12.536   1.433
34185W        W 6610  25.618  39.189  11.160
34186W        W 6611   8.271  41.479  14.730
34187W        W 6612  42.728   7.331  11.408
34188W        W 6613   4.624  40.568   1.209
34189W        W 6614  12.566   3.669  12.360
34190W        W 6615  19.664  13.039   2.193
34191W        W 6616  27.569  14.288  13.473
34192W        W 6617   8.275   3.327   2.325
34193W        W 6618  26.581  40.357   0.295
34194W        W 6619  40.499  12.825   1.323
34195W        W 6620  36.935  18.261   3.270
34196W        W 6621  38.654  35.673   3.238
34197W        W 6622  26.627  29.059   4.696
34198W        W 6623   8.710  36.622  11.146
34199W        W 6624   4.459  18.597   0.380
34200W        W 6625  21.379   0.719  14.872
34201W        W 6626  15.268  43.501  11.954
34202W        W 6627  17.586   9.178   1.952
34203W        W 6628  28.692  41.964  10.829
34204W        W 6629  13.359  36.863   3.830
34205W        W 6630   9.905  35.544  12.444
34206W        W 6631  22.653   6.284   4.612
34207W        W 6632  11.281  39.463   2.932
34208W        W 6633  35.240  19.779   2.803
34209W        W 6634   9.501  41.804   0.201
34210W        W 6635  36.612   8.294   2.131
34211W        W 6636  12.643   4.473   9.408
34212W        W 6637  26.200  29.422   0.163
34213W        W 6638  17.272  36.033  11.163
34214W        W 6639  27.428  13.226  14.371
34215W        W 6640  27.073  28.403   1.216
34216W        W 6641  37.957  41.787   1.930
34217W        W 6642  23.167  16.049  13.327
34218W        W 6643  39.784  24.643  14.622
34219W        W 6644  28.685  18.381  11.597
34220W        W 6645  33.687   0.777  12.941
34221W        W 6646  42.261  41.476  13.351
34222W        W 6647  42.571  37.606   1.744
34223W        W 6648  11.719  14.429   0.714
34224W        W 6649  18.603  16.434   1.824
34225W        W 6650  26.137  24.416   2.014
34226W        W 6651  38.790   0.722  13.478
34227W        W 6652  39.632  44.863   0.963
34228W        W 6653   5.280  30.402   4.932
34229W        W 6654  15.755   6.805  14.081
34230W        W 6655  13.561  43.280  11.169
34231W        W 6656   0.401  14.849  14.230
34232W        W 6657  24.014  37.997   0.219
34233W        W 6658  27.975   1.848  14.615
34234W        W 6659  42.253  11.676   2.168
34235W        W 6660   2.237  38.811  12.388
34236W        W 6661  26.937  26.459   4.064
34237W        W 6662  27.381   1.685   1.373
34238W        W 6663  32.554  42.989  11.058
34239W        W 6664  11.667  29.630   2.255
34240W        W 6665  38.432  20.973   1.049
34241W        W 6666  38.120   9.298  10.107
34242W        W 6667  20.648  20.742   4.799
34243W        W 6668  15.711  13.319  13.344
34244W        W 6669  15.203   8.823  13.483
34245W        W 6670  20.204  38.052  12.021
34246W        W 6671  12.947  31.193  12.137
34247W        W 6672  44.907  24.580  10.789
34248W        W 6673   8.165  33.116   2.788
34249W        W 6674  14.164  41.298   0.238
34250W        W 6675  41.287  44.584   3.261
34251W        W 6676  38.978  29.674   0.816
34252W        W 6677  33.168  28.630  11.135
34253W        W 6678  21.272  21.236  11.281
34254W        W 6679   9.062   8.155  12.129
34255W        W 6680   2.364  26.777   0.850
34256W        W 6681   3.427  36.516  14.141
34257W        W 6682  17.109   4.187   1.243
34258W        W 6683  30.127  35.432  11.988
34259W        W 6684  32.950  11.201  12.708
34260W        W 6685   2.406  14.367   2.199
34261W        W 6686  11.280   0.122  13.497
34262W        W 6687  43.118  37.377   2.833
34263W        W 6688  21.886  25.210   0.428
34264W        W 6689   0.553  24.097   0.844
34265W        W 6690  39.850  28.127   1.857
34266W        W 6691  30.492  26.438   2.354
34267W        W 6692   1.747   6.999   2.760
34268W        W 6693  39.820   5.971  14.413
34269W        W 6694  37.646  21.013  11.275
34270W        W 6695  32.672   6.730   1.772
34271W        W 6696  28.560  21.459   4.097
34272W        W 6697  18.248  20.744   0.304
34273W        W 6698  29.471  12.260  10.659
34274W        W 6699   8.609   3.181  14.720
34275W        W 6700  14.686  13.831   3.579
34276W        W 6701  10.542  34.363   1.629
34277W        W 6702  14.229  23.640  14.389
34278W        W 6703  44.188   0.542   0.975
34279W        W 6704   9.298   8.452   4.102
34280W        W 6705   5.170  26.140   3.636
34281W        W 6706  12.215  14.791  14.202
34282W        W 6707  36.408  41.857  14.486
34283W        W 6708  20.220   4.139   0.360
34284W        W 6709  36.361  14.560   2.484
34285W        W 6710  13.630  32.855   1.913
34286W        W 6711  23.726  13.348   4.367
34287W        W 6712  40.280  29.024  12.867
34288W        W 6713   7.200  14.907   4.116
34289W        W 6714  33.404   2.953  11.067
34290W        W 6715   8.110   4.322   4.677
34291W        W 6716  24.260  34.277  14.410
34292W        W 6717  33.507  23.891   3.408
34293W        W 6718  35.686  29.165  13.683
34294W        W 6719  17.824   9.341  11.402
34295W        W 6720  31.209   6.889  10.308
34296W        W 6721  16.106  13.802   4.036
34297W        W 6722  31.497  27.663   4.585
34298W        W 6723  20.653   0.529  14.321
34299W        W 6724  37.194  10.329   2.809
34300W        W 6725   9.852  12.019  14.904
34301W        W 6726  10.812  35.181  13.452
34302W        W 6727  22.953  22.282   2.787
34303W        W 6728   4.772  11.895   3.135
34304W        W 6729  18.742  37.022   2.960
34305W        W 6730  21.476  15.758  14.028
34306W        W 6731  43.446  24.722   1.273
34307W        W 6732  21.686  34.953   4.623
34308W        W 6733  13.989  33.557   5.456
34309W        W 6734  30.495  26.322  11.936
34310W        W 6735  41.798  39.447   2.795
34311W        W 6736  20.626  30.918   2.620
34312W        W 6737  28.870   5.411   1.327
34313W        W 6738  37.676  10.341  12.030
34314W        W 6739  25.028  11.287  12.966
34315W        W 6740   6.925  19.754  14.925
34316W        W 6741  35.732  30.071   1.787
34317W        W 6742  44.474  16.323  11.485
34318W        W 6743  37.526  10.859   0.807
34319W        W 6744  12.151  19.283   4.315
34320W        W 6745  26.190   8.238  13.921
34321W        W 6746   8.112  31.498   3.105
34322W        W 6747  26.549   0.331   1.016
34323W        W 6748   4.395  33.667   1.498
34324W        W 6749  12.237  43.610   4.137
34325W        W 6750  27.017  30.886  11.995
34326W        W 6751  32.791  33.723  13.424
34327W        W 6752   6.979  13.231  13.370
34328W        W 6753  34.112  41.035   2.717
34329W        W 6754  39.259  29.139  12.908
34330W        W 6755  29.424  32.877  12.462
34331W        W 6756  28.473  12.582  11.994
34332W        W 6757  13.226  37.777  14.420
34333W        W 6758   9.445  27.266  13.264
34334W        W 6759  39.517   5.122   0.165
34335W        W 6760  32.345  13.646  10.632
34336W        W 6761   1.238  31.716   1.339
34337W        W 6762  37.527  35.470  13.521
34338W        W 6763   5.630  25.182   2.666
34339W        W 6764  10.174  12.378  13.402
34340W        W 6765  43.941  40.948   4.704
34341W        W 6766  44.728  16.519  12.913
34342W        W 6767  13.097  44.311  12.518
34343W        W 6768  12.642  35.692   3.760
34344W        W 6769  14.112  41.849   1.560
34345W        W 6770  41.866  35.948  10.259
34346W        W 6771  44.946  32.178   4.130
34347W        W 6772  29.637  18.280   3.802
34348W        W 6773  38.823  35.876   1.784
34349W        W 6774  42.945  16.317  12.636
34350W        W 6775   2.259  19.676   4.542
34351W        W 6776  33.993  14.065  14.749
34352W        W 6777  13.821   4.202  12.990
34353W        W 6778  17.162  15.438   0.513
34354W        W 6779  17.093  20.806   2.314
34355W        W 6780  43.411  25.206   2.251
34356W        W 6781   6.706   6.315   4.047
34357W        W 6782  20.202  24.526  14.787
34358W        W 6783  40.537  39.366  12.896
34359W        W 6784   7.099  24.789  11.148
34360W        W 6785  22.062  43.210   0.371
34361W        W 6786  37.902  11.401   1.790
34362W        W 6787   5.420  40.013  11.555
34363W        W 6788  22.739  39.758  10.791
34364W        W 6789  42.091  26.902   2.950
34365W        W 6790  26.801  44.984  13.261
34366W        W 6791   4.665  12.496   4.612
34367W        W 6792  11.679  24.705   5.419
34368W        W 6793  16.572  15.916   2.635
34369W        W 6794  29.585   4.338   3.148
34370W        W 6795  14.790   3.014  13.281
34371W        W 6796  40.242   1.299   2.348
34372W        W 6797   1.274  26.705   3.646
34373W        W 6798  29.924  44.359   0.442
34374W        W 6799  23.847   5.307   2.314
34375W        W 6800  23.100  25.988  11.804
34376W        W 6801   9.832   9.915  10.390
34377W        W 6802  29.994   3.907  12.048
34378W        W 6803  26.244  20.761  12.516
34379W        W 6804  18.237  23.440   0.747
34380W        W 6805  27.004   2.064   2.802
34381W        W 6806   6.775  20.560  10.730
34382W        W 6807  39.205  43.482  12.471
34383W        W 6808   1.792  31.632   4.587
34384W        W 6809  21.527  14.298  11.903
34385W        W 6810  18.595  12.622  14.431
34386W        W 6811   3.965  22.005   1.224
34387W        W 6812  27.564   8.423   0.423
34388W        W 6813  33.672  24.515  10.008
34389W        W 6814  15.927  39.969   4.224
34390W        W 6815  43.747  17.750   2.482
34391W        W 6816  11.505   3.371   2.854
34392W        W 6817   7.999  41.759  10.567
34393W        W 6818  44.117  10.209  12.031
34394W        W 6819  31.945  38.962   4.154
34395W        W 6820  16.575  25.120  12.135
34396W        W 6821  14.628   1.263  11.010
34397W        W 6822  11.257   8.635  12.289
34398W        W 6823  13.283  25.175   3.112
34399W        W 6824  14.303  31.383   3.877
34400W        W 6825   3.992  21.586  12.156
34401W        W 6826  32.457   8.175   2.156
34402W        W 6827  21.682  31.531  14.509
34403W        W 6828  39.926  32.388  13.546
34404W        W 6829  13.605  39.645   4.156
34405W        W 6830  11.900  20.725   0.374
34406W        W 6831   0.454  37.277   4.552
34407W        W 6832  29.908  35.060  14.302
34408W        W 6833  30.456  12.516  11.082
34409W        W 6834  13.248  13.276   2.664
34410W        W 6835  36.679   2.270   0.536
34411W        W 6836  32.102  12.177   2.129
34412W        W 6837  24.429  24.479   0.874
34413W        W 6838  23.148  43.029   0.768
34414W        W 6839  41.967  39.907  13.150
34415W        W 6840  19.218  16.808  13.383
34416W        W 6841   4.242  30.140  11.987
34417W        W 6842  28.089   5.301  11.697
34418W        W 6843  16.369  43.228   3.643
34419W        W 6844  13.198  17.228   3.492
34420W        W 6845  28.067  13.561   1.724
34421W        W 6846  36.412  33.010   0.691
34422W        W 6847   2.133  43.923  12.910
34423W        W 6848  41.835  10.729  12.381
34424W        W 6849  33.184  30.762  11.016
34425W        W 6850   3.806  37.320   9.991
34426W        W 6851  29.517   3.868  14.955
34427W        W 6852   9.451  26.408   2.179
34428W        W 6853  41.459  26.227   1.022
34429W        W 6854   9.350  41.688   1.568
34430W        W 6855  33.659  33.839   1.853
34431W        W 6856   7.928  26.230   3.341
34432W        W 6857  40.642  32.988  11.907
34433W        W 6858  18.386  24.157   9.984
34434W        W 6859  33.556  19.441  12.017
34435W        W 6860  37.902   0.930   2.086
34436W        W 6861  35.872   3.407  11.939
34437W        W 6862  10.244  39.031  12.523
34438W        W 6863  13.325   0.443   5.079
34439W        W 6864  21.132  16.766  10.258
34440W        W 6865  13.208  33.412   4.931
34441W        W 6866  41.481  20.436  14.633
34442W        W 6867  36.861  29.691   2.726
34443W        W 6868   4.506   5.322   2.822
34444W        W 6869   9.985  25.419   4.189
34445W        W 6870  14.835  17.312  12.883
34446W        W 6871  35.897   3.975   1.824
34447W        W 6872  20.200   8.712   1.757
34448W        W 6873  34.367  37.927   0.858
34449W        W 6874  42.809   5.481  11.219
34450W        W 6875   0.293  31.201   3.274
34451W        W 6876  35.414  18.142   2.309
34452W        W 6877   6.261   4.816   3.305
34453W        W 6878  28.892  16.245   0.002
34454W        W 6879  31.440  25.362   0.408
34455W        W 6880   1.834  23.537  13.459
34456W        W 6881  12.798  42.880   2.159
34457W        W 6882  21.755  42.537   4.578
34458W        W 6883   2.694   7.437   1.408
34459W        W 6884  31.651  26.428   1.755
34460W        W 6885  10.127  23.313  12.893
34461W        W 6886   8.271  22.678  14.288
34462W        W 6887  34.669  32.893   2.472
34463W        W 6888  40.453  27.478   0.348
34464W        W 6889  36.607   2.009  11.145
34465W        W 6890  13.408  19.066   3.785
34466W        W 6891  25.937  37.400   1.778
34467W        W 6892  11.277  17.778   3.408
34468W        W 6893  39.271  17.792  14.279
34469W        W 6894  39.280  16.126  10.650
34470W        W 6895  26.302  33.409   4.905
34471W        W 6896  20.382   1.846   5.011
34472W        W 6897  38.784  21.953  11.751
34473W        W 6898  44.077  44.789  11.945
34474W        W 6899   2.076   3.765  12.964
34475W        W 6900  36.027  19.608  14.852
34476W        W 6901  21.996   1.003  13.828
34477W        W 6902  42.470  22.097   0.539
34478W        W 6903  29.994  15.636  11.692
34479W        W 6904  20.255  24.650  10.940
34480W        W 6905  31.833  32.877  11.679
34481W        W 6906  26.943  31.628  13.435
34482W        W 6907   0.898  13.052   0.017
34483W        W 6908   0.845  20.077  13.807
34484W        W 6909   2.299  25.576   4.612
34485W        W 6910   9.002  25.538  10.611
34486W        W 6911  15.691   1.741   3.527
34487W        W 6912  28.560  36.165   1.833
34488W        W 6913   9.273  19.948  13.408
34489W        W 6914  28.352  29.056   0.462
34490W        W 6915  18.811  35.744  12.661
34491W        W 6916  14.397  12.126  13.395
34492W        W 6917  16.988  38.532  12.089
34493W        W 6918  11.021  18.869  12.875
34494W        W 6919   1.910   0.292  12.164
34495W        W 6920  26.939  12.616  12.353
34496W        W 6921   9.540   0.315   2.826
34497W        W 6922  36.558  39.328  12.775
34498W        W 6923   3.861  16.734  11.432
34499W        W 6924  34.174  34.047  13.394
34500W        W 6925  36.641  42.925   0.475
34501W        W 6926  25.846  22.630  12.900
34502W        W 6927  33.162  37.512   2.850
34503W        W 6928  38.870  42.726  13.537
34504W        W 6929  13.749  37.577  11.591
34505W        W 6930  29.436  41.116   0.266
34506W        W 6931  22.880  24.513  11.687
34507W        W 6932  22.733   4.750   3.763
34508W        W 6933  38.985  38.377  11.078
34509W        W 6934  38.248  36.885  10.750
34510W        W 6935  34.642   4.863  13.938
34511W        W 6936  14.510  37.205   1.393
34512W        W 6937   1.344  39.050   0.819
34513W        W 6938  37.005   5.378  13.398
34514W        W 6939  16.437  42.817  11.032
34515W        W 6940  24.394   1.510   3.319
34516W        W 6941   7.699  39.322  14.341
34517W        W 6942  28.170  22.590   1.645
34518W        W 6943  16.807  43.754  14.005
34519W        W 6944   5.181  15.048  14.480
34520W        W 6945  22.159  12.862  10.416
34521W        W 6946   8.145   4.435  11.004
34522W        W 6947  29.550   4.894   0.090
34523W        W 6948  27.569  14.655  14.432
34524W        W 6949  42.141  41.036   2.184
34525W        W 6950  15.664  39.565   2.321
34526W        W 6951  41.256  18.690  14.440
34527W        W 6952   0.527  30.399   3.692
34528W        W 6953  16.607  17.178   0.712
34529W        W 6954  10.349  43.221  13.564
34530W        W 6955  36.325   7.698   1.659
34531W        W 6956  14.631  18.818   3.578
34532W        W 6957  41.786  30.096   3.162
34533W        W 6958  13.065  28.886   4.080
34534W        W 6959  39.291  10.285   2.691
34535W        W 6960  18.267  11.384  11.144
34536W        W 6961  42.481   8.195  10.894
34537W        W 6962  24.132  26.052   0.921
34538W        W 6963   4.274  27.294   0.156
34539W        W 6964  11.070  44.563   2.302
34540W        W 6965  27.122  40.481   1.017
34541W        W 6966  26.055  12.679   4.983
34542W        W 6967  42.197  19.756  11.206
34543W        W 6968  34.592  10.633  11.421
34544W        W 6969  40.511  42.458  11.123
34545W        W 6970  23.967   3.258   1.767
34546W        W 6971  19.815  11.229  13.792
34547W        W 6972  10.119  20.620   1.791
34548W        W 6973  38.440  33.525  14.399
34549W        W 6974  28.486  10.716  11.026
34550W        W 6975  39.034   2.336  14.575
34551W        W 6976  13.305  36.364   1.371
34552W        W 6977  26.732  33.000  13.487
34553W        W 6978   1.368   1.329  12.258
34554W        W 6979  10.385  13.084  10.701
34555W        W 6980   2.842   7.643   4.114
34556W        W 6981  43.796  17.084   0.766
34557W        W 6982  13.025  43.400  11.189
34558W        W 6983   3.842  11.697   1.422
34559W        W 6984   4.185  42.968  13.389
34560W        W 6985  31.475   7.400   0.498
34561W        W 6986  26.614  14.314   2.624
34562W        W 6987  12.855  38.101  11.281
34563W        W 6988  10.674  34.373   4.534
34564W        W 6989  37.683  35.944   3.205
34565W        W 6990  31.080  41.351  14.384
34566W        W 6991   6.948  31.694  13.784
34567W        W 6992  41.746  22.319   5.475
34568W        W 6993  32.637  36.553  13.468
34569W        W 6994  39.586  31.598   4.566
34570W        W 6995  28.989  33.184  12.569
34571W        W 6996  26.202  39.397   4.142
34572W        W 6997  28.080  40.237  10.858
34573W        W 6998  27.391   8.386   1.300
34574W        W 6999   4.198  19.534  13.442
34575W        W 7000  14.329  17.301   5.045
34576W        W 7001  12.287  36.066   3.321
34577W        W 7002  35.427  11.207  10.716
34578W        W 7003  30.350  15.411  11.074
34579W        W 7004  33.892  34.581   0.747
34580W        W 7005  20.423  36.313  12.479
34581W        W 7006  42.296  28.210   4.780
34582W        W 7007  41.630  28.934   2.234
34583W        W 7008  42.096   8.792  10.379
34584W        W 7009  29.597   2.921   1.964
34585W        W 7010  30.906   5.489   1.414
34586W        W 7011  37.276   0.002  12.298
34587W        W 7012  39.617  12.151   2.411
34588W        W 7013   5.190  18.767  14.941
34589W        W 7014  13.972   7.638   2.344
34590W        W 7015   7.642  28.228   4.526
34591W        W 7016  25.724  39.110  12.354
34592W        W 7017  44.259  19.994   1.415
34593W        W 7018   8.174  26.389   3.835
34594W        W 7019  44.915   6.179  10.721
34595W        W 7020   3.552  23.519  11.593
34596W        W 7021  18.119   1.945   3.924
34597W        W 7022  27.658   9.397   1.409
34598W        W 7023  15.658  21.640   1.914
34599W        W 7024  27.028  19.663  14.740
34600W        W 7025  27.150  18.396  12.953
34601W        W 7026  19.848  30.125   2.830
34602W        W 7027  10.284   0.169   5.111
34603W        W 7028  38.981  41.842  10.568
34604W        W 7029  40.629   5.374   4.319
34605W        W 7030  25.927   5.447   0.612
34606W        W 7031  36.983  37.287  11.896
34607W        W 7032   8.750  18.153   3.767
34608W        W 7033  44.526  18.350  12.005
34609W        W 7034  26.684  32.082  13.445
34610W        W 7035  40.625  42.922  14.034
34611W        W 7036  10.676  42.960  12.870
34612W        W 7037   6.207  32.334   3.099
34613W        W 7038  22.026  33.118  12.555
34614W        W 7039  34.202  14.322   2.668
34615W        W 7040  11.270  23.595   4.126
34616W        W 7041  30.894  29.391  10.610
34617W        W 7042  12.140  40.518  12.326
34618W        W 7043  24.746   6.307  14.836
34619W        W 7044   5.838  21.225  14.431
34620W        W 7045  13.846   9.174   4.512
34621W        W 7046  23.682   7.438  11.574
34622W        W 7047  19.194  42.933  10.472
34623W        W 7048   1.639  30.102   0.238
34624W        W 7049  38.285   2.740   1.368
34625W        W 7050  12.880   4.620   3.368
34626W        W 7051   8.887  19.998   3.665
34627W        W 7052   2.349   9.607  13.836
34628W        W 7053  17.123  32.062  12.658
34629W        W 7054  40.568  39.365   3.457
34630W        W 7055  39.969  14.573   2.172
34631W        W 7056  10.247  37.429  11.468
34632W        W 7057   7.880  15.744   2.136
34633W        W 7058  41.747   2.510  14.311
34634W        W 7059  25.391   3.934  12.071
34635W        W 7060  35.845  36.500   2.414
34636W        W 7061   9.339  16.251  13.777
34637W        W 7062  21.175  23.528  11.970
34638W        W 7063  40.919  15.269  14.327
34639W        W 7064  20.778  21.527  11.901
34640W        W 7065  35.887  44.379  11.578
34641W        W 7066   4.276  21.617   4.357
34642W        W 7067  42.496  23.637  13.462
34643W        W 7068  25.454  16.590   0.796
34644W        W 7069  38.575  36.299   4.868
34645W        W 7070  31.606  15.718   1.997
34646W        W 7071  34.493  25.223   1.626
34647W        W 7072  10.166  26.588  11.815
34648W        W 7073  22.109  14.185   3.255
34649W        W 7074  34.462   2.531   4.878
34650W        W 7075   6.189  35.037  12.899
34651W        W 7076   8.822  11.635   4.226
34652W        W 7077  23.701  36.443   0.818
34653W        W 7078  41.923  10.134  13.515
34654W        W 7079  35.727  22.283   0.231
34655W        W 7080  35.557  24.035   4.576
34656W        W 7081  15.197  10.661  11.579
34657W        W 7082  21.526  20.102  12.061
34658W        W 7083  16.658   4.012  12.902
34659W        W 7084  22.243  42.795   3.619
34660W        W 7085  19.808  11.032   0.253
34661W        W 7086  16.357  27.080  12.782
34662W        W 7087  38.494  35.933  11.010
34663W        W 7088  25.004   2.380  14.481
34664W        W 7089  11.852   0.444   3.198
34665W        W 7090  23.031  11.367  11.717
34666W        W 7091   4.804  21.074  14.947
34667W        W 7092   6.394  24.002   3.674
34668W        W 7093  38.639  44.759   0.626
34669W        W 7094  36.426  32.403  12.192
34670W        W 7095  38.108   5.919  14.093
34671W        W 7096  26.520  40.772  12.952
34672W        W 7097  44.164   5.698  11.207
34673W        W 7098  25.985  21.287   0.939
34674W        W 7099  42.130  12.684  11.480
34675W        W 7100   3.966  16.780   0.417
34676W        W 7101  25.742  30.592   2.285
34677W        W 7102  42.337  28.181   2.101
34678W        W 7103  38.029  18.636   0.790
34679W        W 7104  20.812   8.786   5.097
34680W        W 7105  29.128  12.043  11.368
34681W        W 7106  41.096   4.421   4.315
34682W        W 7107   2.906  25.484  14.751
34683W        W 7108  24.210  32.219  10.500
34684W        W 7109  32.919  37.754  12.562
34685W        W 7110  36.281   2.788   1.315
34686W        W 7111  10.723   2.805  13.789
34687W        W 7112   7.376  27.873  11.378
34688W        W 7113  44.187   2.158   3.811
34689W        W 7114   9.056  17.118  13.364
34690W        W 7115   6.374   8.635  12.420
34691W        W 7116  30.307   9.322  10.703
34692W        W 7117  21.174  31.776   9.943
34693W        W 7118  28.088   3.674   0.476
34694W        W 7119  27.746  29.016  10.286
34695W        W 7120  15.588  36.115  11.117
34696W        W 7121  21.445  25.210   3.680
34697W        W 7122  33.351  17.210  12.392
34698W        W 7123  44.573  33.802   0.904
34699W        W 7124   8.941  36.340  10.557
34700W        W 7125  30.136  32.161  10.746
34701W        W 7126  35.125   8.983   9.771
34702W        W 7127  39.362  26.866   1.764
34703W        W 7128  39.601  34.074  13.059
34704W        W 7129  32.879  39.979  13.852
34705W        W 7130  44.984  38.018  11.714
34706W        W 7131   4.408  15.945  10.930
34707W        W 7132  35.497  14.851  13.444
34708W        W 7133  15.249   7.104   0.432
34709W        W 7134  37.258  40.187   1.333
34710W        W 7135  27.262   2.774  13.518
34711W        W 7136  22.863  11.218  10.425
34712W        W 7137  38.663   0.787   0.823
34713W        W 7138  14.221   1.948   1.262
34714W        W 7139  27.086  12.628  14.920
34715W        W 7140  17.648  19.553  13.009
34716W        W 7141  39.983   7.175   3.149
34717W        W 7142  17.709   8.957  14.061
34718W        W 7143   6.419  14.762  11.934
34719W        W 7144  34.907  39.440  14.840
34720W        W 7145  31.201  22.728   1.076
34721W        W 7146  40.477  20.106   2.773
34722W        W 7147   8.678  30.029   4.928
34723W        W 7148   9.588   3.990   3.299
34724W        W 7149   2.527   3.779   0.724
34725W        W 7150   9.675   6.032   0.465
34726W        W 7151  36.930  26.962   3.201
34727W        W 7152  19.163  37.799   4.670
34728W        W 7153  40.115  40.510  12.777
34729W        W 7154  44.014  38.874  12.388
34730W        W 7155  18.136  17.142   4.907
34731W        W 7156  24.568  35.082  11.550
34732W        W 7157  16.588   7.642   1.850
34733W        W 7158  25.039  32.067   3.373
34734W        W 7159  35.230  28.974   2.626
34735W        W 7160   9.742  10.778   1.965
34736W        W 7161  41.990  23.340   5.443
34737W        W 7162  15.251  38.334  14.336
34738W        W 7163   7.275  20.061  13.380
34739W        W 7164   6.135  28.075  14.460
34740W        W 7165  21.604  28.239   2.341
34741W        W 7166  42.934  42.047  11.124
34742W        W 7167   5.771   9.913  10.659
34743W        W 7168   7.650  29.229  14.507
34744W        W 7169   9.945   6.098  12.887
34745W        W 7170  29.575  42.361  11.509
34746W        W 7171   3.894  38.915   9.836
34747W        W 7172   7.647  29.651  13.012
34748W        W 7173  31.340  23.590  14.519
34749W        W 7174  41.372   0.996  14.005
34750W        W 7175  21.050  17.233   3.465
34751W        W 7176  38.784  37.936   1.886
34752W        W 7177   9.187  29.878  14.930
34753W        W 7178  33.025   1.389  13.080
34754W        W 7179  28.200  31.347   4.012
34755W        W 7180   0.031   9.705   3.144
34756W        W 7181  44.035  11.620   1.840
34757W        W 7182   7.348  40.485  10.469
34758W        W 7183  42.013  37.805   3.671
34759W        W 7184  38.088  32.147  13.071
34760W        W 7185  26.686   4.700  13.870
34761W        W 7186  40.798  14.831   3.748
34762W        W 7187  40.638   9.606  11.171
34763W        W 7188  12.256  24.776   1.205
34764W        W 7189   2.774  34.470  11.893
34765W        W 7190  39.534  15.563   3.135
34766W        W 7191  10.737  28.174  10.647
34767W        W 7192   3.397  29.646   2.321
34768W        W 7193  39.254   0.970  13.491
34769W        W 7194  44.420  23.725  14.496
34770W        W 7195   4.850  12.865   1.761
34771W        W 7196  19.810  27.880  13.510
34772W        W 7197  38.617  19.692   5.152
34773W        W 7198  34.318  23.634   4.162
34774W        W 7199  43.848   5.329  11.418
34775W        W 7200   6.022  14.084   0.458
34776W        W 7201  30.185   9.201  14.936
34777W        W 7202  42.043   7.107  13.057
34778W        W 7203  22.928  41.778  13.354
34779W        W 7204  28.139  25.436  14.020
34780W        W 7205   3.765   3.406  11.963
34781W        W 7206  27.944   1.225   3.756
34782W        W 7207  41.843  37.335   3.182
34783W        W 7208  15.634  19.518   1.265
34784W        W 7209  43.555  39.573  14.376
34785W        W 7210   8.791  13.293   1.149
34786W        W 7211  31.473  39.325  10.466
34787W        W 7212   3.989  13.786  14.846
34788W        W 7213   9.387  13.613  12.350
34789W        W 7214  15.861  27.006   1.525
34790W        W 7215  16.779  40.719  11.008
34791W        W 7216  37.793  16.691  11.742
34792W        W 7217  12.096  35.602   3.525
34793W        W 7218  44.305   5.610   4.121
34794W        W 7219  27.184  15.560   0.355
34795W        W 7220  38.102   9.245   4.099
34796W        W 7221  38.540   8.786   1.228
34797W        W 7222   7.775  32.338   3.186
34798W        W 7223  40.146  24.870  14.893
34799W        W 7224  28.589  23.116   2.317
34800W        W 7225  43.800  39.338  13.035
34801W        W 7226  34.536  12.121   2.239
34802W        W 7227  25.000  13.105  11.108
34803W        W 7228  31.162  43.305   2.209
34804W        W 7229   1.680  10.194  12.347
34805W        W 7230  43.571  20.797   0.886
34806W        W 7231  32.120   4.666   4.205
34807W        W 7232  15.111  34.654   1.869
34808W        W 7233  32.432  17.677   2.623
34809W        W 7234  44.369  11.730  14.419
34810W        W 7235   7.756  12.669   2.976
34811W        W 7236  33.504   3.397   4.650
34812W        W 7237  37.507  31.910   1.275
34813W        W 7238  18.720  38.495  11.165
34814W        W 7239  34.904   8.323  13.881
34815W        W 7240  11.876  35.392  11.189
34816W        W 7241  31.635  38.778  14.650
34817W        W 7242  11.755   6.642   2.720
34818W        W 7243  39.998  44.994   3.743
34819W        W 7244  12.679  27.575  12.056
34820W        W 7245  23.650  18.855   3.739
34821W        W 7246  33.888   4.688   1.805
34822W        W 7247  39.383  40.871  12.518
34823W        W 7248  41.347  41.837  13.625
34824W        W 7249  26.587   5.950   1.229
34825W        W 7250   0.936  23.852   4.353
34826W        W 7251  36.604  40.300   4.142
34827W        W 7252  37.788  16.700   1.383
34828W        W 7253  34.499   3.717  10.330
34829W        W 7254  41.359  32.097  14.890
34830W        W 7255  43.458  20.244  11.657
34831W        W 7256  20.486  35.525  11.399
34832W        W 7257   7.400  34.911  11.610
34833W        W 7258   1.090  38.558   2.670
34834W        W 7259  18.715  27.026  11.296
34835W        W 7260  29.493   9.867  13.225
34836W        W 7261  12.037  38.022   4.242
34837W        W 7262   5.882  25.617  11.116
34838W        W 7263   3.707  26.733   0.806
34839W        W 7264  19.985  36.316  13.023
34840W        W 7265  22.569  19.658   0.188
34841W        W 7266   7.179  25.167   4.547
34842W        W 7267  20.245  15.573   3.766
34843W        W 7268  43.649   3.644  12.917
34844W        W 7269  25.922  14.715   4.189
34845W        W 7270  43.721  20.340   0.141
34846W        W 7271   5.826  31.863  11.478
34847W        W 7272   3.685  38.460  11.591
34848W        W 7273  12.128  35.204   3.162
34849W        W 7274  26.031  30.034  12.621
34850W        W 7275  36.557  30.655   0.855
34851W        W 7276  38.514  16.047  13.453
34852W        W 7277   5.963   5.175  12.593
34853W        W 7278  27.639  26.812  13.786
34854W        W 7279   4.704   4.033   2.719
34855W        W 7280  20.992  23.746  12.898
34856W        W 7281  32.442  14.101  13.272
34857W        W 7282  29.389   8.673   3.191
34858W        W 7283  17.264  11.375  14.736
34859W        W 7284   4.385  31.097   2.412
34860W        W 7285  22.814   2.012   4.513
34861W        W 7286  28.023  33.829   3.352
34862W        W 7287  17.552  40.442   0.558
34863W        W 7288  20.327  25.769  12.883
34864W        W 7289  25.238  27.017  13.587
34865W        W 7290  24.113  38.245  14.730
34866W        W 7291  35.823  42.269   3.595
34867W        W 7292  12.622  17.618  12.461
34868W        W 7293  34.658  33.994  13.681
34869W        W 7294  28.540   7.785  11.211
34870W        W 7295  11.919  22.633  11.974
34871W        W 7296   9.064  24.743  11.058
34872W        W 7297  39.847  20.295  11.203
34873W        W 7298   5.024  13.890   1.809
34874W        W 7299  33.601  18.112  10.094
34875W        W 7300  38.074  28.178   1.837
34876W        W 7301  35.353  36.900  14.795
34877W        W 7302  25.476  35.929  13.870
34878W        W 7303  19.142  20.975   4.803
34879W        W 7304   6.900  21.538  11.704
34880W        W 7305  34.053  38.380   0.733
34881W        W 7306  29.563  10.472  12.133
34882W        W 7307   8.569  12.746   3.400
34883W        W 7308  18.810  42.362   1.369
34884W        W 7309   4.262   3.762   2.822
34885W        W 7310  36.496  27.441   1.290
34886W        W 7311  33.085  22.730   2.028
34887W        W 7312   9.198  17.550   1.305
34888W        W 7313  11.022   5.633   3.972
34889W        W 7314  25.003  18.394   5.005
34890W        W 7315  36.615   7.429  12.999
34891W        W 7316   0.152  39.923  13.029
34892W        W 7317  24.757   4.886   0.246
34893W        W 7318  10.947  13.114  12.455
34894W        W 7319  40.354  24.599  12.007
34895W        W 7320  17.466  36.498  13.125
34896W        W 7321  38.787  39.374   2.191
34897W        W 7322  18.679  43.911   0.318
34898W        W 7323  17.218  44.442   2.285
34899W        W 7324   9.318  22.838  12.950
34900W        W 7325  23.466  27.878   2.747
34901W        W 7326  39.775  15.792   3.609
34902W        W 7327  15.777  21.496  14.973
34903W        W 7328  38.601  21.503   4.242
34904W        W 7329  27.270  14.598   2.430
34905W        W 7330  16.931  17.274  11.307
34906W        W 7331  44.489   8.593   0.407
34907W        W 7332  34.012  40.984   1.830
34908W        W 7333  19.170  25.997  13.500
34909W        W 7334   7.316  24.671   2.201
34910W        W 7335  32.147  35.355  13.580
34911W        W 7336  25.470  23.588  11.808
34912W        W 7337   8.449  40.482   0.330
34913W        W 7338  30.652  20.246   1.821
34914W        W 7339  39.377  18.258  14.654
34915W        W 7340  13.278  17.291   1.359
34916W        W 7341   9.285  15.813  14.040
34917W        W 7342  17.331  44.558  13.029
34918W        W 7343  13.809  34.411   0.951
34919W        W 7344  40.010  27.183  10.730
34920W        W 7345  39.357  32.175   1.121
34921W        W 7346  22.709  14.206  12.582
34922W        W 7347  18.945  32.085   0.016
34923W        W 7348   3.969  13.098   4.332
34924W        W 7349  31.113  25.279  14.083
34925W        W 7350  33.402  16.795   2.247
34926W        W 7351  44.985  15.407  11.667
34927W        W 7352   6.342  12.438   3.073
34928W        W 7353  33.999  12.212   4.038
34929W        W 7354   0.723  26.150   3.644
34930W        W 7355  39.127  11.201  11.598
34931W        W 7356  21.799  26.350   1.260
34932W        W 7357  21.712  13.175  12.563
34933W        W 7358  19.626  33.449   3.190
34934W        W 7359  22.580   9.635  14.505
34935W        W 7360  27.771   6.519  14.264
34936W        W 7361   0.184  11.272  12.058
34937W        W 7362  40.275  19.013   0.437
34938W        W 7363   3.731   0.539  13.443
34939W        W 7364   1.434  20.664  14.945
34940W        W 7365  21.486  19.611  11.389
34941W        W 7366  44.723  16.857   1.325
34942W        W 7367  28.644  13.835  13.040
34943W        W 7368  35.269   0.775   1.593
34944W        W 7369  40.821  11.768   0.075
34945W        W 7370  44.804  20.813   4.996
34946W        W 7371   4.903   0.904   3.578
34947W        W 7372  19.706  44.708  14.158
34948W        W 7373  21.218  26.142  10.551
34949W        W 7374  36.318  35.333  14.553
34950W        W 7375  10.957  13.094   4.344
34951W        W 7376   9.628   9.797  13.438
34952W        W 7377  37.131   4.925   5.145
34953W        W 7378  37.256  28.223   2.728
34954W        W 7379  29.506  37.807  11.172
34955W        W 7380  24.616  11.837   1.161
34956W        W 7381   3.645  25.668  14.175
34957W        W 7382  15.116  20.034  11.475
34958W        W 7383  34.265  36.058   1.058
34959W        W 7384   3.878  27.684  10.872
34960W        W 7385   7.733  21.270   4.106
34961W        W 7386  17.517  42.745   1.169
34962W        W 7387  25.635  32.202   0.706
34963W        W 7388  27.760  41.186  11.699
34964W        W 7389  15.862  43.879   3.677
34965W        W 7390   6.899  44.848   1.370
34966W        W 7391   2.723  29.610  14.109
34967W        W 7392  10.759   8.385  14.926
34968W        W 7393  37.556  24.115  13.778
34969W        W 7394  22.471   9.332  12.115
34970W        W 7395  28.656   2.473  14.934
34971W        W 7396   4.301  14.161  12.954
34972W        W 7397  40.821  20.001   3.168
34973W        W 7398  20.258  12.335   1.876
34974W        W 7399  12.784  40.558  11.239
34975W        W 7400  25.203   7.182   1.726
34976W        W 7401  36.053  23.073  13.372
34977W        W 7402  14.926  41.051  13.701
34978W        W 7403  28.643   0.803   3.159
34979W        W 7404  30.235  18.416  11.889
34980W        W 7405  44.362  19.731   0.504
34981W        W 7406  26.686   1.454  12.485
34982W        W 7407  23.269  12.691  11.765
34983W        W 7408  19.176  16.841  11.099
34984W        W 7409   9.375  36.575  10.718
34985W        W 7410   0.900  43.509  14.294
34986W        W 7411  28.645  42.488  12.515
34987W        W 7412   5.157  43.536  12.568
34988W        W 7413  11.883  33.094  10.329
34989W        W 7414  36.514  39.874  12.374
34990W        W 7415  20.105  10.615  10.988
34991W        W 7416   3.464   8.792  10.263
34992W        W 7417   9.371  26.107  12.470
34993W        W 7418  21.202   9.443  14.931
34994W        W 7419  14.793  34.997   3.376
34995W        W 7420   8.834  24.147   3.355
34996W        W 7421  25.567  14.069   2.370
34997W        W 7422  18.292  40.023   1.766
34998W        W 7423  19.608  41.446  14.986
34999W        W 7424  29.724  16.625  11.791
35000W        W 7425  22.897  11.060   5.138
35001W        W 7426   9.882  23.159   3.339
35002W        W 7427   9.117  26.442  13.120
35003W        W 7428  23.614  36.368   3.146
35004W        W 7429  32.551   8.708   0.748
35005W        W 7430  13.140  42.037   3.256
35006W        W 7431  12.550   1.799  10.613
35007W        W 7432  23.516  31.204  14.812
35008W        W 7433  15.813  35.079  10.436
35009W        W 7434  31.176  17.783  11.611
35010W        W 7435  18.490  25.416  12.359
35011W        W 7436  37.425  44.210  14.936
35012W        W 7437  28.597  42.796  14.980
35013W        W 7438  38.711  18.068  11.553
35014W        W 7439  23.707  29.531   0.343
35015W        W 7440  15.351  23.386   1.397
35016W        W 7441   1.282   2.131  14.382
35017W        W 7442  36.360   3.198   2.750
35018W        W 7443  10.258  22.783  14.480
35019W        W 7444  36.843  33.150   0.393
35020W        W 7445   9.921  11.249   2.160
35021W        W 7446  32.505   7.735   1.692
35022W        W 7447   5.747  43.992  11.944
35023W        W 7448   5.800  34.070   3.667
35024W        W 7449  17.490  29.387  13.407
35025W        W 7450  42.805   2.924  12.010
35026W        W 7451  24.159   7.804  12.148
35027W        W 7452  22.722   1.492   4.553
35028W        W 7453  29.967  44.725   4.623
35029W        W 7454   2.412  36.839   1.714
35030W        W 7455  43.761  16.373   4.258
35031W        W 7456   6.466   8.211   3.075
35032W        W 7457  38.781   3.930   3.320
35033W        W 7458  28.188  30.498  11.472
35034W        W 7459  40.984  12.587  11.144
35035W        W 7460   4.256  41.626   1.896
35036W        W 7461   3.164  24.603  12.944
35037W        W 7462  31.379  11.803  14.036
35038W        W 7463  39.507  23.167   1.199
35039W        W 7464  30.000  26.243   3.252
35040W        W 7465  16.245  32.445   2.936
35041W        W 7466  28.916  25.105  11.876
35042W        W 7467  22.609  20.999   1.543
35043W        W 7468  27.048   3.868   1.356
35044W        W 7469   3.469  20.493   1.650
35045W        W 7470   7.490   5.867  14.027
35046W        W 7471  14.356  11.663   4.227
35047W        W 7472  22.764  27.894   2.899
35048W        W 7473  12.496  23.116  13.275
35049W        W 7474  38.375  44.925  11.419
35050W        W 7475   6.264  23.441   2.817
35051W        W 7476  38.045  35.981  12.988
35052W        W 7477  40.143  26.559   5.058
35053W        W 7478  35.446  37.981  11.810
35054W        W 7479  40.807  12.443   3.794
35055W        W 7480  26.449  36.442   4.570
35056W        W 7481  12.258  26.429  12.697
35057W        W 7482  31.478  28.621   4.951
35058W        W 7483   6.340  18.612  11.094
35059W        W 7484  21.327   8.906   0.944
35060W        W 7485  25.730  40.434   4.210
35061W        W 7486   1.462  21.746  11.475
35062W        W 7487  44.884  22.514   2.900
35063W        W 7488  15.651  41.054  14.361
35064W        W 7489  41.901   2.084  11.543
35065W        W 7490  16.715  40.115   3.297
35066W        W 7491   6.410  16.832  11.040
35067W        W 7492  31.419  15.231   1.499
35068W        W 7493  20.226   1.385  11.855
35069W        W 7494   7.970   5.884   2.511
35070W        W 7495   7.420  37.859  11.651
35071W        W 7496  42.827  13.299  14.612
35072W        W 7497  29.042  32.309  13.267
35073W        W 7498  37.209  34.165   1.520
35074W        W 7499  33.165  20.314   0.852
35075W        W 7500   5.367  33.936   2.931
35076W        W 7501  29.438  39.953  13.936
35077W        W 7502  26.220  27.166  12.796
35078W        W 7503  26.575  42.584  11.232
35079W        W 7504  21.218  30.069   2.001
35080W        W 7505   9.963  18.126  10.903
35081W        W 7506   6.002  42.522   4.154
35082W        W 7507  21.711  32.070   1.286
35083W        W 7508  29.986  25.695  14.962
35084W        W 7509  34.601  21.228   1.349
35085W        W 7510  11.804   6.312   4.118
35086W        W 7511  18.492  41.832  12.872
35087W        W 7512  18.398  39.081  13.416
35088W        W 7513  39.315  33.941  12.607
35089W        W 7514  43.368  40.922   4.453
35090W        W 7515  26.175   8.168   0.813
35091W        W 7516  44.604  25.527   3.351
35092W        W 7517  37.887  40.715  12.512
35093W        W 7518  16.701  38.430  13.734
35094W        W 7519  23.316  41.679   0.343
35095W        W 7520  28.318  14.829  13.883
35096W        W 7521   8.731  40.912  14.761
35097W        W 7522  42.919   2.031   2.892
35098W        W 7523   8.313  44.382   3.883
35099W        W 7524   0.057  19.458  14.767
35100W        W 7525  41.658  24.438  11.627
35101W        W 7526   6.764  10.628   4.435
35102W        W 7527  16.132   2.344   1.541
35103W        W 7528  26.930  42.407   3.853
35104W        W 7529  30.468  18.419   4.235
35105W        W 7530  22.135  18.238  13.787
35106W        W 7531  37.548   2.950  11.151
35107W        W 7532  24.188  24.455   3.281
35108W        W 7533  34.000  23.636   3.594
35109W        W 7534  28.735  37.075  13.325
35110W        W 7535  41.050  12.297   0.818
35111W        W 7536   8.373  10.684  10.009
35112W        W 7537  20.755  25.452   3.615
35113W        W 7538  29.794  30.457  12.134
35114W        W 7539   5.607  25.602  11.550
35115W        W 7540  42.900  19.341  10.732
35116W        W 7541  18.770  43.934   4.701
35117W        W 7542  18.033  24.616   0.986
35118W        W 7543   0.633  44.926   2.756
35119W        W 7544  24.727   2.052  13.093
35120W        W 7545  38.826   8.392   2.811
35121W        W 7546  34.477  36.889  14.787
35122W        W 7547  21.298  17.009  12.141
35123W        W 7548   7.224  13.177  12.013
35124W        W 7549   8.542  11.358   3.916
35125W        W 7550   1.720  31.120   2.961
35126W        W 7551  27.629  13.601  13.008
35127W        W 7552  21.255   0.802  14.392
35128W        W 7553  39.995  24.953   1.770
35129W        W 7554  23.381   7.754  12.334
35130W        W 7555   9.261   3.020   1.321
35131W        W 7556  41.104  15.716  14.182
35132W        W 7557   0.408   3.340   1.029
35133W        W 7558  19.723  29.987   1.487
35134W        W 7559   1.229   4.674  13.154
35135W        W 7560  34.175  12.892   1.952
35136W        W 7561  23.683  11.946   4.771
35137W        W 7562  32.454  30.658   0.458
35138W        W 7563  18.783   1.349   4.244
35139W        W 7564  28.692  27.544   2.826
35140W        W 7565  21.704  44.276   4.169
35141W        W 7566  44.411  19.513   3.235
35142W        W 7567  10.661  21.280   4.641
35143W        W 7568  31.961   0.684   3.034
35144W        W 7569  30.598   9.160   1.290
35145W        W 7570  31.869  22.835   4.424
35146W        W 7571  11.312  30.551  12.417
35147W        W 7572  16.687  25.434  11.115
35148W        W 7573  36.613  36.337  14.852
35149W        W 7574  13.264  16.659  12.562
35150W        W 7575  44.842  24.510  12.156
35151W        W 7576  40.584  17.079  14.494
35152W        W 7577  39.591  40.495   1.789
35153W        W 7578  36.183  39.773  13.540
35154W        W 7579  17.572  36.840   2.196
35155W        W 7580  36.940  13.597   0.498
35156W        W 7581  33.411  12.477   0.128
35157W        W 7582  14.865  31.706  14.397
35158W        W 7583  43.291   2.673  13.085
35159W        W 7584   6.273  19.703   0.767
35160W        W 7585  15.858   2.710  11.344
35161W        W 7586  29.383  23.018  12.838
35162W        W 7587   1.091  20.148   4.032
35163W        W 7588  23.509  30.952  14.369
35164W        W 7589  18.988  13.828  11.668
35165W        W 7590  19.552  22.196   4.324
35166W        W 7591  39.884  42.024   2.646
35167W        W 7592  10.772  38.961  11.455
35168W        W 7593  44.345  42.598  12.698
35169W        W 7594  23.924   7.438  13.076
35170W        W 7595   8.307  20.300   1.713
35171W        W 7596  22.980  13.289   2.700
35172W        W 7597   3.677  42.972   3.376
35173W        W 7598  44.836   6.673  10.711
35174W        W 7599   0.794   0.781  11.565
35175W        W 7600  39.078   7.239  11.659
35176W        W 7601  27.576  33.350  12.780
35177W        W 7602   3.775  10.324   0.412
35178W        W 7603  12.575  28.035  12.959
35179W        W 7604  23.825  35.882   2.235
35180W        W 7605  24.730  28.718  12.089
35181W        W 7606  12.230  43.670  13.370
35182W        W 7607  16.243  34.051  13.966
35183W        W 7608  10.394  26.344   1.294
35184W        W 7609  27.449   8.214  12.939
35185W        W 7610  44.332  13.104   1.753
35186W        W 7611  32.018  11.692   1.370
35187W        W 7612   4.116  34.602  11.560
35188W        W 7613  19.668   3.335  11.395
35189W        W 7614  41.079  21.031   1.969
35190W        W 7615  18.902  11.822   4.660
35191W        W 7616   5.446  38.423  11.961
35192W        W 7617  27.448   3.470   4.762
35193W        W 7618  18.132  26.717   3.819
35194W        W 7619  25.661  30.498   1.265
35195W        W 7620  16.780  28.650  11.198
35196W        W 7621   5.975   5.856  14.355
35197W        W 7622  12.646  21.216  14.778
35198W        W 7623  18.690  20.038  13.368
35199W        W 7624  21.525  24.974   2.719
35200W        W 7625  20.237  33.266   0.536
35201W        W 7626  28.990  16.651   0.337
35202W        W 7627  38.104  11.882   1.904
35203W        W 7628  22.022   4.624   2.327
35204W        W 7629  29.808  23.705  14.444
35205W        W 7630  14.348  20.021   4.863
35206W        W 7631   5.614   1.258   0.992
35207W        W 7632  41.613   5.403  13.395
35208W        W 7633  39.270   1.255  11.219
35209W        W 7634  10.770  28.588   1.097
35210W        W 7635  30.589  35.575   0.278
35211W        W 7636  28.510  22.848  14.883
35212W        W 7637  28.179  34.630  14.270
35213W        W 7638  20.900   4.008   0.820
35214W        W 7639   2.609   8.639  13.409
35215W        W 7640   0.434   5.421   2.478
35216W        W 7641   0.953  19.307   0.870
35217W        W 7642   1.714  20.243  14.011
35218W        W 7643   9.204  13.776   3.860
35219W        W 7644  14.273  26.113   3.636
35220W        W 7645  16.884  44.255   4.957
35221W        W 7646   5.933  32.039  10.122
35222W        W 7647  21.458  22.278  11.544
35223W        W 7648  39.189  15.306   0.843
35224W        W 7649  20.680  36.337   1.712
35225W        W 7650   5.633  22.693   1.842
35226W        W 7651   4.465  20.779   3.820
35227W        W 7652  15.281  26.504   2.853
35228W        W 7653  43.232  29.342   1.222
35229W        W 7654  16.022  15.241  14.949
35230W        W 7655  23.086  25.852   2.090
35231W        W 7656   8.891  39.048  11.311
35232W        W 7657  26.459  31.006  12.176
35233W        W 7658  33.893  26.892  10.413
35234W        W 7659  34.810  22.025   4.249
35235W        W 7660   6.250  33.048  12.572
35236W        W 7661  15.675   8.093  10.627
35237W        W 7662  11.048  32.107  14.961
35238W        W 7663  38.304  17.867  13.874
35239W        W 7664  31.172  33.457  11.155
35240W        W 7665  28.041   0.465   2.415
35241W        W 7666  15.335  22.206  13.442
35242W        W 7667  30.965   7.308   1.245
35243W        W 7668  43.473  40.125   2.349
35244W        W 7669  43.426  27.377  11.231
35245W        W 7670   4.661  10.095  10.751
35246W        W 7671  24.516  34.811   3.443
35247W        W 7672  35.468  27.062   2.379
35248W        W 7673  33.912   5.247   3.209
35249W        W 7674  25.302  26.062  14.508
35250W        W 7675   4.687  20.585  14.241
35251W        W 7676   4.943   4.181   0.216
35252W        W 7677  29.094  33.607   3.409
35253W        W 7678  38.923  21.973   2.543
35254W        W 7679   5.726  29.595  10.840
35255W        W 7680  21.657  23.632  11.262
35256W        W 7681  34.197  23.274   0.831
35257W        W 7682  12.014  39.775  13.448
35258W        W 7683   2.677  40.491  13.764
35259W        W 7684  18.951   3.353   0.007
35260W        W 7685  19.131  42.900   0.753
35261W        W 7686   1.020   2.327  13.303
35262W        W 7687  35.874  14.185   1.600
35263W        W 7688  21.686  17.570   4.809
35264W        W 7689  35.555  21.053  12.040
35265W        W 7690   3.633   6.841  13.699
35266W        W 7691  33.783   7.924  11.025
35267W        W 7692   5.228  14.671   3.087
35268W        W 7693  35.091   1.735   1.357
35269W        W 7694  11.843  18.949  11.719
35270W        W 7695  30.516  22.420  11.601
35271W        W 7696  40.593   1.434   5.076
35272W        W 7697  42.836   3.977  14.278
35273W        W 7698  14.822   8.163  10.668
35274W        W 7699  13.031  28.266   2.889
35275W        W 7700   1.260   6.511   0.834
35276W        W 7701  12.105  43.290  11.162
35277W        W 7702  38.361  30.040   4.596
35278W        W 7703  16.520   2.879  12.060
35279W        W 7704   7.165  24.690  14.975
35280W        W 7705  19.704  42.768  14.316
35281W        W 7706  30.149  10.877   4.501
35282W        W 7707  28.557  24.424  14.956
35283W        W 7708  30.585  44.205   2.213
35284W        W 7709  38.016  42.757  13.435
35285W        W 7710  35.923  27.998   0.695
35286W        W 7711  26.184  37.048  13.462
35287W        W 7712  20.519  28.411   3.665
35288W        W 7713  37.831  42.835  10.643
35289W        W 7714  24.776  17.142  12.366
35290W        W 7715  16.949  17.609   1.246
35291W        W 7716   1.783  30.677  12.601
35292W        W 7717  20.434  17.702  14.944
35293W        W 7718  30.194  31.524  13.979
35294W        W 7719  24.729  10.188   1.837
35295W        W 7720  36.616   4.234   1.242
35296W        W 7721  36.099  23.044  14.772
35297W        W 7722  23.585  38.926   2.471
35298W        W 7723   5.872  23.251   4.927
35299W        W 7724  11.323  39.117   4.768
35300W        W 7725  11.359  40.768  12.817
35301W        W 7726  29.163  41.078  11.637
35302W        W 7727  35.868  21.157   2.603
35303W        W 7728  10.192  34.655   3.284
35304W        W 7729  29.369  13.309  12.443
35305W        W 7730   4.661  17.268  14.567
35306W        W 7731  40.265  42.008  11.194
35307W        W 7732  18.156   7.675  10.879
35308W        W 7733   3.326  34.910   1.192
35309W        W 7734  11.788  38.871   0.080
35310W        W 7735  37.950   4.139   1.347
35311W        W 7736  23.859  12.798   4.733
35312W        W 7737  21.059  20.762  11.324
35313W        W 7738  14.202  26.450   3.197
35314W        W 7739  20.611  34.892   1.859
35315W        W 7740  44.104  25.283   1.297
35316W        W 7741   5.685  37.329  10.111
35317W        W 7742  37.594  44.120   4.518
35318W        W 7743  28.903  30.963   4.465
35319W        W 7744  12.446   4.662  13.955
35320W        W 7745  21.806  29.147  12.455
35321W        W 7746  11.432  21.311   4.051
35322W        W 7747  37.412  29.989   3.085
35323W        W 7748  13.120  43.784   1.315
35324W        W 7749  33.428  23.814  11.960
35325W        W 7750  32.119  32.901  12.112
35326W        W 7751   0.936   8.756   3.155
35327W        W 7752  19.114  22.218  12.956
35328W        W 7753   0.077   5.741   2.296
35329W        W 7754  34.148  42.424   0.668
35330W        W 7755  16.612  31.431   2.217
35331W        W 7756  33.399  14.337   1.373
35332W        W 7757  15.722  31.578   4.257
35333W        W 7758  36.475  13.609   0.775
35334W        W 7759  37.961  41.357   1.624
35335W        W 7760  25.760  19.211   4.161
35336W        W 7761  22.244  28.110   3.586
35337W        W 7762  37.001  10.308   4.963
35338W        W 7763   6.621  31.343  13.575
35339W        W 7764  37.770  16.045   0.348
35340W        W 7765  33.512   0.749  14.484
35341W        W 7766  24.156  29.495   0.062
35342W        W 7767   8.192  19.546  11.082
35343W        W 7768  33.867   5.597   2.782
35344W        W 7769   7.969  33.515  10.673
35345W        W 7770  30.261  13.228  12.189
35346W        W 7771  40.388  33.917  14.969
35347W        W 7772  36.240  29.459  10.691
35348W        W 7773  23.181  23.471   0.819
35349W        W 7774  38.409  44.033   4.123
35350W        W 7775  32.587  16.740  13.062
35351W        W 7776   1.798  23.971   3.898
35352W        W 7777  37.984  23.196   4.040
35353W        W 7778  20.645   9.383   0.419
35354W        W 7779  17.254  17.344  12.280
35355W        W 7780  16.021  34.178  10.145
35356W        W 7781  17.610  20.279  14.053
35357W        W 7782  25.552  29.522  11.978
35358W        W 7783   9.779  10.808  13.345
35359W        W 7784   7.737  18.124   2.805
35360W        W 7785  34.180  17.532  13.324
35361W        W 7786  20.275  30.083  13.377
35362W        W 7787   6.781  35.659   1.259
35363W        W 7788  13.694  12.327   1.145
35364W        W 7789   0.389  30.468  13.471
35365W        W 7790  22.078  12.284  11.138
35366W        W 7791   8.792   5.936   1.396
35367W        W 7792   6.372  40.981   9.950
35368W        W 7793  10.314  36.854  13.110
35369W        W 7794  11.661  16.637  13.988
35370W        W 7795  38.805  21.570  12.967
35371W        W 7796   2.426   8.337   3.793
35372W        W 7797   5.404  12.325  12.349
35373W        W 7798  17.991  32.418  12.487
35374W        W 7799  39.120  16.897  11.164
35375W        W 7800   8.316   1.926   1.143
35376W        W 7801   9.846  11.155   4.295
35377W        W 7802   0.819   5.992  14.593
35378W        W 7803  15.663  17.386  11.617
35379W        W 7804  44.876  39.455  14.991
35380W        W 7805   8.599  34.920   4.309
35381W        W 7806  28.445  16.065   1.787
35382W        W 7807   7.895  27.044   1.660
35383W        W 7808  43.528   3.044   1.241
35384W        W 7809  30.344  14.264   2.127
35385W        W 7810  18.135  32.936   2.419
35386W        W 7811  22.704  27.428   2.143
35387W        W 7812  28.425  21.200  10.242
35388W        W 7813   5.941  22.468  13.980
35389W        W 7814  33.409  39.687  14.705
35390W        W 7815   6.247  38.285  13.984
35391W        W 7816  27.112   6.767  12.611
35392W        W 7817  10.743  35.432   4.790
35393W        W 7818  22.141  23.632  11.044
35394W        W 7819  34.600   1.260  14.657
35395W        W 7820  21.255  32.568  14.824
35396W        W 7821  23.672  12.439  14.590
35397W        W 7822   9.906  13.737  10.898
35398W        W 7823  39.991  29.856  13.359
35399W        W 7824  38.434  12.705   4.531
35400W        W 7825   1.377  12.818   1.850
35401W        W 7826  20.404  34.389   3.639
35402W        W 7827  24.477  18.209  13.441
35403W        W 7828   6.510  39.760   1.190
35404W        W 7829  13.405   0.295   0.126
35405W        W 7830  38.886   1.255  12.930
35406W        W 7831  39.317  39.416  10.754
35407W        W 7832   6.712  21.497  14.423
35408W        W 7833  10.367  16.331   0.364
35409W        W 7834  17.688  13.778   4.742
35410W        W 7835  43.466  18.031  10.629
35411W        W 7836  14.082   5.656  12.249
35412W        W 7837  36.477  24.174  12.554
35413W        W 7838  26.120   0.905   2.679
35414W        W 7839  34.519  13.613   0.735
35415W        W 7840  35.034  10.994  13.538
35416W        W 7841  41.069  39.391  12.987
35417W        W 7842  27.051  26.874  14.911
35418W        W 7843  11.959  21.666   9.992
35419W        W 7844  18.015  25.453   1.609
35420W        W 7845   2.199  27.563   0.554
35421W        W 7846  25.708  21.052   1.304
35422W        W 7847  42.358   5.807   2.372
35423W        W 7848  26.138  41.527   0.501
35424W        W 7849  24.719  30.149   3.573
35425W        W 7850   5.316   7.755  14.115
35426W        W 7851  10.359  31.975   2.713
35427W        W 7852  40.054  31.434  14.459
35428W        W 7853  25.386  36.987   0.285
35429W        W 7854  14.549  26.274  13.238
35430W        W 7855   9.203  22.986   4.708
35431W        W 7856  15.761  16.456  13.525
35432W        W 7857   4.054  35.138   4.881
35433W        W 7858  28.232   1.490  14.274
35434W        W 7859  32.299  36.093  12.474
35435W        W 7860  18.331  25.695  10.626
35436W        W 7861   3.335   4.456  13.885
35437W        W 7862  18.685  29.882   3.682
35438W        W 7863  31.119   0.379   1.405
35439W        W 7864  37.488   2.373  14.379
35440W        W 7865  21.293   6.043   1.170
35441W        W 7866  14.721  35.295  12.695
35442W        W 7867  12.630  25.575  13.400
35443W        W 7868  27.672  42.837   3.317
35444W        W 7869  14.609  22.574   1.813
35445W        W 7870  30.206  29.534  11.442
35446W        W 7871  29.551  16.489   1.166
35447W        W 7872   4.901   1.581  13.423
35448W        W 7873  42.455  31.515   0.519
35449W        W 7874  18.675  25.151  13.662
35450W        W 7875  37.565  34.430  10.058
35451W        W 7876  18.495  15.133   0.312
35452W        W 7877  43.905   5.548   0.279
35453W        W 7878  44.685  41.950  14.841
35454W        W 7879  10.833   2.435  12.597
35455W        W 7880  12.728  33.476  13.933
35456W        W 7881  33.177  41.960  13.326
35457W        W 7882   9.735  40.415  12.274
35458W        W 7883  13.316  13.089  12.371
35459W        W 7884  23.966  10.130  12.485
35460W        W 7885  10.746  17.052  11.108
35461W        W 7886  41.522  17.363   2.774
35462W        W 7887  21.401   6.608  10.966
35463W        W 7888  39.509  41.052  12.046
35464W        W 7889  31.196  43.449   3.217
35465W        W 7890  34.313  36.556   3.805
35466W        W 7891   8.341   0.784   2.929
35467W        W 7892  14.740  40.475  11.183
35468W        W 7893  28.156   1.948   2.609
35469W        W 7894  21.281   8.308   3.358
35470W        W 7895  22.519  28.577   0.417
35471W        W 7896  21.842  41.260   3.021
35472W        W 7897  34.150  42.847   1.796
35473W        W 7898  19.027  11.141  10.790
35474W        W 7899  15.109  27.059   2.721
35475W        W 7900  29.626   5.796  11.420
35476W        W 7901  23.507   3.464  11.003
35477W        W 7902  43.950  41.727  12.966
35478W        W 7903   4.428  31.609  13.899
35479W        W 7904   5.369  20.742   3.334
35480W        W 7905  36.312  13.065   0.278
35481W        W 7906  27.614  18.104   1.288
35482W        W 7907  34.905   6.277   0.310
35483W        W 7908   7.262   8.159   1.735
35484W        W 7909  34.629  14.079  13.219
35485W        W 7910   1.775  23.931   2.354
35486W        W 7911  10.669  42.402  13.567
35487W        W 7912  11.334  33.093   4.263
35488W        W 7913  44.712   8.698   0.860
35489W        W 7914   5.284  19.638   0.468
35490W        W 7915   1.401  25.500  11.933
35491W        W 7916  40.432  42.404   0.275
35492W        W 7917  42.274  39.003   4.233
35493W        W 7918   4.940  27.481  13.461
35494W        W 7919   6.730  32.827  13.393
35495W        W 7920  23.402  41.564  13.481
35496W        W 7921  29.062   4.410  13.904
35497W        W 7922   7.366   0.204   2.199
35498W        W 7923   2.432  20.287   2.583
35499W        W 7924  24.974  35.275   2.742
35500W        W 7925  30.365  37.975   2.809
35501W        W 7926   0.488  44.875  11.014
35502W        W 7927  15.559  42.934  11.158
35503W        W 7928  24.549  17.256   0.646
35504W        W 7929  38.001  15.359   2.374
35505W        W 7930   9.078  18.812   4.633
35506W        W 7931   0.813  21.080   3.690
35507W        W 7932  30.494  16.526  14.036
35508W        W 7933  32.944   9.574  12.181
35509W        W 7934  18.035   9.901   1.718
35510W        W 7935  44.855  42.869  11.665
35511W        W 7936  21.779  29.854   4.673
35512W        W 7937   3.702   4.053  11.409
35513W        W 7938  25.002  14.169  11.115
35514W        W 7939  44.910   9.306   1.406
35515W        W 7940  35.946  24.016   2.690
35516W        W 7941  32.492   1.153  11.956
35517W        W 7942   8.420  11.717   4.686
35518W        W 7943  16.704   7.149   0.044
35519W        W 7944  32.709   4.666  13.871
35520W        W 7945   8.719  13.355   2.235
35521W        W 7946  43.918  12.846   1.208
35522W        W 7947  41.960  20.763   2.848
35523W        W 7948  24.223   7.390   9.774
35524W        W 7949  41.576  22.140   2.050
35525W        W 7950  17.782   9.379  11.924
35526W        W 7951  38.008  31.873   5.112
35527W        W 7952  22.517   2.015  12.940
35528W        W 7953  41.394  15.006  10.703
35529W        W 7954  18.551  17.635   4.227
35530W        W 7955  28.766  36.694  13.722
35531W        W 7956  11.881  44.428  11.652
35532W        W 7957   7.879  42.815  14.534
35533W        W 7958   9.738  24.179   1.619
35534W        W 7959  44.635  22.530  11.030
35535W        W 7960  25.802  25.708  11.587
35536W        W 7961  35.029   9.308   1.730
35537W        W 7962  24.752  31.563   0.358
35538W        W 7963   8.925   5.356  11.718
35539W        W 7964  28.462  38.237   4.655
35540W        W 7965  19.726  17.121  14.011
35541W        W 7966  27.759   4.918   3.264
35542W        W 7967  12.788  16.687  12.804
35543W        W 7968  15.929  28.795   2.711
35544W        W 7969  43.813  17.172   3.757
35545W        W 7970  36.900  28.684   0.413
35546W        W 7971  40.856  41.216   3.205
35547W        W 7972  19.171  18.192   0.218
35548W        W 7973  38.906  32.184   2.395
35549W        W 7974  33.160   5.603   3.684
35550W        W 7975  38.133   3.935  11.752
35551W        W 7976  26.575   9.907  13.882
35552W        W 7977  23.392  32.256  13.793
35553W        W 7978  35.392  32.006   3.156
35554W        W 7979  42.974  14.675   2.934
35555W        W 7980  44.774  42.032  11.548
35556W        W 7981   5.104   2.327  14.904
35557W        W 7982  27.199  27.484   2.743
35558W        W 7983   9.672  26.484   3.094
35559W        W 7984  14.865  10.328  11.400
35560W        W 7985  10.644  27.356   2.247
35561W        W 7986  29.177  23.806   4.341
35562W        W 7987  13.094   2.390  12.453
35563W        W 7988   1.288  31.055  14.459
35564W        W 7989  21.455  19.214  12.868
35565W        W 7990  38.147  22.676   2.609
35566W        W 7991   4.434  44.839  13.075
35567W        W 7992  15.781  18.744  12.009
35568W        W 7993  30.513  37.560   4.140
35569W        W 7994  28.606  22.437  12.416
35570W        W 7995   6.368  32.319   0.232
35571W        W 7996  11.633  18.091  12.817
35572W        W 7997  21.008  26.969   4.441
35573W        W 7998  27.194  10.675  12.038
35574W        W 7999  30.173  14.180  10.621
35575W        W 8000   5.343  15.673  11.934
35576W        W 8001  28.442  24.999  11.632
35577W        W 8002  19.831  31.456  12.009
35578W        W 8003   5.913  23.604   2.146
35579W        W 8004  25.798  33.422   5.095
35580W        W 8005  35.301   2.398   2.366
35581W        W 8006  13.661  32.188   3.291
35582W        W 8007   7.266  38.732  10.989
35583W        W 8008  16.137  14.166  14.000
35584W        W 8009  23.776  12.763   9.766
35585W        W 8010   6.380  41.339  13.829
35586W        W 8011   2.524  29.176  11.126
35587W        W 8012  11.122  29.877  11.147
35588W        W 8013  27.073  28.395   2.724
35589W        W 8014  29.711  14.279   3.271
35590W        W 8015  18.588  17.133   2.337
35591W        W 8016  40.684  26.566  13.008
35592W        W 8017  18.530  23.172   2.824
35593W        W 8018  36.317  38.491   2.742
35594W        W 8019  35.918  43.594  10.713
35595W        W 8020  42.323  26.044  13.009
35596W        W 8021  14.896   4.905   1.669
35597W        W 8022  29.172  14.569   3.714
35598W        W 8023  13.758  17.256  11.588
35599W        W 8024  42.345  39.803   1.369
35600W        W 8025  36.379  32.918   0.172
35601W        W 8026  27.963  11.593   2.018
35602W        W 8027  34.860  14.568   4.174
35603W        W 8028  38.359  32.109   0.741
35604W        W 8029  26.892   5.594   4.244
35605W        W 8030  26.674  25.427  11.296
35606W        W 8031  34.856  22.328  13.011
35607W        W 8032  39.811  29.475  14.529
35608W        W 8033  29.260  30.706   0.840
35609W        W 8034  31.640  41.848   4.669
35610W        W 8035  24.572  35.607   0.486
35611W        W 8036   8.393  22.245  11.970
35612W        W 8037  24.647  43.462  11.678
35613W        W 8038   8.156   9.368   4.399
35614W        W 8039  35.525  21.008  13.058
35615W        W 8040  35.578  38.911   2.697
35616W        W 8041  34.998  11.139  12.533
35617W        W 8042  15.997  11.559  11.931
35618W        W 8043  36.081  20.230   1.668
35619W        W 8044  16.247  12.823   3.184
35620W        W 8045   4.410  15.063   3.025
35621W        W 8046  13.173   8.468  13.961
35622W        W 8047  39.340  36.059  10.514
35623W        W 8048  41.950  29.495  14.943
35624W        W 8049  39.766  32.953   0.377
35625W        W 8050  36.480  18.913   0.266
35626W        W 8051  20.302  32.458   0.530
35627W        W 8052   8.743  27.735  11.986
35628W        W 8053   4.248   5.720  12.531
35629W        W 8054   7.124   7.250  13.119
35630W        W 8055  41.987  19.778  14.973
35631W        W 8056  15.662   7.830  13.095
35632W        W 8057  25.964  17.340   0.783
35633W        W 8058  29.620   4.725   2.006
35634W        W 8059  19.125  28.064   0.559
35635W        W 8060   8.286  35.553   0.405
35636W        W 8061  42.879   2.139   5.056
35637W        W 8062  30.466  28.424  14.914
35638W        W 8063  15.199  31.899  11.020
35639W        W 8064  36.281  21.731  13.215
35640W        W 8065  19.009  20.361  14.335
35641W        W 8066  43.344  24.186   4.160
35642W        W 8067  20.018  21.531   0.946
35643W        W 8068  38.448  13.895   2.880
35644W        W 8069  11.793  29.678  11.160
35645W        W 8070  29.514  10.671   3.341
35646W        W 8071  18.946   4.006   1.843
35647W        W 8072   2.880  33.416  13.790
35648W        W 8073   8.462   3.825   2.303
35649W        W 8074  22.323  14.918   0.341
35650W        W 8075  39.969  13.570  12.952
35651W        W 8076   2.712  26.031   1.342
35652W        W 8077  15.450   0.571  12.522
35653W        W 8078   6.818  42.629   2.945
35654W        W 8079   6.091   9.664  13.295
35655W        W 8080  39.323  30.656  14.374
35656W        W 8081  38.509  44.930  11.908
35657W        W 8082  21.818   8.865   3.605
35658W        W 8083  25.679  14.429  13.029
35659W        W 8084  37.121  29.019  13.957
35660W        W 8085  17.753  27.074   3.401
35661W        W 8086   6.132  44.302   1.354
35662W        W 8087  25.511  18.621   0.509
35663W        W 8088  26.982   5.177  13.474
35664W        W 8089  16.073  43.944  14.527
35665W        W 8090  35.884   1.801  10.745
35666W        W 8091  39.916  43.267  14.832
35667W        W 8092   1.799  14.790  12.167
35668W        W 8093  23.024   9.168  13.902
35669W        W 8094  37.397  44.923   1.160
35670W        W 8095  29.623  28.055  11.021
35671W        W 8096  30.713  35.391   1.253
35672W        W 8097  21.055  40.785   4.384
35673W        W 8098   2.914   3.809   2.113
35674W        W 8099  26.685   2.976   1.227
35675W        W 8100  23.972  44.964   4.074
35676W        W 8101  40.425  31.196   0.297
35677W        W 8102  43.902  13.528   1.806
35678W        W 8103   6.677  32.783   0.744
35679W        W 8104  25.520  38.462   3.651
35680W        W 8105   5.524  15.808   0.745
35681W        W 8106  37.470  21.467  11.179
35682W        W 8107  43.382  35.060   0.853
35683W        W 8108  20.889  35.565   3.816
35684W        W 8109   8.896  15.886  12.032
35685W        W 8110  24.634  15.117   1.144
35686W        W 8111  27.033   9.430  11.511
35687W        W 8112  22.411   9.216  14.770
35688W        W 8113   4.788  32.560   1.379
35689W        W 8114  44.250  34.515  14.424
35690W        W 8115  32.117  34.870   4.078
35691W        W 8116  20.330  41.931  13.928
35692W        W 8117  19.221  15.538  10.542
35693W        W 8118  35.002   5.440  12.470
35694W        W 8119  29.624   7.841   0.711
35695W        W 8120  22.583  23.250  13.984
35696W        W 8121  11.646   3.942   1.817
35697W        W 8122  13.244   4.508   2.521
35698W        W 8123   9.304   8.207  10.505
35699W        W 8124   3.522   8.252   1.741
35700W        W 8125  39.531  25.476  14.449
35701W        W 8126  36.312  43.744   3.676
35702W        W 8127  14.211   1.627   0.200
35703W        W 8128   3.785   1.009  10.140
35704W        W 8129  35.702   8.202   2.617
35705W        W 8130   4.891   8.731  11.531
35706W        W 8131  12.314  39.179   1.897
35707W        W 8132  11.793  21.342  11.473
35708W        W 8133  30.431  27.913  14.011
35709W        W 8134  37.555  44.733   2.065
35710W        W 8135   3.769  15.986   4.124
35711W        W 8136  28.116  26.544  13.818
35712W        W 8137   4.412   5.941  13.004
35713W        W 8138  42.015  41.364   1.811
35714W        W 8139  33.455  30.603  12.460
35715W        W 8140  11.196  23.020   3.749
35716W        W 8141  14.035  20.227   2.581
35717W        W 8142  27.458   8.944   4.104
35718W        W 8143   1.206  31.573  14.535
35719W        W 8144  26.556  37.078  12.020
35720W        W 8145  18.103   1.426   4.588
35721W        W 8146  23.581  14.774   2.863
35722W        W 8147  43.440  23.738  14.289
35723W        W 8148  13.823  24.089  13.528
35724W        W 8149  12.137  22.262  14.548
35725W        W 8150   6.776   4.262  12.089
35726W        W 8151   1.269  28.735   1.495
35727W        W 8152  39.975  33.421   0.385
35728W        W 8153  29.025   4.240  11.583
35729W        W 8154   2.319  32.104   3.128
35730W        W 8155  31.967  17.771  14.869
35731W        W 8156   1.277  33.404   0.990
35732W        W 8157  14.307   5.175  12.090
35733W        W 8158   7.732   9.106   0.273
35734W        W 8159  27.923  34.787  12.480
35735W        W 8160  14.593  21.684   4.785
35736W        W 8161  26.408  35.524   4.523
35737W        W 8162  36.277   6.919   4.537
35738W        W 8163  19.941  19.181  13.086
35739W        W 8164   6.117  16.520  12.048
35740W        W 8165  12.649  39.458  12.108
35741W        W 8166   2.976  13.329   4.457
35742W        W 8167  20.111   1.948   1.171
35743W        W 8168  12.042  15.813  10.746
35744W        W 8169  25.521   4.457   2.746
35745W        W 8170  43.791  18.237  14.910
35746W        W 8171   8.577  24.640  10.998
35747W        W 8172  36.360  27.894  10.371
35748W        W 8173  18.000  23.637   1.214
35749W        W 8174  35.614   9.110  14.442
35750W        W 8175  20.339  31.375  11.983
35751W        W 8176  23.098  17.643  13.799
35752W        W 8177  38.237  31.496   2.213
35753W        W 8178  38.216  30.349  11.626
35754W        W 8179  10.558  44.876  14.974
35755W        W 8180   0.238  23.590   4.093
35756W        W 8181  14.132  43.724  13.365
35757W        W 8182  30.769  26.099  12.643
35758W        W 8183  22.076  15.262  10.421
35759W        W 8184  25.942   0.307  11.939
35760W        W 8185  14.146  44.081  11.722
35761W        W 8186  28.319  37.358  13.078
35762W        W 8187  23.579  28.726  12.977
35763W        W 8188  23.594  44.662  13.938
35764W        W 8189  24.028  19.283  12.441
35765W        W 8190  42.577  44.913  13.004
35766W        W 8191  44.055  17.080   4.705
35767W        W 8192  15.507  32.444  14.020
35768W        W 8193  28.985  18.743  13.131
35769W        W 8194  24.350  34.382   3.203
35770W        W 8195  11.727  11.153   0.433
35771W        W 8196  27.752  44.867  11.638
35772W        W 8197  14.401  35.827  10.737
35773W        W 8198  20.291  29.733  12.970
35774W        W 8199  22.520   1.761  10.688
35775W        W 8200  22.792   9.411  11.632
35776W        W 8201  37.588  12.378  13.510
35777W        W 8202   9.491  34.792  10.994
35778W        W 8203   1.311  29.610  10.377
35779W        W 8204   0.863  41.908   2.384
35780W        W 8205  14.137   6.876  11.391
35781W        W 8206  23.531  23.225  14.006
35782W        W 8207  24.859  43.081   0.232
35783W        W 8208  11.837   9.223  13.595
35784W        W 8209   4.493  24.254  11.239
35785W        W 8210   9.918  24.633  12.821
35786W        W 8211  12.229  19.749  13.130
35787W        W 8212  40.546  10.786  12.225
35788W        W 8213  44.000  21.979   2.085
35789W        W 8214  11.875   3.191  10.209
35790W        W 8215  36.097   7.718  13.355
35791W        W 8216  10.711  28.570   4.084
35792W        W 8217  10.674   9.666  13.940
35793W        W 8218  25.497   2.760   0.789
35794W        W 8219   2.483   6.572   2.210
35795W        W 8220  11.679   6.683   4.441
35796W        W 8221  10.621  42.105  10.660
35797W        W 8222  15.519   5.178   3.439
35798W        W 8223   5.651   4.408   4.653
35799W        W 8224  28.412   1.470   1.559
35800W        W 8225  19.558   5.789   2.362
35801W        W 8226  28.568  19.182  12.019
35802W        W 8227  10.239  13.562  12.115
35803W        W 8228  18.065  13.794  13.480
35804W        W 8229  32.778  26.022   0.418
35805W        W 8230  19.214  39.375   3.113
35806W        W 8231  32.586  16.516   3.335
35807W        W 8232  21.493  23.670  14.502
35808W        W 8233  26.114   6.037  10.840
35809W        W 8234   2.728   8.153   2.737
35810W        W 8235  33.967  30.988  11.737
35811W        W 8236  12.330  14.642  11.887
35812W        W 8237  16.287  37.345  13.012
35813W        W 8238  17.226  29.694  13.745
35814W        W 8239  23.683  13.596  11.900
35815W        W 8240  18.298  44.267  12.892
35816W        W 8241  32.580  42.368   1.522
35817W        W 8242  32.403  38.077  12.557
35818W        W 8243  44.095  43.777   4.219
35819W        W 8244  35.208  22.202   0.267
35820W        W 8245   2.037   9.349  14.637
35821W        W 8246  28.145  15.536   2.876
35822W        W 8247  42.838   8.598  12.887
35823W        W 8248  15.350   7.770   1.422
35824W        W 8249  37.482  27.206  10.557
35825W        W 8250  37.084  39.916   0.276
35826W        W 8251  21.045  10.111  12.101
35827W        W 8252  16.572  11.343   2.187
35828W        W 8253   1.260   2.967   3.350
35829W        W 8254  24.526   3.246   4.158
35830W        W 8255   5.217  36.103  10.659
35831W        W 8256  34.500  20.345  14.299
35832W        W 8257  11.081  19.653   1.879
35833W        W 8258   5.622  44.420  11.634
35834W        W 8259   7.154  38.463   1.408
35835W        W 8260   0.401  44.355  10.944
35836W        W 8261  31.488  28.140   0.504
35837W        W 8262  43.764  43.366   1.252
35838W        W 8263  40.909  38.030  14.848
35839W        W 8264  11.678  34.594   5.077
35840W        W 8265  36.135  35.937  10.639
35841W        W 8266  31.175  29.498   1.220
35842W        W 8267  21.486  13.665   2.880
35843W        W 8268  25.377  39.374   1.238
35844W        W 8269  13.766   1.763   1.130
35845W        W 8270  27.779  26.510   2.717
35846W        W 8271  12.810  13.589  13.919
35847W        W 8272  25.513  30.060   1.007
35848W        W 8273  40.015  11.666  11.241
35849W        W 8274   7.816  10.281   0.979
35850W        W 8275  23.259   6.920   2.754
35851W        W 8276  36.925   8.663   4.281
35852W        W 8277  24.139  35.603   3.765
35853W        W 8278  40.299  32.846   1.781
35854W        W 8279   3.293  36.336  10.497
35855W        W 8280  34.998  16.355  13.784
35856W        W 8281  18.129  42.312   0.184
35857W        W 8282  43.957  14.788   0.327
35858W        W 8283  38.532   5.803  10.987
35859W        W 8284  21.334   6.260   2.950
35860W        W 8285  37.077  23.285   3.847
35861W        W 8286  23.003   4.926  13.485
35862W        W 8287   4.991   8.295   3.264
35863W        W 8288  25.443  43.067  13.048
35864W        W 8289  34.934  25.678   3.675
35865W        W 8290  26.522  27.669  10.683
35866W        W 8291  28.051  35.482  12.017
35867W        W 8292  35.122  18.679  11.957
35868W        W 8293  43.448  35.556   2.158
35869W        W 8294   3.897  17.467  13.805
35870W        W 8295  33.134  12.198   0.709
35871W        W 8296  37.023   2.525  12.559
35872W        W 8297   0.519   8.206  12.613
35873W        W 8298  35.621  30.057   0.001
35874W        W 8299  13.879  28.930   4.521
35875W        W 8300  27.683  33.088   0.800
35876W        W 8301  18.630  35.438  10.700
35877W        W 8302   1.463  16.704   1.376
35878W        W 8303  42.919   8.769  12.415
35879W        W 8304  39.801  42.925  11.134
35880W        W 8305  33.488  19.221   3.246
35881W        W 8306   6.307  22.570   1.265
35882W        W 8307  17.006   4.464   2.330
35883W        W 8308   4.785   4.940  14.830
35884W        W 8309  14.942  17.095  11.039
35885W        W 8310  20.192  17.797   3.165
35886W        W 8311  43.854   1.052  12.277
35887W        W 8312  12.369  13.108  10.927
35888W        W 8313   7.860   6.522   1.173
35889W        W 8314  36.025  19.321   3.324
35890W        W 8315   7.260  15.342   3.714
35891W        W 8316  35.648  10.103  11.931
35892W        W 8317  18.788  40.556   2.500
35893W        W 8318  18.045  15.241  12.080
35894W        W 8319   4.994  33.363   2.308
35895W        W 8320   9.806   1.221  13.003
35896W        W 8321   7.309  36.953  13.119
35897W        W 8322  30.910   0.784   1.044
35898W        W 8323  32.231  29.526  11.574
35899W        W 8324   6.981   6.864   1.832
35900W        W 8325  22.746  10.610   4.869
35901W        W 8326  16.713  23.102   2.359
35902W        W 8327  34.984  20.642  11.787
35903W        W 8328  15.753  30.658  14.349
35904W        W 8329   8.276  18.236   1.940
35905W        W 8330   2.270  18.675  10.704
35906W        W 8331  27.232   3.749  13.145
35907W        W 8332   1.580  37.150  11.219
35908W        W 8333  16.283  44.517   2.239
35909W        W 8334  30.571  24.122   4.883
35910W        W 8335  42.238  23.253   3.333
35911W        W 8336  18.064  24.585  14.260
35912W        W 8337  16.212  21.675  14.739
35913W        W 8338  27.115  42.430   0.033
35914W        W 8339  13.437   9.750  11.658
35915W        W 8340  11.189  17.179  11.653
35916W        W 8341  10.891   4.402   3.808
35917W        W 8342   6.710  29.008  12.527
35918W        W 8343  39.393  19.974  10.487
35919W        W 8344  34.972  31.476  12.084
35920W        W 8345  16.021   5.387   0.405
35921W        W 8346  40.054  22.541  10.878
35922W        W 8347  31.831  41.273   0.183
35923W        W 8348  25.630   7.651  13.881
35924W        W 8349  33.610  14.884  11.999
35925W        W 8350  41.325  43.088   4.483
35926W        W 8351  26.462  40.947  14.275
35927W        W 8352  19.508   1.598  11.461
35928W        W 8353  11.038   5.804  12.952
35929W        W 8354  15.728  32.322   3.099
35930W        W 8355  44.921  26.386  12.594
35931W        W 8356  19.463   5.856   0.888
35932W        W 8357  19.824  38.959   3.685
35933W        W 8358  11.624  21.739   9.601
35934W        W 8359  34.629  22.590   4.964
35935W        W 8360  30.078  25.738   3.351
35936W        W 8361   2.776  20.179   0.077
35937W        W 8362  21.780  13.313  14.467
35938W        W 8363  22.871  34.496  13.825
35939W        W 8364  10.669  33.440  14.448
35940W        W 8365  11.121   1.415  13.442
35941W        W 8366  19.505  34.367   4.375
35942W        W 8367  11.720  27.605  12.827
35943W        W 8368  11.301   0.805  12.316
35944W        W 8369   7.900  29.645  13.463
35945W        W 8370  30.656  29.925   2.746
35946W        W 8371  29.023  29.963   3.681
35947W        W 8372  10.773  43.507   1.866
35948W        W 8373  13.280  22.831  10.577
35949W        W 8374  17.818  24.268  14.864
35950W        W 8375  23.019  35.486  11.478
35951W        W 8376  21.349  10.124  10.347
35952W        W 8377   3.836   2.111  12.275
35953W        W 8378  34.341  24.113  13.421
35954W        W 8379  18.285   0.740  13.533
35955W        W 8380   0.817  16.104  14.311
35956W        W 8381   4.889  39.913  12.096
35957W        W 8382  39.770  25.934  11.156
35958W        W 8383  35.438  37.815  13.411
35959W        W 8384  44.914  16.268  14.808
35960W        W 8385  25.601  25.024  14.029
35961W        W 8386  11.327   7.383   1.886
35962W        W 8387  44.995   1.841  13.544
35963W        W 8388  39.169  33.423   1.034
35964W        W 8389  33.026   8.653   0.920
35965W        W 8390  37.339  20.741   0.416
35966W        W 8391   6.849  24.822  10.691
35967W        W 8392   7.195   9.723  10.750
35968W        W 8393  19.636  26.022  12.424
35969W        W 8394  17.292  16.289  11.191
35970W        W 8395  22.067  31.421  11.987
35971W        W 8396  11.041  24.081   4.484
35972W        W 8397  29.507  17.046   3.209
35973W        W 8398  16.156  24.873  14.105
35974W        W 8399  17.660  17.426   4.486
35975W        W 8400  34.289  20.773   0.489
35976W        W 8401  36.354   7.201  11.235
35977W        W 8402   5.072  39.411   4.316
35978W        W 8403  32.431  35.073   3.696
35979W        W 8404  34.749  43.824  11.986
35980W        W 8405  33.081  35.564  14.323
35981W        W 8406  37.394  13.699  13.136
35982W        W 8407  36.843  23.691  13.853
35983W        W 8408  19.703  42.522   4.510
35984W        W 8409  19.068  10.666   4.132
35985W        W 8410  22.632  32.829  11.419
35986W        W 8411   6.658  24.249  12.409
35987W        W 8412  25.264  27.889   4.685
35988W        W 8413  13.466   0.352  14.561
35989W        W 8414   4.944  40.816   0.853
35990W        W 8415  43.219  42.709   1.586
35991W        W 8416  10.238   6.664   3.641
35992W        W 8417  38.957  30.423   3.004
35993W        W 8418  21.383  17.665   3.435
35994W        W 8419  37.425  12.736   1.206
35995W        W 8420   0.346   5.422  14.318
35996W        W 8421  24.531  33.221  14.345
35997W        W 8422  28.923  25.539   2.979
35998W        W 8423  37.310  34.438   2.878
35999W        W 8424  22.012  28.400  11.091
36000W        W 8425   7.593   2.247  12.556
36001W        W 8426   4.708  43.921  14.673
36002W        W 8427  18.692   8.416  14.923
36003W        W 8428  37.382  44.302   3.266
36004W        W 8429   8.853  42.399  13.686
36005W        W 8430   5.830  33.859   4.133
36006W        W 8431  11.744  41.695  10.719
36007W        W 8432  35.402  25.585  10.810
36008W        W 8433   2.715  37.438   1.172
36009W        W 8434  15.830  22.085   4.130
36010W        W 8435  27.697   7.680   4.324
36011W        W 8436   4.242  10.466  11.565
36012W        W 8437  30.976  37.105  13.052
36013W        W 8438  42.310  11.191   3.347
36014W        W 8439  24.414  32.739   9.585
36015W        W 8440  41.472  19.309   0.793
36016W        W 8441  36.928  26.051   1.477
36017W        W 8442  30.474   1.716   3.232
36018W        W 8443  41.818  12.896  11.831
36019W        W 8444   4.308  14.762  12.222
36020W        W 8445   7.916  37.104  14.555
36021W        W 8446  43.418  35.556   0.749
36022W        W 8447   2.749  36.890  14.416
36023W        W 8448  23.149  28.032   3.722
36024W        W 8449  33.174  14.061   0.279
36025W        W 8450  38.281  39.078  12.672
36026W        W 8451   2.872  15.355   2.790
36027W        W 8452   9.538  40.859   0.385
36028W        W 8453  35.858  15.534  11.905
36029W        W 8454  26.190  14.547  11.116
36030W        W 8455  20.230  34.310  13.908
36031W        W 8456  43.729   8.387  12.373
36032W        W 8457  11.641   1.485  13.463
36033W        W 8458  14.385  15.054  11.939
36034W        W 8459  41.082  16.439  12.446
36035W        W 8460  28.329  35.545  10.727
36036W        W 8461  27.727  22.707   1.366
36037W        W 8462   8.143  23.016   2.841
36038W        W 8463   3.463  29.860   3.687
36039W        W 8464   9.697  23.218   4.665
36040W        W 8465  18.126  23.183  12.049
36041W        W 8466  19.717  26.323   4.603
36042W        W 8467  13.230   7.607   1.891
36043W        W 8468  25.249   8.387   2.044
36044W        W 8469  17.426  33.345   4.739
36045W        W 8470  44.298  12.211   5.146
36046W        W 8471  20.680  28.224   2.343
36047W        W 8472  20.725  23.090   2.222
36048W        W 8473  17.642  22.008   4.286
36049W        W 8474   5.270   9.137  10.493
36050W        W 8475   5.202   7.360  12.742
36051W        W 8476  22.959  33.944   3.197
36052W        W 8477  16.735  30.201   0.299
36053W        W 8478  14.676   4.461   4.405
36054W        W 8479   3.424   0.805   3.566
36055W        W 8480  24.641  22.692  13.573
36056W        W 8481   7.285  32.351  13.037
36057W        W 8482   6.083  43.320  10.395
36058W        W 8483  40.187   8.412  13.060
36059W        W 8484  38.350  33.439   2.424
36060W        W 8485  39.079   0.561   3.473
36061W        W 8486  36.547  41.334  13.730
36062W        W 8487   3.782  23.678   1.025
36063W        W 8488  14.221  10.797   2.146
36064W        W 8489  37.816  21.421  11.564
36065W        W 8490  13.424  44.255  11.215
36066W        W 8491   3.317  44.755   1.360
36067W        W 8492  13.009   0.117  14.789
36068W        W 8493  25.157  20.715  11.559
36069W        W 8494  40.982  13.396   0.430
36070W        W 8495  20.581  23.495  13.083
36071W        W 8496  39.043  38.398   2.199
36072W        W 8497  29.983  26.922   5.178
36073W        W 8498  18.074  37.449  14.773
36074W        W 8499  34.627  14.349   2.981
36075W        W 8500  32.833  24.582  10.728
36076W        W 8501  25.595  11.849   4.316
36077W        W 8502   6.700  20.053   1.243
36078W        W 8503  40.824  22.127  12.499
36079W        W 8504  13.794   0.042  12.580
36080W        W 8505  11.321  29.737   2.635
36081W        W 8506  27.956  33.097   5.112
36082W        W 8507   2.699  24.001  13.575
36083W        W 8508  19.102  32.124  12.067
36084W        W 8509  23.946  32.002   0.049
36085W        W 8510  27.663  32.313  14.341
36086W        W 8511  12.066   9.065  12.547
36087W        W 8512  41.970  32.699   0.269
36088W        W 8513  24.524   9.658  14.858
36089W        W 8514  35.203  28.454  13.881
36090W        W 8515  25.293  30.674   4.581
36091W        W 8516   4.355  16.666  11.620
36092W        W 8517  37.463   2.820  10.653
36093W        W 8518  39.901  14.446  13.399
36094W        W 8519  36.684  35.559  12.759
36095W        W 8520  25.252  40.465  14.234
36096W        W 8521  15.150   4.787  13.074
36097W        W 8522  20.263  17.742   0.725
36098W        W 8523  22.891   2.896   2.512
36099W        W 8524  44.315  43.359   5.028
36100W        W 8525  16.805  22.415   0.310
36101W        W 8526  33.881  37.091   4.124
36102W        W 8527  13.237   1.918   9.694
36103W        W 8528  21.175  34.070  14.140
36104W        W 8529  21.617  18.851  13.284
36105W        W 8530   8.483  36.567  10.609
36106W        W 8531  11.866   7.722  13.019
36107W        W 8532   3.558  33.051   0.794
36108W        W 8533   4.403  38.229   1.360
36109W        W 8534  34.168  30.191  10.767
36110W        W 8535  15.776  41.508  13.347
36111W        W 8536  37.331  39.454  14.928
36112W        W 8537  16.176   8.895  11.127
36113W        W 8538  17.288  29.648   1.239
36114W        W 8539  28.890  36.801   4.452
36115W        W 8540   4.620  30.577  13.270
36116W        W 8541  27.140  40.055  11.064
36117W        W 8542   5.444  43.488   2.382
36118W        W 8543  14.836  39.112   1.419
36119W        W 8544   7.122   6.502   0.821
36120W        W 8545  11.677  11.624  13.485
36121W        W 8546  43.923  36.929  12.503
36122W        W 8547   8.226  26.525  14.222
36123W        W 8548  13.347  29.044  11.443
36124W        W 8549  19.068  33.891  12.416
36125W        W 8550  29.405  43.329  14.375
36126W        W 8551   5.526   6.807   0.178
36127W        W 8552   5.814   4.946   1.513
36128W        W 8553   5.688  16.988  13.341
36129W        W 8554  31.932  32.018   1.808
36130W        W 8555  34.453   2.356  13.430
36131W        W 8556  35.576   3.510   1.137
36132W        W 8557  22.993  35.078  14.843
36133W        W 8558  38.867  34.063  12.348
36134W        W 8559   6.416  22.570  14.257
36135W        W 8560  44.760  12.742   1.782
36136W        W 8561   3.850  35.380   3.564
36137W        W 8562  16.485  17.000  11.248
36138W        W 8563  43.261  19.777  11.526
36139W        W 8564  40.219  20.578  14.309
36140W        W 8565  29.648  44.090  14.917
36141W        W 8566  34.662   5.352   1.030
36142W        W 8567  38.052   0.957  13.738
36143W        W 8568   9.181   0.034   2.417
36144W        W 8569  30.376   5.396   3.089
36145W        W 8570  11.335   7.759  12.500
36146W        W 8571  44.019  25.778   0.389
36147W        W 8572  44.050  16.737   2.621
36148W        W 8573  34.623   3.670  13.253
36149W        W 8574   7.602  10.451  11.620
36150W        W 8575  29.004  17.552  12.108
36151W        W 8576  43.239   9.274  14.269
36152W        W 8577  42.349  13.616  11.974
36153W        W 8578  10.862  20.469   0.137
36154W        W 8579  10.953  20.205  13.824
36155W        W 8580  18.505  25.647   4.126
36156W        W 8581  39.015   6.675   0.711
36157W        W 8582   0.417  23.724  13.542
36158W        W 8583  31.231  12.302   4.773
36159W        W 8584  43.541  10.257  10.672
36160W        W 8585   1.991  28.084  14.778
36161W        W 8586  44.359  36.490   0.752
36162W        W 8587  12.025  42.734  11.148
36163W        W 8588  21.312   0.220  12.225
36164W        W 8589  40.921  32.871   1.024
36165W        W 8590   5.188  31.347   4.555
36166W        W 8591  16.165   4.622   2.261
36167W        W 8592   0.307  34.367  13.438
36168W        W 8593  25.729  19.973   0.895
36169W        W 8594  38.378   0.839  11.499
36170W        W 8595  12.923   3.744   0.482
36171W        W 8596  37.081  44.727   3.373
36172W        W 8597  36.857  19.656   4.716
36173W        W 8598  31.649  14.556   1.245
36174W        W 8599  37.665  11.079   3.724
36175W        W 8600  35.901  32.136   0.440
36176W        W 8601  21.213   9.940   0.860
36177W        W 8602  31.223   9.788  12.273
36178W        W 8603   4.323  24.629   4.625
36179W        W 8604  36.060   8.649  12.369
36180W        W 8605  23.721  37.073   3.910
36181W        W 8606  24.754  13.238   1.233
36182W        W 8607  13.646   6.695   3.221
36183W        W 8608  35.886   1.328  11.958
36184W        W 8609  17.075   3.564   1.834
36185W        W 8610  38.334  24.226  11.919
36186W        W 8611  17.634  12.398  12.058
36187W        W 8612   8.442  28.541   3.699
36188W        W 8613   0.373  29.395  12.476
36189W        W 8614  32.852  40.312  12.437
36190W        W 8615   9.449  14.759   0.926
36191W        W 8616  11.375   7.962  13.574
36192W        W 8617  44.503   4.172   0.078
36193W        W 8618   0.485   1.528   0.728
36194W        W 8619  16.967  27.576   1.940
36195W        W 8620  34.012   3.343  12.463
36196W        W 8621  44.343   5.787   1.192
36197W        W 8622  36.904  23.205   1.405
36198W        W 8623  30.965  27.694  14.726
36199W        W 8624  36.668  21.488   2.831
36200W        W 8625  22.187  12.759  11.903
36201W        W 8626   5.403  20.281  11.224
36202W        W 8627  41.499   2.894   0.440
36203W        W 8628  20.102   4.641   0.379
36204W        W 8629  18.393   1.776   4.924
36205W        W 8630  15.291  44.035  13.551
36206W        W 8631   2.674   8.147   4.195
36207W        W 8632  25.421  13.275  13.118
36208W        W 8633  10.852   3.494  14.004
36209W        W 8634  30.958  30.395  13.459
36210W        W 8635  20.916  36.471  12.507
36211W        W 8636  37.878   5.608  11.579
36212W        W 8637   3.294  23.718   2.198
36213W        W 8638  43.958  30.402   4.240
36214W        W 8639  43.047   9.192  11.136
36215W        W 8640  24.767  24.712   1.192
36216W        W 8641  32.238  19.908   2.672
36217W        W 8642  43.472  11.773   2.937
36218W        W 8643  12.206  24.214   2.660
36219W        W 8644  10.383  17.627  13.414
36220W        W 8645  33.865  31.472  11.909
36221W        W 8646  26.316  22.508  12.697
36222W        W 8647  28.145  12.510   2.684
36223W        W 8648  31.152  18.981   4.102
36224W        W 8649  35.942   5.241   4.324
36225W        W 8650  19.924  12.219   4.494
36226W        W 8651  40.854   1.033  13.273
36227W        W 8652   3.706  35.532  10.525
36228W        W 8653  16.357  24.996  11.493
36229W        W 8654  14.527  19.824   2.278
36230W        W 8655  16.404  32.052   4.336
36231W        W 8656  40.564   3.066  14.806
36232W        W 8657   3.753   3.270  11.008
36233W        W 8658  33.018  31.509  11.549
36234W        W 8659  24.766  14.025   5.066
36235W        W 8660  44.851  34.077   4.033
36236W        W 8661  26.510  27.014  14.952
36237W        W 8662  22.748  36.628   1.729
36238W        W 8663  40.016  26.679   4.203
36239W        W 8664  23.808  43.898   4.432
36240W        W 8665  17.713  30.028  10.403
36241W        W 8666  25.346  37.612   2.783
36242W        W 8667   8.748  23.432  14.761
36243W        W 8668  13.704   4.458   2.773
36244W        W 8669  14.720   3.015   2.453
36245W        W 8670  23.490  14.193   0.302
36246W        W 8671  16.556  37.910  14.416
36247W        W 8672   5.807  43.099   0.910
36248W        W 8673  43.398  26.650   0.228
36249W        W 8674  39.453  34.054   3.340
36250W        W 8675   6.993   5.702   0.434
36251W        W 8676  13.378   1.791  13.415
36252W        W 8677  27.618  24.634  11.142
36253W        W 8678  13.403   6.674  11.162
36254W        W 8679   8.362  11.368  14.300
36255W        W 8680   1.437  21.248  10.833
36256W        W 8681  12.885  29.331   3.758
36257W        W 8682  13.238  11.163   0.973
36258W        W 8683  12.429  44.454   3.636
36259W        W 8684  22.279  26.112   1.305
36260W        W 8685   1.388  40.808  12.368
36261W        W 8686  22.243  11.366  14.320
36262W        W 8687  19.932   1.203  11.483
36263W        W 8688  22.255  18.560   2.395
36264W        W 8689  20.777   3.981   2.716
36265W        W 8690   2.154  27.679   2.386
36266W        W 8691  44.745  29.151   1.549
36267W        W 8692  14.311  36.355   3.831
36268W        W 8693  17.336   0.108   2.908
36269W        W 8694   9.602   1.048   4.180
36270W        W 8695  10.753  44.953  11.634
36271W        W 8696  27.945  43.359   2.881
36272W        W 8697   5.367  15.130   4.486
36273W        W 8698  35.532   9.735   4.267
36274W        W 8699  22.242   7.295  12.383
36275W        W 8700  41.010  22.032  14.852
36276W        W 8701  41.948   1.058   3.199
36277W        W 8702  15.407  31.180   4.284
36278W        W 8703  23.509  24.734  14.328
36279W        W 8704   8.212  40.556  14.045
36280W        W 8705  27.471   7.367  13.091
36281W        W 8706  36.452  27.778   2.255
36282W        W 8707  18.809  33.879  14.382
36283W        W 8708  29.569  28.258  13.475
36284W        W 8709  39.813  30.573   3.653
36285W        W 8710  43.066  20.367   3.257
36286W        W 8711  25.910   0.244   0.802
36287W        W 8712  19.567   0.195   1.124
36288W        W 8713  28.935   4.145   1.665
36289W        W 8714   5.283  28.697  14.561
36290W        W 8715  25.055  44.873   3.145
36291W        W 8716  20.854  27.152   2.340
36292W        W 8717  31.548  41.319   0.653
36293W        W 8718  30.682   5.659   1.865
36294W        W 8719  15.255  42.993  12.011
36295W        W 8720   7.287  35.612   0.937
36296W        W 8721  24.980  21.241  14.922
36297W        W 8722  19.278  29.264   1.471
36298W        W 8723  13.439  37.992  13.976
36299W        W 8724  44.025  14.800   4.530
36300W        W 8725  22.496  12.281  13.830
36301W        W 8726  25.363  31.837   5.507
36302W        W 8727  36.623  19.280  12.435
36303W        W 8728  38.471  43.050   1.659
36304W        W 8729  10.278  41.099  12.552
36305W        W 8730  44.330  20.825   2.781
36306W        W 8731  19.614   0.205  10.650
36307W        W 8732  21.740  35.588  12.767
36308W        W 8733  36.369  22.644  11.167
36309W        W 8734   6.164   3.442  12.061
36310W        W 8735  18.506  38.416  12.972
36311W        W 8736   7.168  27.438  11.632
36312W        W 8737  38.267  30.291   2.702
36313W        W 8738  29.463  39.460  12.836
36314W        W 8739  35.501  20.997  14.917
36315W        W 8740  24.695  34.826  13.009
36316W        W 8741  16.440  37.825  13.065
36317W        W 8742  15.618  17.327   0.877
36318W        W 8743  23.471  41.711   0.904
36319W        W 8744  25.274  10.247  13.988
36320W        W 8745   3.478  21.734   1.052
36321W        W 8746  10.938  27.002   1.979
36322W        W 8747  31.886  44.773  13.561
36323W        W 8748  17.063  40.841  14.434
36324W        W 8749  25.571  18.500  14.459
36325W        W 8750   1.702  20.708   4.618
36326W        W 8751   8.395  30.145   0.801
36327W        W 8752  25.755   6.151  11.190
36328W        W 8753  41.955  30.604   2.168
36329W        W 8754  36.945  12.129  10.879
36330W        W 8755  24.051  35.448  13.542
36331W        W 8756  35.365  17.126  10.869
36332W        W 8757  19.627   8.515  11.636
36333W        W 8758   2.660  21.995  14.472
36334W        W 8759  43.986  33.603   4.901
36335W        W 8760  44.366  24.127   4.201
36336W        W 8761  18.577  29.181  11.895
36337W        W 8762  43.189   3.829  13.032
36338W        W 8763   0.845  26.609   1.838
36339W        W 8764  32.668  26.493  12.443
36340W        W 8765  35.942  19.125   0.364
36341W        W 8766   4.593   4.339  11.140
36342W        W 8767  17.005  22.995  12.341
36343W        W 8768  15.129   3.198   2.226
36344W        W 8769  14.930  19.032  14.467
36345W        W 8770  24.160  41.980   4.458
36346W        W 8771  27.546   9.310  11.648
36347W        W 8772  31.706   3.755   2.784
36348W        W 8773  30.700  12.252   4.693
36349W        W 8774  28.600  44.064   1.428
36350W        W 8775  16.157   8.242  10.676
36351W        W 8776  22.702  20.195   3.226
36352W        W 8777   7.839  33.590   4.582
36353W        W 8778  42.269  14.606  12.399
36354W        W 8779  40.484   3.301   0.256
36355W        W 8780  21.976  31.036   4.428
36356W        W 8781   5.465  17.851  11.144
36357W        W 8782  27.138  15.882  12.967
36358W        W 8783  39.845  20.625   3.693
36359W        W 8784  31.484  16.659   2.839
36360W        W 8785  16.783   5.259  12.598
36361W        W 8786  23.543  36.387   1.309
36362W        W 8787  29.123   3.450   2.149
36363W        W 8788  11.790  24.132   3.816
36364W        W 8789  25.102  41.414  12.227
36365W        W 8790  15.823  24.037   0.339
36366W        W 8791  40.453  16.474   3.680
36367W        W 8792  33.346  16.059  12.455
36368W        W 8793  29.658   3.360   3.665
36369W        W 8794  40.068  32.948   1.313
36370W        W 8795  25.996  24.986  11.629
36371W        W 8796  28.361  19.569  14.501
36372W        W 8797  25.687   5.488  13.442
36373W        W 8798  34.386   8.374  14.016
36374W        W 8799  21.253  24.613  13.295
36375W        W 8800  17.507  24.270   2.755
36376W        W 8801  28.937   2.231   3.223
36377W        W 8802  31.113   9.675  11.783
36378W        W 8803  30.587  13.814   2.354
36379W        W 8804  34.580  35.792   4.777
36380W        W 8805  38.867   7.913   1.935
36381W        W 8806  10.202  20.923   4.702
36382W        W 8807  38.278  26.137   0.370
36383W        W 8808  24.103  16.134  13.786
36384W        W 8809  28.098  23.165  14.801
36385W        W 8810   4.511  10.302   2.332
36386W        W 8811  25.329  22.667   2.762
36387W        W 8812  15.062  14.266  12.577
36388W        W 8813  41.340  18.377  10.670
36389W        W 8814  25.910  44.325  11.190
36390W        W 8815  31.210  43.458   4.579
36391W        W 8816  32.506  36.956   2.019
36392W        W 8817  10.878   0.197  11.196
36393W        W 8818  39.536  44.280   0.479
36394W        W 8819  31.438  30.969  11.512
36395W        W 8820  15.113  39.047   3.744
36396W        W 8821   2.944  37.004   4.345
36397W        W 8822  25.970  28.939  13.042
36398W        W 8823  31.315   0.475   0.020
36399W        W 8824  39.102  42.093   0.315
36400W        W 8825  28.991  25.711   0.937
36401W        W 8826  28.461   2.874   1.978
36402W        W 8827   3.621  30.715  12.606
36403W        W 8828   7.022   5.290   3.696
36404W        W 8829  10.601  42.935  14.581
36405W        W 8830  23.552  16.753  14.538
36406W        W 8831  33.405  19.943  13.424
36407W        W 8832   5.757  13.703   1.368
36408W        W 8833  36.112  39.474  11.508
36409W        W 8834  16.145  18.354  12.083
36410W        W 8835  36.377  37.765  11.399
36411W        W 8836  14.392  38.987  12.645
36412W        W 8837  12.015  19.527   2.258
36413W        W 8838  39.611  15.830   4.534
36414W        W 8839  44.412  12.137   0.093
36415W        W 8840  18.043  11.615   3.857
36416W        W 8841  20.295  36.658   0.241
36417W        W 8842  10.810  18.081  10.713
36418W        W 8843  31.188  24.181   4.066
36419W        W 8844  43.972  37.486  11.457
36420W        W 8845  23.657  12.726   2.810
36421W        W 8846  42.440  38.634  10.612
36422W        W 8847  38.822   8.925   2.762
36423W        W 8848   4.145  28.615  14.274
36424W        W 8849  11.792  30.018   4.395
36425W        W 8850  12.404  36.668   2.739
36426W        W 8851   4.843   9.236  13.411
36427W        W 8852  38.845   9.645   4.919
36428W        W 8853  21.726   3.921  12.970
36429W        W 8854   4.336  35.447   3.343
36430W        W 8855  11.555  44.801  13.798
36431W        W 8856   2.774  12.487   3.763
36432W        W 8857  16.027   4.780  14.444
36433W        W 8858  29.484   7.679   2.973
36434W        W 8859  29.989  36.303   3.720
36435W        W 8860   4.465  20.330  12.480
36436W        W 8861  17.544  30.490  10.614
36437W        W 8862  41.836   2.772   2.298
36438W        W 8863   0.927   4.558   5.092
36439W        W 8864  26.610   6.592   4.016
36440W        W 8865  23.271   3.788   3.184
36441W        W 8866  22.640   8.954  11.829
36442W        W 8867  14.290  25.317   1.392
36443W        W 8868  44.199  28.362   4.853
36444W        W 8869  29.209  32.653   4.323
36445W        W 8870  40.030  41.398   4.185
36446W        W 8871  15.700  40.273   3.120
36447W        W 8872  11.663   4.764   0.425
36448W        W 8873  40.926  16.388   2.838
36449W        W 8874  17.189  10.459  14.555
36450W        W 8875  38.377   5.411  11.663
36451W        W 8876   4.341   2.728   4.145
36452W        W 8877   7.127   0.019   3.396
36453W        W 8878  26.885   8.913   4.099
36454W        W 8879  17.776  22.152  12.318
36455W        W 8880  43.910  31.190   1.632
36456W        W 8881   0.835  22.121  13.926
36457W        W 8882  33.698  37.975  13.851
36458W        W 8883   2.798   7.924  14.420
36459W        W 8884  33.631  26.213  14.510
36460W        W 8885  44.866   9.233  14.044
36461W        W 8886  32.381  18.793   4.891
36462W        W 8887  30.490  21.027  13.447
36463W        W 8888  39.759  42.353   4.573
36464W        W 8889   8.302  44.974  12.575
36465W        W 8890  11.195  23.186   3.274
36466W        W 8891  32.601  21.225   4.412
36467W        W 8892  38.464   3.258   3.066
36468W        W 8893  44.323  31.132   2.272
36469W        W 8894  12.180  27.140   4.708
36470W        W 8895  37.243  26.183   4.868
36471W        W 8896  13.446  43.733   1.731
36472W        W 8897  26.991  27.657   4.567
36473W        W 8898  15.556  42.154  12.056
36474W        W 8899  26.044  31.993  12.101
36475W        W 8900  16.173   5.707  12.860
36476W        W 8901   7.974  40.487  11.092
36477W        W 8902  33.922   3.470   3.749
36478W        W 8903  36.867  16.325  11.677
36479W        W 8904   6.950  30.888   4.490
36480W        W 8905  30.870   7.257  11.247
36481W        W 8906  44.439  41.583  13.085
36482W        W 8907  40.921  33.620  11.455
36483W        W 8908  11.652   3.343   1.439
36484W        W 8909  20.923  20.215   2.840
36485W        W 8910  24.159  23.691  13.892
36486W        W 8911  11.801  12.127   0.355
36487W        W 8912  27.104  42.346   4.344
36488W        W 8913   9.215  41.842  14.790
36489W        W 8914  16.041  27.094   2.436
36490W        W 8915  21.087  37.909  11.428
36491W        W 8916   8.719  40.327   4.527
36492W        W 8917   8.372  21.363  12.964
36493W        W 8918   3.007  27.640  11.583
36494W        W 8919  22.553   7.169   4.788
36495W        W 8920  27.507  16.710  11.027
36496W        W 8921  17.507  23.379   3.188
36497W        W 8922  31.531  27.010  11.919
36498W        W 8923  10.643  13.887  12.059
36499W        W 8924  15.286  42.970   4.888
36500W        W 8925  41.004  26.580   1.703
36501W        W 8926  40.021  27.361   0.803
36502W        W 8927  17.785  19.306   1.695
36503W        W 8928  22.097  22.593   0.954
36504W        W 8929  25.603  40.042   2.826
36505W        W 8930   8.689  33.043   3.732
36506W        W 8931  16.863  17.676   4.589
36507W        W 8932   6.141  23.372  14.931
36508W        W 8933   7.644   8.991  10.632
36509W        W 8934   7.770  18.467   1.883
36510W        W 8935  38.977  37.964   2.812
36511W        W 8936   3.727  13.287  13.022
36512W        W 8937   7.710  18.835   4.428
36513W        W 8938  17.032  38.872   1.405
36514W        W 8939  38.021  40.294   3.116
36515W        W 8940   8.285  16.901   4.769
36516W        W 8941  42.361  22.577   9.661
36517W        W 8942   5.061  44.573  10.678
36518W        W 8943  17.116  31.580   0.275
36519W        W 8944  33.557  31.811   1.645
36520W        W 8945  11.003  15.174  11.594
36521W        W 8946   9.853  27.449  13.583
36522W        W 8947  38.061  31.528  13.876
36523W        W 8948  25.913   1.327   2.108
36524W        W 8949   8.854  21.253   3.262
36525W        W 8950  21.593  36.395  14.765
36526W        W 8951   1.833  10.168  11.531
36527W        W 8952  29.383  29.589  12.513
36528W        W 8953  32.921  12.333  10.686
36529W        W 8954  17.138  11.736  10.108
36530W        W 8955   5.883  44.337   0.386
36531W        W 8956   0.648  34.531  13.782
36532W        W 8957   4.320  23.966  14.426
36533W        W 8958  16.494   8.710  14.888
36534W        W 8959  20.439   7.812  11.645
36535W        W 8960  28.975  20.639   1.884
36536W        W 8961  27.406  24.961   3.379
36537W        W 8962  41.579  12.123   2.161
36538W        W 8963  21.994  34.492  10.682
36539W        W 8964  14.087  37.089   0.167
36540W        W 8965  21.228  38.487   2.139
36541W        W 8966  26.096  35.613  14.907
36542W        W 8967  36.988   6.675   1.652
36543W        W 8968  44.559  24.211   4.694
36544W        W 8969  36.640  27.118  14.803
36545W        W 8970   9.923   4.579   4.129
36546W        W 8971   7.337  26.479   0.444
36547W        W 8972   6.467  25.931  10.671
36548W        W 8973  41.764  11.183   2.824
36549W        W 8974  27.707  21.538  14.759
36550W        W 8975  41.676  27.146   4.159
36551W        W 8976  22.758  43.355   4.337
36552W        W 8977  22.683  33.149   4.294
36553W        W 8978  10.629  16.765  10.576
36554W        W 8979  10.839  39.864  12.425
36555W        W 8980   4.812  44.428   1.932
36556W        W 8981  26.597  10.818  10.866
36557W        W 8982  15.103  13.433  11.093
36558W        W 8983  44.550  22.186  13.434
36559W        W 8984  28.923   4.320  14.411
36560W        W 8985  18.777  17.346   1.673
36561W        W 8986  30.535  38.029   3.762
36562W        W 8987  25.609  10.920   4.794
36563W        W 8988  21.710  10.724   0.658
36564W        W 8989  19.792  43.733   3.639
36565W        W 8990   4.441  37.464  13.782
36566W        W 8991  34.633  41.817  13.944
36567W        W 8992   2.767  27.514   1.247
36568W        W 8993  12.747   4.249  10.393
36569W        W 8994  36.438   0.741  14.368
36570W        W 8995  42.807  29.610   2.648
36571W        W 8996  10.314  14.735  14.023
36572W        W 8997  44.449   4.792  13.049
36573W        W 8998  26.508   4.431  13.442
36574W        W 8999   8.448  18.590   1.012
36575W        W 9000  23.801  33.136  14.789
36576W        W 9001  35.363  10.222  12.923
36577W        W 9002  18.251  21.879  14.359
36578W        W 9003  29.659  32.612   4.076
36579W        W 9004  11.145  20.022   2.413
36580W        W 9005   6.786  43.957   2.116
36581W        W 9006  31.851  34.432   4.259
36582W        W 9007  20.520  27.439   3.650
36583W        W 9008   9.274  20.704  11.910
36584W        W 9009  36.493  37.041   1.675
36585W        W 9010  28.940  40.716   2.588
36586W        W 9011  35.844   6.637   4.555
36587W        W 9012  12.456   9.421   1.838
36588W        W 9013  20.335  40.444  10.495
36589W        W 9014   0.756  30.585   2.364
36590W        W 9015  34.045  19.301  11.402
36591W        W 9016  33.498  35.790   4.781
36592W        W 9017   8.676  11.614  12.843
36593W        W 9018  21.708  44.150   3.651
36594W        W 9019  25.348  15.632   1.718
36595W        W 9020   1.469   0.647   3.357
36596W        W 9021  29.917  33.657  13.493
36597W        W 9022  36.042  13.615  13.009
36598W        W 9023   5.002   0.397  10.922
36599W        W 9024  24.781  42.872   3.633
36600W        W 9025  26.596  44.410  11.544
36601W        W 9026  17.687   6.766   3.559
36602W        W 9027  34.095  16.372  11.614
36603W        W 9028  40.604  15.612  11.159
36604W        W 9029   4.866  29.877  12.052
36605W        W 9030  38.282  43.343   4.419
36606W        W 9031  26.998  22.714   3.728
36607W        W 9032  32.406  32.008   1.537
36608W        W 9033  37.976  38.502  14.510
36609W        W 9034  41.852  43.352  12.542
36610W        W 9035  31.802  28.906   4.651
36611W        W 9036  31.138  41.566   0.873
36612W        W 9037  40.626  27.969  11.980
36613W        W 9038   6.736  35.921  14.869
36614W        W 9039  39.419  38.174   2.616
36615W        W 9040  31.449   5.716  14.890
36616W        W 9041   8.975   2.405   4.587
36617W        W 9042   5.589   9.547  13.474
36618W        W 9043  23.266  23.601   3.194
36619W        W 9044  36.438   7.848   0.766
36620W        W 9045  21.648  33.406  10.545
36621W        W 9046  16.979  43.069   4.215
36622W        W 9047  37.088  44.887  13.282
36623W        W 9048  17.317  36.752  13.569
36624W        W 9049  11.089  41.878   3.228
36625W        W 9050  24.385  18.225   1.758
36626W        W 9051   9.449  25.558  11.892
36627W        W 9052  10.745  20.048  14.838
36628W        W 9053  40.424   3.355  10.720
36629W        W 9054   9.262   3.840  12.680
36630W        W 9055  36.026   1.862   3.374
36631W        W 9056  40.634  13.951  10.231
36632W        W 9057  44.801  29.231   2.854
36633W        W 9058  14.219  10.340  13.834
36634W        W 9059  35.897  13.704  14.903
36635W        W 9060   8.473  42.788   2.718
36636W        W 9061   2.659  25.191   9.754
36637W        W 9062  26.958   7.813  11.656
36638W        W 9063  12.875   4.898  14.840
36639W        W 9064  12.551  42.565  10.805
36640W        W 9065  33.016  12.518   2.856
36641W        W 9066  16.528  15.686  12.373
36642W        W 9067  15.702  28.608  11.209
36643W        W 9068  28.688  19.997  14.568
36644W        W 9069  18.028  21.664   4.483
36645W        W 9070  41.938   4.953  13.370
36646W        W 9071  21.304  30.442  13.015
36647W        W 9072  17.117   1.042   2.761
36648W        W 9073   8.873   5.686  14.947
36649W        W 9074  33.916  11.139  11.753
36650W        W 9075  31.378  39.092   3.654
36651W        W 9076  12.831  21.210   4.707
36652W        W 9077  39.114  13.659  11.903
36653W        W 9078  34.815  41.074  13.490
36654W        W 9079   6.198  22.084   4.670
36655W        W 9080   7.238  31.888  13.383
36656W        W 9081  36.960  32.998  14.020
36657W        W 9082  13.264  13.125  11.853
36658W        W 9083  38.935  43.256   4.321
36659W        W 9084  41.838   3.716   0.705
36660W        W 9085   4.883   2.410   2.247
36661W        W 9086  23.577  33.795  12.920
36662W        W 9087  43.184  41.158  12.030
36663W        W 9088   2.544   8.932  10.460
36664W        W 9089  10.710  29.441   3.831
36665W        W 9090   0.953   1.652   0.047
36666W        W 9091   7.681  18.337  12.983
36667W        W 9092  42.530  13.702  10.504
36668W        W 9093  38.652  16.654   1.890
36669W        W 9094  39.836   8.907  12.224
36670W        W 9095   5.765  23.168   3.860
36671W        W 9096   9.295  33.574  11.537
36672W        W 9097  21.686  31.189  14.934
36673W        W 9098   8.153  13.503   1.724
36674W        W 9099  15.151  38.376  11.798
36675W        W 9100  18.767   2.373   2.245
36676W        W 9101  42.453  37.389  12.363
36677W        W 9102  22.121  11.987   3.146
36678W        W 9103  11.065   5.981  12.111
36679W        W 9104  22.244  36.481   1.671
36680W        W 9105  33.628  24.417  11.265
36681W        W 9106   4.318   0.770   1.823
36682W        W 9107  37.339  35.562   2.290
36683W        W 9108   9.238  22.982   3.638
36684W        W 9109  30.510  34.258  14.036
36685W        W 9110   8.848   6.347   2.166
36686W        W 9111   0.862  20.109   2.163
36687W        W 9112   0.563  19.561  14.887
36688W        W 9113   2.724  13.156   0.021
36689W        W 9114  17.103  41.975  13.890
36690W        W 9115   8.193  44.444   2.347
36691W        W 9116  20.561  11.326   3.724
36692W        W 9117  37.295  26.089  12.563
36693W        W 9118  16.063  34.048  11.622
36694W        W 9119  28.048  44.008  11.010
36695W        W 9120   5.366  17.187  13.009
36696W        W 9121  10.338   7.177   1.255
36697W        W 9122  29.671  31.848   2.882
36698W        W 9123  22.586   2.850  13.975
36699W        W 9124  31.973   5.582   4.453
36700W        W 9125   2.227  44.900  11.194
36701W        W 9126  38.469  13.694  14.376
36702W        W 9127  24.704  32.398  11.075
36703W        W 9128  30.912  43.790   0.442
36704W        W 9129  25.837  21.097   5.157
36705W        W 9130  28.792  24.016   4.106
36706W        W 9131  24.097  35.110   3.573
36707W        W 9132  25.736   3.836  13.888
36708W        W 9133  27.300  19.234  13.517
36709W        W 9134  30.083  29.716  14.767
36710W        W 9135   5.989  40.374   3.512
36711W        W 9136  42.949   4.908  11.052
36712W        W 9137  44.067  40.584  11.021
36713W        W 9138  21.820  26.485  11.175
36714W        W 9139  14.738  31.554   3.683
36715W        W 9140   3.449  28.110   2.168
36716W        W 9141  36.490  42.366  11.493
36717W        W 9142  12.224  22.672  13.339
36718W        W 9143  22.279  37.369  12.329
36719W        W 9144  31.927  17.102   0.311
36720W        W 9145  33.886   9.144   0.749
36721W        W 9146   2.319  16.538  11.003
36722W        W 9147  14.054  43.220  13.340
36723W        W 9148  16.603   7.983   2.731
36724W        W 9149  26.149  39.214   1.349
36725W        W 9150  35.457  31.704  11.089
36726W        W 9151  15.750  42.411   0.454
36727W        W 9152   1.953   8.522   3.758
36728W        W 9153  16.306   6.231  12.092
36729W        W 9154   7.494   1.097  10.765
36730W        W 9155   2.211  44.346   0.320
36731W        W 9156  32.627  35.100  12.148
36732W        W 9157  15.119  43.871   4.864
36733W        W 9158  25.725   8.430  12.539
36734W        W 9159  30.902   6.729  14.426
36735W        W 9160  36.682  37.424   0.865
36736W        W 9161  23.632  41.218   2.924
36737W        W 9162  24.045  32.933  11.763
36738W        W 9163   2.378  12.410   1.314
36739W        W 9164  31.456   7.870   0.766
36740W        W 9165  14.925  22.428  13.666
36741W        W 9166  40.067  42.036   3.529
36742W        W 9167  29.273  17.317  12.873
36743W        W 9168  28.467  10.792  12.783
36744W        W 9169  13.873  13.703   2.968
36745W        W 9170  31.630  43.500   2.164
36746W        W 9171  26.982  10.537  10.465
36747W        W 9172   5.586  28.055  12.565
36748W        W 9173  10.272   8.912   0.479
36749W        W 9174  17.612  34.322   1.385
36750W        W 9175  42.057  41.953  12.062
36751W        W 9176   1.290  21.308  11.704
36752W        W 9177   6.833  14.059  10.785
36753W        W 9178  28.902  17.615  10.919
36754W        W 9179  28.199  20.667   0.000
36755W        W 9180  11.316  11.413   4.776
36756W        W 9181  22.527  33.860  13.505
36757W        W 9182   1.762   4.806  14.723
36758W        W 9183  44.853   9.213  10.630
36759W        W 9184  24.879   8.003   1.923
36760W        W 9185  37.587  37.101  14.881
36761W        W 9186  29.803  14.184   2.056
36762W        W 9187  38.551  35.447   1.646
36763W        W 9188  43.371  31.489  14.057
36764W        W 9189  28.464  24.832  10.671
36765W        W 9190   9.398  22.802  11.334
36766W        W 9191   1.153  16.280  11.428
36767W        W 9192   3.294  27.383   4.678
36768W        W 9193   1.507  38.263   2.522
36769W        W 9194  33.115  26.611  12.758
36770W        W 9195  34.843   3.001  11.617
36771W        W 9196  30.102  40.851  14.023
36772W        W 9197  33.515   1.273   0.371
36773W        W 9198  17.584  24.576   1.335
36774W        W 9199  23.192  44.815  11.995
36775W        W 9200  12.491  22.709  11.314
36776W        W 9201  15.670  15.459  14.199
36777W        W 9202   8.812  33.494   1.787
36778W        W 9203  20.708   5.773  10.580
36779W        W 9204  20.884   5.960   3.755
36780W        W 9205  40.857  33.383  13.395
36781W        W 9206   1.318  11.123   2.265
36782W        W 9207  39.359  40.095  11.080
36783W        W 9208  32.455  10.681   4.179
36784W        W 9209  23.622  33.005  11.473
36785W        W 9210  22.865   4.953   1.920
36786W        W 9211   8.796   5.830   2.360
36787W        W 9212  44.272   0.349   4.954
36788W        W 9213  33.018  24.658  12.507
36789W        W 9214  42.398   4.408   1.843
36790W        W 9215  15.951  30.543  10.154
36791W        W 9216   9.456   9.763   0.473
36792W        W 9217  16.811  36.888  14.856
36793W        W 9218  14.116   1.226  10.154
36794W        W 9219  28.624  11.459   4.438
36795W        W 9220  13.809  31.936   3.716
36796W        W 9221  18.566  12.126  10.760
36797W        W 9222  33.776  17.914  12.070
36798W        W 9223  39.909  38.085   1.735
36799W        W 9224  41.555  19.196  11.542
36800W        W 9225   3.727  27.289  12.159
36801W        W 9226  25.642  27.295  13.431
36802W        W 9227  36.020  30.936   3.817
36803W        W 9228  32.227  27.358  12.050
36804W        W 9229   3.734  13.559   1.427
36805W        W 9230   9.248  27.908   2.155
36806W        W 9231  35.659  33.038   2.450
36807W        W 9232  35.423   8.984  10.214
36808W        W 9233  30.938  18.537   3.207
36809W        W 9234   2.875  17.089  12.427
36810W        W 9235  41.532   6.156   2.122
36811W        W 9236  27.452   1.512  13.922
36812W        W 9237  20.987  27.417  11.064
36813W        W 9238  36.571   0.683  10.770
36814W        W 9239  31.891  15.017   1.335
36815W        W 9240  15.689  32.349  11.608
36816W        W 9241   4.439  40.392  13.366
36817W        W 9242  39.060  17.796   4.096
36818W        W 9243  18.732  41.052   0.855
36819W        W 9244  23.837  12.267   0.033
36820W        W 9245   4.808  36.069   1.548
36821W        W 9246  24.673  36.377   3.034
36822W        W 9247   7.703  18.619  11.054
36823W        W 9248   6.683  26.808  13.401
36824W        W 9249  33.954  38.592  14.362
36825W        W 9250   7.310   4.705  10.776
36826W        W 9251  18.751  17.583  11.539
36827W        W 9252   0.059   2.336  13.756
36828W        W 9253  31.493   5.584   3.547
36829W        W 9254  39.948  20.087  14.099
36830W        W 9255  10.110  39.750  14.426
36831W        W 9256  33.473  36.147  13.277
36832W        W 9257  28.923  20.216   1.252
36833W        W 9258  33.422  15.524   3.589
36834W        W 9259  20.099  32.495   4.590
36835W        W 9260  15.762  29.685   4.490
36836W        W 9261   6.801  25.694  14.991
36837W        W 9262  18.113  28.087   2.457
36838W        W 9263  16.997   9.759   1.489
36839W        W 9264  17.166  23.085   2.643
36840W        W 9265  44.063  33.870  14.899
36841W        W 9266  12.223  32.160   0.789
36842W        W 9267  22.013  27.205   4.547
36843W        W 9268  31.479  19.274   0.572
36844W        W 9269  28.036  44.261  11.486
36845W        W 9270  24.580   4.017  11.491
36846W        W 9271  24.148   0.514  11.135
36847W        W 9272  25.290   4.714   1.400
36848W        W 9273  32.165  35.530   3.677
36849W        W 9274  25.283  39.866  10.671
36850W        W 9275  33.359  10.660  14.465
36851W        W 9276  44.883  32.957  14.262
36852W        W 9277  18.489   7.611  11.744
36853W        W 9278  12.892  36.293   2.736
36854W        W 9279  37.770   5.202  13.004
36855W        W 9280  28.794  30.678  11.933
36856W        W 9281  12.640  10.936  13.087
36857W        W 9282  38.895   9.641   0.769
36858W        W 9283  10.494  32.924   0.058
36859W        W 9284   1.750  27.038  14.420
36860W        W 9285  36.884  23.126   2.295
36861W        W 9286  29.602  32.949   1.060
36862W        W 9287   7.866  22.698   3.146
36863W        W 9288  16.010  10.072   4.769
36864W        W 9289  10.765   1.029   2.685
36865W        W 9290  22.321   1.922   2.843
36866W        W 9291  18.600  21.075   1.314
36867W        W 9292  43.607  30.541   3.365
36868W        W 9293  15.760  32.836  13.786
36869W        W 9294  28.738  10.810   4.207
36870W        W 9295   9.042  28.959  12.885
36871W        W 9296  25.229   5.425  14.569
36872W        W 9297  25.602  35.501   3.886
36873W        W 9298  14.250  44.770   1.630
36874W        W 9299  31.519  14.299  14.914
36875W        W 9300   5.663  11.242   0.387
36876W        W 9301  37.845  16.190   4.120
36877W        W 9302  15.241   3.919   4.682
36878W        W 9303  20.629  16.149   0.910
36879W        W 9304  41.772  32.017  14.547
36880W        W 9305  38.154   8.391  10.428
36881W        W 9306  16.322  35.438  13.484
36882W        W 9307  15.703  10.357  14.000
36883W        W 9308   8.717  27.231  12.172
36884W        W 9309   2.606  35.082  13.039
36885W        W 9310  41.373   2.386   3.497
36886W        W 9311   5.475  23.760   2.426
36887W        W 9312  38.037  15.132   1.235
36888W        W 9313  35.865  43.013   3.152
36889W        W 9314  34.864  15.102  11.921
36890W        W 9315  16.390  29.415  12.171
36891W        W 9316  23.177  27.726  14.333
36892W        W 9317  44.197  22.163   1.191
36893W        W 9318  18.023  21.996  11.510
36894W        W 9319  37.474  20.474  14.025
36895W        W 9320  42.939  25.299   1.796
36896W        W 9321  25.724  18.807  14.074
36897W        W 9322   9.708  22.767   3.611
36898W        W 9323  12.620  18.607  10.623
36899W        W 9324   3.865  28.239  14.037
36900W        W 9325   2.510  16.627  14.132
36901W        W 9326   3.398   6.146   0.250
36902W        W 9327  36.369  14.078   3.432
36903W        W 9328   3.261  21.622  10.513
36904W        W 9329  30.983   3.502  11.814
36905W        W 9330  31.124  26.264  13.916
36906W        W 9331  30.459  41.395  11.420
36907W        W 9332   3.329  39.374   1.480
36908W        W 9333   4.664  36.316   2.156
36909W        W 9334  37.524  26.425   0.174
36910W        W 9335  26.862  10.789   0.371
36911W        W 9336   2.000  10.278   0.450
36912W        W 9337  10.074   4.127  14.228
36913W        W 9338  43.167  27.211  11.637
36914W        W 9339  21.722   4.912   2.813
36915W        W 9340  35.395  25.493  14.847
36916W        W 9341  41.247  14.584   3.680
36917W        W 9342  13.127  19.385  13.966
36918W        W 9343  33.653  37.747   0.280
36919W        W 9344  25.971   6.277  14.037
36920W        W 9345  19.074  43.091   4.772
36921W        W 9346  14.030  16.022   4.310
36922W        W 9347  36.292   2.889  13.720
36923W        W 9348  22.489  14.929  11.424
36924W        W 9349  42.090  16.894  12.568
36925W        W 9350  32.188  24.503   0.374
36926W        W 9351  29.437   9.262  14.680
36927W        W 9352  35.867  34.376   1.780
36928W        W 9353  23.017  37.294  14.132
36929W        W 9354   0.573  28.846   4.016
36930W        W 9355  19.731  24.468   0.471
36931W        W 9356  15.239  21.146   2.749
36932W        W 9357  31.922  13.766   3.679
36933W        W 9358  16.187  10.553  11.443
36934W        W 9359  25.934  39.450   4.922
36935W        W 9360   7.103  12.133   0.721
36936W        W 9361  16.468  10.715  13.077
36937W        W 9362  24.269  21.160  12.859
36938W        W 9363  43.517  29.220  12.955
36939W        W 9364  31.929  30.931   3.436
36940W        W 9365   8.145   3.439  10.927
36941W        W 9366  36.407  21.259   0.773
36942W        W 9367  10.935   4.221  11.486
36943W        W 9368  28.134   2.754   0.633
36944W        W 9369  43.032  24.675  12.595
36945W        W 9370  24.728  26.973   0.783
36946W        W 9371  29.429   5.198  14.264
36947W        W 9372   7.852  34.376   0.219
36948W        W 9373  22.294  35.447  10.943
36949W        W 9374  20.208  10.220  11.646
36950W        W 9375  35.150  19.295   2.965
36951W        W 9376  29.004  17.657  14.539
36952W        W 9377  29.386  28.810  10.600
36953W        W 9378  38.139  37.378  11.531
36954W        W 9379  14.343   6.460  13.398
36955W        W 9380  40.056  26.615  13.573
36956W        W 9381  35.465  41.545  13.047
36957W        W 9382   9.043  18.202   0.518
36958W        W 9383  29.597  27.918   1.705
36959W        W 9384  18.607  28.935  12.411
36960W        W 9385  11.806  23.991   2.037
36961W        W 9386  34.838   4.840  12.939
36962W        W 9387  22.989  10.529   2.230
36963W        W 9388   8.336  10.869  14.547
36964W        W 9389   8.522  43.333   0.642
36965W        W 9390  28.504   7.197   3.704
36966W        W 9391  27.054  13.747   1.266
36967W        W 9392  23.098  12.173   3.251
36968W        W 9393  22.963   3.620   5.006
36969W        W 9394  36.120  12.818  14.548
36970W        W 9395   2.077   2.626  12.657
36971W        W 9396  29.134  39.558   0.689
36972W        W 9397  37.351  42.735  11.978
36973W        W 9398  41.452  10.937   3.251
36974W        W 9399  23.528  22.719  13.902
36975W        W 9400  33.646  18.021   3.666
36976W        W 9401  43.478  27.481  12.036
36977W        W 9402  42.328   8.864   4.767
36978W        W 9403   7.375  22.143   1.801
36979W        W 9404  35.347  44.989  12.107
36980W        W 9405  38.413  20.486   3.539
36981W        W 9406  21.589  33.901   1.904
36982W        W 9407  14.386  35.504   3.781
36983W        W 9408   5.762  15.584  13.723
36984W        W 9409  43.497  16.097  14.912
36985W        W 9410  43.001  15.240   2.221
36986W        W 9411  24.953  32.442   3.757
36987W        W 9412  30.626  41.080  14.589
36988W        W 9413  20.650  35.422   0.252
36989W        W 9414  44.756   6.661   2.036
36990W        W 9415  21.654  27.690  14.335
36991W        W 9416   5.599   7.859   0.722
36992W        W 9417  43.774   9.111  13.424
36993W        W 9418  16.691  42.448   0.497
36994W        W 9419  37.195  16.604  11.098
36995W        W 9420  10.107  17.885   2.063
36996W        W 9421  38.072   8.687  12.414
36997W        W 9422  43.138  41.360  10.177
36998W        W 9423  40.504  41.465   1.801
36999W        W 9424  11.682  23.001   1.664
37000W        W 9425  38.534  16.185   1.726
37001W        W 9426  31.489  42.926  13.895
37002W        W 9427  33.261  26.509  11.719
37003W        W 9428  29.979   3.292   1.883
37004W        W 9429  25.762  40.919  13.458
37005W        W 9430   5.762   3.328  14.015
37006W        W 9431   2.786  34.404   4.627
37007W        W 9432   9.153  37.081  14.867
37008W        W 9433   1.768  44.478  14.029
37009W        W 9434  37.549   3.934   1.592
37010W        W 9435  25.498   4.369   1.833
37011W        W 9436   2.421  41.048  14.497
37012W        W 9437  43.169  10.811   4.470
37013W        W 9438   8.861  37.104   3.559
37014W        W 9439  13.890  26.066   1.462
37015W        W 9440  33.653  30.699  14.868
37016W        W 9441  18.519  29.395   2.364
37017W        W 9442  36.929  10.801   0.976
37018W        W 9443   8.142  41.935  14.936
37019W        W 9444  11.892  31.380   0.335
37020W        W 9445  38.270  39.323  10.995
37021W        W 9446   1.203  17.815  14.727
37022W        W 9447  22.618  13.211  13.988
37023W        W 9448  16.314  28.142   1.709
37024W        W 9449  21.002  21.543  10.965
37025W        W 9450  26.616  43.316  12.467
37026W        W 9451  37.415  10.267  12.467
37027W        W 9452  34.983   2.978   9.989
37028W        W 9453  38.810   8.581  13.881
37029W        W 9454  25.009  13.423   1.810
37030W        W 9455   5.902   6.379  14.301
37031W        W 9456  25.092  24.942   0.792
37032W        W 9457  32.913  37.585  13.934
37033W        W 9458  29.619  21.852  14.308
37034W        W 9459  11.619   7.805  14.849
37035W        W 9460  26.180  16.344  14.314
37036W        W 9461   8.853  42.295  10.343
37037W        W 9462  43.759  23.202  14.617
37038W        W 9463   7.331  13.899  14.451
37039W        W 9464  16.362  11.789   1.253
37040W        W 9465  30.846  26.769   3.222
37041W        W 9466   1.038  25.949   3.219
37042W        W 9467  21.924  22.710  13.626
37043W        W 9468  35.039  38.091   1.911
37044W        W 9469  44.950  17.104   2.925
37045W        W 9470  36.499   4.548  11.598
37046W        W 9471  42.109  24.651  13.320
37047W        W 9472  22.532  17.627  12.467
37048W        W 9473  23.251  36.834   1.969
37049W        W 9474  25.717   3.388   2.804
37050W        W 9475  36.672   5.332   3.074
37051W        W 9476  24.522  13.368  11.064
37052W        W 9477  37.958  11.564  10.693
37053W        W 9478  39.426  33.738  13.897
37054W        W 9479  25.713  25.666  14.448
37055W        W 9480   9.092  44.177   0.317
37056W        W 9481  10.683   8.926  10.717
37057W        W 9482  20.609  44.269   0.013
37058W        W 9483   0.915  24.536  11.158
37059W        W 9484   6.844  26.464  14.372
37060W        W 9485   9.434  31.337   2.138
37061W        W 9486  36.665  39.086   1.735
37062W        W 9487  40.546  27.999   0.457
37063W        W 9488  18.649  12.196   2.598
37064W        W 9489   7.743  17.092  14.438
37065W        W 9490   6.994   0.934  10.724
37066W        W 9491  14.146   5.553   1.918
37067W        W 9492   9.123  33.967  13.183
37068W        W 9493  28.621  37.320   2.861
37069W        W 9494  36.966  19.514  14.798
37070W        W 9495  31.203  33.293   0.882
37071W        W 9496   6.710  19.270   0.636
37072W        W 9497   5.766   4.504   1.248
37073W        W 9498   6.357  42.270  11.216
37074W        W 9499  19.015  23.189  10.661
37075W        W 9500  43.307  36.310   3.697
37076W        W 9501   9.609  33.422  14.797
37077W        W 9502  44.528  13.805  13.495
37078W        W 9503  22.785   8.285   0.421
37079W        W 9504  11.065  17.280   3.713
37080W        W 9505  20.109  22.657   2.731
37081W        W 9506  29.945  10.455   4.263
37082W        W 9507  26.415  38.916   3.244
37083W        W 9508  28.030  34.645   0.704
37084W        W 9509  23.996  28.447  14.748
37085W        W 9510  20.802  40.880   0.756
37086W        W 9511  30.669  30.454  11.600
37087W        W 9512   7.370  18.368   1.246
37088W        W 9513   8.208  20.279  14.356
37089W        W 9514  15.622  40.767  14.788
37090W        W 9515  12.111  41.226   4.614
37091W        W 9516  32.161  41.764   4.633
37092W        W 9517  20.576   9.848  10.449
37093W        W 9518  42.258  21.482  11.439
37094W        W 9519  28.045  21.595  10.249
37095W        W 9520  24.044  25.426   2.333
37096W        W 9521  30.871   4.865   4.761
37097W        W 9522  22.761  24.037  11.522
37098W        W 9523  26.414   0.471   4.290
37099W        W 9524  27.035  38.834  13.146
37100W        W 9525  19.727  37.947  14.263
37101W        W 9526  27.417  11.814   4.117
37102W        W 9527  13.113  40.882  12.502
37103W        W 9528  25.134  33.496  13.657
37104W        W 9529  27.111  32.627  10.225
37105W        W 9530  36.424  14.364  12.113
37106W        W 9531  31.015  40.589  11.862
37107W        W 9532   3.369  25.186   4.135
37108W        W 9533  18.040  22.842  11.663
37109W        W 9534  29.092  24.945  13.776
37110W        W 9535   7.715  44.995  13.495
37111W        W 9536  16.817  23.233   3.895
37112W        W 9537  35.807   9.166   2.839
37113W        W 9538   7.856  44.223   3.620
37114W        W 9539  25.112  30.739   0.043
37115W        W 9540  41.475  24.970   1.753
37116W        W 9541  31.847  12.873  10.698
37117W        W 9542  36.550  18.740   4.582
37118W        W 9543  44.678  36.601  13.889
37119W        W 9544   0.196  15.841  14.013
37120W        W 9545  38.917  16.224  11.842
37121W        W 9546  33.034  31.321   0.070
37122W        W 9547  40.593  43.914  12.638
37123W        W 9548   5.704  27.136   0.404
37124W        W 9549   9.764  29.555   4.537
37125W        W 9550   8.874   6.120  11.239
37126W        W 9551  22.957  35.548  11.985
37127W        W 9552  43.974   0.950  13.350
37128W        W 9553   5.650   3.880  14.509
37129W        W 9554   2.607  13.778   0.241
37130W        W 9555   3.797   6.925  11.988
37131W        W 9556   8.077  12.886  12.070
37132W        W 9557   1.425  34.367   2.778
37133W        W 9558  23.096   7.415   0.840
37134W        W 9559   6.173  17.363   4.648
37135W        W 9560   9.929  14.087   0.779
37136W        W 9561  11.409  17.584  13.014
37137W        W 9562  13.596  33.375   1.862
37138W        W 9563   3.627   8.071   1.268
37139W        W 9564  36.444  10.123   3.889
37140W        W 9565  28.042  17.777   1.245
37141W        W 9566  24.865  28.483  13.655
37142W        W 9567  25.730  26.236   2.804
37143W        W 9568  20.265  31.347   0.737
37144W        W 9569  10.649  33.162   3.795
37145W        W 9570  17.194  17.725  11.501
37146W        W 9571  23.526  29.835  12.550
37147W        W 9572  17.646  16.719  14.338
37148W        W 9573  14.880   3.152   9.711
37149W        W 9574   3.932  33.858   3.609
37150W        W 9575  10.428   6.598  12.515
37151W        W 9576  37.113   9.096   3.265
37152W        W 9577  13.710  31.596  11.593
37153W        W 9578  18.811  13.265  14.677
37154W        W 9579  38.320  18.597  14.417
37155W        W 9580  44.881  41.319   4.377
37156W        W 9581   4.558  26.615   2.388
37157W        W 9582  30.360  41.530   0.337
37158W        W 9583  20.088  12.773  11.293
37159W        W 9584  33.195  11.869  14.508
37160W        W 9585  38.864  23.082  10.924
37161W        W 9586  20.491  31.413   2.857
37162W        W 9587  38.502  18.202  12.013
37163W        W 9588  32.136  18.206   3.668
37164W        W 9589  27.217  15.388  12.938
37165W        W 9590  25.013  40.995   4.713
37166W        W 9591  29.627  39.388   3.920
37167W        W 9592  31.904  14.244   0.404
37168W        W 9593  11.444   9.201   0.911
37169W        W 9594  18.463   1.778  13.937
37170W        W 9595   4.674  37.252   4.179
37171W        W 9596  43.870  15.884   2.186
37172W        W 9597  22.538  35.056  11.166
37173W        W 9598  36.584  43.986   1.172
37174W        W 9599  23.764   4.762  13.066
37175W        W 9600  26.947   7.717   1.763
37176W        W 9601  25.297   9.245  13.333
37177W        W 9602  20.777  42.746   3.620
37178W        W 9603  12.126  14.091   0.787
37179W        W 9604   7.270  21.986  13.482
37180W        W 9605   7.522  40.435   2.399
37181W        W 9606  32.415   8.395   4.191
37182W        W 9607  23.463  31.250  12.127
37183W        W 9608  44.336  33.369   0.780
37184W        W 9609  22.672  35.108  14.445
37185W        W 9610  25.684  24.633   0.716
37186W        W 9611  12.888  31.534  12.493
37187W        W 9612  39.895  40.893  12.482
37188W        W 9613   4.390   8.692  14.366
37189W        W 9614  20.050  35.834  11.055
37190W        W 9615  21.699   6.867  11.590
37191W        W 9616  38.764   7.203  11.252
37192W        W 9617  24.499   1.748   2.852
37193W        W 9618   5.349  30.870   4.672
37194W        W 9619  33.347  26.973   1.362
37195W        W 9620  17.050  28.576   0.784
37196W        W 9621   7.759  32.261  11.505
37197W        W 9622  37.581  43.524  12.565
37198W        W 9623  35.372  30.811  12.346
37199W        W 9624  44.335  22.745   2.584
37200W        W 9625  26.629  33.510   0.824
37201W        W 9626  14.367  37.274  10.812
37202W        W 9627  24.660  29.141   3.757
37203W        W 9628   2.881  39.768  12.007
37204W        W 9629  30.270  30.622  13.949
37205W        W 9630  32.852  44.811  12.611
37206W        W 9631   4.300  37.821   1.694
37207W        W 9632  31.096  34.778   4.068
37208W        W 9633  16.371  20.740  12.475
37209W        W 9634   1.334  35.578   3.766
37210W        W 9635  24.261  21.558   4.578
37211W        W 9636   2.871  35.022  13.507
37212W        W 9637  14.672   8.254   1.946
37213W        W 9638   0.174  20.862  14.504
37214W        W 9639  14.837  20.688   3.564
37215W        W 9640  13.336  17.230  14.950
37216W        W 9641  37.221  31.271  12.114
37217W        W 9642  40.425  37.039  12.518
37218W        W 9643   0.268  34.502   1.681
37219W        W 9644   8.628   0.635   4.094
37220W        W 9645  10.627  34.936  13.874
37221W        W 9646  35.062  15.713  12.444
37222W        W 9647  13.824  23.032  11.455
37223W        W 9648   8.193  32.407   1.363
37224W        W 9649  43.736  27.672  10.566
37225W        W 9650  20.592  35.628   2.419
37226W        W 9651  23.653  44.470  13.473
37227W        W 9652  10.820  28.963   3.722
37228W        W 9653  39.519  17.336   3.435
37229W        W 9654   2.480  22.065   3.245
37230W        W 9655   8.239  30.234  10.548
37231W        W 9656  38.039  38.361  14.009
37232W        W 9657   1.945  33.089  11.127
37233W        W 9658   8.093   3.728   1.382
37234W        W 9659   4.465  33.926  13.785
37235W        W 9660   2.630  14.216   2.778
37236W        W 9661  32.508  35.540  11.902
37237W        W 9662  22.620   2.029   2.165
37238W        W 9663  36.971  20.701   2.649
37239W        W 9664  17.275  39.631   0.478
37240W        W 9665  39.948   8.192  12.411
37241W        W 9666  26.581   6.312   4.722
37242W        W 9667  32.907  40.328  11.589
37243W        W 9668  22.404  37.086  14.835
37244W        W 9669  41.011   1.808  14.314
37245W        W 9670  12.343  24.535  10.137
37246W        W 9671  29.171  36.999  13.575
37247W        W 9672  27.859  38.838  10.397
37248W        W 9673  36.369  18.584  14.834
37249W        W 9674   3.431   3.492  12.466
37250W        W 9675  34.518  39.754   2.023
37251W        W 9676  40.857  38.938   4.945
37252W        W 9677  36.345  37.334   1.246
37253W        W 9678  19.955   7.505   0.471
37254W        W 9679   6.615   3.210   3.794
37255W        W 9680  37.845  30.080  12.585
37256W        W 9681  34.709   8.161   5.506
37257W        W 9682  41.552   7.954  12.000
37258W        W 9683  11.413  42.341   4.684
37259W        W 9684  20.032  44.549   1.265
37260W        W 9685  42.227   6.728   4.020
37261W        W 9686   4.862  29.862  12.585
37262W        W 9687   2.212  39.882   2.815
37263W        W 9688  11.307  43.531   3.703
37264W        W 9689   3.000  21.712   3.045
37265W        W 9690   6.630  12.187   2.202
37266W        W 9691  33.607   6.174  13.405
37267W        W 9692  30.122  38.430   2.755
37268W        W 9693  12.709  19.448   0.189
37269W        W 9694   3.701   4.577  11.199
37270W        W 9695  39.870  39.437   4.200
37271W        W 9696   5.783  11.687  11.219
37272W        W 9697   8.140  41.827   2.859
37273W        W 9698   4.939  16.225   1.608
37274W        W 9699  13.370   4.198   3.969
37275W        W 9700   8.903  17.019   3.433
37276W        W 9701  38.533   4.718   3.811
37277W        W 9702  23.464   8.646  13.305
37278W        W 9703  21.572   4.734  10.912
37279W        W 9704  26.961  25.643   2.745
37280W        W 9705  20.758  10.855  14.378
37281W        W 9706  22.486   3.778   2.194
37282W        W 9707  18.837  27.980   4.060
37283W        W 9708  31.622   7.315   4.205
37284W        W 9709  18.608  24.741   2.176
37285W        W 9710  33.795  33.033   2.809
37286W        W 9711   6.221  37.905   0.269
37287W        W 9712  44.380   7.518   3.627
37288W        W 9713   8.703  21.845  11.905
37289W        W 9714   0.420   7.827  14.388
37290W        W 9715  35.300  26.199   1.876
37291W        W 9716  41.594   6.397   4.210
37292W        W 9717  44.155   5.266   3.125
37293W        W 9718  32.164   7.367  12.912
37294W        W 9719  30.932  19.777  13.548
37295W        W 9720  21.528  24.551  11.683
37296W        W 9721  10.225  34.051  14.031
37297W        W 9722  23.949  38.746  11.465
37298W        W 9723  31.586  26.498  13.912
37299W        W 9724  18.185  44.840   0.485
37300W        W 9725   2.850   6.251  13.408
37301W        W 9726  15.780  25.696  12.022
37302W        W 9727  16.759   6.641   1.876
37303W        W 9728   2.708  17.622  11.555
37304W        W 9729   5.030   8.158  13.044
37305W        W 9730   7.351  26.197   1.865
37306W        W 9731  31.471  35.325   0.772
37307W        W 9732   7.333   8.256   4.085
37308W        W 9733  37.350  15.653  14.680
37309W        W 9734  39.131  25.128  13.932
37310W        W 9735  44.464  17.733   0.278
37311W        W 9736  13.006  15.810  13.000
37312W        W 9737  23.547  34.739  13.282
37313W        W 9738  30.712  14.691   2.879
37314W        W 9739  38.295  34.048   1.977
37315W        W 9740  43.913  26.406   0.849
37316W        W 9741   9.625   2.877   1.732
37317W        W 9742  41.050  26.962   2.832
37318W        W 9743  16.701   7.679  13.402
37319W        W 9744  27.703  43.878   3.311
37320W        W 9745  20.261  35.608   2.820
37321W        W 9746  21.115  32.604   2.003
37322W        W 9747   0.214  30.941  11.123
37323W        W 9748  24.190  10.912  14.746
37324W        W 9749  30.171  35.555  13.441
37325W        W 9750  37.403  33.122  10.801
37326W        W 9751  35.620  42.053   4.220
37327W        W 9752  20.755   4.555  14.997
37328W        W 9753  43.247  35.796   1.298
37329W        W 9754  19.106  44.013  14.382
37330W        W 9755   8.285  21.270   3.355
37331W        W 9756  22.506  26.059  14.075
37332W        W 9757  25.189  10.763   0.808
37333W        W 9758  37.586   8.471   5.507
37334W        W 9759  19.996  27.175  14.082
37335W        W 9760   2.166  23.371  11.675
37336W        W 9761  41.000  22.967  14.758
37337W        W 9762  37.628  43.749  14.867
37338W        W 9763  11.708   9.870  14.183
37339W        W 9764   3.767  13.244   3.874
37340W        W 9765  42.595  18.661  11.954
37341W        W 9766  11.312   1.891  13.512
37342W        W 9767   5.121  41.870  11.158
37343W        W 9768  26.784   6.272  14.871
37344W        W 9769   9.867  27.126  10.389
37345W        W 9770  15.485  29.022   0.493
37346W        W 9771   8.828  29.509   3.643
37347W        W 9772  32.067  32.069  13.589
37348W        W 9773  38.734  19.205   1.939
37349W        W 9774  30.124   7.088   0.960
37350W        W 9775  14.921  35.350  12.209
37351W        W 9776   0.727  24.061  11.093
37352W        W 9777  27.628  26.648  14.255
37353W        W 9778  15.745  36.822   4.640
37354W        W 9779  31.283  16.140  12.566
37355W        W 9780   5.465  13.210  12.514
37356W        W 9781  41.619   0.991   3.638
37357W        W 9782  34.977  37.981  12.639
37358W        W 9783  31.128   2.168  11.216
37359W        W 9784  24.396   5.730  12.455
37360W        W 9785  14.257   6.245   2.899
37361W        W 9786  25.564  26.911   1.451
37362W        W 9787   6.823  20.563   3.238
37363W        W 9788  31.460  40.559   1.742
37364W        W 9789  39.049  43.973  14.449
37365W        W 9790   9.315  41.790   3.769
37366W        W 9791  37.477  37.600  12.557
37367W        W 9792  40.399   1.957  14.322
37368W        W 9793  14.800  27.493   1.100
37369W        W 9794  22.235  25.553  11.128
37370W        W 9795  33.439   4.485  12.085
37371W        W 9796  21.790  22.632  11.880
37372W        W 9797  25.970  25.471   1.255
37373W        W 9798   2.788   0.898   4.496
37374W        W 9799  27.175  31.019  11.075
37375W        W 9800  43.442  11.192  13.749
37376W        W 9801  13.792   6.461   2.802
37377W        W 9802  12.635  26.139   2.343
37378W        W 9803   0.755  19.182  13.888
37379W        W 9804  15.821   2.440  10.522
37380W        W 9805  24.449  21.742   4.148
37381W        W 9806  32.057  38.368  11.311
37382W        W 9807   2.461   6.673  11.495
37383W        W 9808  18.649  19.571   3.689
37384W        W 9809  33.077  21.073  11.051
37385W        W 9810  37.508  19.601  10.758
37386W        W 9811  13.289  25.659   1.432
37387W        W 9812  43.455  37.749  11.494
37388W        W 9813   9.338   7.406  12.492
37389W        W 9814  38.978   0.995   0.212
37390W        W 9815   9.225  16.818  11.136
37391W        W 9816  20.089  18.444   4.668
37392W        W 9817  42.530  25.240   2.481
37393W        W 9818   2.894  42.855   4.659
37394W        W 9819  27.745  44.383  12.458
37395W        W 9820  27.073  23.992   2.330
37396W        W 9821  35.628  11.877   2.804
37397W        W 9822  11.112  35.024   1.483
37398W        W 9823   4.526  43.313   0.969
37399W        W 9824  37.385   1.834   0.099
37400W        W 9825  43.814   8.150   0.022
37401W        W 9826  16.083  42.024  13.907
37402W        W 9827  26.920  10.408   4.175
37403W        W 9828   6.475  12.788   2.701
37404W        W 9829   8.417  43.090  11.564
37405W        W 9830  33.519  24.089   1.370
37406W        W 9831  41.519  29.885  12.075
37407W        W 9832  14.532  13.347   1.440
37408W        W 9833  16.201   3.803   1.813
37409W        W 9834   2.746   5.068  10.389
37410W        W 9835  30.547  42.513   2.666
37411W        W 9836  26.989  36.859   0.959
37412W        W 9837  27.902   1.230  13.935
37413W        W 9838   7.059   3.753  11.188
37414W        W 9839  23.473   3.807  14.779
37415W        W 9840  11.087  24.446  10.921
37416W        W 9841  32.047  35.852   0.046
37417W        W 9842  19.836  37.999   0.263
37418W        W 9843   2.491   4.347   3.827
37419W        W 9844  28.700  42.342   3.223
37420W        W 9845  26.538  21.348   3.843
37421W        W 9846  39.007  25.135  11.105
37422W        W 9847  41.994  22.114   0.314
37423W        W 9848   1.448  22.953   1.368
37424W        W 9849  17.469  43.608  12.136
37425W        W 9850  39.811  28.025  13.398
37426W        W 9851  40.438  37.557   3.191
37427W        W 9852  41.336   1.952   3.164
37428W        W 9853  32.953   6.328  11.062
37429W        W 9854  40.048  11.765   4.352
37430W        W 9855   5.840  24.337  10.711
37431W        W 9856  14.119  26.260  14.403
37432W        W 9857  15.712  11.194  13.418
37433W        W 9858  11.427   5.833   2.560
37434W        W 9859  16.304  11.121   4.835
37435W        W 9860   1.397   4.158   4.518
37436W        W 9861  42.278   5.901  14.501
37437W        W 9862   8.210   3.767  14.523
37438W        W 9863  24.113  18.406  12.112
37439W        W 9864  42.360  18.299  11.613
37440W        W 9865   2.829   8.963  10.890
37441W        W 9866  42.938  42.974  10.727
37442W        W 9867  34.944  39.310   1.384
37443W        W 9868  28.040  19.731  14.879
37444W        W 9869  38.831   8.737   4.640
37445W        W 9870  44.932  36.299  14.292
37446W        W 9871  30.580   4.388  14.842
37447W        W 9872  25.123  17.533  11.354
37448W        W 9873  12.343  36.088  12.595
37449W        W 9874  38.106  15.352  14.029
37450W        W 9875  16.092   5.435   1.806
37451W        W 9876   3.311  27.935  10.429
37452W        W 9877  44.882  26.412   4.280
37453W        W 9878  33.056  35.029  10.424
37454W        W 9879   0.987  19.569   3.298
37455W        W 9880   6.885   6.936  13.451
37456W        W 9881  24.273  40.453   4.651
37457W        W 9882  17.022  31.485   4.627
37458W        W 9883  19.998  25.023   1.767
37459W        W 9884   1.809   2.941   0.323
37460W        W 9885  18.167  20.726   4.532
37461W        W 9886  37.970  28.205  13.561
37462W        W 9887   8.143  28.528   3.247
37463W        W 9888  13.548  37.970  12.387
37464W        W 9889  26.084  43.897  13.680
37465W        W 9890  19.184  30.559  10.462
37466W        W 9891  44.265  26.643   1.184
37467W        W 9892  13.287  39.579  12.393
37468W        W 9893  14.541   3.429  13.500
37469W        W 9894  34.094  22.581   4.301
37470W        W 9895   5.364  34.034  12.809
37471W        W 9896  43.758  20.705  11.673
37472W        W 9897  30.365  20.833   2.059
37473W        W 9898  37.346   8.702  11.925
37474W        W 9899  33.465  31.096  11.564
37475W        W 9900  39.869   6.820  12.958
37476W        W 9901   4.320  29.925   2.361
37477W        W 9902  16.344  19.460  12.082
37478W        W 9903  15.954   6.613  12.424
37479W        W 9904   1.295  27.755  11.948
37480W        W 9905  11.735   8.852   4.104
37481W        W 9906  31.925  32.414  11.998
37482W        W 9907  44.873  23.500   3.196
37483W        W 9908  43.519  21.447   0.458
37484W        W 9909  35.383  34.813  13.946
37485W        W 9910  37.970   1.907   3.705
37486W        W 9911  31.434  13.314   1.537
37487W        W 9912  12.246  24.558   1.685
37488W        W 9913  17.630   6.823  14.269
37489W        W 9914  43.341  29.134  12.477
37490W        W 9915  37.065   3.526  14.047
37491W        W 9916  36.649  31.430  12.209
37492W        W 9917  36.218   8.335   3.741
37493W        W 9918  32.054  24.639   4.672
37494W        W 9919  15.688   3.500   5.042
37495W        W 9920  33.881  19.085   1.331
37496W        W 9921  22.181  14.682  14.909
37497W        W 9922   4.330  26.325   3.169
37498W        W 9923  26.618  34.971  14.314
37499W        W 9924   4.922  33.061   0.479
37500W        W 9925  31.966  12.842  14.954
37501W        W 9926  39.870  26.415   2.848
37502W        W 9927  41.284   7.798  12.537
37503W        W 9928   8.448  16.298  10.575
37504W        W 9929  14.427  28.591  14.746
37505W        W 9930  38.304  31.540  12.701
37506W        W 9931   5.780  43.788  13.443
37507W        W 9932  16.330  14.361  11.956
37508W        W 9933  11.447  29.464  14.721
37509W        W 9934  43.372   9.332   2.054
37510W        W 9935  43.271  20.058  10.560
37511W        W 9936  26.242   3.875  11.593
37512W        W 9937   9.432   3.376   1.649
37513W        W 9938  14.604  41.814  10.975
37514W        W 9939   1.305  10.843   3.610
37515W        W 9940  41.783  42.710   3.026
37516W        W 9941   1.763   9.032  13.464
37517W        W 9942  21.705  26.905  11.578
37518W        W 9943   0.528  22.165   2.299
37519W        W 9944  35.282  29.193  10.481
37520W        W 9945  10.236   0.326  14.866
37521W        W 9946  39.071  25.888   2.659
37522W        W 9947   1.838  32.419   1.347
37523W        W 9948   6.838  17.058  11.189
37524W        W 9949   7.859   8.664   3.359
37525W        W 9950  17.647  29.574   3.034
37526W        W 9951  14.202   2.657   1.708
37527W        W 9952   6.797  43.922  10.699
37528W        W 9953  41.907  24.469   4.585
37529W        W 9954   0.688  15.386  10.579
37530W        W 9955  17.505   9.731   3.154
37531W        W 9956  34.013  44.356  11.971
37532W        W 9957  29.549   2.416  11.524
37533W        W 9958   1.997  16.655   4.865
37534W        W 9959  17.835  22.118  13.308
37535W        W 9960   1.517  19.028  12.550
37536W        W 9961   9.161  22.985   0.001
37537W        W 9962  16.958  32.491  12.431
37538W        W 9963  39.395  20.463  10.665
37539W        W 9964  11.964  13.638   0.504
37540W        W 9965   7.906  24.310   1.960
37541W        W 9966  31.701  33.439   0.872
37542W        W 9967  13.183  32.998   1.705
37543W        W 9968  36.587  41.144   9.962
37544W        W 9969   2.672   8.379   1.189
37545W        W 9970  37.114  14.745   3.786
37546W        W 9971   0.464  27.971   1.848
37547W        W 9972  38.228   7.141   4.147
37548W        W 9973  25.903  36.942   3.338
37549W        W 9974  16.738  21.614  10.460
37550W        W 9975  17.556  11.866   0.748
37551W        W 9976  20.028  41.569   0.216
37552W        W 9977  19.448  33.273   2.281
37553W        W 9978  25.632  12.540   3.542
37554W        W 9979  14.733  18.908  13.599
37555W        W 9980  24.517  39.155   2.286
37556W        W 9981  24.631  17.748  13.201
37557W        W 9982  11.954  29.658  14.798
37558W        W 9983  39.428  10.668   0.426
37559W        W 9984   5.848  28.600   0.842
37560W        W 9985   3.319  13.315  14.267
37561W        W 9986  29.648  29.559   4.100
37562W        W 9987   1.441  22.654   1.801
37563W        W 9988  13.551   9.667  12.293
37564W        W 9989   4.808   2.466   3.224
37565W        W 9990   0.994  27.724  13.970
37566W        W 9991  44.938  43.110  10.742
37567W        W 9992  36.236  25.214  14.277
37568W        W 9993  21.050  37.396  12.898
37569W        W 9994   7.726  28.534  11.584
37570W        W 9995  12.669  19.576  13.338
37571W        W 9996  44.792   2.761   0.890
37572W        W 9997  31.438  13.828   1.681
37573W        W 9998  43.800  25.117   4.798
37574W        W 9999  17.244   5.508  14.934
37575W        W10000  32.864  31.030   4.365
37576W        W10001  22.179  17.664   4.673
37577W        W10002  31.256  40.597  10.217
37578W        W10003  38.040  31.172  13.481
37579W        W10004  34.468  19.037   0.458
37580W        W10005  28.905   8.271  14.291
37581W        W10006  44.967  11.741   2.932
37582W        W10007  41.894  24.420  11.145
37583W        W10008   9.576  26.125   2.748
37584W        W10009  33.546  40.756   1.826
37585W        W10010  44.433  38.151  12.880
37586W        W10011  36.405  36.260  14.371
37587W        W10012  30.444  27.733  12.815
37588W        W10013  41.515   5.782   0.069
37589W        W10014  34.540   4.353  14.552
37590W        W10015  39.368  12.186   0.260
37591W        W10016   5.435  31.007   0.443
37592W        W10017  43.199  40.583   2.797
37593W        W10018  37.418   0.976  14.303
37594W        W10019  13.065  17.279   0.407
37595W        W10020  36.954  31.329   0.907
37596W        W10021   0.581   7.347  14.537
37597W        W10022  44.969  16.114  13.210
37598W        W10023  22.620  30.824  11.652
37599W        W10024   7.139  33.587  11.114
37600W        W10025  26.206  34.410  12.487
37601W        W10026  34.492  21.215  13.405
37602W        W10027  28.116   8.054   1.745
37603W        W10028   2.275   4.482   3.336
37604W        W10029   7.669   0.085   1.745
37605W        W10030  40.593  39.595  11.973
37606W        W10031   8.881  31.511  11.115
37607W        W10032  20.588   3.853  13.983
37608W        W10033   0.310  33.516  10.351
37609W        W10034  18.734   5.360   0.155
37610W        W10035  38.615  18.613   1.539
37611W        W10036  25.222  30.031   5.231
37612W        W10037  33.474  30.468   3.246
37613W        W10038  33.770  32.092   1.259
37614W        W10039  30.532   6.349   2.208
37615W        W10040   7.974  19.303   0.560
37616W        W10041  35.660   2.745  11.845
37617W        W10042  39.320   6.496  10.177
37618W        W10043  28.464  11.056  10.431
37619W        W10044   5.788  12.271   1.362
37620W        W10045   9.926  32.221  14.511
37621W        W10046  18.442  15.077  12.458
37622W        W10047  29.438  35.265  12.567
37623W        W10048  18.637  10.373   5.057
37624W        W10049   3.714  40.752   1.854
37625W        W10050  22.558  33.562   1.874
37626W        W10051   7.518  34.881  10.727
37627W        W10052   2.358  14.992  11.016
37628W        W10053  19.366   0.509   4.648
37629W        W10054  28.172  35.341  11.241
37630W        W10055   8.649   7.791  11.451
37631W        W10056  22.512  37.850  12.026
37632W        W10057  42.380  34.571  14.975
37633W        W10058  22.132   0.924  11.130
37634W        W10059   6.456   7.557   2.168
37635W        W10060  30.029   9.812   3.380
37636W        W10061  41.595  37.347   4.568
37637W        W10062  29.507  41.492  10.529
37638W        W10063   0.110  40.466   0.514
37639W        W10064  15.318  18.835  14.851
37640W        W10065   3.418  27.185   4.215
37641W        W10066  32.508  30.857   1.390
37642W        W10067   4.012  19.354   3.712
37643W        W10068  35.044  16.874   1.659
37644W        W10069  35.593  31.108   2.165
37645W        W10070  33.520  14.834  14.808
37646W        W10071   9.256  42.415  12.656
37647W        W10072   1.845  41.998   2.846
37648W        W10073   6.658  35.377   3.175
37649W        W10074  36.563  11.958  12.453
37650W        W10075  35.963  30.090   0.370
37651W        W10076  34.311   0.483   2.212
37652W        W10077  24.109   9.380   0.008
37653W        W10078  23.398  40.829  13.836
37654W        W10079  19.465  44.295  10.802
37655W        W10080   9.831  34.075   0.492
37656W        W10081   8.603  29.564   4.159
37657W        W10082  29.757  41.812   4.632
37658W        W10083  42.061  39.104  10.844
37659W        W10084  28.936  24.042  14.296
37660W        W10085   2.743   5.259   1.320
37661W        W10086  26.134  12.081  12.912
37662W        W10087  36.167  17.284   0.942
37663W        W10088  31.866   1.678  14.363
37664W        W10089  21.500  26.006   3.118
37665W        W10090  11.957  29.382  12.364
37666W        W10091  18.158  34.629   4.722
37667W        W10092  42.099  15.806   2.068
37668W        W10093  32.569  20.675   1.763
37669W        W10094  26.718  24.561  11.168
37670W        W10095  36.284  22.433   2.757
37671W        W10096  41.497  10.606  11.998
37672W        W10097  41.568  34.165  11.641
37673W        W10098  34.702   6.922  10.511
37674W        W10099  19.446  28.199   1.917
37675W        W10100  26.160  41.913  10.704
37676W        W10101  14.088  44.016   3.660
37677W        W10102   5.159   8.645  13.763
37678W        W10103  11.815  19.484  13.850
37679W        W10104  28.646  14.975  12.017
37680W        W10105  25.215   9.374   2.856
37681W        W10106  39.802  24.454   3.001
37682W        W10107  42.539  38.938   2.763
37683W        W10108   2.941  23.592   3.118
37684W        W10109  34.590  43.878  11.466
37685W        W10110   1.217  11.249   1.296
37686W        W10111   0.382  36.046  13.946
37687W        W10112  20.704  43.314   3.629
37688W        W10113  13.237  41.224   1.259
37689W        W10114  28.061   1.383   0.348
37690W        W10115  42.942  33.161  10.100
37691W        W10116  31.651  39.981  10.934
37692W        W10117  21.227  20.121   3.267
37693W        W10118  27.578  24.475  12.535
37694W        W10119  41.946  17.734   3.662
37695W        W10120   8.937   7.389   4.131
37696W        W10121  29.419  40.990  12.105
37697W        W10122  32.422  18.181  12.219
37698W        W10123  41.009   4.832  13.771
37699W        W10124  28.958  15.873  11.004
37700W        W10125  32.507   3.405   4.321
37701W        W10126  16.005  10.187  12.223
37702W        W10127  24.630  17.122  11.860
37703W        W10128  11.634  22.154  12.067
37704W        W10129  13.136  21.631   4.665
37705W        W10130   1.343  44.129  10.633
37706W        W10131   8.285  36.789  11.430
37707W        W10132  13.413  31.620   4.525
37708W        W10133  10.502  13.766  14.373
37709W        W10134  10.293  28.651  12.018
37710W        W10135  16.066   2.350  12.562
37711W        W10136   7.556  27.895   1.900
37712W        W10137  42.290   3.064  12.143
37713W        W10138  44.254  42.736   4.039
37714W        W10139  18.033  31.549  12.449
37715W        W10140  27.612  32.041  12.398
37716W        W10141  28.390  36.076  14.875
37717W        W10142  38.577  29.923   4.127
37718W        W10143  24.186   6.193   1.982
37719W        W10144   6.731  14.729   3.187
37720W        W10145  19.653   6.311   3.171
37721W        W10146  32.383  11.140  14.371
37722W        W10147  30.593   8.388  12.409
37723W        W10148  18.458  12.169   1.570
37724W        W10149  17.814   3.277  13.083
37725W        W10150  14.732  19.404  11.616
37726W        W10151  24.472  13.350   1.800
37727W        W10152  40.855  25.728  11.714
37728W        W10153  36.078   0.380  11.645
37729W        W10154  10.152  44.018   2.320
37730W        W10155  34.046  35.401  14.282
37731W        W10156  16.925  36.060   0.701
37732W        W10157  23.924  20.121  13.416
37733W        W10158  20.260  42.816  11.676
37734W        W10159  25.706   7.200  11.417
37735W        W10160   6.320  12.784   1.741
37736W        W10161   3.740  42.096  11.310
37737W        W10162  12.973  39.763  11.206
37738W        W10163  27.954  37.495   0.562
37739W        W10164  39.061  20.201   1.382
37740W        W10165   9.402  28.860   0.754
37741W        W10166  12.142  44.299   0.267
37742W        W10167  10.969   8.233  14.468
37743W        W10168  24.273  12.310   4.115
37744W        W10169   4.828   5.610  13.613
37745W        W10170  34.532  23.314   2.238
37746W        W10171  25.629  21.693  13.833
37747W        W10172  38.616  19.504   3.197
37748W        W10173   7.714  39.473   0.066
37749W        W10174   8.838  42.873  13.932
37750W        W10175  21.710  15.352  11.807
37751W        W10176  30.096  41.102   4.301
37752W        W10177  29.604  37.274   0.573
37753W        W10178   8.380  14.620  14.806
37754W        W10179  40.990  13.927   0.453
37755W        W10180  26.238  22.497  13.204
37756W        W10181  16.225   3.679  13.928
37757W        W10182  24.763  16.776   2.882
37758W        W10183  41.421  44.060   0.079
37759W        W10184  28.272  14.392   1.484
37760W        W10185  11.157  37.579  13.871
37761W        W10186  13.873  20.555  10.339
37762W        W10187  18.142  30.525   1.904
37763W        W10188   3.727   2.245   0.866
37764W        W10189  20.120  16.805   3.186
37765W        W10190   6.706   1.898  10.486
37766W        W10191  26.939  11.618   2.754
37767W        W10192  21.747  36.907   2.899
37768W        W10193   9.849   0.497  12.544
37769W        W10194  12.895  36.658   3.646
37770W        W10195  15.367  16.201   0.282
37771W        W10196  24.015  21.167  10.174
37772W        W10197  35.964  16.048   2.462
37773W        W10198   3.233  32.466  11.641
37774W        W10199  27.239  37.768   1.401
37775W        W10200  16.085  20.429  12.182
37776W        W10201  32.993  40.333   3.192
37777W        W10202  13.358  42.417  11.940
37778W        W10203  11.695  33.921   4.413
37779W        W10204  27.225  17.436   4.250
37780W        W10205   5.118   1.296   3.305
37781W        W10206   7.444   5.072  14.492
37782W        W10207  40.057   1.457   1.472
37783W        W10208  36.048   7.377  10.374
37784W        W10209  19.284  44.006   3.230
37785W        W10210  44.742  38.286   2.396
37786W        W10211   7.802  32.416   4.083
37787W        W10212  35.080  28.142   0.245
37788W        W10213  28.800   9.926   2.135
37789W        W10214  24.744  42.894  13.897
37790W        W10215  37.250  19.151   0.744
37791W        W10216  19.220  18.817  11.508
37792W        W10217   7.617  19.128   0.921
37793W        W10218  43.533  42.307  12.536
37794W        W10219  15.595   6.687  11.076
37795W        W10220   3.753  14.035   1.589
37796W        W10221  20.589  30.588   4.728
37797W        W10222  21.357  35.246  10.029
37798W        W10223  22.415   8.780   9.990
37799W        W10224  42.255  30.492  11.562
37800W        W10225  34.024  21.535  12.789
37801W        W10226  31.592   7.435   1.891
37802W        W10227  17.556  28.051   3.375
37803W        W10228  37.659  39.324  10.751
37804W        W10229  44.925   1.511   3.753
37805W        W10230  18.820  19.691  10.174
37806W        W10231  42.263  38.565  13.816
37807W        W10232   2.769  40.127   3.271
37808W        W10233  29.457   5.932  10.489
37809W        W10234   2.834   2.711   3.110
37810W        W10235   4.163  11.623   2.814
37811W        W10236  28.138   6.000   4.146
37812W        W10237  14.801  44.456  11.449
37813W        W10238  28.558  22.569   2.358
37814W        W10239  28.920   1.161   3.830
37815W        W10240  23.231  26.899   4.283
37816W        W10241  22.024  11.656   1.826
37817W        W10242  10.148  21.297  11.917
37818W        W10243  20.956   3.594   4.970
37819W        W10244  16.818  31.153  11.046
37820W        W10245  22.660  30.659  12.146
37821W        W10246  14.231  13.319  14.535
37822W        W10247  37.571  38.586  12.380
37823W        W10248   1.190   0.266   1.390
37824W        W10249  19.538  27.512  10.963
37825W        W10250   5.338   6.558   4.881
37826W        W10251  24.646  29.964  11.930
37827W        W10252  19.958   7.093  14.509
37828W        W10253  38.235  36.447  12.976
37829W        W10254  23.056   0.497  12.798
37830W        W10255  32.428  16.967  11.474
37831W        W10256  38.028  15.824  13.369
37832W        W10257  34.816  24.436  14.944
37833W        W10258   2.779  39.534   2.210
37834W        W10259   0.363  21.160   1.761
37835W        W10260   6.349  43.728   4.494
37836W        W10261  38.548  24.992  13.510
37837W        W10262  25.775   2.063  11.510
37838W        W10263  10.823  31.260   1.264
37839W        W10264  21.211  23.724   1.977
37840W        W10265  43.369  19.485   3.307
37841W        W10266  38.889  33.802   4.035
37842W        W10267  40.353  22.628  13.133
37843W        W10268  32.452  23.065   1.457
37844W        W10269  14.459   5.434  11.334
37845W        W10270  28.476  29.186   2.424
37846W        W10271  14.113  26.212  10.614
37847W        W10272  21.743   5.750   0.411
37848W        W10273  32.491  42.375   1.019
37849W        W10274   9.395  10.369  14.810
37850W        W10275   9.401  42.388  13.960
37851W        W10276   6.702  28.648   2.197
37852W        W10277   3.477  30.370   3.622
37853W        W10278  18.906  10.935   3.170
37854W        W10279  25.306  31.574   4.619
37855W        W10280  44.492  14.572   4.699
37856W        W10281  14.057  41.403  13.798
37857W        W10282  33.776   9.749   4.812
37858W        W10283  16.703  15.644   0.318
37859W        W10284  35.109  44.872  13.515
37860W        W10285  40.934  43.950  14.904
37861W        W10286  33.780  20.759   0.425
37862W        W10287  29.910   5.312   2.325
37863W        W10288  19.519  29.968   4.271
37864W        W10289  31.706  13.277  12.490
37865W        W10290  18.668  37.462   3.754
37866W        W10291  18.802   2.921   2.440
37867W        W10292  13.130   7.851  13.451
37868W        W10293  25.540  28.964   3.138
37869W        W10294  29.550  13.831   2.399
37870W        W10295   9.285  40.477  11.485
37871W        W10296  26.046  14.128  10.797
37872W        W10297  34.455   0.804  13.329
37873W        W10298  13.512  14.185  12.832
37874W        W10299  15.762  27.473   1.315
37875W        W10300   4.948  25.327  10.775
37876W        W10301  40.884   5.977  12.668
37877W        W10302   5.837   3.706   3.673
37878W        W10303  29.009  12.784  13.927
37879W        W10304  18.049   8.923   3.589
37880W        W10305  15.212  19.490  13.938
37881W        W10306  37.156  23.128   1.847
37882W        W10307  43.227  34.671   3.252
37883W        W10308  10.869  20.646  13.520
37884W        W10309  20.326  35.909   3.242
37885W        W10310  20.804  36.157   3.293
37886W        W10311  23.645   8.746  14.480
37887W        W10312  26.466   6.369   5.268
37888W        W10313   1.469  13.721  14.990
37889W        W10314  17.050   4.267  11.185
37890W        W10315   0.658  29.954   3.470
37891W        W10316  14.296  40.109   0.186
37892W        W10317   5.721  21.965  11.674
37893W        W10318  15.646  16.559   4.263
37894W        W10319  43.046  35.030   3.636
37895W        W10320  23.054  10.380  12.506
37896W        W10321   1.865   6.362   0.205
37897W        W10322  26.533  18.252  12.110
37898W        W10323  25.465  18.683  10.660
37899W        W10324  26.443  43.413  12.962
37900W        W10325  40.545  17.118   5.067
37901W        W10326  23.122   9.893  12.421
37902W        W10327  34.832  32.929   1.646
37903W        W10328  43.753   7.369   4.364
37904W        W10329   6.647  44.388  10.518
37905W        W10330  12.355  29.057   4.576
37906W        W10331   6.194   5.957   0.880
37907W        W10332  37.371  33.585   3.382
37908W        W10333  15.915  42.406  11.779
37909W        W10334  13.617  18.230  10.607
37910W        W10335  22.747  38.757   2.482
37911W        W10336  22.517  10.186  11.895
37912W        W10337   5.632   1.033  14.845
37913W        W10338  34.549  31.921  14.815
37914W        W10339  24.185   9.301   2.692
37915W        W10340   7.937  34.498  10.722
37916W        W10341   8.957  29.662   4.590
37917W        W10342  33.101  15.174  14.818
37918W        W10343   0.393  27.722   1.380
37919W        W10344  16.070  17.530  12.464
37920W        W10345   8.954   3.806   2.167
37921W        W10346  34.864  16.291   2.302
37922W        W10347  41.941  30.055   0.310
37923W        W10348  27.075  29.843   4.694
37924W        W10349  28.066  10.808  11.930
37925W        W10350  36.786   0.341  14.568
37926W        W10351  41.833  21.222  14.921
37927W        W10352  40.009  23.956   4.367
37928W        W10353   7.975  11.396  10.895
37929W        W10354   4.790  29.032   2.397
37930W        W10355  31.198   1.227   2.774
37931W        W10356   8.685  19.838   0.175
37932W        W10357  32.624  44.885  10.692
37933W        W10358  40.808   3.580   4.814
37934W        W10359  26.105   6.614   4.682
37935W        W10360  32.598  25.160  11.997
37936W        W10361  39.362  15.850   1.377
37937W        W10362  32.049  28.636   2.611
37938W        W10363   7.514  23.474  12.284
37939W        W10364  24.611   3.972   3.228
37940W        W10365   5.479   9.821  12.538
37941W        W10366  35.346  12.126  10.812
37942W        W10367  15.101   0.490   0.792
37943W        W10368   7.985  37.431   2.989
37944W        W10369   6.317  11.829  12.076
37945W        W10370  23.656  22.448  12.876
37946W        W10371   3.823  31.392   1.746
37947W        W10372  18.788  33.085  11.503
37948W        W10373  29.174   2.843   3.535
37949W        W10374  39.155  10.281  13.761
37950W        W10375  17.940  31.557  14.677
37951W        W10376  35.485   6.804  12.665
37952W        W10377  19.882  22.599   0.275
37953W        W10378   1.242  39.953   1.400
37954W        W10379   2.362  24.562   4.567
37955W        W10380  29.606  39.295   0.810
37956W        W10381   5.353  14.233   3.729
37957W        W10382  11.798   5.838   3.249
37958W        W10383  44.689  34.686  10.938
37959W        W10384  29.191  20.574   0.930
37960W        W10385  40.747  26.733  12.502
37961W        W10386   0.703  37.878   4.086
37962W        W10387  39.766  32.072   4.757
37963W        W10388  24.059  14.128  14.068
37964W        W10389  17.323  23.291   5.127
37965W        W10390  37.167   4.377   4.014
37966W        W10391  35.822  18.210   2.838
37967W        W10392  10.145  36.552   3.149
37968W        W10393  31.462  28.421   3.920
37969W        W10394   4.872  21.514   1.370
37970W        W10395  44.308   6.948  12.449
37971W        W10396   3.883  20.200   3.553
37972W        W10397  21.333  15.719   5.091
37973W        W10398  12.632   1.729  12.846
37974W        W10399  11.517  16.570  14.908
37975W        W10400  43.314   1.340   2.461
37976W        W10401  20.178  25.920   0.954
37977W        W10402  38.319   4.754   0.262
37978W        W10403  31.465  13.714  12.454
37979W        W10404   1.349  30.441  12.496
37980W        W10405  28.187  13.174   4.490
37981W        W10406   0.415  27.439   1.815
37982W        W10407  35.551  23.985  13.992
37983W        W10408  19.612   3.489   2.325
37984W        W10409  40.001  31.963  14.312
37985W        W10410  36.102  11.854   0.034
37986W        W10411  21.027   6.269   0.735
37987W        W10412   5.669  26.048  12.919
37988W        W10413  34.897  39.991   3.766
37989W        W10414  11.237  38.370   0.162
37990W        W10415  18.894  11.500  12.047
37991W        W10416  43.602  21.105  12.067
37992W        W10417  20.061   9.232   4.635
37993W        W10418   2.197   5.363  13.454
37994W        W10419   3.063  30.683   2.341
37995W        W10420  29.162  20.663  11.046
37996W        W10421  34.906  40.524   3.302
37997W        W10422  38.860  34.081  12.882
37998W        W10423  22.984   5.230   1.331
37999W        W10424   4.701  10.680  12.146
38000W        W10425  37.963  20.823  10.861
38001W        W10426  42.568  43.432   0.667
38002W        W10427  19.506   8.120   3.362
38003W        W10428  25.513  39.378   2.243
38004W        W10429  33.690   9.891   3.823
38005W        W10430  17.984  44.894   3.695
38006W        W10431   0.094  31.604   4.209
38007W        W10432   7.784  26.459   2.890
38008W        W10433   0.065   5.911   3.687
38009W        W10434   0.930   5.188  10.747
38010W        W10435  14.940   2.056  11.003
38011W        W10436  41.729  39.132  14.875
38012W        W10437  13.987  33.919   0.111
38013W        W10438  44.853  29.620   3.836
38014W        W10439   3.936  41.365   4.068
38015W        W10440  43.494  43.488  14.222
38016W        W10441  37.300   1.261  13.090
38017W        W10442  36.328   9.269   4.643
38018W        W10443  30.424  20.586   4.468
38019W        W10444  19.598  43.214   1.450
38020W        W10445  31.414  29.483   3.103
38021W        W10446  13.605  26.503   0.233
38022W        W10447  13.610   8.924   2.726
38023W        W10448  44.740  23.022   1.261
38024W        W10449  27.792  39.387   4.228
38025W        W10450  27.701  11.144   0.868
38026W        W10451  43.178  43.050  10.270
38027W        W10452  20.263   8.312   0.458
38028W        W10453  27.028  40.478   2.518
38029W        W10454   4.420  35.994   4.258
38030W        W10455  10.167  42.419  13.491
38031W        W10456  37.559  12.708   1.719
38032W        W10457  25.611   1.303  14.177
38033W        W10458  28.059  23.154   0.504
38034W        W10459   7.754  14.122   2.797
38035W        W10460  34.009  19.641  14.231
38036W        W10461  33.340  22.141  14.825
38037W        W10462  35.902  29.117   3.868
38038W        W10463  24.071   2.399  10.790
38039W        W10464  20.714   3.156  13.393
38040W        W10465  14.238  27.564  13.918
38041W        W10466  23.550  42.460  11.998
38042W        W10467  24.084  27.099   2.533
38043W        W10468  37.666  25.124   3.215
38044W        W10469  16.639   9.987   3.790
38045W        W10470  11.644  14.034  13.118
38046W        W10471   3.461  26.530   2.884
38047W        W10472  31.669   8.735   4.578
38048W        W10473  12.559  25.508   0.321
38049W        W10474  30.641  39.387   1.186
38050W        W10475  44.043  31.705   3.074
38051W        W10476   1.504  44.561  12.429
38052W        W10477  33.689  44.362  12.497
38053W        W10478  10.327  17.151  12.652
38054W        W10479  41.222  34.180   0.367
38055W        W10480  11.092  37.258  13.053
38056W        W10481  37.751   0.044  12.515
38057W        W10482  10.256  18.176   3.221
38058W        W10483   9.890  21.995   1.910
38059W        W10484  37.977  15.295   2.914
38060W        W10485  40.052  19.143  11.386
38061W        W10486  23.721  43.509   2.617
38062W        W10487  26.405  34.115   0.501
38063W        W10488   0.790   4.193  13.901
38064W        W10489   1.327  32.423  12.850
38065W        W10490   6.939  37.505  12.908
38066W        W10491   5.290  10.433   4.108
38067W        W10492  33.817   1.129   1.961
38068W        W10493  42.854  22.574  10.589
38069W        W10494  23.361  12.692   4.931
38070W        W10495  10.866  26.155  14.428
38071W        W10496  41.044   7.316   0.776
38072W        W10497  23.966  31.791   2.637
38073W        W10498   2.400  39.765   3.278
38074W        W10499  14.710  10.197  12.765
38075W        W10500   9.514   2.426  13.677
38076W        W10501  44.878  18.690   2.422
38077W        W10502   8.417  29.523   3.276
38078W        W10503  22.106   1.483  10.444
38079W        W10504  16.574   3.842  12.426
38080W        W10505  19.598  14.149  10.938
38081W        W10506  35.101  20.639   0.867
38082W        W10507  21.105  26.355   0.803
38083W        W10508  23.771  25.760  13.315
38084W        W10509   3.323  44.115   4.823
38085W        W10510   0.357  24.422   1.448
38086W        W10511   8.647  19.986   0.974
38087W        W10512  29.337  26.618  11.490
38088W        W10513   2.966   6.760  13.104
38089W        W10514  24.792  27.813  11.123
38090W        W10515  22.452  22.788   2.405
38091W        W10516  12.278  18.174  13.801
38092W        W10517  11.751  44.810   1.982
38093W        W10518  34.575  42.481   2.427
38094W        W10519   2.461  37.554   0.744
38095W        W10520  15.095   8.358   4.581
38096W        W10521  17.514   3.345   1.638
38097W        W10522  20.142  21.336   4.120
38098W        W10523  22.245  31.029   1.504
38099W        W10524  40.556  12.835   4.070
38100W        W10525  10.802  44.205  14.012
38101W        W10526  22.455  32.509   3.145
38102W        W10527  28.093  23.085   3.391
38103W        W10528  15.600   3.023  12.073
38104W        W10529  38.094  16.177   3.124
38105W        W10530  13.644  13.398   1.226
38106W        W10531  22.572  35.513  12.410
38107W        W10532   4.462   1.796  12.590
38108W        W10533  25.941  24.097  13.816
38109W        W10534  26.602  18.553   3.656
38110W        W10535  36.724  17.084  10.295
38111W        W10536   5.018  11.795   4.467
38112W        W10537  26.749  20.007   4.114
38113W        W10538  29.618  35.966  13.028
38114W        W10539  21.537  19.721   1.873
38115W        W10540  12.320  33.025  10.607
38116W        W10541   3.584  43.455   3.652
38117W        W10542  37.909  34.658  13.306
38118W        W10543  31.525  18.597   1.316
38119W        W10544   0.739  23.784  11.538
38120W        W10545  13.519   2.202   2.335
38121W        W10546  21.629  28.433   3.221
38122W        W10547   2.869  27.350   2.130
38123W        W10548  20.474  41.908   3.815
38124W        W10549  27.983  23.503  14.062
38125W        W10550  16.793  29.149  11.471
38126W        W10551  24.056  27.259   4.502
38127W        W10552  21.625  37.947   1.168
38128W        W10553   2.285  30.107   2.221
38129W        W10554  14.421  24.662  12.357
38130W        W10555  17.516  42.370  13.927
38131W        W10556  32.588  24.349   1.119
38132W        W10557  29.395   0.593   2.759
38133W        W10558  17.338   6.657  10.630
38134W        W10559  38.602  16.594   4.782
38135W        W10560  24.181   5.743   1.614
38136W        W10561   6.823  35.841   4.311
38137W        W10562  40.404  44.556   3.161
38138W        W10563  24.731  15.258  12.489
38139W        W10564  25.277  37.178   4.484
38140W        W10565  15.662  29.707   1.683
38141W        W10566  19.861  42.485   2.136
38142W        W10567   3.799   9.921  12.839
38143W        W10568  32.878   9.542  12.949
38144W        W10569  40.555  15.781   3.177
38145W        W10570  24.542  31.834   1.352
38146W        W10571  10.639  16.059   0.875
38147W        W10572  40.217  28.965   4.367
38148W        W10573   0.726  30.222  11.510
38149W        W10574  36.521  23.642   3.575
38150W        W10575  40.706  30.765   4.543
38151W        W10576   7.647  26.067   1.224
38152W        W10577  33.534  29.681  13.059
38153W        W10578   1.324   9.284  11.682
38154W        W10579  32.038  27.499  14.918
38155W        W10580   8.330  36.396  12.414
38156W        W10581   8.187  27.154  11.025
38157W        W10582  17.844  39.048   1.795
38158W        W10583  39.761  28.102  14.383
38159W        W10584   7.030  41.511   4.294
38160W        W10585   6.127  21.298   4.397
38161W        W10586  32.170   8.134  11.770
38162W        W10587  18.536  13.026   3.726
38163W        W10588  13.806   1.354   1.458
38164W        W10589   1.903  26.236   4.313
38165W        W10590  44.494  32.085  12.851
38166W        W10591  19.739  38.341   2.557
38167W        W10592  44.026  34.502   0.357
38168W        W10593  10.304   8.797  13.326
38169W        W10594  39.949  12.643  12.011
38170W        W10595  19.342   3.645   0.975
38171W        W10596   6.679  18.719   1.485
38172W        W10597   9.889   2.232  10.658
38173W        W10598  27.520  31.099   4.938
38174W        W10599  40.065  25.079   4.747
38175W        W10600  33.482   5.745  12.580
38176W        W10601  24.246  33.554  13.938
38177W        W10602  33.490  11.652  10.546
38178W        W10603   5.890  12.877  13.909
38179W        W10604  44.503  24.214   2.596
38180W        W10605  32.106  33.969   4.316
38181W        W10606  33.920  11.619   3.778
38182W        W10607  10.620  24.911   3.140
38183W        W10608  22.645  30.415  12.615
38184W        W10609   3.230  41.375   1.404
38185W        W10610  22.108   4.855  14.446
38186W        W10611  10.785  36.069  10.573
38187W        W10612   4.410  29.148  11.157
38188W        W10613  25.049  16.300  14.337
38189W        W10614  38.038   1.376  11.331
38190W        W10615  39.690  34.396  11.150
38191W        W10616  25.677  35.388   2.192
38192W        W10617   7.761  39.295   1.488
38193W        W10618  44.812  21.023  12.962
38194W        W10619  12.113  19.077  14.035
38195W        W10620  24.710  34.159  13.433
38196W        W10621  33.550  12.785  13.329
38197W        W10622  28.477  35.784  11.577
38198W        W10623  26.047  41.350  11.512
38199W        W10624  35.018  21.771   0.043
38200W        W10625  26.151   0.305  11.359
38201W        W10626  11.761  40.805   0.210
38202W        W10627  14.356  37.406   4.265
38203W        W10628  40.590  39.843  10.369
38204W        W10629   2.659  39.949  14.316
38205W        W10630  32.425  38.832  13.000
38206W        W10631  27.256  17.572   1.090
38207W        W10632  19.291  34.017   1.764
38208W        W10633   8.403  25.156   1.864
38209W        W10634  36.922  30.358   1.171
38210W        W10635  43.506  23.584  14.823
38211W        W10636   2.439  10.726   1.816
38212W        W10637   8.349   5.325  10.615
38213W        W10638  29.325  16.876   3.668
38214W        W10639  44.748   6.892   3.904
38215W        W10640  28.967  19.679   0.423
38216W        W10641  19.445   2.952  12.399
38217W        W10642  43.090   1.900  12.606
38218W        W10643  25.068  26.112  14.039
38219W        W10644  16.821   2.140  11.236
38220W        W10645  21.741   2.810  13.551
38221W        W10646  41.429   8.372   3.274
38222W        W10647  27.236  19.830   3.205
38223W        W10648   0.356   1.253  13.957
38224W        W10649  10.440  19.378  11.202
38225W        W10650  14.676  14.318  10.728
38226W        W10651  13.122   0.412   2.935
38227W        W10652  41.865  35.593   4.201
38228W        W10653  34.513  40.886  12.996
38229W        W10654  35.763  40.808  14.328
38230W        W10655  33.648  44.675   4.557
38231W        W10656  16.290   7.217  13.059
38232W        W10657  28.216  26.021  13.053
38233W        W10658   0.424   9.695   4.786
38234W        W10659  34.343  15.405   0.896
38235W        W10660  41.725   1.133   0.319
38236W        W10661  12.153  18.787  11.039
38237W        W10662  17.269  38.544   3.327
38238W        W10663  44.448  17.221   2.347
38239W        W10664  35.334   6.917  13.996
38240W        W10665  15.278  28.026   0.854
38241W        W10666   7.159  35.346   1.465
38242W        W10667   0.995  32.335  10.606
38243W        W10668  20.581  16.013   2.427
38244W        W10669  19.303   1.808   0.598
38245W        W10670   1.972  39.282   4.028
38246W        W10671  29.617  11.613   2.319
38247W        W10672   9.932  44.404   4.607
38248W        W10673  33.282  37.324   3.303
38249W        W10674  33.946  31.811   4.686
38250W        W10675  43.840  20.842   4.892
38251W        W10676  31.151  23.667  10.562
38252W        W10677  40.766  31.089   4.997
38253W        W10678   2.642  18.380  14.464
38254W        W10679  20.789  38.857  11.098
38255W        W10680  34.425  18.547   1.833
38256W        W10681  37.853   7.153  14.836
38257W        W10682  35.958  33.271   3.319
38258W        W10683   3.064  36.153  14.931
38259W        W10684  23.672  16.745  13.047
38260W        W10685  25.920   6.524  10.892
38261W        W10686  36.504  12.480  14.488
38262W        W10687  11.896  13.170   4.048
38263W        W10688  20.113  35.874   4.553
38264W        W10689  42.304  14.192  12.084
38265W        W10690   0.208  32.039   2.214
38266W        W10691  42.843   8.124   2.095
38267W        W10692  20.001  15.748   1.779
38268W        W10693  15.670  34.402  12.544
38269W        W10694  28.423  32.594  12.549
38270W        W10695  39.944  28.178   3.273
38271W        W10696  35.765  20.209   2.227
38272W        W10697  44.820  13.504   0.456
38273W        W10698  38.784  30.990  14.795
38274W        W10699  19.468  20.608  13.137
38275W        W10700  36.629  20.563   1.746
38276W        W10701  13.968  13.410  14.992
38277W        W10702  12.973   4.807   5.096
38278W        W10703  27.085  10.128   0.887
38279W        W10704  39.796  16.338  12.361
38280W        W10705   3.303   4.733   2.896
38281W        W10706  15.526   8.726   1.524
38282W        W10707  34.612  43.541   1.383
38283W        W10708  44.583  25.193  11.092
38284W        W10709  41.071  18.878  11.114
38285W        W10710   4.818  17.070  10.351
38286W        W10711  33.878  26.727  14.752
38287W        W10712  30.161  28.868  10.995
38288W        W10713  23.315  30.205   1.811
38289W        W10714  22.350   3.801   3.177
38290W        W10715  35.571  23.251  12.557
38291W        W10716   2.375   7.592  14.506
38292W        W10717  34.151  41.844   0.337
38293W        W10718  39.099   5.222  10.994
38294W        W10719  24.519  36.687   0.736
38295W        W10720  24.935  33.564   4.005
38296W        W10721  30.955   9.679  12.685
38297W        W10722   1.076   2.370  13.860
38298W        W10723  44.709   8.790   2.758
38299W        W10724  10.648   8.213  11.929
38300W        W10725  32.486  31.217  14.043
38301W        W10726   1.581  20.885  13.951
38302W        W10727   1.207   5.295   3.142
38303W        W10728  37.540  32.591  13.541
38304W        W10729  16.648  17.597   0.074
38305W        W10730  14.278  36.430  13.587
38306W        W10731   6.832  11.604   0.420
38307W        W10732  27.069  33.636  11.463
38308W        W10733   1.227  12.256  10.276
38309W        W10734  26.518   4.385   2.696
38310W        W10735  29.826   8.961  11.441
38311W        W10736  13.756  35.538  13.431
38312W        W10737  22.445   3.834  14.968
38313W        W10738  26.121  38.927  13.110
38314W        W10739  21.048   7.326   4.822
38315W        W10740   4.510  30.897  14.540
38316W        W10741   6.876  14.158   2.167
38317W        W10742  36.356  20.711   3.256
38318W        W10743   7.207  33.025   4.348
38319W        W10744   5.047   7.711  14.992
38320W        W10745   9.477  19.587   5.116
38321W        W10746  26.441  27.340  10.293
38322W        W10747   7.475  38.451  14.292
38323W        W10748  22.107  13.794   0.871
38324W        W10749   5.000  16.228  14.500
38325W        W10750   1.490   0.431  11.865
38326W        W10751  19.195  44.504   0.753
38327W        W10752  40.808   5.318  13.815
38328W        W10753   7.320  19.246  14.953
38329W        W10754   0.963  12.287  13.889
38330W        W10755  38.391  26.500   4.261
38331W        W10756  42.508  27.136   3.217
38332W        W10757  31.933  14.744  14.254
38333W        W10758  13.781  41.604   2.827
38334W        W10759  42.061  23.670  12.436
38335W        W10760  21.805  38.867  10.261
38336W        W10761  31.067  21.260   4.733
38337W        W10762  40.730  22.561   5.021
38338W        W10763  21.016  22.141  13.061
38339W        W10764   8.653  20.438  11.058
38340W        W10765  17.179  12.263  13.693
38341W        W10766  41.325  44.921  11.396
38342W        W10767  43.710  21.562  14.950
38343W        W10768   9.095  26.980  12.992
38344W        W10769  32.115  18.269  10.355
38345W        W10770   4.906   4.487  12.009
38346W        W10771  35.265  15.909  11.078
38347W        W10772  22.952  18.030   0.039
38348W        W10773  35.814  35.401   2.355
38349W        W10774  15.570  20.993   1.426
38350W        W10775  44.422  26.971  12.155
38351W        W10776  17.737  41.885  12.628
38352W        W10777  10.373  30.946   5.019
38353W        W10778  24.307  31.935   0.515
38354W        W10779  19.499  10.360  10.325
38355W        W10780  23.552  43.294   2.169
38356W        W10781   0.825  42.138  12.430
38357W        W10782  37.483  16.380   1.697
38358W        W10783  38.715  24.400  11.111
38359W        W10784   7.857  21.558   4.564
38360W        W10785  12.757  31.707  11.122
38361W        W10786   7.609  21.314   1.359
38362W        W10787  42.265  28.448   3.076
38363W        W10788  30.509  44.927   3.587
38364W        W10789  11.652   7.962   1.308
38365W        W10790  10.678  17.565   4.651
38366W        W10791  36.505   8.500   9.830
38367W        W10792  18.149  40.558   1.884
38368W        W10793  40.110  10.774   4.666
38369W        W10794  22.444  14.740   1.031
38370W        W10795  24.773  34.050  11.600
38371W        W10796  34.375   5.713  13.521
38372W        W10797  22.564  34.366   1.477
38373W        W10798  43.309  44.982  11.465
38374W        W10799  17.802  41.313   4.106
38375W        W10800  18.220  25.812   3.676
38376W        W10801  30.331  39.463   0.212
38377W        W10802  29.573  15.457  12.122
38378W        W10803  39.569  18.981  12.581
38379W        W10804  33.925  16.774   4.894
38380W        W10805  42.732   6.079  13.260
38381W        W10806  43.286   6.783  14.814
38382W        W10807  12.014  17.825   1.806
38383W        W10808  32.872  10.691   1.716
38384W        W10809   3.229  39.545  11.142
38385W        W10810  39.622  35.587   0.730
38386W        W10811  17.038  25.060  14.044
38387W        W10812  24.577  22.600  11.263
38388W        W10813  28.460  41.929   4.126
38389W        W10814  19.116  19.814  14.042
38390W        W10815  38.564  22.470   4.190
38391W        W10816  37.880  33.119  10.988
38392W        W10817  28.654   3.253   1.675
38393W        W10818  23.691  15.328  12.091
38394W        W10819  30.686  23.980  13.834
38395W        W10820  17.296   2.298  14.564
38396W        W10821  25.081   9.315   3.873
38397W        W10822  44.376  21.814  12.460
38398W        W10823  17.266  34.566   4.667
38399W        W10824  20.179  15.212  11.350
38400W        W10825  44.380  20.841  12.305
38401W        W10826  12.236  21.169  12.203
38402W        W10827   1.609  35.347  14.856
38403W        W10828  40.844  28.912  14.845
38404W        W10829  14.714   7.944  13.572
38405W        W10830  10.299  27.026  11.141
38406W        W10831  35.769   7.254   2.872
38407W        W10832  26.579  34.485  11.106
38408W        W10833  32.049   8.772  10.499
38409W        W10834  14.747   7.709  13.080
38410W        W10835   3.846   9.888   3.831
38411W        W10836  38.517  30.829   4.225
38412W        W10837   2.023  25.007  10.711
38413W        W10838   8.928  32.352  11.173
38414W        W10839  21.451   0.779   0.944
38415W        W10840   1.356  42.953   1.448
38416W        W10841  15.793  32.151  10.643
38417W        W10842  34.153  20.730  14.516
38418W        W10843  34.543   9.669  11.114
38419W        W10844  20.668  39.552  12.471
38420W        W10845  25.935  37.565  13.448
38421W        W10846  22.996  20.489  10.856
38422W        W10847  33.012  30.542  11.935
38423W        W10848  25.227  35.556   1.352
38424W        W10849  15.935  37.799  13.013
38425W        W10850  33.822  32.955   1.395
38426W        W10851  33.148   6.147  14.286
38427W        W10852  44.554  27.894   4.074
38428W        W10853  42.633  27.062   0.482
38429W        W10854   1.382  12.141  14.764
38430W        W10855  41.936  22.040  11.230
38431W        W10856  41.075  33.686   4.115
38432W        W10857  26.018   4.765  13.394
38433W        W10858  22.032  33.487  14.365
38434W        W10859  27.464  21.011   2.917
38435W        W10860   7.651   2.355  11.194
38436W        W10861  32.600  38.072   4.369
38437W        W10862  14.404  24.405   3.229
38438W        W10863  40.935  14.245  12.364
38439W        W10864  33.836  12.304  14.863
38440W        W10865   8.748  29.084  12.459
38441W        W10866  35.903  35.012  12.446
38442W        W10867   1.897  41.279  10.741
38443W        W10868  25.460  30.963  12.842
38444W        W10869  19.486  25.670   2.330
38445W        W10870  32.459   8.589   0.243
38446W        W10871   9.807  28.070  10.660
38447W        W10872  34.531   9.888   2.808
38448W        W10873  31.597   7.101  12.900
38449W        W10874  35.621  43.334  12.157
38450W        W10875  32.162  24.061  13.647
38451W        W10876  44.832  34.641  13.456
38452W        W10877  42.845  38.430   0.435
38453W        W10878  17.687   1.848   0.795
38454W        W10879  17.503  41.541   4.496
38455W        W10880  21.059  18.276  14.914
38456W        W10881   0.743  41.873   2.903
38457W        W10882  11.693  41.228   2.359
38458W        W10883  17.525   3.510   4.736
38459W        W10884   4.993   1.542   2.782
38460W        W10885  42.794  32.186   4.606
38461W        W10886  20.313  29.440  14.703
38462W        W10887  17.286   9.462  12.834
38463W        W10888  42.782   2.323   0.677
38464W        W10889   0.693  23.178  10.756
38465W        W10890  41.159   5.369   3.257
38466W        W10891  40.717  29.084   2.102
38467W        W10892   4.038  33.439   2.450
38468W        W10893  27.617  32.970  12.401
38469W        W10894  13.391   5.890   1.270
38470W        W10895  10.742  28.018   1.927
38471W        W10896   7.076  24.175   2.245
38472W        W10897   9.081   5.262   3.796
38473W        W10898  13.568  37.522  12.054
38474W        W10899  44.300   6.554  13.385
38475W        W10900  40.912  12.815   4.702
38476W        W10901  18.491  38.995   4.151
38477W        W10902  20.483  10.186  10.862
38478W        W10903   7.121  28.228   4.539
38479W        W10904  30.924   7.714   3.327
38480W        W10905  14.369  43.587  11.476
38481W        W10906  37.458  26.716   1.205
38482W        W10907  16.380  19.640  10.877
38483W        W10908   4.811  10.476  14.090
38484W        W10909  38.843  21.079   4.598
38485W        W10910  38.972  26.088   0.554
38486W        W10911  33.539   1.940   3.755
38487W        W10912  10.247  29.689   4.646
38488W        W10913  36.928   6.869   0.162
38489W        W10914  12.734  31.060   4.081
38490W        W10915  13.594   4.716  10.860
38491W        W10916  24.536  32.865   4.615
38492W        W10917  39.473  27.107  12.930
38493W        W10918  14.567  42.208  11.302
38494W        W10919   7.513   7.821  12.486
38495W        W10920  33.092  12.206   3.341
38496W        W10921  27.213  32.995  12.047
38497W        W10922   0.071  36.934   4.532
38498W        W10923  21.447  39.066   4.495
38499W        W10924  44.314   3.421   3.220
38500W        W10925  40.837  31.888  13.413
38501W        W10926  30.541  15.153  11.965
38502W        W10927  10.874  36.473  13.120
38503W        W10928  38.107  28.752  12.260
38504W        W10929  21.865   2.808  14.882
38505W        W10930  33.354   4.750  13.097
38506W        W10931  36.059   2.699   4.549
38507W        W10932  11.695   1.857   2.085
38508W        W10933  28.036  18.078  12.380
38509W        W10934  23.746  17.093  12.364
38510W        W10935  30.373   5.318  10.936
38511W        W10936  14.244   4.844   2.425
38512W        W10937  12.442  32.606   1.543
38513W        W10938   7.094   5.208  13.573
38514W        W10939   3.176  38.592  12.935
38515W        W10940  33.490  38.336  11.228
38516W        W10941  35.136  33.840  13.906
38517W        W10942  12.338   8.180   2.304
38518W        W10943  10.199  36.562   2.197
38519W        W10944  41.867  13.654  14.468
38520W        W10945  11.495  28.714  14.992
38521W        W10946   9.752  18.759  14.563
38522W        W10947   7.632  43.797   3.853
38523W        W10948  18.054  12.693   0.769
38524W        W10949   8.700  30.041   0.250
38525W        W10950  16.732  18.694  10.419
38526W        W10951  30.990  21.259  10.072
38527W        W10952   9.906  34.986  11.742
38528W        W10953  26.721  16.912  13.624
38529W        W10954  33.526   5.141  13.439
38530W        W10955  15.357  39.352  13.333
38531W        W10956  26.163   3.969  13.007
38532W        W10957  34.498  35.534  11.455
38533W        W10958   3.406  30.960   1.417
38534W        W10959  41.113  30.738  13.966
38535W        W10960  39.134  40.123  14.936
38536W        W10961  13.175  19.561   3.546
38537W        W10962  10.383   3.411   0.737
38538W        W10963  22.963  27.549   3.815
38539W        W10964  16.167  26.610  13.546
38540W        W10965  39.604   4.694  14.830
38541W        W10966   6.865  22.843   0.299
38542W        W10967  27.263   8.207   2.656
38543W        W10968  19.554  27.801   0.465
38544W        W10969  18.012  41.663  13.026
38545W        W10970   9.293  34.128   1.225
38546W        W10971   7.132  18.110  13.858
38547W        W10972   9.376  37.472  12.528
38548W        W10973  42.802  26.206  14.894
38549W        W10974  33.621   5.590   3.438
38550W        W10975  40.137  20.700   3.258
38551W        W10976   7.686   3.706  10.908
38552W        W10977   4.958  17.991   3.126
38553W        W10978   2.826   3.183  13.145
38554W        W10979   5.368  11.178   3.244
38555W        W10980  35.968  28.032  10.711
38556W        W10981  33.937  40.905  13.922
38557W        W10982  22.052  12.929   2.702
38558W        W10983  19.323  15.183  14.288
38559W        W10984  25.630  26.132   4.596
38560W        W10985  10.154  39.037   2.362
38561W        W10986  30.189  20.761   2.535
38562W        W10987  20.461   6.591  11.102
38563W        W10988   8.305   3.820  13.111
38564W        W10989   8.682  34.569   0.388
38565W        W10990   7.369  27.644   0.584
38566W        W10991  13.563  32.089  11.521
38567W        W10992  27.997  38.546   0.002
38568W        W10993  35.904   4.264   3.147
38569W        W10994  18.340  12.876   1.856
38570W        W10995  30.946  14.414   4.247
38571W        W10996  44.399  16.337   2.620
38572W        W10997  34.999  19.574  13.074
38573W        W10998  29.181  11.583  10.433
38574W        W10999  35.537  25.726  14.317
38575W        W11000   9.801  31.227   3.062
38576W        W11001  38.301  36.837   2.678
38577W        W11002  31.333  20.026   1.240
38578W        W11003  10.104  32.102  13.060
38579W        W11004  15.556  41.263  12.926
38580W        W11005  35.890  37.006   0.500
38581W        W11006  25.805  15.197   2.713
38582W        W11007  34.610  39.515   3.179
38583W        W11008  31.571  43.991  11.192
38584W        W11009  28.716  15.240   4.210
38585W        W11010  43.305  19.205   1.830
38586W        W11011  41.102  35.744   3.522
38587W        W11012  20.655   7.399   3.634
38588W        W11013   2.643  19.335  12.412
38589W        W11014  31.823   1.915   3.316
38590W        W11015  43.139  44.702   0.252
38591W        W11016  18.784  23.554  14.334
38592W        W11017  25.734  27.463  11.095
38593W        W11018  32.525  12.600   4.281
38594W        W11019   0.379  19.284  11.414
38595W        W11020  21.204   0.022   3.931
38596W        W11021   7.412  24.520  14.061
38597W        W11022   1.109  32.415   1.770
38598W        W11023  17.389   7.507  10.245
38599W        W11024   6.429  37.412  13.022
38600W        W11025  34.530  29.680   0.487
38601W        W11026  29.096  32.042  12.662
38602W        W11027  13.306  43.089   2.733
38603W        W11028  30.837  42.967  11.780
38604W        W11029   7.450  21.215  12.780
38605W        W11030  44.932  21.193   3.114
38606W        W11031  17.721   0.914   1.371
38607W        W11032  31.217  34.866   1.309
38608W        W11033  10.745   3.162   4.149
38609W        W11034  35.035  22.706  12.557
38610W        W11035  17.541  32.356  14.411
38611W        W11036  26.955  30.364   4.684
38612W        W11037  44.666  19.662  13.483
38613W        W11038   0.274  31.063   4.579
38614W        W11039  42.482  33.624   0.943
38615W        W11040  24.589  33.169   2.816
38616W        W11041   2.197  36.253  11.315
38617W        W11042  18.839  14.702  11.979
38618W        W11043  23.477  27.443  11.623
38619W        W11044  21.758  44.085   1.884
38620W        W11045  14.715  41.501   3.530
38621W        W11046  17.167  16.153   3.169
38622W        W11047   4.738  10.216   4.936
38623W        W11048  22.123  30.276   3.199
38624W        W11049  31.024  43.638  13.881
38625W        W11050  18.626   2.170   3.762
38626W        W11051  15.284  43.290  12.433
38627W        W11052   8.306  27.449   2.292
38628W        W11053   2.417  43.273  11.212
38629W        W11054  30.720   3.846  11.397
38630W        W11055   2.295  29.704  13.823
38631W        W11056   1.979  20.075  14.446
38632W        W11057   4.748  24.006   3.187
38633W        W11058  41.877  34.502  14.399
38634W        W11059  20.778  35.965  12.565
38635W        W11060  43.426  42.774   3.737
38636W        W11061   9.567  20.615  14.570
38637W        W11062  42.785  37.833   3.125
38638W        W11063  13.231  32.920   4.403
38639W        W11064  30.624  31.935  11.420
38640W        W11065  11.852  40.163  11.068
38641W        W11066  24.081  16.793  14.601
38642W        W11067  18.703   4.911   1.759
38643W        W11068  24.266  41.544   0.755
38644W        W11069  13.221  17.071   0.865
38645W        W11070  29.202  26.493   2.814
38646W        W11071  37.293   1.696  12.833
38647W        W11072  33.332  11.202  10.286
38648W        W11073  15.603   9.797  10.595
38649W        W11074  34.096  25.594   0.429
38650W        W11075  41.516   1.909   2.180
38651W        W11076  27.741  14.620  11.904
38652W        W11077  33.633  38.899  13.895
38653W        W11078  42.913  26.005  13.782
38654W        W11079  14.041   3.206  10.142
38655W        W11080  16.546  16.701   3.072
38656W        W11081  30.125  40.022  13.404
38657W        W11082  40.482   8.530  11.549
38658W        W11083  40.963  34.999   2.807
38659W        W11084  31.641   1.327  11.727
38660W        W11085  39.975   7.178  13.395
38661W        W11086   8.120  32.650  11.547
38662W        W11087  35.521   2.039   0.484
38663W        W11088  30.852  23.569  13.564
38664W        W11089   2.725   7.797  11.611
38665W        W11090  11.901  14.272  10.594
38666W        W11091  12.318  38.784   0.262
38667W        W11092   3.247  25.109  13.011
38668W        W11093   7.580  24.067   2.296
38669W        W11094   3.774   2.745   2.428
38670W        W11095  34.569  18.804   1.428
38671W        W11096  18.158  23.701  12.180
38672W        W11097   0.740  32.564  11.028
38673W        W11098  23.620  16.142   0.513
38674W        W11099  21.196  18.015   0.363
38675W        W11100  16.797  40.994   3.294
38676W        W11101  14.361  23.257   9.790
38677W        W11102  31.570  28.854  13.079
38678W        W11103  37.331  10.343  13.322
38679W        W11104  36.520  35.575  12.254
38680W        W11105  43.508  10.340   1.460
38681W        W11106  31.492  16.623   1.936
38682W        W11107   5.306  29.112  12.818
38683W        W11108  44.078  29.174   2.331
38684W        W11109  29.766  13.843   0.211
38685W        W11110  10.825  32.861   4.174
38686W        W11111  30.438  13.642   4.674
38687W        W11112  23.722  42.398   3.347
38688W        W11113  17.564   6.438  12.512
38689W        W11114  41.601  38.629  14.941
38690W        W11115  32.481  16.206   4.049
38691W        W11116   2.493  44.586   2.792
38692W        W11117  28.484  39.525  14.916
38693W        W11118  36.671  27.123   4.494
38694W        W11119   6.241  41.504   2.647
38695W        W11120  14.576  26.534  11.907
38696W        W11121  17.976  33.132  10.710
38697W        W11122  40.269  19.504   3.928
38698W        W11123  39.007   1.029   4.745
38699W        W11124   0.161   2.300  13.000
38700W        W11125  25.965   7.702   2.733
38701W        W11126  18.407   0.331   0.485
38702W        W11127  33.697  23.613   1.242
38703W        W11128   6.645  27.312   0.517
38704W        W11129  35.330  16.336   0.418
38705W        W11130  37.797  25.940  13.460
38706W        W11131  35.061   5.675   1.389
38707W        W11132  15.620  35.664   2.471
38708W        W11133  40.854  13.181   1.484
38709W        W11134  19.146  32.974  13.355
38710W        W11135  25.408  14.741  11.513
38711W        W11136  38.369  32.192   4.896
38712W        W11137   6.849  29.062   4.245
38713W        W11138  26.685  43.346   0.489
38714W        W11139  38.494  11.875  11.901
38715W        W11140  11.075  14.605   3.381
38716W        W11141  32.611  35.637  11.403
38717W        W11142  24.698  13.281  14.268
38718W        W11143  29.893  25.941  11.055
38719W        W11144  41.416  37.804   4.733
38720W        W11145   2.369  42.440  10.656
38721W        W11146  15.174  44.126  11.168
38722W        W11147  22.111  44.949   2.136
38723W        W11148  37.775  26.058   0.473
38724W        W11149  40.361  28.336   0.880
38725W        W11150  38.539  27.927  11.081
38726W        W11151  23.507  30.042   1.284
38727W        W11152  30.529  32.450  11.619
38728W        W11153  21.044  14.607   3.544
38729W        W11154  35.093  35.614  14.959
38730W        W11155  29.627   2.899  12.807
38731W        W11156  24.952  12.039  14.355
38732W        W11157  26.407  15.211  14.080
38733W        W11158   3.190   5.189   0.283
38734W        W11159  11.871  21.142   3.827
38735W        W11160  43.935   8.712   3.344
38736W        W11161  28.026  37.352  11.146
38737W        W11162  34.086  26.600   1.743
38738W        W11163   3.463  13.351  11.935
38739W        W11164  15.074  17.792   2.290
38740W        W11165  42.495   3.781   3.633
38741W        W11166   5.147   4.075  14.382
38742W        W11167  32.825  35.445   2.594
38743W        W11168  40.533   5.612  11.601
38744W        W11169  43.884  23.045  11.047
38745W        W11170   5.184  33.356   0.143
38746W        W11171   7.350  42.870   4.320
38747W        W11172   4.372   7.620   4.347
38748W        W11173  41.375  43.952  10.958
38749W        W11174  24.454  10.849   0.543
38750W        W11175  12.922  26.075  13.376
38751W        W11176   4.215  18.140   0.328
38752W        W11177  23.104   4.353  11.183
38753W        W11178   9.854  26.033   2.328
38754W        W11179  34.063   7.990   4.157
38755W        W11180  26.102  40.910   3.502
38756W        W11181  20.294   4.413   1.317
38757W        W11182   0.669  22.604  13.817
38758W        W11183  19.289  42.379   4.831
38759W        W11184  40.171   9.216   4.544
38760W        W11185  12.612  29.451   1.951
38761W        W11186   3.115  28.654  12.672
38762W        W11187  30.734   9.762  13.154
38763W        W11188  15.546  38.316  11.381
38764W        W11189  38.572  14.746   2.416
38765W        W11190   5.392  27.750  13.381
38766W        W11191   6.821  10.334   1.034
38767W        W11192  31.883  41.901   2.390
38768W        W11193   0.879  28.967   2.217
38769W        W11194   2.431  36.553  12.639
38770W        W11195  20.178  26.117   4.551
38771W        W11196   1.694  11.194  12.288
38772W        W11197  15.380  15.670   0.925
38773W        W11198   8.246   8.180   4.163
38774W        W11199  26.574  19.353  14.199
38775W        W11200  21.628  12.545   4.595
38776W        W11201   0.718  33.193  10.264
38777W        W11202  31.427   6.387   1.229
38778W        W11203  21.097  34.059  12.391
38779W        W11204  34.541  12.273  12.441
38780W        W11205  31.681  39.380   1.258
38781W        W11206  12.700   4.444   2.169
38782W        W11207   1.252   6.953  13.382
38783W        W11208   4.928  15.460  13.855
38784W        W11209   5.263   8.189  12.550
38785W        W11210  21.284  11.179   1.298
38786W        W11211  23.619  34.969  14.086
38787W        W11212   5.398  26.019   0.731
38788W        W11213  30.054   1.671   0.233
38789W        W11214  17.319  40.013   0.863
38790W        W11215  28.195  38.391  11.632
38791W        W11216   4.631  33.382  12.917
38792W        W11217   7.207  42.927   2.764
38793W        W11218  39.363   4.759  11.654
38794W        W11219  16.325  40.769   2.393
38795W        W11220  29.601  23.546   4.220
38796W        W11221  39.350  42.133  13.948
38797W        W11222  10.660  42.719   1.380
38798W        W11223  42.713  31.118  13.522
38799W        W11224  23.989  39.269  11.523
38800W        W11225  19.694  24.677  12.121
38801W        W11226  10.446  37.431   4.120
38802W        W11227  24.098   0.501   0.511
38803W        W11228  18.672  21.970  14.058
38804W        W11229   6.558  27.656  13.435
38805W        W11230  43.220  26.011  11.177
38806W        W11231  37.310   2.495  11.022
38807W        W11232  32.534   3.512   3.650
38808W        W11233  24.425   4.962  14.309
38809W        W11234  30.725  31.634  13.885
38810W        W11235  14.271  18.466  12.112
38811W        W11236  26.307  20.616   3.369
38812W        W11237  32.635  34.889   4.143
38813W        W11238  20.586   2.355  10.930
38814W        W11239  18.307  42.012   2.252
38815W        W11240  25.808  22.740   5.045
38816W        W11241  14.779  21.239   2.120
38817W        W11242   0.253  40.033  11.977
38818W        W11243  15.549   5.984   0.297
38819W        W11244  22.674  39.065   5.087
38820W        W11245  11.600  43.014   3.002
38821W        W11246  40.612  16.989   4.549
38822W        W11247  27.112  30.971   4.546
38823W        W11248  30.458   3.809  14.907
38824W        W11249  17.753  20.614  11.441
38825W        W11250  32.866   2.362   0.690
38826W        W11251   2.207  36.743  11.127
38827W        W11252  39.015  44.083   4.627
38828W        W11253  14.697  23.595  10.004
38829W        W11254  25.120  16.606  12.088
38830W        W11255  35.149  21.661   2.876
38831W        W11256   3.309   2.423   4.146
38832W        W11257  25.985  24.312   4.476
38833W        W11258  17.240   4.545   4.378
38834W        W11259  35.903  22.953   3.612
38835W        W11260  32.561  21.317  12.492
38836W        W11261  15.849  35.406   4.644
38837W        W11262  13.429   9.063  11.048
38838W        W11263   5.971  33.363   4.058
38839W        W11264  32.020  10.860   0.101
38840W        W11265  17.259  40.965  10.426
38841W        W11266   4.056  16.068   1.255
38842W        W11267  18.013   6.848   0.061
38843W        W11268  33.971   1.034   0.197
38844W        W11269  10.553  37.000   4.407
38845W        W11270  33.151  28.594  12.535
38846W        W11271   2.894   4.634  12.063
38847W        W11272   1.494  20.724  12.451
38848W        W11273   1.267   5.673   2.750
38849W        W11274   7.587  29.482   4.267
38850W        W11275  24.286   9.120  12.651
38851W        W11276  40.019  20.646   4.557
38852W        W11277  22.148  16.010  14.527
38853W        W11278  12.332  25.936  12.968
38854W        W11279   1.868  37.802   3.131
38855W        W11280  11.818  17.128  10.794
38856W        W11281  44.956  31.169  14.456
38857W        W11282   9.739   9.476  13.829
38858W        W11283  30.551  16.244  12.082
38859W        W11284  39.988  39.156  13.766
38860W        W11285  24.690  43.735   2.732
38861W        W11286   8.282  28.232   4.483
38862W        W11287  27.942  15.358  12.984
38863W        W11288  27.974   2.771   1.659
38864W        W11289  15.057   8.735  12.615
38865W        W11290  33.937  25.118   4.596
38866W        W11291  30.936  37.619  13.936
38867W        W11292  42.612  24.959  14.582
38868W        W11293  17.680  31.207  11.621
38869W        W11294   6.165  44.019  13.156
38870W        W11295  39.364   6.899  11.394
38871W        W11296  17.098  11.338   2.789
38872W        W11297  31.631   1.331   1.304
38873W        W11298  21.475  18.230  10.608
38874W        W11299  32.169  20.450  11.054
38875W        W11300  34.230  26.923  14.352
38876W        W11301   7.809  10.273   2.301
38877W        W11302  31.148  25.461   1.322
38878W        W11303  18.305  17.806  12.454
38879W        W11304  12.568   1.285   9.776
38880W        W11305  24.284  30.168  13.528
38881W        W11306  17.068  29.314   3.919
38882W        W11307  39.436  43.000  12.390
38883W        W11308  36.676  43.294  13.476
38884W        W11309  39.125  39.710   4.052
38885W        W11310  15.035  20.226  10.502
38886W        W11311  11.370  22.196   2.774
38887W        W11312  24.061   2.928   0.563
38888W        W11313  15.257  24.953  11.220
38889W        W11314   0.337  25.286  12.041
38890W        W11315  33.148  16.644   0.426
38891W        W11316   5.773   3.921   2.220
38892W        W11317  33.712   4.718   3.774
38893W        W11318  40.808   4.768  13.295
38894W        W11319  22.174  44.953  10.752
38895W        W11320  35.465  10.807  12.352
38896W        W11321  16.830  17.727  14.098
38897W        W11322  29.392  42.292  14.757
38898W        W11323  24.727   7.428  14.377
38899W        W11324  10.032   4.925  13.812
38900W        W11325  36.987  39.414   5.032
38901W        W11326  41.860  29.002   1.371
38902W        W11327  40.957  10.845   4.173
38903W        W11328  32.604   5.775   3.686
38904W        W11329   4.754  26.002   0.393
38905W        W11330   4.211   9.912   2.138
38906W        W11331  44.786  23.990   2.190
38907W        W11332  42.769   7.385  12.534
38908W        W11333  32.400  41.234  10.332
38909W        W11334  27.035   8.384   0.401
38910W        W11335  27.494  27.542  12.498
38911W        W11336  35.549   8.650  10.603
38912W        W11337  23.201  10.638   4.573
38913W        W11338  14.656  18.714   0.841
38914W        W11339   7.960  42.265  10.539
38915W        W11340  38.797  27.548   0.514
38916W        W11341  26.529  12.865  10.615
38917W        W11342  17.361  27.034   4.124
38918W        W11343   8.518  12.830   1.353
38919W        W11344  28.096   7.567  11.393
38920W        W11345   3.351  23.170  13.821
38921W        W11346   5.797  40.358  11.637
38922W        W11347  24.677   0.308   4.104
38923W        W11348  43.919   1.721   3.596
38924W        W11349  19.959  18.177   0.786
38925W        W11350  10.873   2.448   1.854
38926W        W11351   1.673  44.275  14.503
38927W        W11352  42.727   3.060  11.127
38928W        W11353  43.452   6.578   4.549
38929W        W11354  27.495  13.352  12.568
38930W        W11355  42.481   6.886  14.171
38931W        W11356   3.966  38.015  14.958
38932W        W11357  33.677  39.818  14.242
38933W        W11358  27.754  40.789   2.259
38934W        W11359  33.880  44.827   4.102
38935W        W11360  25.660  38.849  14.772
38936W        W11361   3.925  31.813   0.868
38937W        W11362  11.692   6.733   3.468
38938W        W11363  43.870  12.267   3.315
38939W        W11364  41.765  33.683  11.549
38940W        W11365  42.833  15.179   1.724
38941W        W11366   8.818  30.035   1.221
38942W        W11367  20.070  41.119   3.696
38943W        W11368  14.255  30.859  13.283
38944W        W11369  41.422  39.916  11.939
38945W        W11370   1.775  16.760  14.691
38946W        W11371   8.923  32.044  11.579
38947W        W11372  40.395  35.167  12.994
38948W        W11373  18.515  39.919   1.288
38949W        W11374  15.586  37.379  11.638
38950W        W11375  20.475  35.080  11.081
38951W        W11376   9.363  15.318   1.174
38952W        W11377  10.798  12.738   2.312
38953W        W11378  23.512  14.496  13.837
38954W        W11379   5.255  28.494   4.924
38955W        W11380   1.959  32.696   3.689
38956W        W11381  40.309  17.275  14.925
38957W        W11382   4.089  16.672  10.549
38958W        W11383   2.439   9.360  12.520
38959W        W11384  34.027  24.047   1.253
38960W        W11385  43.249  23.314  11.171
38961W        W11386  37.284   6.128   4.996
38962W        W11387  14.106   3.865   3.378
38963W        W11388  10.357  18.635   2.603
38964W        W11389  30.618  12.293   1.789
38965W        W11390  16.095   2.322  14.521
38966W        W11391  17.768  21.998   3.339
38967W        W11392   3.187  34.636   4.361
38968W        W11393  38.277  25.705   1.206
38969W        W11394  23.536  37.235  14.313
38970W        W11395  11.832  44.665   0.021
38971W        W11396   0.719  27.016   3.578
38972W        W11397  32.452  41.572   2.854
38973W        W11398   1.882  30.539  11.172
38974W        W11399   3.420  12.133  12.868
38975W        W11400  18.322  22.065   1.140
38976W        W11401  23.163  21.952  14.023
38977W        W11402   5.596  44.803   0.321
38978W        W11403  43.956  35.884   4.523
38979W        W11404  43.547  43.877  12.439
38980W        W11405   8.225  40.114  11.403
38981W        W11406   0.502   0.319  13.967
38982W        W11407   3.770  21.492  12.618
38983W        W11408  25.811   2.362   2.941
38984W        W11409  27.441  28.486  10.921
38985W        W11410  25.431   7.150  13.847
38986W        W11411  11.699  32.281   4.232
38987W        W11412  44.596   6.725   1.342
38988W        W11413  44.229  23.714  11.094
38989W        W11414  39.858   0.484   4.767
38990W        W11415  38.835   3.083  13.289
38991W        W11416   6.187   5.237   1.698
38992W        W11417  29.424  30.379   2.770
38993W        W11418  11.330  27.956  12.592
38994W        W11419   8.257  30.476  12.660
38995W        W11420   9.633  28.180  13.996
38996W        W11421  13.659  35.555   0.698
38997W        W11422  16.149  24.461   1.318
38998W        W11423  13.745  12.157   3.168
38999W        W11424   2.415   7.457   3.888
39000W        W11425  28.733  44.968   0.332
39001W        W11426  33.946   4.998   1.352
39002W        W11427   9.737  21.108  12.989
39003W        W11428  20.191  18.591  11.599
39004W        W11429  25.707  34.632  10.735
39005W        W11430  16.340   9.711  14.800
39006W        W11431   6.814  28.158  13.168
39007W        W11432  25.210   4.261   1.146
39008W        W11433  11.082  26.371  12.995
39009W        W11434  38.514  13.658   4.424
39010W        W11435   0.325  12.075   3.126
39011W        W11436  17.786  27.464  12.111
39012W        W11437  41.519  33.532  10.919
39013W        W11438  37.087  29.176   2.730
39014W        W11439  20.162   9.658   0.407
39015W        W11440   8.517  27.604  13.796
39016W        W11441  33.678   4.272   3.530
39017W        W11442  30.989  25.645   4.045
39018W        W11443  30.603  33.839   4.028
39019W        W11444  42.887  31.931   2.367
39020W        W11445  28.278  35.341   4.155
39021W        W11446  26.094  40.097   1.197
39022W        W11447  36.869  42.549  13.861
39023W        W11448   4.697  41.466   0.227
39024W        W11449  22.520  35.381   2.233
39025W        W11450  12.732   4.735   3.848
39026W        W11451  38.279  39.527   2.132
39027W        W11452   2.271  25.992  13.140
39028W        W11453   7.113  34.434  13.970
39029W        W11454  44.732  34.451   4.373
39030W        W11455  21.482   2.589   2.166
39031W        W11456  24.718  12.818  11.446
39032W        W11457  13.199  41.980   2.338
39033W        W11458  40.979  10.788   1.482
39034W        W11459  24.612  33.063  10.533
39035W        W11460  26.606   7.576  14.269
39036W        W11461  17.634  18.187   2.197
39037W        W11462   4.919  41.804  12.013
39038W        W11463  43.792  15.149  14.766
39039W        W11464   8.850  41.900   4.575
39040W        W11465  38.156  18.101   0.793
39041W        W11466  13.805  43.498  10.656
39042W        W11467  19.088   5.788  12.922
39043W        W11468  29.096  31.405  14.865
39044W        W11469  20.359  12.557  13.943
39045W        W11470  10.123  35.056   0.068
39046W        W11471  15.256  29.508  11.155
39047W        W11472  14.139  34.932   2.259
39048W        W11473  13.078  24.674  13.447
39049W        W11474   0.398  12.070  11.699
39050W        W11475   7.527  38.121   0.734
39051W        W11476  31.972  38.628  12.861
39052W        W11477   0.111  20.831   0.771
39053W        W11478  30.440  41.026  10.203
39054W        W11479  33.018  41.030  10.753
39055W        W11480  16.771  23.859   2.278
39056W        W11481  41.967  29.050  13.016
39057W        W11482  34.954  35.296  10.656
39058W        W11483  41.531  10.170   0.327
39059W        W11484  27.087  41.376   1.470
39060W        W11485  31.995  23.233   0.969
39061W        W11486  18.262   6.441   0.770
39062W        W11487  23.072   1.275  11.281
39063W        W11488  43.553  38.095   1.779
39064W        W11489  40.572  31.807  12.514
39065W        W11490  30.591   3.430  14.052
39066W        W11491  26.300   1.818   2.253
39067W        W11492  18.805  16.062   2.228
39068W        W11493  41.046  26.475  13.420
39069W        W11494   1.002  19.022   0.404
39070W        W11495  33.815   4.534  11.471
39071W        W11496   2.507  39.563  14.987
39072W        W11497  34.584   4.927   4.404
39073W        W11498  15.202   1.036   3.605
39074W        W11499  31.193  23.315   9.673
39075W        W11500  30.370  19.025  13.512
39076W        W11501  38.346  13.889  10.770
39077W        W11502  21.688  38.463  11.508
39078W        W11503  11.856  17.112  13.822
39079W        W11504   2.142  30.545   5.093
39080W        W11505  41.240  37.730   1.528
39081W        W11506  19.981  20.545   2.725
39082W        W11507  37.440  35.093   3.546
39083W        W11508  44.721  13.329  13.449
39084W        W11509  27.578  24.756   0.320
39085W        W11510  15.095  36.053   0.393
39086W        W11511  32.912  13.585   4.638
39087W        W11512  25.965  14.048   0.403
39088W        W11513  36.967  15.850  10.002
39089W        W11514  29.974  12.249   3.473
39090W        W11515  32.925   3.205   0.485
39091W        W11516  23.663  31.848  12.768
39092W        W11517  10.983   1.162   3.182
39093W        W11518  10.862  34.664  13.371
39094W        W11519  26.875  15.515   9.826
39095W        W11520  25.371   9.753   1.237
39096W        W11521  18.224  37.415   2.429
39097W        W11522  32.937   8.340   4.042
39098W        W11523  10.175   0.797   1.845
39099W        W11524   3.993   6.785   0.139
39100W        W11525  29.365  29.232   0.299
39101W        W11526  35.947   7.542   2.026
39102W        W11527  41.433  21.738   3.322
39103W        W11528  15.392   7.298  11.386
39104W        W11529  17.514  33.583   2.621
39105W        W11530  22.085  13.799   2.422
39106W        W11531  35.741  22.706   1.918
39107W        W11532   8.691  15.077   0.459
39108W        W11533  31.164  12.847  12.119
39109W        W11534  20.505  25.016   1.846
39110W        W11535  31.003  13.433  14.035
39111W        W11536  14.736   1.333   3.087
39112W        W11537  12.766  15.875   4.024
39113W        W11538  24.190  17.249  14.353
39114W        W11539   6.295  41.116  14.286
39115W        W11540   8.651  21.538   3.654
39116W        W11541  16.297  32.064  10.590
39117W        W11542  12.579  33.174  14.334
39118W        W11543  12.157  23.951   0.722
39119W        W11544  25.578  15.214  11.595
39120W        W11545  13.619  23.882  11.007
39121W        W11546  18.231  39.684   3.996
39122W        W11547  32.081  14.598  12.602
39123W        W11548  44.687   9.788  13.347
39124W        W11549  42.236  23.681  12.982
39125W        W11550  42.943  12.286  12.661
39126W        W11551  35.520  20.990  13.945
39127W        W11552  34.581   5.846   2.269
39128W        W11553  38.344   4.692  13.479
39129W        W11554  23.273  34.253  12.551
39130W        W11555   0.606  38.296  12.594
39131W        W11556  30.869   9.187  13.439
39132W        W11557  14.597   7.454  13.491
39133W        W11558  14.039  42.311   2.507
39134W        W11559  27.132  43.164  12.506
39135W        W11560  43.781  10.789   1.428
39136W        W11561  33.614  22.914   2.311
39137W        W11562  38.105  12.813   3.685
39138W        W11563  10.529  13.420   2.874
39139W        W11564  19.090  36.521  14.833
39140W        W11565  32.787   6.378  14.696
39141W        W11566  14.367  25.629  11.142
39142W        W11567  32.096  41.009  14.758
39143W        W11568   0.789   1.085  11.990
39144W        W11569  20.657  35.889  13.389
39145W        W11570  32.256  10.686   4.668
39146W        W11571  28.703   1.352   2.022
39147W        W11572  20.858  15.810  11.613
39148W        W11573  43.394  44.392   4.849
39149W        W11574   8.681  18.239  13.293
39150W        W11575  23.421   8.939   0.323
39151W        W11576   5.244  40.370   4.802
39152W        W11577  26.409  18.497   4.125
39153W        W11578  12.900  11.751   0.061
39154W        W11579   5.489  33.164  10.718
39155W        W11580  14.072  35.337  13.851
39156W        W11581   5.005  22.936   1.322
39157W        W11582  26.435  10.510   4.938
39158W        W11583  23.340   5.199  13.090
39159W        W11584  42.221  39.264  14.813
39160W        W11585   7.162   8.676  14.446
39161W        W11586  43.835  38.580   2.267
39162W        W11587  23.947   7.809  10.843
39163W        W11588   4.857  19.097   1.422
39164W        W11589  12.587  26.448   0.365
39165W        W11590  30.153  29.431   3.881
39166W        W11591  39.295   4.852  10.651
39167W        W11592  26.196  24.534   0.962
39168W        W11593  43.320   5.406   2.983
39169W        W11594  40.908  16.930  12.512
39170W        W11595  32.223  28.427  13.995
39171W        W11596  44.240  22.124   0.244
39172W        W11597  11.922  19.622  11.141
39173W        W11598  31.794  27.122  13.726
39174W        W11599  17.175  26.550  14.845
39175W        W11600  36.222   0.376   2.742
39176W        W11601  33.151  14.025   3.589
39177W        W11602   4.002   5.124   0.902
39178W        W11603  25.940  42.431   1.179
39179W        W11604  40.862   1.920  13.348
39180W        W11605  36.767   8.349  13.058
39181W        W11606  14.091   1.115   2.237
39182W        W11607  24.586  30.682   0.469
39183W        W11608  40.418  36.567   1.068
39184W        W11609   2.351  26.818  13.722
39185W        W11610  15.492  37.757  11.123
39186W        W11611  21.034  42.844   4.222
39187W        W11612  33.764  26.521   3.438
39188W        W11613  13.563  38.293   3.562
39189W        W11614  20.130  42.488   1.244
39190W        W11615  24.718  10.770  11.117
39191W        W11616  13.039  11.895  10.248
39192W        W11617  25.085   3.280  14.563
39193W        W11618  22.400  13.158  11.513
39194W        W11619   3.821   6.675  12.442
39195W        W11620  21.270  15.648   2.839
39196W        W11621   9.688  26.629   4.025
39197W        W11622  12.853   2.855   2.633
39198W        W11623  22.938  18.859  13.032
39199W        W11624  20.713   6.578  11.921
39200W        W11625  35.695   6.191   0.898
39201W        W11626  42.890  34.753  10.831
39202W        W11627  30.664  26.587   4.993
39203W        W11628  17.705  26.701   1.509
39204W        W11629  11.427  29.684  11.527
39205W        W11630  19.805   0.813  10.560
39206W        W11631  34.458  23.006   2.657
39207W        W11632   8.371  37.752  14.918
39208W        W11633  26.779  18.919   3.336
39209W        W11634   0.151  17.213   1.245
39210W        W11635  43.733   5.868  10.969
39211W        W11636  37.879  33.011   1.781
39212W        W11637  32.071  35.017   2.615
39213W        W11638   0.680  29.924   0.333
39214W        W11639  42.879  30.367  14.880
39215W        W11640  40.047  11.233  10.643
39216W        W11641  38.452   1.430  13.799
39217W        W11642  40.779  16.870   2.750
39218W        W11643  11.397   4.339  12.778
39219W        W11644   9.407  32.096  14.446
39220W        W11645   6.467  30.401  11.661
39221W        W11646  33.466   2.785  10.577
39222W        W11647  27.635   3.462   1.797
39223W        W11648  31.099  23.164   2.852
39224W        W11649  26.324   9.632  12.969
39225W        W11650  31.969  10.113  10.853
39226W        W11651  12.585  22.489  14.385
39227W        W11652  24.868  21.758  14.899
39228W        W11653  39.036  31.778   3.314
39229W        W11654  22.286  39.917   0.442
39230W        W11655  35.579   1.214   4.690
39231W        W11656  31.150  31.912   4.153
39232W        W11657  35.781   6.663  13.989
39233W        W11658  43.083   7.253   0.649
39234W        W11659   0.286  28.221   0.690
39235W        W11660  27.766  32.116   2.810
39236W        W11661  27.007  35.206  12.509
39237W        W11662  17.125  14.697   2.364
39238W        W11663  11.117   8.232   4.138
39239W        W11664  16.569  22.694  14.372
39240W        W11665   9.248  24.886   4.525
39241W        W11666  41.407  33.091  14.372
39242W        W11667  22.976   6.483   4.229
39243W        W11668   6.357  16.587   2.027
39244W        W11669   9.883  24.919   4.253
39245W        W11670   5.885  26.609  11.088
39246W        W11671  40.527  40.254   5.017
39247W        W11672   6.899  40.814  10.650
39248W        W11673  16.067  38.309  11.578
39249W        W11674  38.848   1.751  10.678
39250W        W11675  19.685  41.143   0.399
39251W        W11676  30.435  35.837  12.042
39252W        W11677   8.108  23.144  14.469
39253W        W11678  37.874  12.690  10.743
39254W        W11679  26.161   1.401  12.449
39255W        W11680  19.820  18.095  11.078
39256W        W11681  19.105  16.115  11.971
39257W        W11682  20.090  36.474   4.320
39258W        W11683  28.236  26.223   2.785
39259W        W11684  43.354   8.350  10.881
39260W        W11685  31.540  13.683   3.292
39261W        W11686  39.581  22.210  12.039
39262W        W11687  16.302  36.916   2.888
39263W        W11688  30.232  28.054   2.296
39264W        W11689  26.865  29.980  11.416
39265W        W11690  39.878  24.540   0.195
39266W        W11691  12.778  35.836  12.403
39267W        W11692  29.321  26.634  13.111
39268W        W11693  31.557  27.865  13.011
39269W        W11694  21.652   5.277  11.038
39270W        W11695  30.560  43.734  11.567
39271W        W11696  39.937  37.335  13.584
39272W        W11697   3.199  20.264   0.405
39273W        W11698  28.705  35.604   0.026
39274W        W11699  31.859  36.494   3.622
39275W        W11700  15.119  29.365  11.674
39276W        W11701  28.217  16.467  14.760
39277W        W11702  12.611  41.048  11.486
39278W        W11703  44.049  17.786  12.432
39279W        W11704   7.980  24.648   4.906
39280W        W11705  40.054  19.037   0.915
39281W        W11706  26.537  43.216   2.382
39282W        W11707  21.552  29.453   0.423
39283W        W11708  34.192  42.886   3.718
39284W        W11709  40.543  39.962   4.239
39285W        W11710  23.781  18.552  13.986
39286W        W11711   0.354  30.417  12.556
39287W        W11712  18.299  27.048  11.018
39288W        W11713  23.583  29.593   4.606
39289W        W11714   6.566   7.763   0.429
39290W        W11715   3.437  18.860   1.039
39291W        W11716  13.999  11.192   2.863
39292W        W11717  14.270  21.683  10.879
39293W        W11718  14.854  21.784   2.703
39294W        W11719  40.586   5.294   1.510
39295W        W11720  19.611  25.033  10.908
39296W        W11721  15.138   6.758   1.420
39297W        W11722  10.716   6.925   0.758
39298W        W11723  39.492  20.969  10.796
39299W        W11724  16.681  25.483  12.978
39300W        W11725  39.378  34.699   0.586
39301W        W11726  33.063  41.621   4.892
39302W        W11727   0.277   7.795  12.882
39303W        W11728  15.089  15.211   0.873
39304W        W11729  18.258   5.252   2.478
39305W        W11730  25.613  36.401   4.105
39306W        W11731   8.411  20.655   2.444
39307W        W11732  27.309  17.669  14.759
39308W        W11733   3.600   4.118  10.914
39309W        W11734   0.908  40.932  12.485
39310W        W11735  19.906   3.257   1.406
39311W        W11736  25.649  31.040  14.318
39312W        W11737  25.260  23.362   0.744
39313W        W11738  22.308   4.576   4.141
39314W        W11739  12.970  21.271  10.962
39315W        W11740  44.631  24.219   3.711
39316W        W11741  37.806  34.746  12.800
39317W        W11742  33.662  21.585   0.505
39318W        W11743   4.226  37.455  14.248
39319W        W11744  41.237  31.953   3.408
39320W        W11745  12.338   0.417   4.475
39321W        W11746   2.425  43.334  12.204
39322W        W11747  33.481  44.564   3.817
39323W        W11748  34.199  25.448   2.908
39324W        W11749  22.612  43.406   3.853
39325W        W11750  19.251  41.810   0.011
39326W        W11751   5.115  27.071  11.555
39327W        W11752  43.243  28.016   1.399
39328W        W11753  43.968  10.369  13.870
39329W        W11754   3.999  29.976  12.415
39330W        W11755  37.662  21.770   2.778
39331W        W11756  44.960  37.546  11.600
39332W        W11757  22.980  19.059  11.518
39333W        W11758  30.875  37.932   2.876
39334W        W11759  17.410  44.892  13.414
39335W        W11760  31.316  20.780   2.264
39336W        W11761  38.513  25.067   4.353
39337W        W11762  21.789  26.184   0.326
39338W        W11763  32.529  40.880   4.368
39339W        W11764   4.821  34.588   2.822
39340W        W11765   9.683  24.081   4.066
39341W        W11766  43.199  43.927  10.719
39342W        W11767  42.081  39.879   2.675
39343W        W11768  24.996  23.127   4.124
39344W        W11769   7.774  30.405   0.432
39345W        W11770  19.656  21.137   1.299
39346W        W11771  27.924  10.272   2.354
39347W        W11772  42.933  25.599  11.040
39348W        W11773  18.052  18.068   1.917
39349W        W11774  30.470  18.703   1.274
39350W        W11775   5.837  41.519  14.720
39351W        W11776  28.280  17.124  12.668
39352W        W11777  43.897  36.282   0.918
39353W        W11778   6.239  29.964  10.352
39354W        W11779  28.686  10.777   2.223
39355W        W11780  32.485   6.026   4.144
39356W        W11781  29.906   4.167   1.701
39357W        W11782  14.963   0.360   4.178
39358W        W11783   2.551  44.585   5.111
39359W        W11784  37.105   5.246   2.804
39360W        W11785   8.401  21.783   3.254
39361W        W11786   4.714  11.823  13.857
39362W        W11787  33.536  26.921  12.543
39363W        W11788  27.176  42.744  14.313
39364W        W11789   2.827  27.092  11.609
39365W        W11790  15.866  36.071   3.160
39366W        W11791   2.775  34.878   3.393
39367W        W11792   9.613  23.031   2.761
39368W        W11793  18.287  42.337   1.293
39369W        W11794  31.566   2.451   1.012
39370W        W11795  25.946   5.406   4.289
39371W        W11796   9.034  34.160   4.273
39372W        W11797  27.785   5.091   4.953
39373W        W11798  22.808  15.625  12.814
39374W        W11799  15.599  40.086   2.407
39375W        W11800  20.961   2.001   3.995
39376W        W11801  30.666  13.767  11.922
39377W        W11802  43.122  17.577   4.850
39378W        W11803   7.410  41.904   3.916
39379W        W11804   3.869   7.325  13.915
39380W        W11805  37.917  27.475  10.744
39381W        W11806  34.349  15.597   1.853
39382W        W11807  37.478  17.565   1.234
39383W        W11808   1.253  24.543  11.571
39384W        W11809  21.568  27.869  13.858
39385W        W11810  28.542   0.171  10.370
39386W        W11811  29.074   1.586   4.624
39387W        W11812  22.031  33.787   0.901
39388W        W11813  16.707  30.430  14.814
39389W        W11814  33.542  33.874  11.961
39390W        W11815  17.858  37.325   4.419
39391W        W11816   5.782  10.532   4.362
39392W        W11817  39.154  37.495  11.490
39393W        W11818  39.759  30.163   1.989
39394W        W11819   7.161  13.224   3.762
39395W        W11820   8.076  10.601  13.414
39396W        W11821  11.605  28.884  13.443
39397W        W11822  27.851  29.070  13.866
39398W        W11823  26.701  32.419   1.747
39399W        W11824  32.432  12.210  11.130
39400W        W11825  23.461  10.704   2.339
39401W        W11826  32.868  36.703   4.101
39402W        W11827  17.219  21.602   0.061
39403W        W11828  22.006  28.021  12.027
39404W        W11829  26.035  35.493   4.165
39405W        W11830  39.611  41.351  12.939
39406W        W11831  31.068  19.566   0.515
39407W        W11832  15.193  22.029   2.339
39408W        W11833  19.134  39.464  11.588
39409W        W11834  15.468  11.952  11.189
39410W        W11835  14.200  28.676   1.419
39411W        W11836  32.022  17.810  13.955
39412W        W11837  24.468  21.424  14.937
39413W        W11838   1.970   7.143  12.850
39414W        W11839  31.903  39.018   3.656
39415W        W11840   9.720  23.548  13.371
39416W        W11841  36.596  29.162  14.711
39417W        W11842   3.320  18.256  12.066
39418W        W11843   9.949   3.993  12.067
39419W        W11844  43.282   2.169  13.114
39420W        W11845  29.662   7.782   1.723
39421W        W11846  26.123  37.887  13.029
39422W        W11847   9.794  23.790   1.302
39423W        W11848  29.016  13.058   0.755
39424W        W11849  35.636   1.619  11.149
39425W        W11850   1.246  22.104   4.548
39426W        W11851  42.039   3.936   2.414
39427W        W11852  23.367  11.858  13.450
39428W        W11853  37.891  37.134  11.031
39429W        W11854  31.466  20.674  10.567
39430W        W11855   4.924  36.327  13.857
39431W        W11856  25.060  21.151   3.585
39432W        W11857  16.162  11.925  10.319
39433W        W11858  22.697  28.211  10.826
39434W        W11859  25.453  37.589   1.840
39435W        W11860  43.903  22.443  10.410
39436W        W11861   9.627  28.590  11.521
39437W        W11862  12.840  34.793  10.791
39438W        W11863   4.956  17.838   1.382
39439W        W11864  12.141  15.616   2.900
39440W        W11865  10.771  28.415  11.996
39441W        W11866  29.116  21.958  14.011
39442W        W11867  15.710  44.824   0.903
39443W        W11868  18.403  42.932  13.866
39444W        W11869  42.353  12.638   4.365
39445W        W11870   7.383  18.238  11.153
39446W        W11871  33.813  35.469   4.554
39447W        W11872  13.556   1.104   2.236
39448W        W11873  39.294   1.678   2.300
39449W        W11874   6.460  17.244   3.735
39450W        W11875  14.222  18.393   4.988
39451W        W11876  29.454   7.754  13.184
39452W        W11877   7.964  10.339  13.877
39453W        W11878  19.088  21.776   4.517
39454W        W11879   0.154  43.987   4.191
39455W        W11880  42.821   0.388   0.891
39456W        W11881   6.837  31.334   0.662
39457W        W11882  30.083   3.560  10.880
39458W        W11883  26.562  10.456   1.005
39459W        W11884  14.655  18.281  14.437
39460W        W11885  12.883   8.304  13.556
39461W        W11886   6.985  27.615  12.533
39462W        W11887  11.146   2.017  13.977
39463W        W11888  24.739  14.380  14.866
39464W        W11889  26.153  12.861   2.038
39465W        W11890  41.257  32.547  12.376
39466W        W11891   8.213  36.479  11.030
39467W        W11892  23.612  37.385   0.366
39468W        W11893  33.627   3.866  10.918
39469W        W11894  34.888  24.656  14.055
39470W        W11895  44.213  26.738  13.598
39471W        W11896  34.781  23.484   2.840
39472W        W11897  43.306  23.699   2.289
39473W        W11898  10.341  37.015   1.965
39474W        W11899   7.360   7.638   2.640
39475W        W11900  13.423  15.310   2.241
39476W        W11901   1.378  12.153  10.766
39477W        W11902  15.540  24.655  11.586
39478W        W11903   7.788   7.327   4.263
39479W        W11904  17.773  24.428  10.760
39480W        W11905  43.542  11.366  13.280
39481W        W11906  35.076  40.328  10.500
39482W        W11907  30.672   0.489   2.655
39483W        W11908  37.403  39.103   4.100
39484W        W11909   0.619  13.609   1.211
39485W        W11910  33.365  41.654  10.538
39486W        W11911  44.595  16.593  14.279
39487W        W11912  39.089  19.985   9.965
39488W        W11913  35.854  16.164   4.040
39489W        W11914  40.897  28.526   2.591
39490W        W11915   5.789  30.019  14.870
39491W        W11916  40.642  40.721  13.524
39492W        W11917  36.788  23.680   1.632
39493W        W11918  37.093  17.257   0.393
39494W        W11919  17.095  22.614   0.922
39495W        W11920  21.530  22.067   2.978
39496W        W11921   0.684   3.352   4.192
39497W        W11922  31.895  32.859  12.972
39498W        W11923   1.939  36.793  11.954
39499W        W11924  17.134  28.448  13.791
39500W        W11925  10.601  21.996   4.087
39501W        W11926  23.513  28.151   1.908
39502W        W11927  16.492  12.598   2.771
39503W        W11928  31.982  14.771   1.817
39504W        W11929   1.769  14.101   0.266
39505W        W11930   8.178  18.081   0.270
39506W        W11931  10.524  36.932   2.440
39507W        W11932   8.667  41.830  14.852
39508W        W11933  26.161  41.947   1.368
39509W        W11934   2.287  21.618   1.020
39510W        W11935   4.456  18.385  12.122
39511W        W11936  23.983  32.336   2.471
39512W        W11937  21.140  27.662   3.318
39513W        W11938  44.651  44.388   3.836
39514W        W11939  21.829  13.061  10.046
39515W        W11940  30.417  30.872   4.611
39516W        W11941  23.562  29.739  13.802
39517W        W11942  27.131   3.493   0.653
39518W        W11943  35.589  17.683   2.094
39519W        W11944   7.783   8.696   5.204
39520W        W11945  40.605  40.997   1.549
39521W        W11946   8.195  26.214   5.084
39522W        W11947  38.968  32.631  13.431
39523W        W11948   9.847  11.613   0.338
39524W        W11949  17.799  32.480  11.088
39525W        W11950   6.759   4.726   2.593
39526W        W11951  28.698  29.998  11.933
39527W        W11952  20.145   9.907   3.319
39528W        W11953  41.866  40.377  14.525
39529W        W11954  42.047  34.198   5.090
39530W        W11955  12.035   6.685  14.459
39531W        W11956   3.781  18.458   1.145
39532W        W11957  22.483  42.619  12.050
39533W        W11958   5.402   1.352   4.483
39534W        W11959  33.981  22.276   3.711
39535W        W11960  40.967  26.987   3.352
39536W        W11961   2.196  35.972  14.381
39537W        W11962  14.797  42.798   4.520
39538W        W11963  20.656   0.002  14.361
39539W        W11964  27.715  24.941  10.718
39540W        W11965  16.980  43.227   3.215
39541W        W11966   7.786   2.797  14.373
39542W        W11967   9.197  22.171  12.468
39543W        W11968  17.970  31.449  11.958
39544W        W11969   5.280  29.568  13.051
39545W        W11970  41.675  15.351  13.296
39546W        W11971   9.369  15.083  12.778
39547W        W11972  14.735  35.853   4.557
39548W        W11973  36.870  35.878   2.802
39549W        W11974  27.465  26.627   1.702
39550W        W11975  16.923  44.755  13.347
39551W        W11976  25.280   5.730  10.690
39552W        W11977  39.508  32.163  12.867
39553W        W11978  19.068  17.625   0.066
39554W        W11979  28.806   6.611  12.891
39555W        W11980  14.320   5.023  13.991
39556W        W11981  30.263  33.148   0.370
39557W        W11982  28.437   3.381   5.152
39558W        W11983  28.492  28.392   3.282
39559W        W11984   3.768  42.365  12.999
39560W        W11985  34.002  42.352  10.764
39561W        W11986  39.215  28.596  14.038
39562W        W11987  25.027  13.153   4.136
39563W        W11988   1.711   4.205   1.440
39564W        W11989   8.674  39.751   4.229
39565W        W11990  27.641  38.202   0.243
39566W        W11991  18.560  26.739   2.135
39567W        W11992  34.878  36.617  11.589
39568W        W11993  24.021  28.876  12.050
39569W        W11994  26.038  12.772  11.178
39570W        W11995  43.317  25.074   0.872
39571W        W11996  19.963  35.279  11.887
39572W        W11997   2.968  27.660  10.749
39573W        W11998  32.042   0.786   2.522
39574W        W11999  14.172   5.750  13.245
39575W        W12000  22.085  24.099  10.691
39576W        W12001  17.504  39.795   2.216
39577W        W12002  38.098   9.678   2.320
39578W        W12003   4.720  14.563  11.126
39579W        W12004   6.012  15.179  13.957
39580W        W12005  37.635  12.789   2.729
39581W        W12006  15.833   9.318  12.430
39582W        W12007   5.502   4.909   1.939
39583W        W12008   0.896   1.815   1.984
39584W        W12009  24.521  44.546  12.119
39585W        W12010  19.505  16.098  14.097
39586W        W12011   9.854  24.166   3.069
39587W        W12012  41.894  39.400  10.430
39588W        W12013  31.044  23.238  13.931
39589W        W12014  41.964  31.520   4.667
39590W        W12015  37.626  43.362   2.757
39591W        W12016  39.018  28.404  11.578
39592W        W12017  19.638   8.294  12.504
39593W        W12018  33.994  14.822  11.662
39594W        W12019  17.163  35.802  13.545
39595W        W12020  15.346  43.834   2.382
39596W        W12021   0.860  20.231  12.403
39597W        W12022  39.367  28.995  11.971
39598W        W12023  26.956  40.874  14.151
39599W        W12024  14.668   6.822   0.714
39600W        W12025  11.791  44.165  14.842
39601W        W12026  25.699   5.813   0.314
39602W        W12027  13.790  30.843  13.078
39603W        W12028  16.244  27.602   0.019
39604W        W12029  44.112  18.664  11.096
39605W        W12030  12.413  22.495   5.086
39606W        W12031  26.633  23.169  14.537
39607W        W12032  28.021   6.114  13.064
39608W        W12033  20.054   7.822  12.039
39609W        W12034  18.273  10.553   4.639
39610W        W12035  19.843   0.964  11.955
39611W        W12036  38.405  15.752   1.452
39612W        W12037  25.153   0.794  13.966
39613W        W12038  31.020  22.419   4.072
39614W        W12039  42.204   3.747  12.100
39615W        W12040  17.681  36.647   3.790
39616W        W12041   2.955  28.116  13.166
39617W        W12042  11.754  10.234  13.148
39618W        W12043  20.197  32.712   4.113
39619W        W12044  18.108   1.665  10.659
39620W        W12045  22.478   8.860   2.401
39621W        W12046  29.414  24.924   0.806
39622W        W12047  34.988  16.707  14.772
39623W        W12048  38.580  22.147  12.807
39624W        W12049   0.871  41.624   1.889
39625W        W12050  40.863  19.290   2.687
39626W        W12051  14.839  20.283  13.006
39627W        W12052  32.814  31.748  14.804
39628W        W12053   8.637  15.649  12.416
39629W        W12054   0.356  12.815   3.966
39630W        W12055  44.929  41.610   4.800
39631W        W12056  34.785  14.082   0.762
39632W        W12057  17.816  15.330   2.277
39633W        W12058  18.403  33.655   4.614
39634W        W12059  17.694  34.919   4.763
39635W        W12060   3.729   5.767  12.414
39636W        W12061  15.173  35.054  14.411
39637W        W12062   4.872  33.249  13.375
39638W        W12063  33.973  22.680  14.478
39639W        W12064  10.671  16.790   4.847
39640W        W12065  20.230  35.116  10.627
39641W        W12066   8.696   0.976  12.517
39642W        W12067  29.484   1.550  11.216
39643W        W12068  17.074  41.552   0.369
39644W        W12069  34.853   3.323   2.181
39645W        W12070  37.767  24.782  12.052
39646W        W12071  36.441  19.394   0.098
39647W        W12072  22.309  43.553  12.445
39648W        W12073  44.363  36.098  12.566
39649W        W12074  23.195  40.419  13.005
39650W        W12075   1.516  16.630   2.835
39651W        W12076  35.130  44.743   4.681
39652W        W12077  40.983  26.429  11.189
39653W        W12078  20.960  16.329   3.885
39654W        W12079   6.718  28.079  10.846
39655W        W12080  44.408  33.006  13.908
39656W        W12081  24.804  40.091   3.192
39657W        W12082  26.251  19.033   3.318
39658W        W12083  23.129  26.096  10.356
39659W        W12084  10.824   7.343  11.389
39660W        W12085  26.025  10.444   2.699
39661W        W12086   2.235  26.727  12.330
39662W        W12087  28.202  25.619   0.403
39663W        W12088   9.705  34.340   1.441
39664W        W12089   0.754  37.466  10.903
39665W        W12090  40.697   3.241   4.026
39666W        W12091  13.624  44.012  13.296
39667W        W12092  16.740  42.570   3.693
39668W        W12093  13.792  27.916   4.587
39669W        W12094   1.724  15.399  12.890
39670W        W12095  29.025   1.670   3.700
39671W        W12096  14.314  31.886   3.829
39672W        W12097  32.083   5.227  14.541
39673W        W12098  12.558  28.953   4.092
39674W        W12099  29.238  20.859   4.237
39675W        W12100  37.487  13.339  11.086
39676W        W12101  26.116  19.618  14.842
39677W        W12102   1.878  13.050  13.610
39678W        W12103   5.708  17.876   2.954
39679W        W12104   3.186  20.666   0.764
39680W        W12105   2.824   4.331   4.683
39681W        W12106  20.638   4.378  12.895
39682W        W12107  34.527  23.754   3.720
39683W        W12108  28.569   1.656   0.362
39684W        W12109  12.160   4.853   4.693
39685W        W12110  33.095  20.085  12.434
39686W        W12111  40.883   0.924  10.613
39687W        W12112   0.470  24.690   2.767
39688W        W12113  26.399  14.896   4.241
39689W        W12114  31.599   3.962  12.868
39690W        W12115  19.865  32.656  11.986
39691W        W12116  20.049  41.222  12.168
39692W        W12117  34.385  20.154  13.453
39693W        W12118  35.541  23.640   1.317
39694W        W12119  13.271   4.888  13.184
39695W        W12120  20.757  31.457   0.843
39696W        W12121  27.332   3.896   2.718
39697W        W12122  23.737  16.104   3.203
39698W        W12123   9.705  43.716   1.435
39699W        W12124   1.389  27.879   2.787
39700W        W12125  23.087  18.687   1.776
39701W        W12126  10.224  41.371   0.461
39702W        W12127   4.445  21.138   3.223
39703W        W12128  30.887  22.372  11.244
39704W        W12129   4.834  23.519   1.742
39705W        W12130  23.250  13.713   0.296
39706W        W12131   2.976  19.039  11.600
39707W        W12132   0.876  18.189  14.891
39708W        W12133  23.994  26.806   3.740
39709W        W12134  37.277   7.075  13.855
39710W        W12135   2.706  27.562   0.704
39711W        W12136  42.700  15.717   0.405
39712W        W12137  15.341   0.552   4.577
39713W        W12138  44.268  24.068   2.155
39714W        W12139   2.283   3.675  12.478
39715W        W12140  22.751  25.150  12.034
39716W        W12141  31.577  44.736  10.602
39717W        W12142  27.029   9.673   3.603
39718W        W12143   9.080   4.387   0.064
39719W        W12144   1.924  37.003  14.812
39720W        W12145  19.740  29.434   0.768
39721W        W12146  29.959  31.970  14.103
39722W        W12147  20.671  39.579   2.726
39723W        W12148  37.275  39.748   4.744
39724W        W12149  15.828   4.455   3.807
39725W        W12150  21.917  17.689   3.714
39726W        W12151  22.771  18.134  14.462
39727W        W12152  26.523  19.299  13.706
39728W        W12153  10.513  33.372  10.733
39729W        W12154   8.942  28.663   4.671
39730W        W12155  24.510   8.358  11.531
39731W        W12156   9.441  13.356   4.102
39732W        W12157  18.983  30.506  13.503
39733W        W12158  34.294  16.346   4.105
39734W        W12159   5.729  39.863   1.493
39735W        W12160  30.835  25.501   2.715
39736W        W12161  11.227   9.795  10.720
39737W        W12162   0.780   7.713   1.226
39738W        W12163  35.779  22.457   3.536
39739W        W12164  23.023  26.351  12.929
39740W        W12165  40.417  33.562  14.548
39741W        W12166  32.632  18.144  14.797
39742W        W12167  33.013  36.475  13.106
39743W        W12168   8.609   4.218   4.557
39744W        W12169  28.154  18.710   1.674
39745W        W12170  11.639  18.575  13.441
39746W        W12171  16.664  23.205   0.937
39747W        W12172  40.410  21.793   2.780
39748W        W12173  42.076  38.730  14.741
39749W        W12174  29.193  40.312   3.867
39750W        W12175  13.078  32.446   2.868
39751W        W12176  11.858   3.334   3.363
39752W        W12177  27.186  44.772  13.533
39753W        W12178   0.574  32.074  13.832
39754W        W12179  29.286  35.291   0.750
39755W        W12180  10.590  16.094   3.358
39756W        W12181  40.229  29.961  12.484
39757W        W12182  16.621  13.658  13.756
39758W        W12183   6.414  19.264   4.002
39759W        W12184  15.798  34.167  12.062
39760W        W12185  38.465  16.011  11.671
39761W        W12186   9.903  27.747  14.016
39762W        W12187   8.690   7.703   4.483
39763W        W12188  36.907  24.216   4.233
39764W        W12189   0.425  41.228   1.268
39765W        W12190  14.973  27.131   3.195
39766W        W12191  42.718   2.926   2.472
39767W        W12192   9.746  24.301   1.127
39768W        W12193  20.207  26.616   4.742
39769W        W12194  16.120  36.515   3.163
39770W        W12195  12.840  18.086  13.426
39771W        W12196  21.551  44.836  11.549
39772W        W12197  10.728  25.988  12.221
39773W        W12198   8.571  39.151  13.857
39774W        W12199  13.318  19.272   4.726
39775W        W12200   0.360  42.247  14.885
39776W        W12201   4.894  27.102   5.056
39777W        W12202  30.563  10.637  10.800
39778W        W12203  38.953  39.236   4.798
39779W        W12204  23.469  31.996   4.147
39780W        W12205  24.470  30.576   2.709
39781W        W12206  11.185  15.310  12.465
39782W        W12207  21.267  44.333   2.696
39783W        W12208   3.849  22.789   2.207
39784W        W12209  44.745  31.646  14.512
39785W        W12210  13.371  39.637   4.615
39786W        W12211  25.558  34.842  11.190
39787W        W12212  21.564  12.282   9.824
39788W        W12213  18.164  23.247  10.938
39789W        W12214   3.003  34.582  11.042
39790W        W12215  25.664   5.275  12.391
39791W        W12216   6.355  24.680   2.462
39792W        W12217  44.003   3.980  12.720
39793W        W12218  26.041  33.913   1.819
39794W        W12219   8.681   3.208   0.259
39795W        W12220  16.550  29.602  11.712
39796W        W12221  16.274   3.837  14.427
39797W        W12222  39.253  20.602  14.461
39798W        W12223  35.799  38.660  11.382
39799W        W12224   3.930  34.049   2.622
39800W        W12225   5.133  27.690   4.528
39801W        W12226  38.809   2.755  10.377
39802W        W12227  38.966  15.226   2.926
39803W        W12228  22.243  24.197   2.732
39804W        W12229  10.785  14.041   0.638
39805W        W12230  28.574   3.849   1.409
39806W        W12231  29.517  32.665  13.773
39807W        W12232   0.521  24.121   4.676
39808W        W12233  20.551   4.432  14.534
39809W        W12234  39.913  25.059   1.247
39810W        W12235   7.612   2.812   2.691
39811W        W12236  11.228   1.892   5.012
39812W        W12237  25.535  13.743   1.319
39813W        W12238  29.787  11.856  12.067
39814W        W12239  43.225  18.571  10.806
39815W        W12240  11.201   9.192   2.767
39816W        W12241  17.559  12.912   0.892
39817W        W12242   4.350  29.324  14.969
39818W        W12243  40.046  20.000   5.236
39819W        W12244   2.907  33.687  10.523
39820W        W12245  15.296  39.969  11.983
39821W        W12246   3.158  34.565   2.426
39822W        W12247   8.650  33.602  12.361
39823W        W12248  27.112  11.772  10.248
39824W        W12249  16.659  39.938   0.239
39825W        W12250  21.161  26.841  13.546
39826W        W12251   7.915  17.680   3.712
39827W        W12252  35.547  44.288  11.988
39828W        W12253  40.334  33.976  10.446
39829W        W12254   9.832  10.209  12.138
39830W        W12255   3.275   9.635   2.032
39831W        W12256   3.467  30.105  10.901
39832W        W12257  31.051   7.393  12.625
39833W        W12258  35.631  13.019   0.145
39834W        W12259  24.571  31.558   4.078
39835W        W12260  40.040  28.949  12.425
39836W        W12261  12.748  23.418  11.965
39837W        W12262   8.599  44.224   0.166
39838W        W12263  27.499  12.585   0.649
39839W        W12264  23.056  36.334  11.613
39840W        W12265  27.554  37.176   0.398
39841W        W12266  26.505  21.076  11.085
39842W        W12267  32.121  44.910  14.906
39843W        W12268  34.650  42.711   1.755
39844W        W12269  11.218  40.928  12.333
39845W        W12270   0.775  19.555  11.568
39846W        W12271   8.867   7.177  12.495
39847W        W12272  26.186   5.887   0.385
39848W        W12273  44.268  42.082  11.399
39849W        W12274  32.500  18.148  13.205
39850W        W12275  26.808  44.938  14.849
39851W        W12276  24.127  42.979   2.925
39852W        W12277  34.416  19.292  13.550
39853W        W12278  21.698  21.046  14.132
39854W        W12279   4.714   7.375   0.329
39855W        W12280  19.821  39.865  12.998
39856W        W12281  29.571  26.443  14.548
39857W        W12282   6.308  20.236   0.957
39858W        W12283   1.057  30.538   5.003
39859W        W12284  20.120  11.401   0.044
39860W        W12285   0.899   5.664   4.121
39861W        W12286  38.246   6.519   2.742
39862W        W12287   1.241   6.695   1.995
39863W        W12288  23.945  41.959   0.886
39864W        W12289  41.419   8.724  13.142
39865W        W12290   9.633  39.893   0.400
39866W        W12291  38.903  38.329  14.042
39867W        W12292  27.258  37.431  13.014
39868W        W12293  39.881   8.769  13.443
39869W        W12294  27.710  42.377   0.891
39870W        W12295   2.139  34.519  13.664
39871W        W12296  42.539  19.889  13.905
39872W        W12297  42.040  25.957  12.104
39873W        W12298  23.150  17.818   2.929
39874W        W12299  23.465  22.244   4.436
39875W        W12300  15.069  41.953  12.134
39876W        W12301   5.816  28.109   4.267
39877W        W12302  23.193  26.904  14.804
39878W        W12303   7.292  43.311  13.480
39879W        W12304  30.472  42.263  11.336
39880W        W12305  11.035  19.792   4.565
39881W        W12306  22.218  20.244   1.260
39882W        W12307  33.188   8.699   4.702
39883W        W12308  20.019  32.103   0.821
39884W        W12309  29.100  28.154  13.792
39885W        W12310  28.382  43.065   2.740
39886W        W12311  21.775  21.220   5.216
39887W        W12312  14.112  21.799   3.661
39888W        W12313  29.283  31.886  14.834
39889W        W12314  17.655  29.159  10.467
39890W        W12315   5.654  25.954   3.650
39891W        W12316  19.652  28.565  13.513
39892W        W12317  36.934  38.506   0.159
39893W        W12318  20.806  43.237  12.485
39894W        W12319  18.123   4.666  12.500
39895W        W12320   1.314  16.260   4.912
39896W        W12321  36.180  17.625   4.090
39897W        W12322  35.223  43.506   3.407
39898W        W12323  21.635   6.375  11.783
39899W        W12324  14.709  26.165   1.299
39900W        W12325   8.179   0.738   4.370
39901W        W12326  41.046  42.483   3.649
39902W        W12327  41.550  14.109  14.550
39903W        W12328  32.397  16.363   2.327
39904W        W12329  21.296   2.112  11.553
39905W        W12330   8.836  11.833   1.901
39906W        W12331  41.406   0.553   4.788
39907W        W12332   2.280  15.840  14.738
39908W        W12333  43.943   6.698   0.491
39909W        W12334   7.602  25.248  14.401
39910W        W12335  23.113   0.950  13.045
39911W        W12336  22.473  26.111  13.555
39912W        W12337  10.114  13.652   1.988
39913W        W12338  19.767  14.511   3.834
39914W        W12339  33.253  20.035  12.932
39915W        W12340  41.934  35.271   3.787
39916W        W12341  42.460  40.721   1.260
39917W        W12342  30.365  40.005   2.539
39918W        W12343  16.575  15.232   1.799
39919W        W12344  31.338   9.732   1.211
39920W        W12345   8.989   9.433   2.694
39921W        W12346  23.665  12.763  13.220
39922W        W12347  43.413  22.533   3.669
39923W        W12348  15.785  37.000   3.158
39924W        W12349  27.548  30.139   3.539
39925W        W12350  10.807  24.614   9.857
39926W        W12351  13.347  16.288   0.585
39927W        W12352  44.905  26.231  14.409
39928W        W12353  32.055  28.987  13.311
39929W        W12354  16.686   7.806  11.171
39930W        W12355  18.517  41.497   2.146
39931W        W12356  28.413   0.353   4.262
39932W        W12357  39.447   0.216   0.157
39933W        W12358  21.598   0.674  13.085
39934W        W12359  42.701   8.299  12.475
39935W        W12360   9.419  41.967   4.764
39936W        W12361  39.272  26.629  11.725
39937W        W12362  32.514   8.379  10.990
39938W        W12363  12.363  26.912  12.514
39939W        W12364  35.495  32.222  10.977
39940W        W12365  39.973  10.473  14.360
39941W        W12366   5.187  24.068   0.262
39942W        W12367   9.826  41.567   1.399
39943W        W12368   2.299   5.630  13.878
39944W        W12369  42.008  25.183   3.325
39945W        W12370   7.016  30.918   0.381
39946W        W12371  39.996  43.404  13.892
39947W        W12372  13.024  38.927  13.980
39948W        W12373  27.105  32.119  12.530
39949W        W12374  18.844  33.404  12.390
39950W        W12375   0.020  44.043   3.691
39951W        W12376  31.562   9.662  11.537
39952W        W12377   4.764  16.752  14.474
39953W        W12378   8.923  15.545   1.325
39954W        W12379  43.000  44.351  10.472
39955W        W12380   0.320  37.421   0.781
39956W        W12381  41.810  18.305   2.289
39957W        W12382  10.152  13.809   0.380
39958W        W12383  37.772  22.542   3.755
39959W        W12384  16.049  14.651   3.228
39960W        W12385  32.110   8.427  13.237
39961W        W12386  11.344  40.110   5.156
39962W        W12387  23.900  15.779  10.192
39963W        W12388  39.412  44.312  12.175
39964W        W12389  13.082  30.076  10.884
39965W        W12390  33.455   1.171  10.645
39966W        W12391  19.241   4.319   2.129
39967W        W12392   8.209  11.815  14.046
39968W        W12393   6.477   8.980  11.541
39969W        W12394  16.136  39.822   3.023
39970W        W12395  13.470  23.561  14.430
39971W        W12396  15.741  11.697   4.593
39972W        W12397  17.751  26.355   5.129
39973W        W12398   7.003   2.838  12.102
39974W        W12399  31.692   7.827  11.182
39975W        W12400   2.082  13.641   0.251
39976W        W12401  19.365  22.352  13.999
39977W        W12402  21.911  22.551   3.266
39978W        W12403  13.303   9.083   0.842
39979W        W12404  13.120   2.778   4.221
39980W        W12405  42.487  44.948   3.412
39981W        W12406  34.882  32.502  13.575
39982W        W12407  32.181   7.533  13.693
39983W        W12408   3.275  41.019   1.856
39984W        W12409  22.777  18.207  11.003
39985W        W12410  36.063  14.518  14.208
39986W        W12411  16.568   3.273   1.204
39987W        W12412  26.131  34.829  14.450
39988W        W12413  37.407  28.588  13.988
39989W        W12414  12.593  17.146   2.141
39990W        W12415  37.738   4.873  10.824
39991W        W12416  44.455  32.988   0.399
39992W        W12417  23.683   5.412   1.769
39993W        W12418  19.573   8.247  14.752
39994W        W12419   1.691  14.088   3.374
39995W        W12420  37.970  29.888   0.397
39996W        W12421  24.896  37.484  12.421
39997W        W12422  31.159  14.817   4.487
39998W        W12423  36.449   3.275  11.158
39999W        W12424  17.093  12.316   1.750
40000W        W12425  34.658  30.978   4.591
40001W        W12426  15.658  40.470   3.874
40002W        W12427  30.646  16.919  14.377
40003W        W12428  30.027  13.100  12.774
40004W        W12429  21.563   6.939  13.007
40005W        W12430   6.933  29.433   0.921
40006W        W12431   4.410  40.806   2.821
40007W        W12432   1.058   0.067   4.880
40008W        W12433  24.134  20.683  13.967
40009W        W12434  12.886  29.460  12.653
40010W        W12435  44.903   7.823   0.974
40011W        W12436  15.425  26.006   2.806
40012W        W12437   2.663  31.935   0.353
40013W        W12438  30.491  10.428  13.349
40014W        W12439   3.493  21.663  12.047
40015W        W12440  29.183  10.309  10.633
40016W        W12441  40.346  11.771  12.138
40017W        W12442  28.200  25.516  12.941
40018W        W12443  29.590  43.701   2.712
40019W        W12444  31.932   4.950   2.306
40020W        W12445  14.777  23.016   3.671
40021W        W12446  24.123   8.366   2.656
40022W        W12447  14.319  20.892   2.405
40023W        W12448   5.746   8.900   1.513
40024W        W12449  35.804  33.712   4.161
40025W        W12450   9.598  29.979  11.952
40026W        W12451  13.875   3.375  13.758
40027W        W12452  24.465  14.314   4.771
40028W        W12453  21.725  37.907  11.164
40029W        W12454  18.286  27.932   0.704
40030W        W12455   2.825  40.766   0.398
40031W        W12456   6.126  30.995   1.203
40032W        W12457  32.090  41.185   5.026
40033W        W12458  40.763  44.179  13.060
40034W        W12459  18.595   4.896   2.835
40035W        W12460   0.139   9.940  12.990
40036W        W12461   7.881   8.170  12.652
40037W        W12462  42.887  18.368   4.252
40038W        W12463  39.779   1.522  13.072
40039W        W12464  34.832   3.320   1.275
40040W        W12465  26.671  15.553   2.022
40041W        W12466  30.425   3.796   3.350
40042W        W12467  25.564  13.491  14.926
40043W        W12468  23.479  28.550   3.601
40044W        W12469   7.534  12.357  11.979
40045W        W12470  15.070  30.619  13.889
40046W        W12471  34.385  35.259   3.218
40047W        W12472  35.534  31.636   1.304
40048W        W12473  19.100  28.653  14.923
40049W        W12474   0.362   8.806   4.350
40050W        W12475  21.031  15.072  10.782
40051W        W12476  38.782  35.867   0.902
40052W        W12477  28.204  31.546  12.876
40053W        W12478   9.847  40.877   4.237
40054W        W12479  33.405  38.407   2.428
40055W        W12480  41.313   5.712   2.363
40056W        W12481  13.181  41.241   0.301
40057W        W12482   1.065   1.227  14.722
40058W        W12483  14.273  29.422   2.422
40059W        W12484  19.194   3.212   2.222
40060W        W12485  34.447  14.207  11.147
40061W        W12486  24.366  21.217   4.072
40062W        W12487  37.462  18.238  10.819
40063W        W12488  41.922  37.866   4.598
40064W        W12489   1.043  22.698  12.458
40065W        W12490  30.522  13.800  14.464
40066W        W12491  10.169   0.161   4.131
40067W        W12492  36.521  18.609  11.210
40068W        W12493   4.745  33.631   5.011
40069W        W12494  21.944  34.492  14.218
40070W        W12495   3.431  16.627   3.088
40071W        W12496   2.699  21.151  13.401
40072W        W12497  14.561  17.576  11.719
40073W        W12498  28.423   9.663   1.655
40074W        W12499   1.874  26.233   0.413
40075W        W12500  23.740  10.754   4.358
40076W        W12501  35.618   3.685   0.650
40077W        W12502  13.235  16.705  14.934
40078W        W12503  29.146   6.412   3.143
40079W        W12504  42.880  14.382   3.801
40080W        W12505  26.782  42.860  13.641
40081W        W12506  29.689  42.815  13.505
40082W        W12507  14.162  37.591  14.484
40083W        W12508  36.906  36.645   1.337
40084W        W12509   1.817  27.823   3.604
40085W        W12510  25.632  39.638  12.041
40086W        W12511   1.485  34.153   3.253
40087W        W12512   2.860  36.305   1.698
40088W        W12513  36.635  43.324  10.711
40089W        W12514   1.922   0.069  11.665
40090W        W12515  35.387  16.580  11.241
40091W        W12516  26.804   9.158   1.645
40092W        W12517  13.143  16.002   0.956
40093W        W12518   1.294  28.700   4.702
40094W        W12519  20.594  11.666  13.401
40095W        W12520  35.105  33.267   4.516
40096W        W12521  19.647  19.600   2.698
40097W        W12522   7.710  12.771  11.734
40098W        W12523  32.456  20.518  11.910
40099W        W12524  24.175  44.324  14.925
40100W        W12525  33.319  37.454  13.433
40101W        W12526  25.366  38.022  10.712
40102W        W12527   4.239  18.469  11.252
40103W        W12528  10.498  35.707   1.890
40104W        W12529  16.076  26.657   1.893
40105W        W12530  37.721  38.537   2.819
40106W        W12531  11.434  42.655  12.499
40107W        W12532  29.980  41.900  13.527
40108W        W12533  23.793   7.450  12.227
40109W        W12534  44.597  35.919  11.590
40110W        W12535  28.551  40.039   1.659
40111W        W12536   5.716  11.588   0.017
40112W        W12537  35.476  27.716  10.497
40113W        W12538  43.273  27.721  11.627
40114W        W12539  37.177  18.760   3.474
40115W        W12540  32.857   6.272  12.404
40116W        W12541  35.653  27.367   2.775
40117W        W12542   6.642  33.645  11.225
40118W        W12543  39.393  14.357  11.593
40119W        W12544  41.588   0.322  13.793
40120W        W12545  13.569  18.637   3.272
40121W        W12546  17.576  11.131   0.042
40122W        W12547  38.612  14.518   3.848
40123W        W12548  38.455  23.064  10.612
40124W        W12549  32.885  34.238   0.708
40125W        W12550  42.825  31.640   4.427
40126W        W12551   6.365   2.743  10.793
40127W        W12552  32.705  19.010  13.938
40128W        W12553  28.949   3.052   4.886
40129W        W12554  30.477  18.526  10.958
40130W        W12555  20.129  33.933  11.643
40131W        W12556  38.341  28.601   4.607
40132W        W12557  25.238  36.397  13.985
40133W        W12558   0.725  26.529   0.846
40134W        W12559  17.782  14.259  14.292
40135W        W12560  37.417  17.030  14.845
40136W        W12561  13.813  32.964  12.891
40137W        W12562  26.077  16.641   3.693
40138W        W12563   1.283  13.513  11.597
40139W        W12564  18.617  41.960  13.355
40140W        W12565  41.155  36.028   3.923
40141W        W12566  34.157  28.905  14.787
40142W        W12567   7.255  39.671  13.699
40143W        W12568  23.983  43.894   3.168
40144W        W12569  35.581   7.197   1.899
40145W        W12570  17.290  31.035   4.788
40146W        W12571  13.832  10.813  11.960
40147W        W12572  31.909  39.772   2.952
40148W        W12573  10.520  29.625   2.873
40149W        W12574  14.124  40.453   1.543
40150W        W12575  21.149  44.764  14.453
40151W        W12576  40.510  20.959  11.636
40152W        W12577  22.679   4.735   4.615
40153W        W12578  10.614  38.912   0.635
40154W        W12579   2.345   4.562  11.189
40155W        W12580  35.856  17.767  12.027
40156W        W12581  19.213  35.371  12.575
40157W        W12582  10.911  23.966  12.997
40158W        W12583  13.638  27.100  13.454
40159W        W12584  30.177  18.565  12.382
40160W        W12585  22.806   8.309  12.865
40161W        W12586  32.222  23.530   1.323
40162W        W12587  38.428  19.600   1.923
40163W        W12588  39.277  13.710  10.806
40164W        W12589  43.334  43.964   3.738
40165W        W12590  16.621  34.419   0.777
40166W        W12591  23.021   1.902  11.016
40167W        W12592  25.751  39.987  12.383
40168W        W12593  29.736  29.935   2.195
40169W        W12594  23.166  34.993  14.329
40170W        W12595  12.114   7.183   2.272
40171W        W12596  38.983  10.284  10.599
40172W        W12597  35.226  21.743  11.018
40173W        W12598  26.577  35.982  12.829
40174W        W12599  24.769   8.725  13.925
40175W        W12600   7.645   3.972   2.434
40176W        W12601  21.398  31.516   4.092
40177W        W12602  21.291  10.015   5.099
40178W        W12603  25.008  33.986  13.875
40179W        W12604   7.825  18.796   0.480
40180W        W12605  15.361  27.513   2.854
40181W        W12606  26.726  34.098  10.269
40182W        W12607  37.356  13.590   1.331
40183W        W12608  35.931   2.268  13.464
40184W        W12609  44.701  23.810   4.996
40185W        W12610  18.770  25.175   4.499
40186W        W12611  19.918  17.964   1.648
40187W        W12612  26.974   8.401  13.054
40188W        W12613  36.755  18.816   5.230
40189W        W12614  44.291  36.474   2.673
40190W        W12615  17.864   6.285   2.314
40191W        W12616  27.048  33.486  12.795
40192W        W12617  42.361  12.827   0.962
40193W        W12618  16.579  41.707  12.855
40194W        W12619  19.781  23.448  11.465
40195W        W12620  26.480  10.070  11.668
40196W        W12621  37.027  12.203  12.317
40197W        W12622  42.441  22.109  12.006
40198W        W12623  27.719  28.492   2.057
40199W        W12624  31.185  28.672  12.577
40200W        W12625  32.158  41.591  12.848
40201W        W12626  29.937  42.468  13.814
40202W        W12627   2.257  34.463   2.910
40203W        W12628  23.569  22.442   1.889
40204W        W12629  39.054  37.495  14.315
40205W        W12630  32.013  16.554   3.182
40206W        W12631   1.676  21.222  13.560
40207W        W12632  10.893   6.365  11.538
40208W        W12633  20.934   8.742   3.397
40209W        W12634  35.775  31.029   2.757
40210W        W12635  14.710  36.460  10.702
40211W        W12636  15.268  13.222   2.556
40212W        W12637   7.458  18.266   3.223
40213W        W12638  21.841  26.045   4.194
40214W        W12639  14.766  18.261   1.500
40215W        W12640  13.832  13.865   0.350
40216W        W12641  31.091  30.329   1.015
40217W        W12642  34.401   6.864   2.857
40218W        W12643  11.539  21.099   0.363
40219W        W12644   1.839  22.079  13.757
40220W        W12645  29.216  22.379  10.648
40221W        W12646  22.030  13.585  12.425
40222W        W12647  26.880   1.966  13.620
40223W        W12648  39.328  22.470   3.834
40224W        W12649  34.096   5.506  11.523
40225W        W12650   5.321  37.858   1.946
40226W        W12651  16.600  23.676   0.594
40227W        W12652  19.014  32.523   0.290
40228W        W12653   5.709  24.752   0.305
40229W        W12654  28.151  44.476   4.374
40230W        W12655  44.036   2.315  11.138
40231W        W12656  22.783  42.060   3.692
40232W        W12657  36.889   0.992   0.871
40233W        W12658  22.705  20.206   0.964
40234W        W12659  15.203  41.944   2.363
40235W        W12660   9.986   7.882   3.698
40236W        W12661  29.384   0.890   3.750
40237W        W12662  37.555  22.771   1.870
40238W        W12663  13.647   3.813  13.975
40239W        W12664   3.702  10.450  14.520
40240W        W12665  28.999  36.644   0.831
40241W        W12666  37.678  26.973   0.809
40242W        W12667  44.397  20.613   4.722
40243W        W12668  36.222   5.518   4.668
40244W        W12669   1.891   5.588   3.285
40245W        W12670  14.646  15.724   4.592
40246W        W12671  25.693  38.406   2.643
40247W        W12672  28.615  33.957  14.085
40248W        W12673  41.598   6.660   2.793
40249W        W12674  17.587  39.802  12.469
40250W        W12675  37.487  13.799  10.501
40251W        W12676  43.272  32.664  13.366
40252W        W12677  11.144   5.970   2.154
40253W        W12678  28.589  33.397   1.349
40254W        W12679   4.023  30.117  11.527
40255W        W12680  22.030  44.198  14.299
40256W        W12681  41.477  18.604   4.216
40257W        W12682  34.281  18.088   3.735
40258W        W12683  43.418   0.021   1.355
40259W        W12684   5.741  20.313  13.024
40260W        W12685   0.749   5.877  11.555
40261W        W12686  14.760  11.450   2.080
40262W        W12687   7.966  34.852   0.401
40263W        W12688   7.108   2.928   1.840
40264W        W12689  42.378  21.984  11.491
40265W        W12690  33.169  18.803   1.714
40266W        W12691  22.792  21.116   4.145
40267W        W12692  27.556   2.896   4.086
40268W        W12693  24.663   5.658   3.299
40269W        W12694  44.850  19.807   3.396
40270W        W12695  17.503  28.578  12.392
40271W        W12696  40.009  32.561  11.557
40272W        W12697  25.575   6.164  10.715
40273W        W12698  10.083  20.729  12.892
40274W        W12699  33.635   4.921  10.346
40275W        W12700  21.287  41.746   0.838
40276W        W12701   9.179   0.729  11.842
40277W        W12702  13.480   3.498  11.659
40278W        W12703   5.826  20.126   4.163
40279W        W12704  28.058  13.009   2.714
40280W        W12705  40.704  23.021  11.159
40281W        W12706  26.744  22.062  13.980
40282W        W12707  25.470  12.797  13.428
40283W        W12708   9.875   6.899   4.746
40284W        W12709  17.206  10.945  14.405
40285W        W12710  29.462  37.412   3.316
40286W        W12711   6.353  38.364   2.531
40287W        W12712  29.910   2.046   0.637
40288W        W12713  15.349  33.476   1.060
40289W        W12714  27.582  15.043  12.786
40290W        W12715  30.536   1.916  12.904
40291W        W12716  34.012  38.104  10.652
40292W        W12717  37.266   5.808  10.287
40293W        W12718  40.177  29.676   3.956
40294W        W12719  19.408  38.983  13.376
40295W        W12720   6.610  12.101  14.456
40296W        W12721  30.549   8.844  12.627
40297W        W12722  24.349   7.162  13.044
40298W        W12723  13.014  17.796  11.164
40299W        W12724  30.047  13.633   4.259
40300W        W12725  42.306  33.063  13.314
40301W        W12726  43.447  11.208   2.091
40302W        W12727  25.666  18.502   4.620
40303W        W12728  42.368  29.005  13.820
40304W        W12729   2.302  32.288   3.639
40305W        W12730  14.275  33.107  12.997
40306W        W12731  36.606  17.041  12.892
40307W        W12732  18.248  17.672  11.572
40308W        W12733  19.987  25.897   3.194
40309W        W12734  18.233  36.814  12.009
40310W        W12735  39.492  31.894   0.706
40311W        W12736   3.410   5.016  13.847
40312W        W12737  32.395   0.753  10.137
40313W        W12738   9.964  20.319   2.470
40314W        W12739  44.827  27.423  13.874
40315W        W12740  32.191  31.218   3.809
40316W        W12741  35.899  27.702   4.502
40317W        W12742   1.409  40.441   1.386
40318W        W12743  21.254  41.444  12.532
40319W        W12744  27.974  41.110  12.554
40320W        W12745  35.398  28.959  12.489
40321W        W12746  33.616  28.884  11.196
40322W        W12747   2.838  30.899   0.666
40323W        W12748  33.974  12.661   4.300
40324W        W12749   9.383  24.414   4.740
40325W        W12750   1.869  34.586   2.578
40326W        W12751   2.148   4.461  14.597
40327W        W12752  15.826  16.666  14.916
40328W        W12753  42.509  21.300  10.190
40329W        W12754  18.948  21.070   3.575
40330W        W12755  40.926  32.104   0.286
40331W        W12756  35.816  44.420   1.254
40332W        W12757   4.368  39.413  14.063
40333W        W12758  42.228   1.908  13.860
40334W        W12759   4.840  26.737  10.220
40335W        W12760  38.871   8.748  12.080
40336W        W12761  15.853  22.021   1.383
40337W        W12762  14.702  19.695   3.704
40338W        W12763  34.557   9.691  11.623
40339W        W12764  10.189  22.323  11.935
40340W        W12765  35.049  10.388   4.158
40341W        W12766  29.891  42.839   2.312
40342W        W12767   7.160  20.130  11.685
40343W        W12768  10.409   4.731  13.506
40344W        W12769  18.147  33.720   5.064
40345W        W12770  13.201  34.844  11.189
40346W        W12771  21.073  13.280  13.819
40347W        W12772  30.586   9.862   4.837
40348W        W12773   9.298  21.808  12.903
40349W        W12774   1.188   2.710   3.783
40350W        W12775  39.527   6.425  10.655
40351W        W12776  28.079  12.825  13.053
40352W        W12777   5.722  35.869  13.795
40353W        W12778   8.079  22.750  12.531
40354W        W12779  37.328  36.453   0.313
40355W        W12780  44.491   1.575  12.678
40356W        W12781  33.444  20.421  12.645
40357W        W12782  32.048  32.429   5.145
40358W        W12783  30.593  16.978  13.496
40359W        W12784  27.146  24.575  13.729
40360W        W12785  23.316  41.449   4.374
40361W        W12786  21.039   0.302   1.900
40362W        W12787  44.304  27.720  11.074
40363W        W12788  43.035   9.709  11.155
40364W        W12789  15.538  14.611   2.419
40365W        W12790  13.572  29.422  11.168
40366W        W12791  18.831  21.636  14.437
40367W        W12792   6.348  25.690   1.161
40368W        W12793  43.145  41.885  14.866
40369W        W12794   6.912   3.405   1.831
40370W        W12795  27.932  30.656  13.456
40371W        W12796  36.701  15.289  11.819
40372W        W12797   8.004  14.082  11.684
40373W        W12798   9.133  16.201   3.944
40374W        W12799   4.914  15.206   0.343
40375W        W12800  25.618  24.935  12.929
40376W        W12801   9.184  17.390   0.739
40377W        W12802   6.647  42.718  11.175
40378W        W12803  29.134  23.204  13.567
40379W        W12804  42.187  44.764   0.521
40380W        W12805  13.024   5.696  12.069
40381W        W12806  22.572   8.874   2.901
40382W        W12807  17.306  33.025   9.917
40383W        W12808   5.095  12.287   4.878
40384W        W12809  34.058  18.060  14.470
40385W        W12810  43.473  24.229   1.447
40386W        W12811  21.291  29.481  12.988
40387W        W12812  29.583  41.866   3.640
40388W        W12813  18.173  15.301   1.915
40389W        W12814  16.680   3.160  14.761
40390W        W12815  10.360   3.792   0.371
40391W        W12816   0.696  15.439  12.856
40392W        W12817  12.731   3.401   4.830
40393W        W12818   5.961  15.027  12.230
40394W        W12819  35.477  19.325   2.445
40395W        W12820  41.786  22.605   9.707
40396W        W12821  31.704  41.818   1.865
40397W        W12822  44.290  13.058  13.504
40398W        W12823   3.367  14.022   3.112
40399W        W12824  35.886  30.829  12.415
40400W        W12825  30.056  20.287   2.687
40401W        W12826   4.039   2.294   3.663
40402W        W12827  21.149  25.898  14.569
40403W        W12828  35.433  28.522   1.849
40404W        W12829  25.565  30.573  10.137
40405W        W12830   0.982  12.181   0.082
40406W        W12831  14.502  32.092   0.042
40407W        W12832  20.553  35.912   1.987
40408W        W12833  40.176  28.840  10.295
40409W        W12834  11.261   8.148  10.660
40410W        W12835  44.285   9.855   4.042
40411W        W12836  17.655   8.917   4.478
40412W        W12837  31.931   2.984  10.598
40413W        W12838   5.832  44.269   2.408
40414W        W12839  40.520  42.867   0.464
40415W        W12840  36.242  14.570   1.495
40416W        W12841   4.009  38.441  14.017
40417W        W12842  44.069  32.998  11.926
40418W        W12843  41.027   2.273   1.144
40419W        W12844   3.699  10.325  10.378
40420W        W12845  16.125   8.163  13.999
40421W        W12846  32.934  16.194  13.861
40422W        W12847  28.934  15.659   1.216
40423W        W12848  41.022  23.908  11.082
40424W        W12849  34.637  40.321  10.759
40425W        W12850   1.225  14.312  14.369
40426W        W12851  39.241  18.650  12.336
40427W        W12852   6.336  12.568   4.036
40428W        W12853   9.101   1.907  10.733
40429W        W12854  27.163  21.487   4.556
40430W        W12855  39.059  29.607  13.139
40431W        W12856  22.675  37.836   2.943
40432W        W12857   5.871   1.362   3.776
40433W        W12858  20.063   7.448   4.517
40434W        W12859   6.210  26.683   1.084
40435W        W12860  27.668   7.832  11.554
40436W        W12861  29.587  20.055  12.456
40437W        W12862  24.779  29.964  14.833
40438W        W12863  33.574  29.697   1.819
40439W        W12864  19.105  34.018   2.697
40440W        W12865   1.844   2.544  11.646
40441W        W12866   5.483  25.964  14.736
40442W        W12867   5.463  26.571   3.658
40443W        W12868  40.568  19.135   2.227
40444W        W12869   3.459  36.330  14.626
40445W        W12870   0.296  42.187   2.875
40446W        W12871   1.559  32.478   4.557
40447W        W12872   2.839  17.856  12.892
40448W        W12873   2.300   9.128  13.552
40449W        W12874   6.366  24.101  14.275
40450W        W12875  12.616  13.280  13.093
40451W        W12876  13.160   6.398  12.478
40452W        W12877  31.330  11.278   1.243
40453W        W12878  36.479  38.404   0.881
40454W        W12879  23.713  29.991   4.164
40455W        W12880  12.264  44.720  14.275
40456W        W12881  14.750  32.567  14.353
40457W        W12882  38.973  23.125   1.355
40458W        W12883  15.407   7.382   3.325
40459W        W12884   2.829  19.700   0.822
40460W        W12885   1.816  27.635   1.869
40461W        W12886  39.550  14.068  13.592
40462W        W12887  43.758   7.807   3.418
40463W        W12888  26.556  29.767   0.357
40464W        W12889  44.154  13.260  14.400
40465W        W12890  24.885  24.145  11.152
40466W        W12891  16.326  27.521  14.511
40467W        W12892  11.061  30.444  12.866
40468W        W12893  21.114   9.537   2.835
40469W        W12894   5.846   8.339  10.719
40470W        W12895   6.183   8.603   3.767
40471W        W12896  29.125   5.193   2.751
40472W        W12897  40.536  13.179  14.243
40473W        W12898  37.563  37.496   4.585
40474W        W12899   9.211  18.016   3.914
40475W        W12900  28.824  24.698   0.872
40476W        W12901  34.427  24.119   0.046
40477W        W12902  31.396  31.413   3.625
40478W        W12903  34.119   6.299  14.650
40479W        W12904  40.689  39.297  11.120
40480W        W12905  25.547  15.067   4.101
40481W        W12906   6.965  44.307   0.339
40482W        W12907  34.435  18.067  11.081
40483W        W12908  30.074  30.439   4.952
40484W        W12909  38.792  11.401   4.241
40485W        W12910  34.502  36.082   3.734
40486W        W12911  27.236   5.401  11.163
40487W        W12912  34.193  40.525   2.566
40488W        W12913  25.400  29.108  14.758
40489W        W12914  26.687  39.153  12.556
40490W        W12915  36.304  28.394  12.378
40491W        W12916  30.493  33.442   3.616
40492W        W12917  27.463  32.028   3.356
40493W        W12918  34.036   2.987  14.344
40494W        W12919  10.670  22.994   3.670
40495W        W12920   4.887  24.542  11.699
40496W        W12921   6.470  21.676  11.999
40497W        W12922  11.409  33.416  12.085
40498W        W12923  19.709  11.420   5.178
40499W        W12924  43.081   5.143   0.360
40500W        W12925  28.576   8.935  14.787
40501W        W12926  18.513   7.467  11.223
40502W        W12927  22.380  13.251  10.176
40503W        W12928  40.639  35.954   3.615
40504W        W12929  21.592  32.867   1.928
40505W        W12930  33.541  43.728   3.238
40506W        W12931  33.839  33.938   0.450
40507W        W12932  35.695  38.764   1.893
40508W        W12933  13.649   2.334   0.291
40509W        W12934   7.554   3.914   0.212
40510W        W12935   1.710  21.681   4.222
40511W        W12936  16.816   0.452   0.369
40512W        W12937  13.241  16.179  10.572
40513W        W12938   2.239   1.520   1.761
40514W        W12939   9.162  26.240   1.787
40515W        W12940   0.396   6.066  14.910
40516W        W12941  34.575  21.700  12.597
40517W        W12942  31.576  37.701  12.903
40518W        W12943  44.053  31.124  13.049
40519W        W12944  25.126  32.108  13.483
40520W        W12945  16.723  44.823   0.901
40521W        W12946  39.109  16.944  14.516
40522W        W12947  43.480   4.214   0.110
40523W        W12948  20.090  40.363   4.606
40524W        W12949   6.399  38.373   3.791
40525W        W12950  37.359   6.993  12.552
40526W        W12951  42.365  25.707  12.652
40527W        W12952  31.223  17.039  12.827
40528W        W12953  42.413  18.019   4.662
40529W        W12954  37.214  30.880  13.397
40530W        W12955  19.075  15.879  11.492
40531W        W12956  25.042   8.258  14.249
40532W        W12957  20.122  16.335   4.136
40533W        W12958   4.433  35.483   4.878
40534W        W12959  33.977  13.459  12.141
40535W        W12960  41.498  23.584   4.553
40536W        W12961  35.055   2.322  11.328
40537W        W12962  12.577  35.616   1.339
40538W        W12963  10.317  24.641  12.490
40539W        W12964  19.359  32.692  14.320
40540W        W12965   5.414  31.031  12.733
40541W        W12966   9.406   0.777  10.376
40542W        W12967  28.117  15.638   0.084
40543W        W12968  18.040   8.128   3.230
40544W        W12969  40.697   8.298  13.037
40545W        W12970  28.050   0.324  14.869
40546W        W12971  33.490  21.640  11.572
40547W        W12972  42.459  29.503  13.783
40548W        W12973  17.646  16.866   1.903
40549W        W12974  13.798  30.373  14.315
40550W        W12975  22.101  41.254  11.047
40551W        W12976  38.120   9.373   0.877
40552W        W12977   6.346  38.838   1.710
40553W        W12978  21.175  16.224   1.493
40554W        W12979   3.263  36.859  14.495
40555W        W12980  44.170  42.789   3.360
40556W        W12981  34.896  29.431  13.140
40557W        W12982  13.155  11.888  13.834
40558W        W12983  24.711  21.993   3.772
40559W        W12984  25.451  34.301  13.112
40560W        W12985   4.643  20.186  12.017
40561W        W12986  39.453  36.553  10.741
40562W        W12987   5.189   6.427  12.059
40563W        W12988  36.230   4.762  13.399
40564W        W12989  19.660  43.527   0.411
40565W        W12990  23.090  37.373   0.573
40566W        W12991  16.256  20.532   3.109
40567W        W12992   5.977  16.030  11.896
40568W        W12993  13.263  18.312  13.154
40569W        W12994   7.896  23.632  11.446
40570W        W12995  26.896  20.130  10.974
40571W        W12996   8.887  42.829  11.487
40572W        W12997  41.116  32.880  11.042
40573W        W12998  24.104   1.233   1.732
40574W        W12999  32.638  43.900  11.143
40575W        W13000  24.729   1.459  10.601
40576W        W13001  40.825   2.036   3.201
40577W        W13002   8.748  35.054   3.839
40578W        W13003   8.017   9.685   2.334
40579W        W13004  38.946  44.995  11.637
40580W        W13005  32.505   5.833  14.046
40581W        W13006  17.613  20.694  14.354
40582W        W13007  23.060   6.881   0.365
40583W        W13008  23.352   0.367   2.268
40584W        W13009   6.558   1.762  12.125
40585W        W13010  35.063  36.609   0.860
40586W        W13011  39.072  11.899  13.351
40587W        W13012  11.515  23.835   5.100
40588W        W13013  41.297  18.756  11.583
40589W        W13014  15.803   4.069  11.904
40590W        W13015  35.944  30.406   4.712
40591W        W13016  29.029   6.403  11.484
40592W        W13017   6.834   6.442  13.719
40593W        W13018  30.635   3.446  11.106
40594W        W13019   0.350  20.288  13.096
40595W        W13020  23.601  33.375   0.200
40596W        W13021  14.694  44.485  14.352
40597W        W13022  30.953  42.260   2.475
40598W        W13023  28.958  37.468   1.894
40599W        W13024  34.578  43.822  13.817
40600W        W13025  26.423  11.118  13.582
40601W        W13026  37.191  30.177  13.893
40602W        W13027  43.286   7.454  12.467
40603W        W13028  44.543   2.822  13.469
40604W        W13029  34.131  18.603   3.667
40605W        W13030   4.263  10.775   2.286
40606W        W13031  34.534   9.293  13.612
40607W        W13032  22.945  28.391   1.361
40608W        W13033   3.217   8.626  11.051
40609W        W13034   5.472  27.093   3.704
40610W        W13035  15.293   2.419  11.157
40611W        W13036  44.468  29.999   2.639
40612W        W13037  12.562  41.848  14.709
40613W        W13038  29.872   7.648   4.815
40614W        W13039  16.598  28.007   2.184
40615W        W13040  25.872  42.567   2.277
40616W        W13041  15.277  18.698  11.858
40617W        W13042  31.136  19.378  12.415
40618W        W13043  24.574  17.743   4.538
40619W        W13044   8.249  40.818  14.967
40620W        W13045  43.910  44.581  14.780
40621W        W13046   2.638  26.092   3.717
40622W        W13047  19.709   6.445  13.060
40623W        W13048  40.521  32.225  10.690
40624W        W13049  41.742  23.843  11.547
40625W        W13050  25.197   7.085  12.539
40626W        W13051  41.263  32.571  12.901
40627W        W13052  23.156  43.384  12.227
40628W        W13053   7.603  29.829   5.181
40629W        W13054   3.426  25.977  13.569
40630W        W13055  37.696   0.443  14.765
40631W        W13056  16.263  14.045   2.620
40632W        W13057  38.336  32.157   4.374
40633W        W13058  39.873  15.275   3.426
40634W        W13059  16.941  38.529   1.023
40635W        W13060  32.508  31.029   4.745
40636W        W13061  42.762  16.613   1.804
40637W        W13062  26.683   2.993   0.301
40638W        W13063  20.546  30.058  11.023
40639W        W13064  34.382   3.042  10.680
40640W        W13065   8.843  42.108   2.289
40641W        W13066  15.704  24.268   2.257
40642W        W13067  11.903   0.894   0.071
40643W        W13068  41.043   3.122   0.567
40644W        W13069  24.058  37.856   3.035
40645W        W13070  21.498  40.459  13.425
40646W        W13071  28.408   3.843   2.413
40647W        W13072   7.796  32.597   4.580
40648W        W13073   2.255  33.034  11.524
40649W        W13074  31.909  32.372   2.246
40650W        W13075  13.346  13.741   1.699
40651W        W13076  12.228  11.656  11.610
40652W        W13077  44.143  28.887   4.165
40653W        W13078   4.947  33.410  11.168
40654W        W13079   1.167  44.965  11.191
40655W        W13080  30.155  34.822   4.027
40656W        W13081  44.308   9.736  12.178
40657W        W13082  33.418  33.593  11.097
40658W        W13083  30.498  21.596   0.952
40659W        W13084  41.947  41.244  12.503
40660W        W13085  30.410  30.370   2.917
40661W        W13086  39.887  21.217  12.271
40662W        W13087   0.872   8.483  10.871
40663W        W13088  13.056  19.498   2.153
40664W        W13089  43.418   5.287  14.964
40665W        W13090  33.914   7.838  12.919
40666W        W13091  10.387  23.797  12.608
40667W        W13092  29.386  29.063   4.040
40668W        W13093  26.274  28.029  13.800
40669W        W13094  43.524  12.361  14.021
40670W        W13095  23.774   1.357  12.578
40671W        W13096   0.104  35.935  11.333
40672W        W13097  40.464   4.798   0.215
40673W        W13098   9.320  20.577   2.397
40674W        W13099  23.362  38.372   0.097
40675W        W13100  29.324  10.135   2.252
40676W        W13101  42.441  42.324   3.714
40677W        W13102  19.484  15.998   3.615
40678W        W13103  17.169  43.736   1.706
40679W        W13104  43.779  17.785   3.445
40680W        W13105  14.175  26.789   0.908
40681W        W13106  28.471  40.018   4.173
40682W        W13107  42.857  43.906  13.461
40683W        W13108  38.007  17.572  11.102
40684W        W13109  44.924  22.755   0.823
40685W        W13110  10.814  34.856   0.547
40686W        W13111  16.364  16.867  11.902
40687W        W13112  26.956  30.706  10.716
40688W        W13113  15.362   7.429   2.383
40689W        W13114   1.078   5.762   2.216
40690W        W13115  34.082  28.135  12.455
40691W        W13116  23.031  34.970   4.145
40692W        W13117   8.785  44.248   1.514
40693W        W13118   1.897  10.896   3.417
40694W        W13119  30.035  43.510   3.355
40695W        W13120  12.835  12.804  13.065
40696W        W13121  32.601   2.174  12.006
40697W        W13122  16.632  13.560   1.297
40698W        W13123  17.695  43.444  11.024
40699W        W13124  42.967  22.600   1.713
40700W        W13125  24.494  40.911   4.626
40701W        W13126  19.070  31.542  10.800
40702W        W13127  40.567  27.921   2.286
40703W        W13128  28.466   6.159  13.629
40704W        W13129  12.229   9.783   3.158
40705W        W13130   9.817  35.064  13.552
40706W        W13131  43.747  26.965   2.294
40707W        W13132  34.133   9.930   1.815
40708W        W13133  44.943  42.481   2.447
40709W        W13134  14.411   9.488  11.754
40710W        W13135  28.394  35.442   0.420
40711W        W13136  37.150   0.194   3.671
40712W        W13137  14.866   9.630  12.123
40713W        W13138   0.525  42.616   4.128
40714W        W13139   7.386   6.434   2.169
40715W        W13140  17.220  44.548  11.675
40716W        W13141  42.097  11.382   0.966
40717W        W13142   1.281  14.267  13.066
40718W        W13143   7.447  33.468   1.653
40719W        W13144  15.865  18.628  14.125
40720W        W13145  33.738   1.273   1.261
40721W        W13146   1.362   4.010   2.252
40722W        W13147  16.171  20.334  14.293
40723W        W13148  23.115  40.742  12.472
40724W        W13149  17.030   5.887   3.773
40725W        W13150   7.199  15.870  12.546
40726W        W13151  32.909  40.976  13.884
40727W        W13152  14.124  38.420   3.077
40728W        W13153  38.298  39.984   2.790
40729W        W13154  43.569  26.169   1.441
40730W        W13155  31.238  26.117  14.807
40731W        W13156  12.227   6.524  10.512
40732W        W13157  28.569   2.098  14.564
40733W        W13158  15.173  25.088   2.685
40734W        W13159  16.333  21.715  12.117
40735W        W13160  41.372  30.078   3.860
40736W        W13161  25.254  24.161  13.020
40737W        W13162  31.149  32.718  11.571
40738W        W13163  38.522   4.256   2.227
40739W        W13164  41.240   4.479   3.251
40740W        W13165   3.374  17.300   0.712
40741W        W13166  15.196  35.989  13.479
40742W        W13167  37.076  12.813  12.065
40743W        W13168  32.007  33.665   3.894
40744W        W13169   1.887   2.115   4.166
40745W        W13170  44.160  16.820  14.154
40746W        W13171  29.003  35.569   3.757
40747W        W13172  23.457  30.431   5.020
40748W        W13173  37.684   7.277  14.107
40749W        W13174  38.317  11.221  13.028
40750W        W13175  12.071   8.290  12.378
40751W        W13176  13.334  33.946  11.648
40752W        W13177  32.113   7.222   3.591
40753W        W13178  25.469  17.032   4.074
40754W        W13179  42.881  20.678   5.096
40755W        W13180   8.807  29.846  12.877
40756W        W13181  21.993  28.526   0.362
40757W        W13182  23.541   4.960   0.328
40758W        W13183   3.835  27.775  10.371
40759W        W13184  18.689  37.258  11.181
40760W        W13185   7.652  30.880  13.034
40761W        W13186   7.984  37.198  11.552
40762W        W13187   0.268  12.940  13.941
40763W        W13188  40.421  43.052  13.131
40764W        W13189  27.968  25.085   0.562
40765W        W13190  12.409  36.449   0.955
40766W        W13191  41.478  40.943  14.218
40767W        W13192  26.605   8.724   1.478
40768W        W13193   1.881  23.992  11.128
40769W        W13194  35.301   0.215   4.584
40770W        W13195  38.357   5.866   1.681
40771W        W13196   0.507  18.267   0.244
40772W        W13197  44.721   1.242   0.346
40773W        W13198  12.867  34.529   2.142
40774W        W13199  16.730   7.144   1.801
40775W        W13200   7.262  36.653   1.925
40776W        W13201  40.114   9.688  11.144
40777W        W13202   2.680  31.933   3.827
40778W        W13203  36.884  31.561   4.573
40779W        W13204  29.451  22.996   3.985
40780W        W13205   6.636  37.631  10.570
40781W        W13206  28.413  33.419   0.856
40782W        W13207   2.310   0.598   3.715
40783W        W13208  20.803  20.321  12.655
40784W        W13209  38.107  15.702  10.742
40785W        W13210  15.863  13.608   1.672
40786W        W13211  40.944  20.724  11.511
40787W        W13212  15.523  26.522   5.071
40788W        W13213  16.694  33.484   2.614
40789W        W13214  43.504  29.784  10.324
40790W        W13215   7.004  12.675   1.331
40791W        W13216  32.499  37.196  14.869
40792W        W13217  14.624   5.671  12.972
40793W        W13218  35.935  34.587  14.728
40794W        W13219  19.677  33.668  13.451
40795W        W13220  43.788  10.123  13.439
40796W        W13221   8.053  43.969   2.222
40797W        W13222  26.821  35.747   3.580
40798W        W13223  27.983  37.632   3.577
40799W        W13224  41.267  30.857  13.446
40800W        W13225   7.864   4.447  11.427
40801W        W13226  39.597  33.875  14.431
40802W        W13227   9.096   3.360  14.932
40803W        W13228   1.890  10.334   2.269
40804W        W13229   8.441   9.291  13.383
40805W        W13230  26.670  18.646   1.654
40806W        W13231  26.617   3.479   1.395
40807W        W13232  28.558  30.034   3.397
40808W        W13233  18.557  44.330   4.204
40809W        W13234  43.476  33.059   3.785
40810W        W13235  13.867   0.585   4.107
40811W        W13236  27.698  11.289   0.337
40812W        W13237  10.983   2.322  11.457
40813W        W13238  22.121  35.918  14.357
40814W        W13239  38.318  43.064  12.038
40815W        W13240  44.285  18.273  10.026
40816W        W13241  29.599  36.205   0.507
40817W        W13242  24.501  34.638  13.479
40818W        W13243  43.031   1.956  11.909
40819W        W13244   0.788  44.526  14.025
40820W        W13245  15.579  38.037   3.242
40821W        W13246  15.359   4.482  12.703
40822W        W13247   0.809   6.536   1.699
40823W        W13248  17.953  15.249  12.578
40824W        W13249  35.957  30.443   3.673
40825W        W13250  39.548  22.479  10.695
40826W        W13251   8.273  43.866  11.177
40827W        W13252  40.503  40.263  14.946
40828W        W13253  30.719  12.163   2.756
40829W        W13254  39.846   2.622  14.240
40830W        W13255  38.541  22.542  10.617
40831W        W13256  11.922  26.141  13.512
40832W        W13257  13.881  15.869  11.017
40833W        W13258  35.903  20.306   3.397
40834W        W13259  28.658  20.080   0.358
40835W        W13260   1.241  30.630   4.522
40836W        W13261  21.305  13.610  14.427
40837W        W13262   6.141  34.401   2.124
40838W        W13263  37.984  27.395   1.504
40839W        W13264  18.495  23.777  11.474
40840W        W13265   2.399  33.847  14.560
40841W        W13266  31.888   9.845   2.639
40842W        W13267  31.933  27.895  10.643
40843W        W13268  19.007   6.671   1.663
40844W        W13269  22.168  37.523  13.997
40845W        W13270  20.267  13.066   3.537
40846W        W13271  37.740   0.255  12.044
40847W        W13272   1.446   0.700  14.612
40848W        W13273  25.711  21.631   1.426
40849W        W13274   0.704  17.791   2.688
40850W        W13275  19.137   3.558   4.041
40851W        W13276  33.889   0.927  11.542
40852W        W13277   8.836  36.959   0.672
40853W        W13278   1.874  28.364   3.611
40854W        W13279  22.680  10.633  14.215
40855W        W13280  27.113   3.903   4.651
40856W        W13281  15.013   6.883   1.909
40857W        W13282  32.852  43.983  10.669
40858W        W13283   7.321  15.798   3.970
40859W        W13284   4.990  12.650  13.853
40860W        W13285  27.600   9.962   4.307
40861W        W13286  29.751  21.598  12.902
40862W        W13287  30.715   9.697   0.404
40863W        W13288  26.454  43.745   0.169
40864W        W13289  32.525   3.887  10.550
40865W        W13290  33.195  19.095  14.086
40866W        W13291  17.214  24.761   1.698
40867W        W13292  15.499   8.260   1.295
40868W        W13293  11.773  26.119  14.023
40869W        W13294  14.711  17.907   2.898
40870W        W13295   6.911  28.393   3.120
40871W        W13296   5.397  43.049  11.628
40872W        W13297   5.398  26.997  14.393
40873W        W13298  27.122   8.833   1.346
40874W        W13299   9.677  39.654   2.288
40875W        W13300  24.705  36.822  13.185
40876W        W13301  42.554  10.130  11.145
40877W        W13302  18.204  31.104  11.003
40878W        W13303  30.786   5.881  12.465
40879W        W13304   1.516  41.595   4.561
40880W        W13305  25.518  44.789   3.404
40881W        W13306  17.096  23.628   4.661
40882W        W13307  16.212  33.926   2.849
40883W        W13308   1.713  24.777  12.893
40884W        W13309  32.856   2.483  11.648
40885W        W13310  19.513  37.512   2.565
40886W        W13311  31.757   6.722   1.462
40887W        W13312  41.589  33.622  10.416
40888W        W13313  33.407  32.852  12.102
40889W        W13314  28.697   2.449   1.241
40890W        W13315  28.371   7.418  13.130
40891W        W13316  11.155  11.495   1.179
40892W        W13317   4.394  19.523   3.358
40893W        W13318  15.682  35.881   0.213
40894W        W13319   9.826  27.088  10.898
40895W        W13320  17.827  22.485  11.352
40896W        W13321   8.487  12.223  10.467
40897W        W13322  30.747  31.551  12.579
40898W        W13323  29.191  15.561  13.417
40899W        W13324  22.713   0.207   3.434
40900W        W13325  16.064  36.536  14.765
40901W        W13326  40.694  11.309   3.360
40902W        W13327  28.059  11.297  12.069
40903W        W13328  43.020  32.775  11.974
40904W        W13329  21.133  30.620  12.567
40905W        W13330  24.605  39.610   3.218
40906W        W13331   1.538  12.574   2.281
40907W        W13332  14.702   2.202  11.446
40908W        W13333  13.785   2.982   1.791
40909W        W13334  20.774  31.012  13.446
40910W        W13335   3.315  43.759  11.837
40911W        W13336  37.792   4.319   3.852
40912W        W13337  43.319  10.179  14.490
40913W        W13338  35.011  17.120   3.229
40914W        W13339  15.857   3.183   3.343
40915W        W13340  28.068  38.420   1.014
40916W        W13341  12.342   0.012  13.376
40917W        W13342   4.130   8.708  13.462
40918W        W13343   4.357  36.980  10.638
40919W        W13344  20.233  14.561   3.623
40920W        W13345  34.675  44.609  13.503
40921W        W13346  21.995  33.634  12.629
40922W        W13347   4.209  36.607   2.295
40923W        W13348  44.534  24.983   1.180
40924W        W13349  15.618  37.759   1.462
40925W        W13350  23.720  42.869   4.996
40926W        W13351   1.003  23.219   0.206
40927W        W13352  40.243  37.838  11.502
40928W        W13353  32.465  13.425   2.915
40929W        W13354   3.990   9.502   2.428
40930W        W13355   9.730  44.808   4.142
40931W        W13356  30.818  13.722  12.416
40932W        W13357  15.744  10.874   0.271
40933W        W13358  37.789  16.851   1.938
40934W        W13359  32.454  24.003   1.477
40935W        W13360   1.543  31.957  14.498
40936W        W13361   9.771  15.522   1.933
40937W        W13362  32.188  36.992  11.477
40938W        W13363  10.132  41.981   1.374
40939W        W13364   7.870  28.959  13.782
40940W        W13365   1.378  37.883  11.892
40941W        W13366  32.161  41.018   1.887
40942W        W13367  12.863  40.818   2.437
40943W        W13368  40.117  15.660  11.269
40944W        W13369  15.855  10.705  11.038
40945W        W13370  14.701   1.903  12.992
40946W        W13371  33.311  33.034   1.467
40947W        W13372  13.106   6.329   0.229
40948W        W13373  43.808  25.912  14.045
40949W        W13374   2.198   8.247  13.102
40950W        W13375  18.238  32.482  12.030
40951W        W13376  31.433  23.520   3.379
40952W        W13377  36.221   1.638   2.952
40953W        W13378  22.296  13.804  11.115
40954W        W13379  15.331  25.113  14.361
40955W        W13380  11.797   7.003  12.204
40956W        W13381  17.721  27.549   2.708
40957W        W13382   7.114   9.343  13.047
40958W        W13383   7.474  31.596  13.796
40959W        W13384   9.668   7.918   4.644
40960W        W13385   4.553  17.675   3.166
40961W        W13386  35.592  43.394   0.761
40962W        W13387   0.005  43.829  11.870
40963W        W13388  18.081  35.641  14.465
40964W        W13389   5.293  14.139   0.870
40965W        W13390  22.928  24.758   1.589
40966W        W13391   5.349  30.343  10.664
40967W        W13392   0.568  32.894   0.378
40968W        W13393   6.684  33.967  10.622
40969W        W13394  27.679  35.848   4.674
40970W        W13395  26.212  22.789  12.284
40971W        W13396   7.713  20.082  14.367
40972W        W13397  44.539   6.385  14.374
40973W        W13398  29.900  38.931  13.451
40974W        W13399   6.195  25.547   4.348
40975W        W13400  25.719  22.634   1.951
40976W        W13401  10.686  26.107  14.924
40977W        W13402  30.599  29.651  10.958
40978W        W13403  20.633  24.460   0.056
40979W        W13404   3.970   1.370   1.348
40980W        W13405  24.955  35.925  12.452
40981W        W13406  44.015   9.541   2.995
40982W        W13407  27.456   7.074  12.009
40983W        W13408  40.757  28.620  13.393
40984W        W13409  21.053   0.910   4.694
40985W        W13410  43.383   2.087   1.442
40986W        W13411  30.570  28.994  10.692
40987W        W13412   5.958  44.054   4.523
40988W        W13413   0.989  24.671   1.837
40989W        W13414   2.463  28.169  12.149
40990W        W13415  28.043  36.574   4.432
40991W        W13416  27.610  31.572   0.827
40992W        W13417  38.294  37.479   1.376
40993W        W13418  10.362   8.388   3.160
40994W        W13419  24.185  19.726  13.642
40995W        W13420   0.455  17.755   0.436
40996W        W13421  35.490  23.534   4.808
40997W        W13422   3.390  34.897  11.046
40998W        W13423  28.733  37.809   0.892
40999W        W13424  21.215  20.290  14.418
41000W        W13425  43.331  26.979  12.062
41001W        W13426   0.021  24.984   3.412
41002W        W13427  22.834   7.366   0.395
41003W        W13428   7.706  31.554   2.801
41004W        W13429  29.396  31.628  11.139
41005W        W13430  14.084  10.608  13.345
41006W        W13431  15.166   0.013   1.815
41007W        W13432  31.126   9.052  11.198
41008W        W13433  21.214  41.851  11.098
41009W        W13434  29.703   7.397  12.571
41010W        W13435  27.025  42.411  12.040
41011W        W13436   9.523  30.995   0.463
41012W        W13437  35.045  32.486  14.602
41013W        W13438   0.312  42.677   2.756
41014W        W13439  27.298  25.942   3.935
41015W        W13440   0.657  39.307  14.413
41016W        W13441  14.634  41.294   3.056
41017W        W13442  42.276   3.458   4.160
41018W        W13443   3.748   4.759   2.237
41019W        W13444  44.199  21.612  14.488
41020W        W13445  23.188  10.032   2.252
41021W        W13446  26.579  40.760  13.815
41022W        W13447  10.760   4.598   0.332
41023W        W13448  23.694  12.067  13.084
41024W        W13449  42.442   6.446  14.497
41025W        W13450  31.727  24.404   3.189
41026W        W13451  29.127  22.017  14.871
41027W        W13452   0.762  21.263  10.232
41028W        W13453  30.040  15.062  14.979
41029W        W13454  16.291  25.759  11.242
41030W        W13455  19.478  34.523  13.029
41031W        W13456  38.974  31.905   1.960
41032W        W13457  40.316   0.985   1.436
41033W        W13458  30.897   0.178   3.797
41034W        W13459   4.691  18.071   0.098
41035W        W13460  23.978  31.952  12.001
41036W        W13461  26.936  44.758  13.967
41037W        W13462  39.995  28.683   3.134
41038W        W13463  44.210  37.884   3.390
41039W        W13464  31.812  24.891  12.533
41040W        W13465  24.166  15.213   0.791
41041W        W13466  41.087  11.770   4.245
41042W        W13467   0.396  26.603  11.667
41043W        W13468  23.916  20.699  14.826
41044W        W13469  14.547  44.054  10.503
41045W        W13470  42.020   5.948  13.841
41046W        W13471   6.284  25.659  13.346
41047W        W13472  20.826   8.466  12.092
41048W        W13473   0.795  17.885   3.701
41049W        W13474   5.808   0.263   3.068
41050W        W13475  33.554  15.844  11.958
41051W        W13476  18.057  19.810   2.443
41052W        W13477  42.809  18.018   0.821
41053W        W13478  28.620  23.351  11.018
41054W        W13479  41.485  10.714   2.755
41055W        W13480  12.404  19.185   0.952
41056W        W13481   7.265  11.826  14.374
41057W        W13482  27.092  42.824   1.824
41058W        W13483  21.971  44.859   0.679
41059W        W13484  12.048  12.133   2.119
41060W        W13485  32.995   3.244  13.550
41061W        W13486  31.494  32.213   1.451
41062W        W13487  37.910   8.815  10.169
41063W        W13488  13.601   5.895  11.627
41064W        W13489  44.401   3.918   3.150
41065W        W13490  43.399  40.961  12.474
41066W        W13491  31.386   9.882   2.585
41067W        W13492  12.289  37.358   0.689
41068W        W13493   9.637  37.169   0.035
41069W        W13494  16.575   6.257  11.645
41070W        W13495  43.188  14.821   3.758
41071W        W13496  36.981  14.668  12.444
41072W        W13497  15.114  30.091  10.570
41073W        W13498  14.354   6.104  12.064
41074W        W13499  24.657  29.569   0.263
41075W        W13500  44.230  15.574  10.091
41076W        W13501  16.632  42.911  11.536
41077W        W13502  23.068  34.401   2.867
41078W        W13503   4.571   1.425  13.781
41079W        W13504  16.522  39.379   0.896
41080W        W13505  28.453  39.516   1.793
41081W        W13506   8.133  13.092   3.836
41082W        W13507  14.627  30.109  14.750
41083W        W13508  22.446  26.609  12.893
41084W        W13509  32.796   8.198   0.860
41085W        W13510  17.368  30.530   2.683
41086W        W13511  17.104  34.871  13.528
41087W        W13512  12.632  26.550   4.886
41088W        W13513  20.231  11.346   1.973
41089W        W13514  40.327   6.700  11.687
41090W        W13515  25.722  32.587   9.526
41091W        W13516  25.252  31.716  12.372
41092W        W13517   7.532  22.071   0.987
41093W        W13518  27.081  16.722   2.240
41094W        W13519  30.604  35.804   2.123
41095W        W13520  38.537   0.369  11.640
41096W        W13521  31.486  44.803   0.412
41097W        W13522  15.612  28.194   4.859
41098W        W13523  43.378   2.356   2.343
41099W        W13524  21.816  27.148   2.252
41100W        W13525  44.571  28.932  14.323
41101W        W13526  23.686  21.539   0.392
41102W        W13527  17.439  25.161   4.555
41103W        W13528   1.254  23.640  13.812
41104W        W13529  37.084  30.657  10.545
41105W        W13530  37.912  32.437  14.991
41106W        W13531   4.308  22.512   2.170
41107W        W13532  26.593  33.641  12.310
41108W        W13533  40.364   5.438   3.036
41109W        W13534  22.786  38.442  12.890
41110W        W13535  27.394   0.255   1.256
41111W        W13536  17.461  10.599   3.596
41112W        W13537  12.258  41.273  13.455
41113W        W13538  19.109  27.953   2.683
41114W        W13539   4.908   9.118   3.725
41115W        W13540  16.833  21.055   4.428
41116W        W13541  38.352  41.253   1.304
41117W        W13542   9.243  33.307  11.083
41118W        W13543   7.486  10.176  11.177
41119W        W13544   0.664  21.696   4.274
41120W        W13545  14.747   1.911  12.074
41121W        W13546  17.653  35.657   2.500
41122W        W13547   2.776  18.595   0.758
41123W        W13548  21.658  14.473  13.258
41124W        W13549  26.697  27.922  11.528
41125W        W13550   8.055  20.912  13.894
41126W        W13551  22.358   4.422  10.529
41127W        W13552  33.009  15.647  13.797
41128W        W13553  34.378   1.325   2.909
41129W        W13554  17.031  32.830   2.367
41130W        W13555  38.530  25.610  10.780
41131W        W13556  16.135  32.431  11.901
41132W        W13557  39.610  40.854  13.424
41133W        W13558  40.289   2.747   2.417
41134W        W13559  34.300  35.383   4.662
41135W        W13560  39.461   0.673   4.098
41136W        W13561  32.253  32.511   2.706
41137W        W13562  40.211   7.334  10.829
41138W        W13563  19.286   0.699   2.424
41139W        W13564  18.781  42.073   4.098
41140W        W13565  21.177  11.463  10.810
41141W        W13566  13.217  14.021   4.590
41142W        W13567  20.239   1.436  14.784
41143W        W13568  28.886  10.810  12.218
41144W        W13569  14.828  34.646  13.931
41145W        W13570  14.809  31.519   2.657
41146W        W13571  17.159  14.296  14.043
41147W        W13572  12.669  32.352   0.244
41148W        W13573  13.250   6.264  14.699
41149W        W13574   9.906  25.714   2.745
41150W        W13575  20.873  17.243  13.048
41151W        W13576  34.208  33.151   2.399
41152W        W13577  11.770  24.175  12.428
41153W        W13578  30.901  31.665   0.943
41154W        W13579   4.183   6.212  11.858
41155W        W13580  26.198   1.330   1.671
41156W        W13581  31.662   4.775  11.153
41157W        W13582  42.330  23.158  10.142
41158W        W13583  37.358   5.695   2.817
41159W        W13584  29.185  42.404  12.565
41160W        W13585  13.451  23.555  11.668
41161W        W13586   9.138  11.720  13.971
41162W        W13587  29.491  42.821  11.696
41163W        W13588  19.008  17.664   1.301
41164W        W13589   0.972  24.325   4.516
41165W        W13590   3.972  42.338  13.479
41166W        W13591  43.780  39.811   4.612
41167W        W13592  43.116   3.574  14.471
41168W        W13593  37.949   0.738  12.029
41169W        W13594   2.674  23.497   4.078
41170W        W13595  23.584   4.476  12.617
41171W        W13596   5.405  30.866   3.204
41172W        W13597  18.954  23.719   1.338
41173W        W13598  37.017  22.690  13.846
41174W        W13599  39.356  20.732   0.367
41175W        W13600  20.203   2.437   1.298
41176W        W13601   4.956  18.108   4.426
41177W        W13602  13.724  20.636  11.953
41178W        W13603  23.268   1.899   0.305
41179W        W13604  12.621  25.007  14.264
41180W        W13605  30.950  37.338  10.748
41181W        W13606  22.189  21.670  14.311
41182W        W13607  44.556  27.207  12.582
41183W        W13608   6.776  17.202  12.373
41184W        W13609   1.252  24.378   1.493
41185W        W13610  35.582  27.166  11.606
41186W        W13611  17.617  31.712  10.696
41187W        W13612  39.809  34.541   0.366
41188W        W13613  32.999   2.956   0.956
41189W        W13614  10.176  41.914  14.551
41190W        W13615  12.618  21.927   9.581
41191W        W13616  17.096  24.995  11.042
41192W        W13617  15.811  15.563  11.944
41193W        W13618  30.878  37.587   3.266
41194W        W13619  34.762  19.641   2.912
41195W        W13620   1.753  30.342   1.393
41196W        W13621  19.295  22.407   2.262
41197W        W13622  24.951  42.049  11.134
41198W        W13623  33.719  18.208   1.460
41199W        W13624   8.646  42.210   1.155
41200W        W13625  22.023  20.746  14.755
41201W        W13626  13.634  40.165   4.091
41202W        W13627  43.926  21.580   2.852
41203W        W13628   8.711  14.223  10.759
41204W        W13629  12.022  31.111  13.357
41205W        W13630   1.504   1.165  14.447
41206W        W13631  31.005  40.390   9.830
41207W        W13632  36.029  36.507  13.769
41208W        W13633  28.070  16.156  10.556
41209W        W13634  38.105  17.123  14.310
41210W        W13635  28.952  21.711  13.575
41211W        W13636  42.818  22.736   5.077
41212W        W13637   8.153   1.709   2.421
41213W        W13638  39.074  22.209  10.768
41214W        W13639   4.020  13.637   1.852
41215W        W13640  41.272   4.895   0.548
41216W        W13641  38.878   4.683  10.314
41217W        W13642   7.870  37.893   4.402
41218W        W13643  38.973  22.387  14.889
41219W        W13644  17.735  41.117   3.623
41220W        W13645   1.842  17.543   4.733
41221W        W13646  40.038  31.393  13.028
41222W        W13647  41.328   5.876  13.113
41223W        W13648  25.467  10.165  14.901
41224W        W13649   6.765   2.212   0.426
41225W        W13650  23.634  40.833   1.712
41226W        W13651  31.220  39.042  13.835
41227W        W13652  43.606  20.213   2.171
41228W        W13653  20.765  29.119   3.167
41229W        W13654  35.498   3.179   0.742
41230W        W13655   8.533  41.777   1.396
41231W        W13656   9.089  20.174   2.689
41232W        W13657  29.372  34.955  11.323
41233W        W13658  29.014   5.252   2.249
41234W        W13659   8.118   3.208   3.702
41235W        W13660  34.930  15.660   1.774
41236W        W13661  19.796  43.463   4.154
41237W        W13662  11.307  22.534  11.393
41238W        W13663  18.655  39.936  11.259
41239W        W13664  38.037   4.446   3.415
41240W        W13665   4.306  25.552  13.467
41241W        W13666   9.262   3.786  14.379
41242W        W13667   6.757  43.422   4.561
41243W        W13668  43.839  23.445  11.943
41244W        W13669  24.572  33.345   4.750
41245W        W13670  12.184  24.449  13.783
41246W        W13671  21.250  32.857   1.347
41247W        W13672  13.075  20.702   0.395
41248W        W13673  35.173   3.694   1.393
41249W        W13674  30.531  10.009   1.642
41250W        W13675  31.938  19.560  14.497
41251W        W13676  29.725  14.226  10.361
41252W        W13677  44.269  35.967   3.379
41253W        W13678  26.060  34.889  12.367
41254W        W13679  33.075  42.180   3.661
41255W        W13680  22.547  43.038   0.379
41256W        W13681  11.037  21.836  13.146
41257W        W13682  31.526  32.433   4.388
41258W        W13683   4.535   6.247   2.713
41259W        W13684  26.733  16.761  14.792
41260W        W13685   4.010  26.393  14.921
41261W        W13686  13.299  15.437  11.005
41262W        W13687  41.487  33.992   0.760
41263W        W13688   6.333  36.610   1.642
41264W        W13689  29.183  37.548   0.979
41265W        W13690  20.225  24.172   1.192
41266W        W13691  10.917  14.247  10.759
41267W        W13692  32.129   1.241  13.876
41268W        W13693  41.229  42.850  14.559
41269W        W13694  33.505  17.634  11.580
41270W        W13695   7.752  38.664  12.525
41271W        W13696  34.270  39.818   0.538
41272W        W13697   7.753   3.408   0.275
41273W        W13698  39.345  23.171   3.179
41274W        W13699  39.632  34.527  12.814
41275W        W13700  25.489   7.817  14.863
41276W        W13701  43.003  10.946  13.526
41277W        W13702  44.497  18.999   3.226
41278W        W13703  15.140  10.790   3.518
41279W        W13704   5.693  39.372  10.702
41280W        W13705  22.916   9.562   4.651
41281W        W13706   6.477   1.777   0.541
41282W        W13707  30.764  44.123  14.557
41283W        W13708   7.322  16.955  13.957
41284W        W13709  35.885   5.882  13.008
41285W        W13710   2.433  44.030   3.611
41286W        W13711   9.643  37.585   0.348
41287W        W13712  33.504  12.545  10.740
41288W        W13713  26.476  42.436  13.759
41289W        W13714  28.119  27.763  11.559
41290W        W13715  31.642  40.056   0.332
41291W        W13716  24.760   2.342  13.993
41292W        W13717  33.857  43.030  10.675
41293W        W13718  24.308   3.548  12.092
41294W        W13719   0.270  16.752  10.675
41295W        W13720  16.187  25.170   4.164
41296W        W13721  23.245  11.173   2.259
41297W        W13722  36.870  22.018  11.656
41298W        W13723   5.791  21.789   0.499
41299W        W13724  39.796  24.757   4.061
41300W        W13725  22.875  29.404  12.822
41301W        W13726   4.351  25.594   4.279
41302W        W13727  29.595  44.287   4.649
41303W        W13728  12.649  39.381  13.950
41304W        W13729  34.169  42.998  12.474
41305W        W13730  10.872  18.615   4.621
41306W        W13731  35.816  34.101   1.325
41307W        W13732  25.185  19.476   4.264
41308W        W13733   3.399  20.801   5.081
41309W        W13734  15.334  28.549  14.690
41310W        W13735  29.889  42.496   1.044
41311W        W13736  41.074   6.391   4.182
41312W        W13737  26.634   7.406   4.297
41313W        W13738  34.394  30.483   0.705
41314W        W13739  35.331   2.283   3.741
41315W        W13740   0.863  11.888  11.586
41316W        W13741  25.744   1.907   0.377
41317W        W13742  37.289   0.448  14.457
41318W        W13743  12.361  32.680  12.403
41319W        W13744   5.892  40.574   2.761
41320W        W13745  35.062  39.958  14.365
41321W        W13746  35.326  34.907  11.703
41322W        W13747  11.415  24.661  13.440
41323W        W13748  32.747   3.732  11.972
41324W        W13749   2.849   1.478   1.573
41325W        W13750  12.311   1.738   4.970
41326W        W13751  15.596  20.544  12.147
41327W        W13752  35.369  11.706   4.119
41328W        W13753   1.900  42.928   4.858
41329W        W13754  19.325  33.848   4.318
41330W        W13755  35.837  20.802   4.159
41331W        W13756  40.144  30.899   2.271
41332W        W13757  18.813  38.988   4.568
41333W        W13758  25.269  12.281   4.251
41334W        W13759  17.995  25.201  12.849
41335W        W13760   9.129  11.329  12.901
41336W        W13761  44.732  27.995  11.173
41337W        W13762  27.417  33.856   0.360
41338W        W13763  27.190  33.516  10.484
41339W        W13764  14.617  23.973   3.492
41340W        W13765  24.155  40.750   1.785
41341W        W13766  15.702  14.099   1.794
41342W        W13767  23.925  16.747   2.385
41343W        W13768  11.768  11.647   2.176
41344W        W13769  16.722  11.784  10.852
41345W        W13770   6.396  15.219  13.557
41346W        W13771  34.048  13.368  13.029
41347W        W13772  43.906   6.281   3.832
41348W        W13773  32.173   4.584  13.568
41349W        W13774   7.883  40.839  11.811
41350W        W13775  32.686  14.624  11.497
41351W        W13776  40.268  16.170   4.066
41352W        W13777  41.586  22.143   9.992
41353W        W13778  44.755  40.049  12.339
41354W        W13779  18.140  41.527   3.741
41355W        W13780   0.768  39.931  10.684
41356W        W13781  35.478  11.173   0.268
41357W        W13782  18.699  34.894   3.336
41358W        W13783  44.259  35.013  10.421
41359W        W13784  37.780  40.860  13.748
41360W        W13785  10.745  13.387  13.982
41361W        W13786  10.226  25.699  13.938
41362W        W13787  27.694  32.472   1.942
41363W        W13788  36.351  33.435   2.432
41364W        W13789  17.990  30.101   4.437
41365W        W13790  21.558  35.091   3.185
41366W        W13791  24.521  43.722  11.145
41367W        W13792  38.981  32.044   3.736
41368W        W13793  38.127   6.932  12.405
41369W        W13794  31.322  41.121  10.233
41370W        W13795   3.249  33.171   3.875
41371W        W13796  34.990  22.271  12.101
41372W        W13797   9.536  13.084   1.880
41373W        W13798  29.217  18.203  13.833
41374W        W13799   1.868   7.882  14.283
41375W        W13800   2.871  41.560   4.762
41376W        W13801  10.482   1.016   1.476
41377W        W13802  24.360   7.161   4.169
41378W        W13803  12.378  14.920   0.103
41379W        W13804   9.177  16.719   4.591
41380W        W13805  43.258  13.777  14.586
41381W        W13806  19.694  39.083  12.560
41382W        W13807  14.693   2.411   3.634
41383W        W13808   7.946  34.955   2.810
41384W        W13809   7.802  26.479  12.462
41385W        W13810  12.340  34.052   1.917
41386W        W13811  18.191   7.684   2.978
41387W        W13812  23.549  39.577  13.049
41388W        W13813  39.051  18.111   3.310
41389W        W13814   2.281  31.673  12.097
41390W        W13815   1.862  18.662  14.236
41391W        W13816  44.458  18.562  11.474
41392W        W13817  43.540   6.954  10.764
41393W        W13818  38.975  44.355  10.937
41394W        W13819  15.107  21.587   0.409
41395W        W13820   8.109  16.904  11.985
41396W        W13821  39.027  12.150  13.828
41397W        W13822  32.861  20.253   2.498
41398W        W13823  17.368  22.348   1.265
41399W        W13824  31.233  14.878   1.190
41400W        W13825  11.555   8.376   2.731
41401W        W13826  18.138  21.976   4.092
41402W        W13827  22.805   0.726   3.770
41403W        W13828  20.530  14.633   0.843
41404W        W13829  30.103  32.106   1.290
41405W        W13830  42.552  17.870   1.782
41406W        W13831  14.720  38.611   0.587
41407W        W13832  34.621  30.628  13.856
41408W        W13833  33.668  27.387   1.424
41409W        W13834  36.667   3.173  13.983
41410W        W13835  13.340  38.834   3.299
41411W        W13836  41.473  18.532  13.954
41412W        W13837   2.318  36.684  11.615
41413W        W13838   3.875   6.699  11.046
41414W        W13839  28.491   9.996  13.311
41415W        W13840  13.266  44.834   0.334
41416W        W13841  15.289  37.488   2.759
41417W        W13842  15.692  43.061  14.296
41418W        W13843  17.608   9.852  13.495
41419W        W13844   0.503  35.877   2.865
41420W        W13845  43.997  23.987  13.348
41421W        W13846  36.005  25.878  14.513
41422W        W13847   1.768  39.312  14.449
41423W        W13848  21.183  28.044   0.429
41424W        W13849   2.741  31.850   3.309
41425W        W13850  25.799  22.099   4.375
41426W        W13851  21.710  12.169  13.326
41427W        W13852  35.201  30.353   9.856
41428W        W13853  12.724  13.241   1.275
41429W        W13854  42.037  11.243   0.457
41430W        W13855  43.807  29.594   3.723
41431W        W13856   5.154  26.610  14.116
41432W        W13857  43.797  29.950  11.001
41433W        W13858  32.010  27.584   1.895
41434W        W13859  27.758  21.005  13.321
41435W        W13860   4.230   9.245   0.905
41436W        W13861   3.376  28.425  13.058
41437W        W13862  17.994   0.871   1.815
41438W        W13863  14.078  19.078  14.803
41439W        W13864   3.800  18.911  14.008
41440W        W13865  28.157  22.493   1.131
41441W        W13866  40.066   1.931   3.660
41442W        W13867  19.165   4.014   3.637
41443W        W13868   9.151  39.779   3.951
41444W        W13869  13.093  24.517  14.303
41445W        W13870  21.111  40.771  12.073
41446W        W13871  20.188  18.417  12.462
41447W        W13872  44.777  44.277  14.502
41448W        W13873  21.289  12.179   1.791
41449W        W13874  26.578  17.649  12.958
41450W        W13875  35.811  39.362   2.813
41451W        W13876  30.890   6.700   2.258
41452W        W13877  25.189   0.303   4.120
41453W        W13878  26.965  32.371  14.799
41454W        W13879   7.336   8.315  12.497
41455W        W13880   8.518  37.113   4.009
41456W        W13881  16.194  21.898   0.730
41457W        W13882  31.475  12.758   4.570
41458W        W13883   1.371  20.811   3.716
41459W        W13884  16.859  40.819  12.740
41460W        W13885  14.623  37.742  13.305
41461W        W13886  24.527   1.335   2.005
41462W        W13887  19.889  11.170   1.560
41463W        W13888   3.002  34.511  14.953
41464W        W13889  14.662   1.339  12.457
41465W        W13890  43.295  18.010   4.634
41466W        W13891  14.331  18.646  10.693
41467W        W13892  41.958   8.369  14.386
41468W        W13893  12.797  33.204   2.004
41469W        W13894  34.976  39.364   2.803
41470W        W13895   8.424  13.150  12.408
41471W        W13896  10.365  21.708   0.820
41472W        W13897  43.994  39.320  14.504
41473W        W13898  10.959  31.558  10.609
41474W        W13899   6.964   9.467  11.135
41475W        W13900  40.351  20.039   0.396
41476W        W13901  14.942  29.730   0.033
41477W        W13902  26.922   7.417   1.327
41478W        W13903   4.027  19.491  13.947
41479W        W13904  31.553  21.403  13.392
41480W        W13905  31.484  22.711   0.125
41481W        W13906  28.046  23.626   2.524
41482W        W13907  44.358   9.399  13.413
41483W        W13908  18.843  40.750   1.941
41484W        W13909  23.464  31.131   4.577
41485W        W13910  23.601  44.265   3.187
41486W        W13911  12.896  17.061   1.718
41487W        W13912  42.847  36.298  12.183
41488W        W13913  23.963  20.372   3.769
41489W        W13914  22.741   2.582  13.561
41490W        W13915   0.403  17.796   2.237
41491W        W13916  37.862  18.796   3.299
41492W        W13917  42.867  25.833   1.732
41493W        W13918  29.482   5.040   2.389
41494W        W13919   3.201  28.436   4.719
41495W        W13920  35.428  17.834  14.420
41496W        W13921  28.093  43.520   4.623
41497W        W13922  20.249  25.251  12.865
41498W        W13923  23.907  32.940  12.249
41499W        W13924   0.884  27.660   1.775
41500W        W13925  18.854  38.754  12.050
41501W        W13926   0.121  33.308   3.126
41502W        W13927  18.291  39.337  14.134
41503W        W13928  33.612  12.382   1.415
41504W        W13929   1.150  33.657   9.821
41505W        W13930   5.137  12.034   0.215
41506W        W13931  43.849   5.850   4.155
41507W        W13932  44.964   3.795   4.359
41508W        W13933  31.604  39.014  12.858
41509W        W13934  36.927  19.318   1.132
41510W        W13935  32.009  30.829  14.260
41511W        W13936  38.752   3.746  14.295
41512W        W13937  23.980  13.122   2.710
41513W        W13938  26.292   2.557  13.979
41514W        W13939  12.302  12.819   3.296
41515W        W13940  24.158  17.053   0.385
41516W        W13941   1.809  25.141   2.667
41517W        W13942  40.328  43.734   2.761
41518W        W13943   3.414   6.181   0.749
41519W        W13944  21.721  23.198  13.561
41520W        W13945  35.986  39.309  11.979
41521W        W13946  21.698   8.290   3.673
41522W        W13947  10.823  11.461   4.569
41523W        W13948  12.152  33.643   3.251
41524W        W13949  28.936  12.752   3.601
41525W        W13950  11.423  44.913   0.185
41526W        W13951   8.589  37.092  11.697
41527W        W13952  33.134  35.395   3.445
41528W        W13953   3.773  21.756  13.944
41529W        W13954  32.541   8.621  10.526
41530W        W13955  31.395   5.403   2.286
41531W        W13956  39.303  30.415   3.751
41532W        W13957  20.265  13.920  13.469
41533W        W13958   8.728  15.541   0.782
41534W        W13959  32.652   6.765  13.589
41535W        W13960  14.559  28.150  10.291
41536W        W13961  38.864  21.206   1.277
41537W        W13962  24.453   2.678   2.756
41538W        W13963   6.338  30.028  11.317
41539W        W13964   4.939  12.669   4.205
41540W        W13965  42.550  18.689   3.329
41541W        W13966  40.932  41.768  12.896
41542W        W13967  34.601   9.813   1.012
41543W        W13968  44.762   2.740   4.540
41544W        W13969  32.571  38.627  13.451
41545W        W13970  43.451  40.017   0.830
41546W        W13971   2.020  24.239   0.827
41547W        W13972  36.274  10.637   3.769
41548W        W13973  18.201  29.850  12.684
41549W        W13974  37.503  27.730  10.566
41550W        W13975   7.667  40.252   4.652
41551W        W13976  20.975  17.450  14.560
41552W        W13977  11.568   1.934   4.597
41553W        W13978  12.174  11.667   2.863
41554W        W13979  31.976  41.605   0.610
41555W        W13980  24.151  13.761   0.255
41556W        W13981  29.530  35.078  10.548
41557W        W13982  29.407  29.494  14.385
41558W        W13983  14.409  26.126   2.796
41559W        W13984  30.397   2.451   3.449
41560W        W13985  28.167   4.878  13.491
41561W        W13986  38.841  43.039   1.297
41562W        W13987  39.054  26.899   2.684
41563W        W13988   0.453   2.148   3.373
41564W        W13989  37.580  35.001  14.336
41565W        W13990  35.881  19.677  10.967
41566W        W13991  10.571  24.077   5.121
41567W        W13992  12.921   4.224   3.713
41568W        W13993   1.476  36.958   4.646
41569W        W13994  40.898  10.354  10.597
41570W        W13995  14.412  11.606   1.710
41571W        W13996  25.714   9.358  13.608
41572W        W13997  28.148  24.727   0.224
41573W        W13998  24.100  36.337  10.696
41574W        W13999  12.813  19.297   1.718
41575W        W14000   1.673   1.467   2.913
41576W        W14001  37.106  36.114  13.996
41577W        W14002  19.224  34.949  13.781
41578W        W14003   5.181  29.123  13.325
41579W        W14004  10.820   8.851   2.369
41580W        W14005  18.822   3.424  13.961
41581W        W14006  40.072   5.869  13.956
41582W        W14007  42.428   3.027   3.202
41583W        W14008  35.287  40.518  11.499
41584W        W14009  23.520  26.227   5.145
41585W        W14010  30.606  25.050   4.854
41586W        W14011  36.865   4.758  10.653
41587W        W14012  43.464  44.317  14.719
41588W        W14013   8.411  36.988   2.155
41589W        W14014   5.949  10.954  14.414
41590W        W14015  16.629  38.835  14.806
41591W        W14016  41.054  16.746  13.304
41592W        W14017  15.253  13.094  14.459
41593W        W14018  15.193  30.387   4.165
41594W        W14019  39.032  43.791   4.203
41595W        W14020  44.415  19.332  12.540
41596W        W14021  39.433  39.053   2.585
41597W        W14022   8.894   7.359  10.745
41598W        W14023  42.104  44.477  14.802
41599W        W14024  25.650  25.969  12.333
41600W        W14025  29.973  20.619  11.610
41601W        W14026   4.841  43.519  12.151
41602W        W14027  33.544  20.660  14.958
41603W        W14028  12.335  41.400   3.291
41604W        W14029  33.800  16.759  14.167
41605W        W14030  25.988   6.282  13.068
41606W        W14031  25.282  28.569   2.910
41607W        W14032  17.155   1.739   5.093
41608W        W14033   2.987  15.833  12.384
41609W        W14034  18.745  44.446   0.411
41610W        W14035  20.689  22.157   0.903
41611W        W14036  13.579  10.665  13.470
41612W        W14037   5.071  18.569   1.292
41613W        W14038  14.879   7.702   0.174
41614W        W14039  41.545  36.057   3.490
41615W        W14040  28.516  33.504  12.518
41616W        W14041  34.545   5.242  10.438
41617W        W14042   4.491  34.733   2.099
41618W        W14043  38.238  21.101  10.091
41619W        W14044  32.861  13.664   0.389
41620W        W14045  30.106  17.546   4.261
41621W        W14046  16.606   0.900   2.742
41622W        W14047   9.343  30.984   0.966
41623W        W14048  23.439  41.913   4.217
41624W        W14049   7.930  23.988   3.212
41625W        W14050  32.634  19.036   1.758
41626W        W14051  28.200   0.308   3.716
41627W        W14052  10.693  25.642   0.185
41628W        W14053  30.482  38.593   0.214
41629W        W14054  29.074  11.772   1.269
41630W        W14055  41.849  28.152   1.879
41631W        W14056  27.525  35.942   4.172
41632W        W14057   4.425  19.866   1.036
41633W        W14058   5.126  23.779   0.997
41634W        W14059  20.540  43.860   0.828
41635W        W14060  19.537  34.908   0.829
41636W        W14061  10.203  42.602  12.075
41637W        W14062  27.535  37.286  12.134
41638W        W14063   6.449  31.418   0.308
41639W        W14064  43.229   0.801   0.047
41640W        W14065   1.018   3.854  13.054
41641W        W14066   6.387  20.819   3.398
41642W        W14067  14.856  24.544  10.661
41643W        W14068  17.091  37.836   0.288
41644W        W14069  20.968  41.270  12.129
41645W        W14070  42.385  21.231  14.593
41646W        W14071  16.314  32.549   1.931
41647W        W14072   0.369  29.938   2.602
41648W        W14073   5.301   9.160  14.568
41649W        W14074  44.827  15.168   3.505
41650W        W14075   1.886  16.081   2.808
41651W        W14076  24.977  13.746  13.892
41652W        W14077  15.001   8.925   2.940
41653W        W14078  36.479   7.374   2.280
41654W        W14079  21.622  38.393  11.012
41655W        W14080   7.265   1.281   4.148
41656W        W14081  38.469  21.035   0.560
41657W        W14082  26.102  18.776  14.435
41658W        W14083   9.119  35.290  11.151
41659W        W14084  20.637  10.402  13.100
41660W        W14085  20.469  31.417   4.318
41661W        W14086   2.049  18.955  12.487
41662W        W14087   5.647  10.257  14.978
41663W        W14088  19.175  31.123   3.936
41664W        W14089   5.291  34.677  10.579
41665W        W14090  10.167  43.010  14.302
41666W        W14091   5.901  10.444  14.321
41667W        W14092  37.475  37.102  12.636
41668W        W14093  11.854  28.655  14.546
41669W        W14094  39.871  36.666  13.750
41670W        W14095   0.220  39.353   3.310
41671W        W14096  20.950  36.317  10.712
41672W        W14097  25.736   8.940  13.320
41673W        W14098  38.112   2.320  14.794
41674W        W14099   2.228   6.879  13.269
41675W        W14100   3.073  36.443  13.431
41676W        W14101  20.402  32.898   0.184
41677W        W14102   8.432  22.495   0.217
41678W        W14103  36.059   8.827  11.489
41679W        W14104  30.083  36.797   3.850
41680W        W14105  27.227   6.291  12.096
41681W        W14106  24.159   7.962  12.997
41682W        W14107  18.587  18.626  14.736
41683W        W14108  13.791  39.950   0.256
41684W        W14109  41.338  16.546   0.839
41685W        W14110   6.421  21.918  11.086
41686W        W14111   4.234  41.127   0.413
41687W        W14112  28.648  29.514  11.636
41688W        W14113  26.350   2.330  12.650
41689W        W14114  43.569  21.058   4.358
41690W        W14115  20.189  43.893  13.937
41691W        W14116  11.237  28.753  11.915
41692W        W14117  26.145  21.529   0.513
41693W        W14118  42.338   6.263  13.542
41694W        W14119  16.362  21.260  11.803
41695W        W14120  11.247  40.007   0.148
41696W        W14121  24.867  12.314  11.632
41697W        W14122  26.312   0.262   3.652
41698W        W14123  35.370  17.665  10.718
41699W        W14124  15.287  10.270   3.677
41700W        W14125  21.116   0.009   2.351
41701W        W14126  41.985  30.387   2.656
41702W        W14127   5.691   3.204   0.823
41703W        W14128  25.094  18.496  12.496
41704W        W14129  35.837  12.076  11.990
41705W        W14130  32.905  34.816  14.912
41706W        W14131   2.022  16.361  13.034
41707W        W14132  24.604  44.241  11.140
41708W        W14133  12.707  13.611   3.072
41709W        W14134   9.049  12.181   3.698
41710W        W14135  28.369   1.796  14.928
41711W        W14136   2.998   7.381   2.289
41712W        W14137  23.534  32.863   3.782
41713W        W14138  24.638  24.605   3.481
41714W        W14139  34.082  39.119   0.243
41715W        W14140  39.914   9.329   1.859
41716W        W14141   1.023  33.905  14.911
41717W        W14142  34.508  40.623   2.960
41718W        W14143  19.789  29.583  12.070
41719W        W14144  17.576  16.036   3.629
41720W        W14145  24.261  16.646  13.777
41721W        W14146  30.667  33.356  14.489
41722W        W14147  23.721  33.538  10.617
41723W        W14148   9.707   8.685  14.219
41724W        W14149  37.135   2.004   4.283
41725W        W14150  24.293   1.431   0.718
41726W        W14151  16.302  15.322  11.946
41727W        W14152  29.788  22.615  13.775
41728W        W14153  31.566  40.741   5.576
41729W        W14154   1.291  41.322  12.454
41730W        W14155  14.273  13.090   4.991
41731W        W14156  38.374  32.404  14.303
41732W        W14157  27.736  33.283   1.920
41733W        W14158  37.851  37.039   4.641
41734W        W14159  29.443  39.838   4.102
41735W        W14160  15.650  14.379   0.798
41736W        W14161  44.700   1.829  14.853
41737W        W14162  21.956  41.438  11.526
41738W        W14163  29.707  20.022   0.419
41739W        W14164  30.903   1.859  11.556
41740W        W14165  18.568  21.621   1.324
41741W        W14166  37.409  43.033  10.417
41742W        W14167  11.718  25.217   4.948
41743W        W14168  13.824  19.377   4.684
41744W        W14169  37.545   6.777  13.532
41745W        W14170   5.305   7.265   3.855
41746W        W14171   1.451   5.765   4.783
41747W        W14172  12.508  36.013  13.394
41748W        W14173  40.047  43.347  12.173
41749W        W14174  40.913  31.123   4.197
41750W        W14175   9.636  25.598   1.347
41751W        W14176  37.868  20.091  12.506
41752W        W14177  38.547  15.686  10.446
41753W        W14178  19.511  18.905  14.542
41754W        W14179   1.647  18.063  14.519
41755W        W14180  28.144   6.887  14.052
41756W        W14181  32.363  22.174  12.090
41757W        W14182   8.702  24.358  14.896
41758W        W14183   1.455  43.050  13.384
41759W        W14184  15.229  34.498  12.013
41760W        W14185  23.021  28.371   0.441
41761W        W14186  23.477  32.361  12.799
41762W        W14187   1.404  44.104  11.698
41763W        W14188  41.936   2.202   1.710
41764W        W14189  28.525  35.158  13.655
41765W        W14190  22.737  23.687   2.272
41766W        W14191  31.157  25.152   4.127
41767W        W14192   8.493  36.275  11.434
41768W        W14193  44.739  36.276  13.112
41769W        W14194   3.805   2.603   4.003
41770W        W14195  19.686   6.301  10.807
41771W        W14196  16.205  33.623  14.925
41772W        W14197  23.256  18.305  14.564
41773W        W14198  16.822   6.484  13.630
41774W        W14199  13.219  22.421   2.677
41775W        W14200  44.265  42.519  11.875
41776W        W14201  31.007   3.015  11.683
41777W        W14202  36.211   0.527   0.787
41778W        W14203  43.956   4.767  14.436
41779W        W14204  34.700  27.098  14.515
41780W        W14205  36.106  23.119   4.123
41781W        W14206  12.844  28.105  13.394
41782W        W14207  36.104  41.978   0.382
41783W        W14208   0.481  43.141   1.314
41784W        W14209  11.869  39.776   0.359
41785W        W14210  34.905   4.175  10.982
41786W        W14211  19.240  21.053  13.015
41787W        W14212  32.431  30.601   5.087
41788W        W14213  39.274  13.360  12.373
41789W        W14214  39.740  37.751  11.664
41790W        W14215  10.209  43.024   0.406
41791W        W14216  18.172  35.519   1.701
41792W        W14217  22.347  35.525   3.749
41793W        W14218  20.596   0.517  13.477
41794W        W14219   5.513  33.434   2.199
41795W        W14220  14.195  24.772   1.455
41796W        W14221  30.951  42.444   3.414
41797W        W14222  18.977   4.698   0.765
41798W        W14223  41.912  36.629  12.417
41799W        W14224  40.794  22.049   5.052
41800W        W14225  34.165  41.593   1.145
41801W        W14226  39.805   4.393   0.582
41802W        W14227  22.946  33.047  12.038
41803W        W14228  31.420   7.487  14.983
41804W        W14229  41.325   5.320   0.241
41805W        W14230  12.645  15.170  14.712
41806W        W14231  38.194  16.551  10.925
41807W        W14232  33.904  35.957  13.524
41808W        W14233  17.294  40.576  12.691
41809W        W14234  22.739  15.162   4.136
41810W        W14235   7.783  40.361  11.559
41811W        W14236  28.101   3.331  14.840
41812W        W14237  36.613  38.668  11.540
41813W        W14238   6.737  17.739   0.680
41814W        W14239  32.145   7.927   4.222
41815W        W14240  39.733  37.222  10.666
41816W        W14241   0.828  18.184  10.715
41817W        W14242  39.413  24.977  14.388
41818W        W14243  31.725  39.001  13.756
41819W        W14244   7.619  10.265  12.912
41820W        W14245  21.411  36.902  14.031
41821W        W14246   5.705  12.419   2.448
41822W        W14247  30.056  16.544   4.108
41823W        W14248  20.062  33.021   0.988
41824W        W14249  32.821  17.186   1.541
41825W        W14250   9.175  37.820  14.353
41826W        W14251  19.739  36.167  14.544
41827W        W14252  34.941  11.627   0.899
41828W        W14253  32.562  36.530   0.773
41829W        W14254  38.845  30.379  12.908
41830W        W14255  28.175  20.575   3.648
41831W        W14256   5.544   8.328  12.992
41832W        W14257  15.559  36.595  14.822
41833W        W14258  34.116  26.778  13.008
41834W        W14259  35.410  34.044   2.454
41835W        W14260   9.118  13.847   1.927
41836W        W14261   3.145  26.523   5.048
41837W        W14262  44.789  40.751  11.014
41838W        W14263  22.230   3.811   4.536
41839W        W14264   5.194  26.590  10.621
41840W        W14265  40.096  19.094   3.168
41841W        W14266   0.437  32.933   3.890
41842W        W14267  20.691  26.137  12.892
41843W        W14268  40.807  28.041  14.293
41844W        W14269  18.211  33.167   4.647
41845W        W14270  32.163  16.989  12.881
41846W        W14271  18.405  44.475  14.013
41847W        W14272  16.992  29.999   4.578
41848W        W14273   2.289  14.724  12.967
41849W        W14274  18.300   3.260  12.128
41850W        W14275  27.431  35.068   1.718
41851W        W14276  41.777  25.982  10.770
41852W        W14277  14.872  39.067  12.795
41853W        W14278  20.268   3.753  10.692
41854W        W14279   5.417   8.637  10.639
41855W        W14280  39.562  42.758  12.838
41856W        W14281  24.686  21.464   0.976
41857W        W14282   0.412  20.061   0.704
41858W        W14283  41.786  40.342   2.654
41859W        W14284  40.323  13.792  14.905
41860W        W14285  14.466  43.734   3.442
41861W        W14286  20.381   5.495  12.547
41862W        W14287   7.416  38.984   2.644
41863W        W14288   4.119  19.071   3.278
41864W        W14289  10.794  31.195  11.461
41865W        W14290  25.556  35.022   4.098
41866W        W14291  30.901  21.368  10.993
41867W        W14292  44.754  11.616   2.420
41868W        W14293  31.412  13.199   0.994
41869W        W14294  27.204  22.197  11.246
41870W        W14295  26.025  39.398   2.201
41871W        W14296  44.889  21.695  12.490
41872W        W14297  18.874   7.276  13.988
41873W        W14298   3.954  18.956   1.181
41874W        W14299  29.938  34.717   0.555
41875W        W14300  15.028  19.538   4.224
41876W        W14301   2.295   2.442  14.774
41877W        W14302   0.968  42.796   4.287
41878W        W14303  13.549  35.925   4.606
41879W        W14304  27.604  27.092   1.474
41880W        W14305  44.026  11.853   4.750
41881W        W14306  41.559  39.613  11.185
41882W        W14307  27.920  30.962   1.887
41883W        W14308  29.439  40.821   2.583
41884W        W14309  28.545  19.085  14.422
41885W        W14310  32.947   0.545  11.717
41886W        W14311  25.215  17.496   4.150
41887W        W14312  29.466  14.241   0.018
41888W        W14313  22.242  10.297  11.484
41889W        W14314  13.317  22.251  14.238
41890W        W14315   6.412  39.021  11.517
41891W        W14316   9.899  13.905   4.637
41892W        W14317  26.382  32.172   5.467
41893W        W14318  22.172  21.287   1.479
41894W        W14319   8.826  37.511  14.933
41895W        W14320   4.380  39.248   3.669
41896W        W14321   7.245  37.775   3.206
41897W        W14322  24.028  13.349   0.526
41898W        W14323  25.748  20.664   4.226
41899W        W14324  23.117   3.195   1.558
41900W        W14325  44.153  23.410  14.912
41901W        W14326  10.776  12.909  13.776
41902W        W14327  22.941  24.210  13.756
41903W        W14328  32.193  39.985  13.448
41904W        W14329  18.323  11.187   3.668
41905W        W14330  37.133  32.801  14.475
41906W        W14331  31.098  15.877  13.581
41907W        W14332   8.229   1.512   3.268
41908W        W14333   7.821  22.697   2.568
41909W        W14334  30.361  39.831   1.517
41910W        W14335   7.388  38.840   1.667
41911W        W14336  15.348  10.841  12.566
41912W        W14337   2.501  12.895  13.340
41913W        W14338  40.914  18.593  13.368
41914W        W14339  31.139  10.306  14.481
41915W        W14340   3.018  32.190  14.228
41916W        W14341  26.043  40.881   4.028
41917W        W14342  34.883  32.022   1.214
41918W        W14343  16.257  32.874   3.777
41919W        W14344   3.449  24.696   2.262
41920W        W14345  14.057  10.402  14.321
41921W        W14346  41.926  13.877  12.994
41922W        W14347   7.421  13.170  11.541
41923W        W14348  21.798   4.310  10.517
41924W        W14349  15.402   5.281  12.285
41925W        W14350  43.539  11.611   4.775
41926W        W14351   0.918  28.626  14.725
41927W        W14352  34.871  20.374   2.160
41928W        W14353  10.419  41.019  13.470
41929W        W14354   6.444   5.450  14.737
41930W        W14355  21.160   4.928  14.308
41931W        W14356  24.132  14.222  11.533
41932W        W14357  20.571   3.411  10.958
41933W        W14358  38.122  14.065  12.873
41934W        W14359   3.568  18.466   2.869
41935W        W14360  13.701   8.643  11.187
41936W        W14361  10.866  16.330   0.234
41937W        W14362  20.582  30.198  12.984
41938W        W14363  32.582  39.999  11.186
41939W        W14364  40.734  35.825   4.583
41940W        W14365  35.889   6.857   0.990
41941W        W14366  20.630  14.884   3.734
41942W        W14367  14.217  26.370   5.071
41943W        W14368   3.898  20.524  11.454
41944W        W14369  32.969  40.245  14.271
41945W        W14370   1.383  40.472   4.839
41946W        W14371  11.101   9.877  12.252
41947W        W14372  22.556   3.395  11.991
41948W        W14373  35.471  30.174  10.716
41949W        W14374  34.716   3.243  14.900
41950W        W14375   1.941  33.052  12.975
41951W        W14376  29.370   2.067  14.873
41952W        W14377  21.570  39.651  10.714
41953W        W14378   1.283   7.629   0.494
41954W        W14379  41.332  14.764   1.265
41955W        W14380  39.806   8.348   1.959
41956W        W14381  24.168  33.024   3.109
41957W        W14382  25.571  33.340  12.343
41958W        W14383  29.119  20.726   2.889
41959W        W14384  19.801  23.602   2.674
41960W        W14385   0.231  11.066   4.222
41961W        W14386  13.560   0.282  10.721
41962W        W14387  40.567   5.325  10.752
41963W        W14388  31.466  28.586   1.911
41964W        W14389  37.412   1.899  14.051
41965W        W14390  15.594   2.706   3.176
41966W        W14391  14.612   2.961   3.333
41967W        W14392   5.125  42.537   4.745
41968W        W14393  40.558  22.028  11.432
41969W        W14394  40.302  19.500   5.083
41970W        W14395   4.736  44.042   3.270
41971W        W14396   1.340  11.872   1.762
41972W        W14397   8.390  19.258  11.921
41973W        W14398   7.532  31.013   1.704
41974W        W14399  31.400  28.648   4.408
41975W        W14400  35.959  26.224  14.063
41976W        W14401   5.033  20.001   2.532
41977W        W14402   3.677   7.578   0.400
41978W        W14403  42.336   6.876  11.356
41979W        W14404  16.261   8.703   2.369
41980W        W14405  37.655  20.035  11.000
41981W        W14406  23.079  25.153  12.473
41982W        W14407  34.478   6.199  11.490
41983W        W14408   0.753  14.095  14.367
41984W        W14409   2.292  28.649  12.582
41985W        W14410  20.703  25.969  10.683
41986W        W14411  12.282  28.417   4.197
41987W        W14412  30.300  19.613  14.299
41988W        W14413   0.157  15.543   2.725
41989W        W14414  25.532   2.205  11.080
41990W        W14415  34.616   9.820  10.611
41991W        W14416  15.664  34.993   4.408
41992W        W14417  41.074  39.468   1.049
41993W        W14418   9.261  13.429   0.429
41994W        W14419   7.770  36.459   1.235
41995W        W14420   5.913  38.971  12.479
41996W        W14421  42.887  42.502   9.925
41997W        W14422   4.808   9.024  12.910
41998W        W14423  40.025  36.463   0.751
41999W        W14424  15.110  40.795   1.856
42000W        W14425  11.569  10.214   4.259
42001W        W14426  35.048  22.786  13.084
42002W        W14427  35.858  17.486   1.320
42003W        W14428   9.752  25.987  14.433
42004W        W14429  41.209  25.656  13.270
42005W        W14430   3.538   5.442   2.527
42006W        W14431  10.155  18.624  10.691
42007W        W14432  12.150  26.696   4.021
42008W        W14433  26.699  35.667  12.394
42009W        W14434  21.858  11.109  10.236
42010W        W14435  38.962  40.981  14.612
42011W        W14436  13.665  39.419  13.568
42012W        W14437  11.982  35.406  12.568
42013W        W14438  31.929  39.621   4.791
42014W        W14439  41.936  30.306   9.881
42015W        W14440  29.218   1.310   1.916
42016W        W14441  30.481  27.432   0.881
42017W        W14442  37.456   0.437   4.860
42018W        W14443  34.240   8.228  10.347
42019W        W14444   5.311   7.681   4.252
42020W        W14445  39.570  42.931   2.599
42021W        W14446   4.246  40.291   0.971
42022W        W14447  22.593  30.971   0.196
42023W        W14448  30.197  15.236  12.943
42024W        W14449  18.686  25.314  14.948
42025W        W14450   6.317  41.726   0.748
42026W        W14451  24.152  22.911   1.372
42027W        W14452  29.603   5.299  12.766
42028W        W14453  13.701  22.076   4.299
42029W        W14454  33.124  39.870  12.480
42030W        W14455  27.909  26.997   1.904
42031W        W14456  10.768  36.997  13.870
42032W        W14457  32.114  41.981  14.521
42033W        W14458  39.021  27.034  12.638
42034W        W14459  14.874  36.375  13.558
42035W        W14460  36.789  22.490  10.936
42036W        W14461  35.394  41.896   1.928
42037W        W14462  15.845  14.311   2.846
42038W        W14463  25.485  14.046   3.162
42039W        W14464  41.837  17.827   0.909
42040W        W14465  19.718  31.141   4.667
42041W        W14466  34.013  35.398  10.770
42042W        W14467  20.710  27.027  10.778
42043W        W14468   3.784  15.730  12.093
42044W        W14469   1.608  24.700  11.981
42045W        W14470  37.341  43.956   2.876
42046W        W14471  28.020  22.430   4.255
42047W        W14472   4.327  10.840   4.109
42048W        W14473  19.301  37.941  13.276
42049W        W14474  44.253  30.668  14.940
42050W        W14475  20.248  29.387   3.659
42051W        W14476   1.326  20.308   1.978
42052W        W14477  44.295  32.936   4.530
42053W        W14478  27.668   8.889  10.484
42054W        W14479   2.891  21.916   2.593
42055W        W14480  38.424  25.507   4.641
42056W        W14481  22.782  43.042  12.120
42057W        W14482   0.755  40.964   3.895
42058W        W14483  18.683  37.772  12.006
42059W        W14484  11.862  16.698  14.515
42060W        W14485  40.621  33.602  10.763
42061W        W14486   0.851  37.308  12.606
42062W        W14487  15.123  36.954   1.952
42063W        W14488  41.324  38.190   0.795
42064W        W14489  10.756  34.653  10.947
42065W        W14490  24.663   9.655  11.973
42066W        W14491  27.068  25.171  11.496
42067W        W14492  22.603   0.384  11.662
42068W        W14493   4.488  19.304  14.998
42069W        W14494  26.798  17.109  12.556
42070W        W14495  44.552  13.756  11.478
42071W        W14496  34.078  32.481  14.308
42072W        W14497  40.784   7.301   0.287
42073W        W14498  13.712   3.824   5.447
42074W        W14499  34.849  33.006  14.822
42075W        W14500  19.262   8.706   1.534
42076W        W14501  30.375  11.735  11.427
42077W        W14502  40.819   3.662   4.297
42078W        W14503  10.604  33.403   1.750
42079W        W14504  17.743  22.188   3.821
42080W        W14505  17.135  15.284   2.668
42081W        W14506  33.451  27.019  14.877
42082W        W14507  37.883  17.212   1.539
42083W        W14508  31.476  40.058   1.506
42084W        W14509  28.209  40.525   2.387
42085W        W14510   4.244  28.554   3.217
42086W        W14511   2.493  20.454  13.869
42087W        W14512  31.414  30.905   4.236
42088W        W14513  15.579  28.421   3.696
42089W        W14514   3.402  25.700   2.874
42090W        W14515  22.503  39.473   0.732
42091W        W14516  12.104  30.418   3.271
42092W        W14517  32.140  22.070   3.469
42093W        W14518  25.240  29.287   3.397
42094W        W14519  39.784  23.529  11.739
42095W        W14520  44.408  38.054  14.228
42096W        W14521   4.736  27.713  10.498
42097W        W14522  16.163  15.491   0.389
42098W        W14523  36.096   8.862  14.245
42099W        W14524  21.969  12.368   5.521
42100W        W14525  24.716  11.884  11.385
42101W        W14526  10.726  29.922  12.053
42102W        W14527  17.114  20.732  14.506
42103W        W14528  10.616  29.182   3.270
42104W        W14529  22.841   4.489   4.187
42105W        W14530  23.292  34.136   4.440
42106W        W14531   8.204  39.055  12.022
42107W        W14532  29.649   1.868  13.339
42108W        W14533  11.666  20.148   2.368
42109W        W14534  20.663  20.712  10.885
42110W        W14535  10.825  22.759   2.378
42111W        W14536  26.021  21.531   2.280
42112W        W14537  31.118  40.127  12.117
42113W        W14538  20.599  13.654   3.323
42114W        W14539  19.014  40.892   0.403
42115W        W14540   2.570  12.388  13.110
42116W        W14541   9.860  40.604   0.909
42117W        W14542  26.778  20.998  12.587
42118W        W14543  34.450  22.923   4.563
42119W        W14544  22.158  37.638   5.056
42120W        W14545  15.815  13.712   0.251
42121W        W14546  22.299  14.709   3.304
42122W        W14547   9.800  11.912   4.043
42123W        W14548   0.826   2.303   4.184
42124W        W14549  35.190  23.320   1.552
42125W        W14550  26.856  41.360   2.263
42126W        W14551   5.378  12.030   2.321
42127W        W14552  13.576  23.161   3.142
42128W        W14553  28.142  44.641   3.320
42129W        W14554   2.110  34.732  14.150
42130W        W14555   4.285   3.243   4.094
42131W        W14556   1.848   8.183  12.021
42132W        W14557  31.638  38.958   3.234
42133W        W14558  11.098  13.322   1.850
42134W        W14559  34.699  38.984   2.229
42135W        W14560  13.191  14.379  13.194
42136W        W14561   2.883   5.738  11.149
42137W        W14562  38.876  18.842  11.132
42138W        W14563  15.968  20.682   1.688
42139W        W14564  40.587   7.447  12.892
42140W        W14565   9.182  28.330  11.481
42141W        W14566  29.902   8.945   2.830
42142W        W14567  11.589  34.358  12.057
42143W        W14568   7.964  29.120   1.476
42144W        W14569   2.196   7.710  11.546
42145W        W14570   3.006  34.014   3.979
42146W        W14571  17.180   1.796   4.160
42147W        W14572  35.894  37.982  10.674
42148W        W14573  12.063   3.724   4.669
42149W        W14574   3.266  33.011  11.535
42150W        W14575  27.189  24.563  11.868
42151W        W14576   1.154   0.601   5.059
42152W        W14577  27.756  11.399   2.904
42153W        W14578  16.170  18.715  13.433
42154W        W14579  33.082  27.154   3.278
42155W        W14580  33.336  11.710   0.905
42156W        W14581  18.336  19.358   2.417
42157W        W14582  37.424  29.158   3.661
42158W        W14583  35.089   2.861   2.184
42159W        W14584  14.609  10.171  14.818
42160W        W14585  40.445  31.010  14.802
42161W        W14586  36.375  30.101   3.730
42162W        W14587  38.897  10.283  12.845
42163W        W14588  18.734  42.887   5.093
42164W        W14589   6.278  37.538   1.894
42165W        W14590  42.948   0.232  10.726
42166W        W14591  15.662  42.693  12.128
42167W        W14592   7.245  10.838  10.744
42168W        W14593   4.144  16.885  13.010
42169W        W14594   5.281  24.008   4.639
42170W        W14595  26.667   0.416  14.129
42171W        W14596  11.748   7.993   0.774
42172W        W14597  15.888   4.273   4.279
42173W        W14598   7.329  24.569  13.510
42174W        W14599  34.815  44.574   2.309
42175W        W14600   2.907  25.157   0.843
42176W        W14601   3.409  24.673  14.813
42177W        W14602  20.230  36.119  10.665
42178W        W14603  26.464  21.903  14.779
42179W        W14604  24.136  41.398  11.887
42180W        W14605  35.942  35.638  14.807
42181W        W14606   7.419  11.652   4.645
42182W        W14607  24.223  11.753  11.347
42183W        W14608   3.506   6.840  13.164
42184W        W14609  36.560  24.919  14.901
42185W        W14610  16.225  40.828   0.950
42186W        W14611  15.287  35.080  10.214
42187W        W14612  25.049   8.882  12.077
42188W        W14613  19.082  34.264   4.636
42189W        W14614  14.633  25.003  10.689
42190W        W14615  41.374  27.093  13.419
42191W        W14616   8.370  20.827   1.027
42192W        W14617   0.897  37.071  13.065
42193W        W14618   8.428   9.196   1.205
42194W        W14619  42.714   3.804  14.752
42195W        W14620   2.908  17.422  14.230
42196W        W14621  24.570  14.418  11.278
42197W        W14622  10.378  43.744   4.053
42198W        W14623  26.946  40.000   0.219
42199W        W14624  43.960   0.567  12.413
42200W        W14625   7.817  21.743  12.151
42201W        W14626  10.075  26.131   4.653
42202W        W14627  38.129  42.458  12.068
42203W        W14628  17.941  18.674  11.253
42204W        W14629  37.882  13.592  10.819
42205W        W14630  21.347  14.801   2.581
42206W        W14631  19.854   4.665   5.140
42207W        W14632  15.774  43.048  12.518
42208W        W14633  42.215  22.583  14.810
42209W        W14634  38.914  26.455  10.386
42210W        W14635   1.351  34.324  14.788
42211W        W14636  35.951  19.188  13.105
42212W        W14637  39.893   7.276   0.163
42213W        W14638  18.269  30.800   2.802
42214W        W14639  11.110  43.526   2.272
42215W        W14640  16.226  13.416  13.527
42216W        W14641  29.845  12.633   2.385
42217W        W14642  38.804  35.308  12.056
42218W        W14643  13.812  18.818  13.605
42219W        W14644  31.421  39.562   1.659
42220W        W14645  19.758  18.318  14.376
42221W        W14646  18.239  36.290  12.020
42222W        W14647  44.342  29.372  10.619
42223W        W14648  13.807  38.433   2.576
42224W        W14649  29.337  26.907  12.669
42225W        W14650  40.363  11.829   2.304
42226W        W14651  35.823  22.720  14.090
42227W        W14652  21.585  12.272  13.830
42228W        W14653  38.773  10.614  13.861
42229W        W14654  34.852   6.218  10.230
42230W        W14655  11.818   5.958  13.985
42231W        W14656  40.509   0.510   1.361
42232W        W14657  17.288  38.977  13.298
42233W        W14658  39.584  44.469   1.398
42234W        W14659  32.781  36.363  11.125
42235W        W14660   1.327   2.398   4.203
42236W        W14661   0.074  10.641   0.760
42237W        W14662  11.162  23.656  13.509
42238W        W14663  24.296  32.915  14.673
42239W        W14664  28.945  12.262   1.461
42240W        W14665  21.002  25.160  10.862
42241W        W14666   9.801   5.912   1.427
42242W        W14667  44.403  13.773   4.167
42243W        W14668  25.532  28.683   1.250
42244W        W14669   5.431  14.689  11.951
42245W        W14670   0.883  35.295   2.154
42246W        W14671  33.421   4.910   4.726
42247W        W14672  13.393  41.815  13.434
42248W        W14673  37.031  29.881   0.945
42249W        W14674  12.711  23.882   1.438
42250W        W14675  28.962  33.073   4.135
42251W        W14676   7.704  15.486   4.639
42252W        W14677  36.386   7.846  12.322
42253W        W14678  22.170  40.844   0.958
42254W        W14679  44.942   5.909  14.029
42255W        W14680  22.030  35.450  14.122
42256W        W14681  32.475  11.163  12.439
42257W        W14682  35.839  10.197  11.185
42258W        W14683  24.504  13.561   0.568
42259W        W14684  24.057  22.997  14.451
42260W        W14685  10.233  29.086   0.560
42261W        W14686   2.391  10.625   0.494
42262W        W14687  42.290  37.941   2.415
42263W        W14688   3.340   3.198   2.637
42264W        W14689  26.617  39.118   0.493
42265W        W14690   8.660  37.978   4.996
42266W        W14691  37.379  37.529   2.491
42267W        W14692  36.795   7.596  12.539
42268W        W14693   8.818  44.087   1.007
42269W        W14694  13.558   4.283   5.257
42270W        W14695  11.401  32.155  11.416
42271W        W14696   5.368  15.089  11.623
42272W        W14697  16.904   6.938   0.897
42273W        W14698  19.193  19.372   2.520
42274W        W14699  37.388  20.244   0.214
42275W        W14700  27.575  43.017   1.874
42276W        W14701  11.224  19.714   0.833
42277W        W14702  15.299   5.613   3.637
42278W        W14703  17.164  31.083  11.700
42279W        W14704  20.462  23.153  12.173
42280W        W14705  26.864  33.194  12.375
42281W        W14706  24.991  26.387   4.636
42282W        W14707  37.063   8.281  12.059
42283W        W14708  24.117  16.819  12.092
42284W        W14709  35.960  21.017   3.604
42285W        W14710   4.693  29.419  11.854
42286W        W14711  23.001  30.873   4.562
42287W        W14712  32.195  33.621  12.494
42288W        W14713   8.327   1.451   0.366
42289W        W14714  31.204  23.605   1.385
42290W        W14715   5.558   7.888   2.706
42291W        W14716  42.886  14.712  13.031
42292W        W14717  31.953  39.403   0.801
42293W        W14718  10.224  37.675  10.483
42294W        W14719  25.847  13.301   2.438
42295W        W14720  16.582  34.163  12.498
42296W        W14721  13.639   0.538  12.533
42297W        W14722   4.908  22.214   3.804
42298W        W14723  18.565  17.894  12.949
42299W        W14724  37.420   8.195  13.909
42300W        W14725  31.250  30.015   4.969
42301W        W14726  28.154  44.420   3.834
42302W        W14727  25.073  20.016   2.319
42303W        W14728  21.187  37.780  14.894
42304W        W14729  21.723  28.049  14.712
42305W        W14730  42.646  41.485   2.807
42306W        W14731  38.027   3.245   3.344
42307W        W14732   6.683   8.685   3.712
42308W        W14733  24.585  30.887  12.409
42309W        W14734  12.685  41.794   3.323
42310W        W14735  19.700  39.838   0.792
42311W        W14736   8.753  26.022   3.883
42312W        W14737   7.665  20.734   2.661
42313W        W14738  21.986   9.682   3.256
42314W        W14739   6.470   6.949  13.099
42315W        W14740  42.077  25.138   2.820
42316W        W14741  33.327   5.970   4.272
42317W        W14742   1.494  13.165   3.198
42318W        W14743  24.228  32.606  12.488
42319W        W14744  15.384   3.547  12.575
42320W        W14745  23.144  30.721  14.089
42321W        W14746  16.061   6.612  10.855
42322W        W14747  18.090  29.548  14.658
42323W        W14748  38.150  27.145  13.055
42324W        W14749  32.566  25.649  11.828
42325W        W14750  29.164  24.316   4.333
42326W        W14751   6.483   9.262  11.105
42327W        W14752  10.091  15.924   0.168
42328W        W14753  35.513   6.246   0.417
42329W        W14754  37.308  34.575   3.357
42330W        W14755  20.704  33.971   3.823
42331W        W14756  38.101  29.314   3.774
42332W        W14757  35.862   3.254   2.446
42333W        W14758  12.327  43.356  12.946
42334W        W14759  11.040  14.056  11.321
42335W        W14760  41.561  29.677  10.713
42336W        W14761  24.501   3.915  12.404
42337W        W14762   3.276  30.547  10.745
42338W        W14763  41.198  12.267  14.103
42339W        W14764  31.343  34.987  11.580
42340W        W14765   7.699  25.447   3.731
42341W        W14766  37.459  42.888   2.647
42342W        W14767  13.575  18.806  11.719
42343W        W14768   2.228  29.460   2.920
42344W        W14769  19.963  14.304   4.324
42345W        W14770  23.353  10.706  10.997
42346W        W14771  17.770  37.848  10.673
42347W        W14772  33.560  33.503   1.305
42348W        W14773  15.058  24.977   0.654
42349W        W14774  22.971   0.364  10.870
42350W        W14775  40.346  21.300   0.937
42351W        W14776  42.937  24.221  12.790
42352W        W14777  36.417  26.853   3.136
42353W        W14778  36.388  39.289   0.160
42354W        W14779  25.502  14.239   4.411
42355W        W14780   3.791   4.637   3.118
42356W        W14781   6.907  23.151   3.368
42357W        W14782  37.534  16.590   4.024
42358W        W14783  19.600   9.645  14.968
42359W        W14784  12.815  25.479  14.414
42360W        W14785  33.967   9.864   2.922
42361W        W14786   9.644  23.452  13.891
42362W        W14787  36.118  15.250   3.052
42363W        W14788  16.692  13.719  10.846
42364W        W14789   6.525  36.589  11.434
42365W        W14790  37.041  42.081  14.013
42366W        W14791  12.891   2.963  11.131
42367W        W14792  13.126  27.194  13.472
42368W        W14793  20.051  17.936   4.509
42369W        W14794   1.283  31.388   2.845
42370W        W14795  10.130  17.605  12.915
42371W        W14796  17.040   5.478  11.218
42372W        W14797   5.129  44.417  12.520
42373W        W14798  28.617  25.224   3.913
42374W        W14799   0.226  14.762  12.754
42375W        W14800  17.228  19.447  10.268
42376W        W14801  26.229  17.094  13.548
42377W        W14802  44.671  19.106  12.931
42378W        W14803   8.614   9.672   0.985
42379W        W14804   5.440  19.557   1.484
42380W        W14805  43.602   4.975   2.925
42381W        W14806  11.684   2.739   2.330
42382W        W14807   2.482   2.048  13.506
42383W        W14808  14.255  35.187   1.845
42384W        W14809  38.682  18.316  10.650
42385W        W14810  29.345  29.070  11.204
42386W        W14811   8.200  14.856   1.244
42387W        W14812  17.307  38.967   0.944
42388W        W14813   5.900  35.383  13.128
42389W        W14814  34.023  41.065  12.053
42390W        W14815  36.610  39.027   2.687
42391W        W14816  44.603   4.912   2.491
42392W        W14817  34.910  40.450  14.544
42393W        W14818  16.738  27.047  10.341
42394W        W14819  36.027  27.624  13.263
42395W        W14820  13.664   2.441   0.815
42396W        W14821   4.782  36.060   0.333
42397W        W14822  37.045  27.478  11.644
42398W        W14823  21.804  24.565  10.741
42399W        W14824  13.256  22.071   3.069
42400W        W14825  40.874  10.791  11.548
42401W        W14826  20.698  17.213  14.956
42402W        W14827  24.453  38.966   1.223
42403W        W14828  35.895   3.387  12.955
42404W        W14829  25.393  21.548  14.971
42405W        W14830  14.989   4.753  11.953
42406W        W14831   5.618  29.640   4.319
42407W        W14832   3.240  11.674  14.073
42408W        W14833  38.081  36.430  10.476
42409W        W14834  14.131  35.988  13.013
42410W        W14835  38.541  19.088  14.364
42411W        W14836   3.394  16.587   3.584
42412W        W14837  37.862  37.918   4.473
42413W        W14838  19.246  11.479   4.870
42414W        W14839  44.803   7.839  13.843
42415W        W14840  11.199  26.108  12.072
42416W        W14841  16.603   8.818  13.097
42417W        W14842  16.081  13.642  13.984
42418W        W14843   1.600  25.965  11.998
42419W        W14844   9.666   0.247   3.870
42420W        W14845   1.971  43.782  13.415
42421W        W14846  41.657   0.295  14.885
42422W        W14847  40.022  42.553  13.453
42423W        W14848  12.977  21.942   2.637
42424W        W14849  18.729  44.857   3.294
42425W        W14850  16.213  23.801  10.481
42426W        W14851   2.347   5.889   3.180
42427W        W14852  12.273  35.914  13.943
42428W        W14853  35.934  32.651  11.154
42429W        W14854   2.492   8.738  11.840
42430W        W14855  26.038   1.889  14.898
42431W        W14856  28.358  35.871   2.212
42432W        W14857  36.922   9.764   1.297
42433W        W14858  10.600   6.678  11.243
42434W        W14859   0.744  34.995   4.178
42435W        W14860   8.246  27.658  10.891
42436W        W14861  40.600   1.487  14.259
42437W        W14862  29.988  21.935  13.421
42438W        W14863  13.176  12.358  14.024
42439W        W14864  23.411  40.893   4.694
42440W        W14865  14.360  10.009  10.037
42441W        W14866  28.226  19.535  10.198
42442W        W14867  34.447   2.185   2.722
42443W        W14868  20.188   2.681   3.838
42444W        W14869   0.705  40.014  12.221
42445W        W14870   9.795  26.041   0.823
42446W        W14871  39.983  16.198  12.855
42447W        W14872  28.021   0.530  14.400
42448W        W14873   6.962  31.150   1.187
42449W        W14874  43.164  12.729  11.467
42450W        W14875  21.953  19.636   3.423
42451W        W14876  36.197  14.280  11.158
42452W        W14877   6.179   1.338   5.097
42453W        W14878   8.222  14.589   3.350
42454W        W14879  24.714  20.514   0.195
42455W        W14880  24.110   6.309  14.865
42456W        W14881  23.576  43.510   1.276
42457W        W14882   4.303  40.865  12.535
42458W        W14883  31.910  18.774   4.148
42459W        W14884  11.330  40.286  13.009
42460W        W14885   0.186  38.602   2.333
42461W        W14886  37.813   3.394   4.622
42462W        W14887  34.476  19.853  14.411
42463W        W14888   8.657  37.473   2.038
42464W        W14889  44.024  28.414  14.922
42465W        W14890  28.879   9.515  13.797
42466W        W14891   2.538  12.666  11.020
42467W        W14892   1.515   6.751   3.195
42468W        W14893   8.862   2.760   0.480
42469W        W14894   9.593  25.978   3.257
42470W        W14895  30.129  11.614   2.242
42471W        W14896   2.971  40.328  10.686
42472W        W14897  11.118  41.447  11.156
42473W        W14898  17.963   3.644  12.680
42474W        W14899  22.834  29.567   4.215
42475W        W14900  27.688   6.894  13.272
42476W        W14901  15.652  11.112  10.231
42477W        W14902  32.024  42.479  10.516
42478W        W14903  13.563  35.432   2.886
42479W        W14904  14.302  26.806  14.878
42480W        W14905  26.645  23.165  11.460
42481W        W14906  38.910  14.480  11.073
42482W        W14907  18.845  27.193   0.119
42483W        W14908  39.007  11.131   4.631
42484W        W14909  29.928  38.994   1.141
42485W        W14910  29.144  40.201   4.366
42486W        W14911   3.582  25.682   2.371
42487W        W14912  25.989  32.392   2.355
42488W        W14913  28.915  28.069  11.646
42489W        W14914  43.475  32.500  14.038
42490W        W14915  11.074  30.457   1.417
42491W        W14916   2.754  26.569   1.659
42492W        W14917  16.829  31.140   2.778
42493W        W14918  24.844  27.544   2.775
42494W        W14919  10.397  14.116  10.582
42495W        W14920  22.530  17.245   4.034
42496W        W14921  23.340  12.891  12.499
42497W        W14922  26.161  40.532  14.387
42498W        W14923  17.335  31.313   2.895
42499W        W14924  31.326   0.868   1.315
42500W        W14925  40.223  10.130   3.631
42501W        W14926   2.745  30.443   2.664
42502W        W14927   9.762  22.283   0.989
42503W        W14928   5.768  44.403  14.859
42504W        W14929  16.973  23.303   0.287
42505W        W14930   0.821  17.756  13.591
42506W        W14931   5.200   8.700  14.787
42507W        W14932  18.324  33.346  12.295
42508W        W14933  12.847  39.147  11.733
42509W        W14934   2.012  32.958   0.418
42510W        W14935  15.600   5.412   2.644
42511W        W14936  30.005  44.861   3.634
42512W        W14937  17.967   9.060  14.710
42513W        W14938  32.206  37.516   0.863
42514W        W14939   6.322  26.627   4.751
42515W        W14940  33.877  18.634  12.578
42516W        W14941  29.438  12.709   0.850
42517W        W14942   5.094  20.865  12.419
42518W        W14943   5.413  32.125   1.942
42519W        W14944  40.747   8.472   1.236
42520W        W14945  44.260  16.777  11.605
42521W        W14946  11.664  12.355  11.585
42522W        W14947  34.560   7.891   3.304
42523W        W14948  33.518  41.916  14.324
42524W        W14949  15.897   4.712   1.602
42525W        W14950   0.246  33.500  10.855
42526W        W14951  43.538  25.931  12.104
42527W        W14952  16.099   0.897  13.372
42528W        W14953  30.826  32.156  13.906
42529W        W14954  26.701   1.428   0.258
42530W        W14955  13.806   7.885  14.105
42531W        W14956  43.922  31.389  10.233
42532W        W14957  41.755   9.802   2.639
42533W        W14958   7.755   7.900  14.831
42534W        W14959  34.611  35.080   1.209
42535W        W14960  25.422  28.076  11.880
42536W        W14961  33.958   0.966  10.641
42537W        W14962  35.795   9.239   5.493
42538W        W14963  14.241  17.860   2.104
42539W        W14964  36.844   8.195  10.153
42540W        W14965  29.946  35.413  13.902
42541W        W14966   7.765  35.984   2.600
42542W        W14967  14.823  31.322   4.195
42543W        W14968  32.972  35.888  11.097
42544W        W14969  37.590  10.658   3.980
42545W        W14970   7.814   0.767   9.711
42546W        W14971   0.823  44.765  13.391
42547W        W14972   6.353  16.648  13.727
42548W        W14973  43.417  35.092  13.771
42549W        W14974  23.790   4.422   2.168
42550W        W14975   8.322   5.277  11.675
42551W        W14976  34.890  25.161  14.347
42552W        W14977  23.312  35.086   0.415
42553W        W14978   4.687  27.461  13.893
42554W        W14979  40.090  27.432   3.708
42555W        W14980  11.635  36.441   4.957
42556W        W14981  23.956  27.637   1.772
42557W        W14982  15.696  11.337   0.066
42558W        W14983  43.706   7.366  11.022
42559W        W14984   7.822   4.782  13.064
42560W        W14985  39.912   3.831  11.649
42561W        W14986   9.292  10.706  13.996
42562W        W14987  21.170  31.702   4.844
42563W        W14988   6.428   8.743   3.267
42564W        W14989   7.757  39.338  11.455
42565W        W14990  34.743  35.396  12.836
42566W        W14991  37.861  34.982   5.176
42567W        W14992  18.518   3.573  14.802
42568W        W14993  23.513  38.124   1.462
42569W        W14994  16.494  31.562  13.421
42570W        W14995  39.324   9.302   3.618
42571W        W14996  32.380  32.167   3.476
42572W        W14997  41.899   4.883  12.519
42573W        W14998   4.503   3.049  10.628
42574W        W14999  34.004   0.828   4.266
42575W        W15000   6.090  18.944  10.166
42576W        W15001  29.334   0.057  13.742
42577W        W15002  44.344  38.610  10.246
42578W        W15003  22.809   9.492  14.959
42579W        W15004   8.475  11.141   2.398
42580W        W15005  37.268  17.973   0.977
42581W        W15006  41.924  23.002  11.033
42582W        W15007   0.926  20.660  11.154
42583W        W15008  16.694  12.406   4.845
42584W        W15009  15.333  34.790  13.985
42585W        W15010  35.007  22.477  11.637
42586W        W15011  25.454   2.764  12.041
42587W        W15012   3.693   7.184  12.436
42588W        W15013  24.091  29.557   4.641
42589W        W15014   4.937   3.176  13.422
42590W        W15015  21.790  29.584   4.153
42591W        W15016  29.095  34.500  11.995
42592W        W15017  39.174  33.934  13.294
42593W        W15018  39.567  13.408  11.951
42594W        W15019  37.492  17.334   1.875
42595W        W15020   9.136  25.942   2.990
42596W        W15021  17.429  14.617  13.321
42597W        W15022  38.388  34.480   2.273
42598W        W15023  29.537  30.880  11.582
42599W        W15024  13.705  40.820  14.936
42600W        W15025  12.078   5.267   1.903
42601W        W15026  22.038  24.456  14.315
42602W        W15027   1.543  30.143  13.863
42603W        W15028  34.961  25.917   1.223
42604W        W15029  40.109  39.851  10.627
42605W        W15030  22.213  43.019   0.833
42606W        W15031  26.080  29.659   2.840
42607W        W15032  26.771  14.354  13.944
42608W        W15033   4.486  17.587  12.581
42609W        W15034   1.705  33.502   1.728
42610W        W15035   1.773  10.008   3.235
42611W        W15036  31.302  16.545   0.070
42612W        W15037  15.108  42.060   3.199
42613W        W15038  10.357  12.811   0.209
42614W        W15039  25.004  26.094  12.122
42615W        W15040  42.548  30.540   1.441
42616W        W15041   0.788   2.031  14.177
42617W        W15042  42.726  14.186  10.442
42618W        W15043  34.291  26.115   1.703
42619W        W15044  31.874  24.718   3.615
42620W        W15045   8.692  32.777  11.318
42621W        W15046  32.959  23.013   1.593
42622W        W15047  23.913  17.127   3.208
42623W        W15048  14.313  41.973  12.316
42624W        W15049  33.091  19.445  11.469
42625W        W15050   8.146  22.700  12.027
42626W        W15051   0.057  32.963  11.975
42627W        W15052  10.291  41.053  10.840
42628W        W15053   2.194  30.624   1.300
42629W        W15054  17.624  32.200   2.155
42630W        W15055  18.521  16.628  13.970
42631W        W15056  44.200  30.365   4.740
42632W        W15057  19.013   0.322  14.016
42633W        W15058  25.086  30.392  14.645
42634W        W15059   4.337  20.286   1.333
42635W        W15060  40.753  32.602  12.246
42636W        W15061  40.992  40.751  13.089
42637W        W15062  20.375   8.756   4.810
42638W        W15063  10.385  13.614  11.118
42639W        W15064  31.895  19.795  12.627
42640W        W15065  14.155  27.170  11.945
42641W        W15066  23.590  23.692  10.710
42642W        W15067   1.433   2.550  13.507
42643W        W15068   4.492  20.907   0.311
42644W        W15069  26.910  24.530   4.270
42645W        W15070   0.423  35.305   0.339
42646W        W15071  23.072  37.803   2.285
42647W        W15072  10.729  22.060   4.988
42648W        W15073   0.835  23.632   2.647
42649W        W15074  35.308  23.752  13.576
42650W        W15075  15.614  14.633  11.479
42651W        W15076  22.697  18.636   0.863
42652W        W15077  11.116  29.064   3.327
42653W        W15078  13.850   3.929  11.678
42654W        W15079   0.769  31.303  13.369
42655W        W15080  36.771  38.871   5.208
42656W        W15081  35.872  25.690  14.984
42657W        W15082  27.297   6.892   4.847
42658W        W15083   2.969  13.026  11.117
42659W        W15084   1.011   4.401   1.759
42660W        W15085  28.261  36.139  13.354
42661W        W15086  43.031  37.996   0.203
42662W        W15087  38.931   2.896   0.718
42663W        W15088  16.330  26.119   2.268
42664W        W15089  20.824   5.820   1.919
42665W        W15090  25.147  30.738   4.084
42666W        W15091  32.640  15.624  10.570
42667W        W15092   2.420  27.222   2.372
42668W        W15093  28.036  15.237  10.929
42669W        W15094  40.480  17.282  11.529
42670W        W15095  44.106  41.331   5.111
42671W        W15096  25.298  29.669  14.317
42672W        W15097   6.488  44.415  14.402
42673W        W15098  25.541  38.938   3.451
42674W        W15099  24.946  43.765   3.595
42675W        W15100   2.261  21.619  10.730
42676W        W15101   2.361  20.643  12.442
42677W        W15102  14.193  16.425  10.537
42678W        W15103  25.187  35.421   2.311
42679W        W15104  24.626  23.820   2.802
42680W        W15105  20.984  30.120   3.282
42681W        W15106   4.114  43.078  12.082
42682W        W15107  42.815  12.257   4.667
42683W        W15108  43.204  24.502  14.067
42684W        W15109  22.714  13.642   3.638
42685W        W15110  25.487  42.454  14.698
42686W        W15111  24.523  37.593   2.368
42687W        W15112  39.475  20.279   3.714
42688W        W15113  11.728  22.278  14.894
42689W        W15114  11.597  14.660  12.567
42690W        W15115   8.403  25.321  13.812
42691W        W15116  20.126  21.996  14.377
42692W        W15117  18.549  41.878  10.804
42693W        W15118  13.202  27.189   4.697
42694W        W15119   8.628  29.979   2.147
42695W        W15120  26.069  20.154   2.163
42696W        W15121   9.380  25.081   0.932
42697W        W15122  15.432  37.612   9.795
42698W        W15123  33.744  43.233   9.922
42699W        W15124  39.867   2.371   4.573
42700W        W15125  28.915  12.886  11.939
42701W        W15126  12.702  31.211  13.868
42702W        W15127   3.166   4.567   5.184
42703W        W15128   2.434  44.781   4.086
42704W        W15129  32.877  27.919  10.486
42705W        W15130  12.166  30.668  14.786
42706W        W15131   4.943  18.739  11.507
42707W        W15132   5.161  12.238  12.797
42708W        W15133   4.263  35.203   1.238
42709W        W15134  14.635  20.196  11.229
42710W        W15135  37.853  18.799   1.786
42711W        W15136  15.792   9.568   4.605
42712W        W15137  43.422  32.082  10.687
42713W        W15138  27.640   1.186  12.066
42714W        W15139   0.775  41.555  11.755
42715W        W15140  22.778  24.748  10.819
42716W        W15141  27.872   6.443  13.422
42717W        W15142   6.166  35.556   0.002
42718W        W15143  42.950  44.334  14.946
42719W        W15144  42.884  34.944  12.449
42720W        W15145  13.397  19.882   2.151
42721W        W15146  44.804  37.766  14.338
42722W        W15147  10.775  31.980   4.539
42723W        W15148  37.752  18.571   3.740
42724W        W15149  31.671  18.656   2.715
42725W        W15150  19.037  36.934   3.891
42726W        W15151  44.151  16.601   3.984
42727W        W15152  12.658  22.179  10.484
42728W        W15153   9.804  35.376  10.658
42729W        W15154  16.921  33.029  11.956
42730W        W15155   0.375  13.719   2.945
42731W        W15156   4.201  26.770   0.694
42732W        W15157   5.631  20.524   0.879
42733W        W15158  21.819  36.058   0.520
42734W        W15159  12.592  29.608   0.898
42735W        W15160  24.738  24.229  12.901
42736W        W15161  29.231  37.063   3.631
42737W        W15162  39.254  20.971   5.017
42738W        W15163   0.065   9.107  13.046
42739W        W15164  24.218  25.560  13.519
42740W        W15165  23.452   5.659  14.896
42741W        W15166  12.654  20.475  14.232
42742W        W15167  13.822   4.227   0.458
42743W        W15168   5.227   5.803  13.346
42744W        W15169  10.660  39.293   2.264
42745W        W15170  42.131  43.802   1.693
42746W        W15171   3.336  20.192  10.411
42747W        W15172  39.735   9.718  13.907
42748W        W15173  39.557  36.343   0.021
42749W        W15174   2.484  22.585  10.709
42750W        W15175  31.114  30.521  10.573
42751W        W15176  14.817   0.781   3.868
42752W        W15177  34.265  40.288  11.639
42753W        W15178  29.440  12.401  13.890
42754W        W15179  17.624  33.761   5.032
42755W        W15180   9.289  18.207   3.222
42756W        W15181  24.183   4.371   0.232
42757W        W15182  21.897   9.489  13.668
42758W        W15183  20.550  11.102   4.533
42759W        W15184  35.457   4.623   3.794
42760W        W15185  24.688  17.285   2.006
42761W        W15186  30.118  28.961  14.440
42762W        W15187  42.472  29.630   0.802
42763W        W15188  26.069  33.567  13.509
42764W        W15189  34.344   8.393  13.130
42765W        W15190  38.482  14.351   1.004
42766W        W15191  24.576  24.641   0.042
42767W        W15192  15.397   3.675   4.194
42768W        W15193  25.470   9.063  10.446
42769W        W15194   5.482  22.281  11.356
42770W        W15195  15.746  29.867  11.551
42771W        W15196  30.481  39.010   3.471
42772W        W15197  31.816  20.188   4.053
42773W        W15198  34.561  10.274   1.908
42774W        W15199  24.906  43.021   3.119
42775W        W15200  30.061  31.679   4.764
42776W        W15201   5.351  18.479   4.134
42777W        W15202   6.220  35.864   0.436
42778W        W15203  37.073  19.412  10.497
42779W        W15204  28.541   8.254   4.563
42780W        W15205  32.616  33.215  13.377
42781W        W15206  16.066  13.739  14.505
42782W        W15207  25.243   4.800  11.479
42783W        W15208  44.951  36.924  10.464
42784W        W15209  43.866  42.254  14.547
42785W        W15210  27.389  11.204  13.905
42786W        W15211  16.283   9.328   4.307
42787W        W15212  13.684  44.538   1.379
42788W        W15213  42.250   0.716  13.498
42789W        W15214  20.139  22.223  12.984
42790W        W15215  42.285  25.379   4.207
42791W        W15216   8.180   0.925  12.597
42792W        W15217  19.419  34.109   0.808
42793W        W15218  11.282  42.772   3.712
42794W        W15219   6.257   4.744  10.568
42795W        W15220  20.725  27.931   3.698
42796W        W15221  20.553  18.324   4.935
42797W        W15222  28.293   8.239  12.084
42798W        W15223  38.591  33.387  11.899
42799W        W15224   6.878  14.241  14.376
42800W        W15225  38.653  43.349   3.594
42801W        W15226  12.668   3.337   2.719
42802W        W15227  14.646   5.116  14.422
42803W        W15228  10.633  29.066  13.044
42804W        W15229  24.262  10.430   1.703
42805W        W15230   2.708  11.148  14.808
42806W        W15231  40.838  20.647   1.731
42807W        W15232  16.778  27.098  13.427
42808W        W15233  42.965  40.707   1.122
42809W        W15234  41.573  35.388   0.644
42810W        W15235   7.067  27.571   3.105
42811W        W15236  42.454  28.116  13.788
42812W        W15237  31.375  22.592  11.300
42813W        W15238  35.434  37.143  12.228
42814W        W15239   4.379   5.029  10.580
42815W        W15240   3.907  11.207  11.141
42816W        W15241   9.748  43.500  12.608
42817W        W15242  37.059  37.461  13.709
42818W        W15243   5.726  28.905  11.621
42819W        W15244  44.919  12.426   1.371
42820W        W15245  21.967   0.442   2.288
42821W        W15246  31.498   9.605   3.011
42822W        W15247  28.602  40.421  12.519
42823W        W15248  22.430  19.922   4.940
42824W        W15249  21.200  27.427  14.328
42825W        W15250  40.727   8.214  13.946
42826W        W15251  14.393   0.099  14.775
42827W        W15252  21.507  21.527   2.218
42828W        W15253  15.060  14.328  14.958
42829W        W15254  27.176   2.210   1.335
42830W        W15255   0.729   9.825  14.337
42831W        W15256   5.263   1.291   0.218
42832W        W15257  22.131  15.666  11.666
42833W        W15258  14.563  17.254  12.333
42834W        W15259   9.652   6.261  12.488
42835W        W15260  39.050  36.111   3.090
42836W        W15261  41.873  44.362  14.339
42837W        W15262   8.466  42.982  12.430
42838W        W15263  42.782  16.117  14.401
42839W        W15264   8.523  35.559   2.653
42840W        W15265  19.376  13.698   4.596
42841W        W15266  26.687   1.435  14.333
42842W        W15267  40.722  15.881   3.691
42843W        W15268  43.551  18.592   3.485
42844W        W15269  44.725  26.322  13.061
42845W        W15270  31.075  14.728  13.840
42846W        W15271  39.318  21.740  12.942
42847W        W15272   6.187  29.159  12.510
42848W        W15273  25.993  43.814  11.904
42849W        W15274  29.723  34.003  13.873
42850W        W15275  30.084   8.777  14.583
42851W        W15276  17.098  16.141  10.402
42852W        W15277  23.257  24.054   2.891
42853W        W15278  38.340  31.378   1.691
42854W        W15279  15.804  42.012  12.496
42855W        W15280  31.390  16.081  13.979
42856W        W15281  21.448   1.381   1.965
42857W        W15282   7.595  43.205  13.898
42858W        W15283  29.995  19.853  13.231
42859W        W15284   6.251  18.546  13.516
42860W        W15285  22.507   5.366  10.523
42861W        W15286  39.761  27.276   4.133
42862W        W15287   4.704  27.238  10.258
42863W        W15288   0.523  44.921  14.296
42864W        W15289   3.215  29.391   3.686
42865W        W15290  22.304  14.932  10.764
42866W        W15291   9.060  28.568  13.231
42867W        W15292  10.153  16.848   4.136
42868W        W15293  15.664  25.452  13.459
42869W        W15294  42.895  34.991  14.428
42870W        W15295  10.031  18.775   1.718
42871W        W15296  33.335  42.404  13.941
42872W        W15297  37.942  25.940  14.997
42873W        W15298   9.094  12.303   0.791
42874W        W15299   3.352  38.469  11.978
42875W        W15300  40.437  43.226   2.790
42876W        W15301  44.041   1.259   4.673
42877W        W15302  35.524   9.577   5.193
42878W        W15303  42.232  27.435  11.283
42879W        W15304  22.608  36.007  11.143
42880W        W15305  44.463   3.330  14.758
42881W        W15306  30.842  37.062  11.174
42882W        W15307  37.926  31.601   0.492
42883W        W15308  13.268  32.953  13.579
42884W        W15309  37.878  41.911   0.919
42885W        W15310  18.230  35.548   3.851
42886W        W15311   1.859  13.608   4.315
42887W        W15312  20.188  10.210  12.948
42888W        W15313  16.526  21.294   0.440
42889W        W15314  43.812  24.540   0.748
42890W        W15315   6.224   5.303  10.569
42891W        W15316  24.195  10.162   0.451
42892W        W15317  32.182  39.873   0.944
42893W        W15318  39.011  25.618  10.588
42894W        W15319  37.891   4.347  14.439
42895W        W15320  27.913  14.681  12.608
42896W        W15321  23.000  27.269   1.747
42897W        W15322   5.792   1.503  10.690
42898W        W15323  40.966  41.195   2.308
42899W        W15324  42.001   0.494   2.606
42900W        W15325  27.245  42.641   1.017
42901W        W15326  38.951  35.230   4.746
42902W        W15327   2.432  17.170  10.694
42903W        W15328   8.416   5.724   2.743
42904W        W15329  11.593  22.589  12.383
42905W        W15330  15.598  42.046  14.238
42906W        W15331  28.482  31.683  14.417
42907W        W15332   8.774   5.226   4.636
42908W        W15333  14.729  16.829  13.056
42909W        W15334  27.944   9.402  13.971
42910W        W15335  28.489  14.088   2.127
42911W        W15336  19.427  14.410   4.197
42912W        W15337  40.415  16.232  14.863
42913W        W15338  12.240  41.094  12.954
42914W        W15339  22.995  42.804  13.272
42915W        W15340  33.682  33.987   4.024
42916W        W15341  41.900  32.572   4.730
42917W        W15342  30.932  20.727  10.616
42918W        W15343  43.615   3.789   0.965
42919W        W15344  22.570  20.878  12.820
42920W        W15345  16.252  31.758  14.777
42921W        W15346  34.832  41.802   4.526
42922W        W15347  13.340  37.592  14.912
42923W        W15348  21.583  41.373  11.181
42924W        W15349  33.860  39.396  13.977
42925W        W15350  31.131   9.832  14.222
42926W        W15351   7.925   3.036  13.899
42927W        W15352  30.485  36.676   0.393
42928W        W15353  30.737  27.944   2.261
42929W        W15354  10.820  44.271  13.097
42930W        W15355  15.157   6.886   0.915
42931W        W15356  36.169  10.146  11.948
42932W        W15357  15.550   8.227   1.840
42933W        W15358   1.657  27.521  13.916
42934W        W15359  39.280  36.556  12.927
42935W        W15360  12.192   5.752   3.643
42936W        W15361   8.422  16.409   4.723
42937W        W15362  11.638  33.621   1.661
42938W        W15363  22.583  40.555  13.508
42939W        W15364  43.457  40.289   3.802
42940W        W15365   3.745  18.038  12.953
42941W        W15366  29.533   2.397   0.852
42942W        W15367  16.680  13.083  13.538
42943W        W15368  15.827  36.571  12.065
42944W        W15369  20.109   0.745   1.612
42945W        W15370  36.928  12.163   3.247
42946W        W15371  34.512   2.187  12.943
42947W        W15372   7.346  26.045  14.856
42948W        W15373  20.710  26.110  14.366
42949W        W15374   2.955  26.525  11.969
42950W        W15375  40.533  10.150   2.812
42951W        W15376  38.318  22.285  12.403
42952W        W15377  31.373  36.371  12.123
42953W        W15378  29.072   7.107  13.613
42954W        W15379   6.524  11.703  11.441
42955W        W15380   9.002  34.676   4.139
42956W        W15381  14.338  11.702   2.225
42957W        W15382  29.607  31.392   4.579
42958W        W15383   5.254  43.765   3.228
42959W        W15384  19.643  40.099  12.502
42960W        W15385  33.718   7.391  11.897
42961W        W15386  43.543  16.626  11.079
42962W        W15387  40.387  26.476   1.283
42963W        W15388  24.079  22.763  10.647
42964W        W15389  12.761  30.080   3.083
42965W        W15390  22.638  20.626   4.158
42966W        W15391  22.306   7.521   3.741
42967W        W15392  44.410  33.781   2.284
42968W        W15393  21.777  16.091   2.276
42969W        W15394  37.838  42.869  12.047
42970W        W15395  10.185  23.483  13.977
42971W        W15396  33.509  17.210  10.526
42972W        W15397  38.237  38.117   2.283
42973W        W15398  30.650   5.351   0.960
42974W        W15399  28.135  17.455   1.671
42975W        W15400   9.954  10.337  12.609
42976W        W15401  11.299   8.140  14.070
42977W        W15402  38.857  19.951   3.214
42978W        W15403   9.349  10.897   2.854
42979W        W15404  39.502  37.340   1.419
42980W        W15405   8.467   5.352  12.631
42981W        W15406  24.605  14.879  14.861
42982W        W15407  37.294  36.332  11.534
42983W        W15408  38.124  35.719   3.298
42984W        W15409   0.874  42.321   1.225
42985W        W15410  12.089  28.167  14.475
42986W        W15411  27.605  25.752  13.899
42987W        W15412  43.459  31.598   0.046
42988W        W15413  43.550  33.735   2.281
42989W        W15414   9.284   8.714  10.292
42990W        W15415  19.875   4.221  10.506
42991W        W15416  21.773  30.476  11.634
42992W        W15417   2.768   7.788  12.134
42993W        W15418  10.079  13.100  12.918
42994W        W15419  26.413  16.871   2.025
42995W        W15420   6.393   9.191  13.290
42996W        W15421   1.791  28.577   3.135
42997W        W15422   2.986  12.586  14.053
42998W        W15423  41.419  21.660  11.906
42999W        W15424  10.139   4.846  10.526
43000W        W15425  21.075  12.218   4.704
43001W        W15426  24.582  17.587  12.065
43002W        W15427  29.673  30.747   5.104
43003W        W15428  18.160  33.462   4.191
43004W        W15429  39.830  12.664  11.524
43005W        W15430  19.066  38.555  10.749
43006W        W15431   8.257  20.123   0.690
43007W        W15432  22.001  16.165   4.592
43008W        W15433  10.697   4.592   1.953
43009W        W15434  15.663  39.250   3.733
43010W        W15435   2.523  27.051  10.973
43011W        W15436  40.035  35.116  12.601
43012W        W15437   0.524  36.889  11.128
43013W        W15438  24.731  30.936   1.497
43014W        W15439  17.188  44.938  11.001
43015W        W15440  36.158  23.647  11.021
43016W        W15441  19.803  44.838   4.172
43017W        W15442  21.096  26.752   3.117
43018W        W15443  31.943  10.006  11.358
43019W        W15444  32.517  16.038   3.575
43020W        W15445  15.289  12.559   1.779
43021W        W15446  34.093  23.030  10.674
43022W        W15447   7.550  13.659   2.751
43023W        W15448  20.150  21.067  12.951
43024W        W15449  13.629   7.962   0.004
43025W        W15450  17.564  19.981   3.238
43026W        W15451   5.460  18.329  14.847
43027W        W15452   2.729  34.919  12.133
43028W        W15453  37.900  26.946  11.629
43029W        W15454  37.132  25.716  11.295
43030W        W15455  28.185  11.171   0.481
43031W        W15456  30.909  35.288  10.757
43032W        W15457  24.732  23.305   2.875
43033W        W15458  25.805  26.124  14.662
43034W        W15459  10.315  44.555  11.879
43035W        W15460  29.212  25.632   3.412
43036W        W15461  12.202  38.937   4.839
43037W        W15462  18.404  17.315   0.437
43038W        W15463  41.170   8.733  11.043
43039W        W15464  35.093  24.874  11.466
43040W        W15465   9.788  14.561   4.546
43041W        W15466  37.504  34.560  14.604
43042W        W15467   9.634  29.113  11.511
43043W        W15468  23.973  14.650  11.255
43044W        W15469  19.280  18.216   4.178
43045W        W15470  35.927  30.585   1.683
43046W        W15471   6.337  36.672   0.785
43047W        W15472  35.888  25.655   2.131
43048W        W15473   0.429  23.022   0.659
43049W        W15474  34.647  39.081  12.879
43050W        W15475   0.850   3.549   2.862
43051W        W15476  22.548  20.429   3.705
43052W        W15477  10.822  34.235   4.045
43053W        W15478  34.287  14.162   0.713
43054W        W15479  15.632  12.832  13.509
43055W        W15480  18.768   8.112   3.886
43056W        W15481  37.469  20.010  14.253
43057W        W15482  16.043  36.523   4.123
43058W        W15483  35.899  18.212   3.382
43059W        W15484   4.960   5.225  14.337
43060W        W15485   7.091   2.898   2.692
43061W        W15486  26.014  15.228   4.350
43062W        W15487  44.816  25.992  12.258
43063W        W15488  37.249  15.695   3.118
43064W        W15489   5.755  34.395  13.498
43065W        W15490   3.739  13.608   2.321
43066W        W15491  21.779  14.852  13.593
43067W        W15492  13.052  21.331   2.457
43068W        W15493   1.240  33.961   2.334
43069W        W15494  34.375   4.003  12.975
43070W        W15495   9.358  16.670   3.665
43071W        W15496  16.655   7.461   2.793
43072W        W15497  21.654   5.958  12.088
43073W        W15498  39.890  15.982  13.333
43074W        W15499   8.316  11.628  11.550
43075W        W15500  43.805  36.226   1.823
43076W        W15501  19.111  31.522  12.526
43077W        W15502  34.077  13.358   2.215
43078W        W15503   1.851  17.390   0.518
43079W        W15504  33.021  40.612  12.039
43080W        W15505  24.818  24.424  12.399
43081W        W15506  42.389  31.385  14.510
43082W        W15507  25.856  16.559  13.992
43083W        W15508  31.494   5.796   4.556
43084W        W15509  42.405   0.818   3.381
43085W        W15510  16.258  27.355   1.461
43086W        W15511  37.906  37.388  12.767
43087W        W15512  14.372   3.804   0.894
43088W        W15513  14.585  38.923  14.237
43089W        W15514  12.274  34.679  14.516
43090W        W15515  31.430  30.140   1.542
43091W        W15516  37.382   1.875  11.527
43092W        W15517  29.573  20.754  14.433
43093W        W15518   8.921  21.217  12.600
43094W        W15519  38.383  10.337  13.592
43095W        W15520  12.652  14.940   3.866
43096W        W15521  36.463  19.558   1.241
43097W        W15522  41.407  24.484   0.270
43098W        W15523  34.857   4.652   1.306
43099W        W15524  42.554  24.671  10.511
43100W        W15525  37.520  14.992  13.519
43101W        W15526  38.598  42.082   0.394
43102W        W15527  10.856  12.558   0.279
43103W        W15528  28.019  28.140  14.549
43104W        W15529   4.499  22.181  11.472
43105W        W15530  39.744   5.474   3.749
43106W        W15531  21.030  18.094   4.831
43107W        W15532  19.265   2.975   2.697
43108W        W15533   7.905   8.924  12.962
43109W        W15534   7.669  24.728   2.903
43110W        W15535  15.194  22.488   0.954
43111W        W15536  13.628  14.205   0.790
43112W        W15537  32.872   9.820   1.352
43113W        W15538   4.226   3.180  12.792
43114W        W15539  41.418  14.101   3.731
43115W        W15540  28.042  24.448  11.935
43116W        W15541  15.718  35.948  13.674
43117W        W15542   9.586  19.650  13.726
43118W        W15543  39.087  16.138  13.826
43119W        W15544  39.805  26.213   2.297
43120W        W15545  28.452   3.935  12.018
43121W        W15546   1.501  20.114   1.512
43122W        W15547  23.458  35.042  12.462
43123W        W15548  11.546  27.634   1.557
43124W        W15549  11.159  43.985  11.941
43125W        W15550  23.786  14.673   2.198
43126W        W15551  27.925  41.139   4.525
43127W        W15552  20.212  35.967  14.451
43128W        W15553  36.935  26.622   4.696
43129W        W15554  23.669  35.379   3.716
43130W        W15555   9.674  14.239  11.013
43131W        W15556  40.567  18.791   1.808
43132W        W15557  22.129  20.074  13.535
43133W        W15558  29.018  19.894   3.326
43134W        W15559  16.258  12.316   2.349
43135W        W15560   0.658  36.874  14.277
43136W        W15561   5.365  17.096  12.499
43137W        W15562  32.286   9.832   5.035
43138W        W15563  39.092   0.832   2.704
43139W        W15564  44.055  21.690   1.338
43140W        W15565  23.533   5.517  14.400
43141W        W15566  11.303  44.948  11.019
43142W        W15567   2.825  17.913  14.329
43143W        W15568  23.396  17.267  14.826
43144W        W15569  35.049  23.573   0.513
43145W        W15570  23.766  18.245   0.422
43146W        W15571  40.563  22.136  10.923
43147W        W15572  41.456  22.961  13.868
43148W        W15573   5.812  34.614  11.327
43149W        W15574  13.056  23.875  11.468
43150W        W15575   0.412  37.916   3.086
43151W        W15576  26.621  28.207  14.483
43152W        W15577  30.948  18.464   4.033
43153W        W15578  29.029  40.896  10.532
43154W        W15579  23.955  37.803   0.704
43155W        W15580  23.070   2.307  14.371
43156W        W15581   6.190  36.946  11.572
43157W        W15582   2.470  37.313   0.287
43158W        W15583  16.749  43.403  12.572
43159W        W15584  18.830   5.820  10.509
43160W        W15585  14.683  17.033   2.384
43161W        W15586  28.547  42.765   4.734
43162W        W15587   0.852  25.259  13.172
43163W        W15588  44.403  27.850  11.561
43164W        W15589  26.015  27.048   3.592
43165W        W15590  10.432  43.522   0.493
43166W        W15591  17.055  38.072  14.401
43167W        W15592   7.340  15.375   0.275
43168W        W15593  17.817  36.999  14.878
43169W        W15594  27.572  35.883  12.997
43170W        W15595  12.781  13.853  11.999
43171W        W15596  43.885  11.676  11.038
43172W        W15597  27.623  13.390   3.391
43173W        W15598  22.309  21.344   0.432
43174W        W15599  31.541  38.438  13.608
43175W        W15600  26.928  16.858  14.141
43176W        W15601   5.809  27.217  12.616
43177W        W15602  24.096  39.357  14.693
43178W        W15603   1.033   0.665  10.167
43179W        W15604  41.784  20.973   2.171
43180W        W15605  28.260   3.735   0.988
43181W        W15606  24.927  14.901  11.619
43182W        W15607   1.744  16.397  12.591
43183W        W15608   9.988  19.159  11.072
43184W        W15609  22.064  25.151  11.477
43185W        W15610  19.699  17.126  12.368
43186W        W15611  26.082  42.972  11.092
43187W        W15612  29.373   7.118  11.920
43188W        W15613  14.865  19.260   3.463
43189W        W15614   0.759  36.329  14.742
43190W        W15615  34.448  33.025   4.886
43191W        W15616  41.789  27.250   0.292
43192W        W15617  21.595  39.396   1.748
43193W        W15618   5.262  29.184   1.283
43194W        W15619  35.875  33.076  13.678
43195W        W15620  39.239  34.114  11.094
43196W        W15621  36.586  19.626   4.072
43197W        W15622   8.820  28.132   2.606
43198W        W15623  25.738   2.182   4.312
43199W        W15624  16.101   3.280   1.000
43200W        W15625  33.519  20.715   0.889
43201W        W15626   9.316  35.931   4.496
43202W        W15627  26.059  21.620  13.095
43203W        W15628  33.181  31.975   4.210
43204W        W15629   5.451  30.373  11.585
43205W        W15630  15.542  23.898  12.225
43206W        W15631  34.747  32.942   0.606
43207W        W15632  26.250   1.746  14.353
43208W        W15633  11.624  43.396  11.477
43209W        W15634  19.111  43.793  12.286
43210W        W15635  14.330  40.717   2.395
43211W        W15636  13.844  11.610   2.329
43212W        W15637   9.723  42.483  11.944
43213W        W15638  38.387  26.960   2.016
43214W        W15639  12.607   3.258   0.531
43215W        W15640  37.322  24.220  12.817
43216W        W15641   7.732   1.980  14.827
43217W        W15642  15.896   5.981  13.896
43218W        W15643  40.597  30.575   2.319
43219W        W15644  25.650  33.186   0.854
43220W        W15645   3.011  41.534  11.270
43221W        W15646  36.317  31.601   2.939
43222W        W15647  19.661  30.746  10.491
43223W        W15648  10.789  14.987   4.072
43224W        W15649   7.660  23.552   2.216
43225W        W15650   8.236  38.319   3.433
43226W        W15651  33.524   7.954   2.661
43227W        W15652  18.662  44.961  12.857
43228W        W15653  39.927   5.508  11.521
43229W        W15654   0.293  28.966  11.408
43230W        W15655  27.084  33.118   4.939
43231W        W15656  22.586  24.936  12.562
43232W        W15657   7.176   6.101   2.806
43233W        W15658   8.953  17.237  11.146
43234W        W15659  34.403   8.399   4.601
43235W        W15660  21.974   5.819   1.797
43236W        W15661   6.767  32.177   4.027
43237W        W15662  11.418   6.876   0.288
43238W        W15663  42.520  22.127  13.511
43239W        W15664  36.102  38.454   1.235
43240W        W15665  20.773  17.106  13.863
43241W        W15666  31.698   1.241  13.060
43242W        W15667  31.183   4.251  10.733
43243W        W15668  21.306   3.610  11.622
43244W        W15669  25.052  37.632   4.425
43245W        W15670  22.074  41.253  13.429
43246W        W15671  15.547  36.635   4.183
43247W        W15672  34.137   4.603   0.848
43248W        W15673   9.968  39.506   4.103
43249W        W15674  27.144  26.530  12.171
43250W        W15675   6.426   0.928   1.001
43251W        W15676  39.532  19.489  11.301
43252W        W15677  23.240   0.573   0.832
43253W        W15678  39.956  10.908  13.567
43254W        W15679  13.698  18.560   2.359
43255W        W15680  28.525  21.444  10.803
43256W        W15681  34.541   9.661  14.998
43257W        W15682  18.229   5.860  13.126
43258W        W15683  34.594  26.529  14.476
43259W        W15684  34.201  17.873   2.255
43260W        W15685  13.766  44.245   3.308
43261W        W15686  18.697  14.701   0.477
43262W        W15687  34.869  27.547   3.644
43263W        W15688  19.634  42.222  13.579
43264W        W15689  29.909   2.947   2.390
43265W        W15690  42.437  43.768   2.643
43266W        W15691   2.894  18.663   3.389
43267W        W15692  28.640  36.454   1.180
43268W        W15693   1.988  25.495   1.312
43269W        W15694   8.469  34.911  10.766
43270W        W15695  36.129  44.044   1.404
43271W        W15696  27.250  13.255   3.707
43272W        W15697  40.055  28.736   3.629
43273W        W15698  39.095  27.347   0.926
43274W        W15699  34.070  15.561  12.642
43275W        W15700  24.610  11.111  10.715
43276W        W15701  40.783  32.510  12.739
43277W        W15702   1.818  36.627  11.468
43278W        W15703  30.104  34.344   1.901
43279W        W15704  19.305  21.801   3.164
43280W        W15705  11.993  11.312  13.208
43281W        W15706  23.720   1.517   4.008
43282W        W15707  28.400   9.195   1.886
43283W        W15708  24.469  37.203   2.009
43284W        W15709  40.581   2.401  12.445
43285W        W15710   7.453   4.782  12.709
43286W        W15711   1.991  10.408   4.105
43287W        W15712   1.972  23.585   0.348
43288W        W15713   9.357  22.473   1.266
43289W        W15714  26.930   6.662   4.509
43290W        W15715  23.918  32.919  14.304
43291W        W15716  19.596  35.618   2.195
43292W        W15717  40.419   0.722  14.515
43293W        W15718   2.636  25.674   4.221
43294W        W15719  34.573  13.046   4.802
43295W        W15720  11.684  11.707  12.973
43296W        W15721  41.380  41.559  12.732
43297W        W15722  43.530  21.995   2.283
43298W        W15723   1.783  43.813  11.962
43299W        W15724  20.034  34.925  12.927
43300W        W15725  19.510  43.013   4.061
43301W        W15726  27.794  14.704   2.402
43302W        W15727  14.331  24.562   1.913
43303W        W15728  22.014  15.081   1.156
43304W        W15729  14.739  13.676  13.914
43305W        W15730   6.710  12.104   0.372
43306W        W15731  29.709  21.103  10.394
43307W        W15732   9.846   0.786   2.780
43308W        W15733   5.751  42.913  10.542
43309W        W15734   5.934  18.646  11.905
43310W        W15735  24.370  32.294   5.202
43311W        W15736  10.321  40.175  14.179
43312W        W15737  37.062   9.947   0.827
43313W        W15738   8.713  39.994  10.874
43314W        W15739  16.692  15.789  13.070
43315W        W15740  32.743  19.295  12.586
43316W        W15741   4.229  12.184  10.629
43317W        W15742  43.344  17.240  10.039
43318W        W15743  11.922  27.091   4.233
43319W        W15744  40.110  25.626   3.821
43320W        W15745  10.827  43.027  10.951
43321W        W15746  12.703  40.599  10.726
43322W        W15747   3.904  29.640   2.455
43323W        W15748  22.248  22.773   3.692
43324W        W15749   0.951  18.711   2.847
43325W        W15750  32.508  40.384  10.870
43326W        W15751  29.271  19.188   5.021
43327W        W15752  29.017  30.560   1.304
43328W        W15753   5.806  16.902  12.837
43329W        W15754  35.015  42.451  13.394
43330W        W15755  37.937   7.413   5.498
43331W        W15756  43.909  15.274   3.443
43332W        W15757  17.234  21.940  14.140
43333W        W15758   6.664  26.658  14.822
43334W        W15759   5.480  42.355   4.370
43335W        W15760   5.445  28.991   1.729
43336W        W15761  21.950  40.951  12.980
43337W        W15762  41.400  16.578   4.110
43338W        W15763  38.219  18.550   0.306
43339W        W15764  13.558  17.516   1.744
43340W        W15765  31.418  23.175   2.254
43341W        W15766   2.668  23.578  13.850
43342W        W15767  29.266   8.153   2.987
43343W        W15768  39.376  20.223  11.961
43344W        W15769  44.885  11.106  13.885
43345W        W15770  39.331  29.986  10.773
43346W        W15771  28.907  40.456  10.940
43347W        W15772   4.311  17.179  10.333
43348W        W15773  18.775  12.387  12.554
43349W        W15774   0.228   8.655  12.475
43350W        W15775  40.049  25.477  11.102
43351W        W15776  40.006   3.194   1.761
43352W        W15777   6.531  24.495   3.722
43353W        W15778  40.651  10.439   1.197
43354W        W15779   9.954  38.154   3.641
43355W        W15780   5.862  24.437   1.711
43356W        W15781  33.487  16.313  14.870
43357W        W15782  13.306  24.758   0.298
43358W        W15783  10.609   1.419  13.477
43359W        W15784  22.658  41.465   1.959
43360W        W15785  13.535  31.587  13.976
43361W        W15786  39.691  24.610   1.461
43362W        W15787  43.988  35.678   3.806
43363W        W15788  22.948  40.832  13.258
43364W        W15789   0.495   6.959  13.838
43365W        W15790  29.228  19.278  11.932
43366W        W15791  27.745   3.861  10.571
43367W        W15792  38.557  34.988  14.974
43368W        W15793   4.382  25.364   3.357
43369W        W15794  26.424  41.926   2.599
43370W        W15795  24.972  23.250  11.114
43371W        W15796  43.474  41.692   3.792
43372W        W15797  34.896  44.820   0.562
43373W        W15798  16.574   7.388  12.164
43374W        W15799   9.468  24.276  11.140
43375W        W15800  24.921   1.586   3.967
43376W        W15801  13.926   3.862   9.921
43377W        W15802  20.128  19.522   3.579
43378W        W15803  21.469   9.979  11.138
43379W        W15804   2.750   2.402  14.473
43380W        W15805  18.262   7.887  12.875
43381W        W15806  23.238  34.067   1.663
43382W        W15807  33.975  13.067  14.477
43383W        W15808  19.950  12.779   0.186
43384W        W15809  24.013  10.336   2.135
43385W        W15810   4.595  14.190  10.024
43386W        W15811  10.573  34.417   0.734
43387W        W15812  23.179  11.696  14.164
43388W        W15813  18.727  23.575  12.322
43389W        W15814  41.499  38.134   1.276
43390W        W15815  11.425  23.215  12.623
43391W        W15816   3.961   8.382   1.486
43392W        W15817  21.607  21.591  11.466
43393W        W15818  27.242  11.192   2.782
43394W        W15819  13.039  17.684  11.898
43395W        W15820  25.542   5.942  12.041
43396W        W15821  44.834  43.508   0.013
43397W        W15822  40.640  18.197   3.222
43398W        W15823  31.410  41.436   3.107
43399W        W15824   1.189  26.007   1.388
43400W        W15825  10.082  14.716  14.517
43401W        W15826   2.511  41.680  11.191
43402W        W15827  24.112  23.967   3.158
43403W        W15828  35.551  16.034  14.964
43404W        W15829  43.362  14.741  14.359
43405W        W15830  43.327   6.218  13.030
43406W        W15831   3.374  18.843   2.583
43407W        W15832  27.088  41.360   0.954
43408W        W15833  14.327  44.505  11.198
43409W        W15834  11.798   6.897  12.739
43410W        W15835  42.490   2.952   1.716
43411W        W15836  25.521  27.024  12.029
43412W        W15837  43.072   5.737  14.856
43413W        W15838   6.272  14.403   4.899
43414W        W15839  38.277  19.119   3.373
43415W        W15840  18.035  33.928   2.385
43416W        W15841   4.319  41.457   4.462
43417W        W15842  37.606   3.493   4.149
43418W        W15843  43.444   5.624   4.383
43419W        W15844  19.461  11.880  13.272
43420W        W15845  42.916   8.188   0.940
43421W        W15846  18.168  12.239   2.394
43422W        W15847  11.760  10.697   4.309
43423W        W15848  20.719  16.699  12.533
43424W        W15849   1.113  16.601  14.542
43425W        W15850  15.498  28.920  10.847
43426W        W15851   0.327  33.373   0.435
43427W        W15852  19.546   5.706  14.014
43428W        W15853  24.160  23.834  12.510
43429W        W15854  38.299   6.671   0.228
43430W        W15855  22.172  13.295   2.339
43431W        W15856  22.384  31.457  11.088
43432W        W15857  25.919   1.954   1.303
43433W        W15858  32.640  22.080   4.859
43434W        W15859  38.415   7.449  13.501
43435W        W15860  36.145   1.277   1.342
43436W        W15861  13.456  12.141  14.389
43437W        W15862  29.919  43.704  13.292
43438W        W15863   9.338  14.869  10.984
43439W        W15864  30.619   1.016   0.318
43440W        W15865  24.310   4.033  11.924
43441W        W15866  42.360  22.017  12.644
43442W        W15867   3.671  44.373  13.124
43443W        W15868  10.352   4.721  12.560
43444W        W15869  37.519  17.752  12.461
43445W        W15870   1.869  10.839   0.246
43446W        W15871   9.194  22.040   0.165
43447W        W15872  11.207  38.283  12.925
43448W        W15873  42.894   5.824  12.418
43449W        W15874  19.739  28.210  10.875
43450W        W15875  28.479  24.690   2.664
43451W        W15876  39.198  26.815   0.838
43452W        W15877  12.522  17.680   1.800
43453W        W15878  15.674  10.234  10.266
43454W        W15879  20.199  39.486  10.842
43455W        W15880  13.534  19.123  14.652
43456W        W15881  12.537   9.945   3.535
43457W        W15882  14.670   5.119  11.695
43458W        W15883   6.606  28.659   4.031
43459W        W15884  42.288   2.414   0.813
43460W        W15885  22.344  27.388  11.076
43461W        W15886   8.611  43.303   0.128
43462W        W15887  16.630   8.174  13.303
43463W        W15888  18.963   4.871   4.338
43464W        W15889  31.467   3.679  14.783
43465W        W15890  43.557  18.628   0.746
43466W        W15891  10.289   9.547  12.492
43467W        W15892   9.652   2.868   4.597
43468W        W15893  19.312   9.378  11.127
43469W        W15894   0.671   9.904  13.070
43470W        W15895   2.798  35.643   1.281
43471W        W15896  15.243  19.974   2.033
43472W        W15897   0.807  11.361   4.595
43473W        W15898  11.885  15.106  11.881
43474W        W15899  43.936  43.831  11.720
43475W        W15900  25.293  17.994  11.186
43476W        W15901  39.332  41.768  13.056
43477W        W15902  14.254  26.584  11.093
43478W        W15903  41.228  29.178   1.217
43479W        W15904   5.477  24.113  12.899
43480W        W15905  13.346  22.302   3.525
43481W        W15906  43.020   6.486   0.754
43482W        W15907  30.145   9.429  11.180
43483W        W15908  17.029  34.103   4.594
43484W        W15909  40.368  20.634   1.945
43485W        W15910  41.427   1.884   3.661
43486W        W15911  27.130  21.705  11.133
43487W        W15912   0.562  20.258  10.504
43488W        W15913   6.957  18.792  11.761
43489W        W15914  15.234  33.932   2.553
43490W        W15915  36.617  11.909   2.905
43491W        W15916  33.415  28.576  13.509
43492W        W15917  29.835  36.129  11.077
43493W        W15918   0.534  38.685  13.427
43494W        W15919   1.707  16.175  12.139
43495W        W15920   1.679  13.370  11.878
43496W        W15921  38.520  23.756  10.511
43497W        W15922  32.052  44.780  11.186
43498W        W15923  10.573  15.178   2.241
43499W        W15924  14.662  34.336   1.941
43500W        W15925  42.868  36.380  14.093
43501W        W15926   6.888   7.853   1.993
43502W        W15927  23.157  32.576  11.141
43503W        W15928  27.414   0.483   4.145
43504W        W15929  14.836  41.006   3.635
43505W        W15930  34.965  41.874  10.724
43506W        W15931  21.725  38.866  10.799
43507W        W15932  18.329  13.260  11.191
43508W        W15933  34.234   1.489   1.113
43509W        W15934   4.292  42.871   1.725
43510W        W15935  41.511   6.485  14.504
43511W        W15936  23.017  23.052   1.109
43512W        W15937   3.802  34.592   0.407
43513W        W15938  31.060  30.208  14.788
43514W        W15939  23.703  44.307  11.430
43515W        W15940  29.928  27.198   2.370
43516W        W15941  13.286  32.933   2.725
43517W        W15942  40.996  34.990  13.752
43518W        W15943   9.289  40.679   1.438
43519W        W15944  42.935  39.610  13.302
43520W        W15945  16.106  30.469   4.266
43521W        W15946  18.806  37.406   1.140
43522W        W15947  11.779  10.394   9.981
43523W        W15948  27.401  10.337  11.643
43524W        W15949   8.083  37.380   2.084
43525W        W15950  30.597  42.707   3.135
43526W        W15951  22.505  44.440  14.139
43527W        W15952   1.949  29.141   2.607
43528W        W15953  19.964   2.910   0.072
43529W        W15954  39.956  32.845  13.342
43530W        W15955  40.449  41.197   5.107
43531W        W15956  35.100   7.436  12.569
43532W        W15957  30.029  39.126   3.209
43533W        W15958  42.852  30.697   1.842
43534W        W15959  36.380  37.133  10.738
43535W        W15960   7.432  15.817  14.364
43536W        W15961  39.194  42.127   2.049
43537W        W15962  25.712   0.751  14.885
43538W        W15963  27.757  13.553   0.916
43539W        W15964  32.039  16.555  12.613
43540W        W15965  44.771  10.112   2.249
43541W        W15966  22.097  17.126   0.470
43542W        W15967  42.773   8.086  12.997
43543W        W15968  23.600  20.147   4.387
43544W        W15969  32.528  23.772  14.720
43545W        W15970  11.330  28.467  12.675
43546W        W15971  33.398  18.523  11.560
43547W        W15972  27.725  14.012  13.876
43548W        W15973  33.166  25.727   2.115
43549W        W15974  37.073  19.051  12.378
43550W        W15975  33.006  41.270   0.570
43551W        W15976  33.892  35.070  13.013
43552W        W15977  26.021  16.049   1.335
43553W        W15978  24.330   1.646  13.342
43554W        W15979  31.058   7.000  12.053
43555W        W15980  14.049   2.212  14.336
43556W        W15981  39.514  23.754  11.010
43557W        W15982  32.168  34.570   0.579
43558W        W15983  40.964  43.713  13.033
43559W        W15984  11.380  25.603   1.517
43560W        W15985  25.164   7.311  14.671
43561W        W15986  24.410  17.206  14.928
43562W        W15987   5.570  28.672   2.883
43563W        W15988  19.038   6.461  12.616
43564W        W15989  23.597  44.022   1.202
43565W        W15990  20.041  25.430  14.483
43566W        W15991  43.986  34.118  10.648
43567W        W15992  30.637   8.691   4.467
43568W        W15993  31.676  37.015  11.588
43569W        W15994  33.551  13.257  14.273
43570W        W15995  12.435  16.504   2.664
43571W        W15996   5.750   5.903  11.182
43572W        W15997  43.974  28.640   2.351
43573W        W15998  35.996  20.321   4.301
43574W        W15999  34.821   7.169   1.328
43575W        W16000  13.744  11.079  12.570
43576W        W16001  23.626  33.166   3.305
43577W        W16002  31.164   1.248   4.080
43578W        W16003  24.686  43.005   1.409
43579W        W16004  32.783  25.142  12.585
43580W        W16005  10.373   2.895   0.537
43581W        W16006  17.740  37.068  12.035
43582W        W16007  30.934  25.979   3.633
43583W        W16008  35.081   1.456   2.374
43584W        W16009  33.019   4.314  12.419
43585W        W16010   5.376  36.278  11.509
43586W        W16011  32.024  42.078  12.937
43587W        W16012  10.797  39.943  14.083
43588W        W16013  11.456  21.647  11.081
43589W        W16014   3.086  27.868   0.453
43590W        W16015  40.769   7.901  12.434
43591W        W16016  15.121  40.258   0.948
43592W        W16017  40.372   2.218   4.517
43593W        W16018   7.620   1.447   1.866
43594W        W16019  16.725  27.605   0.913
43595W        W16020  20.649  23.283   3.040
43596W        W16021  31.997   7.815   1.826
43597W        W16022  15.045  28.041  14.506
43598W        W16023   3.108  38.896  12.124
43599W        W16024  37.382   6.458   3.022
43600W        W16025  43.910   4.867  11.191
43601W        W16026  28.359  37.600   4.345
43602W        W16027  14.959  32.992  11.192
43603W        W16028  26.703   1.389   4.610
43604W        W16029  37.389   6.592   4.099
43605W        W16030   1.625  22.560   0.107
43606W        W16031   0.911   0.360   2.650
43607W        W16032   7.006  43.355   0.913
43608W        W16033  18.763  37.473   4.786
43609W        W16034  14.775   9.305   4.875
43610W        W16035  27.045  43.373   2.452
43611W        W16036  25.206  28.144  13.424
43612W        W16037  20.601  34.617  14.089
43613W        W16038  39.026  35.456  13.088
43614W        W16039  38.995  39.760  11.219
43615W        W16040  41.984   6.387   1.844
43616W        W16041  41.469   4.894  13.555
43617W        W16042  38.616  27.159   2.522
43618W        W16043  18.515  26.869  13.999
43619W        W16044  17.525  21.201  14.300
43620W        W16045  31.147  29.533   2.205
43621W        W16046   8.633  16.565   0.850
43622W        W16047  16.124  32.423   9.813
43623W        W16048  21.786   3.972  11.630
43624W        W16049  24.145  33.486  11.094
43625W        W16050  17.296  24.730   2.217
43626W        W16051   8.607  26.586   5.237
43627W        W16052  15.815  20.806   3.155
43628W        W16053  43.274  30.723  13.870
43629W        W16054  32.089  34.939  10.569
43630W        W16055  35.540  15.512   3.676
43631W        W16056  26.707  26.589   3.570
43632W        W16057  14.730   6.458   2.835
43633W        W16058  43.275   6.191   2.649
43634W        W16059   6.322  23.255   2.302
43635W        W16060  37.912  24.561  12.522
43636W        W16061   9.813  33.527   2.860
43637W        W16062  28.598  34.997   2.563
43638W        W16063  43.739  31.388   4.197
43639W        W16064   0.874  36.794  13.489
43640W        W16065   4.956  15.204  13.203
43641W        W16066  11.104  25.716   3.332
43642W        W16067  33.635  39.939   3.280
43643W        W16068   8.157  24.677   1.699
43644W        W16069  12.890  34.235   3.446
43645W        W16070  21.731  42.936   3.725
43646W        W16071   5.630  13.225   4.929
43647W        W16072  12.228   8.429  13.296
43648W        W16073   3.686  12.128  11.549
43649W        W16074  40.038  30.870  13.467
43650W        W16075  20.602  40.859  13.520
43651W        W16076  42.526   4.605  11.063
43652W        W16077   1.405  27.205  12.120
43653W        W16078  37.042  24.178  13.934
43654W        W16079  11.549  35.896   1.577
43655W        W16080  44.850  41.941  13.102
43656W        W16081  29.115   6.391   4.590
43657W        W16082  23.053   3.700   3.646
43658W        W16083  18.668  37.558   2.116
43659W        W16084  33.812   9.760   4.294
43660W        W16085  40.047   7.787  11.033
43661W        W16086  12.541   2.377  14.060
43662W        W16087  30.625   1.817   2.256
43663W        W16088  37.921  44.727  14.530
43664W        W16089  44.973   6.840  11.161
43665W        W16090  13.586  19.246   4.240
43666W        W16091  37.412  11.273  10.348
43667W        W16092  19.249  42.554  13.573
43668W        W16093   7.275  10.769   2.804
43669W        W16094  37.519   7.455   2.269
43670W        W16095  27.421  14.227  11.659
43671W        W16096  44.872  33.463   4.612
43672W        W16097  10.393  31.513   4.214
43673W        W16098  20.598  37.978  11.324
43674W        W16099   0.871   6.161  13.317
43675W        W16100  26.991  24.462  13.237
43676W        W16101  34.565  34.584  14.457
43677W        W16102  31.657  35.550  13.551
43678W        W16103  42.908  17.009   2.122
43679W        W16104   5.149   2.390  11.945
43680W        W16105  40.872   4.247  11.609
43681W        W16106   9.319  13.090  12.413
43682W        W16107  43.025   4.328  12.122
43683W        W16108  44.494  16.876  13.238
43684W        W16109  20.134  13.751   4.085
43685W        W16110  11.708  43.667  14.705
43686W        W16111  15.289   9.907  14.898
43687W        W16112   2.470   0.478   4.474
43688W        W16113  40.582  14.778   4.202
43689W        W16114  38.539  15.745  12.112
43690W        W16115  33.015  43.173  11.692
43691W        W16116  42.282   3.717  11.182
43692W        W16117   8.299  10.425   4.319
43693W        W16118  11.267   1.399   3.559
43694W        W16119  23.427  10.888   1.370
43695W        W16120  30.187  15.945   4.942
43696W        W16121  32.682  10.194   1.736
43697W        W16122  32.408  39.591  11.552
43698W        W16123  27.742  19.760  12.978
43699W        W16124  35.560   5.162   3.685
43700W        W16125  21.983  25.206   2.755
43701W        W16126  18.336  39.387   1.325
43702W        W16127  28.644  31.567   2.219
43703W        W16128   9.874   8.512  10.924
43704W        W16129  16.165  11.261   2.545
43705W        W16130  24.877  38.437  13.336
43706W        W16131  23.115   2.389  11.853
43707W        W16132  32.238  19.420  12.516
43708W        W16133  38.607  40.477  14.282
43709W        W16134  11.213   5.206   0.973
43710W        W16135  26.471  25.035  14.336
43711W        W16136  31.453  32.658  11.995
43712W        W16137  23.468  24.122  10.998
43713W        W16138   2.361  42.006   2.955
43714W        W16139   9.278  26.797  13.463
43715W        W16140   0.847  21.283   1.933
43716W        W16141  36.935   3.208  14.436
43717W        W16142  12.390   5.384   0.444
43718W        W16143   0.759   1.934   2.492
43719W        W16144  23.472   0.982  14.308
43720W        W16145  28.114  40.021   2.633
43721W        W16146   0.263  26.199   4.563
43722W        W16147   8.918   9.780  12.676
43723W        W16148  16.607  25.779   1.773
43724W        W16149  44.362  39.815   3.442
43725W        W16150  10.286   9.079  14.743
43726W        W16151  41.105   5.772   0.419
43727W        W16152   9.468  18.488   4.661
43728W        W16153   0.490  13.109   1.131
43729W        W16154  18.531  23.427  11.854
43730W        W16155  38.540  14.916   3.509
43731W        W16156   7.311  35.983   4.958
43732W        W16157  36.901  33.135  10.697
43733W        W16158   0.682  32.231   0.542
43734W        W16159  11.558  28.281   3.553
43735W        W16160  25.571  31.053  11.401
43736W        W16161  39.796  34.926   3.181
43737W        W16162   0.657  40.026  12.973
43738W        W16163  11.551  44.416   4.972
43739W        W16164  15.821   0.728   2.373
43740W        W16165  26.907  11.015  13.380
43741W        W16166   4.379  16.549  12.158
43742W        W16167  34.914   0.331  11.954
43743W        W16168   3.449  38.403   2.638
43744W        W16169   0.299  44.256   1.339
43745W        W16170   8.636  15.053   3.778
43746W        W16171  41.543  15.746   1.386
43747W        W16172  44.225  10.003  12.616
43748W        W16173  14.475  23.531  14.839
43749W        W16174  41.322   0.864   0.016
43750W        W16175  13.726   8.843  12.199
43751W        W16176  18.342  34.055   3.356
43752W        W16177  13.155   7.145  13.991
43753W        W16178  31.119   6.828  13.483
43754W        W16179   8.110  13.408  13.844
43755W        W16180  24.142  43.384  13.379
43756W        W16181  27.230  31.599   3.730
43757W        W16182   7.446  27.374   1.395
43758W        W16183  18.804  36.942   0.002
43759W        W16184   4.993  35.100  10.524
43760W        W16185  10.626  40.002  11.567
43761W        W16186  27.577  19.065  11.670
43762W        W16187   2.886  13.303  10.675
43763W        W16188   0.295  33.146  13.996
43764W        W16189   3.709  16.625  14.435
43765W        W16190  19.846  19.032  14.994
43766W        W16191  14.625  28.979  14.445
43767W        W16192  37.911  12.611   0.425
43768W        W16193  10.066   8.744  13.800
43769W        W16194  13.172  17.354  10.970
43770W        W16195  33.982  22.555   2.378
43771W        W16196  18.651  13.167   4.310
43772W        W16197  30.939  31.636  13.108
43773W        W16198  30.430   4.908  10.628
43774W        W16199  35.815  31.420  13.309
43775W        W16200  30.051  43.882   2.821
43776W        W16201  34.612  20.565   2.738
43777W        W16202  33.498  10.388   3.691
43778W        W16203  29.695  34.559  14.051
43779W        W16204  34.338  22.805   0.324
43780W        W16205  11.720  27.634   2.060
43781W        W16206  44.442  33.490   9.785
43782W        W16207  42.875   2.865   4.715
43783W        W16208  43.784  14.731  12.862
43784W        W16209   8.284  25.762  14.063
43785W        W16210   6.513  36.877  14.401
43786W        W16211  24.656  38.543  11.032
43787W        W16212  41.227  29.592  11.664
43788W        W16213   4.657  44.783  13.546
43789W        W16214   0.303  11.846   1.737
43790W        W16215  39.629  40.984  11.154
43791W        W16216  41.897  37.936  12.047
43792W        W16217  24.973  10.278  10.583
43793W        W16218  32.754  29.945   2.838
43794W        W16219  19.802  29.474  14.779
43795W        W16220  32.145   3.028  11.964
43796W        W16221   2.207   2.656  10.943
43797W        W16222  40.542  16.019   2.710
43798W        W16223  28.092  21.553   1.906
43799W        W16224  37.338  37.976   4.575
43800W        W16225  37.923  41.348  13.844
43801W        W16226   7.984  30.464  14.593
43802W        W16227   7.121  33.377  14.669
43803W        W16228  20.471  12.137  10.644
43804W        W16229  24.006  20.717  11.504
43805W        W16230  23.436  24.787   1.585
43806W        W16231  40.342  36.377   3.744
43807W        W16232  10.866  40.367   0.172
43808W        W16233  28.795  37.814   4.579
43809W        W16234  33.613  31.623   2.737
43810W        W16235   4.108  34.693   4.544
43811W        W16236  44.300  13.674   2.769
43812W        W16237   5.978  24.045  12.958
43813W        W16238   3.653  11.671  11.160
43814W        W16239  39.827  10.633   0.074
43815W        W16240  39.488  15.186   0.034
43816W        W16241  19.799  43.433   2.771
43817W        W16242  15.779  39.782  14.993
43818W        W16243  21.074  17.590   3.024
43819W        W16244   8.313  35.282  11.154
43820W        W16245   0.398   2.761   2.739
43821W        W16246  42.106  33.458   3.284
43822W        W16247  16.745  22.837   1.293
43823W        W16248   0.005  20.982  14.996
43824W        W16249  40.392  37.389   2.688
43825W        W16250   9.958  19.553  13.391
43826W        W16251   5.198  37.352   9.924
43827W        W16252  13.017   2.335   2.482
43828W        W16253  30.427  30.497   2.420
43829W        W16254  12.647  28.510  14.136
43830W        W16255  32.804  17.939   4.037
43831W        W16256  23.145  26.480   3.991
43832W        W16257  22.044   6.595   2.215
43833W        W16258  29.787  40.043   1.839
43834W        W16259  41.348  42.589   0.001
43835W        W16260  26.053   6.800   4.178
43836W        W16261   4.378  11.584   3.286
43837W        W16262   1.761   9.455  11.169
43838W        W16263  19.506  17.799   1.303
43839W        W16264   8.823  23.507  12.408
43840W        W16265   0.292  10.818   2.775
43841W        W16266  11.571  33.499  10.245
43842W        W16267   1.617  34.922  14.201
43843W        W16268  36.172  20.373  14.743
43844W        W16269  26.603  43.027  10.451
43845W        W16270   4.266  18.174  14.348
43846W        W16271  15.084  15.317  11.207
43847W        W16272  18.613  37.664  13.556
43848W        W16273  31.482   9.392  12.004
43849W        W16274   6.935  32.899  14.848
43850W        W16275   6.387  13.095  11.587
43851W        W16276  24.067   4.060  13.240
43852W        W16277  37.813   2.722   2.683
43853W        W16278  35.294   3.158  10.438
43854W        W16279  38.492   8.948   0.319
43855W        W16280  44.947   7.992  11.126
43856W        W16281  39.902   0.087   0.396
43857W        W16282   7.251  25.698   3.738
43858W        W16283   3.265  28.193  12.458
43859W        W16284  33.924  31.484   1.454
43860W        W16285  28.049  41.403  13.909
43861W        W16286  16.369  24.350   2.140
43862W        W16287   5.356  16.565   0.301
43863W        W16288  36.754   6.189  12.092
43864W        W16289  27.539   8.625   1.770
43865W        W16290   0.482  34.160  12.989
43866W        W16291  34.653   0.107  12.336
43867W        W16292  43.765  25.536   4.444
43868W        W16293  14.712  44.685   4.610
43869W        W16294  11.206  34.460   2.192
43870W        W16295  34.551   9.240  10.293
43871W        W16296  32.140   5.917   1.474
43872W        W16297  37.074  35.463  11.069
43873W        W16298  21.882  24.185  11.715
43874W        W16299  23.023  27.536  10.599
43875W        W16300  12.725  32.182  11.336
43876W        W16301  40.400  12.106   3.636
43877W        W16302  18.636  38.293  12.011
43878W        W16303  32.580  37.986  11.636
43879W        W16304  44.718  28.107  14.530
43880W        W16305  24.277  34.431   0.777
43881W        W16306  25.578  15.699   3.309
43882W        W16307  29.022  30.943   3.745
43883W        W16308  21.666  41.907   1.175
43884W        W16309  14.755  28.059   5.129
43885W        W16310  21.976  39.437   2.110
43886W        W16311  42.507  25.692   2.238
43887W        W16312   3.032  39.502  12.455
43888W        W16313  24.194  33.188  10.214
43889W        W16314   4.232   4.890   2.941
43890W        W16315  44.982  14.887   1.178
43891W        W16316  26.447  38.568  11.135
43892W        W16317  14.347  13.105   4.043
43893W        W16318   6.927  21.074  10.725
43894W        W16319   1.762  38.243  11.108
43895W        W16320  39.813  13.878   3.722
43896W        W16321   1.676  16.426   2.391
43897W        W16322  14.164  16.106   3.354
43898W        W16323   7.817  28.335  13.292
43899W        W16324  17.144   2.299  10.598
43900W        W16325  34.940  43.034   3.379
43901W        W16326  26.420   8.222   3.222
43902W        W16327   7.198  12.739  11.719
43903W        W16328  43.999   0.951   2.913
43904W        W16329  18.829  34.468   2.715
43905W        W16330  27.242  17.177  10.876
43906W        W16331  10.234  16.553   4.644
43907W        W16332  25.506  24.370   4.651
43908W        W16333  22.670   7.414  12.721
43909W        W16334  42.857   7.736   4.587
43910W        W16335  13.726  35.439   4.595
43911W        W16336  14.254   7.729   2.866
43912W        W16337  13.090   8.187   2.755
43913W        W16338   9.869  38.646   4.689
43914W        W16339   3.189  12.862   4.578
43915W        W16340  21.663  35.591   1.367
43916W        W16341  28.694  17.959   2.127
43917W        W16342  24.861  16.135  12.025
43918W        W16343  11.723  43.542   3.001
43919W        W16344   0.947   0.026  13.842
43920W        W16345  14.374  11.849   3.740
43921W        W16346   1.860  17.881   0.331
43922W        W16347   7.797  26.416  10.928
43923W        W16348   7.928  26.452  13.418
43924W        W16349   5.070  40.250  14.191
43925W        W16350  11.362   7.899   1.742
43926W        W16351   7.316  20.432   0.439
43927W        W16352  31.064  23.410   3.738
43928W        W16353  35.037  10.209   2.213
43929W        W16354  21.739  41.746  10.838
43930W        W16355  18.631  23.738  14.814
43931W        W16356  29.672  11.783   5.202
43932W        W16357  37.881  16.181  14.317
43933W        W16358  42.554  38.313  13.475
43934W        W16359  17.255  26.133   2.921
43935W        W16360  25.196   6.670   0.297
43936W        W16361  36.926  25.724  12.958
43937W        W16362  17.008   5.319   0.379
43938W        W16363   6.330  12.995  12.823
43939W        W16364   1.719  24.758  11.476
43940W        W16365  12.677  39.847  14.860
43941W        W16366  35.494  10.125   3.908
43942W        W16367  38.952   2.275  11.128
43943W        W16368  37.586  27.798   2.745
43944W        W16369  14.341  13.206   0.959
43945W        W16370  23.195  29.169   0.892
43946W        W16371  33.460   4.362   4.616
43947W        W16372  31.132  14.293  10.721
43948W        W16373   9.071  42.041  11.395
43949W        W16374   0.867  24.698   1.257
43950W        W16375  29.657  35.600  13.383
43951W        W16376   6.223  28.752   2.375
43952W        W16377  33.738  13.912  12.173
43953W        W16378  13.099   5.901  11.603
43954W        W16379  24.260   7.211  12.181
43955W        W16380  31.078  28.135  13.589
43956W        W16381  28.749  35.798   3.330
43957W        W16382  44.240   1.824   4.819
43958W        W16383  19.315  13.632  13.805
43959W        W16384  20.127  39.287   4.892
43960W        W16385   2.375  12.191   3.724
43961W        W16386   6.388   6.340  12.437
43962W        W16387  25.960  26.551   4.664
43963W        W16388  30.150  10.930   3.968
43964W        W16389  16.745  15.182  12.229
43965W        W16390  17.229   9.270  11.914
43966W        W16391  43.827  24.065  13.830
43967W        W16392   5.627  21.612   3.851
43968W        W16393   2.206  17.043  11.133
43969W        W16394  39.074  18.794   4.207
43970W        W16395  15.669  27.689  12.975
43971W        W16396   7.335  21.048  13.268
43972W        W16397   0.344  41.264   3.744
43973W        W16398  17.026  38.098   3.189
43974W        W16399  27.493  19.482   1.374
43975W        W16400  18.786  23.078   4.352
43976W        W16401  17.210   9.216   2.352
43977W        W16402  40.343  40.298  13.597
43978W        W16403  11.228  26.629   0.054
43979W        W16404  11.307  28.223  13.586
43980W        W16405  12.338   8.846  13.627
43981W        W16406  39.340   8.942   2.811
43982W        W16407   5.781  31.836  12.406
43983W        W16408  26.330  13.750   1.840
43984W        W16409  43.995  21.215   1.183
43985W        W16410  40.550   8.028  11.445
43986W        W16411  12.321   1.688   1.371
43987W        W16412  37.344  16.518  12.070
43988W        W16413  39.846  44.480  11.606
43989W        W16414   0.664  19.753  12.037
43990W        W16415  12.419  20.093  13.966
43991W        W16416  35.965  10.718  10.706
43992W        W16417   0.195   0.343  13.546
43993W        W16418  11.718  21.547  13.847
43994W        W16419  43.900  42.522   3.735
43995W        W16420  26.042  41.078   4.943
43996W        W16421  32.942   7.602  10.897
43997W        W16422  19.097  24.557  13.339
43998W        W16423  16.695   6.914  14.338
43999W        W16424  42.268  22.632  11.938
44000W        W16425  19.780   7.228  11.539
44001W        W16426  40.925  11.791  12.376
44002W        W16427  19.269  40.475  14.777
44003W        W16428  28.772  21.534  14.048
44004W        W16429  36.093  36.430   1.185
44005W        W16430  38.102  20.696  14.802
44006W        W16431  11.156  30.959   3.070
44007W        W16432  43.437  29.949  14.217
44008W        W16433  20.760  39.126  12.752
44009W        W16434   7.352  12.302   1.418
44010W        W16435  25.219  29.073  10.650
44011W        W16436  37.662  12.589   3.775
44012W        W16437  18.622  44.937  14.184
44013W        W16438   3.826  29.172  12.099
44014W        W16439  37.545  39.010   3.165
44015W        W16440  30.061  32.059   4.364
44016W        W16441   8.522  17.067  12.503
44017W        W16442  40.606  23.463  11.963
44018W        W16443  38.910  40.914   4.502
44019W        W16444  26.521   6.785   4.956
44020W        W16445   8.158   4.034   3.336
44021W        W16446  44.847  28.506   4.545
44022W        W16447  31.677  21.730   1.779
44023W        W16448  16.252  21.642  12.625
44024W        W16449  17.267  42.253  13.474
44025W        W16450  24.629  31.919  13.482
44026W        W16451  10.929  25.883   2.867
44027W        W16452  16.551   3.859   0.369
44028W        W16453  23.027  38.564  13.411
44029W        W16454  25.046  21.535   0.353
44030W        W16455  22.222  15.096   4.175
44031W        W16456  13.929  20.013   3.982
44032W        W16457  26.936  34.319  14.756
44033W        W16458  32.466  32.329  12.893
44034W        W16459  35.234   3.834  14.422
44035W        W16460   0.863  36.534   1.517
44036W        W16461  37.520  41.563   0.063
44037W        W16462   7.683  40.482  13.476
44038W        W16463  25.157  20.017  13.975
44039W        W16464  22.852  27.889   1.149
44040W        W16465  25.993   2.789   1.876
44041W        W16466  13.336  35.833   0.393
44042W        W16467   9.709  10.791   0.941
44043W        W16468  42.952  34.921  13.926
44044W        W16469  41.413  23.751   3.649
44045W        W16470  36.621   3.976   0.763
44046W        W16471  36.834  24.148  12.981
44047W        W16472  27.638  35.319  13.835
44048W        W16473  12.183  41.872   2.406
44049W        W16474  18.477  44.000   0.780
44050W        W16475   5.208  27.156   0.273
44051W        W16476   1.783  41.399  13.548
44052W        W16477   5.667  44.378  12.570
44053W        W16478  14.115  21.236  14.595
44054W        W16479  43.573  20.267   0.911
44055W        W16480  40.286  30.152   2.802
44056W        W16481  44.904  25.045  13.813
44057W        W16482  35.596  17.246   5.088
44058W        W16483  24.813  37.461   2.799
44059W        W16484  27.670  40.900  10.729
44060W        W16485  26.691   7.272   0.873
44061W        W16486  39.027  16.267   0.848
44062W        W16487  13.414  15.629  13.776
44063W        W16488  29.881  13.726  10.622
44064W        W16489  18.702  33.015  14.040
44065W        W16490  31.416   6.722  11.646
44066W        W16491  33.615  31.100  11.059
44067W        W16492  39.346   8.425   2.859
44068W        W16493  18.320  43.231  13.398
44069W        W16494  41.874  15.875  14.246
44070W        W16495  17.765  34.375  14.766
44071W        W16496  29.716   7.835   1.220
44072W        W16497  42.026  21.771  12.984
44073W        W16498  39.527   7.255  12.104
44074W        W16499   8.241  36.174   4.357
44075W        W16500  25.751  34.560   1.319
44076W        W16501  33.409  25.142  13.022
44077W        W16502   5.404  13.691  14.487
44078W        W16503  17.812  10.723  10.832
44079W        W16504   5.909   7.925  13.003
44080W        W16505   2.311  27.958  11.266
44081W        W16506  42.853  17.491   0.909
44082W        W16507  13.162  34.913  13.599
44083W        W16508  37.020  11.738  10.500
44084W        W16509  32.654  26.750  11.112
44085W        W16510  21.453  33.337  13.487
44086W        W16511  30.218   2.400   4.475
44087W        W16512  10.389  33.391  13.728
44088W        W16513  16.344  23.941  14.355
44089W        W16514  12.115  13.053   2.655
44090W        W16515  15.657  32.481   1.327
44091W        W16516  44.287  19.187  10.653
44092W        W16517  14.113  41.601  11.992
44093W        W16518   4.405  20.753   1.160
44094W        W16519  35.304  35.379   3.223
44095W        W16520  44.076  17.365   0.402
44096W        W16521  17.620  18.857   3.939
44097W        W16522  31.963  10.879   4.155
44098W        W16523  38.019  44.366   0.471
44099W        W16524  24.524  28.692   1.121
44100W        W16525  37.497  39.010   2.645
44101W        W16526  25.484   4.852  12.630
44102W        W16527  36.680  26.649  14.584
44103W        W16528  15.964  16.702   4.652
44104W        W16529  41.408   9.879  13.439
44105W        W16530   5.973   0.026  12.965
44106W        W16531  20.745  44.276   3.943
44107W        W16532  21.631   2.394   1.241
44108W        W16533   1.889  32.668   0.887
44109W        W16534  12.918  41.987   2.788
44110W        W16535  19.638  19.633  12.940
44111W        W16536  16.769  12.089  13.968
44112W        W16537  14.962   5.469  12.599
44113W        W16538   3.995  29.661  11.986
44114W        W16539  16.707   2.479  10.847
44115W        W16540  27.773  36.716   2.616
44116W        W16541  17.744  32.138   2.748
44117W        W16542   6.353  16.567  14.250
44118W        W16543   9.237   9.095   2.319
44119W        W16544  26.011  10.247  10.474
44120W        W16545  32.878  17.969   0.220
44121W        W16546  31.548  33.017  13.313
44122W        W16547  17.131  24.981   4.152
44123W        W16548  39.245  26.399   2.701
44124W        W16549  12.420   7.864  13.877
44125W        W16550   1.355  14.801   3.908
44126W        W16551  33.383   9.774   1.289
44127W        W16552   8.075  19.040  14.285
44128W        W16553   1.169  24.387  12.055
44129W        W16554  31.527  43.032   2.423
44130W        W16555   0.876  43.012  14.031
44131W        W16556   8.444   9.742   0.475
44132W        W16557  40.884  11.864   2.374
44133W        W16558  18.797  12.030   0.311
44134W        W16559  37.791  30.629   2.548
44135W        W16560  12.283  12.688   1.878
44136W        W16561   7.197   2.917   3.616
44137W        W16562   2.346  34.021  11.526
44138W        W16563  39.309  18.033   1.478
44139W        W16564  15.039  14.667   2.389
44140W        W16565  34.521  36.481   2.336
44141W        W16566  20.536  40.219  13.578
44142W        W16567   2.152  14.708   1.340
44143W        W16568  32.860  21.601  14.497
44144W        W16569  25.209   0.730   5.033
44145W        W16570  30.855   2.220  11.927
44146W        W16571   3.506  27.734  11.671
44147W        W16572  35.360   8.896   3.216
44148W        W16573  38.731   5.206   3.667
44149W        W16574  31.823  18.623   3.624
44150W        W16575  44.991   4.860   0.905
44151W        W16576  42.490  17.836  12.614
44152W        W16577   9.315  19.808  11.644
44153W        W16578  22.953  25.883  14.882
44154W        W16579  12.092  36.559  11.126
44155W        W16580  21.564  18.499   3.189
44156W        W16581   5.772  26.009  11.920
44157W        W16582  13.357  11.306  13.376
44158W        W16583  13.323  22.386   5.439
44159W        W16584   9.613  44.169   0.475
44160W        W16585  10.887  38.873  14.328
44161W        W16586  12.366  33.470   3.699
44162W        W16587   4.394  16.525   3.741
44163W        W16588  22.678  39.559   4.886
44164W        W16589   1.422  37.872   2.197
44165W        W16590  23.159   0.185   1.810
44166W        W16591   6.136  31.455  12.298
44167W        W16592  39.551  28.916  11.113
44168W        W16593   1.505   6.283   3.798
44169W        W16594  10.372   2.878   3.502
44170W        W16595  28.956  19.621  12.649
44171W        W16596  42.749  30.118   3.254
44172W        W16597  29.902  24.601  10.418
44173W        W16598  13.062  20.928   1.212
44174W        W16599  16.000  11.337   1.536
44175W        W16600   7.354  42.891   3.800
44176W        W16601  26.944  21.104   3.117
44177W        W16602   4.955  11.091   3.573
44178W        W16603  17.025   3.375   4.732
44179W        W16604  18.778  35.753  13.319
44180W        W16605  16.143  28.971   4.153
44181W        W16606   6.738  35.130  11.093
44182W        W16607   7.978   5.029  14.511
44183W        W16608  40.795  15.565   4.553
44184W        W16609  35.969  21.374   0.045
44185W        W16610   2.696   2.869  11.016
44186W        W16611  23.093  15.698  14.288
44187W        W16612  25.208  35.821  14.929
44188W        W16613   6.836  12.867  13.039
44189W        W16614  29.025  14.269  13.801
44190W        W16615  12.344  28.509  10.749
44191W        W16616  16.802  39.048   1.860
44192W        W16617  27.246   5.131  14.416
44193W        W16618   2.282  14.806   3.176
44194W        W16619  28.341  12.769   3.095
44195W        W16620  34.306  19.234   2.255
44196W        W16621  22.071  12.655  12.401
44197W        W16622   8.794  42.427  10.835
44198W        W16623  29.622  29.628   4.603
44199W        W16624  11.272  12.002  14.965
44200W        W16625  41.251  40.272   2.683
44201W        W16626  39.858   1.983   0.767
44202W        W16627  40.858  20.359   1.277
44203W        W16628  35.493  11.283  13.710
44204W        W16629   2.419  21.855   3.720
44205W        W16630  24.030   9.611  14.532
44206W        W16631  28.614  39.106   3.328
44207W        W16632  37.416  26.235   1.414
44208W        W16633  44.790  13.837   2.821
44209W        W16634  21.485  24.330   4.135
44210W        W16635  35.091  24.167  10.224
44211W        W16636  31.939  12.049  13.055
44212W        W16637  28.340  34.437   3.595
44213W        W16638  43.111   3.922   0.878
44214W        W16639  43.911   6.826  13.099
44215W        W16640  33.802   9.179  14.928
44216W        W16641  37.710  27.055   4.819
44217W        W16642   1.883   7.160  13.858
44218W        W16643  31.489  33.168  12.820
44219W        W16644  30.533  29.511   4.680
44220W        W16645  43.327  44.836  12.350
44221W        W16646  41.417   2.975   0.920
44222W        W16647  35.806  38.439   2.721
44223W        W16648  42.813  41.429  13.005
44224W        W16649  11.193  18.359  10.909
44225W        W16650  16.727  35.602  11.876
44226W        W16651  25.213   2.222  10.639
44227W        W16652  31.656  26.978   2.503
44228W        W16653  33.658  23.407   2.120
44229W        W16654  38.828  34.279  13.419
44230W        W16655  15.543  44.570  12.434
44231W        W16656   4.390  20.860  13.895
44232W        W16657   2.669  16.145   2.223
44233W        W16658  19.117  33.396  11.184
44234W        W16659  23.532  21.704  11.354
44235W        W16660   5.592   8.192  13.925
44236W        W16661   9.118  20.789  14.416
44237W        W16662  13.726  29.515  11.645
44238W        W16663  22.074  34.236   1.771
44239W        W16664   9.401  33.390   2.537
44240W        W16665   9.331  24.013   1.287
44241W        W16666  36.297  26.635  14.183
44242W        W16667  43.176  41.934  12.575
44243W        W16668  10.215  24.295   2.723
44244W        W16669  41.400  15.578   4.469
44245W        W16670  26.878  26.746   5.080
44246W        W16671  11.864  36.992  12.067
44247W        W16672  12.109  37.056   4.273
44248W        W16673  29.144  34.923  10.866
44249W        W16674  14.574  15.773  10.486
44250W        W16675  12.257  43.578   3.269
44251W        W16676  30.508  44.436  13.372
44252W        W16677   0.426   2.338   2.426
44253W        W16678  18.668  24.544  13.045
44254W        W16679  27.704  25.576   4.081
44255W        W16680  24.010  16.536   1.285
44256W        W16681  10.019   6.725  14.999
44257W        W16682   0.388  23.461   2.439
44258W        W16683  11.210   3.253  11.621
44259W        W16684  39.231  22.362  14.368
44260W        W16685  18.889  38.972  13.544
44261W        W16686  18.157  22.941   0.797
44262W        W16687  29.272  26.473  14.970
44263W        W16688  18.047  23.730  11.162
44264W        W16689  17.796  19.202  11.101
44265W        W16690  22.102  24.767  12.851
44266W        W16691  11.801  44.533  14.488
44267W        W16692  28.204  42.800   5.110
44268W        W16693  24.522  30.048   1.924
44269W        W16694  31.169  34.499  11.464
44270W        W16695  11.161  30.427  10.982
44271W        W16696  36.625  43.909  13.872
44272W        W16697  37.877   2.459   0.226
44273W        W16698  22.112  14.615   4.048
44274W        W16699   9.669  24.015   4.580
44275W        W16700  36.916   8.079   4.362
44276W        W16701  38.430   3.421   4.517
44277W        W16702   5.368   2.272  13.317
44278W        W16703  40.059   5.206  13.315
44279W        W16704  19.567  39.864   3.578
44280W        W16705  36.115   4.968   1.657
44281W        W16706   6.397   0.846  11.550
44282W        W16707   0.560  25.290  14.913
44283W        W16708   4.242  25.120   3.797
44284W        W16709  21.036   8.158  14.843
44285W        W16710   0.408  33.417  12.110
44286W        W16711   8.603  23.524  13.841
44287W        W16712  20.209  13.323   3.112
44288W        W16713   9.665  18.905  11.405
44289W        W16714  10.832  10.287  12.548
44290W        W16715  21.159   3.327   1.258
44291W        W16716  35.469  35.032   3.579
44292W        W16717  18.212  41.007   3.739
44293W        W16718  10.598   2.204   1.064
44294W        W16719   0.230  26.766   3.683
44295W        W16720  44.004  10.622  13.414
44296W        W16721  16.583  24.901  11.035
44297W        W16722  14.548  12.092   2.548
44298W        W16723  25.048  19.579   2.069
44299W        W16724  23.428  43.502  11.545
44300W        W16725   9.827  44.481   1.820
44301W        W16726  37.107  10.654  11.398
44302W        W16727   3.779  10.341  11.386
44303W        W16728   7.371  38.032   1.209
44304W        W16729  19.574  41.793   1.365
44305W        W16730   9.335  10.213   3.598
44306W        W16731  41.757  25.699  13.988
44307W        W16732  38.834  11.753   1.273
44308W        W16733  32.570   7.675  13.242
44309W        W16734  20.548  41.383   3.730
44310W        W16735  44.851  10.277  11.556
44311W        W16736  43.298  39.149   1.984
44312W        W16737  37.112   7.323  12.880
44313W        W16738  29.675   1.565   2.073
44314W        W16739  33.386  39.178  14.788
44315W        W16740  17.460  19.590  11.260
44316W        W16741  28.136  41.207  10.693
44317W        W16742  19.603  22.654   0.790
44318W        W16743  23.149  20.305   0.383
44319W        W16744   5.494   2.388  13.824
44320W        W16745  28.924  24.138  11.635
44321W        W16746  37.752  15.017  12.882
44322W        W16747  10.163  37.912   1.554
44323W        W16748  36.498  17.794   2.354
44324W        W16749  34.033   8.658  10.632
44325W        W16750   7.117  10.362  11.493
44326W        W16751  34.009  13.347  14.033
44327W        W16752  41.093   6.224  13.886
44328W        W16753  21.830  38.436   2.752
44329W        W16754  19.142  30.541   0.709
44330W        W16755   2.760  44.825  13.082
44331W        W16756  37.988   1.778  13.377
44332W        W16757  43.892   7.782  14.581
44333W        W16758   9.396  24.325  14.250
44334W        W16759   1.942   6.946   4.558
44335W        W16760  27.381  44.353   1.048
44336W        W16761  27.258  42.324   4.841
44337W        W16762  26.049  22.036  13.434
44338W        W16763  16.684  25.230   4.231
44339W        W16764  42.299  20.081  12.063
44340W        W16765  41.423  34.976   0.943
44341W        W16766   0.309  26.708   1.180
44342W        W16767  12.244   4.691  14.429
44343W        W16768  27.043  10.008  13.468
44344W        W16769  20.351  43.378  13.378
44345W        W16770  16.846  40.074   4.262
44346W        W16771  20.069  22.173   4.163
44347W        W16772   7.747   8.880   1.312
44348W        W16773  29.168   4.627   3.217
44349W        W16774  21.595  21.097  12.088
44350W        W16775  17.113  44.442   3.703
44351W        W16776   6.315   8.667  10.504
44352W        W16777  38.821  35.336   0.298
44353W        W16778   9.833  14.061   2.130
44354W        W16779  25.970  22.084   1.392
44355W        W16780  33.472  44.314   1.460
44356W        W16781  12.592  36.871  10.999
44357W        W16782   6.652   1.237   1.754
44358W        W16783  27.529  43.185  12.175
44359W        W16784   6.295   4.712  14.558
44360W        W16785  14.810  43.669   4.502
44361W        W16786  20.411  25.568   3.224
44362W        W16787  15.090   3.898   3.250
44363W        W16788  18.090  32.965   2.924
44364W        W16789   7.485  35.544  13.793
44365W        W16790   7.896  31.068  10.485
44366W        W16791  37.896  42.884  14.536
44367W        W16792  43.634  28.957   4.180
44368W        W16793   1.338  44.798  14.981
44369W        W16794  14.595   5.227   5.061
44370W        W16795   7.643   5.280   0.296
44371W        W16796   4.778  39.884  10.101
44372W        W16797   9.753  42.404   4.103
44373W        W16798  31.090  44.299   2.222
44374W        W16799  38.323  24.518  13.571
44375W        W16800  14.611  26.098  14.250
44376W        W16801  42.984  35.874  12.449
44377W        W16802  11.393  14.141   4.167
44378W        W16803  42.525  22.089   1.047
44379W        W16804   5.988   6.164  14.777
44380W        W16805  41.292   2.225  10.645
44381W        W16806   2.844  17.997   3.504
44382W        W16807  11.860  15.672  13.902
44383W        W16808  27.028   5.168  12.589
44384W        W16809   5.313  11.280   1.366
44385W        W16810  32.963   3.839  12.643
44386W        W16811  13.309  18.616   9.971
44387W        W16812  42.601  30.661  11.159
44388W        W16813  12.351   2.299   3.210
44389W        W16814   5.470  44.812   0.844
44390W        W16815  14.915  16.031   4.207
44391W        W16816   5.711  17.770   4.118
44392W        W16817  15.948   1.292  13.719
44393W        W16818  12.261  35.765  11.305
44394W        W16819  31.659  26.396   3.934
44395W        W16820   5.398  42.041  11.532
44396W        W16821   7.562  28.079   3.659
44397W        W16822  35.058  19.112   2.147
44398W        W16823  31.061  10.685   0.408
44399W        W16824   6.906   0.721   0.306
44400W        W16825  32.591  19.865   2.283
44401W        W16826  19.324  27.546   4.796
44402W        W16827  35.656  20.501   1.825
44403W        W16828  12.153   5.798  14.379
44404W        W16829  31.992  22.004   0.002
44405W        W16830   7.653  32.733   2.184
44406W        W16831  42.181  24.964   3.910
44407W        W16832  14.852  29.494   4.095
44408W        W16833  40.277  10.409  14.783
44409W        W16834  18.790  43.701  14.069
44410W        W16835  27.627  26.213  12.237
44411W        W16836   9.312  14.260   3.519
44412W        W16837  39.926  40.527   4.504
44413W        W16838  43.967  29.000   0.082
44414W        W16839  13.049  14.950  12.501
44415W        W16840  41.592  17.881   2.845
44416W        W16841   0.481  34.206   4.739
44417W        W16842  23.256  14.597  14.309
44418W        W16843  43.255  40.439   4.636
44419W        W16844   3.181  29.259   2.052
44420W        W16845   0.858   4.033   0.380
44421W        W16846  12.811  31.220  12.956
44422W        W16847  43.576  19.966  14.158
44423W        W16848  27.111   5.924  13.069
44424W        W16849  39.406   3.303   1.931
44425W        W16850  36.877   2.316   1.704
44426W        W16851   2.647  15.943   1.185
44427W        W16852  35.203  10.282  14.065
44428W        W16853  13.896  19.706  13.472
44429W        W16854  18.932  23.590  11.266
44430W        W16855  17.038   2.787  13.870
44431W        W16856  40.838  44.843   3.254
44432W        W16857  29.841  10.242   2.251
44433W        W16858  30.000   6.358  13.903
44434W        W16859  27.543  12.249  14.125
44435W        W16860  41.536  32.298   4.473
44436W        W16861   8.372  42.578  13.196
44437W        W16862  38.326  18.592  10.389
44438W        W16863   1.797   4.702  13.028
44439W        W16864   0.494  37.293   1.823
44440W        W16865   7.244  30.452   0.240
44441W        W16866  23.663  26.203   4.641
44442W        W16867  40.115  15.650  14.363
44443W        W16868  18.284  28.475   0.141
44444W        W16869   2.347  14.808  14.975
44445W        W16870  44.496  42.575   2.224
44446W        W16871   1.450   7.167  14.599
44447W        W16872  36.001  12.360   1.356
44448W        W16873   7.188  23.024   4.346
44449W        W16874   8.408  41.879   1.888
44450W        W16875  21.992  34.722   1.644
44451W        W16876  19.512  11.032  12.969
44452W        W16877  19.771  40.562   3.285
44453W        W16878  37.375  32.379  11.110
44454W        W16879   1.086  41.756  13.319
44455W        W16880  44.733  32.543   0.475
44456W        W16881  26.228  37.962  11.155
44457W        W16882   9.682  11.080  14.692
44458W        W16883  17.164  29.290   2.919
44459W        W16884  10.848  40.841   3.828
44460W        W16885  28.660  27.022   2.765
44461W        W16886  40.043  17.547   4.079
44462W        W16887  19.656  28.608   3.681
44463W        W16888   1.979  22.256  12.782
44464W        W16889  22.601  29.345   1.844
44465W        W16890  35.851  44.782   3.379
44466W        W16891  14.600   3.276   2.882
44467W        W16892  30.626  29.113  10.177
44468W        W16893  29.924  43.846   0.298
44469W        W16894  12.567   9.179   4.172
44470W        W16895  11.711  10.250  11.590
44471W        W16896  24.511  18.209  12.914
44472W        W16897  35.089  41.588   1.592
44473W        W16898   5.273   7.773   3.150
44474W        W16899   2.737  30.011   1.290
44475W        W16900  35.233   0.880  12.862
44476W        W16901  21.834  17.529   3.204
44477W        W16902  22.021  34.477   0.251
44478W        W16903  42.445  30.040   0.093
44479W        W16904  22.584   1.405  14.627
44480W        W16905   8.912   3.967  14.034
44481W        W16906   7.190  24.958  14.481
44482W        W16907  21.195  35.363   1.279
44483W        W16908  34.043  36.947   4.592
44484W        W16909  29.958   7.402   0.558
44485W        W16910  30.756  37.018   1.346
44486W        W16911   3.939  43.838   3.590
44487W        W16912  18.790  12.858  13.385
44488W        W16913  13.709  15.577   4.337
44489W        W16914  43.910   4.848   1.336
44490W        W16915  27.673  31.375   3.987
44491W        W16916  13.886  26.710   2.820
44492W        W16917   3.592  30.614   2.283
44493W        W16918  24.507  42.481   1.883
44494W        W16919  13.792  42.794  12.962
44495W        W16920  27.629  22.470  14.900
44496W        W16921   6.260  40.458  10.059
44497W        W16922  16.241   3.276   1.995
44498W        W16923   3.225  28.613  12.163
44499W        W16924  38.899  22.439  11.574
44500W        W16925  42.817   7.355  10.905
44501W        W16926  27.720  22.056  10.175
44502W        W16927  29.639  33.933   0.768
44503W        W16928  34.060  18.271  11.818
44504W        W16929  20.050  21.037   1.863
44505W        W16930  25.231  42.597   3.094
44506W        W16931  19.682  24.498   4.293
44507W        W16932   6.305  10.616  14.612
44508W        W16933   9.077  16.294   0.799
44509W        W16934  13.864  27.136  11.520
44510W        W16935  30.624   5.889   1.226
44511W        W16936  18.015  37.880   0.532
44512W        W16937   7.899  41.295  12.989
44513W        W16938  11.105  27.466   1.334
44514W        W16939   5.342  17.392  14.855
44515W        W16940  24.768  14.637   0.323
44516W        W16941  23.350   2.013  13.507
44517W        W16942  16.160  33.050  14.074
44518W        W16943  15.407   3.266   9.697
44519W        W16944  22.554  33.296  14.304
44520W        W16945  32.528  11.715  11.198
44521W        W16946  22.730  40.266  13.910
44522W        W16947  39.202  30.455  12.538
44523W        W16948   4.104   7.856   3.924
44524W        W16949  41.892   5.439   1.415
44525W        W16950  26.673  25.480   3.241
44526W        W16951   5.909  24.193  11.621
44527W        W16952   9.897   5.688   2.779
44528W        W16953  17.127  33.419  11.679
44529W        W16954  20.099   5.631   0.400
44530W        W16955   2.757  33.529   0.265
44531W        W16956  33.076  34.438  11.190
44532W        W16957   0.489  34.913  11.899
44533W        W16958  14.785  28.203  14.090
44534W        W16959  42.239  28.666   4.567
44535W        W16960  13.748  23.768  13.105
44536W        W16961  13.092  26.382   1.717
44537W        W16962  19.848  28.224   2.258
44538W        W16963  41.595  19.678   1.839
44539W        W16964  36.007  11.345  11.732
44540W        W16965   8.751  38.610  14.892
44541W        W16966   4.796  36.540  14.351
44542W        W16967  42.864  16.294   3.928
44543W        W16968  35.895  13.157   1.969
44544W        W16969   0.021  32.691  10.709
44545W        W16970  44.971  20.293   2.128
44546W        W16971  23.953  39.647  11.879
44547W        W16972  39.878  38.592  11.935
44548W        W16973  10.736   8.755  14.468
44549W        W16974  17.646   2.337   0.957
44550W        W16975  31.044  37.514   4.178
44551W        W16976  16.078  21.499   4.483
44552W        W16977   7.246  43.774   2.244
44553W        W16978  11.628  14.819   4.671
44554W        W16979   6.108  35.617  13.536
44555W        W16980  29.708  15.621  13.436
44556W        W16981  15.214   4.911  11.477
44557W        W16982   3.594  42.529   1.211
44558W        W16983  33.965  35.986   2.447
44559W        W16984  37.081  42.740   4.266
44560W        W16985  13.597  36.541   3.266
44561W        W16986  22.566  25.198  13.639
44562W        W16987  22.307  10.805  12.352
44563W        W16988  31.422  44.255  10.699
44564W        W16989  16.103  15.542  11.500
44565W        W16990  30.958  18.276  14.427
44566W        W16991  12.602  20.453   4.131
44567W        W16992  39.977  10.125   3.175
44568W        W16993  43.887   3.843  13.841
44569W        W16994  10.775  11.005  10.536
44570W        W16995  15.691  13.168   1.433
44571W        W16996  11.009   4.832  11.089
44572W        W16997   7.271   9.491   4.529
44573W        W16998  29.647  17.886  10.820
44574W        W16999   6.645  31.536   1.269
44575W        W17000  43.815  13.459   2.665
44576W        W17001  15.867   5.190   1.402
44577W        W17002   7.609  15.553  12.413
44578W        W17003  43.338  39.575  10.990
44579W        W17004  24.988  28.387  11.828
44580W        W17005  25.578  25.079   0.961
44581W        W17006  21.014  16.699   5.159
44582W        W17007  39.833   9.543  12.371
44583W        W17008  24.656   5.683   3.815
44584W        W17009  28.583  41.540  14.428
44585W        W17010  30.502  18.231   3.237
44586W        W17011  34.367  17.545   4.300
44587W        W17012  44.349   5.490  10.765
44588W        W17013  27.701  30.926  10.775
44589W        W17014  44.940   3.203  14.912
44590W        W17015  39.537  13.641  13.269
44591W        W17016  22.218   5.756  10.707
44592W        W17017  28.613  15.722   2.119
44593W        W17018  23.613  12.294   3.238
44594W        W17019  20.792  32.035   3.794
44595W        W17020  13.521   3.209  10.327
44596W        W17021  11.133  32.152   4.874
44597W        W17022   3.564  22.566   1.809
44598W        W17023  24.034  20.239   0.495
44599W        W17024  12.712  44.640  11.536
44600W        W17025  24.166  41.782   1.327
44601W        W17026  19.705  24.925   3.197
44602W        W17027  34.246  28.329  13.984
44603W        W17028  43.164   7.162   2.318
44604W        W17029   3.940  39.041  12.898
44605W        W17030  13.469   9.767  13.574
44606W        W17031   2.120  26.368   3.818
44607W        W17032  40.724  12.181  14.319
44608W        W17033  23.432  24.066   2.387
44609W        W17034   4.481  31.679   1.151
44610W        W17035  37.602  15.331   3.278
44611W        W17036  11.706  22.020   4.818
44612W        W17037  40.871  40.557   3.852
44613W        W17038  30.749  42.541  11.020
44614W        W17039  36.539  44.316  14.347
44615W        W17040  15.905  44.563  11.550
44616W        W17041  23.940  39.440  12.726
44617W        W17042  43.751  33.097   4.618
44618W        W17043  16.584  13.070   1.467
44619W        W17044  43.258   5.521  12.586
44620W        W17045  14.251  25.845   5.046
44621W        W17046   8.905  20.745  14.896
44622W        W17047  20.173   3.273  14.717
44623W        W17048  11.886   1.780  12.178
44624W        W17049  29.945  12.632  13.998
44625W        W17050   6.296  42.018  13.474
44626W        W17051  29.523  15.607   2.859
44627W        W17052  38.833  13.669   1.614
44628W        W17053  39.123  14.876   2.177
44629W        W17054  33.566   6.400   1.414
44630W        W17055  43.968  40.249   1.250
44631W        W17056  37.791  17.844  10.720
44632W        W17057  20.041   2.545   2.819
44633W        W17058  43.071  40.891   3.745
44634W        W17059  41.777  36.238   1.226
44635W        W17060  24.342  20.002   3.768
44636W        W17061  29.310   6.732  12.952
44637W        W17062  40.418  27.709  14.852
44638W        W17063   2.707  34.919  11.609
44639W        W17064  40.852  36.392   4.579
44640W        W17065   8.446  28.118   3.332
44641W        W17066  43.793   4.328  14.637
44642W        W17067  24.995  13.858  12.505
44643W        W17068  37.406  16.060   2.310
44644W        W17069  15.108   9.088   0.330
44645W        W17070  43.782  12.961   2.791
44646W        W17071   3.073  43.834  11.377
44647W        W17072  11.629  28.077   1.235
44648W        W17073   1.836   1.877   0.970
44649W        W17074  26.890  15.269   3.720
44650W        W17075  34.926  12.838  13.709
44651W        W17076  39.785  33.870   1.391
44652W        W17077  42.119   0.301   1.714
44653W        W17078  41.888  39.629   0.833
44654W        W17079   4.484  15.182   2.532
44655W        W17080  16.110  14.075  12.603
44656W        W17081  17.843  41.467  11.676
44657W        W17082  18.341   8.618   3.895
44658W        W17083  24.668   6.909   2.639
44659W        W17084   3.211  25.649   1.995
44660W        W17085  13.847  28.230  13.253
44661W        W17086  42.464  30.880   4.523
44662W        W17087  16.658  15.670   3.083
44663W        W17088  42.310   0.241   4.684
44664W        W17089  20.076   3.262   2.259
44665W        W17090  20.003  10.283  10.613
44666W        W17091  32.427  41.897   2.286
44667W        W17092  11.186  41.412   3.423
44668W        W17093  40.350   1.881  13.442
44669W        W17094   3.511  31.585  13.542
44670W        W17095  26.429   3.007   1.670
44671W        W17096   8.416   2.297   4.607
44672W        W17097  30.724  38.506  14.266
44673W        W17098  25.592  37.494   0.282
44674W        W17099  39.076  21.762  13.417
44675W        W17100  39.541  15.357  12.524
44676W        W17101  24.215  20.245  10.630
44677W        W17102  20.568  35.416  14.729
44678W        W17103   0.911   4.330   4.598
44679W        W17104   6.692  12.705   2.208
44680W        W17105  21.024  37.049   0.063
44681W        W17106  36.621  15.635   4.006
44682W        W17107  22.234  19.974   3.151
44683W        W17108  27.722  35.695  12.535
44684W        W17109  17.371  37.510   4.266
44685W        W17110  30.590  40.898   5.696
44686W        W17111  12.162  32.920   4.585
44687W        W17112   0.966  39.845   1.812
44688W        W17113  16.260  35.097  13.894
44689W        W17114  19.539  13.137  13.974
44690W        W17115  18.706  17.742   2.700
44691W        W17116  36.164  38.920  11.682
44692W        W17117   0.708  22.201   3.643
44693W        W17118   7.690  40.267   1.920
44694W        W17119  36.630  31.894  14.358
44695W        W17120  21.255   4.886   4.928
44696W        W17121  13.237   5.369   2.820
44697W        W17122   4.877   4.803   3.629
44698W        W17123  41.500  23.184  10.747
44699W        W17124   0.648  38.874   4.000
44700W        W17125   4.830  12.064   1.390
44701W        W17126   5.629  37.238  12.672
44702W        W17127  20.666  31.417  14.390
44703W        W17128  11.708  10.866  10.924
44704W        W17129  39.349  14.792   1.295
44705W        W17130  44.352  17.147   3.753
44706W        W17131   8.170  29.229   1.004
44707W        W17132  29.196  36.500   0.378
44708W        W17133  22.996  11.333   2.725
44709W        W17134  42.594   4.761   3.678
44710W        W17135   8.105  12.961   1.684
44711W        W17136  13.164  10.744   3.121
44712W        W17137  42.273  24.626  14.342
44713W        W17138  36.176  31.702   4.306
44714W        W17139   6.537  33.509   1.757
44715W        W17140  12.626  12.423  11.416
44716W        W17141  16.782  19.127  14.404
44717W        W17142  44.928   6.933  12.908
44718W        W17143  43.270  36.398   2.708
44719W        W17144  19.778   5.000  11.032
44720W        W17145   9.006   8.170   3.745
44721W        W17146  27.316  11.354  13.397
44722W        W17147  10.690   5.738  13.875
44723W        W17148  38.540  18.718  13.027
44724W        W17149  23.993  22.978  13.928
44725W        W17150  15.539  38.497   1.037
44726W        W17151  40.632  30.801  10.678
44727W        W17152  29.479  25.315  11.002
44728W        W17153  19.342  18.050   3.116
44729W        W17154  17.366  32.142  11.621
44730W        W17155  23.572  42.397  10.594
44731W        W17156   2.673   4.451  12.507
44732W        W17157  20.410  29.943  14.573
44733W        W17158  21.968  17.538  14.269
44734W        W17159  25.764  37.462   1.090
44735W        W17160  25.370   7.121   1.253
44736W        W17161  17.645  35.807   1.139
44737W        W17162  13.672  12.358  13.896
44738W        W17163  39.402  21.781   2.368
44739W        W17164  18.397  20.234   3.715
44740W        W17165   4.298   9.694  10.617
44741W        W17166  42.543  30.555   0.884
44742W        W17167  39.455  31.539  13.507
44743W        W17168  36.095  36.939   2.014
44744W        W17169   9.012  20.088   4.530
44745W        W17170  15.155  26.609   1.892
44746W        W17171  38.024  44.442   4.557
44747W        W17172   1.929  39.441   1.738
44748W        W17173  28.263   4.494   2.240
44749W        W17174  10.314  14.045   2.916
44750W        W17175  23.219   5.040   0.882
44751W        W17176  26.942  30.311   3.841
44752W        W17177  11.004  14.842   0.339
44753W        W17178  43.530  22.500   4.577
44754W        W17179   8.682  35.451  11.486
44755W        W17180  13.232  36.296  11.515
44756W        W17181  18.508   4.834  10.486
44757W        W17182  41.487  18.471   3.402
44758W        W17183   5.398  11.886   9.925
44759W        W17184   2.236   0.280   3.308
44760W        W17185  26.907  20.132   2.853
44761W        W17186  15.024  12.146  11.458
44762W        W17187   7.773  21.110  14.308
44763W        W17188  25.602   0.762   9.871
44764W        W17189   3.711  20.802  13.508
44765W        W17190  29.891  18.022   2.893
44766W        W17191  40.591  14.795  11.062
44767W        W17192   6.137   6.486   0.939
44768W        W17193   1.792  29.837  11.103
44769W        W17194  40.383  25.287   0.850
44770W        W17195  31.011  26.951   0.916
44771W        W17196  15.540  36.424  13.804
44772W        W17197  43.091  41.673   0.798
44773W        W17198  25.959  15.182   3.363
44774W        W17199  44.826  11.471   3.400
44775W        W17200  28.556  19.265  13.428
44776W        W17201  25.654  42.365   1.859
44777W        W17202  13.345  43.952   4.097
44778W        W17203   2.391   0.830  14.781
44779W        W17204  21.826  14.814  10.543
44780W        W17205  40.342   7.019  13.074
44781W        W17206   7.359  40.746   1.834
44782W        W17207   7.232  12.620   0.846
44783W        W17208  26.418  39.032   3.820
44784W        W17209  16.716   9.301   1.200
44785W        W17210  39.457  27.647   4.350
44786W        W17211  15.174   3.271  10.960
44787W        W17212   0.032  24.225   4.496
44788W        W17213  16.322  34.162   3.290
44789W        W17214   7.671  31.521  10.723
44790W        W17215  37.564  23.777   3.287
44791W        W17216  12.620  30.500   0.470
44792W        W17217  29.649   8.237  13.026
44793W        W17218  28.737  11.914   4.208
44794W        W17219  12.096  39.379  11.292
44795W        W17220  33.921  41.339   3.109
44796W        W17221   3.120   4.952   3.349
44797W        W17222  34.035   6.453  14.136
44798W        W17223  27.659  29.468  14.864
44799W        W17224  26.139  36.951  11.200
44800W        W17225   0.246   1.760  13.083
44801W        W17226  11.178  16.104   2.217
44802W        W17227  13.947   0.911   1.764
44803W        W17228   7.836  11.995   1.868
44804W        W17229  43.731  23.558  11.076
44805W        W17230   1.363  13.803   3.647
44806W        W17231  12.141  28.246   2.261
44807W        W17232  21.985  10.093  11.075
44808W        W17233  22.738   0.260   3.966
44809W        W17234  24.973   5.757  14.238
44810W        W17235   3.508  20.268  14.026
44811W        W17236   0.811   2.738   0.935
44812W        W17237  42.239  24.110  14.485
44813W        W17238  16.560  10.062  14.268
44814W        W17239  22.527  28.440  11.264
44815W        W17240   4.798  18.666   0.781
44816W        W17241  41.021  13.647   4.302
44817W        W17242   8.123   5.293   0.497
44818W        W17243  38.892  19.788  10.750
44819W        W17244  23.833   7.392   0.232
44820W        W17245  27.418  29.535   2.823
44821W        W17246   9.240   3.067   0.344
44822W        W17247   6.476  10.626   1.311
44823W        W17248   3.723  28.007  12.119
44824W        W17249  10.917  35.969  11.930
44825W        W17250  40.981   1.343   4.676
44826W        W17251  32.321  37.783  12.098
44827W        W17252   3.861  13.248   0.416
44828W        W17253  27.644  28.119  13.227
44829W        W17254  15.299  24.479   4.142
44830W        W17255   0.721  26.143   0.022
44831W        W17256  26.587  42.109   3.589
44832W        W17257  26.017  30.203  11.729
44833W        W17258   7.855  28.182   2.189
44834W        W17259   3.124   7.753   1.446
44835W        W17260  42.517  13.850   2.960
44836W        W17261  29.281  14.649  13.535
44837W        W17262  27.527  16.137   3.319
44838W        W17263  29.059  40.044   0.872
44839W        W17264  17.489  11.315   2.331
44840W        W17265  11.308  41.529  12.460
44841W        W17266  12.967  30.967  10.596
44842W        W17267  42.853  31.272  11.166
44843W        W17268  11.432  36.324   3.821
44844W        W17269  29.679  18.579   0.741
44845W        W17270  32.630  42.819   1.756
44846W        W17271  18.985  42.060  12.917
44847W        W17272  38.781   7.145  12.486
44848W        W17273   9.478  37.988  12.508
44849W        W17274  11.827  16.281   4.770
44850W        W17275   8.353  24.500   4.576
44851W        W17276  15.798  25.231   2.370
44852W        W17277   3.415  31.525  14.465
44853W        W17278  28.049   6.081   1.352
44854W        W17279  32.584   8.202  11.478
44855W        W17280  27.071  18.249  14.020
44856W        W17281  35.417   7.689   3.751
44857W        W17282   5.832  17.992  13.409
44858W        W17283  36.607  30.362   4.969
44859W        W17284  36.429  20.481  12.924
44860W        W17285  13.139  34.976   3.246
44861W        W17286  18.816  18.145  13.351
44862W        W17287  43.510  26.049  14.542
44863W        W17288  29.156  29.514  13.030
44864W        W17289  33.373  43.546  11.811
44865W        W17290  24.986  26.203   3.523
44866W        W17291  44.832  22.320   1.714
44867W        W17292  21.243   9.204  12.940
44868W        W17293  27.019  26.487  14.429
44869W        W17294  34.612  35.569   2.829
44870W        W17295  18.715  39.497   0.965
44871W        W17296  44.429   9.841  11.135
44872W        W17297   7.380  16.359   0.374
44873W        W17298  31.090  19.090   0.253
44874W        W17299  23.677  19.054   0.002
44875W        W17300   5.077  40.798  11.963
44876W        W17301  28.004  21.926   4.394
44877W        W17302   8.966  20.041  11.008
44878W        W17303  29.883  42.803   0.430
44879W        W17304  24.918   2.932   1.640
44880W        W17305  31.781  42.180   3.738
44881W        W17306  36.745  27.944   0.787
44882W        W17307  28.456   6.752  11.981
44883W        W17308   0.395   1.742  12.531
44884W        W17309   4.457  34.172   2.695
44885W        W17310   9.789   4.768  12.766
44886W        W17311  19.602  28.517  14.836
44887W        W17312   9.272  15.649   2.053
44888W        W17313  42.923  44.476   4.636
44889W        W17314  37.460   5.591   4.147
44890W        W17315  25.544  43.962   0.064
44891W        W17316  30.077  17.963   3.397
44892W        W17317  38.803  20.328  14.524
44893W        W17318  42.008  19.300   0.761
44894W        W17319  13.867  41.273  10.628
44895W        W17320   4.210  27.610   2.735
44896W        W17321   4.430   9.279   4.457
44897W        W17322   7.717  16.605   0.674
44898W        W17323  12.889  43.518  10.554
44899W        W17324  12.154   2.933  11.957
44900W        W17325  14.339  24.558  10.667
44901W        W17326  34.178  24.930  12.004
44902W        W17327  24.447  34.478   1.635
44903W        W17328  37.315  44.514  12.475
44904W        W17329   0.987  34.057  12.889
44905W        W17330   5.058  15.590   0.830
44906W        W17331  18.922  38.473  11.621
44907W        W17332  25.491  13.100  12.658
44908W        W17333  24.412   7.187  14.026
44909W        W17334  14.083   2.589  12.143
44910W        W17335  28.607  22.051   2.351
44911W        W17336  11.248  29.077   2.828
44912W        W17337  10.915  42.799  12.456
44913W        W17338  19.773  44.874  11.036
44914W        W17339   8.887  33.160  12.242
44915W        W17340   2.746  25.047   3.728
44916W        W17341  19.547  33.974  12.641
44917W        W17342  28.427  18.259   2.472
44918W        W17343  14.855   3.923  13.137
44919W        W17344  44.156  28.031  12.988
44920W        W17345  29.421   5.959   4.181
44921W        W17346  15.608  44.020   4.734
44922W        W17347  20.925  18.145   1.850
44923W        W17348  20.741  13.301   1.220
44924W        W17349  18.760   1.674  14.508
44925W        W17350   4.678  21.131  11.922
44926W        W17351  18.232  15.737  14.909
44927W        W17352  28.588  17.367  11.847
44928W        W17353  35.517  27.125  10.701
44929W        W17354  29.488  34.653   2.904
44930W        W17355  40.787   1.613   1.917
44931W        W17356  38.405  10.071  10.517
44932W        W17357  15.263  32.644  14.470
44933W        W17358  44.040  12.356   4.290
44934W        W17359  25.164  39.658   0.356
44935W        W17360  13.799  23.574   0.723
44936W        W17361  12.522  31.136  13.403
44937W        W17362  32.403   1.271   1.782
44938W        W17363  24.185   5.108   2.787
44939W        W17364  15.334  35.615  13.171
44940W        W17365  15.023   9.892   4.246
44941W        W17366  12.693  27.261   2.841
44942W        W17367   9.827  12.101   3.124
44943W        W17368  26.048  28.332   3.166
44944W        W17369  42.454  10.704   3.392
44945W        W17370  21.345  42.131   3.781
44946W        W17371  15.730  21.214  11.189
44947W        W17372  33.395  31.381   1.377
44948W        W17373  33.606  33.131   3.587
44949W        W17374  44.319  21.940  11.561
44950W        W17375  22.382  24.082   4.055
44951W        W17376  35.602  23.098   4.061
44952W        W17377  26.154  39.524   0.496
44953W        W17378  30.072  18.364  11.234
44954W        W17379  26.837  31.650  12.577
44955W        W17380  20.139  43.772   0.474
44956W        W17381  38.515  12.369  10.657
44957W        W17382  27.645  40.526   5.083
44958W        W17383  35.443  39.370   0.586
44959W        W17384  34.663  41.498   1.237
44960W        W17385   2.569  22.303   2.425
44961W        W17386  43.130  29.543   4.653
44962W        W17387  22.969  11.655  12.179
44963W        W17388  31.778  27.949  14.805
44964W        W17389  12.840  29.091  14.821
44965W        W17390  21.073  39.466  10.729
44966W        W17391  16.240  43.285  12.605
44967W        W17392  10.878  29.497  10.150
44968W        W17393  40.837  12.294   4.795
44969W        W17394  30.194  39.327   1.425
44970W        W17395  34.255  36.091  12.012
44971W        W17396   1.665  30.490   1.890
44972W        W17397  40.349   5.254   3.876
44973W        W17398  34.463  42.033   1.257
44974W        W17399  16.973  18.227  10.346
44975W        W17400  31.030  18.193   0.784
44976W        W17401  41.772  22.587   2.322
44977W        W17402   0.796  43.545  12.878
44978W        W17403  19.078  15.176   2.844
44979W        W17404  38.004  42.741  12.508
44980W        W17405  10.119  13.168  11.143
44981W        W17406  38.518  14.145   4.617
44982W        W17407  36.300  35.473   3.237
44983W        W17408  44.400  20.779  13.825
44984W        W17409  14.162  42.074  10.996
44985W        W17410  28.018  18.568   2.675
44986W        W17411   1.814  30.601   0.938
44987W        W17412  25.672  38.045  13.466
44988W        W17413  18.221  24.213  13.527
44989W        W17414  41.281   0.330  12.830
44990W        W17415  13.141  44.278  14.453
44991W        W17416  14.039   9.741  12.433
44992W        W17417   2.015  30.677   0.423
44993W        W17418  29.685   2.103   1.926
44994W        W17419  37.199   3.327  14.885
44995W        W17420  20.677  28.964  10.974
44996W        W17421  33.356   9.871   4.503
44997W        W17422  24.757  41.382  14.771
44998W        W17423   9.747  19.174  14.875
44999W        W17424  14.942  15.220   4.601
45000W        W17425  32.453  44.825  12.156
45001W        W17426   4.503  19.978   2.360
45002W        W17427  14.851  16.315   0.310
45003W        W17428  11.356  19.736  12.703
45004W        W17429  20.335  32.641   3.193
45005W        W17430  41.856  32.091   0.048
45006W        W17431  27.078  39.386  12.326
45007W        W17432  19.360   4.159  14.812
45008W        W17433  10.550  24.231   4.621
45009W        W17434  33.399  35.802   3.189
45010W        W17435   8.131  12.171   4.734
45011W        W17436  19.025  21.851   1.421
45012W        W17437   0.397  27.877  11.569
45013W        W17438  35.977   5.210  13.405
45014W        W17439  27.782  43.794  10.638
45015W        W17440  39.050  32.703   4.541
45016W        W17441  29.050   8.259  13.806
45017W        W17442   1.713  10.826   2.396
45018W        W17443  38.563  11.253  11.135
45019W        W17444  43.172  44.734  14.552
45020W        W17445   3.267   1.193   1.598
45021W        W17446  32.292   6.237   3.718
45022W        W17447   2.228  40.168  14.539
45023W        W17448  19.355  25.734  13.069
45024W        W17449  23.079  43.036  10.909
45025W        W17450  20.590  40.603   4.572
45026W        W17451  39.487  24.013  13.276
45027W        W17452   3.684  21.055   3.741
45028W        W17453  25.404  33.430   3.724
45029W        W17454  14.746  13.844  13.406
45030W        W17455  22.102  30.077   1.153
45031W        W17456   9.847  28.542   4.391
45032W        W17457  35.853   6.127  12.170
45033W        W17458  43.814   9.905  12.320
45034W        W17459   9.346   1.775  12.096
45035W        W17460   4.210  25.027   0.751
45036W        W17461  15.799   5.426  10.941
45037W        W17462  20.762   9.872   2.718
45038W        W17463  44.971   5.382   0.732
45039W        W17464  26.764   6.391  12.563
45040W        W17465  38.965   6.435  11.944
45041W        W17466  41.953  34.247  12.457
45042W        W17467  25.190  22.592  12.454
45043W        W17468  31.971  31.522   3.423
45044W        W17469  38.475  40.092   3.281
45045W        W17470  15.189  12.202  14.988
45046W        W17471   1.386  35.422  12.046
45047W        W17472  36.915  14.675   2.544
45048W        W17473   0.934  21.075  10.706
45049W        W17474   4.579  23.602  13.806
45050W        W17475  43.495  33.882  14.833
45051W        W17476   0.798   2.623  14.960
45052W        W17477  37.063  42.513  14.334
45053W        W17478  19.038   6.410  11.267
45054W        W17479   7.117  23.805   3.399
45055W        W17480  19.190  18.717  12.871
45056W        W17481  13.875  44.419  11.423
45057W        W17482  42.094  30.794  11.139
45058W        W17483  20.143   8.191  13.873
45059W        W17484  21.587  28.675  13.319
45060W        W17485  43.632  17.706  13.587
45061W        W17486  32.136  34.184   1.901
45062W        W17487   5.574  34.364   3.286
45063W        W17488  14.744  26.130   2.338
45064W        W17489  35.568   4.653  14.025
45065W        W17490  29.180  20.332   4.285
45066W        W17491   2.990  36.975  11.108
45067W        W17492  38.554  22.387   0.887
45068W        W17493  14.676  17.091  11.495
45069W        W17494  13.991   2.749   4.121
45070W        W17495   0.493   9.205   4.048
45071W        W17496  21.209  24.925   3.113
45072W        W17497  11.893   1.340   0.357
45073W        W17498  23.509   9.833  11.435
45074W        W17499   8.242  10.227  14.732
45075W        W17500  18.597  32.173   2.749
45076W        W17501   6.677  10.807   0.863
45077W        W17502  30.891   4.797   2.416
45078W        W17503  29.621  40.498   3.656
45079W        W17504  27.223  13.126   4.522
45080W        W17505  29.115  12.393   3.201
45081W        W17506  24.648  36.723  14.851
45082W        W17507  39.397  30.651  11.184
45083W        W17508  14.661   7.181   0.274
45084W        W17509  21.492  12.744   1.324
45085W        W17510   7.314   7.131   4.143
45086W        W17511  16.503  23.074  10.889
45087W        W17512  34.476   5.704   3.856
45088W        W17513  38.769   1.297  10.421
45089W        W17514   9.462   2.859  13.944
45090W        W17515  12.913  44.725   3.691
45091W        W17516  41.762  44.417   3.203
45092W        W17517   6.769  20.738  12.040
45093W        W17518  39.993  14.056   3.249
45094W        W17519  21.144  34.150   1.851
45095W        W17520  12.807  44.323  12.965
45096W        W17521   5.208  15.333  14.919
45097W        W17522  24.299  17.498   2.332
45098W        W17523  32.724  38.317  10.719
45099W        W17524  31.403   2.276  12.999
45100W        W17525  22.774  28.345   0.883
45101W        W17526  40.441  36.276   0.436
45102W        W17527  43.426  41.995  12.131
45103W        W17528  17.355  26.525   3.405
45104W        W17529  30.915  10.379  11.523
45105W        W17530   8.748  29.179   4.527
45106W        W17531  18.148  22.824  12.989
45107W        W17532  38.775  44.687  15.000
45108W        W17533  25.955  36.880  13.907
45109W        W17534  34.004  41.541   1.694
45110W        W17535  18.270   1.693   0.316
45111W        W17536  36.394  12.689   1.443
45112W        W17537   7.680   9.242  13.878
45113W        W17538  32.602  14.505  12.831
45114W        W17539   0.017   3.427   1.845
45115W        W17540  36.245  13.908   4.155
45116W        W17541  30.973  28.785   2.098
45117W        W17542  42.815  36.931  13.885
45118W        W17543  13.875  43.368   0.026
45119W        W17544   3.438   3.704   4.575
45120W        W17545  36.763  39.534   0.466
45121W        W17546  23.232  11.653   4.088
45122W        W17547  38.325  27.422  11.060
45123W        W17548  14.493   2.544   2.416
45124W        W17549  15.368  26.219  10.514
45125W        W17550  33.632  12.519  13.780
45126W        W17551  24.580  11.962   5.292
45127W        W17552  18.953  25.591  12.509
45128W        W17553  21.121   2.483  14.710
45129W        W17554   1.206  42.733  11.246
45130W        W17555   4.213  44.426  12.815
45131W        W17556   8.132   6.231  12.135
45132W        W17557  34.380  44.774  14.316
45133W        W17558  23.270  23.424   1.353
45134W        W17559  28.555  29.181  10.952
45135W        W17560   5.789  16.874  11.838
45136W        W17561  10.285  14.157   1.861
45137W        W17562   3.490  15.217   3.429
45138W        W17563  22.135  24.148   1.792
45139W        W17564   0.296  32.405   3.737
45140W        W17565  31.688  12.385  10.665
45141W        W17566  13.480  14.639  11.067
45142W        W17567  44.722  33.104   4.972
45143W        W17568  35.179  44.732  14.443
45144W        W17569  19.974   3.885   4.262
45145W        W17570  38.511   3.790   0.371
45146W        W17571   8.726  10.311   9.952
45147W        W17572  16.195  44.782  11.154
45148W        W17573  11.400  42.365  14.275
45149W        W17574  21.099  42.827  14.453
45150W        W17575  40.125  17.182   2.270
45151W        W17576  31.160  37.977   0.158
45152W        W17577   4.421   2.664   1.267
45153W        W17578  24.428  44.735   4.814
45154W        W17579  20.744  42.834  11.484
45155W        W17580   6.434  18.704   0.948
45156W        W17581   1.784  24.437   4.230
45157W        W17582  16.547  27.995   1.248
45158W        W17583   0.906  31.223   3.850
45159W        W17584  10.692  15.146   1.731
45160W        W17585  34.383   2.789   1.820
45161W        W17586   0.683  40.833  12.030
45162W        W17587  21.857  20.772   0.860
45163W        W17588  27.441  15.028  11.811
45164W        W17589  20.799   4.206  11.400
45165W        W17590   3.900  28.235   1.850
45166W        W17591  40.123   6.184   2.685
45167W        W17592  42.916   2.855   0.511
45168W        W17593  18.062  24.548   1.525
45169W        W17594  17.433  15.359   1.195
45170W        W17595  17.274  16.129   4.118
45171W        W17596  41.804  25.736   4.137
45172W        W17597  40.312  25.591  12.853
45173W        W17598  20.128  20.811   4.120
45174W        W17599  29.696  38.452  13.542
45175W        W17600  18.805  17.318   3.283
45176W        W17601  34.185  44.511  13.435
45177W        W17602  34.094  14.616   1.006
45178W        W17603   2.296  42.816  12.004
45179W        W17604  28.971  11.830   1.799
45180W        W17605  15.113   7.384  10.951
45181W        W17606  13.905  38.998  12.471
45182W        W17607  14.890  10.708  12.095
45183W        W17608  16.248  37.878   3.768
45184W        W17609  43.248   7.769  12.982
45185W        W17610  36.722  26.212   4.994
45186W        W17611  25.111  11.090  11.116
45187W        W17612  15.684  19.734  13.838
45188W        W17613   4.292  40.335  14.947
45189W        W17614  13.034  10.378  11.914
45190W        W17615  26.211  38.077  13.508
45191W        W17616  20.126  39.570  13.330
45192W        W17617  32.810   7.780   0.096
45193W        W17618  16.837  31.864  13.092
45194W        W17619  25.226   1.853   3.168
45195W        W17620  18.838  11.003  14.093
45196W        W17621  30.677  18.959  11.159
45197W        W17622  43.590  34.421   1.403
45198W        W17623   7.252  24.129  14.334
45199W        W17624  39.046  24.073   1.215
45200W        W17625   5.105  40.831  14.834
45201W        W17626  39.455  27.281  12.444
45202W        W17627  35.867  41.830   2.706
45203W        W17628  32.890   7.515   1.386
45204W        W17629  30.059   5.122  11.487
45205W        W17630  44.133  19.727  12.066
45206W        W17631  12.614  16.675   4.646
45207W        W17632  29.025  25.086  10.877
45208W        W17633  21.113   0.368  11.248
45209W        W17634  42.406  14.795   1.316
45210W        W17635   3.912  20.685   2.927
45211W        W17636   0.271  41.081   3.214
45212W        W17637  38.004   6.939  13.737
45213W        W17638   8.747  33.468  13.239
45214W        W17639  24.507  43.495  12.164
45215W        W17640  43.497  30.697  11.565
45216W        W17641  15.693  37.516   5.058
45217W        W17642  22.308   7.759   0.833
45218W        W17643  33.355  19.759   4.981
45219W        W17644  13.796   7.484   2.824
45220W        W17645  20.660  18.079  14.137
45221W        W17646  28.340  26.496  13.283
45222W        W17647  32.523   4.453   3.940
45223W        W17648   7.470  15.084  12.693
45224W        W17649  13.211  20.542   3.106
45225W        W17650  32.967  41.967  10.283
45226W        W17651  17.002  29.528  10.775
45227W        W17652  29.624  36.306  12.137
45228W        W17653  44.429  39.959   2.457
45229W        W17654  18.511   1.067   3.070
45230W        W17655  38.139  13.018   5.178
45231W        W17656   6.883  22.551   2.136
45232W        W17657  14.365  19.302  12.777
45233W        W17658  30.842  11.681  11.191
45234W        W17659  17.745  39.434   0.453
45235W        W17660  23.069  37.306  11.467
45236W        W17661  13.233  31.680  10.899
45237W        W17662  18.117  16.414   3.782
45238W        W17663  20.718   7.107  12.122
45239W        W17664  15.598  15.762  13.060
45240W        W17665  35.125  23.845   1.556
45241W        W17666  12.188  17.862   2.797
45242W        W17667  41.283   9.432   4.125
45243W        W17668  42.385   1.235   4.761
45244W        W17669  41.787  38.286  10.618
45245W        W17670  28.427  21.501   9.827
45246W        W17671  21.347  11.373   3.396
45247W        W17672   6.361  30.976  12.343
45248W        W17673  42.508  39.124   3.252
45249W        W17674  32.453  37.715  14.840
45250W        W17675  30.141  41.345   2.346
45251W        W17676  43.514  44.305   2.238
45252W        W17677  20.023  22.425  14.790
45253W        W17678  22.970   4.986  12.183
45254W        W17679  44.727  22.770  11.507
45255W        W17680  33.126   2.400  10.784
45256W        W17681  11.303  41.031   2.638
45257W        W17682  31.640  24.094   2.615
45258W        W17683  42.909  33.056  11.546
45259W        W17684  32.979  41.491   2.949
45260W        W17685  19.588  37.954  13.744
45261W        W17686  30.292   2.913  10.487
45262W        W17687  43.204  33.127   4.669
45263W        W17688  26.589  27.164  13.163
45264W        W17689  24.109   6.358  13.461
45265W        W17690  35.252  43.560   2.211
45266W        W17691   4.166  34.984  13.038
45267W        W17692  34.645  17.596  11.074
45268W        W17693  19.644   1.872  10.741
45269W        W17694   8.121  27.922  13.937
45270W        W17695   0.547   9.773  11.753
45271W        W17696   4.688   8.526  13.969
45272W        W17697  23.114  23.556  11.490
45273W        W17698  44.941  25.625   3.754
45274W        W17699   0.223  23.849  11.119
45275W        W17700  18.055  10.151   2.183
45276W        W17701  28.477   2.764  14.055
45277W        W17702   5.145  38.793  11.138
45278W        W17703  23.705   9.119  13.371
45279W        W17704  35.343  11.627  14.507
45280W        W17705  33.041  33.476   1.383
45281W        W17706   3.226   5.262  13.426
45282W        W17707  24.445  34.014  10.639
45283W        W17708  15.297   3.531   0.528
45284W        W17709  43.633  14.679  13.880
45285W        W17710  15.800  26.122   2.421
45286W        W17711  32.936  19.462  14.708
45287W        W17712  40.818   6.002   2.747
45288W        W17713  18.181  26.120  11.707
45289W        W17714  39.983  41.264   3.109
45290W        W17715   3.238  20.931   3.517
45291W        W17716   3.074  29.528  14.486
45292W        W17717  29.844  44.971  13.959
45293W        W17718   5.775  39.287   3.734
45294W        W17719   0.539  17.540   1.337
45295W        W17720  16.587   3.475   1.669
45296W        W17721  40.099  40.486   0.930
45297W        W17722  44.477   2.647   0.476
45298W        W17723  33.375   6.771   1.082
45299W        W17724  19.287   2.929  11.044
45300W        W17725  39.368   4.743   3.128
45301W        W17726  13.276   2.850   1.672
45302W        W17727   5.177  27.707  13.886
45303W        W17728  41.933  41.483   2.332
45304W        W17729   7.781  18.176   3.663
45305W        W17730  32.586  28.940   0.371
45306W        W17731  33.158  44.855  14.868
45307W        W17732  30.196  33.322  13.015
45308W        W17733  25.656  41.356   0.237
45309W        W17734  29.177  29.924   2.769
45310W        W17735  36.880  41.817  11.810
45311W        W17736  10.932  23.186   0.311
45312W        W17737  37.639  18.852  13.368
45313W        W17738  28.228  44.009  13.234
45314W        W17739  30.640  14.677   2.372
45315W        W17740  32.575  15.191   3.012
45316W        W17741   6.237   1.140  14.377
45317W        W17742  44.203   4.949  11.616
45318W        W17743  20.723  42.531   4.594
45319W        W17744  20.588  30.124  10.527
45320W        W17745   2.284  29.579  14.832
45321W        W17746  11.854  41.895   0.503
45322W        W17747  24.440  26.141  12.173
45323W        W17748   3.529  40.236   3.606
45324W        W17749  33.909  42.960  11.784
45325W        W17750  42.836  39.864   4.568
45326W        W17751   9.719  15.811   0.502
45327W        W17752  20.069   1.903  13.987
45328W        W17753  26.926  16.314  12.101
45329W        W17754  14.499   8.939   2.866
45330W        W17755  38.145  19.689   3.260
45331W        W17756  26.038  23.361   3.342
45332W        W17757  25.518  30.490  11.040
45333W        W17758  38.582  31.175  12.475
45334W        W17759  27.281  39.042   2.273
45335W        W17760  22.191  44.753  11.574
45336W        W17761  14.929  14.414  12.022
45337W        W17762  32.301  12.184  13.422
45338W        W17763  43.603  28.706  14.870
45339W        W17764  15.306  23.525   0.865
45340W        W17765  13.960  21.333   4.920
45341W        W17766  41.013  32.448   4.631
45342W        W17767  19.657  30.121   3.741
45343W        W17768  16.237  37.813  11.515
45344W        W17769  29.312  18.694   3.888
45345W        W17770  31.979  35.411  12.660
45346W        W17771  43.413  38.327   3.779
45347W        W17772  42.263  42.074   3.304
45348W        W17773  38.959   3.320   1.011
45349W        W17774  18.129  35.895   1.284
45350W        W17775  24.890  24.866  11.199
45351W        W17776  12.756  13.864  14.383
45352W        W17777  38.105   1.284  13.344
45353W        W17778   0.067   8.383  12.062
45354W        W17779  17.516  37.118   3.663
45355W        W17780  19.698  44.024   0.274
45356W        W17781  19.162  31.318  11.248
45357W        W17782  44.838   2.072  11.507
45358W        W17783  12.856  42.292  12.285
45359W        W17784  21.428  41.349  10.689
45360W        W17785  18.288   8.149   2.771
45361W        W17786  27.449  40.222  14.770
45362W        W17787   9.362  34.867   0.317
45363W        W17788  10.874  31.985   2.763
45364W        W17789  40.356  43.588  11.387
45365W        W17790  32.884   8.510  13.029
45366W        W17791  29.497  24.488   9.680
45367W        W17792   5.182  15.632  12.988
45368W        W17793  20.535  32.413  13.487
45369W        W17794  42.313   4.445  11.522
45370W        W17795  31.530  37.087   2.918
45371W        W17796  33.969  33.132   4.205
45372W        W17797   1.273  10.444   0.888
45373W        W17798  19.543  20.963   1.834
45374W        W17799  31.095  28.454  11.129
45375W        W17800  15.277  19.140   0.286
45376W        W17801   7.763  16.747   4.628
45377W        W17802  26.537  35.624   1.867
45378W        W17803  11.855  13.905   5.088
45379W        W17804   3.879   5.289   4.515
45380W        W17805  37.385   5.138  12.652
45381W        W17806   3.425  40.428  14.308
45382W        W17807  28.242  33.964   3.799
45383W        W17808  28.006   8.884   4.773
45384W        W17809  21.528  14.673   0.662
45385W        W17810  24.915  11.116   1.434
45386W        W17811  18.835  41.096   3.283
45387W        W17812  35.169   7.148  10.270
45388W        W17813  24.594  23.539  11.862
45389W        W17814  24.643   1.052  13.082
45390W        W17815  35.370  36.597   2.238
45391W        W17816  40.078   6.185  12.045
45392W        W17817  29.169  21.010  14.260
45393W        W17818  17.604   2.420   4.680
45394W        W17819  10.470   7.639   3.519
45395W        W17820  34.039  35.824   4.867
45396W        W17821  40.058  29.672  11.161
45397W        W17822  43.530   7.189  12.003
45398W        W17823  41.965  17.183  13.964
45399W        W17824  11.506  15.832  10.669
45400W        W17825  37.076   6.507  11.503
45401W        W17826  28.197  32.373  13.914
45402W        W17827  21.516  14.079   3.268
45403W        W17828   8.662  29.685  10.700
45404W        W17829  34.593  12.262   0.355
45405W        W17830   0.495   7.704   0.777
45406W        W17831  25.543  10.501   2.437
45407W        W17832  14.756   6.900  12.523
45408W        W17833  24.300  14.703   2.125
45409W        W17834  11.928   9.724   4.812
45410W        W17835  41.085  15.899  12.417
45411W        W17836   8.651  40.553   3.615
45412W        W17837   7.338  32.979   3.856
45413W        W17838  33.531  18.242  13.769
45414W        W17839   0.830  16.497  13.991
45415W        W17840  12.519  34.038  12.157
45416W        W17841  41.321   1.012  13.485
45417W        W17842   1.659  26.852   1.486
45418W        W17843  43.782  15.565  11.452
45419W        W17844   1.059  39.970  13.287
45420W        W17845   0.876  27.546  11.189
45421W        W17846  30.180  44.221   0.024
45422W        W17847  38.074  35.072  12.505
45423W        W17848  10.896  18.343  13.962
45424W        W17849  37.905   1.946   0.197
45425W        W17850  30.888  36.080  12.081
45426W        W17851  43.372  20.824   1.696
45427W        W17852   5.402  15.153  10.610
45428W        W17853  15.739  23.060  13.288
45429W        W17854  24.138  20.159  13.975
45430W        W17855  25.557  27.331   0.206
45431W        W17856  40.622  31.687   0.319
45432W        W17857   6.913  37.216  14.344
45433W        W17858   5.737   2.217   2.784
45434W        W17859  43.195   9.825  14.835
45435W        W17860  38.758  10.729   3.325
45436W        W17861  29.720  15.155   1.666
45437W        W17862  31.872  25.962   3.148
45438W        W17863   1.122  11.812  12.043
45439W        W17864  44.533  23.160   3.868
45440W        W17865  23.672  38.833   0.771
45441W        W17866  34.094  15.083   1.236
45442W        W17867  35.086  36.150  11.516
45443W        W17868  43.338  29.652  12.404
45444W        W17869  10.586  33.043  11.706
45445W        W17870  20.216  42.172  11.980
45446W        W17871  19.551   8.234  14.244
45447W        W17872   7.121  26.908  13.695
45448W        W17873   2.665  22.100  12.054
45449W        W17874   5.296  32.085   0.804
45450W        W17875  10.440  38.502  10.379
45451W        W17876  22.073  12.814   4.622
45452W        W17877  32.416  19.218   1.350
45453W        W17878  34.027  29.023  11.471
45454W        W17879  37.759  16.758  12.263
45455W        W17880  25.160   1.437   0.261
45456W        W17881  29.372   6.294   2.678
45457W        W17882  12.775  22.865   0.345
45458W        W17883  37.102  37.299   3.645
45459W        W17884   5.844  39.022  11.095
45460W        W17885  13.528  22.595  11.397
45461W        W17886  16.791  42.340  13.041
45462W        W17887  37.941  40.882  14.254
45463W        W17888  23.675  15.808  11.871
45464W        W17889  33.034  32.499  10.985
45465W        W17890   2.658  43.844  12.290
45466W        W17891  22.040  42.909   4.373
45467W        W17892  40.058  20.055   0.825
45468W        W17893   0.491  39.378  11.566
45469W        W17894  32.142  25.697   2.314
45470W        W17895   1.829  44.800   1.245
45471W        W17896  37.838  11.660  11.618
45472W        W17897  31.479  20.307   2.174
45473W        W17898  21.286  34.317   0.961
45474W        W17899  30.532  30.018  14.718
45475W        W17900  22.988  22.004   1.513
45476W        W17901   6.682  31.334   4.569
45477W        W17902  11.395  29.068  13.883
45478W        W17903  14.285   4.220   3.040
45479W        W17904  43.070  44.138  12.458
45480W        W17905  19.946  10.092   4.169
45481W        W17906  16.028  38.612   2.668
45482W        W17907   7.137   9.363  14.714
45483W        W17908   9.148  13.915   0.542
45484W        W17909  37.415  19.694   1.829
45485W        W17910  26.658   3.984   4.917
45486W        W17911  17.306  22.856   4.180
45487W        W17912   6.214  37.889  12.982
45488W        W17913   2.409  43.294   3.314
45489W        W17914  25.035  21.424  12.514
45490W        W17915  16.341  30.337   2.939
45491W        W17916  11.681  36.455  13.643
45492W        W17917  13.205   6.653   1.709
45493W        W17918  29.441  11.255   0.413
45494W        W17919  19.536   4.807   1.313
45495W        W17920   5.748  28.540   2.402
45496W        W17921  34.912  42.852  12.144
45497W        W17922  16.383  31.274   9.430
45498W        W17923  29.072  20.039  12.348
45499W        W17924  41.474   8.379   4.191
45500W        W17925  36.856  20.690   1.299
45501W        W17926  22.470  43.937  14.257
45502W        W17927  19.096   1.913   3.677
45503W        W17928  31.261   8.775  14.322
45504W        W17929  18.209  15.074   4.144
45505W        W17930  23.094  40.057   2.916
45506W        W17931  42.812  36.892  14.797
45507W        W17932  21.035  14.168  11.967
45508W        W17933  11.287   4.201   4.616
45509W        W17934  40.068  30.350  13.414
45510W        W17935  40.817   6.787   0.404
45511W        W17936  17.452  15.280  10.852
45512W        W17937  33.250  31.544   1.967
45513W        W17938  34.828  33.923  11.322
45514W        W17939  23.087  18.207  10.592
45515W        W17940  36.375  12.647  10.725
45516W        W17941  42.353  23.253  11.230
45517W        W17942   0.877  10.119  12.648
45518W        W17943  18.768   9.849  11.114
45519W        W17944  38.857   6.463   4.100
45520W        W17945   3.728  13.105   1.222
45521W        W17946   8.412  23.932   1.306
45522W        W17947   4.896   6.018   1.227
45523W        W17948   8.719  43.211   1.354
45524W        W17949  26.169  20.356  10.668
45525W        W17950  41.488  11.704  13.764
45526W        W17951  20.498  31.445   3.380
45527W        W17952  28.212  37.806  12.817
45528W        W17953  20.178  29.761   1.905
45529W        W17954  36.772  31.647  12.862
45530W        W17955  26.652  18.808   4.974
45531W        W17956  26.454  12.815   4.166
45532W        W17957  28.417  11.226   4.009
45533W        W17958  33.001  13.243   2.190
45534W        W17959  19.594  18.555  12.055
45535W        W17960   1.356  43.559   1.802
45536W        W17961  44.791  19.803  11.598
45537W        W17962  23.449  12.531   3.991
45538W        W17963  24.943   0.813   2.885
45539W        W17964  11.346   2.781  14.407
45540W        W17965  12.528  12.754  12.160
45541W        W17966  17.236  38.986   2.675
45542W        W17967  17.076  43.720   0.774
45543W        W17968  12.207  23.977  11.496
45544W        W17969   7.440  23.827   0.426
45545W        W17970  40.226   8.712  13.816
45546W        W17971  26.448  22.784   0.789
45547W        W17972  36.382  25.713  11.661
45548W        W17973   3.961  26.375  12.505
45549W        W17974  28.089   1.268   4.240
45550W        W17975  26.122  32.250  11.680
45551W        W17976  25.921  34.526   0.008
45552W        W17977  19.166  32.895  11.079
45553W        W17978   2.830  14.820   3.964
45554W        W17979  38.495  26.409  11.076
45555W        W17980  32.442  21.243   2.164
45556W        W17981  44.246  18.757   1.855
45557W        W17982  18.073  41.752   1.224
45558W        W17983  25.406  36.871   3.187
45559W        W17984  36.519  29.632  13.069
45560W        W17985  40.280  29.880   0.777
45561W        W17986   3.733  11.683  13.917
45562W        W17987  32.086  13.788   0.189
45563W        W17988  22.672   5.798   3.709
45564W        W17989  21.251  25.487   4.822
45565W        W17990  37.957  24.966   3.621
45566W        W17991   9.687   8.681  11.909
45567W        W17992   3.248  38.612   2.157
45568W        W17993  42.030  26.606  10.697
45569W        W17994  43.318  12.066   4.636
45570W        W17995  19.780  31.192  10.741
45571W        W17996  19.370  39.551   2.638
45572W        W17997  15.784   4.978   3.843
45573W        W17998   6.121  37.938  13.502
45574W        W17999  37.615   9.591  10.262
45575W        W18000  16.659   4.482   0.771
45576W        W18001  29.453  11.459  12.143
45577W        W18002   8.756  43.716   1.427
45578W        W18003  39.353  22.603   0.279
45579W        W18004  29.386  13.762  10.771
45580W        W18005  18.114  28.665  13.639
45581W        W18006   6.654  37.934   3.883
45582W        W18007   0.268  33.996  10.131
45583W        W18008  27.215  25.181   2.603
45584W        W18009  12.485   3.565   9.695
45585W        W18010  19.691  17.814  10.669
45586W        W18011  29.940   8.649  13.317
45587W        W18012  38.364  38.882  10.767
45588W        W18013  24.157  26.504   2.375
45589W        W18014  19.271  26.455   1.867
45590W        W18015  19.627  20.143  10.529
45591W        W18016  19.561  42.065  11.980
45592W        W18017  43.286  27.010  13.027
45593W        W18018   5.783  14.806  10.552
45594W        W18019  41.437  34.352  14.872
45595W        W18020   8.491  12.089  10.992
45596W        W18021  14.229  36.389   0.540
45597W        W18022  35.910   0.192  14.524
45598W        W18023   1.984  10.463   3.151
45599W        W18024  14.112  19.222   1.834
45600W        W18025  23.692  23.154   1.435
45601W        W18026   6.382  37.075  11.138
45602W        W18027  22.911   4.860  11.075
45603W        W18028  31.160  27.337   1.214
45604W        W18029  11.587   2.874  11.960
45605W        W18030   2.961   4.835  13.363
45606W        W18031  24.132  36.854  10.726
45607W        W18032  33.928  23.651  12.339
45608W        W18033  43.903  33.097  14.675
45609W        W18034  36.662   7.520   2.757
45610W        W18035  14.321   4.431   0.643
45611W        W18036  35.132  26.568   2.596
45612W        W18037  40.861  27.606  13.538
45613W        W18038  20.784  12.690   3.073
45614W        W18039  23.056  25.121  13.443
45615W        W18040   9.286  16.613   1.635
45616W        W18041  37.452  19.885  14.762
45617W        W18042  22.474  13.345  11.021
45618W        W18043  27.956   6.639   9.999
45619W        W18044  41.730  16.992   4.097
45620W        W18045   5.345  13.786  11.977
45621W        W18046   5.619  40.324   1.262
45622W        W18047  15.037  25.556   2.896
45623W        W18048  27.532  15.738   1.263
45624W        W18049   5.844  23.659  11.638
45625W        W18050  36.281  27.887  12.154
45626W        W18051  44.817  26.535   0.515
45627W        W18052  29.183  39.555   3.589
45628W        W18053  36.525   8.789   1.170
45629W        W18054  19.289  21.153   0.932
45630W        W18055   1.338  39.948   4.645
45631W        W18056  16.307  42.108  13.437
45632W        W18057  24.509   9.327   0.340
45633W        W18058  44.763   3.605  14.439
45634W        W18059  30.710  23.805   5.255
45635W        W18060   7.726  10.664  12.074
45636W        W18061   9.620  37.161  11.710
45637W        W18062  38.373  29.728   1.340
45638W        W18063  42.868  34.744  10.297
45639W        W18064  20.709   3.314  10.472
45640W        W18065  12.871  18.550   4.370
45641W        W18066  14.802  39.867  11.835
45642W        W18067  21.547   5.442  11.985
45643W        W18068  29.431   1.586   5.013
45644W        W18069  24.930  43.970   0.558
45645W        W18070   8.578  12.151  12.889
45646W        W18071  33.057  15.475   0.750
45647W        W18072  41.401  28.200   1.346
45648W        W18073  21.474  16.106   4.622
45649W        W18074   5.479  15.668   3.773
45650W        W18075  15.810  44.158  13.706
45651W        W18076  42.026  33.833   4.555
45652W        W18077  41.726  16.690  10.264
45653W        W18078   8.832  16.338   1.746
45654W        W18079  24.099  27.744  14.470
45655W        W18080  24.013  43.199   1.223
45656W        W18081  43.514   0.805  13.156
45657W        W18082  26.007  23.794   4.479
45658W        W18083  21.670  33.082  14.431
45659W        W18084   9.403  34.063   1.755
45660W        W18085  39.970  14.268  13.890
45661W        W18086   2.738  38.097  13.739
45662W        W18087   4.855  10.348   0.627
45663W        W18088  13.930  15.377  12.571
45664W        W18089   0.157  31.063  11.618
45665W        W18090  21.476   9.285  10.517
45666W        W18091   5.949  27.686  12.474
45667W        W18092  43.667  38.338   4.207
45668W        W18093  29.199  32.216   4.622
45669W        W18094  16.827  35.767  12.364
45670W        W18095  29.008  26.970  13.605
45671W        W18096  24.742  40.458   4.414
45672W        W18097  38.851  22.712   2.404
45673W        W18098  25.524  27.754  13.288
45674W        W18099  37.851  16.257  10.615
45675W        W18100  18.960  40.084  14.915
45676W        W18101   3.591  29.394  10.272
45677W        W18102  16.089   4.790  12.497
45678W        W18103  39.821  40.962   1.762
45679W        W18104  17.677  36.782  14.429
45680W        W18105  33.577  13.632  11.359
45681W        W18106   6.133  41.520  10.720
45682W        W18107  14.790  34.872  12.414
45683W        W18108  31.022  10.650  12.132
45684W        W18109  38.467  37.988   1.353
45685W        W18110   8.512  40.411  12.269
45686W        W18111  39.561  35.045  11.163
45687W        W18112  27.579  17.625  12.957
45688W        W18113  26.546  35.036   4.596
45689W        W18114  22.328  25.589   2.698
45690W        W18115  31.611  10.096  14.551
45691W        W18116  30.903  40.937  10.002
45692W        W18117  19.046  41.959   4.610
45693W        W18118  39.899  14.295  11.787
45694W        W18119  38.800   4.826  10.815
45695W        W18120  43.886  10.021   9.904
45696W        W18121   5.692  15.354   3.417
45697W        W18122  37.432  40.947   2.985
45698W        W18123  25.651  42.548   4.715
45699W        W18124  31.998   0.949  11.858
45700W        W18125  12.350  18.747  12.949
45701W        W18126  30.559  41.301   3.155
45702W        W18127  44.006  38.982  14.927
45703W        W18128  21.992   5.536  12.533
45704W        W18129   7.890  13.703   0.182
45705W        W18130  22.655  39.591   4.289
45706W        W18131  31.496  23.163   4.163
45707W        W18132  18.879   2.848  12.450
45708W        W18133  23.783  29.051   2.054
45709W        W18134  42.861  36.584   3.563
45710W        W18135  13.584   0.410   2.647
45711W        W18136  10.364   0.684   2.702
45712W        W18137  20.182  42.976  13.122
45713W        W18138  11.651   7.590   3.204
45714W        W18139   1.079  10.395   0.013
45715W        W18140  38.042   4.715  11.211
45716W        W18141  43.450   9.966   2.853
45717W        W18142  25.144  32.030   1.833
45718W        W18143  32.339  15.748  11.924
45719W        W18144  11.246  39.925   3.197
45720W        W18145  21.939  17.027   3.275
45721W        W18146  24.403  31.005   1.910
45722W        W18147   0.343  33.388   3.680
45723W        W18148  24.178  30.506   3.134
45724W        W18149  37.981  28.359   2.750
45725W        W18150   8.695  16.700  10.007
45726W        W18151   9.621  25.073  11.160
45727W        W18152  19.730   1.003  11.046
45728W        W18153  19.230   9.829  10.881
45729W        W18154  18.302  43.420  12.467
45730W        W18155   5.779   4.467   0.360
45731W        W18156   4.844  16.073   2.125
45732W        W18157  36.444   8.224   1.201
45733W        W18158  10.039  14.887   1.400
45734W        W18159   8.997  18.718  11.614
45735W        W18160   3.319  19.805  14.180
45736W        W18161  38.728   0.342  13.846
45737W        W18162  23.150   2.019   3.098
45738W        W18163   6.116  26.728  10.635
45739W        W18164  17.477  10.207   9.629
45740W        W18165  44.497   9.640   0.265
45741W        W18166  14.699  31.002  11.099
45742W        W18167  21.245  40.963   0.497
45743W        W18168  20.650  39.747  10.705
45744W        W18169  27.208  24.993  10.585
45745W        W18170  25.058  24.493   3.179
45746W        W18171  10.548  29.088  10.209
45747W        W18172  42.506  37.956   1.357
45748W        W18173  22.757  33.699  14.993
45749W        W18174   0.688  38.654   1.296
45750W        W18175  17.468  22.810   1.864
45751W        W18176  17.829  32.414   5.420
45752W        W18177  38.964  42.832  12.545
45753W        W18178  23.120  24.780  12.094
45754W        W18179   0.689  39.587   3.299
45755W        W18180  42.684  39.649  11.569
45756W        W18181  31.015   0.187   2.889
45757W        W18182  15.623   4.365   1.936
45758W        W18183  30.490  30.162   0.660
45759W        W18184   0.335   4.697  11.941
45760W        W18185  22.202   1.733  11.254
45761W        W18186  21.646  24.425  13.035
45762W        W18187  40.940  23.150  11.629
45763W        W18188   5.205   7.801  11.089
45764W        W18189  10.696  21.885   3.105
45765W        W18190  21.208  42.290  14.495
45766W        W18191  25.588   9.687   1.692
45767W        W18192  40.261  18.072   4.580
45768W        W18193  27.655  19.283   4.096
45769W        W18194  30.945   8.367  14.376
45770W        W18195  37.453  43.819   0.791
45771W        W18196  30.629   8.193  13.968
45772W        W18197  10.232  22.833  11.993
45773W        W18198   4.326  42.805  13.875
45774W        W18199  34.380  31.440   0.708
45775W        W18200  14.641  35.195  13.568
45776W        W18201  28.883  22.125   3.699
45777W        W18202  41.452  35.902   1.464
45778W        W18203  38.527   4.651  11.604
45779W        W18204  31.093   5.390  12.119
45780W        W18205  44.775  39.333  14.487
45781W        W18206  32.553  10.177   2.768
45782W        W18207  35.378  27.445   3.784
45783W        W18208  31.934  27.943  11.599
45784W        W18209  29.136  27.279   4.010
45785W        W18210  32.715  30.001  14.291
45786W        W18211  37.152  13.077   4.712
45787W        W18212  24.225  36.561   3.848
45788W        W18213  36.604  27.602  14.972
45789W        W18214  31.552   8.617  12.969
45790W        W18215  24.447   5.419   0.019
45791W        W18216  11.052  17.734  13.369
45792W        W18217  32.660  23.084   3.483
45793W        W18218  14.530  36.470   4.284
45794W        W18219   3.229  16.262  14.946
45795W        W18220   6.367  17.658   1.656
45796W        W18221  43.754  23.443   2.396
45797W        W18222   4.474   1.860   0.251
45798W        W18223  18.300   0.213   1.465
45799W        W18224  37.604   1.388   3.632
45800W        W18225  20.565  39.276  12.050
45801W        W18226  41.569  34.809  11.110
45802W        W18227  33.126  24.896  10.396
45803W        W18228  39.414   8.002  13.385
45804W        W18229  24.509   3.998  10.745
45805W        W18230  18.865  31.951   3.564
45806W        W18231  39.239   1.645  12.925
45807W        W18232  21.480  39.319  13.009
45808W        W18233   3.278   4.358  10.602
45809W        W18234  43.188  39.559  14.747
45810W        W18235   5.028  17.887   2.311
45811W        W18236  31.136  29.043   2.962
45812W        W18237  43.580  25.786   3.556
45813W        W18238   5.784  12.845   1.646
45814W        W18239  32.627  31.858  11.467
45815W        W18240  43.983  20.125  12.357
45816W        W18241  12.334   4.947  10.628
45817W        W18242  15.260  22.111  10.662
45818W        W18243  34.500   2.691  13.013
45819W        W18244   2.863  39.402   4.582
45820W        W18245  44.001  16.273  11.214
45821W        W18246  28.977  12.059  12.487
45822W        W18247   8.650   9.605   4.429
45823W        W18248   1.311   6.588  12.490
45824W        W18249   7.249   8.138   1.204
45825W        W18250   8.863   9.443  10.654
45826W        W18251  25.108   7.181   0.185
45827W        W18252  19.366  15.355   4.161
45828W        W18253  32.528  22.619   3.709
45829W        W18254  26.068   7.642  12.085
45830W        W18255  43.386  22.411  11.462
45831W        W18256  19.957  31.022   0.456
45832W        W18257  22.211  11.244   0.725
45833W        W18258  19.709  21.061   2.309
45834W        W18259  32.683  40.983  11.144
45835W        W18260  32.178   9.740  10.553
45836W        W18261  11.757  14.260   1.212
45837W        W18262  11.396   9.764  11.530
45838W        W18263   3.267   1.872  10.655
45839W        W18264  11.894   5.269   4.544
45840W        W18265   4.638  24.525   0.345
45841W        W18266  16.710  12.877   2.388
45842W        W18267   5.606  16.359  12.046
45843W        W18268  10.376  19.215   3.395
45844W        W18269  11.858  12.126  13.430
45845W        W18270  21.015   9.746  11.255
45846W        W18271  43.105  15.805   0.107
45847W        W18272  42.920   1.204   1.136
45848W        W18273  13.190  34.933   4.570
45849W        W18274  34.318  28.014  13.447
45850W        W18275  16.085  21.635   3.581
45851W        W18276  40.828  16.089  11.150
45852W        W18277  30.063  29.576   4.887
45853W        W18278  37.997  41.801  10.618
45854W        W18279   8.761  20.785  12.072
45855W        W18280  30.410  20.753  13.009
45856W        W18281   3.431  18.086  11.218
45857W        W18282  31.074   3.797  11.007
45858W        W18283  37.955  11.572   0.026
45859W        W18284  29.859  11.793  11.559
45860W        W18285  44.483   7.355  11.519
45861W        W18286  22.711  19.045  12.552
45862W        W18287  43.782  22.462   1.919
45863W        W18288  11.451  42.901   0.938
45864W        W18289  26.154  36.088   4.849
45865W        W18290  29.233  16.772   2.814
45866W        W18291   9.434  38.057   3.654
45867W        W18292   8.317  20.619  11.862
45868W        W18293  10.451  39.522  12.483
45869W        W18294   3.323  22.815   2.220
45870W        W18295   9.424  39.822   1.399
45871W        W18296  31.088  43.965  12.458
45872W        W18297  27.413   8.851   2.220
45873W        W18298  37.877  37.304   2.184
45874W        W18299  25.094  14.165   2.205
45875W        W18300  38.855  32.958   0.247
45876W        W18301   9.561  38.846  12.034
45877W        W18302  28.903  44.242  11.883
45878W        W18303   0.960   7.824   5.090
45879W        W18304  44.971  21.443  11.824
45880W        W18305  35.549   5.129  11.597
45881W        W18306   6.782  10.592  14.367
45882W        W18307  13.116  10.265   4.375
45883W        W18308  16.748  29.992  11.454
45884W        W18309  21.707  22.856   4.246
45885W        W18310  43.543  14.742  11.840
45886W        W18311  34.413   5.696  14.038
45887W        W18312  22.519  31.966  14.919
45888W        W18313  29.621   8.193  12.001
45889W        W18314  41.897  25.055  12.935
45890W        W18315  28.645  38.340  11.417
45891W        W18316   8.229   0.309   4.060
45892W        W18317  13.327  34.437   4.723
45893W        W18318  11.458  18.105  13.313
45894W        W18319  39.999  24.259   3.969
45895W        W18320   7.265  19.285  13.022
45896W        W18321   4.864   1.348   2.295
45897W        W18322  16.807  36.846   2.746
45898W        W18323   2.844  19.824  13.273
45899W        W18324  31.530  23.102   3.660
45900W        W18325  39.050  21.787  10.440
45901W        W18326   0.207   7.306  12.656
45902W        W18327  10.539  39.000  10.552
45903W        W18328  25.400   1.154   2.034
45904W        W18329   3.677  36.078  13.965
45905W        W18330  34.722  33.199  14.350
45906W        W18331  38.593  31.887  13.934
45907W        W18332   5.350  42.708  12.012
45908W        W18333  42.596  37.317   5.072
45909W        W18334  27.268  28.166   2.207
45910W        W18335   9.294  38.395  13.089
45911W        W18336  36.641  33.880   3.745
45912W        W18337  20.182  38.127  13.551
45913W        W18338  35.822   7.304  14.815
45914W        W18339   0.942  40.687   9.892
45915W        W18340   3.463  15.741   2.135
45916W        W18341   6.927  18.260   1.500
45917W        W18342  25.866  29.193   0.891
45918W        W18343  33.741  14.541   4.201
45919W        W18344  34.102   1.509   4.611
45920W        W18345  31.610   8.287  13.459
45921W        W18346   1.478  34.273  12.959
45922W        W18347  37.865   0.697   1.058
45923W        W18348   9.382   3.795   4.267
45924W        W18349   3.434  14.865   0.758
45925W        W18350  29.443  33.438   0.932
45926W        W18351   5.863  18.603  10.902
45927W        W18352   4.667  23.573   0.740
45928W        W18353  12.592   6.163   0.236
45929W        W18354  41.836   6.977   3.117
45930W        W18355  34.195  15.093  13.531
45931W        W18356  44.714   8.256   2.815
45932W        W18357  36.933  33.458   3.609
45933W        W18358  38.385  11.693  10.934
45934W        W18359  42.490   8.222  13.454
45935W        W18360  27.959  25.282  11.557
45936W        W18361  37.178  27.121   4.661
45937W        W18362   9.153   8.939  12.568
45938W        W18363  36.130  20.713   2.726
45939W        W18364  22.537   8.193  14.254
45940W        W18365  34.892   8.839  10.214
45941W        W18366  12.691  23.823   3.377
45942W        W18367   4.993  32.119   3.222
45943W        W18368  26.111   7.745  14.113
45944W        W18369  39.050  12.604  11.978
45945W        W18370  29.151   4.222   2.333
45946W        W18371  19.185  16.587  12.898
45947W        W18372  32.966   0.380  10.794
45948W        W18373  19.737   2.631   0.445
45949W        W18374  27.262  20.737   3.307
45950W        W18375  31.683   8.703  14.662
45951W        W18376   9.224  18.735  11.136
45952W        W18377   7.228  23.999  11.652
45953W        W18378  27.453   1.316   2.675
45954W        W18379   5.828   6.842   4.739
45955W        W18380  21.685  27.418  11.666
45956W        W18381  24.967   1.001   4.645
45957W        W18382  36.477  41.913  10.667
45958W        W18383   9.894   4.425   3.193
45959W        W18384   2.441  18.478   3.509
45960W        W18385  18.668  20.205  11.509
45961W        W18386  28.375  39.796  11.527
45962W        W18387  34.883  14.191  10.337
45963W        W18388  13.110  19.192   2.704
45964W        W18389  17.701  25.073   1.383
45965W        W18390  40.013  33.378   3.282
45966W        W18391  37.019  39.878   3.119
45967W        W18392  19.666   8.343   0.239
45968W        W18393  39.530  44.270   2.271
45969W        W18394  40.840  39.486  13.527
45970W        W18395  36.270  34.956  12.075
45971W        W18396   9.386  31.471   3.572
45972W        W18397   3.700  19.456  10.984
45973W        W18398  19.949  22.062   4.650
45974W        W18399  19.620  25.473   0.332
45975W        W18400  43.580   1.503   4.642
45976W        W18401  24.067  15.088  14.882
45977W        W18402  38.401  32.632  12.304
45978W        W18403  12.265  23.438   0.597
45979W        W18404  25.335   1.972  14.514
45980W        W18405   3.932  17.216  13.340
45981W        W18406   0.254   2.258   1.471
45982W        W18407  13.392   7.834  12.563
45983W        W18408  41.877  37.437  13.449
45984W        W18409  24.600  13.377  13.753
45985W        W18410  43.903  37.548  13.666
45986W        W18411  29.069  14.634   4.729
45987W        W18412  22.752  11.324   2.271
45988W        W18413   9.337   7.226  11.063
45989W        W18414  20.402  36.323  13.357
45990W        W18415  22.306  36.067  11.565
45991W        W18416  25.976  44.461   1.172
45992W        W18417  25.865  29.075  14.978
45993W        W18418  41.055  38.447   2.585
45994W        W18419  39.086  31.119  14.382
45995W        W18420  25.783   8.786   4.528
45996W        W18421  13.452  25.262   0.432
45997W        W18422  24.024   5.793  12.036
45998W        W18423   6.863  26.673  12.697
45999W        W18424  26.063  15.644   3.160
46000W        W18425  35.303  37.088  13.826
46001W        W18426  43.043  44.251  14.422
46002W        W18427  21.341  40.326   4.082
46003W        W18428  15.543  32.037   0.979
46004W        W18429  28.012  42.990  11.167
46005W        W18430   2.771  19.536   2.869
46006W        W18431  28.611   6.813  14.291
46007W        W18432  39.030  25.671   0.884
46008W        W18433  26.464  40.609   3.754
46009W        W18434  37.207  15.632  12.425
46010W        W18435  42.007  20.192  11.048
46011W        W18436  25.033  19.997   3.219
46012W        W18437   7.232  17.777  11.350
46013W        W18438  35.997  32.464   0.028
46014W        W18439  44.542  40.021   4.326
46015W        W18440  28.593   2.381  13.539
46016W        W18441  41.522  42.660   1.846
46017W        W18442   0.726  28.052  11.199
46018W        W18443  30.459  22.673   0.260
46019W        W18444  21.157  30.995   2.367
46020W        W18445  35.915   9.667   9.995
46021W        W18446  10.333  40.775   2.806
46022W        W18447  17.663  19.507   2.265
46023W        W18448   4.332  44.224   1.746
46024W        W18449  22.079   3.918  11.212
46025W        W18450   3.335  18.831   3.165
46026W        W18451  37.344  24.726  12.993
46027W        W18452  15.328   4.325   5.003
46028W        W18453  35.984  37.028   1.007
46029W        W18454  13.317  27.705  11.326
46030W        W18455  17.150  43.555  11.171
46031W        W18456   0.309  13.327   2.139
46032W        W18457  35.982  16.366  11.946
46033W        W18458  17.591  37.601  13.409
46034W        W18459   6.836   2.063  11.671
46035W        W18460  31.595   8.465  11.984
46036W        W18461   8.901  28.717  14.551
46037W        W18462  20.989  11.777   0.918
46038W        W18463  30.645  41.329  12.901
46039W        W18464  19.855  14.301  14.385
46040W        W18465  20.843  13.727  12.131
46041W        W18466   5.688  36.803  13.983
46042W        W18467  18.036  29.060   1.905
46043W        W18468  38.302  23.645   1.315
46044W        W18469  12.180  21.347   5.482
46045W        W18470  11.658   9.832   1.863
46046W        W18471  10.379  20.777  14.306
46047W        W18472  21.261  13.189  14.742
46048W        W18473  35.538   0.623  13.300
46049W        W18474  36.366   5.961   0.988
46050W        W18475  20.805  11.328   4.178
46051W        W18476  30.655  15.242  11.465
46052W        W18477   8.446  21.175   4.388
46053W        W18478  20.288  44.275   4.677
46054W        W18479  12.638   2.394   1.777
46055W        W18480  33.838  15.788   3.739
46056W        W18481   3.511  13.691   1.874
46057W        W18482  40.908   7.209  11.944
46058W        W18483   1.217  11.432   4.256
46059W        W18484  22.792   3.824  13.962
46060W        W18485   3.735  16.696  13.306
46061W        W18486  19.978  43.429  12.995
46062W        W18487  21.176  11.254  14.333
46063W        W18488  15.239  42.587  13.900
46064W        W18489  35.904  33.589   1.372
46065W        W18490   1.014  42.790  13.553
46066W        W18491  32.352  37.699   3.752
46067W        W18492  22.472  39.944   4.608
46068W        W18493   5.338  22.198  13.593
46069W        W18494   0.098   0.278  11.722
46070W        W18495  13.706   4.860  12.839
46071W        W18496  43.532  13.320  12.372
46072W        W18497  32.049  26.476   5.117
46073W        W18498  19.343  16.045  10.648
46074W        W18499  39.241  10.202   3.631
46075W        W18500  30.794  22.472  13.809
46076W        W18501  12.295   1.270   3.193
46077W        W18502   1.252   8.231   4.679
46078W        W18503  14.628   9.738   1.888
46079W        W18504  20.346   8.682  12.022
46080W        W18505   4.027   9.309  13.880
46081W        W18506   0.272  39.768  10.774
46082W        W18507  33.670  41.433  13.933
46083W        W18508   3.313  37.372  11.578
46084W        W18509   5.010  21.424   4.046
46085W        W18510  26.520  42.644  12.769
46086W        W18511  38.472  19.775   2.775
46087W        W18512   8.474  41.372   2.631
46088W        W18513  36.490  20.616   0.366
46089W        W18514  39.022  38.028  12.205
46090W        W18515  11.267  17.241   0.949
46091W        W18516  18.055  38.488   3.673
46092W        W18517  11.706  25.964   1.970
46093W        W18518  24.978  17.826   3.705
46094W        W18519  10.698   8.245   2.786
46095W        W18520  21.814  36.514   4.154
46096W        W18521   1.705   3.479   0.304
46097W        W18522  23.115  35.509   4.887
46098W        W18523  41.463  27.665  11.973
46099W        W18524  31.092  35.317   4.938
46100W        W18525   4.434  29.686  12.242
46101W        W18526  17.961  33.961  11.085
46102W        W18527  26.744   8.803  10.521
46103W        W18528  19.899  41.998   0.727
46104W        W18529   4.663  32.209  14.929
46105W        W18530  32.607   9.400   1.221
46106W        W18531  13.146  38.062  14.863
46107W        W18532  40.541  27.089  13.971
46108W        W18533  11.290   2.285   3.212
46109W        W18534   8.441   8.313  11.381
46110W        W18535  19.626  16.539  13.164
46111W        W18536  13.059  18.868  10.524
46112W        W18537  13.053  12.706  10.760
46113W        W18538   8.201  11.840  12.824
46114W        W18539  43.439   8.272  13.322
46115W        W18540  22.699   3.252  10.724
46116W        W18541  38.911  26.076   4.222
46117W        W18542   9.706  28.112  12.528
46118W        W18543   6.703  25.100  13.918
46119W        W18544  15.678  30.707   1.443
46120W        W18545   7.315  25.544   0.636
46121W        W18546  40.067  22.141   3.647
46122W        W18547  36.017  18.002   2.221
46123W        W18548   5.913  43.075   5.205
46124W        W18549  24.574  37.918   3.725
46125W        W18550  22.271  28.981   1.982
46126W        W18551   4.119  36.681  11.928
46127W        W18552  43.249  15.152  14.957
46128W        W18553  40.283  20.769  12.074
46129W        W18554  40.280  28.710   0.487
46130W        W18555  36.196  22.141   0.430
46131W        W18556  33.256  39.901   0.919
46132W        W18557  38.044  35.509  12.762
46133W        W18558  44.751  25.410   0.982
46134W        W18559  37.033  32.223   3.842
46135W        W18560   2.155   3.364  13.294
46136W        W18561  15.554   9.912   4.269
46137W        W18562  22.259   5.713   1.378
46138W        W18563  36.504  20.527   5.024
46139W        W18564  22.532  15.614   2.638
46140W        W18565   4.816  39.272  14.302
46141W        W18566   5.938  30.704   1.642
46142W        W18567  39.292   8.299   0.449
46143W        W18568  21.002  25.637  14.977
46144W        W18569  42.790   6.308  12.316
46145W        W18570  13.114  26.375   5.001
46146W        W18571  33.808  31.055   3.372
46147W        W18572   9.972   0.889  10.772
46148W        W18573  33.945  34.023   4.525
46149W        W18574  20.581  19.835  10.454
46150W        W18575  13.400  17.022   1.785
46151W        W18576  31.884  33.063   4.656
46152W        W18577  44.683  42.314   1.806
46153W        W18578   8.278  27.901   1.268
46154W        W18579  10.668  30.722   3.212
46155W        W18580  36.886  17.514   2.512
46156W        W18581  44.045  37.475  13.088
46157W        W18582  26.789  18.327  10.268
46158W        W18583  15.302  27.394   0.191
46159W        W18584  31.298  24.481  10.991
46160W        W18585  10.145  39.620  13.439
46161W        W18586   6.457  13.163   3.311
46162W        W18587  28.631  29.525  12.139
46163W        W18588  37.564   3.706  10.695
46164W        W18589  36.358  44.329   4.139
46165W        W18590  38.205  37.350  12.336
46166W        W18591  40.788  20.924   0.220
46167W        W18592  28.234  11.978   1.070
46168W        W18593  37.402  25.693   4.612
46169W        W18594  19.965  31.647   1.060
46170W        W18595  25.762   1.243  13.359
46171W        W18596  20.720   6.431   4.718
46172W        W18597   4.091   4.276  11.069
46173W        W18598  38.953  38.917   1.402
46174W        W18599   2.317  29.659   1.948
46175W        W18600  33.765  32.543  10.415
46176W        W18601  13.048  35.972   3.931
46177W        W18602  44.074  20.346   1.087
46178W        W18603   2.206  10.857   0.916
46179W        W18604  11.497  42.866  12.989
46180W        W18605  13.706   1.938   0.647
46181W        W18606  19.639   6.250  14.855
46182W        W18607  35.817  24.594   0.795
46183W        W18608  40.916  35.223  12.397
46184W        W18609  10.778  24.485  14.494
46185W        W18610   8.988  35.034   2.022
46186W        W18611  30.681   7.095   1.985
46187W        W18612  42.053  44.331  13.426
46188W        W18613  27.483  44.738   3.255
46189W        W18614  12.626  33.615   0.754
46190W        W18615   6.370   2.961  14.811
46191W        W18616  40.603  15.125  11.459
46192W        W18617  30.395  13.191   0.766
46193W        W18618  10.294  11.285   0.304
46194W        W18619   8.655  39.406  11.692
46195W        W18620  12.094  19.129   0.113
46196W        W18621  24.505  17.675   0.974
46197W        W18622   6.795  28.703  11.449
46198W        W18623  43.374  16.280  13.915
46199W        W18624  30.085  26.520  12.845
46200W        W18625  25.470  24.204   3.355
46201W        W18626  17.772  34.637  11.445
46202W        W18627  28.496   6.308   1.533
46203W        W18628  28.920  25.000   1.736
46204W        W18629   9.800   0.172  11.112
46205W        W18630  23.524  17.677  14.088
46206W        W18631   7.635  20.216  11.922
46207W        W18632  34.346  35.057   2.273
46208W        W18633  25.218   6.846   2.773
46209W        W18634   7.416   2.227   4.317
46210W        W18635  18.005  20.604  14.859
46211W        W18636  31.177  22.138   3.194
46212W        W18637   5.434   1.252   2.893
46213W        W18638  39.867  35.557  13.690
46214W        W18639   0.345   9.372   1.727
46215W        W18640  20.196  19.811   3.153
46216W        W18641  28.392  38.639   1.953
46217W        W18642  22.105  14.086   1.766
46218W        W18643  14.491   4.833   0.320
46219W        W18644  31.620  19.755  10.768
46220W        W18645   9.829  27.882   3.713
46221W        W18646   7.156  38.939   4.693
46222W        W18647  34.184   9.544   0.893
46223W        W18648  13.177   0.715   4.686
46224W        W18649  28.983   1.260  14.344
46225W        W18650  20.622  30.554  12.559
46226W        W18651  22.067  16.537   2.235
46227W        W18652  44.075  23.327   3.731
46228W        W18653  16.688  14.698  13.940
46229W        W18654  14.604   8.920  12.499
46230W        W18655   7.610  43.330  14.963
46231W        W18656  26.132  17.699  11.150
46232W        W18657  43.081  37.000  12.859
46233W        W18658  21.742   8.539   3.212
46234W        W18659  24.859  34.840  11.200
46235W        W18660   7.877  14.210   4.241
46236W        W18661  41.332  19.037  14.033
46237W        W18662  19.378  15.708   5.123
46238W        W18663  30.918  16.764   3.620
46239W        W18664   3.357  43.483  12.318
46240W        W18665  25.946   8.216   3.716
46241W        W18666   6.527  17.408   9.895
46242W        W18667  22.141  23.035   3.252
46243W        W18668  21.516  35.455  14.298
46244W        W18669  38.655  37.134  12.243
46245W        W18670  19.526  10.644   0.503
46246W        W18671   0.114  28.688   4.126
46247W        W18672  27.037   1.959   4.277
46248W        W18673  24.214  30.926   5.053
46249W        W18674  30.999   5.265  14.588
46250W        W18675  26.392  28.994  14.925
46251W        W18676  23.568   9.133   0.763
46252W        W18677  17.713  28.367  14.403
46253W        W18678  16.472   1.606  11.066
46254W        W18679   4.694   8.540  13.049
46255W        W18680  42.482   9.403   3.818
46256W        W18681  44.038  10.812   4.706
46257W        W18682  37.792  12.297   2.819
46258W        W18683  15.281  12.354   4.207
46259W        W18684  24.715  27.548  12.006
46260W        W18685   0.340  16.849  13.452
46261W        W18686   4.816   4.913   2.765
46262W        W18687  26.684  21.806   3.644
46263W        W18688   2.440  33.529   4.125
46264W        W18689   6.151  10.311   3.390
46265W        W18690  42.782  18.571  14.515
46266W        W18691  19.443  34.896  14.797
46267W        W18692  15.316  18.589   0.338
46268W        W18693   7.786  44.966  11.479
46269W        W18694  22.803  41.527   0.286
46270W        W18695  35.124   6.651  10.301
46271W        W18696   4.266  42.204  13.019
46272W        W18697  33.367  17.265  11.027
46273W        W18698   5.301   4.060  14.862
46274W        W18699  18.247  35.634   0.823
46275W        W18700  26.682  19.681  12.931
46276W        W18701  22.754   3.715   2.643
46277W        W18702   7.585  20.295  13.004
46278W        W18703  30.195   9.564   0.321
46279W        W18704  42.576  18.667   0.857
46280W        W18705   5.580  28.863  13.557
46281W        W18706   7.266  25.062   0.355
46282W        W18707  31.074   9.155  11.686
46283W        W18708  15.620   4.452   2.969
46284W        W18709   5.685   8.680   3.782
46285W        W18710  16.186  20.596  12.942
46286W        W18711  34.342  10.255  12.833
46287W        W18712  29.637  42.291  13.448
46288W        W18713  28.679  18.706   3.682
46289W        W18714   5.023  23.993   2.725
46290W        W18715  16.581  42.440   1.753
46291W        W18716   2.811  18.160  10.740
46292W        W18717   9.780  35.154   0.465
46293W        W18718  16.965  26.093   1.088
46294W        W18719  41.531  19.812   0.880
46295W        W18720  35.559  44.785   0.757
46296W        W18721  15.077  20.215  13.442
46297W        W18722  13.799   1.783  14.204
46298W        W18723  41.401  42.090  14.900
46299W        W18724   9.307  30.068   4.872
46300W        W18725  26.359  32.796   5.554
46301W        W18726  21.954  43.918  14.869
46302W        W18727  10.829  13.818  14.746
46303W        W18728  37.009   4.435   0.292
46304W        W18729  37.210  43.456  13.477
46305W        W18730  15.437  34.374   5.008
46306W        W18731  30.270  40.633   2.907
46307W        W18732  37.485  19.018   2.227
46308W        W18733  16.711  24.409  14.586
46309W        W18734  38.167   8.842  10.658
46310W        W18735  29.666  10.404  10.770
46311W        W18736  44.722  30.603   0.785
46312W        W18737  43.249  15.248   2.702
46313W        W18738   4.823  26.217  11.931
46314W        W18739   5.437  20.605  12.066
46315W        W18740  20.883  10.240   1.219
46316W        W18741  43.827   7.915  11.714
46317W        W18742   1.892  13.379  14.853
46318W        W18743  44.305   0.022  14.346
46319W        W18744  39.717  12.307   1.941
46320W        W18745   0.491  15.474  13.829
46321W        W18746  43.963  32.474  11.943
46322W        W18747  39.372  19.063  11.044
46323W        W18748  20.503  35.459  10.344
46324W        W18749  37.511   9.911   2.796
46325W        W18750  16.387  26.956  11.413
46326W        W18751  43.943  38.867   1.343
46327W        W18752   8.651  14.083   2.881
46328W        W18753  24.564  25.434  11.641
46329W        W18754  25.225  13.424  14.434
46330W        W18755   6.579   4.534  10.922
46331W        W18756  44.134  31.121  14.311
46332W        W18757  16.636   6.453  14.616
46333W        W18758  38.869  41.293   1.345
46334W        W18759   9.767  31.573  11.182
46335W        W18760  34.908  39.476   2.278
46336W        W18761  21.663   7.434  10.698
46337W        W18762  10.279  21.859   4.822
46338W        W18763   3.784  19.467  13.148
46339W        W18764  44.318  25.952  13.833
46340W        W18765  28.131  36.015  11.950
46341W        W18766  18.747   9.857   0.550
46342W        W18767  25.713  36.453   2.250
46343W        W18768  36.283   5.814  11.459
46344W        W18769  25.064  15.546   3.209
46345W        W18770   2.660  11.251  14.300
46346W        W18771  36.554  11.592  10.701
46347W        W18772  14.015  14.061  12.880
46348W        W18773  44.918  14.359   2.910
46349W        W18774  44.663   3.452   4.119
46350W        W18775   8.868  19.818  10.557
46351W        W18776   5.810  36.618   0.742
46352W        W18777   1.752  13.165   1.751
46353W        W18778   4.689  23.962  13.315
46354W        W18779  16.643  43.570  10.946
46355W        W18780  40.255  36.449   2.854
46356W        W18781   1.246   7.882  14.990
46357W        W18782  17.604  23.457   2.201
46358W        W18783  29.844  25.121  13.487
46359W        W18784  22.533  43.943   0.747
46360W        W18785   2.961  10.727   1.773
46361W        W18786  41.483  44.144   0.954
46362W        W18787   6.742  24.934   0.843
46363W        W18788  33.424   7.339   1.321
46364W        W18789  16.107  17.659   3.572
46365W        W18790  22.478   3.820  13.545
46366W        W18791  34.849   4.296   1.703
46367W        W18792  14.043  38.451  10.627
46368W        W18793   3.024   4.334   3.681
46369W        W18794  42.483  23.232  13.114
46370W        W18795  27.398  22.788  11.927
46371W        W18796  34.984  21.122   3.571
46372W        W18797  42.870  17.237   4.034
46373W        W18798  11.598  30.495   0.217
46374W        W18799   0.010  27.955  10.741
46375W        W18800   2.636  35.945   4.683
46376W        W18801  33.400  44.426   0.092
46377W        W18802   2.252  19.149   0.372
46378W        W18803   9.684  39.480  13.241
46379W        W18804  13.151   0.076   4.771
46380W        W18805  27.343  43.460  10.600
46381W        W18806  23.008  22.709   0.177
46382W        W18807  39.424  25.548  14.956
46383W        W18808  36.505  40.376  12.280
46384W        W18809   6.229  28.224   2.471
46385W        W18810  34.479  16.639   0.498
46386W        W18811  44.273  23.924  14.033
46387W        W18812  27.559  16.314   1.899
46388W        W18813  42.981  11.624   2.670
46389W        W18814  23.544  38.019   2.450
46390W        W18815  14.701  10.814  11.603
46391W        W18816  12.252  42.995  10.743
46392W        W18817  16.637  20.569   4.285
46393W        W18818  39.511  29.551   0.882
46394W        W18819  44.949  14.074  13.724
46395W        W18820  30.194  28.689  13.926
46396W        W18821  44.388   4.690  11.095
46397W        W18822  39.122  27.871   0.229
46398W        W18823  13.041  10.694  11.502
46399W        W18824  38.820  12.792  11.564
46400W        W18825  14.731  22.713  10.098
46401W        W18826  23.240   9.374   2.869
46402W        W18827  33.254  23.021  12.578
46403W        W18828  30.043  37.369  12.972
46404W        W18829   9.801   6.243  13.886
46405W        W18830  29.174   5.823  13.305
46406W        W18831  19.716   5.880  12.035
46407W        W18832  18.046  10.907  11.887
46408W        W18833  26.165  13.781   0.002
46409W        W18834   0.690  41.848   4.429
46410W        W18835  15.130  41.532  13.020
46411W        W18836  18.967   5.960  12.457
46412W        W18837  34.802  37.528   0.368
46413W        W18838  20.673  39.409   2.227
46414W        W18839  16.885   7.895   2.192
46415W        W18840  27.485  10.108  10.898
46416W        W18841   3.418  13.803  14.780
46417W        W18842  41.941   1.454   4.889
46418W        W18843  43.286  15.751   0.929
46419W        W18844  29.533  16.039   3.143
46420W        W18845  14.165  15.292  11.521
46421W        W18846  15.531  20.118   4.919
46422W        W18847  19.545  16.598   1.919
46423W        W18848  32.731  15.533  14.815
46424W        W18849  27.249  26.579   3.639
46425W        W18850  27.719  10.001  11.899
46426W        W18851  36.914  19.800   2.026
46427W        W18852  21.590   3.327   2.726
46428W        W18853  41.422  37.102   0.297
46429W        W18854   4.339   6.118   0.446
46430W        W18855   0.757  29.975  12.926
46431W        W18856  23.036   3.325   0.419
46432W        W18857  18.747  16.124   0.349
46433W        W18858  13.649  29.357   3.175
46434W        W18859   6.947  36.401  14.992
46435W        W18860   3.219  35.485   2.885
46436W        W18861   4.963  19.164   0.897
46437W        W18862  19.647   9.466   3.677
46438W        W18863  19.219  44.550   1.719
46439W        W18864  43.290  32.737   2.353
46440W        W18865  12.755  24.205  10.152
46441W        W18866  30.696   1.447  13.005
46442W        W18867  19.674  38.148   3.252
46443W        W18868   9.629   6.472  11.992
46444W        W18869  11.817  24.279  11.440
46445W        W18870   2.326   9.315   0.499
46446W        W18871   0.981   6.895   4.658
46447W        W18872   3.737  31.714  12.879
46448W        W18873   4.288  23.773   3.075
46449W        W18874  42.014  10.985   9.832
46450W        W18875  34.726  18.308  10.740
46451W        W18876  20.000   3.831   4.782
46452W        W18877  37.620  11.625  14.481
46453W        W18878  44.919  40.366   0.032
46454W        W18879   2.999  28.006  14.959
46455W        W18880  16.659   5.554  12.995
46456W        W18881  18.815  44.951   0.173
46457W        W18882  30.482  24.043   5.660
46458W        W18883  29.246   1.414   4.152
46459W        W18884  38.052  22.718  10.678
46460W        W18885  26.499   0.017  13.870
46461W        W18886  43.586  31.828   3.279
46462W        W18887  13.514  24.112  11.448
46463W        W18888  17.573  11.021  10.469
46464W        W18889  28.884  19.717   1.407
46465W        W18890  27.341  22.936  12.431
46466W        W18891  32.116   2.373  11.144
46467W        W18892  20.107  34.343   2.341
46468W        W18893  14.467  21.635  12.440
46469W        W18894  32.907  27.731   2.368
46470W        W18895  22.110   5.619   2.338
46471W        W18896  34.155  30.672   3.301
46472W        W18897  20.816  13.031   4.354
46473W        W18898  23.913  31.262   5.329
46474W        W18899  38.901   2.038   1.562
46475W        W18900  15.157   8.866  14.874
46476W        W18901   5.112  29.675  14.500
46477W        W18902  25.464  42.650  13.378
46478W        W18903  24.509  44.023  12.017
46479W        W18904  18.205   2.150  13.683
46480W        W18905  28.213   3.693  10.742
46481W        W18906  17.209  19.745   2.237
46482W        W18907  24.655   9.736   3.230
46483W        W18908  44.884   0.167  12.163
46484W        W18909  24.065  43.737  10.399
46485W        W18910  29.965   3.069  12.472
46486W        W18911   8.170  16.347   2.287
46487W        W18912  12.181  12.115  12.528
46488W        W18913  39.376  34.487   0.076
46489W        W18914   7.171  26.086   2.365
46490W        W18915  16.537  11.181   4.112
46491W        W18916  13.118  21.047  14.757
46492W        W18917  29.815  18.810   3.792
46493W        W18918  17.311  31.929   4.635
46494W        W18919  14.752  17.586   3.287
46495W        W18920   1.456  11.958   4.316
46496W        W18921  42.823  18.656   0.422
46497W        W18922  39.583  11.746  13.007
46498W        W18923  35.049  24.145   4.413
46499W        W18924  44.292   0.854   3.326
46500W        W18925  32.222  34.609   3.636
46501W        W18926  20.970  10.404  14.950
46502W        W18927   6.304  28.085  13.352
46503W        W18928  30.466  10.142  11.648
46504W        W18929  15.284   8.932   3.374
46505W        W18930  33.368   7.195  13.327
46506W        W18931   0.741  37.489   0.473
46507W        W18932  18.156  31.391   1.893
46508W        W18933  14.611   5.636   3.291
46509W        W18934  44.789  42.439  12.896
46510W        W18935  32.923  15.732   0.300
46511W        W18936  39.104  25.072  11.977
46512W        W18937  14.920   9.341  12.568
46513W        W18938  28.109  15.346   0.509
46514W        W18939  26.641  33.737  14.016
46515W        W18940  29.601  17.317   1.919
46516W        W18941  13.411  11.221   3.138
46517W        W18942   4.618   9.588   0.848
46518W        W18943  12.081  12.680  14.402
46519W        W18944  28.615  36.776  11.493
46520W        W18945   5.116   6.574  10.595
46521W        W18946  36.848  24.751   0.931
46522W        W18947  27.850   9.161   0.928
46523W        W18948  25.074  36.469   1.319
46524W        W18949  18.734  43.071  10.187
46525W        W18950  21.773   4.215  13.379
46526W        W18951  19.831  39.023   4.509
46527W        W18952  13.971  18.043  12.104
46528W        W18953  18.584  43.755  11.105
46529W        W18954  40.965  44.871  11.956
46530W        W18955  24.967   5.384   0.048
46531W        W18956  38.387  38.548  12.012
46532W        W18957  24.052  18.977   1.368
46533W        W18958  29.457  22.643   1.832
46534W        W18959  29.470   7.703   4.493
46535W        W18960   2.727  31.490   4.142
46536W        W18961  34.057  23.809   0.272
46537W        W18962  17.315   1.514  12.787
46538W        W18963  28.670  38.177  13.487
46539W        W18964  23.014  35.479   0.539
46540W        W18965   2.859  39.960   4.593
46541W        W18966  38.311  34.399  14.313
46542W        W18967   8.777  12.668   2.895
46543W        W18968  15.475  39.363   0.736
46544W        W18969  39.933  30.097   3.802
46545W        W18970   9.533   0.225  14.080
46546W        W18971  27.523   0.836   2.817
46547W        W18972  21.148  38.000   0.902
46548W        W18973   8.994  29.033  11.987
46549W        W18974  12.113  23.471  11.617
46550W        W18975  14.337   5.816   2.355
46551W        W18976  26.884  23.504   4.211
46552W        W18977  15.907  33.631  10.103
46553W        W18978  41.511  10.279  13.808
46554W        W18979   9.508  15.521   3.335
46555W        W18980   5.364  38.243  11.084
46556W        W18981  35.318  27.709  13.443
46557W        W18982  16.403  17.964  13.930
46558W        W18983   7.255  19.170  11.594
46559W        W18984  26.953  37.380  14.338
46560W        W18985  13.350  11.712   4.164
46561W        W18986  26.213  13.531   2.777
46562W        W18987  23.657  14.380  12.440
46563W        W18988  22.555   5.035   4.204
46564W        W18989  37.996   7.958  13.553
46565W        W18990  20.306  31.982   2.237
46566W        W18991  39.512  21.478  14.217
46567W        W18992   5.150  16.733  13.168
46568W        W18993  37.562  10.896   1.814
46569W        W18994   1.400  37.921  11.379
46570W        W18995  10.345  23.845  14.316
46571W        W18996   2.161  17.231   3.131
46572W        W18997  10.923  12.763   1.757
46573W        W18998  25.484  31.353  10.800
46574W        W18999  39.130   3.449   1.479
46575W        W19000  25.288   1.414   1.197
46576W        W19001  22.536  26.903  14.082
46577W        W19002   3.004  26.369  11.073
46578W        W19003   2.548  20.515   2.002
46579W        W19004  35.097  16.541  11.670
46580W        W19005  32.979  32.497   2.294
46581W        W19006  26.720  38.024  11.953
46582W        W19007  15.645  29.471  13.365
46583W        W19008  33.938   4.272   4.387
46584W        W19009  19.584  43.409  12.041
46585W        W19010   8.740  29.671  11.468
46586W        W19011  42.606  17.492   5.000
46587W        W19012  34.871  12.644   4.045
46588W        W19013  32.087  29.383  14.036
46589W        W19014   7.839   6.007   1.247
46590W        W19015  40.273  20.355  10.453
46591W        W19016  23.570  38.002   2.944
46592W        W19017  26.053  25.485  13.633
46593W        W19018   3.661  16.226  12.011
46594W        W19019   4.422   7.194   4.034
46595W        W19020   8.002  28.476   0.412
46596W        W19021  31.997   9.227  13.322
46597W        W19022  15.838  44.262   2.152
46598W        W19023  39.414  22.720  12.107
46599W        W19024   6.475  41.725  12.098
46600W        W19025  29.298  16.962  13.342
46601W        W19026   9.438   8.730  12.969
46602W        W19027  13.249   7.016   4.963
46603W        W19028  22.627  12.986  11.961
46604W        W19029   5.725  31.487   0.422
46605W        W19030   2.138  10.216  14.562
46606W        W19031  32.268  42.044   2.759
46607W        W19032  10.607  44.834   2.247
46608W        W19033  10.906   3.823  11.128
46609W        W19034   8.764  28.598  14.077
46610W        W19035  37.241   4.504   2.351
46611W        W19036  21.850  30.612   4.180
46612W        W19037   5.193   0.709  12.568
46613W        W19038  31.979  11.229  12.188
46614W        W19039  42.945  35.452   0.518
46615W        W19040  16.566  31.869   1.904
46616W        W19041  36.005  42.931   1.256
46617W        W19042  25.860  43.233   4.251
46618W        W19043  17.817   7.381   4.293
46619W        W19044  39.978  43.407   3.065
46620W        W19045   8.968  27.448   4.724
46621W        W19046  17.757  15.774   1.245
46622W        W19047  23.305   9.845   1.757
46623W        W19048  21.823  14.833  14.526
46624W        W19049  42.948  12.249   0.387
46625W        W19050  32.591  26.547   4.341
46626W        W19051  10.415  33.429  12.049
46627W        W19052  42.428  34.871  10.550
46628W        W19053   7.846  36.335   0.752
46629W        W19054   9.290   4.798  12.926
46630W        W19055  15.208  23.480   1.923
46631W        W19056  36.412  25.816  14.861
46632W        W19057   0.496   4.374   1.839
46633W        W19058  15.266  12.557   0.426
46634W        W19059   6.685  33.358  14.947
46635W        W19060  12.661  24.540  14.568
46636W        W19061   9.462  15.418  10.134
46637W        W19062  25.480  32.871   2.855
46638W        W19063   3.776  21.706   4.157
46639W        W19064  24.234  28.052  13.538
46640W        W19065  33.170   8.275   3.080
46641W        W19066   0.459  21.182  14.816
46642W        W19067   5.374  25.692  11.999
46643W        W19068  40.001  31.365   4.299
46644W        W19069  15.169   5.004   2.108
46645W        W19070  31.838  27.655   5.117
46646W        W19071  22.144   0.897   1.637
46647W        W19072  15.226  32.402   5.042
46648W        W19073  20.174   9.600  11.199
46649W        W19074  38.538  11.719  12.386
46650W        W19075  39.285  16.600  12.901
46651W        W19076  34.073   3.183   0.699
46652W        W19077   2.145   2.213  12.370
46653W        W19078  37.488   3.281  10.358
46654W        W19079  13.610  13.201   1.694
46655W        W19080  21.945  40.787  11.825
46656W        W19081  17.853  12.732  13.830
46657W        W19082  19.376   0.459  11.655
46658W        W19083  24.930  44.945  13.773
46659W        W19084  31.617  41.537  14.306
46660W        W19085  34.472  16.953   0.924
46661W        W19086  40.535  11.654   1.851
46662W        W19087   6.139  17.776   3.225
46663W        W19088  17.528  24.776   2.687
46664W        W19089  43.902   8.752  10.630
46665W        W19090  38.751  17.685   0.814
46666W        W19091  30.479  41.904  10.067
46667W        W19092  15.719  39.234  12.973
46668W        W19093  13.354  34.419   0.288
46669W        W19094  12.295  26.133   0.795
46670W        W19095  36.612   5.325   0.424
46671W        W19096  21.103  25.613   0.496
46672W        W19097  16.570  15.795   1.152
46673W        W19098  34.487  20.264   1.266
46674W        W19099  26.777   9.659  10.734
46675W        W19100   1.419  32.592  13.811
46676W        W19101   2.026  16.217  11.260
46677W        W19102   5.823  19.278  13.875
46678W        W19103  33.662  22.789  12.782
46679W        W19104  25.961  11.110  12.946
46680W        W19105  26.528  33.361  12.728
46681W        W19106  17.140  21.882  12.752
46682W        W19107  38.586  21.636   1.428
46683W        W19108  12.853  26.954   0.375
46684W        W19109  15.763  22.657   4.643
46685W        W19110  15.642   3.809  10.497
46686W        W19111  30.090   4.969   0.232
46687W        W19112  27.207  21.227   4.097
46688W        W19113  10.567   2.941  12.101
46689W        W19114   8.448  13.147  11.866
46690W        W19115  10.013  32.397  11.583
46691W        W19116  19.526  44.462   3.274
46692W        W19117  34.953   5.218   4.156
46693W        W19118  10.247  39.926  10.728
46694W        W19119  35.760  43.929  12.839
46695W        W19120  27.392  28.509  13.444
46696W        W19121  16.155  37.803  13.499
46697W        W19122  10.894  27.022   1.489
46698W        W19123   2.252  34.353  14.488
46699W        W19124   1.493  33.622  11.458
46700W        W19125  16.981  31.965   1.614
46701W        W19126   5.761   0.896  13.389
46702W        W19127   9.783  32.665   0.677
46703W        W19128  28.981  14.783   1.217
46704W        W19129  16.756  14.059   1.346
46705W        W19130  39.787  23.092  12.116
46706W        W19131  37.592  25.040  14.809
46707W        W19132   5.776  17.233   2.329
46708W        W19133   4.411  35.031  12.571
46709W        W19134  36.607  24.683   3.501
46710W        W19135  37.430  11.381   0.928
46711W        W19136  35.980  26.576   3.013
46712W        W19137   3.814  20.775   1.930
46713W        W19138  16.132  21.045   2.771
46714W        W19139  41.935   1.879   3.598
46715W        W19140  36.920  42.828   4.785
46716W        W19141  24.999  33.023  10.069
46717W        W19142  24.051   3.515  13.419
46718W        W19143   8.616  23.954  12.670
46719W        W19144  30.424  44.465  14.317
46720W        W19145  24.479  28.235  13.968
46721W        W19146  25.632  14.000  14.982
46722W        W19147   3.837  44.417  11.793
46723W        W19148   6.454  33.113   2.865
46724W        W19149  16.030  35.447   2.243
46725W        W19150  30.662  23.727   3.548
46726W        W19151  10.322  33.818   0.205
46727W        W19152  28.424  20.625   4.287
46728W        W19153  41.431  20.048   2.723
46729W        W19154   9.236  17.102   1.834
46730W        W19155  15.017  13.909   4.911
46731W        W19156  30.414  24.526  10.548
46732W        W19157  42.545   3.217   4.874
46733W        W19158  27.878  26.923   3.765
46734W        W19159  12.755  37.492  14.425
46735W        W19160  36.576  31.204   2.175
46736W        W19161  42.969  43.747   0.844
46737W        W19162  18.710  30.051   0.462
46738W        W19163  28.971   3.442   0.366
46739W        W19164  29.379  20.419   2.167
46740W        W19165  19.981   8.347   3.226
46741W        W19166  42.936  38.453   2.402
46742W        W19167   0.493  24.775   0.492
46743W        W19168   3.341  39.719   4.522
46744W        W19169  22.725  27.983   3.405
46745W        W19170   2.259  15.521  13.668
46746W        W19171  40.315  35.863   2.672
46747W        W19172  10.612  42.284  12.098
46748W        W19173  39.883  21.096  14.818
46749W        W19174  19.315  27.716   1.835
46750W        W19175   2.503  29.004   4.093
46751W        W19176  18.236  16.943   2.669
46752W        W19177   7.257  25.714   2.837
46753W        W19178  40.800   1.328   3.707
46754W        W19179   1.233  29.411   2.841
46755W        W19180  32.599  43.907   4.667
46756W        W19181  31.427   6.191  14.464
46757W        W19182  23.960  29.820  11.527
46758W        W19183  24.540   0.522   1.320
46759W        W19184  21.016   2.519   1.917
46760W        W19185  10.182  41.282   4.352
46761W        W19186  13.766  20.775   4.075
46762W        W19187  22.733  43.870   3.613
46763W        W19188  33.529   3.122   5.091
46764W        W19189  36.072  13.879   0.364
46765W        W19190  37.934  15.483  12.989
46766W        W19191  37.076   2.561   2.421
46767W        W19192  44.349  34.872   3.179
46768W        W19193  10.325  43.612  12.029
46769W        W19194   6.306   2.499   0.523
46770W        W19195  30.831   0.226  12.032
46771W        W19196  12.207  37.857  12.915
46772W        W19197  13.817  30.649  12.453
46773W        W19198   1.223  16.615  11.023
46774W        W19199  33.582  13.746  10.349
46775W        W19200  27.181  44.046   4.571
46776W        W19201  22.627  10.909   3.918
46777W        W19202  39.783  22.318   4.038
46778W        W19203   2.754  23.507  13.327
46779W        W19204  14.162   5.944   3.320
46780W        W19205  16.327  12.775   4.854
46781W        W19206  30.453  40.314   0.737
46782W        W19207  42.541  17.367  11.722
46783W        W19208   5.223   5.415   3.259
46784W        W19209  25.766  33.865  11.460
46785W        W19210  19.568  32.184  14.977
46786W        W19211   8.732  39.609  12.175
46787W        W19212  29.519  14.090   3.703
46788W        W19213  42.125  37.282   3.625
46789W        W19214  12.206  10.178   1.390
46790W        W19215  30.273  35.074  12.389
46791W        W19216  10.592   1.312   1.052
46792W        W19217  11.104   6.759  11.178
46793W        W19218  37.039  39.350   4.483
46794W        W19219   1.772  28.860   3.600
46795W        W19220  10.121   3.391   2.803
46796W        W19221  28.268  44.491  12.450
46797W        W19222  12.263  25.253   2.265
46798W        W19223  23.478   4.262   2.549
46799W        W19224   9.110  26.170   0.118
46800W        W19225  43.233  32.526   0.562
46801W        W19226  12.264  22.025  10.194
46802W        W19227   3.319   5.803   2.936
46803W        W19228  33.101  33.972   3.221
46804W        W19229   9.148  11.763  12.624
46805W        W19230   5.311  40.234   3.800
46806W        W19231  33.575  44.453  14.064
46807W        W19232  11.644  13.343   1.765
46808W        W19233  16.119   6.862   1.230
46809W        W19234  20.619   6.294   0.275
46810W        W19235   7.355  20.869  14.501
46811W        W19236  40.886   9.290   1.747
46812W        W19237   3.007  10.755   3.189
46813W        W19238  21.430  40.715  12.984
46814W        W19239  32.424  29.895   1.673
46815W        W19240  10.599  25.092  11.534
46816W        W19241  26.713  43.048   3.186
46817W        W19242  44.469  28.480  12.119
46818W        W19243  24.181  42.292  11.574
46819W        W19244  31.001  29.129   2.470
46820W        W19245  39.797  39.373   1.377
46821W        W19246  42.280  34.784  14.500
46822W        W19247  26.418  24.526   3.361
46823W        W19248  27.995  42.133   4.079
46824W        W19249  39.085  38.407   1.257
46825W        W19250  14.517  44.846   0.604
46826W        W19251  38.237  43.040   0.822
46827W        W19252  40.375  31.834   0.810
46828W        W19253  36.094  31.369  14.257
46829W        W19254  39.096  36.943   4.139
46830W        W19255  42.443   7.377  13.938
46831W        W19256  31.188  16.346   3.781
46832W        W19257  31.141  30.867  13.599
46833W        W19258  40.371  24.945   2.316
46834W        W19259   7.845  19.995   3.708
46835W        W19260  41.555   7.316   4.684
46836W        W19261  12.333  43.351   4.568
46837W        W19262  40.808  23.661   1.511
46838W        W19263  43.948   6.894  13.607
46839W        W19264  42.938  10.780   2.084
46840W        W19265  25.694  31.625   2.194
46841W        W19266   5.159  36.509   2.691
46842W        W19267  41.881  20.301  14.982
46843W        W19268  23.443  16.623   3.248
46844W        W19269  33.524  34.447  12.836
46845W        W19270   1.505  38.431  13.512
46846W        W19271   9.418  34.534  10.529
46847W        W19272  29.453  14.208   0.537
46848W        W19273  41.931   8.017   3.042
46849W        W19274  23.118   0.314  11.798
46850W        W19275  26.038  41.390  13.470
46851W        W19276  18.011   9.408   1.744
46852W        W19277   6.117  23.535   4.551
46853W        W19278  26.657  12.108   1.862
46854W        W19279  37.276  37.483  11.089
46855W        W19280  31.406  38.158  11.115
46856W        W19281   7.962  25.165   5.021
46857W        W19282  17.209  36.468   2.655
46858W        W19283  23.750  24.570   1.954
46859W        W19284  22.406  20.746   4.596
46860W        W19285  38.545  29.045   4.424
46861W        W19286   1.659  27.323   3.698
46862W        W19287   5.211   7.260  14.296
46863W        W19288  44.032  26.484  12.714
46864W        W19289  32.465  22.443   0.826
46865W        W19290  34.576  36.057  10.723
46866W        W19291  15.253   0.216   1.330
46867W        W19292  33.610  26.268   5.158
46868W        W19293  28.424  12.367   1.379
46869W        W19294  22.093  41.867   4.719
46870W        W19295  42.815  27.632  10.512
46871W        W19296  35.370  31.552   3.845
46872W        W19297  39.324  27.534   1.403
46873W        W19298  19.142  20.256  13.320
46874W        W19299   1.378  17.689   4.542
46875W        W19300   3.766   1.796  10.733
46876W        W19301  29.817  44.320   3.769
46877W        W19302  29.596  14.196  13.479
46878W        W19303   9.834  16.752  11.538
46879W        W19304   9.149  35.997   2.844
46880W        W19305   8.981  14.643   0.720
46881W        W19306   0.447  41.290  11.460
46882W        W19307  27.902  42.487   1.363
46883W        W19308  26.597   9.274  14.703
46884W        W19309  34.992   2.481   4.947
46885W        W19310  35.337  37.762   3.712
46886W        W19311  19.141  37.315   4.502
46887W        W19312  26.120  35.857   0.944
46888W        W19313  21.797  39.830   2.366
46889W        W19314  15.080  29.381  12.790
46890W        W19315  10.147  35.513   0.376
46891W        W19316  16.853  25.080  11.481
46892W        W19317  23.193   5.740  13.856
46893W        W19318  22.510  41.589   4.127
46894W        W19319   6.220  44.807  13.579
46895W        W19320   0.689  43.043   0.021
46896W        W19321  34.967   9.861   0.255
46897W        W19322   5.140  35.959   0.738
46898W        W19323   4.457   3.847  11.061
46899W        W19324  39.431  13.955   4.229
46900W        W19325  42.861  11.356  11.753
46901W        W19326  16.177  11.977  13.339
46902W        W19327  33.066  21.784  13.505
46903W        W19328  26.512   8.648   0.916
46904W        W19329  37.881  27.110  11.126
46905W        W19330   5.435  41.238  14.875
46906W        W19331  13.384  10.677   1.633
46907W        W19332  26.286   3.827   1.978
46908W        W19333  44.523  10.588   4.578
46909W        W19334   4.457  11.691  14.534
46910W        W19335  10.761  23.717   4.221
46911W        W19336  33.159  39.062  13.959
46912W        W19337  35.253  13.249   2.865
46913W        W19338  26.740   3.711  11.657
46914W        W19339  28.531   6.047  10.644
46915W        W19340  11.381  16.265   3.188
46916W        W19341  40.580  41.937  14.749
46917W        W19342  18.346   5.707  14.425
46918W        W19343  30.425   6.925  11.570
46919W        W19344  37.545   7.760  13.345
46920W        W19345  26.572   5.034   3.132
46921W        W19346   5.247  14.803   4.101
46922W        W19347  23.683  26.215   1.395
46923W        W19348  32.944   8.494   2.114
46924W        W19349  21.701  27.188  13.025
46925W        W19350  41.184  28.264  11.067
46926W        W19351   5.071  18.244   3.566
46927W        W19352  40.773   5.698  14.499
46928W        W19353  41.558  39.455   1.191
46929W        W19354  21.778  16.691  14.585
46930W        W19355  43.945  43.562  12.575
46931W        W19356  22.108  39.048  11.439
46932W        W19357  36.881   9.729  10.439
46933W        W19358   4.304   1.340  12.412
46934W        W19359  18.781   5.908  11.970
46935W        W19360  10.892   6.149   3.222
46936W        W19361  10.795  29.224  10.800
46937W        W19362  19.512   5.983   1.888
46938W        W19363  28.593  26.085   3.987
46939W        W19364   5.238  23.283   0.952
46940W        W19365  26.942   3.254  13.858
46941W        W19366  14.761  10.881   1.388
46942W        W19367  44.734  31.766   3.880
46943W        W19368  23.743  44.960   2.791
46944W        W19369   3.193  41.810   2.736
46945W        W19370  36.868  43.867   4.396
46946W        W19371  15.065   7.428   1.955
46947W        W19372   0.363  17.845  10.724
46948W        W19373  20.229   2.322   3.241
46949W        W19374   7.105  19.511   0.359
46950W        W19375  35.390   4.135  10.757
46951W        W19376   5.025  16.675  10.990
46952W        W19377  41.271  19.646  10.822
46953W        W19378  41.497  39.311   3.680
46954W        W19379   7.694  36.616   2.240
46955W        W19380  19.518  10.262   1.923
46956W        W19381   3.752  42.195   0.836
46957W        W19382  44.959  34.313  11.885
46958W        W19383   9.905  42.937   1.900
46959W        W19384  41.838  40.049  11.112
46960W        W19385  12.205  22.045  11.625
46961W        W19386  35.478  33.391  11.978
46962W        W19387  38.810  31.515  10.724
46963W        W19388  44.090  30.710   1.552
46964W        W19389  19.163  22.808   4.832
46965W        W19390  13.299  39.310   2.870
46966W        W19391   8.282  15.184  10.786
46967W        W19392  13.603   8.123  11.117
46968W        W19393  24.644  16.776  14.725
46969W        W19394  35.417  27.723  14.348
46970W        W19395  22.643  15.272  13.585
46971W        W19396  26.542  44.829   2.742
46972W        W19397  27.271   2.855  14.046
46973W        W19398  32.923   3.463  14.537
46974W        W19399   0.029  32.453  12.036
46975W        W19400  11.400  17.255   4.684
46976W        W19401  24.605   8.606   3.680
46977W        W19402  12.880  16.809   4.208
46978W        W19403  32.449  13.841   3.849
46979W        W19404  30.913  29.417   0.782
46980W        W19405  17.989  26.168   0.806
46981W        W19406  10.783   2.853   2.751
46982W        W19407  11.197   3.342  13.520
46983W        W19408  44.266   7.779  12.895
46984W        W19409  35.926  31.079   0.445
46985W        W19410  39.601  37.617  13.834
46986W        W19411   0.252  28.887  12.417
46987W        W19412   0.900  16.966  14.220
46988W        W19413   7.318  29.875  13.833
46989W        W19414  12.342   3.428   0.939
46990W        W19415  16.060  38.560  12.087
46991W        W19416   3.830  42.067   1.348
46992W        W19417  15.291   0.738   0.349
46993W        W19418   0.732  44.019   1.162
46994W        W19419  16.549  29.169  13.498
46995W        W19420   9.433  10.791   4.825
46996W        W19421   9.493   8.622  11.293
46997W        W19422   3.183  26.042   3.692
46998W        W19423   7.225   6.147  12.479
46999W        W19424  14.588  22.412  12.462
47000W        W19425  19.799   7.662   0.961
47001W        W19426  22.996   2.841   1.172
47002W        W19427   5.742  33.966  10.518
47003W        W19428  18.209  42.444  11.187
47004W        W19429  42.712  18.266  14.914
47005W        W19430  42.417  10.432   0.878
47006W        W19431   4.616  44.817  12.051
47007W        W19432   2.801  17.804  13.798
47008W        W19433  26.479  33.378  13.240
47009W        W19434  28.009  16.164  12.048
47010W        W19435  28.119  23.684   0.449
47011W        W19436  31.861  10.697  13.390
47012W        W19437   9.754   7.872   0.768
47013W        W19438  13.552   1.895  11.347
47014W        W19439  23.708  20.375  10.656
47015W        W19440  24.001  37.082  11.169
47016W        W19441  38.597   3.363   1.406
47017W        W19442  40.450  44.019  11.128
47018W        W19443  29.266  34.973  12.185
47019W        W19444   6.231  29.087  14.409
47020W        W19445   3.171  41.107   0.147
47021W        W19446  37.511   3.285  13.469
47022W        W19447   2.714   3.962  12.381
47023W        W19448  30.895   4.037   0.950
47024W        W19449   8.487  37.459   2.896
47025W        W19450  12.187   7.689   0.776
47026W        W19451  11.928  23.169   0.181
47027W        W19452   9.792   5.344  14.583
47028W        W19453   4.370  28.099   2.975
47029W        W19454  43.759  14.561   2.092
47030W        W19455  36.434  35.886   1.503
47031W        W19456  21.712  23.625   1.288
47032W        W19457  14.723   9.782   4.668
47033W        W19458  28.613  10.639   1.720
47034W        W19459  20.216  25.617   4.661
47035W        W19460  10.253  15.592   2.166
47036W        W19461  27.984  39.425  14.842
47037W        W19462  16.781   1.179  11.012
47038W        W19463  37.325   6.275  11.054
47039W        W19464  27.908  18.980   2.056
47040W        W19465  41.569  37.425  13.019
47041W        W19466   2.411  43.556  12.653
47042W        W19467  37.375  14.099  11.476
47043W        W19468  36.340  32.512   3.394
47044W        W19469  21.569  38.409  13.440
47045W        W19470   2.590  41.061   3.490
47046W        W19471  24.644   9.770  13.334
47047W        W19472  32.599  30.680   2.386
47048W        W19473   2.494  22.606   1.676
47049W        W19474  42.786  15.751  11.438
47050W        W19475  43.993   4.148   0.064
47051W        W19476  29.098  38.781   2.248
47052W        W19477  41.262  14.305   2.169
47053W        W19478  25.745  41.527   1.313
47054W        W19479  41.913  17.258  12.918
47055W        W19480  39.721  23.491  12.569
47056W        W19481  14.115  41.477   4.724
47057W        W19482  22.746  43.615  13.595
47058W        W19483  24.102  16.993  10.583
47059W        W19484   7.191  43.977   4.717
47060W        W19485  35.014  23.295   2.405
47061W        W19486  15.241  43.555  13.287
47062W        W19487  43.785   6.369  12.840
47063W        W19488  11.842   7.997   2.482
47064W        W19489  43.812  33.479  11.994
47065W        W19490  40.562  35.436   3.337
47066W        W19491  38.472  35.935   4.507
47067W        W19492  19.427   8.608   2.418
47068W        W19493   1.895  42.491  12.922
47069W        W19494  16.420  21.923  13.446
47070W        W19495  12.571   2.428   0.999
47071W        W19496  29.035  29.019   3.598
47072W        W19497  39.395  21.584   3.761
47073W        W19498  17.629  31.300   2.319
47074W        W19499  44.680   4.672  14.997
47075W        W19500  33.652   7.929  12.044
47076W        W19501   3.161  16.115   1.953
47077W        W19502   2.789  17.812  12.018
47078W        W19503  26.209  13.863   0.890
47079W        W19504  12.149  26.576   3.523
47080W        W19505  40.302  25.322  12.401
47081W        W19506  32.644  22.478  13.571
47082W        W19507  44.002  38.140   2.056
47083W        W19508   6.226  42.031   0.313
47084W        W19509   6.228   1.883   3.855
47085W        W19510   6.698  28.012   4.796
47086W        W19511  30.958  14.459   5.142
47087W        W19512  36.784  26.134  12.458
47088W        W19513   4.496   9.044   4.976
47089W        W19514   7.784  30.142  11.471
47090W        W19515  22.555  14.351  12.055
47091W        W19516   0.422   3.098   4.582
47092W        W19517  28.983  38.053  11.160
47093W        W19518   3.829  26.298   3.312
47094W        W19519   8.902  41.823   1.751
47095W        W19520  18.738   1.821   1.472
47096W        W19521   9.529  42.755  12.361
47097W        W19522  24.962  37.441  11.545
47098W        W19523  30.728  41.813  13.044
47099W        W19524  41.225  44.518  11.682
47100W        W19525  19.552  19.800   1.265
47101W        W19526   9.540  18.849   1.825
47102W        W19527  23.017  27.903   4.217
47103W        W19528  15.630  39.945   1.447
47104W        W19529  18.065  43.861  11.138
47105W        W19530  12.291   0.248  13.823
47106W        W19531  11.703  17.708  14.998
47107W        W19532   4.936   9.886   3.260
47108W        W19533  26.647   0.707  12.054
47109W        W19534  12.874  29.565  14.494
47110W        W19535   8.259  35.996   3.874
47111W        W19536  15.629  39.347  13.779
47112W        W19537  32.097  34.686   1.724
47113W        W19538  35.973  37.421   2.199
47114W        W19539  36.700   9.875  13.451
47115W        W19540  32.292  27.984  14.855
47116W        W19541  13.069  23.801  12.453
47117W        W19542  20.105  38.547   1.678
47118W        W19543  15.035  37.590  12.984
47119W        W19544  42.498  24.547  11.456
47120W        W19545  25.275  33.944  11.591
47121W        W19546  30.332  39.502  12.890
47122W        W19547  23.667  40.507   1.311
47123W        W19548   1.490  44.812   3.961
47124W        W19549  13.333  30.156  14.396
47125W        W19550   7.425  27.011  14.743
47126W        W19551   4.785  39.229   2.933
47127W        W19552  27.016   8.344   2.217
47128W        W19553  31.824  27.168  13.151
47129W        W19554  30.131  20.243   1.782
47130W        W19555  29.460  31.904  10.698
47131W        W19556  35.232  30.491  11.056
47132W        W19557  40.031  27.759   0.489
47133W        W19558  39.339  17.814  13.341
47134W        W19559  17.497  25.419  12.431
47135W        W19560  33.839  16.331   3.221
47136W        W19561  43.701  35.091   2.201
47137W        W19562  21.148   1.552   0.087
47138W        W19563   2.553   9.485   2.394
47139W        W19564  42.139  14.179   0.130
47140W        W19565  15.180  39.853   1.884
47141W        W19566  37.377  11.433  12.853
47142W        W19567  38.926  44.310  11.939
47143W        W19568  38.768  39.742   1.850
47144W        W19569  13.261  27.881   1.804
47145W        W19570   3.914  34.118  11.976
47146W        W19571  10.683   7.809   1.204
47147W        W19572  16.834   6.698   4.652
47148W        W19573  25.486   2.958   1.725
47149W        W19574   8.906  29.039  10.671
47150W        W19575  10.121   1.135   4.165
47151W        W19576  34.033  27.606  12.553
47152W        W19577  23.917  33.855  14.250
47153W        W19578  13.730  14.327  12.391
47154W        W19579   7.601   6.222   0.807
47155W        W19580  17.201   5.544  12.645
47156W        W19581  15.231   2.232   4.273
47157W        W19582  17.309  22.357  11.486
47158W        W19583   4.491  21.257  11.284
47159W        W19584  10.365   7.448   1.704
47160W        W19585   7.337  39.047   0.234
47161W        W19586  11.213  34.299  11.656
47162W        W19587  40.371  32.064   2.593
47163W        W19588  40.472   6.656   0.770
47164W        W19589  16.253  19.045  14.838
47165W        W19590  12.856  23.161  14.838
47166W        W19591   0.353  42.213  12.689
47167W        W19592  33.944  18.467  10.831
47168W        W19593   5.617   2.831   1.740
47169W        W19594   4.801   4.148  10.700
47170W        W19595  38.021  19.073  14.404
47171W        W19596  13.620  31.021  13.527
47172W        W19597  40.256  44.827   0.090
47173W        W19598  17.697  20.219  13.544
47174W        W19599  44.704  10.111   4.545
47175W        W19600   0.320   9.351  14.302
47176W        W19601   9.360  10.380  11.609
47177W        W19602   6.822  14.293   0.908
47178W        W19603  12.839  38.527  13.456
47179W        W19604   1.388  15.222   2.483
47180W        W19605  14.124  41.830   3.459
47181W        W19606   1.353  24.539   0.038
47182W        W19607  24.697  28.390   0.723
47183W        W19608  20.873   0.763  14.741
47184W        W19609  12.384   2.796  14.358
47185W        W19610   8.193   7.717  14.397
47186W        W19611  10.738  24.703   4.457
47187W        W19612  23.766  36.059   0.319
47188W        W19613   7.608  43.247   2.740
47189W        W19614  34.113   2.551   1.457
47190W        W19615  26.453  44.420   2.352
47191W        W19616  11.683  18.287  14.743
47192W        W19617   6.501  26.069  13.109
47193W        W19618  35.807  11.871  14.483
47194W        W19619  20.173   0.866   3.631
47195W        W19620  21.667   5.410   2.719
47196W        W19621   3.455  43.767   0.283
47197W        W19622   9.293  24.468  10.697
47198W        W19623  11.655  36.509   2.718
47199W        W19624  37.590   4.465  11.113
47200W        W19625  37.577   4.927   4.678
47201W        W19626  34.981  12.836   0.428
47202W        W19627  11.262  20.261  12.515
47203W        W19628  11.845  13.802   1.997
47204W        W19629   9.769   8.403  13.227
47205W        W19630  43.053  44.165   2.023
47206W        W19631  10.331  27.660   1.784
47207W        W19632  11.749   9.101  13.092
47208W        W19633  38.538  10.709  14.320
47209W        W19634  34.478   0.540  12.514
47210W        W19635  20.152  34.342  14.886
47211W        W19636   1.897  37.470   0.757
47212W        W19637  35.412   9.239   4.322
47213W        W19638  16.914  17.234   0.310
47214W        W19639  28.077  17.510  11.572
47215W        W19640   4.729   4.591  13.810
47216W        W19641  15.613   6.452  11.601
47217W        W19642   8.884  39.327  14.342
47218W        W19643   3.728  18.022   2.687
47219W        W19644  31.342  10.668  13.314
47220W        W19645  44.865  29.376  13.044
47221W        W19646   3.411  11.919  10.455
47222W        W19647   4.995   6.232  12.501
47223W        W19648   2.926  42.815   3.609
47224W        W19649   1.906  20.392  12.577
47225W        W19650  32.469  17.805   3.658
47226W        W19651  24.463  44.515  10.079
47227W        W19652  23.640   1.880  12.465
47228W        W19653  25.009   8.856  10.266
47229W        W19654  20.425  15.188   0.365
47230W        W19655   2.807  36.849   2.844
47231W        W19656   0.939  21.757   0.826
47232W        W19657  24.064  32.491  14.901
47233W        W19658  21.014   5.919   4.264
47234W        W19659  37.583  31.516   0.919
47235W        W19660  21.472  37.332   2.221
47236W        W19661  38.424  42.223   1.292
47237W        W19662   9.798   8.010  10.771
47238W        W19663  34.858  15.367   0.269
47239W        W19664  35.433  21.313  12.582
47240W        W19665   5.408  30.915  10.697
47241W        W19666  27.616  21.536  12.557
47242W        W19667  11.413  21.740  14.942
47243W        W19668  22.246  25.271  12.819
47244W        W19669   7.248  16.817  11.008
47245W        W19670   2.921   0.011  11.500
47246W        W19671  33.965  23.541   4.560
47247W        W19672  35.294   3.093   1.259
47248W        W19673  32.384  10.509   3.280
47249W        W19674   6.033  31.865   2.893
47250W        W19675  36.396   9.318   9.408
47251W        W19676  32.069  20.518   4.344
47252W        W19677  40.414  37.540  14.355
47253W        W19678  36.799  21.093  12.515
47254W        W19679   0.800  33.116  13.342
47255W        W19680  27.986  25.517   2.789
47256W        W19681  38.907  11.405   2.099
47257W        W19682  26.588  23.061  12.509
47258W        W19683  15.483   0.199   3.293
47259W        W19684  24.704  33.537   0.781
47260W        W19685  16.064  19.100   0.359
47261W        W19686  28.916  11.848   4.762
47262W        W19687   4.967   5.086  13.822
47263W        W19688   9.239  23.553   0.243
47264W        W19689  29.096  43.748   3.178
47265W        W19690  26.061  40.813   2.090
47266W        W19691  12.030  33.109  11.546
47267W        W19692  17.033  43.350  12.145
47268W        W19693  16.808   2.432   3.854
47269W        W19694   9.054  30.113   1.865
47270W        W19695  38.963   4.698   2.607
47271W        W19696  35.911  19.544   4.694
47272W        W19697   3.871  41.854  13.738
47273W        W19698  15.688  30.643  12.024
47274W        W19699  22.041  15.740  10.185
47275W        W19700  11.133  20.996   1.194
47276W        W19701  29.632  32.942   4.521
47277W        W19702  20.861  20.254  11.282
47278W        W19703  23.533   1.739  14.851
47279W        W19704  33.090  25.207  14.771
47280W        W19705  35.603  14.474  14.821
47281W        W19706  36.200  16.851  12.563
47282W        W19707  30.130   2.810  12.918
47283W        W19708   4.904  14.474  13.925
47284W        W19709  30.956  20.975  13.845
47285W        W19710  35.889  32.056   2.204
47286W        W19711   6.403  41.383   3.686
47287W        W19712  15.608   0.494   2.775
47288W        W19713  42.018   7.692  11.158
47289W        W19714  25.813  14.311   4.820
47290W        W19715  11.737  42.350   0.265
47291W        W19716  22.979  20.500  13.544
47292W        W19717  20.773  28.690  14.355
47293W        W19718  40.418   9.138   1.903
47294W        W19719  25.542   8.372   0.771
47295W        W19720  17.507   2.858  12.014
47296W        W19721  25.202   3.474   2.864
47297W        W19722  29.843  17.329   4.652
47298W        W19723  37.975   0.496   4.772
47299W        W19724  17.627  25.224  11.976
47300W        W19725  30.720  42.986  14.958
47301W        W19726  15.022  30.017  12.002
47302W        W19727  17.004  18.544  12.714
47303W        W19728  16.637  33.495  12.017
47304W        W19729   9.728  42.166  14.338
47305W        W19730   5.955   7.239  11.587
47306W        W19731  29.943  41.376  11.406
47307W        W19732  37.293  34.943   1.859
47308W        W19733  13.881  26.960  10.623
47309W        W19734  12.209  31.866   1.219
47310W        W19735  37.117   7.436  10.623
47311W        W19736  42.290  21.752   3.083
47312W        W19737   4.067  37.685   3.340
47313W        W19738  23.583  14.185  14.293
47314W        W19739   2.187  35.506  10.638
47315W        W19740  24.848  43.395  13.977
47316W        W19741  32.913  30.919   3.853
47317W        W19742  14.782  16.864   0.863
47318W        W19743  23.314  21.558   0.774
47319W        W19744  42.429  11.930  13.369
47320W        W19745   9.694   9.841   2.482
47321W        W19746  41.094  39.830  12.713
47322W        W19747  20.116  37.162  13.402
47323W        W19748  25.951   0.570   4.504
47324W        W19749  36.153   5.272   1.005
47325W        W19750  26.865   6.265   3.676
47326W        W19751  28.817  32.588  11.143
47327W        W19752  24.582  32.898  11.027
47328W        W19753  14.376  22.530  13.106
47329W        W19754  24.134  37.329   0.521
47330W        W19755  13.667   4.218  14.964
47331W        W19756  18.300  26.247   2.063
47332W        W19757   2.250  30.420   2.765
47333W        W19758  38.781  19.075   4.530
47334W        W19759  33.506  12.614   2.714
47335W        W19760   2.485  11.957   1.528
47336W        W19761  10.087   9.470   2.588
47337W        W19762  35.905  42.064   0.862
47338W        W19763  21.432  35.750   5.145
47339W        W19764   9.669  33.265  11.776
47340W        W19765  24.983  14.697  11.150
47341W        W19766  44.922  19.426  11.256
47342W        W19767  43.480  42.815   5.117
47343W        W19768  32.423  44.981   3.329
47344W        W19769   2.248  27.622  10.478
47345W        W19770  33.615  42.215  12.460
47346W        W19771  10.572  25.951   4.695
47347W        W19772   2.016  15.189   2.932
47348W        W19773  18.080   7.233  11.619
47349W        W19774  15.856  38.949  10.717
47350W        W19775  15.211  36.640  12.806
47351W        W19776  38.507  29.555  11.960
47352W        W19777   2.307  29.505   3.881
47353W        W19778   7.671   7.689  11.952
47354W        W19779  42.163   7.350   0.415
47355W        W19780  42.208  18.235  14.974
47356W        W19781   3.109  23.453   0.170
47357W        W19782   8.426  17.343   2.158
47358W        W19783  27.670  22.131   5.060
47359W        W19784  28.427  13.395  12.634
47360W        W19785  11.365   0.313   2.725
47361W        W19786   2.953  41.823   1.763
47362W        W19787   6.142  21.515   3.912
47363W        W19788   9.072  21.042  13.968
47364W        W19789  21.752  13.975  13.353
47365W        W19790  19.100  29.523   1.921
47366W        W19791  42.999  42.204   0.699
47367W        W19792  41.279  33.449  14.725
47368W        W19793  12.032  42.459  10.715
47369W        W19794  28.930  22.326   4.176
47370W        W19795  42.702   0.730   1.249
47371W        W19796  34.399  24.266  12.926
47372W        W19797  20.070  26.779  13.023
47373W        W19798   2.925  27.416  12.424
47374W        W19799  17.787  30.897   1.033
47375W        W19800  38.149  11.641  13.308
47376W        W19801  32.214  24.910  13.316
47377W        W19802  26.453   3.568   2.407
47378W        W19803  31.557  44.069  12.672
47379W        W19804  33.522  32.170   0.242
47380W        W19805  40.321  25.416  10.567
47381W        W19806  25.136  16.799   1.154
47382W        W19807  40.498   2.423   3.071
47383W        W19808  30.356   6.886  13.080
47384W        W19809  32.049   6.256  10.585
47385W        W19810  44.291  36.460  10.984
47386W        W19811  19.578  18.143  12.889
47387W        W19812  15.725  34.693  10.770
47388W        W19813  33.754  17.097   9.963
47389W        W19814   5.942  44.425   3.926
47390W        W19815  17.737  29.172  12.974
47391W        W19816  27.189  31.148  13.446
47392W        W19817   7.876   1.930   1.457
47393W        W19818   0.874  31.167   0.558
47394W        W19819  32.002  13.672   4.615
47395W        W19820  28.659  41.873   4.592
47396W        W19821  40.193  22.691   1.856
47397W        W19822  28.566  34.565  11.981
47398W        W19823  32.835  16.324   1.413
47399W        W19824  12.619  32.711  11.969
47400W        W19825  36.126   3.937   2.275
47401W        W19826  43.830   6.429  14.186
47402W        W19827  15.767  14.825   1.042
47403W        W19828  37.432  40.285  14.650
47404W        W19829  44.863   7.174   4.321
47405W        W19830  24.119  40.266   0.009
47406W        W19831  23.424   3.684   1.001
47407W        W19832   9.380  44.053  13.366
47408W        W19833  27.023  12.673   1.390
47409W        W19834  26.185   8.705   3.585
47410W        W19835  14.388  11.823  10.762
47411W        W19836  29.961  31.182  10.489
47412W        W19837  44.993   1.409   0.741
47413W        W19838  19.441   1.086  11.620
47414W        W19839  22.183  11.474   3.141
47415W        W19840  33.912  13.104   4.037
47416W        W19841  24.168  39.767   0.521
47417W        W19842  18.091  23.730  14.892
47418W        W19843  21.021  27.173  12.265
47419W        W19844   1.324  40.522  10.752
47420W        W19845  28.085   3.515  13.987
47421W        W19846  33.715  29.211   1.855
47422W        W19847   2.222  14.128  14.210
47423W        W19848  31.161   3.464  12.558
47424W        W19849  25.543   3.271   4.167
47425W        W19850  15.320  34.799   5.327
47426W        W19851  39.651  25.238  13.978
47427W        W19852  16.557  25.028  13.223
47428W        W19853   9.718  20.830   3.186
47429W        W19854  42.696  16.179  11.178
47430W        W19855  32.130  32.941  10.295
47431W        W19856  41.060  27.961   0.334
47432W        W19857  40.296   6.204   1.059
47433W        W19858  18.668   3.848   0.701
47434W        W19859  35.032   6.948  12.421
47435W        W19860  11.675  22.469  14.398
47436W        W19861  38.867  24.927  12.428
47437W        W19862  38.700   1.051  12.491
47438W        W19863  16.872  15.562  14.318
47439W        W19864  21.623  21.636  10.423
47440W        W19865  16.840  17.707   0.618
47441W        W19866  32.801  11.545   1.818
47442W        W19867   0.219  16.646  12.975
47443W        W19868  18.509   8.475  13.367
47444W        W19869   5.893  25.993   0.891
47445W        W19870  12.852  33.994  10.705
47446W        W19871  18.869  27.912   3.559
47447W        W19872  41.812  23.608   0.326
47448W        W19873  24.443   2.821  12.082
47449W        W19874   1.761   0.386  10.881
47450W        W19875  41.315   3.934  13.535
47451W        W19876  23.674  23.187  12.487
47452W        W19877  12.242  37.915   3.792
47453W        W19878   8.212  19.800   1.231
47454W        W19879  36.575  34.816  11.684
47455W        W19880  24.119  24.267   1.760
47456W        W19881  27.071  30.606   0.326
47457W        W19882  14.660  34.397   4.675
47458W        W19883   4.194  44.991   2.290
47459W        W19884  30.671  28.236  11.471
47460W        W19885  37.200  42.431   4.655
47461W        W19886  39.859   4.670  12.074
47462W        W19887   4.774  16.017   0.758
47463W        W19888  44.313   4.810   0.358
47464W        W19889  33.052  28.492  13.092
47465W        W19890   9.135   7.206  12.965
47466W        W19891  37.800  28.990  12.666
47467W        W19892  33.022  35.603  14.828
47468W        W19893  33.061  42.880  13.999
47469W        W19894  15.855  32.585  13.317
47470W        W19895   2.653  44.375   1.309
47471W        W19896  36.902  29.770  11.080
47472W        W19897  29.588  40.944  12.586
47473W        W19898  41.950  22.888   3.548
47474W        W19899  33.147  22.643  14.729
47475W        W19900  24.724  35.705   2.252
47476W        W19901   2.192  17.118  10.223
47477W        W19902  22.929  24.655   0.730
47478W        W19903  19.554  32.177  13.513
47479W        W19904  20.455  35.863   1.484
47480W        W19905  23.069  31.023  11.414
47481W        W19906  43.877  25.931   2.388
47482W        W19907  23.039  42.789   0.315
47483W        W19908  26.152  29.057   1.298
47484W        W19909  29.520  12.765  10.716
47485W        W19910  24.142   5.648   4.552
47486W        W19911   8.410   8.364   0.283
47487W        W19912  32.483  19.964  13.367
47488W        W19913  23.470  20.241   3.573
47489W        W19914  10.806   7.258   3.372
47490W        W19915  31.929  16.743  10.357
47491W        W19916  44.377  39.597  14.309
47492W        W19917  32.138  24.157   2.728
47493W        W19918  18.016  17.747   1.509
47494W        W19919  28.082  19.292  13.692
47495W        W19920  23.312  39.873   2.454
47496W        W19921   4.795   8.579   2.854
47497W        W19922   8.892  29.149   4.020
47498W        W19923  20.552  42.684  13.380
47499W        W19924  36.498  41.830  14.997
47500W        W19925  43.265  34.470   2.772
47501W        W19926   0.500  36.954  12.758
47502W        W19927  34.983  10.234   1.190
47503W        W19928  44.999   9.755  14.271
47504W        W19929   9.743   8.627   1.636
47505W        W19930  12.627  34.927   4.052
47506W        W19931  14.351  44.971  10.960
47507W        W19932  16.162   7.812   4.531
47508W        W19933  11.204  24.176   0.341
47509W        W19934   7.228   4.453   0.807
47510W        W19935  27.023  18.724   0.327
47511W        W19936  33.555  34.979   1.634
47512W        W19937   5.028   6.717   1.745
47513W        W19938  41.845  35.335  12.917
47514W        W19939  40.316  20.494  12.508
47515W        W19940  31.201   9.891   2.096
47516W        W19941  34.879  26.414  14.003
47517W        W19942   7.834   8.168   3.273
47518W        W19943  43.199  33.343   5.145
47519W        W19944  10.308   6.399   1.773
47520W        W19945  27.672   4.848  13.199
47521W        W19946  17.192  16.846  14.040
47522W        W19947  17.113  17.286  11.780
47523W        W19948  40.310  20.085  11.140
47524W        W19949   8.478  33.469   3.054
47525W        W19950  33.730  22.821  10.971
47526W        W19951  28.752  12.203  11.704
47527W        W19952  29.725  33.382  10.377
47528W        W19953   6.321  43.904  14.584
47529W        W19954  21.069  14.601  11.054
47530W        W19955  39.478  33.904   2.818
47531W        W19956  38.870   0.991  11.636
47532W        W19957  16.607  42.740  13.787
47533W        W19958  15.002  18.511  13.758
47534W        W19959  24.251  39.088  13.418
47535W        W19960  18.690   0.863   3.939
47536W        W19961   3.167  11.330   1.927
47537W        W19962   9.571   7.703  11.129
47538W        W19963  41.363   7.643  13.081
47539W        W19964  39.389  11.925  14.806
47540W        W19965  15.812  42.012  13.379
47541W        W19966  18.079  23.117   0.263
47542W        W19967  17.252   7.254   0.456
47543W        W19968  23.098  42.494   0.729
47544W        W19969  11.284  14.842  11.259
47545W        W19970  24.625  32.507   5.599
47546W        W19971  21.692  31.949   4.211
47547W        W19972   6.849  32.852   4.668
47548W        W19973   9.959  14.093  14.914
47549W        W19974  34.078  43.488  14.500
47550W        W19975  21.290  40.746   0.956
47551W        W19976  42.011  30.372  12.452
47552W        W19977  32.995  27.923   2.842
47553W        W19978  13.794  28.614   2.019
47554W        W19979  43.629  39.208  12.148
47555W        W19980  36.891  30.093   3.655
47556W        W19981  41.315   2.990  14.058
47557W        W19982   3.916  19.745   5.072
47558W        W19983  29.976  32.065   3.870
47559W        W19984  27.511  16.328   2.794
47560W        W19985  41.069  41.459  13.857
47561W        W19986  29.341  44.939  13.237
47562W        W19987   4.722  25.002  12.665
47563W        W19988  43.544  35.396   1.232
47564W        W19989  28.938  42.370   1.113
47565W        W19990   1.815  17.043   2.785
47566W        W19991  42.493  39.923  13.278
47567W        W19992  24.704  31.097   2.780
47568W        W19993   0.224  15.123  12.031
47569W        W19994  11.174   8.798   1.704
47570W        W19995  18.497  34.153  14.963
47571W        W19996   4.860  13.777  12.862
47572W        W19997  18.145   4.905   3.089
47573W        W19998  41.015   0.365  13.813
47574W        W19999  27.463  23.742  14.235
47575W        W20000  27.551  20.431   2.383
47576W        W20001   5.415  24.581   1.997
47577W        W20002  41.395  30.744  14.886
47578W        W20003   9.340  43.354   0.861
47579W        W20004  13.217  13.085   1.364
47580W        W20005  41.368  14.863   2.447
47581W        W20006  19.227  42.261   2.916
47582W        W20007   8.613  36.154  10.937
47583W        W20008  37.496  40.650  11.130
47584W        W20009  43.340  21.141  10.683
47585W        W20010   9.361   2.804   0.794
47586W        W20011  30.177  30.078  12.521
47587W        W20012  36.948  18.699  12.001
47588W        W20013   0.817  35.428  14.327
47589W        W20014   3.676  24.652  13.005
47590W        W20015   3.177  39.447  12.965
47591W        W20016  20.763  26.877  12.608
47592W        W20017  38.718   5.531  13.094
47593W        W20018  15.143  15.760  11.428
47594W        W20019  41.751   9.708   0.749
47595W        W20020  42.738  25.706   3.259
47596W        W20021  17.684  11.448   3.181
47597W        W20022  42.941  15.151  14.541
47598W        W20023  24.287  32.076  12.536
47599W        W20024   9.371  11.114   2.194
47600W        W20025  36.627  24.290   0.879
47601W        W20026   2.552   8.869   0.385
47602W        W20027   6.411   2.147  14.332
47603W        W20028  16.067   8.759  14.559
47604W        W20029   7.686   4.306   0.542
47605W        W20030   9.299  12.138   1.480
47606W        W20031  25.350   0.256   0.825
47607W        W20032  20.537  11.162  14.803
47608W        W20033  42.133  41.603  14.817
47609W        W20034  11.568  20.278  13.541
47610W        W20035  42.083   2.970  10.766
47611W        W20036   5.934  19.129   4.155
47612W        W20037   8.400   7.862   0.428
47613W        W20038  26.972  36.596  13.359
47614W        W20039   0.968  39.659  11.910
47615W        W20040   2.507  22.073  10.762
47616W        W20041  17.202  37.538   2.871
47617W        W20042  27.455   0.069  14.580
47618W        W20043   9.121  38.885  10.348
47619W        W20044  37.844   8.970   1.020
47620W        W20045  35.326  27.082  11.172
47621W        W20046  10.388  25.254  13.010
47622W        W20047  42.910  42.418  11.479
47623W        W20048  37.145  29.498   0.228
47624W        W20049  38.027  35.550   3.839
47625W        W20050   6.946  31.803   4.659
47626W        W20051  12.879  42.475   4.723
47627W        W20052  28.096  23.122  10.400
47628W        W20053  19.211  11.365   0.825
47629W        W20054  42.802  40.229  14.254
47630W        W20055  15.666   8.337  13.079
47631W        W20056   3.833  18.160   0.682
47632W        W20057  25.416  13.492   3.667
47633W        W20058  12.028  32.830  11.999
47634W        W20059  25.392  25.004  11.220
47635W        W20060  31.243  30.050   2.842
47636W        W20061  14.310  31.554   3.381
47637W        W20062  39.493  29.277  14.060
47638W        W20063   1.275   0.459  12.320
47639W        W20064   9.099  25.214  11.730
47640W        W20065   7.168  30.669  14.059
47641W        W20066  12.516  26.159  11.735
47642W        W20067  26.984  31.540  14.313
47643W        W20068   2.492  31.536  13.292
47644W        W20069  10.905  17.598  12.681
47645W        W20070  44.719  34.277   0.825
47646W        W20071  10.353  42.677   1.816
47647W        W20072  38.039  41.291  10.491
47648W        W20073   3.341  33.276  13.933
47649W        W20074  32.435  26.616   0.142
47650W        W20075  17.862   1.433  14.402
47651W        W20076  35.523  18.324  14.570
47652W        W20077  35.062  32.836   3.106
47653W        W20078  12.940   9.683  13.482
47654W        W20079  25.778  20.272   4.854
47655W        W20080  23.091  24.002   0.846
47656W        W20081   9.936  39.837   2.734
47657W        W20082  22.026  28.702   1.222
47658W        W20083  39.262   3.806  14.310
47659W        W20084  41.858  19.610  11.561
47660W        W20085  11.840   3.283   4.754
47661W        W20086   9.708  29.721   3.225
47662W        W20087  40.494  29.680  13.915
47663W        W20088  34.851  31.464   4.686
47664W        W20089  23.040  40.867   3.227
47665W        W20090  32.009  25.084  10.944
47666W        W20091  34.921  29.433   0.225
47667W        W20092   3.378  10.044   3.641
47668W        W20093  29.257  31.179  14.448
47669W        W20094  11.664  18.990  13.756
47670W        W20095   3.388  27.685  12.422
47671W        W20096  36.675  32.142  13.875
47672W        W20097   4.145  42.793   3.418
47673W        W20098  41.501   4.766   3.725
47674W        W20099  44.603  11.775   5.158
47675W        W20100   4.867  11.796  11.098
47676W        W20101  44.518   0.031   1.813
47677W        W20102  22.932   1.560  13.620
47678W        W20103  21.520   1.388   4.154
47679W        W20104   3.499   8.455  10.661
47680W        W20105  39.920  17.618  14.721
47681W        W20106  29.674   7.302   1.905
47682W        W20107  20.074  14.747   2.347
47683W        W20108   4.596  25.151  13.229
47684W        W20109  17.251  36.244  10.688
47685W        W20110  13.737  12.665  11.798
47686W        W20111   4.404  24.831   3.386
47687W        W20112   5.351  40.577  12.548
47688W        W20113   3.614  16.935  13.991
47689W        W20114  19.244  39.086  11.944
47690W        W20115  34.690  26.915   1.387
47691W        W20116   4.963  38.448  13.757
47692W        W20117  32.093  41.106   0.668
47693W        W20118  34.991  31.063   0.778
47694W        W20119  39.476   6.876   3.544
47695W        W20120  20.282  24.552   1.711
47696W        W20121   3.698  38.584  12.921
47697W        W20122  28.042  33.451   1.229
47698W        W20123   9.240  30.584  12.763
47699W        W20124  12.287  23.917  13.066
47700W        W20125  38.045  34.904   0.153
47701W        W20126  30.257  38.015   4.193
47702W        W20127  38.431  35.054  10.807
47703W        W20128  11.481  20.799   4.035
47704W        W20129  44.977   0.283   1.803
47705W        W20130  17.625  19.764   1.340
47706W        W20131   7.945  42.770  14.018
47707W        W20132  32.037  36.492   0.800
47708W        W20133  39.308  20.689  13.720
47709W        W20134   0.753  31.622   1.392
47710W        W20135  42.805  29.890  10.982
47711W        W20136  26.950  32.205   0.686
47712W        W20137   7.189  30.129  14.272
47713W        W20138   5.636   0.998  11.954
47714W        W20139  30.425   9.615  11.573
47715W        W20140  36.648  21.339  13.345
47716W        W20141   2.721  35.861  12.536
47717W        W20142   9.819  30.693  10.693
47718W        W20143  26.626  34.758  13.851
47719W        W20144  14.613   1.770  13.853
47720W        W20145  40.068  42.450  14.358
47721W        W20146  39.427  21.825  13.823
47722W        W20147  29.405   9.840  11.560
47723W        W20148   0.879   0.490  10.652
47724W        W20149   3.351  25.251   1.130
47725W        W20150  25.511  21.084  10.093
47726W        W20151  27.101  30.890   1.395
47727W        W20152  18.724  14.184  13.351
47728W        W20153  15.308   3.023  13.382
47729W        W20154  21.105  23.041  14.940
47730W        W20155  32.113   5.351   2.740
47731W        W20156  28.990  44.459  14.440
47732W        W20157  30.364  17.741  11.110
47733W        W20158  10.589  37.446   3.608
47734W        W20159  35.419  10.293  12.347
47735W        W20160   5.240  18.595   4.624
47736W        W20161  24.241  41.891  10.687
47737W        W20162  27.978  37.535  10.618
47738W        W20163  10.276  18.334  11.966
47739W        W20164  38.919  33.564   3.582
47740W        W20165  40.507  44.516   2.103
47741W        W20166  37.291  29.034   0.439
47742W        W20167  11.595   8.862   2.870
47743W        W20168   6.941  41.137   2.013
47744W        W20169  35.994  31.513   1.067
47745W        W20170   4.847  12.496  10.379
47746W        W20171   9.194   8.733  14.375
47747W        W20172   8.285  25.968   4.104
47748W        W20173   0.731  15.224  14.226
47749W        W20174  24.034  15.530  10.659
47750W        W20175  34.607   8.792   3.848
47751W        W20176  36.912  36.150  11.123
47752W        W20177  11.283  44.279   1.891
47753W        W20178  32.150  11.579   4.703
47754W        W20179  40.385  19.098   3.603
47755W        W20180   7.057   1.775   2.303
47756W        W20181  25.481  14.448  11.103
47757W        W20182   4.372   2.494   2.217
47758W        W20183  12.994  27.724  12.859
47759W        W20184  12.139   4.408   0.301
47760W        W20185  35.726   0.631   3.770
47761W        W20186   0.695  17.878  11.116
47762W        W20187  18.180  40.474  12.448
47763W        W20188  21.713  17.573  11.140
47764W        W20189  22.228  33.655  13.118
47765W        W20190  42.452   0.486   4.256
47766W        W20191   0.856  13.972  12.930
47767W        W20192  35.798  27.504   0.851
47768W        W20193   2.565  11.710  10.301
47769W        W20194  33.042   3.563   1.801
47770W        W20195   6.981  27.906  14.467
47771W        W20196   9.665  43.437   2.761
47772W        W20197  38.563   3.002   4.233
47773W        W20198   5.870  39.838   3.454
47774W        W20199  12.789  32.369   2.323
47775W        W20200  23.686  24.162  10.525
47776W        W20201   0.783  38.490  12.064
47777W        W20202  12.355  14.528  11.229
47778W        W20203   8.764  15.288  13.028
47779W        W20204  35.293   7.176   1.034
47780W        W20205   4.698  39.060  11.125
47781W        W20206   6.565  30.464   2.648
47782W        W20207  21.650   8.150  13.739
47783W        W20208  21.224  27.477  11.894
47784W        W20209  13.150   8.425   4.561
47785W        W20210   3.624   7.174  11.040
47786W        W20211   5.725  24.776  12.535
47787W        W20212  11.722  12.804  14.766
47788W        W20213   1.760   6.854  12.476
47789W        W20214   0.217   6.915  13.398
47790W        W20215  30.412  36.860  14.753
47791W        W20216   0.770  42.045  11.893
47792W        W20217  37.656  39.709  13.899
47793W        W20218  37.405  38.419   0.370
47794W        W20219   7.168  23.744  12.595
47795W        W20220   8.433  17.866  12.009
47796W        W20221  41.356  19.699  12.282
47797W        W20222  10.753   3.626  13.525
47798W        W20223   7.268  34.838   3.037
47799W        W20224  36.106   0.892  11.606
47800W        W20225  41.529   8.474   0.791
47801W        W20226   0.360  38.367   2.764
47802W        W20227  38.884  17.113  13.289
47803W        W20228  19.879  15.332   4.055
47804W        W20229  40.124  23.107   4.917
47805W        W20230  25.544  15.264   4.572
47806W        W20231   3.669  34.136   1.172
47807W        W20232   1.361   9.390   2.044
47808W        W20233   1.383  31.971  10.640
47809W        W20234  16.762  16.391   4.032
47810W        W20235   1.912  42.207  14.758
47811W        W20236  42.512  38.547   3.103
47812W        W20237  28.193  41.524  10.239
47813W        W20238  43.737  32.038   0.783
47814W        W20239  36.927  41.501  13.402
47815W        W20240  15.365  36.592  11.275
47816W        W20241  19.679   4.906  13.622
47817W        W20242  23.702  29.197   0.734
47818W        W20243  10.902  30.151  14.382
47819W        W20244   9.567  17.048   0.859
47820W        W20245   8.206   4.949   1.802
47821W        W20246   4.391  39.993  10.716
47822W        W20247  39.830  20.542  12.016
47823W        W20248  17.086   6.442   0.879
47824W        W20249  25.026  14.649   1.276
47825W        W20250   1.503  12.713   0.995
47826W        W20251   6.227   6.869   3.359
47827W        W20252  37.028  36.373   0.864
47828W        W20253  24.210   7.511   1.065
47829W        W20254  28.853  22.606   4.693
47830W        W20255  22.197   1.978  10.312
47831W        W20256   2.314  23.956   0.479
47832W        W20257  39.315  32.566   4.124
47833W        W20258   1.149   1.820  13.038
47834W        W20259  12.593  23.632  13.736
47835W        W20260  27.435  38.494  14.870
47836W        W20261  41.297  41.302   4.464
47837W        W20262   4.965  33.526   4.122
47838W        W20263  34.716   1.740   2.796
47839W        W20264  39.373  15.358  13.008
47840W        W20265  25.410  24.169  12.047
47841W        W20266  44.247   9.201  12.130
47842W        W20267  33.476  18.933  11.886
47843W        W20268   0.313  35.943  14.524
47844W        W20269  23.509  15.760  10.524
47845W        W20270  25.204  39.241  13.483
47846W        W20271  32.688  11.259  11.033
47847W        W20272  32.174  39.016   3.205
47848W        W20273  24.199  17.796  12.936
47849W        W20274   8.194  25.169  10.434
47850W        W20275  44.049  27.017  12.584
47851W        W20276  21.710   0.404   1.256
47852W        W20277  27.595  16.223   3.825
47853W        W20278  13.828   2.920  10.638
47854W        W20279   2.972  14.829  12.710
47855W        W20280   9.770  15.069   4.605
47856W        W20281  27.956  41.259   1.694
47857W        W20282  13.678  19.522   3.784
47858W        W20283  12.076  28.055   0.496
47859W        W20284   3.644  24.401   4.087
47860W        W20285   8.365   1.445   1.322
47861W        W20286  36.760   3.615  13.100
47862W        W20287  13.906  24.594  12.347
47863W        W20288   7.164   2.677   4.483
47864W        W20289   0.334  29.648  14.075
47865W        W20290   4.980  19.049   4.643
47866W        W20291   0.346  12.208  10.669
47867W        W20292  31.028   8.335   0.237
47868W        W20293  20.132  12.590   2.350
47869W        W20294  29.990  21.981   3.712
47870W        W20295   4.906  28.079   2.271
47871W        W20296   5.334  35.329   0.500
47872W        W20297  16.686  26.030  13.986
47873W        W20298  23.580   3.937   1.437
47874W        W20299  20.028  21.912  10.914
47875W        W20300  36.102  26.518   3.881
47876W        W20301  12.313   6.167   4.358
47877W        W20302  10.207  31.144  13.065
47878W        W20303  17.855  21.169   4.495
47879W        W20304  37.157  39.185   0.415
47880W        W20305  41.821  30.540  10.555
47881W        W20306  11.102  13.868  11.819
47882W        W20307  32.946   7.460   2.360
47883W        W20308  37.929   8.821  14.314
47884W        W20309  24.364  32.080   2.788
47885W        W20310  35.723  29.400  10.698
47886W        W20311  16.679  36.443  10.634
47887W        W20312  19.850  17.077   1.914
47888W        W20313  32.993  38.341  11.378
47889W        W20314   4.531  25.938   4.634
47890W        W20315  35.636  14.221   0.277
47891W        W20316   5.014   4.526   1.135
47892W        W20317  19.373  34.827   5.111
47893W        W20318  32.880  36.151   2.338
47894W        W20319   3.066   7.235   3.230
47895W        W20320  18.605  34.359  14.477
47896W        W20321  30.695  28.425   0.853
47897W        W20322  26.777   2.376   5.129
47898W        W20323  22.252  34.969  10.703
47899W        W20324  29.307  14.756  14.628
47900W        W20325  24.986   1.026   1.359
47901W        W20326  26.636  44.464   4.306
47902W        W20327  30.632  27.514  14.376
47903W        W20328  17.932   0.673  11.609
47904W        W20329  11.257  35.351  13.035
47905W        W20330   0.789  20.482   4.308
47906W        W20331  20.962  14.097  11.169
47907W        W20332  31.127   0.032  10.601
47908W        W20333  38.344  27.698  11.498
47909W        W20334   1.140  16.575   2.467
47910W        W20335  38.949  36.400   0.768
47911W        W20336  41.825  18.658  12.536
47912W        W20337  32.822  12.069   2.707
47913W        W20338   8.443   4.466   3.326
47914W        W20339  31.599  22.620   3.882
47915W        W20340  23.925  31.633  13.193
47916W        W20341   6.685  38.946   0.339
47917W        W20342   5.509  39.994   0.880
47918W        W20343  14.467  33.413   5.634
47919W        W20344  43.685  14.833   3.637
47920W        W20345  43.535  22.289  10.088
47921W        W20346   0.290  19.568   1.463
47922W        W20347   9.749  43.338  11.551
47923W        W20348   8.346  18.585  14.477
47924W        W20349  35.354  22.456  13.940
47925W        W20350  32.624   9.749  14.872
47926W        W20351  22.189  36.857   3.339
47927W        W20352  21.301  34.875   1.388
47928W        W20353  12.014  41.518   3.723
47929W        W20354  20.083  43.768  12.445
47930W        W20355  38.771   5.390  12.591
47931W        W20356  39.941  32.387  13.027
47932W        W20357  16.096  13.349  13.013
47933W        W20358  42.445  41.726  11.792
47934W        W20359  25.263  34.322   0.778
47935W        W20360  33.881  29.840  13.920
47936W        W20361   3.366  19.347  12.843
47937W        W20362  17.226  38.551  11.129
47938W        W20363  17.199   7.857   3.858
47939W        W20364  25.047  19.685   1.264
47940W        W20365  44.524   7.114   5.058
47941W        W20366   4.181  13.876   1.330
47942W        W20367  20.325  30.676   2.045
47943W        W20368  34.053  30.478  11.716
47944W        W20369  43.297  15.760  11.494
47945W        W20370  37.447   1.017  11.343
47946W        W20371  39.887   0.435   2.392
47947W        W20372  23.825  35.613  11.155
47948W        W20373  33.128  22.242   0.692
47949W        W20374  37.362   1.552   1.770
47950W        W20375  24.644  15.539  12.031
47951W        W20376  21.319  25.933   2.103
47952W        W20377   0.686  25.456   2.392
47953W        W20378  44.096  13.668  14.911
47954W        W20379  42.783  26.405   4.707
47955W        W20380  36.274  37.855   2.321
47956W        W20381   9.653  21.063  12.023
47957W        W20382  19.735   0.592   2.668
47958W        W20383  24.621  11.428   5.225
47959W        W20384   0.380  30.233   4.147
47960W        W20385  28.667  23.080  14.385
47961W        W20386  42.889  42.912  11.615
47962W        W20387  42.037  36.529   4.754
47963W        W20388  42.533  38.878   3.783
47964W        W20389  22.597  36.822  13.554
47965W        W20390  29.238   2.799   2.998
47966W        W20391   5.865  29.990  12.898
47967W        W20392  44.165   3.716   1.799
47968W        W20393  43.346   2.812   4.526
47969W        W20394  35.854   0.730   2.804
47970W        W20395  26.659  29.995  10.761
47971W        W20396  22.055   4.384  10.964
47972W        W20397   5.706  24.214   0.308
47973W        W20398   7.203  29.751   3.103
47974W        W20399  30.011   7.714  10.828
47975W        W20400   8.704   0.498   0.741
47976W        W20401   7.515  32.593   0.894
47977W        W20402  15.867  37.264  13.298
47978W        W20403  42.337  17.315  14.837
47979W        W20404  30.023  24.921   1.521
47980W        W20405  35.441  40.344  13.398
47981W        W20406  20.594   7.581  11.205
47982W        W20407  18.689   4.526  11.146
47983W        W20408  11.802   3.322  14.100
47984W        W20409  28.876  43.783   4.084
47985W        W20410   5.758  36.081   1.229
47986W        W20411  24.046  23.602   4.496
47987W        W20412  19.757  27.271   3.015
47988W        W20413  41.890   3.104   4.139
47989W        W20414   5.408   2.196  12.786
47990W        W20415  16.614  21.538   0.873
47991W        W20416  19.145  36.418  10.698
47992W        W20417  24.284  39.013  12.382
47993W        W20418  19.119  17.808   0.550
47994W        W20419  17.247  21.365  12.571
47995W        W20420  13.646  31.971   1.285
47996W        W20421  42.076  14.688  13.874
47997W        W20422   9.471  27.128   2.030
47998W        W20423   1.418  29.897  11.882
47999W        W20424  29.561  15.670  14.962
48000W        W20425  17.003   4.121   4.175
48001W        W20426  33.102  14.489   0.961
48002W        W20427  15.614  31.985   1.972
48003W        W20428  39.968  20.155  11.683
48004W        W20429  25.070  23.941   3.078
48005W        W20430  38.006  12.189  13.851
48006W        W20431  20.025  25.491   4.185
48007W        W20432   3.287  31.600   0.887
48008W        W20433   9.177   9.668   0.907
48009W        W20434  30.239  29.230   1.901
48010W        W20435   1.904   8.223   0.769
48011W        W20436   4.364  13.575  11.005
48012W        W20437  19.306  14.159   0.918
48013W        W20438  20.140  30.929  10.431
48014W        W20439  30.126  35.136   5.349
48015W        W20440  25.172   8.810  10.780
48016W        W20441   1.894  25.704   0.394
48017W        W20442  16.849  26.097   2.114
48018W        W20443  20.229  14.256   2.177
48019W        W20444  37.951   0.989  10.108
48020W        W20445  20.271  37.626  13.546
48021W        W20446  18.900  13.342  13.287
48022W        W20447  34.292  43.680   1.815
48023W        W20448  26.617  10.986   3.355
48024W        W20449  11.402  26.694   2.953
48025W        W20450  38.100   9.923   1.871
48026W        W20451  36.065  23.364  12.410
48027W        W20452  22.568  37.431  11.626
48028W        W20453  15.261  17.254  10.602
48029W        W20454  35.684  37.541  11.965
48030W        W20455  13.601  30.460  11.994
48031W        W20456  43.763  24.730   4.057
48032W        W20457   4.325  30.173  11.116
48033W        W20458  37.364  16.062   4.289
48034W        W20459  10.374  39.081   3.755
48035W        W20460  32.172  14.675  11.601
48036W        W20461  26.784   6.803  10.691
48037W        W20462  21.632  35.553   0.406
48038W        W20463  33.060  12.951  12.543
48039W        W20464  28.652   1.565  14.585
48040W        W20465  39.811  26.725   2.406
48041W        W20466  19.461  35.395  13.227
48042W        W20467  24.946  37.849  13.526
48043W        W20468  26.375   9.652   4.640
48044W        W20469  39.362  10.159   0.806
48045W        W20470   6.153  42.920   1.867
48046W        W20471  18.658   9.117   4.809
48047W        W20472  16.398  39.926   4.020
48048W        W20473  19.138   4.094   0.805
48049W        W20474  18.256  14.187   2.401
48050W        W20475  31.659  14.189  13.910
48051W        W20476  39.514  23.156  14.859
48052W        W20477   1.565  44.830   2.937
48053W        W20478  18.282   6.415  14.901
48054W        W20479  42.293  22.204   4.161
48055W        W20480   9.267  16.758  13.048
48056W        W20481  26.016  12.288   2.202
48057W        W20482  42.407  38.234  14.211
48058W        W20483  29.377  25.296  13.520
48059W        W20484  14.098  31.972  14.736
48060W        W20485  14.248   1.454   3.291
48061W        W20486  38.154  16.772  11.389
48062W        W20487  39.055  23.942   0.502
48063W        W20488   6.810  35.111   0.357
48064W        W20489  32.626  13.918  14.148
48065W        W20490   1.560  38.586   2.941
48066W        W20491  24.896   7.328   1.317
48067W        W20492  19.112  26.967   3.611
48068W        W20493  15.742  37.875  11.609
48069W        W20494  39.892  20.656  10.691
48070W        W20495   4.250  26.918   4.784
48071W        W20496  15.492  29.867   3.561
48072W        W20497   0.576  32.507   3.288
48073W        W20498  44.452   0.465  14.068
48074W        W20499  25.488  11.897   4.840
48075W        W20500  22.440  36.785   4.215
48076W        W20501  39.723  11.769  11.662
48077W        W20502   0.037  28.944   3.203
48078W        W20503  32.354  13.591   3.411
48079W        W20504  39.818  30.441  10.759
48080W        W20505   7.865  32.993  10.784
48081W        W20506  44.348  41.745   0.833
48082W        W20507  30.162   5.616   1.856
48083W        W20508  29.007  17.066  11.898
48084W        W20509  34.419  34.629   1.434
48085W        W20510  20.917  34.439   3.647
48086W        W20511   7.452  35.672   2.859
48087W        W20512  14.302  26.880  11.530
48088W        W20513  26.704  33.116   0.038
48089W        W20514  34.033  33.370   3.734
48090W        W20515  13.776  23.139   1.826
48091W        W20516  16.188  20.591   1.217
48092W        W20517  43.758  34.262  12.522
48093W        W20518  29.170  12.387   1.908
48094W        W20519   7.168  25.818  13.872
48095W        W20520   7.249  22.185  12.491
48096W        W20521  28.135  18.039   0.780
48097W        W20522  13.314  21.963  13.494
48098W        W20523  37.165  24.492  11.191
48099W        W20524   1.558  34.821   2.122
48100W        W20525   5.220  22.489   4.114
48101W        W20526  14.788  39.395  14.446
48102W        W20527  39.080  33.416   0.530
48103W        W20528   9.627  12.514  10.882
48104W        W20529  39.276  31.158   4.641
48105W        W20530   2.324  23.720  11.116
48106W        W20531  29.490  44.371  14.506
48107W        W20532   2.319  14.617  14.026
48108W        W20533  36.092  33.862  13.619
48109W        W20534  40.987  28.440  12.959
48110W        W20535  16.249  21.772   4.069
48111W        W20536  31.949  28.572   2.068
48112W        W20537  28.583  31.492  14.887
48113W        W20538   8.465  15.064   4.267
48114W        W20539  13.801  12.175  11.965
48115W        W20540  21.010  15.758  14.280
48116W        W20541  44.573  26.281   1.383
48117W        W20542   0.931  32.255   0.059
48118W        W20543  40.054  41.997   4.806
48119W        W20544   0.874   6.870   0.757
48120W        W20545  30.994  22.788  14.212
48121W        W20546   3.929  24.176  13.015
48122W        W20547  16.196  41.031   4.945
48123W        W20548   6.949  21.640   4.391
48124W        W20549  32.515  19.742  14.869
48125W        W20550  17.154  22.605  13.009
48126W        W20551  33.251  18.178  10.547
48127W        W20552  24.465  13.211  14.740
48128W        W20553  22.318   2.105  11.980
48129W        W20554  35.907   9.380  14.878
48130W        W20555  28.665  32.824   2.819
48131W        W20556  17.396  15.027   0.797
48132W        W20557  24.655  28.916   4.220
48133W        W20558  25.573  39.946  13.997
48134W        W20559  31.841  24.199   4.840
48135W        W20560  15.529  44.043  14.552
48136W        W20561   3.659   0.465  12.440
48137W        W20562   1.441  13.826   4.582
48138W        W20563  44.231   1.930   3.074
48139W        W20564  28.151   6.223  14.458
48140W        W20565  36.314  36.487   2.203
48141W        W20566  35.103  30.874  14.635
48142W        W20567  24.034   4.065  13.774
48143W        W20568  44.941  40.354   1.379
48144W        W20569  30.962  44.202   3.627
48145W        W20570   7.378  28.225  14.432
48146W        W20571  31.061  40.848   5.483
48147W        W20572  14.391   7.979  12.838
48148W        W20573  29.126  25.992   1.695
48149W        W20574  24.964  24.398   0.805
48150W        W20575  29.660   2.446  14.016
48151W        W20576  24.140  10.386  12.065
48152W        W20577   5.108  31.116  11.536
48153W        W20578  37.815  25.082  14.345
48154W        W20579  30.092  30.400  10.994
48155W        W20580  17.597  23.526   4.630
48156W        W20581  44.677  19.561   3.810
48157W        W20582  43.996  34.211   1.708
48158W        W20583  33.473  11.178   2.472
48159W        W20584  23.191  16.414  10.992
48160W        W20585   4.497   9.729  11.109
48161W        W20586   8.297  10.988   0.942
48162W        W20587  42.566  20.188  11.633
48163W        W20588  36.497  20.275  12.463
48164W        W20589   0.922  13.444  12.704
48165W        W20590   5.961  20.656  12.312
48166W        W20591  33.596   3.434   4.151
48167W        W20592  12.874  17.699   4.211
48168W        W20593   9.767  25.289   0.220
48169W        W20594  19.776   5.942  14.430
48170W        W20595  36.121  13.148  11.180
48171W        W20596   0.876  22.745   0.692
48172W        W20597  27.689  18.323   0.816
48173W        W20598  10.700  40.425   2.719
48174W        W20599  15.539   7.169  13.770
48175W        W20600  37.142  25.056   3.206
48176W        W20601  18.128  24.494   0.462
48177W        W20602   6.232  22.015   0.256
48178W        W20603  38.678   3.726   0.875
48179W        W20604   9.677   3.655  12.375
48180W        W20605  14.033  22.510  11.326
48181W        W20606   8.914  13.103  12.041
48182W        W20607  39.550   1.418  13.544
48183W        W20608  29.655  14.733   0.012
48184W        W20609  22.939  40.273   2.439
48185W        W20610  18.703  42.924   1.337
48186W        W20611   6.193  34.274  10.586
48187W        W20612  13.317   6.272   2.902
48188W        W20613   7.322  22.271   2.662
48189W        W20614  14.156  13.636  10.692
48190W        W20615  32.922  10.053  13.036
48191W        W20616   1.201  38.443   1.375
48192W        W20617   2.461  23.406  14.334
48193W        W20618  13.820   1.244  12.847
48194W        W20619   0.449   5.270   1.944
48195W        W20620  10.819  33.079  13.626
48196W        W20621  17.132  24.525  14.287
48197W        W20622  12.891  11.407  13.124
48198W        W20623  22.184   5.747  13.444
48199W        W20624  16.035   9.368  13.929
48200W        W20625  19.638  32.680  10.951
48201W        W20626  11.854  30.022   1.332
48202W        W20627  37.132   2.013  11.098
48203W        W20628  27.023  24.001  14.382
48204W        W20629   8.318  33.391  11.993
48205W        W20630   8.826  23.753   0.533
48206W        W20631  12.891   6.776   0.372
48207W        W20632   2.512  15.264  10.577
48208W        W20633  24.209  21.842   2.372
48209W        W20634  34.690  15.625  13.412
48210W        W20635   0.461   7.687   4.996
48211W        W20636  11.638  43.710  11.916
48212W        W20637  35.460   2.992  10.965
48213W        W20638  21.996  10.841  11.510
48214W        W20639   5.501  43.797   4.543
48215W        W20640   2.562  11.163   3.217
48216W        W20641   6.769  40.898  13.596
48217W        W20642  22.062  35.827   3.450
48218W        W20643  11.157  32.909  12.076
48219W        W20644  27.511  24.141  14.588
48220W        W20645   0.043  21.206  12.511
48221W        W20646  39.375  25.323   4.147
48222W        W20647   3.244   4.263   0.405
48223W        W20648  20.165  21.311   2.336
48224W        W20649  13.159  39.495  13.813
48225W        W20650  27.527  43.506  12.618
48226W        W20651   5.472   7.708  12.421
48227W        W20652  26.014  24.794  14.357
48228W        W20653   6.322  32.860   0.356
48229W        W20654  19.523  25.536   4.149
48230W        W20655  12.613  28.038   2.195
48231W        W20656  23.678  26.786   2.345
48232W        W20657   0.248   5.801  10.647
48233W        W20658  30.533  10.145   2.635
48234W        W20659  28.019  19.263  10.878
48235W        W20660   8.848  38.778  14.367
48236W        W20661   8.808  14.698   4.150
48237W        W20662   6.043  23.955  13.777
48238W        W20663   6.321  19.636   4.938
48239W        W20664  21.719  42.005   0.681
48240W        W20665  43.804  17.835   1.278
48241W        W20666  30.427   7.898  13.533
48242W        W20667   9.634  24.657   0.782
48243W        W20668  20.003  24.927   0.751
48244W        W20669  23.277  24.559   2.149
48245W        W20670  40.402  29.317  10.447
48246W        W20671  40.570  27.947  13.816
48247W        W20672  34.198  26.640  10.744
48248W        W20673   2.114  39.756   4.125
48249W        W20674   6.952   2.937  10.762
48250W        W20675  24.212  39.730  10.652
48251W        W20676  17.667  39.886   3.169
48252W        W20677   3.844   1.668   2.177
48253W        W20678  23.071   6.472  14.393
48254W        W20679  22.759  40.864   3.668
48255W        W20680  23.054  43.280   1.228
48256W        W20681   2.981  28.410  11.141
48257W        W20682  25.057   7.410   2.994
48258W        W20683  24.558  41.460  11.515
48259W        W20684   3.820  30.722   3.736
48260W        W20685   6.059  25.327   9.935
48261W        W20686  22.270   3.890  14.015
48262W        W20687  17.152  44.231   0.750
48263W        W20688  40.686  25.705   2.559
48264W        W20689   8.571  17.422  11.665
48265W        W20690  43.484  11.362   2.614
48266W        W20691   9.849  16.061   4.211
48267W        W20692  13.348  41.394  12.409
48268W        W20693   9.697  29.668  10.748
48269W        W20694   3.331  37.016  13.942
48270W        W20695  10.011  30.429  13.475
48271W        W20696   7.663  34.669  12.006
48272W        W20697  26.247  16.585   2.833
48273W        W20698  17.806   1.366  11.151
48274W        W20699  14.663  25.190  12.030
48275W        W20700  19.296  13.118   1.245
48276W        W20701  26.231  38.589  14.379
48277W        W20702  25.673  10.605   1.893
48278W        W20703  20.861  11.251   3.308
48279W        W20704  36.747   4.869  13.354
48280W        W20705  17.853  42.418  14.342
48281W        W20706  24.189  11.894   1.781
48282W        W20707   2.323  17.721  12.765
48283W        W20708   5.825  24.658   1.228
48284W        W20709  40.491  16.290   0.723
48285W        W20710  37.431  18.691  12.298
48286W        W20711   2.014  33.873  12.324
48287W        W20712  22.460   5.568   4.128
48288W        W20713   2.414  34.008   0.548
48289W        W20714  32.740   2.463   2.399
48290W        W20715   7.289  31.437  11.625
48291W        W20716  37.667  19.665   2.374
48292W        W20717  22.718  11.700   4.058
48293W        W20718  25.233  12.437   1.843
48294W        W20719  33.004  27.069   0.152
48295W        W20720  17.015  36.390  14.891
48296W        W20721  35.418  30.628   1.419
48297W        W20722   1.134   7.570  11.104
48298W        W20723   9.154   2.447  14.080
48299W        W20724  12.220  14.272  12.829
48300W        W20725   8.002  24.026   3.715
48301W        W20726  29.738   0.949  14.788
48302W        W20727  35.969  28.459  12.789
48303W        W20728   1.873  37.973  10.670
48304W        W20729  34.372   3.438  14.516
48305W        W20730  16.493   9.796   1.516
48306W        W20731  23.540  34.217   2.910
48307W        W20732  19.061  12.034  12.875
48308W        W20733  33.207  24.721  12.023
48309W        W20734  29.405  25.052   0.014
48310W        W20735  39.122  12.182   1.467
48311W        W20736   6.834  30.037   2.888
48312W        W20737  43.874  29.569  13.858
48313W        W20738   9.201  30.484   4.581
48314W        W20739   7.990   5.645   0.133
48315W        W20740   7.958  25.716   4.965
48316W        W20741   4.662  35.093  13.025
48317W        W20742  17.244  12.119  13.216
48318W        W20743   4.455  44.065   1.243
48319W        W20744  28.927  37.481   0.531
48320W        W20745  24.683  44.971   2.311
48321W        W20746  10.213  29.603  12.968
48322W        W20747  26.924  18.169  12.463
48323W        W20748  12.158  19.196  11.360
48324W        W20749  42.907  31.100  11.641
48325W        W20750  22.229   3.663  11.651
48326W        W20751  28.137   3.252   1.777
48327W        W20752   7.378  15.793  11.202
48328W        W20753   2.306  15.289  11.445
48329W        W20754   0.902  11.326   2.507
48330W        W20755   9.780  35.450   0.001
48331W        W20756  41.549  18.167   4.914
48332W        W20757  19.300  11.461   4.356
48333W        W20758  43.988   8.506   4.066
48334W        W20759  42.383  24.624   0.240
48335W        W20760  44.814  18.231   1.528
48336W        W20761  11.639  25.888  11.944
48337W        W20762  38.846   5.540   1.713
48338W        W20763  20.934  25.752  12.427
48339W        W20764  40.850  25.118  14.441
48340W        W20765  13.263  25.153  12.054
48341W        W20766  44.284  33.429  10.687
48342W        W20767  29.746  29.408   1.980
48343W        W20768  28.320   6.401   1.023
48344W        W20769   5.691   7.424  12.935
48345W        W20770  43.178  14.197  14.288
48346W        W20771  28.463  12.651   3.795
48347W        W20772  29.901  16.857   1.263
48348W        W20773  40.085  19.543   0.906
48349W        W20774   9.658  19.530   3.751
48350W        W20775  42.795  20.615   3.625
48351W        W20776  42.403  21.457   4.595
48352W        W20777  30.446  40.509   4.654
48353W        W20778  17.042  31.123   1.323
48354W        W20779  34.517   3.440  12.583
48355W        W20780  16.269   3.891   4.652
48356W        W20781  17.824  14.588  14.694
48357W        W20782  29.523  31.653   0.753
48358W        W20783  17.306  40.148  11.451
48359W        W20784  36.078  32.634   0.513
48360W        W20785   2.730  20.277  12.577
48361W        W20786   6.767  42.518   2.271
48362W        W20787   0.314  33.994   2.291
48363W        W20788  44.755  24.682   4.686
48364W        W20789  27.912  40.656  11.104
48365W        W20790  13.836  42.979   2.172
48366W        W20791  21.639  35.919   2.717
48367W        W20792   4.272  14.546  14.275
48368W        W20793  29.148  12.525  11.639
48369W        W20794   0.324  42.858  10.930
48370W        W20795  43.455  38.599   1.923
48371W        W20796  26.715  14.572  11.953
48372W        W20797  26.509  10.700  13.310
48373W        W20798  24.649  31.540  10.935
48374W        W20799   8.905  25.049   3.735
48375W        W20800  40.639   8.838  11.923
48376W        W20801   3.343  19.517  14.708
48377W        W20802  15.599  25.063  14.813
48378W        W20803  28.705  37.716  13.135
48379W        W20804  44.433   2.783  14.522
48380W        W20805  22.119  32.328  13.345
48381W        W20806  40.429  42.491   3.274
48382W        W20807  20.734   9.760  12.299
48383W        W20808  19.284  17.510   3.160
48384W        W20809  10.298   2.707   4.519
48385W        W20810  40.542   2.567  14.817
48386W        W20811  43.302  27.577   0.519
48387W        W20812  18.649  29.886   2.214
48388W        W20813  18.319  26.560  12.450
48389W        W20814  22.577  41.714   0.734
48390W        W20815  41.651  42.497  12.279
48391W        W20816   2.760  12.492  13.580
48392W        W20817   6.789   4.218   2.877
48393W        W20818  41.013  42.247  11.460
48394W        W20819  20.450  44.689  12.364
48395W        W20820  20.630  31.549   3.866
48396W        W20821  30.489  11.769   1.058
48397W        W20822  15.870   6.293   2.354
48398W        W20823  27.213  24.579   3.829
48399W        W20824   0.964   6.994  12.937
48400W        W20825   3.165  11.380   4.080
48401W        W20826  17.073  16.184   3.666
48402W        W20827  35.256  31.189  10.548
48403W        W20828   7.275  29.441   3.838
48404W        W20829   0.773   0.306  11.137
48405W        W20830  13.636   3.785  12.141
48406W        W20831  23.662  43.968  13.400
48407W        W20832  33.446  41.757  12.827
48408W        W20833  25.449  11.359  12.204
48409W        W20834  18.619  42.120  11.273
48410W        W20835  13.774   4.270   3.270
48411W        W20836  34.543  21.230  14.592
48412W        W20837  14.873   8.733   2.105
48413W        W20838   6.212  42.967  12.053
48414W        W20839  22.869  18.016  10.139
48415W        W20840  30.594  44.982   2.684
48416W        W20841  31.123  19.145  11.605
48417W        W20842  28.596  39.079  12.043
48418W        W20843  18.214  35.018   0.947
48419W        W20844  32.939  28.690   3.265
48420W        W20845  22.303  13.442  14.390
48421W        W20846  16.009  35.799  12.882
48422W        W20847  23.197   4.155  12.406
48423W        W20848  15.575   0.341   0.927
48424W        W20849   9.636  29.917  14.632
48425W        W20850  12.793   1.920   5.108
48426W        W20851  34.021  28.015   1.874
48427W        W20852   9.059  16.697   4.091
48428W        W20853  44.749  35.382  12.596
48429W        W20854  36.290  18.319   2.542
48430W        W20855  28.523  32.472  10.700
48431W        W20856   7.501  13.615  14.843
48432W        W20857  24.112  23.739  14.939
48433W        W20858  29.365  41.922   5.078
48434W        W20859  36.040   4.838   0.758
48435W        W20860  16.533  17.737  10.717
48436W        W20861  29.607  12.928  10.221
48437W        W20862  25.487  35.494   4.912
48438W        W20863  35.813   1.394   0.952
48439W        W20864   0.906  18.535   1.309
48440W        W20865  15.851  20.345   0.844
48441W        W20866  34.619  19.659  10.378
48442W        W20867  32.482  25.483   0.889
48443W        W20868  16.506  16.261  13.052
48444W        W20869  41.030  35.578   2.237
48445W        W20870  27.201  36.029  13.476
48446W        W20871  32.426  27.534   0.724
48447W        W20872  13.394  38.371   4.206
48448W        W20873  25.044  23.555  12.512
48449W        W20874   0.796   1.263   3.045
48450W        W20875  35.248  32.968   0.818
48451W        W20876  10.700  32.226  13.611
48452W        W20877  31.051  18.612   4.504
48453W        W20878  25.749   6.871   2.772
48454W        W20879   1.865  36.199   4.115
48455W        W20880  44.632  33.426  11.442
48456W        W20881  15.643  36.047  13.158
48457W        W20882  40.127  41.930  14.481
48458W        W20883   0.203  18.158   0.645
48459W        W20884  37.301   3.295  10.849
48460W        W20885  40.545  13.742  11.611
48461W        W20886  40.018   7.808  14.450
48462W        W20887  31.661  42.298  12.300
48463W        W20888  27.426   2.662   3.229
48464W        W20889  13.397  21.222   1.474
48465W        W20890  26.729  40.210   5.054
48466W        W20891  37.391   6.009  12.880
48467W        W20892  30.451   9.786  14.043
48468W        W20893  40.768  14.316   4.445
48469W        W20894  28.161  39.361  10.648
48470W        W20895  25.859  15.801   1.785
48471W        W20896  40.302  38.893   0.943
48472W        W20897  38.885  44.876  13.999
48473W        W20898  34.019  37.149  10.797
48474W        W20899  30.917  11.388   0.820
48475W        W20900  28.542  24.711  11.185
48476W        W20901  40.508   2.409   1.206
48477W        W20902  25.211  18.122  14.321
48478W        W20903  43.561  13.604  13.566
48479W        W20904  14.684  22.906  12.358
48480W        W20905  20.557  26.238  13.381
48481W        W20906  26.902  28.495  13.293
48482W        W20907  37.035  43.253   4.552
48483W        W20908  35.355  39.518   0.106
48484W        W20909  15.163  32.440  12.944
48485W        W20910  13.193  35.509  13.739
48486W        W20911  15.023  14.876  14.004
48487W        W20912   7.163   0.157  14.886
48488W        W20913   3.667  11.410   1.830
48489W        W20914  43.991  11.888  12.543
48490W        W20915  29.187  34.194  12.534
48491W        W20916   5.190  31.623  11.446
48492W        W20917  37.499  26.694  13.369
48493W        W20918  33.351  40.047   2.836
48494W        W20919  13.685  13.386   2.169
48495W        W20920  14.574   1.910   0.479
48496W        W20921  32.850  27.019  10.709
48497W        W20922  23.660  10.642  14.944
48498W        W20923   2.501  36.847  13.926
48499W        W20924  23.208  27.423  14.924
48500W        W20925   0.571  11.347  13.982
48501W        W20926  37.368   2.388   1.487
48502W        W20927  30.831  42.093  12.597
48503W        W20928   8.824  35.715  11.081
48504W        W20929  40.037   8.803   1.905
48505W        W20930  40.924  28.966   1.617
48506W        W20931  23.777   7.334   0.838
48507W        W20932  10.884  18.487   3.371
48508W        W20933  20.408   2.748  13.331
48509W        W20934   7.927   2.316   4.359
48510W        W20935  23.292  31.361   5.588
48511W        W20936  19.541   4.559   1.772
48512W        W20937  33.925  11.792  14.878
48513W        W20938  36.043  33.752   3.145
48514W        W20939  24.002  41.280  11.420
48515W        W20940  24.915  34.450   4.091
48516W        W20941   3.123  40.892  11.201
48517W        W20942  28.247  39.758   5.395
48518W        W20943   1.487   2.322   0.252
48519W        W20944  10.746  44.467  12.534
48520W        W20945  33.926   6.004   1.255
48521W        W20946  28.911  17.841   3.612
48522W        W20947  34.549  23.794  13.082
48523W        W20948   7.732  38.839  11.991
48524W        W20949  41.251  22.299   5.112
48525W        W20950  19.110  34.877   3.715
48526W        W20951   0.876  34.899  10.316
48527W        W20952  10.598  38.309  13.560
48528W        W20953  20.756  32.881  14.202
48529W        W20954   8.890  16.292   4.526
48530W        W20955  17.367   7.604  13.929
48531W        W20956  31.626   7.016  14.879
48532W        W20957  28.245  32.481   2.790
48533W        W20958  40.531  13.332  14.767
48534W        W20959  39.229  21.233  12.858
48535W        W20960  41.352   6.959  14.402
48536W        W20961  14.484  37.906  12.832
48537W        W20962  40.419  28.044  12.479
48538W        W20963  22.173  28.893  11.171
48539W        W20964   8.986  42.052   5.059
48540W        W20965  35.063  13.822   4.494
48541W        W20966  14.727  17.312  10.632
48542W        W20967  25.229  15.805  13.167
48543W        W20968  21.764   4.952  12.033
48544W        W20969   1.831  29.616   1.686
48545W        W20970   0.466  41.980  14.403
48546W        W20971  25.234  24.613  13.935
48547W        W20972  31.666   5.381  12.412
48548W        W20973   4.943  23.707  12.044
48549W        W20974  44.461  31.671  14.968
48550W        W20975  35.375  29.130  10.990
48551W        W20976  16.589  40.975   2.800
48552W        W20977  27.196   8.725  14.112
48553W        W20978  35.429   0.962   4.085
48554W        W20979  16.441  22.952   1.697
48555W        W20980   6.430   7.936  13.085
48556W        W20981  13.357  44.330   4.558
48557W        W20982   6.166  20.556   1.885
48558W        W20983  14.658  10.687  10.698
48559W        W20984  34.377  43.747   3.861
48560W        W20985  34.985  35.361  14.411
48561W        W20986  30.116  12.140   1.083
48562W        W20987   0.413  28.607  12.963
48563W        W20988  27.656  34.127  13.402
48564W        W20989  35.876  20.987  11.355
48565W        W20990   3.341  44.738   0.411
48566W        W20991  24.733  25.741   4.252
48567W        W20992  29.946  39.766   3.738
48568W        W20993  15.661  20.869   2.643
48569W        W20994  29.032   1.118  13.581
48570W        W20995   3.382   2.324  14.775
48571W        W20996  23.079  12.227   0.397
48572W        W20997  13.177  43.567  14.893
48573W        W20998  19.921  15.829   0.760
48574W        W20999  28.698   9.902   3.496
48575W        W21000  25.871  23.907   3.527
48576W        W21001  30.663  39.546   2.635
48577W        W21002  37.108  32.395   1.723
48578W        W21003  41.365  20.134  11.962
48579W        W21004   5.817  35.368  14.497
48580W        W21005  31.375  40.026  10.051
48581W        W21006  32.214   8.939   2.701
48582W        W21007  24.203  24.611  13.973
48583W        W21008  40.031   3.600  11.190
48584W        W21009  21.934   8.925   5.210
48585W        W21010  26.681  31.406   0.011
48586W        W21011  22.769   9.208   5.452
48587W        W21012  33.201   6.653  14.304
48588W        W21013   7.858  14.840   1.656
48589W        W21014  19.314  18.117  11.234
48590W        W21015  10.564  17.655  10.572
48591W        W21016  26.227  21.559   1.370
48592W        W21017   1.896  30.490  14.935
48593W        W21018  31.118  26.726  10.297
48594W        W21019   4.583   3.449  14.865
48595W        W21020  12.393  13.549  12.160
48596W        W21021  25.191  36.147  12.878
48597W        W21022   0.130  35.158   5.008
48598W        W21023   3.898  40.457   4.352
48599W        W21024  24.996  11.002  11.970
48600W        W21025  19.151  33.789   3.823
48601W        W21026  14.790  34.507   9.658
48602W        W21027  29.359  36.463   4.320
48603W        W21028  27.932  40.164   5.313
48604W        W21029  11.353  13.776   1.790
48605W        W21030  14.160  35.421   0.828
48606W        W21031  44.484  44.856   0.357
48607W        W21032   6.823   2.667   1.440
48608W        W21033  26.182  43.721   4.174
48609W        W21034  26.463  16.068  14.634
48610W        W21035  18.540  37.880   1.330
48611W        W21036  14.265  34.855   0.361
48612W        W21037   0.590  24.979  11.147
48613W        W21038   7.577  17.669  12.342
48614W        W21039  28.167  12.949  10.878
48615W        W21040  20.905  35.392  11.069
48616W        W21041  25.825   9.787  12.792
48617W        W21042   7.272  32.661  14.046
48618W        W21043   7.793  42.722   4.566
48619W        W21044   9.667  13.790   4.196
48620W        W21045  33.003  42.973   4.998
48621W        W21046  33.518  14.658  13.388
48622W        W21047  12.588   0.891   0.900
48623W        W21048  17.250  31.565   1.480
48624W        W21049  14.762  21.974  10.742
48625W        W21050  25.500  41.265   3.248
48626W        W21051  38.953  18.278   1.764
48627W        W21052   8.563  22.829  10.704
48628W        W21053  20.146  13.607   3.561
48629W        W21054   7.272  14.663   3.192
48630W        W21055  33.540  37.482   4.073
48631W        W21056  13.561  21.112   0.979
48632W        W21057  34.393  35.778   3.292
48633W        W21058  26.022  44.985  10.470
48634W        W21059   4.342   7.773   2.838
48635W        W21060  44.305  28.587   1.848
48636W        W21061  43.289  33.390  11.666
48637W        W21062  13.240  19.174   3.209
48638W        W21063   2.027  28.952  12.273
48639W        W21064  11.602  16.567   4.386
48640W        W21065   1.290  35.352   0.266
48641W        W21066  13.879   4.524   0.908
48642W        W21067  23.783  34.181   3.395
48643W        W21068  35.942  16.798   3.888
48644W        W21069  28.475  25.269  12.094
48645W        W21070   8.662  34.108  12.462
48646W        W21071  33.111  24.690  14.984
48647W        W21072   2.859   9.315   0.311
48648W        W21073  14.674  44.433   0.258
48649W        W21074  40.862  33.101  10.609
48650W        W21075  17.817  25.239  14.490
48651W        W21076  21.568  26.150  14.457
48652W        W21077  44.806  35.796  14.463
48653W        W21078  32.670  15.281  12.689
48654W        W21079  36.315  15.181   3.971
48655W        W21080  41.032  36.051  10.734
48656W        W21081   6.763   5.886   1.845
48657W        W21082   0.227  32.456  12.511
48658W        W21083  32.014  15.821   1.007
48659W        W21084  16.847  31.030  12.102
48660W        W21085   5.873  32.120  11.956
48661W        W21086  29.119   4.230   0.823
48662W        W21087  28.881  44.381  11.029
48663W        W21088  23.996  17.382  11.265
48664W        W21089   7.823  11.585  12.593
48665W        W21090   5.841  13.393   0.934
48666W        W21091  20.696   0.513  10.459
48667W        W21092  12.165  32.921  11.089
48668W        W21093  39.634  35.555  11.071
48669W        W21094  11.554  31.540   0.795
48670W        W21095  44.057  44.800   0.716
48671W        W21096  39.332  10.402   1.285
48672W        W21097  20.547  14.531  13.866
48673W        W21098   5.474  13.293   2.206
48674W        W21099   1.171  10.299   1.765
48675W        W21100   3.813   9.193   2.828
48676W        W21101  12.276  12.586   2.392
48677W        W21102  31.273   2.183   3.690
48678W        W21103   9.371  31.078  12.202
48679W        W21104  37.374  26.219  13.538
48680W        W21105  39.478  22.993  10.482
48681W        W21106   6.883  42.264  11.160
48682W        W21107   4.996  40.248   3.073
48683W        W21108  13.262  36.622   1.806
48684W        W21109  20.053  26.441  11.152
48685W        W21110  43.037  24.240  13.306
48686W        W21111  32.072  18.709  12.907
48687W        W21112  43.366   6.887   1.903
48688W        W21113  23.418  22.611  10.414
48689W        W21114  38.476  17.074  11.659
48690W        W21115  37.971  23.471   0.205
48691W        W21116  20.618   9.572  12.791
48692W        W21117   8.194  29.195   4.610
48693W        W21118  21.987  14.868  13.099
48694W        W21119  18.122  35.488  11.416
48695W        W21120  38.098  27.343   2.865
48696W        W21121  40.539  33.879   1.771
48697W        W21122   4.725  38.738   2.757
48698W        W21123  32.380  19.786  14.363
48699W        W21124   1.963   4.504   2.891
48700W        W21125  22.426  40.641   3.270
48701W        W21126  40.081  38.411   1.364
48702W        W21127  21.689  41.799   5.020
48703W        W21128  37.252  20.395  11.799
48704W        W21129  10.874  32.475   4.501
48705W        W21130  25.058  41.926   0.924
48706W        W21131  26.567  33.884  11.596
48707W        W21132  24.644   6.379   2.744
48708W        W21133  31.857   2.833   3.781
48709W        W21134  40.501   8.848   3.179
48710W        W21135   7.834  42.793   3.551
48711W        W21136  19.380  14.746   2.802
48712W        W21137  18.349  19.073   1.888
48713W        W21138   1.949  25.417  14.918
48714W        W21139  40.355  27.551  10.969
48715W        W21140   2.894   3.517  12.562
48716W        W21141  38.998  24.940   2.687
48717W        W21142   4.279  44.918   3.453
48718W        W21143  41.080  13.254  13.355
48719W        W21144  16.797  30.709   0.235
48720W        W21145   5.098  24.387  11.226
48721W        W21146  31.629  29.159  14.527
48722W        W21147  29.016  17.752  14.032
48723W        W21148   2.900   5.170  11.384
48724W        W21149  36.043   3.971   4.465
48725W        W21150   6.821  36.456   1.754
48726W        W21151  32.123   1.019   0.743
48727W        W21152  15.575   1.732   3.017
48728W        W21153  32.843   4.211   3.257
48729W        W21154  44.331  38.987   2.151
48730W        W21155  30.725  14.808  13.471
48731W        W21156   8.697  39.812   3.697
48732W        W21157  18.643  37.009   0.842
48733W        W21158   6.298   6.107  10.268
48734W        W21159  43.041  21.078   2.007
48735W        W21160  23.148  43.518  10.724
48736W        W21161  10.515   2.404   3.703
48737W        W21162  38.441  26.293  12.503
48738W        W21163   5.468  18.503  12.069
48739W        W21164  44.189   5.765   2.779
48740W        W21165  39.369  32.950   2.021
48741W        W21166  29.074  40.877   5.422
48742W        W21167   7.791   6.991  13.594
48743W        W21168   0.262   0.360  14.455
48744W        W21169  15.308  20.024   2.556
48745W        W21170  25.637  23.608   5.287
48746W        W21171   6.938  15.190  13.392
48747W        W21172  18.887  18.632   1.159
48748W        W21173   0.457  39.073  12.006
48749W        W21174  35.993  33.828   0.920
48750W        W21175  26.490  27.638   3.767
48751W        W21176  38.019  40.409   2.618
48752W        W21177  36.658  36.021  12.003
48753W        W21178  34.144  31.101   1.920
48754W        W21179  36.111  16.966   2.160
48755W        W21180  27.501  35.891  14.376
48756W        W21181   6.375  28.897   1.885
48757W        W21182  22.660  43.391  10.853
48758W        W21183  13.214  31.214   4.808
48759W        W21184  12.573  16.566   0.551
48760W        W21185   1.995   3.985   2.864
48761W        W21186  36.494  10.470   5.184
48762W        W21187  32.384  28.486   1.740
48763W        W21188  24.953  15.337   1.894
48764W        W21189  11.393   4.976   3.244
48765W        W21190  20.302  29.492  13.878
48766W        W21191  32.319  16.283  13.945
48767W        W21192  11.956  44.909   3.780
48768W        W21193  15.997  26.477   4.580
48769W        W21194  21.013   8.247   4.283
48770W        W21195  31.935  31.845  12.637
48771W        W21196  17.042  26.244   5.273
48772W        W21197  16.138  26.298  12.054
48773W        W21198  22.034   8.554  13.502
48774W        W21199  22.600   8.424  11.262
48775W        W21200  12.936  31.594   2.769
48776W        W21201  15.097  29.034  11.195
48777W        W21202  10.246   4.844   1.946
48778W        W21203  26.186  29.949   3.712
48779W        W21204   2.011  24.643   2.674
48780W        W21205  13.500  35.995  13.595
48781W        W21206  12.313  38.689   2.090
48782W        W21207  20.429  22.436  14.416
48783W        W21208  18.650  29.070  14.406
48784W        W21209   6.162  43.051  10.824
48785W        W21210  24.480  29.687  10.664
48786W        W21211  13.183   5.196   1.909
48787W        W21212  23.426  19.573  11.207
48788W        W21213   1.620   4.904  11.373
48789W        W21214   9.119  32.780   3.671
48790W        W21215  30.658   7.177  12.332
48791W        W21216  19.164  15.674  14.450
48792W        W21217  17.611  36.648   0.282
48793W        W21218  38.230  15.574  14.499
48794W        W21219   7.733   0.683  14.402
48795W        W21220  14.683   4.228   3.395
48796W        W21221  42.253   9.693   2.604
48797W        W21222   1.515   7.016   2.304
48798W        W21223  39.178  18.161  10.625
48799W        W21224  26.131  35.988  13.094
48800W        W21225  12.893   2.747  14.309
48801W        W21226   2.637  10.501   0.938
48802W        W21227   8.542  13.641   2.646
48803W        W21228   6.388  39.618  13.533
48804W        W21229  39.587   7.910   2.796
48805W        W21230   4.760  24.051   4.614
48806W        W21231  28.982  24.571  10.946
48807W        W21232   9.688  34.772  12.724
48808W        W21233  20.272  36.035   0.911
48809W        W21234  41.700   0.606   0.305
48810W        W21235   3.195  34.585   3.437
48811W        W21236  41.090  36.622   4.169
48812W        W21237  15.604   8.890   0.359
48813W        W21238   2.438  34.921   1.696
48814W        W21239  36.152   9.399  13.014
48815W        W21240  41.442  42.064   4.642
48816W        W21241   0.355  34.943  11.385
48817W        W21242  40.280  15.472   1.884
48818W        W21243  16.168  19.586   0.560
48819W        W21244  36.636  13.888  12.083
48820W        W21245   7.179  11.172  13.055
48821W        W21246  22.579  19.942   1.428
48822W        W21247  21.307  43.456   4.358
48823W        W21248  26.782  44.339  10.157
48824W        W21249  23.094  14.125  14.522
48825W        W21250  43.888   9.865   2.603
48826W        W21251  34.097  29.391   2.686
48827W        W21252  15.371  43.843   3.860
48828W        W21253  26.883   1.866  13.127
48829W        W21254  25.450  26.623   4.668
48830W        W21255  22.115  34.387   3.073
48831W        W21256  20.214  12.827  10.336
48832W        W21257  44.780  41.516  12.503
48833W        W21258  31.591  18.679  12.677
48834W        W21259   2.257  30.195  11.048
48835W        W21260  29.160  40.492   2.179
48836W        W21261   0.793   9.380   1.377
48837W        W21262  44.545  37.510   3.298
48838W        W21263  28.926  12.726   4.516
48839W        W21264   6.679  11.303  11.140
48840W        W21265  18.593  27.718  14.828
48841W        W21266  34.362  38.361  13.470
48842W        W21267   8.925   1.974  13.990
48843W        W21268   5.334  36.617  10.655
48844W        W21269  36.754  11.943  12.983
48845W        W21270  34.286  37.427  12.437
48846W        W21271  22.396  25.934   4.192
48847W        W21272  32.672  41.120   2.780
48848W        W21273  22.451  39.949   0.938
48849W        W21274  43.528   3.360  13.795
48850W        W21275  23.681   1.380   2.827
48851W        W21276   4.533  30.920  11.551
48852W        W21277  16.555  32.211  14.420
48853W        W21278  17.224  43.195   1.230
48854W        W21279  15.200   2.259   2.289
48855W        W21280  29.118  17.851   1.858
48856W        W21281   4.945  10.522  10.664
48857W        W21282   4.108  37.439   2.727
48858W        W21283  44.799  30.847   4.586
48859W        W21284  41.647  36.754   1.098
48860W        W21285  35.969  23.233   0.236
48861W        W21286  24.312   8.757   1.788
48862W        W21287  41.214  11.351  14.396
48863W        W21288  36.764  31.039  13.569
48864W        W21289  21.842  15.634  10.683
48865W        W21290  26.792  31.839   3.653
48866W        W21291   7.136  31.338  13.486
48867W        W21292  30.933  16.223   4.234
48868W        W21293  44.007  35.561  13.193
48869W        W21294  26.556  40.855   4.224
48870W        W21295  40.961  16.231   1.906
48871W        W21296  28.419  34.858   3.260
48872W        W21297  38.599   7.723  12.063
48873W        W21298   0.252  37.933  12.572
48874W        W21299  28.439  27.095   1.963
48875W        W21300   4.946  35.453   0.818
48876W        W21301  24.312  36.082   2.153
48877W        W21302  12.610  44.019  12.160
48878W        W21303   6.811   7.766  14.980
48879W        W21304  24.451  20.491   3.617
48880W        W21305  20.160  36.339  11.123
48881W        W21306   5.888  17.126  14.910
48882W        W21307  11.772  15.851   3.824
48883W        W21308  42.016  36.825  13.153
48884W        W21309   0.784  17.043  14.836
48885W        W21310  43.791  32.093  13.459
48886W        W21311  17.316  24.893   0.223
48887W        W21312  31.806  22.110   0.523
48888W        W21313  19.908  39.047   1.599
48889W        W21314  39.829  21.761  12.938
48890W        W21315  38.034  21.913   0.340
48891W        W21316  41.027  37.139   4.200
48892W        W21317  35.054   0.040  11.562
48893W        W21318  43.946  38.885   2.855
48894W        W21319  22.315  12.863   3.147
48895W        W21320  28.658  17.262   4.142
48896W        W21321   5.974  38.835  10.628
48897W        W21322  40.622  30.789  12.381
48898W        W21323   1.165   7.008   4.174
48899W        W21324  35.170  17.677   2.454
48900W        W21325  30.552  27.394  14.914
48901W        W21326   1.038  42.271  13.423
48902W        W21327  34.592  26.548   1.725
48903W        W21328  42.986  38.028   3.734
48904W        W21329  28.064  41.128  11.277
48905W        W21330  17.863  39.080  11.142
48906W        W21331  44.199  31.392  12.421
48907W        W21332  11.877   5.552  12.611
48908W        W21333  13.139  31.971  12.630
48909W        W21334  22.645  39.084   1.488
48910W        W21335  38.409  29.120   0.031
48911W        W21336  22.227   6.216  10.964
48912W        W21337   7.199  23.837   3.975
48913W        W21338  35.896  19.634  11.990
48914W        W21339  25.009  35.543   1.829
48915W        W21340  27.584  25.793  11.978
48916W        W21341   9.386   3.305   4.045
48917W        W21342  11.947  18.115  14.322
48918W        W21343  10.155   7.909   3.207
48919W        W21344  15.828  40.481  11.333
48920W        W21345  36.123  39.539  14.260
48921W        W21346  20.619  26.430   2.800
48922W        W21347  27.592  44.009  11.213
48923W        W21348  19.270   2.302   0.939
48924W        W21349  23.218  33.108  11.146
48925W        W21350  13.214   9.738   4.216
48926W        W21351  24.652  41.317   4.917
48927W        W21352  29.597  10.355   2.750
48928W        W21353  21.011  28.699   0.528
48929W        W21354  21.030  31.331   0.406
48930W        W21355  16.373   2.529  11.247
48931W        W21356  23.579  34.716  14.514
48932W        W21357  19.760   4.004  12.962
48933W        W21358   7.840  25.949  13.304
48934W        W21359  18.060  15.006  11.593
48935W        W21360  22.684   4.159  14.344
48936W        W21361  10.121  16.679  13.968
48937W        W21362   6.600  39.010   4.661
48938W        W21363  16.636  31.055  13.394
48939W        W21364  20.955  34.549  10.645
48940W        W21365  33.393   7.378   4.318
48941W        W21366   7.294  33.364  12.880
48942W        W21367  21.314  30.115  13.409
48943W        W21368   8.249  42.954   3.867
48944W        W21369  40.691  26.556   0.347
48945W        W21370  19.972  28.655   4.658
48946W        W21371  25.754  28.993   1.593
48947W        W21372   7.923  30.983  13.811
48948W        W21373  40.999  43.656  14.470
48949W        W21374  42.502  30.988  10.423
48950W        W21375  17.660  40.924  13.478
48951W        W21376  19.716  27.380   1.704
48952W        W21377  18.882   0.758  14.271
48953W        W21378   4.421  25.149   0.263
48954W        W21379  42.950  14.152   0.673
48955W        W21380   6.250  13.656   1.163
48956W        W21381  42.458  19.221  10.443
48957W        W21382  26.069   5.875  14.822
48958W        W21383  43.638   3.283   0.281
48959W        W21384   8.817  19.462  12.867
48960W        W21385  34.525  11.325   0.812
48961W        W21386   8.861  13.159   0.635
48962W        W21387  23.268  41.892  13.868
48963W        W21388  15.622   5.955   4.128
48964W        W21389  42.089  23.045   9.679
48965W        W21390  26.176  25.689  11.217
48966W        W21391  31.420  13.305  12.062
48967W        W21392  12.741   6.377   1.621
48968W        W21393  15.557  34.659   2.152
48969W        W21394  42.743   4.771   2.765
48970W        W21395  29.061  34.360   2.772
48971W        W21396   4.118  39.011   1.344
48972W        W21397  28.487  38.145  10.967
48973W        W21398  24.118   2.530   2.334
48974W        W21399  41.914  12.318   2.488
48975W        W21400   7.917  36.309   4.746
48976W        W21401  27.543  21.848   9.735
48977W        W21402  44.687  31.591   4.985
48978W        W21403  38.104   0.844   2.566
48979W        W21404  33.934  27.044  11.820
48980W        W21405  43.735   2.387  13.286
48981W        W21406  23.199  17.123   3.691
48982W        W21407  35.032  23.948   2.718
48983W        W21408  13.228  15.764  14.254
48984W        W21409   8.250  34.828   3.801
48985W        W21410  41.474  22.763  11.056
48986W        W21411  18.103  15.723   4.742
48987W        W21412  25.653  18.578   1.000
48988W        W21413  11.598   6.503  12.026
48989W        W21414   6.316  19.962  11.225
48990W        W21415   4.017   6.848  13.353
48991W        W21416  11.747  22.214   2.160
48992W        W21417  39.742  38.966  14.707
48993W        W21418  15.913  37.976   4.931
48994W        W21419  44.243  15.843   2.616
48995W        W21420  17.810  16.161   4.147
48996W        W21421  34.533  16.538  10.678
48997W        W21422  22.979  42.856   3.139
48998W        W21423  29.219  33.550  12.058
48999W        W21424  19.653  14.527  13.119
49000W        W21425   1.218  20.037   3.389
49001W        W21426   9.200  10.367  12.826
49002W        W21427   6.762  39.504   3.545
49003W        W21428  42.477  14.828   3.017
49004W        W21429  11.711  16.093   2.166
49005W        W21430  15.448  17.106  11.037
49006W        W21431  16.292  23.960   0.921
49007W        W21432  43.913  29.104  11.687
49008W        W21433  19.547  43.888   2.772
49009W        W21434  28.483  43.213   0.943
49010W        W21435   0.510  20.614   1.473
49011W        W21436  29.917  35.362   2.816
49012W        W21437  27.957   2.743  14.199
49013W        W21438  22.472  26.482  14.369
49014W        W21439  28.045  25.682  13.441
49015W        W21440  33.290  42.785  14.458
49016W        W21441  35.495   8.312   5.122
49017W        W21442  23.803  44.391   3.672
49018W        W21443  19.194  36.088  11.098
49019W        W21444  41.248  16.517  14.416
49020W        W21445  22.454   9.720   2.834
49021W        W21446  30.942  19.133   4.548
49022W        W21447   6.200  10.155  10.905
49023W        W21448  44.860  22.221  14.432
49024W        W21449  42.843  40.267   2.183
49025W        W21450  25.165  33.101  14.978
49026W        W21451  44.751  10.322   1.778
49027W        W21452  20.156  22.530   4.540
49028W        W21453  19.541  15.367   1.287
49029W        W21454  15.816  23.190   2.920
49030W        W21455  24.766  21.260  12.921
49031W        W21456  30.503  11.669  12.796
49032W        W21457  25.211  27.300   1.360
49033W        W21458   4.643   5.470  12.944
49034W        W21459  37.605  15.683  12.057
49035W        W21460  32.199  24.438   5.155
49036W        W21461   4.364  26.729   2.843
49037W        W21462  14.977  26.403  14.451
49038W        W21463  40.139  21.246  11.840
49039W        W21464  37.062   0.721   1.303
49040W        W21465  43.292  13.273  14.847
49041W        W21466   7.686  23.741   2.731
49042W        W21467  23.738   8.005  11.337
49043W        W21468   8.738  32.880  14.799
49044W        W21469  40.759  20.131   2.306
49045W        W21470  22.011  26.707   3.660
49046W        W21471   9.351  41.534   2.790
49047W        W21472  40.014   4.122  11.221
49048W        W21473  38.432  41.544  10.720
49049W        W21474  36.012  26.218   2.625
49050W        W21475  11.708  20.440   0.800
49051W        W21476  37.680  38.312  11.500
49052W        W21477  38.152  42.886  14.989
49053W        W21478  44.303  19.046   4.594
49054W        W21479   1.231  16.064   0.744
49055W        W21480  34.460   0.676   0.840
49056W        W21481  38.307  31.153   4.706
49057W        W21482  20.038  12.639   1.410
49058W        W21483  35.336  13.235   0.518
49059W        W21484  12.931  22.496   5.072
49060W        W21485  42.392  11.573  12.006
49061W        W21486  29.995   2.286  13.433
49062W        W21487  11.853  14.766  13.827
49063W        W21488  10.752  21.096  13.800
49064W        W21489  25.505  38.978  10.702
49065W        W21490  24.221   2.694  12.523
49066W        W21491  34.529  39.138   3.620
49067W        W21492  24.632  14.045  11.635
49068W        W21493  34.968   8.881   0.724
49069W        W21494  37.280  14.850  10.689
49070W        W21495   8.863   6.291  10.757
49071W        W21496  22.943  13.146   0.915
49072W        W21497  21.957  24.355  14.803
49073W        W21498   4.956  41.854  14.506
49074W        W21499   9.651  11.851  12.562
49075W        W21500  10.290  25.930   0.847
49076W        W21501  40.497  16.142  12.976
49077W        W21502  28.365  16.807   4.499
49078W        W21503  21.606   1.056   2.868
49079W        W21504   5.964  25.224   1.359
49080W        W21505   6.426   4.829  12.845
49081W        W21506   6.169  44.661   4.616
49082W        W21507  21.878  26.380   5.030
49083W        W21508   9.028  19.757   1.902
49084W        W21509  38.486   2.720  11.770
49085W        W21510   1.742  14.283  12.142
49086W        W21511  31.173  12.945   1.806
49087W        W21512  16.305  23.094  14.986
49088W        W21513   0.893  40.548   4.167
49089W        W21514  35.837  24.172   0.303
49090W        W21515  40.376  19.481  12.592
49091W        W21516  12.705  18.589  12.122
49092W        W21517  27.961  30.012  14.038
49093W        W21518  37.284  11.260  14.320
49094W        W21519  26.579  37.535   2.389
49095W        W21520  22.340  23.025  13.516
49096W        W21521  19.601  34.062  11.652
49097W        W21522  41.454  31.787  10.341
49098W        W21523  13.100  26.881  14.852
49099W        W21524   1.829  18.367  10.719
49100W        W21525  10.375  16.203   2.836
49101W        W21526  27.751  28.170  14.106
49102W        W21527  19.556  21.999  12.160
49103W        W21528  25.077  43.387   2.783
49104W        W21529  14.671  20.471  10.803
49105W        W21530  13.369  26.460   0.855
49106W        W21531  41.471  24.685  13.455
49107W        W21532  42.377  26.556  14.234
49108W        W21533   9.247  23.618   2.194
49109W        W21534  26.348  18.203   1.678
49110W        W21535   6.452   7.481   0.862
49111W        W21536  32.847  23.128   1.098
49112W        W21537  34.150  22.177  14.437
49113W        W21538  22.943  16.318  12.375
49114W        W21539   3.442   9.174  12.647
49115W        W21540  11.631  44.410  13.472
49116W        W21541   1.554  21.615  13.867
49117W        W21542   9.742  15.608  14.938
49118W        W21543  16.572  38.935  11.439
49119W        W21544  37.115  27.780  11.245
49120W        W21545  30.378  38.795   1.402
49121W        W21546  30.309  31.669   4.132
49122W        W21547   7.977  27.616  14.967
49123W        W21548  30.703  25.994  13.416
49124W        W21549  44.796   0.745   4.212
49125W        W21550   9.978  15.100   4.130
49126W        W21551  39.363  21.015   2.599
49127W        W21552  23.067  11.148   4.673
49128W        W21553  30.419  23.979   2.324
49129W        W21554  38.598  31.435  14.176
49130W        W21555  36.831  40.727   2.107
49131W        W21556   8.817  26.438  10.371
49132W        W21557  40.490   6.373   1.910
49133W        W21558  33.119   6.444  13.825
49134W        W21559  31.466  21.719   3.116
49135W        W21560  19.327  40.348   4.280
49136W        W21561   9.834  20.160   1.992
49137W        W21562  23.673  18.016   2.842
49138W        W21563   0.519  39.830   3.809
49139W        W21564  33.371  16.330   1.386
49140W        W21565   1.523  44.972  12.127
49141W        W21566  25.996  42.370  10.489
49142W        W21567  40.081  11.806   0.866
49143W        W21568  18.474  37.511  10.327
49144W        W21569   9.122  11.280  14.901
49145W        W21570  20.040  21.153   0.336
49146W        W21571  11.888  27.799  14.151
49147W        W21572  34.630  31.605  13.945
49148W        W21573  30.553  41.075  14.086
49149W        W21574  23.016  29.073   4.279
49150W        W21575  44.785  32.111   0.748
49151W        W21576  42.411  41.781  12.980
49152W        W21577   2.735   8.149  14.888
49153W        W21578  42.010  40.536  11.119
49154W        W21579   5.490  36.812  12.292
49155W        W21580  26.441   3.104  13.960
49156W        W21581  12.626  37.088   4.493
49157W        W21582  44.455   2.958   4.145
49158W        W21583   6.372  16.487  10.681
49159W        W21584   3.228  15.734   2.826
49160W        W21585  20.517  15.923  14.345
49161W        W21586   8.024  12.768   3.423
49162W        W21587  36.147  35.417  10.791
49163W        W21588  30.339   9.148   2.618
49164W        W21589  40.947  34.713  12.280
49165W        W21590   8.867   2.814   3.879
49166W        W21591  39.515  17.322   2.896
49167W        W21592   6.739  30.919  13.299
49168W        W21593  20.549  10.861   9.640
49169W        W21594  34.897  19.708  11.652
49170W        W21595   5.494  23.182   3.394
49171W        W21596  22.759  34.178   3.701
49172W        W21597  41.513   9.449  10.668
49173W        W21598  38.931  15.805   2.330
49174W        W21599  42.389   2.407  14.924
49175W        W21600  22.958   6.235  11.498
49176W        W21601   1.884  11.196   1.181
49177W        W21602  22.478   2.710   0.712
49178W        W21603   5.935  16.327  14.573
49179W        W21604   8.341  15.065   1.725
49180W        W21605   8.008  17.454  14.217
49181W        W21606  12.713   4.610  12.279
49182W        W21607  16.366  21.068   1.801
49183W        W21608  37.738  34.609   2.646
49184W        W21609  19.459  13.663  11.657
49185W        W21610  37.559  34.631   2.165
49186W        W21611  35.025  25.717   4.853
49187W        W21612  44.824   1.061   1.404
49188W        W21613  28.007  14.933  14.484
49189W        W21614  39.436   8.341  10.785
49190W        W21615  22.121  11.147   1.865
49191W        W21616   7.729  22.179  13.352
49192W        W21617  16.216   9.652  12.992
49193W        W21618   3.988  24.255  11.184
49194W        W21619   4.641  44.534   3.381
49195W        W21620  33.405   7.431   2.624
49196W        W21621  44.457  44.116  12.478
49197W        W21622  41.981  12.557  14.307
49198W        W21623  34.038  34.071  12.884
49199W        W21624  13.958  38.923  12.988
49200W        W21625  31.994  18.870   1.342
49201W        W21626  23.222   1.620   0.788
49202W        W21627  40.617  37.012  14.863
49203W        W21628  28.028  11.595   0.754
49204W        W21629  37.261   3.714  13.029
49205W        W21630  19.664  28.287  14.388
49206W        W21631  27.269   7.925  11.266
49207W        W21632  20.141  11.167   2.857
49208W        W21633   5.878  19.659  11.965
49209W        W21634  18.334  38.707   0.513
49210W        W21635  43.267  30.587  12.931
49211W        W21636  10.662  20.810  11.052
49212W        W21637  27.894   4.034   2.500
49213W        W21638  26.641   7.858   1.305
49214W        W21639   0.045  24.984   0.776
49215W        W21640  40.714   7.216  10.702
49216W        W21641  39.349  14.950   4.640
49217W        W21642   2.305   5.835   3.682
49218W        W21643  37.918   5.101   1.277
49219W        W21644  27.175  27.672  13.855
49220W        W21645  34.435  37.008   2.371
49221W        W21646  40.980  43.377   1.769
49222W        W21647  33.857  25.176  11.562
49223W        W21648   6.256  16.381   0.189
49224W        W21649  28.621  33.709   2.319
49225W        W21650  41.292  22.604   5.530
49226W        W21651  31.964  43.416  14.116
49227W        W21652  18.023  16.048  11.654
49228W        W21653  34.645  21.547  11.132
49229W        W21654  33.837  27.013   1.874
49230W        W21655  43.293   6.867   0.951
49231W        W21656  23.101   5.961  13.352
49232W        W21657  15.012  19.617  12.574
49233W        W21658  16.070  11.329  12.933
49234W        W21659  12.209  27.088   3.672
49235W        W21660  38.687  38.537  11.544
49236W        W21661   6.757  37.210   1.173
49237W        W21662  24.135  14.985  13.427
49238W        W21663  18.105   4.877   2.167
49239W        W21664   8.298  25.405   3.337
49240W        W21665  37.396   2.978  14.488
49241W        W21666  37.055   0.029  11.076
49242W        W21667  35.836  33.155  11.106
49243W        W21668  22.692  43.320   0.817
49244W        W21669  26.423   9.196  11.958
49245W        W21670  33.367  20.008   3.698
49246W        W21671  10.857  20.016  10.515
49247W        W21672  11.729  41.027  10.842
49248W        W21673  15.269  12.797   4.465
49249W        W21674  18.262  39.255  11.650
49250W        W21675  40.717  26.662   2.499
49251W        W21676  35.660  24.379  12.152
49252W        W21677  41.837  21.490  10.702
49253W        W21678  34.939  15.050  14.284
49254W        W21679  29.586  16.152   0.769
49255W        W21680  35.075  39.422  12.925
49256W        W21681   2.688   4.775   3.123
49257W        W21682   8.724   1.436   3.094
49258W        W21683  25.713  38.554  13.629
49259W        W21684  14.595  13.847   1.247
49260W        W21685  30.730  13.484   0.424
49261W        W21686   3.330   9.661  12.813
49262W        W21687  14.653  41.908  14.563
49263W        W21688  17.474  31.802   2.459
49264W        W21689   4.894  15.333   2.815
49265W        W21690  12.817  26.252   0.791
49266W        W21691  13.837   5.897   4.244
49267W        W21692  10.809   4.711   4.216
49268W        W21693  28.957  33.417  14.753
49269W        W21694  44.179  20.195  10.593
49270W        W21695  24.657  36.460   0.306
49271W        W21696  30.935  42.952   5.233
49272W        W21697  13.410  13.173   4.058
49273W        W21698  13.813  28.621  14.120
49274W        W21699   7.389  11.676  12.948
49275W        W21700  44.256  39.816   3.947
49276W        W21701  24.039  33.401   0.462
49277W        W21702  21.508  32.524   2.331
49278W        W21703  19.603  19.613   0.794
49279W        W21704  39.965  43.600  14.388
49280W        W21705  43.082  37.677  12.000
49281W        W21706  11.623   7.326   0.503
49282W        W21707  25.520  21.650   2.404
49283W        W21708   9.780  34.395   4.640
49284W        W21709  39.964  14.227   0.308
49285W        W21710  28.064   1.016   5.325
49286W        W21711  42.745  37.423  14.023
49287W        W21712  23.679  13.003  13.700
49288W        W21713  29.368  17.133   4.556
49289W        W21714  15.682  41.940  14.743
49290W        W21715   2.731  36.426  11.790
49291W        W21716  44.899  38.618   4.771
49292W        W21717  19.950  24.974   3.647
49293W        W21718  28.682  21.032  11.469
49294W        W21719  32.108   6.435   3.243
49295W        W21720  10.165  39.743  11.628
49296W        W21721  40.963   3.554   0.284
49297W        W21722   7.273  11.144   3.520
49298W        W21723  44.286   9.694  13.017
49299W        W21724  26.170  31.190  13.463
49300W        W21725  17.426   8.211   4.800
49301W        W21726  17.055  33.050  13.074
49302W        W21727  16.554  43.929  11.308
49303W        W21728  21.987  34.336  14.724
49304W        W21729  13.553  26.583  11.819
49305W        W21730   4.745  12.065  10.660
49306W        W21731  40.982  38.856   1.709
49307W        W21732   3.710  38.133  11.189
49308W        W21733  33.993  25.297  14.938
49309W        W21734  26.027  17.123  13.045
49310W        W21735  33.905  16.025   4.189
49311W        W21736  10.141  28.829   4.040
49312W        W21737  10.087  42.122   3.157
49313W        W21738  41.321   2.187  12.157
49314W        W21739   0.491  21.620   1.544
49315W        W21740   9.970  17.401  14.502
49316W        W21741  19.765  40.323  14.820
49317W        W21742  18.749  28.504  11.127
49318W        W21743  29.100  30.584  10.349
49319W        W21744  37.851   1.937  12.490
49320W        W21745  35.428  26.830   0.242
49321W        W21746  17.295  42.480  13.020
49322W        W21747  30.935  23.700  11.369
49323W        W21748  19.130  37.648   0.797
49324W        W21749  42.516  29.486  14.323
49325W        W21750  19.559  16.517  11.166
49326W        W21751  12.296  33.565  12.271
49327W        W21752  34.880  23.015   1.896
49328W        W21753  38.724   6.801   2.838
49329W        W21754  23.345  40.547  14.550
49330W        W21755  33.404  42.831   9.987
49331W        W21756  39.944  25.988   3.163
49332W        W21757  37.087   1.244   1.421
49333W        W21758   1.746  43.952  13.973
49334W        W21759  40.906   9.384   3.620
49335W        W21760   8.710   7.792  14.503
49336W        W21761  39.655  42.142  14.515
49337W        W21762  20.476  20.107  13.010
49338W        W21763  22.064  23.613   1.677
49339W        W21764  23.544  28.670  12.033
49340W        W21765  25.761  38.456   4.160
49341W        W21766  28.071  36.446   2.942
49342W        W21767  25.112   5.183  12.500
49343W        W21768  16.254  36.797  14.332
49344W        W21769   0.798  17.266  13.326
49345W        W21770  11.736  11.413  13.958
49346W        W21771  33.477  39.369   2.045
49347W        W21772   2.881  41.774  13.757
49348W        W21773   7.152  39.914   2.755
49349W        W21774  10.640  21.780   0.369
49350W        W21775   6.687   3.907  13.422
49351W        W21776  26.997  25.710  11.635
49352W        W21777   3.448  15.269   2.924
49353W        W21778   2.136   1.789   4.519
49354W        W21779  29.642  32.331   2.610
49355W        W21780  39.965  37.780   3.251
49356W        W21781   6.369   9.605   0.448
49357W        W21782  19.783  16.224  10.821
49358W        W21783  34.464  20.160   1.788
49359W        W21784  36.138  27.447  11.541
49360W        W21785  24.588  22.709   4.247
49361W        W21786  30.394  20.129  10.528
49362W        W21787  19.578  19.143  12.719
49363W        W21788  44.213  38.931  13.787
49364W        W21789  28.739  27.524   1.921
49365W        W21790   0.800  34.752   4.628
49366W        W21791  28.043  20.715  12.603
49367W        W21792   2.920  39.475  11.572
49368W        W21793  41.733  13.721   4.949
49369W        W21794  31.235   8.300   3.404
49370W        W21795  35.014  21.277   0.370
49371W        W21796  22.763  27.666   4.641
49372W        W21797  35.103  40.125   1.699
49373W        W21798  18.884  38.819  10.325
49374W        W21799   8.706  20.483   0.831
49375W        W21800   2.873  10.552  10.990
49376W        W21801  20.323  20.094  14.730
49377W        W21802  24.568  26.661  14.702
49378W        W21803   2.827  13.876   4.043
49379W        W21804  24.563  17.326  13.508
49380W        W21805  37.268   8.546  13.114
49381W        W21806  10.636  41.061  14.469
49382W        W21807  39.966   2.441   3.225
49383W        W21808  21.994  32.900   2.769
49384W        W21809   7.430   1.539  11.993
49385W        W21810   5.874  24.427   0.761
49386W        W21811  38.457  13.627   3.366
49387W        W21812  26.931   3.886  14.900
49388W        W21813  26.224  34.611   4.646
49389W        W21814  19.164  33.537  14.153
49390W        W21815   4.116  31.202  13.925
49391W        W21816  24.608   0.283  11.013
49392W        W21817  26.843  29.986  14.977
49393W        W21818   6.410  39.764   2.135
49394W        W21819  36.850  20.161   4.808
49395W        W21820   0.262  32.916   3.428
49396W        W21821   6.681  17.335  12.866
49397W        W21822  10.933  39.317  11.113
49398W        W21823  28.671  34.473  13.333
49399W        W21824  19.676   7.953  12.928
49400W        W21825  42.978  23.803  13.551
49401W        W21826   8.655  21.005   3.678
49402W        W21827  42.833  12.271  13.190
49403W        W21828  32.242  26.349   3.418
49404W        W21829  33.612  36.346   2.312
49405W        W21830   4.520  34.957   1.629
49406W        W21831   9.948   4.294  13.359
49407W        W21832  19.215  20.258   4.131
49408W        W21833  42.549  16.747   3.966
49409W        W21834  34.856   7.789  13.178
49410W        W21835  44.435  11.152  13.240
49411W        W21836  40.639  20.701   4.447
49412W        W21837   9.802  35.855   1.355
49413W        W21838  14.587  25.139  12.817
49414W        W21839  24.493  26.652  12.969
49415W        W21840   7.641  23.564   4.710
49416W        W21841  15.319  33.525   4.583
49417W        W21842  25.655  27.863   4.322
49418W        W21843  17.364   8.203  14.557
49419W        W21844   2.812  36.678   3.703
49420W        W21845  11.629  33.480  11.599
49421W        W21846  14.753  23.764   2.098
49422W        W21847  17.113  18.965   4.684
49423W        W21848   2.741   8.627  10.072
49424W        W21849  25.430   4.984  14.379
49425W        W21850  25.036   8.220   0.736
49426W        W21851   7.443  44.328   3.945
49427W        W21852  12.448   1.680   2.248
49428W        W21853  23.343  28.366   2.632
49429W        W21854   9.462   4.415   2.331
49430W        W21855   1.031  39.089   3.717
49431W        W21856  22.065  36.649  13.439
49432W        W21857  32.001  37.863   2.587
49433W        W21858  29.127   1.741   3.170
49434W        W21859  29.618  17.313   3.630
49435W        W21860  35.961   4.890  10.739
49436W        W21861  37.892  14.789   4.303
49437W        W21862  43.498  19.600   0.012
49438W        W21863  37.965  12.457   4.705
49439W        W21864  21.725  24.743   3.914
49440W        W21865  11.596   8.145  12.836
49441W        W21866  36.421   9.735  10.235
49442W        W21867  14.773   0.007  14.372
49443W        W21868   4.233  34.920  13.969
49444W        W21869  23.756  10.195   3.829
49445W        W21870   6.727   4.664  14.286
49446W        W21871   9.148   7.269   1.737
49447W        W21872   9.484   1.702  14.715
49448W        W21873  24.080  11.220   0.419
49449W        W21874  40.100   1.734  11.196
49450W        W21875   9.337  11.487   3.191
49451W        W21876  29.517  32.353  14.782
49452W        W21877  29.404   0.347   4.583
49453W        W21878  34.183  41.376  13.916
49454W        W21879  39.876  27.602  14.489
49455W        W21880   2.489  25.970  12.589
49456W        W21881  18.675  32.456   1.382
49457W        W21882  21.667  19.473   0.400
49458W        W21883  38.306  25.019  11.581
49459W        W21884  17.343  39.487  14.197
49460W        W21885  10.770  40.598   0.618
49461W        W21886  15.363  14.609   1.926
49462W        W21887   3.733  16.364  14.915
49463W        W21888  13.860   9.865   2.881
49464W        W21889  42.483  29.899   2.054
49465W        W21890   7.244  44.755  13.525
49466W        W21891   2.154  23.194   3.206
49467W        W21892  32.424  24.111   1.998
49468W        W21893   0.847   1.376   1.672
49469W        W21894   4.981  40.016  13.112
49470W        W21895  30.479  31.393  10.690
49471W        W21896  42.047  14.686  11.925
49472W        W21897  18.150  23.183  10.430
49473W        W21898   4.547  38.270   2.609
49474W        W21899  10.720  44.497  13.553
49475W        W21900  24.538  33.398  13.033
49476W        W21901  34.555  13.809   1.630
49477W        W21902  34.341  43.912  14.771
49478W        W21903  26.134  41.250   4.391
49479W        W21904  44.688  23.468   4.242
49480W        W21905  20.135  28.594  11.129
49481W        W21906   1.917   7.470  14.888
49482W        W21907  44.815  42.253  11.071
49483W        W21908  27.003  38.555   1.951
49484W        W21909   8.678  36.401   1.379
49485W        W21910  22.505  36.488  12.486
49486W        W21911  29.701   5.707  12.448
49487W        W21912  16.627  20.582  14.364
49488W        W21913  22.227   5.989   4.386
49489W        W21914  29.279  23.727   5.154
49490W        W21915  32.719   7.049   1.352
49491W        W21916  26.905  43.929  10.467
49492W        W21917  26.652  31.663   0.465
49493W        W21918  33.451  33.423  12.961
49494W        W21919  31.436  39.505  12.900
49495W        W21920   8.262  28.914  11.472
49496W        W21921  25.968  20.665   3.760
49497W        W21922  26.328  12.587  10.216
49498W        W21923  44.378   9.287   4.091
49499W        W21924  32.125   7.501  12.066
49500W        W21925  22.617  25.138  13.138
49501W        W21926   7.475  34.934   0.602
49502W        W21927  25.800  43.392   1.686
49503W        W21928  21.025   4.786   2.272
49504W        W21929  24.500  31.507   1.766
49505W        W21930  18.326  22.437  11.523
49506W        W21931  30.023  27.136  14.600
49507W        W21932   4.410  18.591   2.366
49508W        W21933  44.247  11.458  12.337
49509W        W21934   3.028  20.185   0.877
49510W        W21935  21.245  27.946   4.596
49511W        W21936   0.856  35.105   1.246
49512W        W21937   4.534  10.527  13.300
49513W        W21938  21.802  36.852   3.757
49514W        W21939  15.171  16.049  12.945
49515W        W21940  42.843  19.127   0.209
49516W        W21941   8.677  41.374  13.417
49517W        W21942  31.930  26.895  12.250
49518W        W21943  30.683   5.694  11.993
49519W        W21944   2.707  14.891  14.257
49520W        W21945  39.641   3.784   1.943
49521W        W21946   8.070  25.005  14.430
49522W        W21947  41.711   3.851  11.939
49523W        W21948  19.576  28.398   3.170
49524W        W21949  36.361  35.623   4.666
49525W        W21950  40.553  27.934   3.196
49526W        W21951  42.675  12.285  13.673
49527W        W21952  35.581  24.754  13.491
49528W        W21953  41.911  37.829  12.988
49529W        W21954  36.852  25.121   2.207
49530W        W21955  44.258  14.017  11.165
49531W        W21956  26.781  10.715   3.777
49532W        W21957  19.157  15.338  11.028
49533W        W21958  15.148  24.977   4.088
49534W        W21959   3.803  17.162   2.248
49535W        W21960   7.954  20.086   3.225
49536W        W21961  16.220   4.657   4.086
49537W        W21962  29.907  23.099  12.855
49538W        W21963  20.633  41.427   0.750
49539W        W21964  27.137  17.914   1.461
49540W        W21965  11.235  37.358   1.486
49541W        W21966  43.765   6.394  11.005
49542W        W21967   8.939   2.932  14.015
49543W        W21968  23.217   2.325   4.366
49544W        W21969  30.584  27.181  11.440
49545W        W21970  10.563  12.712  10.375
49546W        W21971  28.952  41.383  11.237
49547W        W21972  22.622  43.127  13.505
49548W        W21973  39.821   2.537   2.456
49549W        W21974  26.535  26.701  12.321
49550W        W21975   6.327  38.544  14.424
49551W        W21976   8.698   7.285   2.183
49552W        W21977  29.073  39.078  10.931
49553W        W21978  33.883  33.507   2.206
49554W        W21979  39.410  14.593  13.547
49555W        W21980  22.116  11.563  10.256
49556W        W21981   9.058   4.601  13.805
49557W        W21982  33.187   1.319   1.366
49558W        W21983  17.094  25.754  12.455
49559W        W21984  21.580  39.256  12.126
49560W        W21985   1.888   1.755  12.374
49561W        W21986   9.289  29.017   2.931
49562W        W21987  22.688  26.151   3.275
49563W        W21988  40.837  26.672  13.866
49564W        W21989  23.789  22.720   3.616
49565W        W21990  42.493  43.956   0.825
49566W        W21991  22.064   0.874   4.536
49567W        W21992  11.143  40.391   1.731
49568W        W21993  19.589  40.417  11.559
49569W        W21994  26.698  40.540   1.353
49570W        W21995  26.710  35.583   1.364
49571W        W21996  15.755  30.015   2.100
49572W        W21997  13.182   7.342  13.401
49573W        W21998   8.598  24.120   2.374
49574W        W21999   3.185   2.825  12.299
49575W        W22000   2.966   6.138   0.984
49576W        W22001  34.502   6.631  14.961
49577W        W22002  31.846   1.374  12.593
49578W        W22003  27.520  37.865   3.142
49579W        W22004   1.148  36.097   4.630
49580W        W22005  19.685  12.702   2.618
49581W        W22006  42.754  21.167   1.000
49582W        W22007  24.676  39.479   0.444
49583W        W22008  22.977   6.985   2.294
49584W        W22009  30.685  12.611  14.405
49585W        W22010  28.382  23.210   3.817
49586W        W22011   0.589  25.628  12.924
49587W        W22012  40.380  17.731  13.403
49588W        W22013  15.415  34.352  13.025
49589W        W22014  25.596  26.964  11.060
49590W        W22015  39.476  29.894   3.683
49591W        W22016  19.132  23.984   3.033
49592W        W22017  38.326  29.767   2.635
49593W        W22018  34.719  33.984  10.817
49594W        W22019  41.383   2.461   0.783
49595W        W22020  35.154  22.064   3.195
49596W        W22021  28.628  39.418   2.334
49597W        W22022   1.373  11.835   0.867
49598W        W22023  43.444  32.172   2.923
49599W        W22024  23.626   7.833  13.176
49600W        W22025   8.161  25.943   2.130
49601W        W22026  42.313  41.722   4.575
49602W        W22027   7.942  34.255  10.260
49603W        W22028   9.081  32.558  11.637
49604W        W22029  40.932  14.713   2.136
49605W        W22030  33.576  25.003   2.383
49606W        W22031  30.944   5.389  14.085
49607W        W22032  34.094  41.411  12.420
49608W        W22033  42.246   1.852   0.845
49609W        W22034  19.287  39.287   2.192
49610W        W22035  30.128  12.602  13.101
49611W        W22036   9.411  21.247   3.345
49612W        W22037   8.957  40.064  13.078
49613W        W22038  37.949  21.170  14.892
49614W        W22039  30.445  36.106  12.503
49615W        W22040  10.841  44.529   0.784
49616W        W22041  22.171  34.878  12.074
49617W        W22042   3.555   8.558  11.474
49618W        W22043  15.210  38.883   0.870
49619W        W22044  44.073   1.529  10.470
49620W        W22045   3.939   3.877  14.253
49621W        W22046  24.868  43.445   0.633
49622W        W22047  41.285  11.893   3.315
49623W        W22048   2.314  37.801   4.319
49624W        W22049  40.012  11.350   3.615
49625W        W22050   3.692  32.880  12.399
49626W        W22051  30.724  23.953   3.996
49627W        W22052  13.624   3.172  14.816
49628W        W22053  42.519  22.529   0.794
49629W        W22054  19.700  31.066  14.454
49630W        W22055  41.225  42.825  12.124
49631W        W22056  30.658   5.291   0.035
49632W        W22057  16.057  25.090  11.893
49633W        W22058  38.063  24.447   0.490
49634W        W22059   0.384  41.301   0.759
49635W        W22060   2.258  11.603  13.520
49636W        W22061  12.579   1.914  13.787
49637W        W22062  22.434  37.905   1.963
49638W        W22063  28.909  32.943  14.956
49639W        W22064  43.106  18.618  12.014
49640W        W22065  20.934  39.806   1.725
49641W        W22066  42.871  28.964   1.245
49642W        W22067  32.603  14.750   4.967
49643W        W22068  32.154  36.091  14.054
49644W        W22069  37.474  39.050  14.627
49645W        W22070  25.724  15.611   2.300
49646W        W22071  26.977  21.548  14.256
49647W        W22072  39.864  26.418  12.520
49648W        W22073  33.364  11.866   2.272
49649W        W22074  20.757  33.587  12.911
49650W        W22075  16.789   4.536  14.300
49651W        W22076  40.350  17.583  11.034
49652W        W22077   3.537  19.219   3.894
49653W        W22078  27.490   1.034  14.266
49654W        W22079  40.054  23.061  12.564
49655W        W22080   9.177  33.763   4.584
49656W        W22081  37.989   6.957  10.619
49657W        W22082   8.462  26.170  11.665
49658W        W22083   0.419   3.251   0.526
49659W        W22084  28.123  44.056   1.191
49660W        W22085   7.434  24.066   3.065
49661W        W22086  44.990  20.088  11.963
49662W        W22087   7.617   0.950  14.815
49663W        W22088   5.997  41.213   3.422
49664W        W22089  34.108  35.120   4.240
49665W        W22090  32.672   6.793  11.023
49666W        W22091   3.230  29.074  13.846
49667W        W22092  25.665  36.673  12.051
49668W        W22093  29.677   5.273   4.608
49669W        W22094   5.864  37.904  14.839
49670W        W22095  11.721  19.662   2.670
49671W        W22096  22.580  10.222   1.496
49672W        W22097  43.015   9.408  11.612
49673W        W22098  27.957  42.506   0.127
49674W        W22099  25.494  20.106   3.478
49675W        W22100  24.943  29.031   0.244
49676W        W22101  40.265  37.825   0.459
49677W        W22102  30.979  31.830  10.662
49678W        W22103  36.676  19.055  14.794
49679W        W22104  13.894   0.248  14.843
49680W        W22105  24.482  19.325   3.780
49681W        W22106  41.296  12.173   1.290
49682W        W22107  43.681  15.656  13.727
49683W        W22108   1.189   9.631  14.480
49684W        W22109  44.313  24.597   4.415
49685W        W22110  35.629  34.798   2.683
49686W        W22111  27.929  26.774  13.368
49687W        W22112  29.942  41.091   5.120
49688W        W22113  14.348  23.226   1.877
49689W        W22114  36.715   1.100  12.457
49690W        W22115  25.539  35.058   4.641
49691W        W22116  14.123  40.330   3.295
49692W        W22117  18.901  42.627   1.813
49693W        W22118   4.523  38.435  14.042
49694W        W22119  30.619  28.470   2.332
49695W        W22120  43.983   5.811   3.637
49696W        W22121  31.522  42.168   0.209
49697W        W22122  41.565  22.604   1.847
49698W        W22123  15.871   6.381   0.442
49699W        W22124  17.823  38.900  11.954
49700W        W22125  26.852  40.491   1.867
49701W        W22126  33.165   8.879   0.483
49702W        W22127  42.904   8.695   0.723
49703W        W22128   6.704  18.820   4.134
49704W        W22129  35.343  27.486   4.566
49705W        W22130  31.435  38.374  11.982
49706W        W22131  42.878  10.263   2.950
49707W        W22132  33.625  23.472   0.332
49708W        W22133   6.007  40.070   3.948
49709W        W22134   2.738  35.896   0.787
49710W        W22135  41.437   9.289   2.430
49711W        W22136  24.500  19.999   3.278
49712W        W22137  12.686  39.910  13.956
49713W        W22138  10.049  19.821   5.190
49714W        W22139  16.627  25.043  12.693
49715W        W22140  14.386  24.109  12.381
49716W        W22141  13.524  39.893  13.353
49717W        W22142  13.571  11.445   3.686
49718W        W22143  26.225  41.517   2.833
49719W        W22144  12.254  15.023  12.230
49720W        W22145  37.749  20.725   2.424
49721W        W22146   3.068   0.400  11.126
49722W        W22147  33.148  16.544   4.274
49723W        W22148   1.428  14.137  12.580
49724W        W22149  23.759  44.848  11.524
49725W        W22150  25.070  39.992   2.765
49726W        W22151   2.932  23.220  14.111
49727W        W22152  16.633   8.257   0.860
49728W        W22153  16.196  32.927  13.527
49729W        W22154  26.018   7.531  11.167
49730W        W22155  38.915  35.343   4.227
49731W        W22156  43.736  13.716   0.920
49732W        W22157   2.780  42.214  13.201
49733W        W22158   2.589  35.464  11.483
49734W        W22159   4.319  15.605   1.356
49735W        W22160  13.120  38.969   0.676
49736W        W22161  31.785   7.851  12.021
49737W        W22162  25.511   9.828   3.580
49738W        W22163  37.517   0.338   3.332
49739W        W22164  18.110  28.686  11.638
49740W        W22165  26.479  40.455   2.258
49741W        W22166  42.765  10.667   0.232
49742W        W22167   4.274   0.671  11.338
49743W        W22168  40.540  32.372   4.414
49744W        W22169  37.430   3.723   4.710
49745W        W22170  14.146  13.185   0.467
49746W        W22171  32.978   0.707   0.933
49747W        W22172  11.933  25.746   2.365
49748W        W22173  18.043  11.072  14.855
49749W        W22174   3.282   2.824   0.519
49750W        W22175  18.531  23.523   4.126
49751W        W22176   3.422  43.715  14.293
49752W        W22177  39.821  25.676   2.311
49753W        W22178  38.558  27.567   2.842
49754W        W22179  38.285  26.642  13.824
49755W        W22180   7.657  26.925   1.227
49756W        W22181  19.574   5.836   3.966
49757W        W22182   0.194   3.967   1.742
49758W        W22183  25.147   3.305  13.558
49759W        W22184   8.213  19.109  10.532
49760W        W22185  22.256  31.902   1.318
49761W        W22186   9.493  39.780  11.990
49762W        W22187   9.214   7.531  14.800
49763W        W22188  36.941  44.281  11.578
49764W        W22189  12.445  44.922   1.941
49765W        W22190  40.402   1.784   2.272
49766W        W22191  26.223  33.901  11.215
49767W        W22192  39.773  14.889  12.456
49768W        W22193  38.521  24.656   1.882
49769W        W22194  10.251  26.548   3.184
49770W        W22195   1.130  43.266   5.175
49771W        W22196  30.535  31.044  12.071
49772W        W22197  17.802  41.996   2.075
49773W        W22198  31.330  29.575  14.429
49774W        W22199  19.189   0.536   1.950
49775W        W22200  31.441  31.874  12.422
49776W        W22201  37.802  34.485   4.044
49777W        W22202  12.415   9.907   2.703
49778W        W22203  15.096  11.817  14.608
49779W        W22204  39.002  34.830   2.761
49780W        W22205  29.080   7.761   0.584
49781W        W22206  10.288  39.477   2.595
49782W        W22207   2.856   0.351   0.225
49783W        W22208  44.417  18.831  12.344
49784W        W22209   6.151  17.065  11.442
49785W        W22210  12.247  10.233   0.355
49786W        W22211  14.202   5.376  13.592
49787W        W22212  23.004  25.993  13.975
49788W        W22213  14.323  30.013   3.056
49789W        W22214  40.484  33.829  14.116
49790W        W22215   6.703  38.494   0.634
49791W        W22216  26.718  33.338  14.318
49792W        W22217  21.413  12.494  13.042
49793W        W22218   2.764  17.573  12.479
49794W        W22219  29.510  27.415   3.308
49795W        W22220  34.612   7.914  10.709
49796W        W22221  42.706  14.747   2.060
49797W        W22222  26.597  40.052   1.087
49798W        W22223  40.537  22.575   3.125
49799W        W22224  13.370  28.102  13.415
49800W        W22225  21.794   2.163  11.773
49801W        W22226  29.278  21.539  14.943
49802W        W22227   9.688  16.024   3.276
49803W        W22228   5.700  21.155   1.890
49804W        W22229   5.245  16.265   0.734
49805W        W22230  18.100  12.147  10.428
49806W        W22231   3.894  15.830  11.057
49807W        W22232   0.188  38.444   0.871
49808W        W22233  14.820  18.680   1.845
49809W        W22234  30.430  16.175   4.141
49810W        W22235  34.978  15.875   0.405
49811W        W22236  17.869   3.172  13.796
49812W        W22237  18.454  34.029  11.137
49813W        W22238  26.981  10.449  12.509
49814W        W22239  18.576  20.716  11.403
49815W        W22240  13.186  41.022   0.784
49816W        W22241  41.690  19.949  12.885
49817W        W22242   5.906  19.082   3.099
49818W        W22243  37.212  17.317  11.560
49819W        W22244  42.248  33.209   2.229
49820W        W22245   6.223   1.312   0.427
49821W        W22246   0.969  36.470  14.295
49822W        W22247  39.364  33.565  12.966
49823W        W22248  34.517   4.963  10.918
49824W        W22249  41.162  39.867   3.116
49825W        W22250  10.330  27.054  10.634
49826W        W22251  29.470  36.109   1.880
49827W        W22252  30.040  19.746   4.450
49828W        W22253  34.832  16.158  12.472
49829W        W22254  31.164  15.407   3.760
49830W        W22255  13.192  26.664   1.301
49831W        W22256   1.351  36.834   4.152
49832W        W22257  21.061   3.703  12.809
49833W        W22258   2.078  31.426   3.240
49834W        W22259  10.015   8.453   0.451
49835W        W22260  18.033  36.062  12.641
49836W        W22261  24.534   0.450  12.991
49837W        W22262  12.363  17.369  13.299
49838W        W22263   6.288  31.834  11.203
49839W        W22264  43.106  10.553  14.829
49840W        W22265   0.529  32.371  12.059
49841W        W22266  12.684  29.902   1.676
49842W        W22267   1.285  37.904   2.831
49843W        W22268  16.587   4.225   1.228
49844W        W22269  30.636  33.769  14.161
49845W        W22270  31.706  43.411  11.961
49846W        W22271  43.612   1.410  11.538
49847W        W22272   3.002  40.301   2.852
49848W        W22273   0.065  11.186  11.572
49849W        W22274  23.259  12.688   3.220
49850W        W22275  42.306  21.217  10.656
49851W        W22276  31.609  29.855  11.203
49852W        W22277  39.447  23.294   2.659
49853W        W22278   6.406   3.321   3.297
49854W        W22279  22.123  44.449  13.811
49855W        W22280  13.749  29.885   4.644
49856W        W22281  12.159  19.258  12.900
49857W        W22282  26.564  11.656   1.570
49858W        W22283   4.798  13.441   3.216
49859W        W22284  36.117  44.747  13.433
49860W        W22285   3.486  10.313  12.135
49861W        W22286  22.625  27.174   4.512
49862W        W22287  17.163  24.345   3.120
49863W        W22288  31.446  20.034  11.628
49864W        W22289   7.727   4.139   4.299
49865W        W22290  28.951  20.194  10.948
49866W        W22291  40.318  28.849   1.858
49867W        W22292  28.469  37.536   3.348
49868W        W22293   0.024  37.094  12.920
49869W        W22294  35.564  41.949   3.285
49870W        W22295  18.145  17.618   4.608
49871W        W22296  23.842  16.249  12.081
49872W        W22297  13.723   5.001   4.709
49873W        W22298   8.889  43.034   0.882
49874W        W22299  23.586   3.412   1.418
49875W        W22300  38.430  16.747  13.928
49876W        W22301   1.880  16.685  11.953
49877W        W22302  18.717  37.960   2.964
49878W        W22303  23.570  23.508  12.081
49879W        W22304   2.200  25.989   1.364
49880W        W22305   2.265  14.646  13.497
49881W        W22306   8.158   7.716   4.425
49882W        W22307  32.482   6.302  10.851
49883W        W22308   1.995   5.287   2.298
49884W        W22309  11.326  37.433   2.911
49885W        W22310  15.156  44.142   1.116
49886W        W22311  12.754   3.224   0.042
49887W        W22312  24.529  13.804   3.125
49888W        W22313   2.770  28.184  12.672
49889W        W22314   6.757   6.850  14.532
49890W        W22315  26.748  28.590   3.910
49891W        W22316  33.872   7.866  14.507
49892W        W22317   2.874  34.047   0.270
49893W        W22318  32.410  11.449  10.632
49894W        W22319  22.146  38.477  11.807
49895W        W22320   9.923  22.371   1.500
49896W        W22321   3.367   2.726   3.730
49897W        W22322   4.608  29.489  14.484
49898W        W22323   2.512  32.006   1.729
49899W        W22324  23.033   3.880  11.428
49900W        W22325  23.417  13.720   4.748
49901W        W22326  24.675  29.480  12.127
49902W        W22327   2.820  39.789   3.659
49903W        W22328  27.239   4.686   2.303
49904W        W22329  19.665  23.183   1.461
49905W        W22330  36.331  42.916  11.888
49906W        W22331   0.809  35.353  14.865
49907W        W22332  31.623   3.676  12.438
49908W        W22333  36.765  27.767  12.129
49909W        W22334  12.595  23.560  14.242
49910W        W22335  40.281  26.819   1.675
49911W        W22336  18.060   0.738  12.101
49912W        W22337  14.715   3.021  10.858
49913W        W22338  33.446   3.330   3.183
49914W        W22339  43.249   6.439  12.513
49915W        W22340  25.186  44.609   3.758
49916W        W22341  18.625  32.549   1.907
49917W        W22342  41.574  13.864  13.364
49918W        W22343  34.076   3.941   3.588
49919W        W22344  37.479  25.924  10.981
49920W        W22345  18.498  36.706   0.424
49921W        W22346  43.976  37.398   2.672
49922W        W22347   2.026  38.157   2.789
49923W        W22348  12.882  30.509  13.458
49924W        W22349  17.719  22.342  14.861
49925W        W22350  41.931  17.703  14.069
49926W        W22351  42.550  18.282   2.555
49927W        W22352  10.515  15.774   0.432
49928W        W22353  22.263  26.343  12.307
49929W        W22354  39.478   5.610  14.995
49930W        W22355  23.206   8.610  13.779
49931W        W22356  14.143  26.566  13.067
49932W        W22357   9.425   4.424   4.202
49933W        W22358  32.386  19.140  12.946
49934W        W22359  29.727  14.154  10.865
49935W        W22360   9.415  14.087  13.479
49936W        W22361  21.206  12.347  13.493
49937W        W22362   2.273  38.778   3.237
49938W        W22363  39.645  43.285   0.538
49939W        W22364  16.795  16.630  14.291
49940W        W22365  44.385  18.091   1.265
49941W        W22366   0.813  32.617   2.681
49942W        W22367  38.520   6.257   5.170
49943W        W22368  13.232  37.267  14.490
49944W        W22369  33.767   8.959  13.192
49945W        W22370   3.186  35.515  10.600
49946W        W22371   8.898  13.419  12.470
49947W        W22372   8.383  38.862   2.747
49948W        W22373  29.583   6.145   3.216
49949W        W22374   0.907  32.639  13.094
49950W        W22375   6.170  19.686  14.399
49951W        W22376   5.929  22.383   2.258
49952W        W22377  44.358   6.304  12.494
49953W        W22378   7.509  10.887  13.509
49954W        W22379   6.073  22.868  10.933
49955W        W22380  28.141  20.263  10.566
49956W        W22381  34.011  18.412   0.140
49957W        W22382  14.304  26.650   4.125
49958W        W22383   9.827  35.534  13.303
49959W        W22384  18.108   8.833   2.668
49960W        W22385  16.961  37.513   9.842
49961W        W22386   9.906  20.335  12.613
49962W        W22387  39.411  15.748   0.186
49963W        W22388  39.993  26.563  11.998
49964W        W22389  33.339   7.724  14.438
49965W        W22390  20.238  13.825  11.251
49966W        W22391  40.488  30.856   0.693
49967W        W22392   9.207  10.433   2.621
49968W        W22393  25.045   3.817  11.541
49969W        W22394   9.389  27.696  13.971
49970W        W22395  32.541  42.065  12.565
49971W        W22396  13.608   8.609   1.441
49972W        W22397  22.156  38.513  14.294
49973W        W22398  35.652  36.442   1.464
49974W        W22399  18.224  44.827  11.677
49975W        W22400  44.371   5.797  12.658
49976W        W22401  21.520  35.725   2.260
49977W        W22402   7.307  38.374  12.454
49978W        W22403  39.349  28.905  10.232
49979W        W22404  10.104  12.533  12.039
49980W        W22405  31.180  43.352  11.078
49981W        W22406  24.873  39.042   1.872
49982W        W22407  41.054  25.622   0.501
49983W        W22408  13.672   0.292   5.424
49984W        W22409   4.222  37.532  13.307
49985W        W22410  23.509   8.657   2.246
49986W        W22411  31.252  42.545  11.248
49987W        W22412  43.065  25.963  11.950
49988W        W22413  39.013  30.135  11.953
49989W        W22414  15.807  38.580  13.671
49990W        W22415  41.586   2.763  13.021
49991W        W22416  14.358  20.719  10.444
49992W        W22417  41.122   2.396  11.643
49993W        W22418  20.589   4.795   0.445
49994W        W22419  37.973  21.897  12.461
49995W        W22420   2.973  21.646  11.954
49996W        W22421  16.279   0.028   2.230
49997W        W22422  16.679  26.641  10.656
49998W        W22423  41.088  44.024  11.646
49999W        W22424  29.899   2.029  14.887
50000W        W22425  41.650  31.642  10.866
50001W        W22426  27.317   5.397   4.002
50002W        W22427  14.209   9.940   4.690
50003W        W22428  18.681  19.644  13.723
50004W        W22429  37.289  12.387   2.879
50005W        W22430  43.912   5.024   0.101
50006W        W22431   8.963  43.351   1.809
50007W        W22432   2.450  35.471  13.474
50008W        W22433   9.829   3.561   4.232
50009W        W22434  13.627   0.703  14.903
50010W        W22435  11.756  15.414  13.443
50011W        W22436  22.016  12.424  10.630
50012W        W22437  35.401  32.452  13.773
50013W        W22438  21.983  21.445   4.238
50014W        W22439  28.577  24.466  14.421
50015W        W22440  36.634  36.186  10.676
50016W        W22441  29.050  31.810  13.106
50017W        W22442  22.033  40.646  13.404
50018W        W22443   9.260  22.562   0.394
50019W        W22444  26.589  32.310   3.694
50020W        W22445  37.334   7.229  11.062
50021W        W22446  18.814  25.084  14.519
50022W        W22447  24.606  11.743   3.815
50023W        W22448   9.762   9.705  12.371
50024W        W22449  25.861  23.966  11.951
50025W        W22450  16.697   5.315   3.804
50026W        W22451  12.688  13.040  14.761
50027W        W22452  23.598  25.902   3.729
50028W        W22453  11.404  16.946  12.170
50029W        W22454  43.218  37.947  13.239
50030W        W22455   9.510  14.595  12.694
50031W        W22456   5.395  41.021  12.324
50032W        W22457  15.546  33.767  12.922
50033W        W22458  36.388  33.380   1.377
50034W        W22459  30.996  10.283  13.423
50035W        W22460  20.442  43.982  13.462
50036W        W22461  21.041  36.896   5.058
50037W        W22462  43.289  35.837  12.029
50038W        W22463   4.145  14.758   2.664
50039W        W22464   4.833  33.667  10.736
50040W        W22465   5.802  36.523  13.229
50041W        W22466   8.772  36.827   3.140
50042W        W22467  17.309   1.353  14.301
50043W        W22468  34.016  32.692   2.485
50044W        W22469   3.516  35.884  14.898
50045W        W22470  24.606  24.081   2.349
50046W        W22471  36.082  29.614   2.273
50047W        W22472   1.480   6.072  13.211
50048W        W22473  19.762  30.063  13.378
50049W        W22474  16.116  30.086   1.195
50050W        W22475  31.384  27.157  13.405
50051W        W22476  31.062  39.606  11.931
50052W        W22477  42.743  33.535   3.594
50053W        W22478  19.158  13.333  14.268
50054W        W22479  31.120   3.400  14.069
50055W        W22480  29.905  42.953   4.587
50056W        W22481   6.170  20.095  13.242
50057W        W22482  23.942  33.883   1.464
50058W        W22483  36.531  25.707   2.158
50059W        W22484   2.776  27.541  13.298
50060W        W22485  16.060  41.487   3.178
50061W        W22486  29.359  17.114   1.467
50062W        W22487  30.828   7.296  14.346
50063W        W22488  22.635  10.088  12.377
50064W        W22489  22.345   0.936   3.747
50065W        W22490  24.230  37.486  12.059
50066W        W22491   4.995   1.370   1.426
50067W        W22492  32.005   5.958   2.457
50068W        W22493  27.702   3.156  14.024
50069W        W22494  35.934  25.267  12.973
50070W        W22495  17.206  42.554   0.492
50071W        W22496  34.502  13.077   0.748
50072W        W22497  13.884  21.145   2.225
50073W        W22498  27.933  12.834   0.755
50074W        W22499  37.573  36.814  11.661
50075W        W22500  17.586   4.952  13.403
50076W        W22501   3.702  33.885  13.307
50077W        W22502   7.833  30.139   0.892
50078W        W22503  32.223  44.713  13.966
50079W        W22504  27.748   0.878   4.092
50080W        W22505  21.113   7.806   4.575
50081W        W22506   5.155   4.735  11.656
50082W        W22507  38.335  21.924   1.818
50083W        W22508  11.963  33.924   0.616
50084W        W22509   7.715   1.760   3.632
50085W        W22510   4.257  41.986   4.531
50086W        W22511  30.603  41.216  10.654
50087W        W22512   1.917  36.513  14.520
50088W        W22513  36.449  10.542   1.884
50089W        W22514   5.772  15.658  13.195
50090W        W22515   1.105  10.763  10.598
50091W        W22516  37.386  14.636   2.893
50092W        W22517  10.898   7.355  10.430
50093W        W22518  40.125  24.231  13.846
50094W        W22519  24.552  44.234   4.695
50095W        W22520  29.014   1.625   1.001
50096W        W22521  13.338   8.429   2.334
50097W        W22522  15.215  32.859  14.958
50098W        W22523  11.817  24.122   9.980
50099W        W22524  30.636  40.067  11.143
50100W        W22525  43.992  34.659   2.250
50101W        W22526  12.882  28.603   0.893
50102W        W22527   4.970  42.473   4.258
50103W        W22528  18.664  27.366  13.932
50104W        W22529  22.590   2.289   3.092
50105W        W22530  43.873   3.048   3.785
50106W        W22531  44.030  35.032  14.414
50107W        W22532  19.063  35.877  13.847
50108W        W22533   2.039  17.144   5.022
50109W        W22534  36.347  21.038   2.386
50110W        W22535  21.485  33.814   0.969
50111W        W22536   2.426  42.424  12.861
50112W        W22537  11.090  32.340   3.053
50113W        W22538  22.672  27.058  13.075
50114W        W22539  25.072  37.267   2.396
50115W        W22540  21.502  11.802  14.578
50116W        W22541  40.531  32.081  13.801
50117W        W22542  33.429  33.712  14.639
50118W        W22543  28.326  41.889   5.031
50119W        W22544   2.860   3.896   0.305
50120W        W22545  38.508   8.108  10.684
50121W        W22546  26.985  10.513  13.465
50122W        W22547  18.695  30.674  10.232
50123W        W22548  26.010  11.218  10.853
50124W        W22549  12.832  43.036  13.944
50125W        W22550  36.557  20.447   2.804
50126W        W22551   4.911  22.172   4.374
50127W        W22552  22.310  38.844   3.808
50128W        W22553   1.657   9.481  14.304
50129W        W22554  38.450  23.733  11.859
50130W        W22555  43.979  14.157  14.758
50131W        W22556  15.080  11.654  12.926
50132W        W22557   7.417  35.109   1.082
50133W        W22558  27.960   8.456  14.309
50134W        W22559  33.606   5.094  12.634
50135W        W22560   2.832  43.002  11.112
50136W        W22561  20.899   3.606   4.467
50137W        W22562  16.388  30.152  13.500
50138W        W22563  18.014  27.364  13.449
50139W        W22564   3.759  19.043   2.250
50140W        W22565  41.856  11.633   4.744
50141W        W22566  43.484  31.622   0.977
50142W        W22567  43.615  22.278  13.587
50143W        W22568  43.803   5.842   1.219
50144W        W22569  34.446  14.219  12.199
50145W        W22570  43.773   4.242   3.201
50146W        W22571  12.871  31.695  12.001
50147W        W22572  35.594  16.818   3.417
50148W        W22573  21.716   6.629  13.429
50149W        W22574  42.193   1.276  10.932
50150W        W22575  21.712  16.760   3.799
50151W        W22576  44.503  14.610  12.089
50152W        W22577  18.206  27.513   2.502
50153W        W22578   9.834  13.234  14.065
50154W        W22579  42.874  25.998   1.223
50155W        W22580   9.920  31.723  10.706
50156W        W22581   1.886  11.634  11.483
50157W        W22582  21.127  28.648  13.631
50158W        W22583  34.195  38.967  13.117
50159W        W22584  42.976  35.430   4.668
50160W        W22585  17.327  39.378  12.566
50161W        W22586   2.982   7.188   1.761
50162W        W22587   8.890  13.881  13.427
50163W        W22588  29.871   0.676   1.618
50164W        W22589  29.416  18.701  10.758
50165W        W22590   2.336  43.419   2.804
50166W        W22591  21.682  35.468  14.799
50167W        W22592   7.721  44.376  14.876
50168W        W22593  40.132  35.550   0.716
50169W        W22594  14.176   3.574   5.360
50170W        W22595  39.948  17.499  11.591
50171W        W22596  34.602  18.314   4.562
50172W        W22597  16.720  30.175  10.441
50173W        W22598   0.974  27.958   3.122
50174W        W22599  19.724  27.611   3.764
50175W        W22600  16.193  15.544  14.290
50176W        W22601  17.597  15.214   0.340
50177W        W22602  30.480  28.764   1.921
50178W        W22603  23.595  22.191  13.884
50179W        W22604  19.539  23.764  13.786
50180W        W22605  33.597   6.276  13.919
50181W        W22606   2.106  38.750   1.327
50182W        W22607  37.991  34.379  11.916
50183W        W22608  39.464  30.007   0.452
50184W        W22609  14.676  24.148   4.419
50185W        W22610  36.205  41.320  14.924
50186W        W22611  43.600  18.775   3.998
50187W        W22612  15.239   7.645   0.546
50188W        W22613   4.522  28.775  13.903
50189W        W22614  11.224  20.513   2.597
50190W        W22615  24.999  44.680  12.386
50191W        W22616  44.845   2.267   3.261
50192W        W22617  38.545  27.831  14.325
50193W        W22618  14.354  36.576   2.920
50194W        W22619   5.857  16.430  11.592
50195W        W22620  35.525   6.350   3.063
50196W        W22621  28.487   7.343   1.201
50197W        W22622  22.156  15.212  14.942
50198W        W22623  25.160  41.368   3.736
50199W        W22624  26.525  40.955   1.023
50200W        W22625   4.782  17.746  11.590
50201W        W22626   1.264  15.297   3.987
50202W        W22627  23.943   8.913   2.387
50203W        W22628   2.991  36.887   0.390
50204W        W22629  35.631  38.526  14.801
50205W        W22630  10.127   0.573  13.386
50206W        W22631  42.804  44.487  13.210
50207W        W22632  19.273  18.888  12.395
50208W        W22633  43.362  42.361  11.177
50209W        W22634  24.596  38.813  12.029
50210W        W22635  37.914  30.058  14.918
50211W        W22636  16.105  29.160   2.291
50212W        W22637  23.017  20.463  11.371
50213W        W22638  31.427  33.130   0.444
50214W        W22639  28.955   7.616   2.878
50215W        W22640  24.198  28.091  10.446
50216W        W22641  25.979   7.916   3.199
50217W        W22642  12.838  34.512  14.722
50218W        W22643  21.605   6.133  13.426
50219W        W22644   9.435   7.334   9.938
50220W        W22645  21.575  24.209  14.416
50221W        W22646  13.294  11.470   0.267
50222W        W22647  10.468   9.850   0.302
50223W        W22648  41.373   8.938  10.613
50224W        W22649  27.680  39.314  14.414
50225W        W22650  41.810  23.564   1.256
50226W        W22651   1.428   8.645  14.226
50227W        W22652   0.776   0.422   3.695
50228W        W22653  44.928  42.996   2.858
50229W        W22654   5.836  28.025  13.531
50230W        W22655  17.747  12.889   4.968
50231W        W22656  39.406  15.058   3.200
50232W        W22657  19.129  22.455  14.862
50233W        W22658  36.428  33.346  11.688
50234W        W22659   4.300  40.846   3.652
50235W        W22660  19.365  20.960  11.202
50236W        W22661  25.898  33.562   0.009
50237W        W22662  12.716  25.708   2.707
50238W        W22663   9.234  19.790  12.144
50239W        W22664  24.725  25.947   4.742
50240W        W22665   2.770  14.661   2.453
50241W        W22666  30.700  15.609  13.785
50242W        W22667  17.377  29.386  11.922
50243W        W22668   5.371  29.949  11.835
50244W        W22669  13.500  27.176   3.388
50245W        W22670  32.591  39.593   4.069
50246W        W22671  19.169  24.006  14.529
50247W        W22672  43.376   8.828   4.595
50248W        W22673  32.095  20.543   4.867
50249W        W22674   0.419  42.831   4.582
50250W        W22675  42.019  15.453   2.428
50251W        W22676  26.865  10.439  11.646
50252W        W22677  21.314  26.947   2.235
50253W        W22678  39.536   4.230  14.461
50254W        W22679  29.375  37.269   2.441
50255W        W22680  32.917  40.050  10.720
50256W        W22681   8.413  19.565   0.791
50257W        W22682   5.161  15.316   3.578
50258W        W22683  12.901  29.155   2.774
50259W        W22684   0.289  29.009   3.629
50260W        W22685  28.257  37.103  10.662
50261W        W22686  16.943  24.168   1.882
50262W        W22687  25.872  27.042   2.623
50263W        W22688  21.626   0.772  11.778
50264W        W22689   9.180  21.491   2.946
50265W        W22690   0.826  12.465  10.967
50266W        W22691  30.727  40.979  11.608
50267W        W22692  40.838  25.621  14.569
50268W        W22693  29.626  41.394   9.502
50269W        W22694  28.578  14.601  11.312
50270W        W22695  29.015  13.185  12.785
50271W        W22696  40.504   7.447   4.575
50272W        W22697  24.116  43.528   0.803
50273W        W22698  22.893  23.270   0.211
50274W        W22699  36.596   1.205   0.445
50275W        W22700  30.646  41.924   1.744
50276W        W22701  10.795  42.958   1.823
50277W        W22702   6.010   6.984  12.868
50278W        W22703  18.667  10.151  10.653
50279W        W22704  18.375  41.600  11.673
50280W        W22705  41.136  12.299  12.376
50281W        W22706  12.772  36.445   4.461
50282W        W22707  37.294  37.969  11.550
50283W        W22708  20.467  30.213   3.361
50284W        W22709  21.157  25.669   1.415
50285W        W22710  38.309  19.632   0.316
50286W        W22711  16.230  38.984   2.970
50287W        W22712  14.730  12.400  12.110
50288W        W22713   4.779  23.375   1.210
50289W        W22714  16.650  28.463   1.447
50290W        W22715  26.597   2.896  11.630
50291W        W22716  19.149  34.651   3.211
50292W        W22717  24.972  13.179   3.623
50293W        W22718  42.394   9.657   0.364
50294W        W22719  41.815  37.896   2.191
50295W        W22720  33.164  36.622   2.398
50296W        W22721  19.652  37.001  13.575
50297W        W22722  10.318  19.242  12.035
50298W        W22723  12.692  25.757   0.768
50299W        W22724  36.762   8.740   3.278
50300W        W22725  41.003   0.783  12.008
50301W        W22726  40.993  27.164  10.663
50302W        W22727  35.986  25.271   1.360
50303W        W22728  23.995  13.788   2.270
50304W        W22729  22.201   3.433  14.302
50305W        W22730  44.974  28.538  14.379
50306W        W22731   0.231  14.304   0.186
50307W        W22732  35.375  38.349  14.354
50308W        W22733   4.701  19.080   0.433
50309W        W22734   4.405   7.164   1.797
50310W        W22735   8.893  14.912   4.620
50311W        W22736  16.421  44.740   2.686
50312W        W22737  25.944  41.762   4.126
50313W        W22738  38.393  10.628   1.408
50314W        W22739  40.781  24.290   3.236
50315W        W22740   4.125  34.497   3.036
50316W        W22741  43.036  18.925   2.262
50317W        W22742  33.703  27.437   0.076
50318W        W22743   3.331  25.835  14.580
50319W        W22744   3.768  43.442  11.029
50320W        W22745  33.968  26.740   5.190
50321W        W22746  33.401   3.348  14.356
50322W        W22747   4.883  18.404  14.750
50323W        W22748  29.345  28.539  14.521
50324W        W22749   2.899  38.042  13.256
50325W        W22750  16.534  39.317  11.096
50326W        W22751   4.369   2.219   4.098
50327W        W22752  21.356  28.573   2.786
50328W        W22753   6.320  15.702   1.719
50329W        W22754   3.709  24.283  14.509
50330W        W22755   3.169   4.412  14.431
50331W        W22756  13.614  30.117  13.356
50332W        W22757  20.019  24.980  10.561
50333W        W22758  40.076  28.050   2.337
50334W        W22759  15.282   3.935  13.554
50335W        W22760   8.854  23.677   4.307
50336W        W22761  37.803  11.236  14.197
50337W        W22762  25.159  15.753  14.998
50338W        W22763  15.190  36.120   4.470
50339W        W22764   1.256  20.738  12.961
50340W        W22765  11.269  30.694   4.524
50341W        W22766  41.820  16.806  11.591
50342W        W22767  35.661  33.031   3.927
50343W        W22768  28.013  38.423  12.119
50344W        W22769  14.847  33.236   3.578
50345W        W22770  39.652  20.258   0.537
50346W        W22771  21.972  33.347  13.504
50347W        W22772   4.280   4.790  12.390
50348W        W22773  41.505  11.070  10.585
50349W        W22774   2.187  39.772   1.399
50350W        W22775  34.505  28.941  11.086
50351W        W22776   0.559   1.388  10.767
50352W        W22777  26.673  42.586   3.384
50353W        W22778  40.356  25.459  13.384
50354W        W22779   6.629  39.309  14.314
50355W        W22780  11.760   3.671   4.138
50356W        W22781  20.651  38.294  13.410
50357W        W22782  20.213  25.223   2.238
50358W        W22783  24.262  24.974   3.268
50359W        W22784   6.133   3.355   1.044
50360W        W22785  31.129  33.078  13.626
50361W        W22786  30.158  19.454   0.632
50362W        W22787  30.752  20.600  14.832
50363W        W22788  25.233  20.656   0.499
50364W        W22789  17.645   6.634   1.850
50365W        W22790  18.873  44.390  12.238
50366W        W22791   0.832   1.929   5.377
50367W        W22792  40.420  22.123   0.522
50368W        W22793   7.963  33.356  14.293
50369W        W22794  26.750  40.752  12.493
50370W        W22795  27.925  20.052   2.785
50371W        W22796   9.690  36.402  12.011
50372W        W22797   5.924  24.565  11.995
50373W        W22798  35.476  14.203  11.117
50374W        W22799  43.031  16.757  12.220
50375W        W22800  11.361   3.542  13.982
50376W        W22801  35.399  22.963  13.951
50377W        W22802  27.153  28.975  14.420
50378W        W22803  30.021  11.395   1.726
50379W        W22804   6.445  27.123   4.700
50380W        W22805  42.531  35.108  10.981
50381W        W22806  24.352  15.718   4.513
50382W        W22807   6.715  24.855   4.594
50383W        W22808  35.873   5.891   2.746
50384W        W22809  11.196  14.724   3.878
50385W        W22810   0.467  10.679  14.437
50386W        W22811  14.028   4.714  14.320
50387W        W22812  19.720  15.134  11.605
50388W        W22813  41.801  44.353   2.245
50389W        W22814  11.739  24.039  14.512
50390W        W22815  30.852  40.221   4.581
50391W        W22816  20.461  27.136   0.918
50392W        W22817  15.581  33.039  13.324
50393W        W22818  27.163  32.426  12.998
50394W        W22819  22.434  26.676   3.947
50395W        W22820   8.913  22.648   3.407
50396W        W22821  36.750   3.490   3.638
50397W        W22822  22.732  25.146   2.313
50398W        W22823  12.576  19.539  12.783
50399W        W22824  24.608  24.203  14.308
50400W        W22825  21.273   2.988   1.894
50401W        W22826  33.353  23.201   1.210
50402W        W22827   2.273  22.908  14.353
50403W        W22828   7.198  24.277  12.496
50404W        W22829  26.380  41.824   0.877
50405W        W22830  31.521  40.550   4.103
50406W        W22831  33.871  10.698   4.329
50407W        W22832  20.207  43.242   5.021
50408W        W22833  28.072  21.251   4.971
50409W        W22834  41.493  32.678   4.129
50410W        W22835  37.579  32.434   1.237
50411W        W22836  26.947  26.581  12.640
50412W        W22837  28.434   7.216   1.979
50413W        W22838  39.418  22.643  14.754
50414W        W22839  40.267  20.122   2.093
50415W        W22840  19.429  33.064  10.661
50416W        W22841   9.838  37.233   3.205
50417W        W22842  14.742  22.270   2.373
50418W        W22843  17.728   4.684   1.893
50419W        W22844  34.969  28.842  11.653
50420W        W22845  36.625  23.734  11.231
50421W        W22846  17.273   8.691   4.974
50422W        W22847  17.633  25.919  14.342
50423W        W22848  22.520  17.126  13.314
50424W        W22849  28.187  29.573   3.052
50425W        W22850  14.678  16.791  12.542
50426W        W22851  29.358  36.380   2.998
50427W        W22852  16.431   1.858  12.907
50428W        W22853  18.594   5.680  12.812
50429W        W22854  44.409  33.134  14.417
50430W        W22855  22.099  23.065  13.979
50431W        W22856  44.390   0.291  11.941
50432W        W22857  29.543  27.423   1.857
50433W        W22858  41.387  22.418  12.304
50434W        W22859  16.837  38.900  14.350
50435W        W22860  32.291  21.210  10.679
50436W        W22861   1.903  13.557  13.510
50437W        W22862  28.355  13.052  13.442
50438W        W22863   5.422  12.818   0.469
50439W        W22864  34.940  30.231   2.877
50440W        W22865  39.425   4.244   0.983
50441W        W22866  14.389  17.889   5.074
50442W        W22867   7.197  27.090   2.328
50443W        W22868  26.552  10.827  12.799
50444W        W22869  12.702  32.674  14.327
50445W        W22870  16.732  12.520   0.559
50446W        W22871  23.842  18.676   2.277
50447W        W22872  33.400   4.998  12.167
50448W        W22873  19.658  36.774   0.945
50449W        W22874  34.167  40.042   1.041
50450W        W22875  15.593  14.930  14.970
50451W        W22876  30.426   6.965  14.415
50452W        W22877  27.715  16.552  11.483
50453W        W22878   3.249  42.932   4.286
50454W        W22879   8.850  13.770   1.353
50455W        W22880  16.675  38.556   4.166
50456W        W22881  19.436  36.228  12.938
50457W        W22882  29.605  11.398   4.511
50458W        W22883   0.782  22.046   1.397
50459W        W22884   7.538  43.485   0.958
50460W        W22885   4.756  17.240   3.850
50461W        W22886  11.406  34.666  12.435
50462W        W22887  25.615  19.813  12.101
50463W        W22888  21.251  31.480  14.934
50464W        W22889   0.251   7.662  11.403
50465W        W22890  13.428  27.401  10.902
50466W        W22891  36.046   8.384  14.456
50467W        W22892  20.762  29.501  13.010
50468W        W22893  17.009  24.309  12.363
50469W        W22894  30.719  20.043  14.838
50470W        W22895  34.803  23.854  13.572
50471W        W22896   2.927  22.873  11.192
50472W        W22897  44.287   4.880  12.534
50473W        W22898  12.182   4.858  11.578
50474W        W22899   5.399   2.185  11.543
50475W        W22900  21.551  21.498   1.265
50476W        W22901  17.802   6.212  14.924
50477W        W22902   5.930   5.567   1.335
50478W        W22903  12.306  31.521  10.720
50479W        W22904  11.523   1.722   2.624
50480W        W22905  30.428  20.551  12.002
50481W        W22906  36.207   7.913  14.314
50482W        W22907  34.884  38.054   0.934
50483W        W22908  17.532   6.902   2.279
50484W        W22909  27.322  29.872  14.865
50485W        W22910   2.720  24.960   4.658
50486W        W22911  14.446  38.405  12.864
50487W        W22912  36.240  16.462   2.691
50488W        W22913  41.527  17.963   3.420
50489W        W22914  12.364  15.400   4.662
50490W        W22915   7.541  14.066   4.611
50491W        W22916   6.197  25.220   2.737
50492W        W22917   7.907   1.279   2.275
50493W        W22918  24.058  19.707   1.837
50494W        W22919  15.207  35.141  12.638
50495W        W22920  39.955   4.472   2.328
50496W        W22921  21.540  13.877   2.427
50497W        W22922   2.245  43.001   1.417
50498W        W22923  16.584   5.753   3.552
50499W        W22924  32.812  21.053  10.603
50500W        W22925  15.774  38.751   3.799
50501W        W22926  37.615  24.029  11.072
50502W        W22927  26.856  33.570   3.763
50503W        W22928  43.678  26.529  14.358
50504W        W22929   0.113   1.834   3.127
50505W        W22930   0.262  17.329  12.452
50506W        W22931  10.691  16.297  13.823
50507W        W22932  10.697   5.444  14.819
50508W        W22933  16.830  44.918   2.935
50509W        W22934  21.636  36.996  13.561
50510W        W22935  28.372  19.173   1.675
50511W        W22936   2.511   9.395   3.332
50512W        W22937  44.377   7.887  14.222
50513W        W22938   4.742  26.422   1.925
50514W        W22939  37.982  12.632   1.999
50515W        W22940   9.884  29.103   4.776
50516W        W22941  23.210  25.000  10.613
50517W        W22942  42.531   5.313   2.250
50518W        W22943  13.600  10.323   4.525
50519W        W22944   8.331   1.318   2.758
50520W        W22945  15.557  10.349  14.900
50521W        W22946  36.496  21.079  12.054
50522W        W22947   2.877  17.497   4.256
50523W        W22948  23.615  37.110   3.423
50524W        W22949  31.111  21.498   0.283
50525W        W22950  34.564   0.804  14.413
50526W        W22951   7.266  25.759  12.444
50527W        W22952  33.157  13.490   1.399
50528W        W22953  38.451  10.213  14.391
50529W        W22954  24.198  20.255   0.984
50530W        W22955  41.853  29.503  11.100
50531W        W22956  32.004  21.153   3.752
50532W        W22957  14.843  21.743  11.189
50533W        W22958   9.119  33.918   2.676
50534W        W22959  33.726  17.797   3.168
50535W        W22960  26.685  34.372  13.394
50536W        W22961  38.835  28.157   9.896
50537W        W22962   8.268  25.937   3.064
50538W        W22963   8.896  41.087  11.125
50539W        W22964  12.843  32.428  14.747
50540W        W22965  14.505   4.594  10.055
50541W        W22966  37.028  18.843   4.771
50542W        W22967  17.326  24.857   5.042
50543W        W22968  18.999   9.633   4.172
50544W        W22969  10.636  43.822  11.604
50545W        W22970  17.709  26.177   0.364
50546W        W22971  44.793  20.441  11.100
50547W        W22972  38.571   3.895   4.323
50548W        W22973   9.910  41.588  14.234
50549W        W22974  29.963   3.784   3.584
50550W        W22975  12.854  30.444  11.807
50551W        W22976  16.104   4.846   4.938
50552W        W22977   0.416   9.492  12.911
50553W        W22978  26.129  17.057   0.369
50554W        W22979  22.178  19.966   4.097
50555W        W22980  10.903  32.610  14.990
50556W        W22981  10.524   4.218  14.459
50557W        W22982  44.177  36.010   1.537
50558W        W22983  33.066  41.464   1.524
50559W        W22984  19.202  33.876  11.374
50560W        W22985  21.059  24.450  11.487
50561W        W22986  25.257  30.725   3.152
50562W        W22987   1.378  33.691  10.625
50563W        W22988  32.606   1.406  13.783
50564W        W22989   5.457  20.052   2.202
50565W        W22990  30.026  17.752   1.271
50566W        W22991  30.252  36.484   4.668
50567W        W22992  22.758   2.241   4.048
50568W        W22993  24.689  15.905   1.029
50569W        W22994  39.311  24.396  12.971
50570W        W22995   2.500  25.576   1.229
50571W        W22996   9.229  24.144  12.838
50572W        W22997  15.048   0.037  11.518
50573W        W22998   2.054  31.891  14.514
50574W        W22999  33.857   2.823  11.335
50575W        W23000  44.438  24.242  13.427
50576W        W23001  17.790   1.149   2.258
50577W        W23002  38.840  43.000  11.529
50578W        W23003  24.048  12.890  10.596
50579W        W23004  27.438  35.244   0.253
50580W        W23005  33.591   9.375   0.383
50581W        W23006  30.583  11.129   2.867
50582W        W23007  20.293  44.017   3.256
50583W        W23008  18.260  10.067   4.823
50584W        W23009   7.278   0.860   2.771
50585W        W23010   7.851   4.352   2.772
50586W        W23011  36.198  28.080   4.742
50587W        W23012  36.331  25.516   3.039
50588W        W23013   8.218  16.084   3.172
50589W        W23014   5.630   1.465   3.312
50590W        W23015  31.879  41.856   4.219
50591W        W23016  13.577  42.042  11.686
50592W        W23017  26.540   8.882  13.764
50593W        W23018  41.058  44.094  13.475
50594W        W23019  16.198  39.522  14.617
50595W        W23020  31.021  39.997   0.546
50596W        W23021  25.199  42.837  10.513
50597W        W23022  35.647  41.800   3.765
50598W        W23023  32.641   3.444  12.500
50599W        W23024  38.837  16.192   3.880
50600W        W23025  41.889   8.203  13.010
50601W        W23026   4.127   9.731   0.740
50602W        W23027  14.120   0.738   4.550
50603W        W23028  19.006  16.697  12.035
50604W        W23029   3.277   7.712  14.406
50605W        W23030   1.766  32.080   2.331
50606W        W23031   1.837  28.182   2.710
50607W        W23032   1.797  25.478   3.691
50608W        W23033  29.168   3.634   0.807
50609W        W23034  33.110   0.340   4.325
50610W        W23035  36.687  20.312  14.709
50611W        W23036  24.614  37.340   1.538
50612W        W23037  20.760  34.977  14.460
50613W        W23038   2.221  30.116   1.292
50614W        W23039  24.762  19.237  13.846
50615W        W23040  19.556  30.887   1.290
50616W        W23041  36.660  30.157   0.778
50617W        W23042  11.131  29.615   4.059
50618W        W23043  26.029  24.028   1.263
50619W        W23044   0.315  37.761  14.426
50620W        W23045  18.587  15.638   0.268
50621W        W23046  22.660  37.644   0.633
50622W        W23047  40.048  31.466  11.654
50623W        W23048  42.379  40.824  14.716
50624W        W23049  34.043  15.582  10.538
50625W        W23050  26.626   2.826   4.930
50626W        W23051  39.058  36.533  13.961
50627W        W23052  34.866   3.490  11.815
50628W        W23053  15.986  35.904   4.751
50629W        W23054   2.529   3.986  12.866
50630W        W23055  28.397  31.997  11.454
50631W        W23056  11.716  21.677   2.170
50632W        W23057  19.636  11.466   3.661
50633W        W23058  37.951   8.921   1.834
50634W        W23059  42.909  34.350  12.101
50635W        W23060   1.291  10.919  13.902
50636W        W23061  25.756  19.212   3.314
50637W        W23062  15.823   7.661  10.861
50638W        W23063  36.308  34.402   0.091
50639W        W23064  20.692   6.077  11.738
50640W        W23065  26.258   6.321  12.638
50641W        W23066   1.055  44.728   3.036
50642W        W23067  14.990  37.269   3.140
50643W        W23068  33.410   2.338   1.811
50644W        W23069  25.077  29.465  14.961
50645W        W23070  32.438   7.619  14.767
50646W        W23071  30.095   7.299   3.326
50647W        W23072  17.144  34.386   2.258
50648W        W23073  14.792  42.291  14.866
50649W        W23074  28.158  15.645  13.336
50650W        W23075  43.966  11.687   2.795
50651W        W23076  42.016  33.020   3.923
50652W        W23077   7.402  19.240   4.579
50653W        W23078  29.886  30.633   1.249
50654W        W23079  37.185   9.717  12.551
50655W        W23080  37.287  33.432   0.451
50656W        W23081  41.068  17.324   0.323
50657W        W23082  42.421  17.431  13.935
50658W        W23083  21.264  37.745   4.430
50659W        W23084   9.129   1.016   3.206
50660W        W23085  13.384  34.125  13.939
50661W        W23086   9.305   9.163  10.698
50662W        W23087  39.276  23.981   3.703
50663W        W23088  24.472   0.730   0.251
50664W        W23089  16.843  42.294  14.494
50665W        W23090  17.981   8.904   1.735
50666W        W23091  31.497   4.727   1.743
50667W        W23092   6.911  32.313  13.388
50668W        W23093  41.482  34.882   2.008
50669W        W23094   8.423  22.027   1.934
50670W        W23095  30.501   2.808   4.635
50671W        W23096   7.894  36.066  11.082
50672W        W23097  29.156  15.177  12.070
50673W        W23098  44.938  44.896   4.370
50674W        W23099   2.269  16.163   0.418
50675W        W23100  40.881   9.764   0.616
50676W        W23101  38.417   1.379   0.035
50677W        W23102  43.982  37.859   2.937
50678W        W23103  20.812  29.411  12.126
50679W        W23104  44.363  41.438  12.060
50680W        W23105  35.437   8.456  11.124
50681W        W23106  38.967  29.931   0.346
50682W        W23107  25.621   6.676  11.270
50683W        W23108  17.330   3.729   1.341
50684W        W23109   2.497   7.559   2.255
50685W        W23110  42.059  44.603   1.367
50686W        W23111  41.854  41.938   0.099
50687W        W23112  37.883  32.921   0.913
50688W        W23113  16.089  19.071  11.388
50689W        W23114  15.164  26.854  10.214
50690W        W23115  37.962  42.903   2.458
50691W        W23116  38.466  23.169   1.312
50692W        W23117  26.493  17.562   3.619
50693W        W23118  12.268  38.925  11.009
50694W        W23119  13.479  33.415  14.496
50695W        W23120  34.804  18.477  13.400
50696W        W23121  16.372   7.782  13.784
50697W        W23122   1.477  42.532  13.458
50698W        W23123  40.555  41.241  13.527
50699W        W23124  13.153  25.392  13.985
50700W        W23125  25.495  23.458  14.915
50701W        W23126  40.199  36.823   3.334
50702W        W23127  22.291  28.960   3.721
50703W        W23128   4.265  44.503   3.757
50704W        W23129   2.828  37.510  10.678
50705W        W23130  44.392  43.842   0.931
50706W        W23131  25.168  21.968   2.164
50707W        W23132  24.392  39.453  14.261
50708W        W23133  17.965  17.219  11.467
50709W        W23134  35.299  44.486   2.127
50710W        W23135  28.971  21.167   2.655
50711W        W23136  12.245   3.713  13.621
50712W        W23137  17.222  10.512  12.656
50713W        W23138  24.014  24.607  14.937
50714W        W23139  15.803  15.052   3.426
50715W        W23140  38.319   3.342   1.900
50716W        W23141   3.447  19.683  10.174
50717W        W23142  15.353  21.549  14.037
50718W        W23143  24.846  20.943   3.168
50719W        W23144   0.674  18.841   1.655
50720W        W23145  37.045   0.839  11.646
50721W        W23146  26.448  44.702  12.974
50722W        W23147  17.577  32.048  13.619
50723W        W23148  41.435  12.759   2.229
50724W        W23149  26.695  37.358  13.887
50725W        W23150  14.030  35.062  14.944
50726W        W23151  38.008   9.546  12.856
50727W        W23152  32.021  19.692  13.961
50728W        W23153  15.710  41.025   3.620
50729W        W23154  27.403  40.862  11.878
50730W        W23155   8.250   8.872   2.873
50731W        W23156  29.851   2.258  11.903
50732W        W23157  21.607  35.828   0.911
50733W        W23158  34.704  21.001   0.033
50734W        W23159  30.907  33.217   0.472
50735W        W23160   2.787  15.695   4.910
50736W        W23161  38.432  36.569  11.680
50737W        W23162  44.343  36.736  14.877
50738W        W23163  29.952  41.657  14.536
50739W        W23164  14.199  34.628   2.684
50740W        W23165  31.425  33.480  13.469
50741W        W23166   9.295   6.693  12.766
50742W        W23167  18.483  10.097   1.844
50743W        W23168  23.069  26.884  11.934
50744W        W23169  27.098  25.084   3.796
50745W        W23170   7.232  41.032   0.871
50746W        W23171  22.482   8.252   0.885
50747W        W23172   8.271   7.757  11.128
50748W        W23173  10.291  32.938  13.490
50749W        W23174  36.732  14.156   4.173
50750W        W23175   0.488  38.801  10.873
50751W        W23176  38.250  16.820   2.202
50752W        W23177  39.679  29.615   4.987
50753W        W23178  24.596  44.319   1.826
50754W        W23179  26.041  22.767   1.201
50755W        W23180   1.235  26.712  13.604
50756W        W23181  39.511   0.887   4.634
50757W        W23182   0.803  11.763  12.469
50758W        W23183   7.745  16.106   4.513
50759W        W23184   8.649   8.893  12.513
50760W        W23185  35.541   1.290  14.082
50761W        W23186  18.119   0.867  13.055
50762W        W23187  29.176  40.703   4.191
50763W        W23188  44.796   0.046  14.965
50764W        W23189  20.217  39.708   2.952
50765W        W23190  42.494  33.117   2.686
50766W        W23191  29.359  22.057   4.304
50767W        W23192   2.786  27.151   4.665
50768W        W23193  19.775  32.441   4.169
50769W        W23194   2.727  25.297  13.482
50770W        W23195  43.361  38.380   0.371
50771W        W23196  24.748   8.644   0.884
50772W        W23197  14.831   8.105   3.351
50773W        W23198   1.645  25.465   4.187
50774W        W23199  35.288  19.012  13.932
50775W        W23200  24.026  30.983  10.631
50776W        W23201  26.225   9.137   0.854
50777W        W23202   4.811   1.196   0.960
50778W        W23203   2.361  32.014  10.147
50779W        W23204  41.262  16.721  12.831
50780W        W23205  39.821  31.198   1.855
50781W        W23206  41.995  15.574  13.838
50782W        W23207  20.753   7.744  12.619
50783W        W23208   8.320  33.418  12.935
50784W        W23209  25.661   7.138   4.224
50785W        W23210  24.742  38.555  10.491
50786W        W23211  28.624  27.416   4.225
50787W        W23212  11.300   9.788   4.177
50788W        W23213  31.393   4.880   2.248
50789W        W23214   7.388   7.370  13.544
50790W        W23215  25.950   5.864   1.807
50791W        W23216   1.199   7.950   2.136
50792W        W23217   4.059  43.847  11.191
50793W        W23218  33.549  29.449  13.954
50794W        W23219  34.480  39.443   0.168
50795W        W23220  17.719  22.286  11.807
50796W        W23221  21.160   8.789   1.433
50797W        W23222   7.332  12.861  13.174
50798W        W23223  12.693  11.407  13.866
50799W        W23224  38.124  33.404   1.979
50800W        W23225  34.045   9.728  11.537
50801W        W23226  37.797  20.530  11.246
50802W        W23227  30.974  25.587   0.261
50803W        W23228  17.320   7.228  13.364
50804W        W23229   6.762  36.341  13.463
50805W        W23230   2.996   9.302   3.159
50806W        W23231  14.386  21.161  11.545
50807W        W23232  43.563  25.421  12.057
50808W        W23233  41.311  31.641  14.048
50809W        W23234  41.259  38.008   1.962
50810W        W23235   0.398  32.009   1.712
50811W        W23236  18.830  31.697  12.946
50812W        W23237  38.072   3.596  14.961
50813W        W23238   6.256   2.676   3.459
50814W        W23239  36.064  43.286   4.594
50815W        W23240  14.856  20.406   3.121
50816W        W23241  41.823   0.306   0.702
50817W        W23242  43.695  27.962  11.961
50818W        W23243  39.110   6.856   3.172
50819W        W23244  11.547  12.531  14.346
50820W        W23245  25.106  27.749  14.621
50821W        W23246  24.950  11.656  14.757
50822W        W23247  27.686  32.275  13.813
50823W        W23248  23.510  40.996   1.224
50824W        W23249  12.572  42.478   3.811
50825W        W23250  17.357  25.783   1.278
50826W        W23251   9.846  39.058  13.495
50827W        W23252   1.186  22.510   2.229
50828W        W23253  10.779  26.894   4.565
50829W        W23254  18.820  14.280  14.479
50830W        W23255  40.243  32.421  14.050
50831W        W23256  26.965  23.210  11.002
50832W        W23257  40.925  41.590  13.383
50833W        W23258  25.183  33.789  10.653
50834W        W23259  15.810  32.154   3.611
50835W        W23260  30.056  21.261   2.712
50836W        W23261  44.537  28.961   3.215
50837W        W23262  25.683  35.125  12.112
50838W        W23263   3.727  33.610   2.826
50839W        W23264  21.142  18.819   2.379
50840W        W23265  12.407   8.727  14.152
50841W        W23266   7.651   9.935  11.592
50842W        W23267  23.187  26.419   4.539
50843W        W23268  18.904  26.096   3.861
50844W        W23269  22.587  32.360   3.658
50845W        W23270  24.216  41.057  13.487
50846W        W23271   5.820  27.473  12.003
50847W        W23272  12.575  35.872   4.244
50848W        W23273  21.226  36.424  11.124
50849W        W23274  17.170  16.848   0.065
50850W        W23275  43.984  25.717  11.997
50851W        W23276  27.072  37.863   0.222
50852W        W23277  37.040  15.309   3.391
50853W        W23278   3.187  32.941   1.165
50854W        W23279  21.541   0.745   2.390
50855W        W23280  17.213  23.138  14.822
50856W        W23281  14.367   0.867   2.565
50857W        W23282  28.985   9.481   4.674
50858W        W23283  33.912  37.366  14.960
50859W        W23284  33.340  31.135   4.087
50860W        W23285  11.453  30.123   2.959
50861W        W23286  11.810  39.771   0.897
50862W        W23287  10.888  19.707   0.434
50863W        W23288  20.964  36.502  11.556
50864W        W23289  31.905  15.350  12.003
50865W        W23290  10.251  34.329   2.032
50866W        W23291  18.611   7.358   1.704
50867W        W23292  19.108  26.091   1.534
50868W        W23293  21.081  29.219   0.565
50869W        W23294   3.877  36.698  13.254
50870W        W23295  12.628   7.448   3.092
50871W        W23296  31.857  19.108  10.714
50872W        W23297  20.085  17.759  12.023
50873W        W23298  41.440   7.768  14.903
50874W        W23299  43.821  42.530  12.147
50875W        W23300  12.051  25.013   2.753
50876W        W23301  10.556   6.169  10.015
50877W        W23302  12.245  39.399  10.797
50878W        W23303  21.653  28.742   2.287
50879W        W23304  40.274  32.148  10.231
50880W        W23305   1.363  28.706   3.847
50881W        W23306  30.755  22.102   1.872
50882W        W23307  42.688  44.520  14.104
50883W        W23308  14.278  18.638  13.777
50884W        W23309  35.109  11.308   4.363
50885W        W23310  27.074  44.843   1.498
50886W        W23311  19.226  20.846  10.310
50887W        W23312  33.031  43.543   3.205
50888W        W23313  13.330   6.154   1.709
50889W        W23314  30.083   7.880  13.897
50890W        W23315  42.770  19.014   3.731
50891W        W23316  20.353   0.253   0.765
50892W        W23317  16.833  20.493  11.670
50893W        W23318  34.491  20.977   3.290
50894W        W23319  31.088  13.988   3.346
50895W        W23320  28.355  23.317  12.567
50896W        W23321  41.981  30.645  12.025
50897W        W23322  28.008  26.280  14.286
50898W        W23323  24.046  37.135  12.412
50899W        W23324   0.990  28.517  12.145
50900W        W23325  42.012   4.218  12.836
50901W        W23326  23.499   6.886   1.310
50902W        W23327   3.814  14.976   4.232
50903W        W23328  17.966  43.211   0.340
50904W        W23329   4.815   6.473   5.016
50905W        W23330  22.523  39.347   3.832
50906W        W23331  32.456   4.940  10.226
50907W        W23332   6.180  20.360  11.526
50908W        W23333  43.288  11.694   4.292
50909W        W23334  37.176  16.932  12.339
50910W        W23335  34.291   7.629  14.777
50911W        W23336  33.433  22.768   4.552
50912W        W23337  20.822  43.443   0.931
50913W        W23338  19.444  21.161   3.627
50914W        W23339  38.791  18.547   4.595
50915W        W23340  17.747   9.924   4.495
50916W        W23341  17.163   2.072   0.433
50917W        W23342  28.450  30.065  10.614
50918W        W23343  13.302  41.017   3.185
50919W        W23344  20.960  32.165  14.957
50920W        W23345   1.732   7.781   0.275
50921W        W23346  44.798  22.100   2.601
50922W        W23347  15.236  27.576  10.652
50923W        W23348  31.443  23.117  14.245
50924W        W23349  26.416  33.555  10.913
50925W        W23350  44.298  30.373   3.857
50926W        W23351  15.646  21.541   4.759
50927W        W23352   0.398  31.852  10.654
50928W        W23353  39.999  39.575   1.925
50929W        W23354  12.695  11.915   1.830
50930W        W23355  32.708  29.249  11.568
50931W        W23356  28.374  10.949  12.304
50932W        W23357   2.788  32.207  13.460
50933W        W23358  38.517  21.537  12.526
50934W        W23359  27.434  33.117   2.636
50935W        W23360  21.551  20.828  11.101
50936W        W23361   7.851  24.240   2.777
50937W        W23362  14.343  23.212   2.669
50938W        W23363  11.778   7.255   3.607
50939W        W23364  33.097  12.080   3.894
50940W        W23365  11.169   7.260  14.533
50941W        W23366  23.392  13.206  11.492
50942W        W23367  41.565  13.337  13.456
50943W        W23368  31.135  38.375   2.948
50944W        W23369  23.129  24.982  14.867
50945W        W23370  32.430   9.834  12.929
50946W        W23371  11.705  41.066  13.581
50947W        W23372  30.700   1.521   4.177
50948W        W23373  33.544  18.046   1.953
50949W        W23374   5.899  28.162   1.771
50950W        W23375  23.840   1.837  13.396
50951W        W23376  31.083   0.773  12.549
50952W        W23377  12.287   6.858   1.899
50953W        W23378  16.391   4.130   4.180
50954W        W23379   1.236  36.594   1.902
50955W        W23380  25.003  33.827  12.025
50956W        W23381  31.953  13.350   3.177
50957W        W23382  23.576  44.485   2.690
50958W        W23383   3.824  18.179   1.611
50959W        W23384  25.998  14.637   3.678
50960W        W23385   2.352  39.588  11.946
50961W        W23386   2.232  25.880  11.688
50962W        W23387  35.931   6.791   2.690
50963W        W23388  35.848  44.883  13.017
50964W        W23389   7.373  18.648  13.782
50965W        W23390  22.039  26.791  12.471
50966W        W23391  17.190   9.278   1.406
50967W        W23392  31.546  21.787  11.874
50968W        W23393  22.937  40.791   2.370
50969W        W23394   4.929  40.448  12.828
50970W        W23395  28.992   7.004   3.713
50971W        W23396  41.774  38.418   4.689
50972W        W23397  24.534  39.913   2.764
50973W        W23398  38.335  26.669  11.513
50974W        W23399  34.259  33.005   0.917
50975W        W23400   3.903   8.997   0.588
50976W        W23401  21.207  32.606   4.559
50977W        W23402   9.351   1.477  13.914
50978W        W23403  24.240  30.026   4.786
50979W        W23404  16.582  34.561   0.241
50980W        W23405   8.991   8.708  11.168
50981W        W23406   0.816   1.433   3.528
50982W        W23407  13.670  26.496   1.697
50983W        W23408  36.026  26.178  14.952
50984W        W23409  19.131  28.608  13.470
50985W        W23410  36.298  16.216  14.537
50986W        W23411  35.055  34.549  10.337
50987W        W23412  41.962  30.979   4.632
50988W        W23413  42.714  25.496  13.725
50989W        W23414   0.736  13.595  14.305
50990W        W23415   2.531  41.350  12.848
50991W        W23416  29.460  30.577  13.526
50992W        W23417  22.789  38.878   2.985
50993W        W23418  42.531  16.026   4.638
50994W        W23419  40.461  42.282  13.379
50995W        W23420   3.769  34.374  12.467
50996W        W23421  38.835   4.694   0.283
50997W        W23422  17.710   9.726   2.108
50998W        W23423   5.193  31.521  14.551
50999W        W23424  32.593  35.877   0.340
51000W        W23425  17.756  30.962  10.746
51001W        W23426  13.102  36.854  13.169
51002W        W23427  33.080  23.079  11.519
51003W        W23428   4.746  17.177   4.350
51004W        W23429  20.711  23.651   2.105
51005W        W23430  43.985  16.513   0.738
51006W        W23431  27.229  37.050  13.382
51007W        W23432  35.757  39.243  12.427
51008W        W23433  41.898  28.717  11.583
51009W        W23434  25.119   7.755   1.543
51010W        W23435  43.338  20.575  11.293
51011W        W23436  31.143   5.963  12.062
51012W        W23437  30.072  30.675   3.342
51013W        W23438  13.297  37.589   0.878
51014W        W23439  20.849  15.588   3.175
51015W        W23440  23.098  12.864   3.792
51016W        W23441  28.267   2.224   4.138
51017W        W23442  18.169   5.687  13.592
51018W        W23443  34.658  17.990   4.143
51019W        W23444  38.774  25.435   2.709
51020W        W23445   6.271   6.026  11.166
51021W        W23446  24.117  10.852  12.751
51022W        W23447  31.124   9.390   0.184
51023W        W23448  27.532  35.318   4.651
51024W        W23449  37.697  18.639   0.394
51025W        W23450  16.647  12.136   0.994
51026W        W23451  42.529  44.945   4.302
51027W        W23452   3.037  44.946   3.269
51028W        W23453   6.779  12.756   4.295
51029W        W23454  34.126   7.654   4.557
51030W        W23455  39.407  34.178   0.507
51031W        W23456  16.773  42.009  11.727
51032W        W23457  44.354  10.531  10.707
51033W        W23458   3.763   3.135  13.890
51034W        W23459  30.885  15.634  10.562
51035W        W23460  32.961   8.913   2.424
51036W        W23461  16.293   1.941   1.955
51037W        W23462  38.809   1.978  11.556
51038W        W23463  16.533  29.491  13.048
51039W        W23464  33.002  33.890  11.214
51040W        W23465  43.802  16.876   4.284
51041W        W23466  25.212  25.638  12.794
51042W        W23467  27.091  24.519  10.384
51043W        W23468  11.232  37.364   2.034
51044W        W23469  29.768  30.011   4.921
51045W        W23470  16.979  42.279   0.888
51046W        W23471  11.821  29.475   0.301
51047W        W23472   8.851  12.561   4.391
51048W        W23473  19.483  33.871  13.897
51049W        W23474  28.467   9.947  12.421
51050W        W23475   3.241  15.338   2.440
51051W        W23476   6.342  20.473  12.004
51052W        W23477  11.302  29.190   3.822
51053W        W23478  19.969   5.721   3.639
51054W        W23479  22.807  16.080   3.488
51055W        W23480  31.424  39.348   0.798
51056W        W23481   9.199  13.265   4.560
51057W        W23482  37.528   2.712   3.700
51058W        W23483  28.830   5.140   1.784
51059W        W23484   9.425  35.686   0.979
51060W        W23485  21.752  37.784  14.232
51061W        W23486  33.200  15.747  14.852
51062W        W23487  19.119  35.327  10.600
51063W        W23488  19.891   6.905  13.404
51064W        W23489   7.259  29.693   1.289
51065W        W23490  12.226  13.127  11.936
51066W        W23491  38.920  22.571  13.966
51067W        W23492  17.484   5.060   4.598
51068W        W23493   5.904  22.036  13.073
51069W        W23494   6.380  15.251  10.938
51070W        W23495  10.983  25.737  10.413
51071W        W23496  37.981  13.130  11.041
51072W        W23497  28.516  22.463  13.391
51073W        W23498   1.370  20.540  11.980
51074W        W23499  29.909  25.190  14.853
51075W        W23500  25.686  26.623   3.318
51076W        W23501  32.073   3.882  12.577
51077W        W23502  17.109   7.430  14.823
51078W        W23503  31.876   5.903   4.887
51079W        W23504  11.774   3.208   5.251
51080W        W23505  27.221  12.099  14.919
51081W        W23506  18.152  37.901  11.519
51082W        W23507  19.521  30.020   1.957
51083W        W23508   2.770  38.509   0.882
51084W        W23509  39.274  44.759   4.159
51085W        W23510  33.786   3.254  14.727
51086W        W23511  12.747   7.161  13.620
51087W        W23512  14.754  23.489   1.663
51088W        W23513  27.988  19.776  11.544
51089W        W23514  15.365  41.273   0.862
51090W        W23515  26.641  41.109   1.518
51091W        W23516  17.988  21.036  13.503
51092W        W23517  25.590  15.647  13.542
51093W        W23518  42.403   9.221  14.082
51094W        W23519  29.909  12.947   0.800
51095W        W23520   5.603  28.887   3.673
51096W        W23521  37.108   1.782  11.958
51097W        W23522   6.367  30.863   4.835
51098W        W23523   9.380  30.065  13.984
51099W        W23524  43.925  32.581  14.937
51100W        W23525  32.653  36.500  14.430
51101W        W23526  22.641  23.768  13.113
51102W        W23527   0.995  37.515   1.932
51103W        W23528  27.516  31.009  10.303
51104W        W23529  16.098  25.126  14.696
51105W        W23530  27.944  31.987  12.828
51106W        W23531  23.015   5.449  13.394
51107W        W23532   2.253  35.784   1.305
51108W        W23533   8.522  26.198  14.959
51109W        W23534   4.144  21.178   2.780
51110W        W23535  22.695  18.094   1.297
51111W        W23536  42.509  39.351  14.012
51112W        W23537  13.198  28.451  13.844
51113W        W23538  37.626  41.529  12.720
51114W        W23539  40.509  38.036  14.469
51115W        W23540  41.521  26.608  13.187
51116W        W23541  29.227  23.659   2.649
51117W        W23542   5.881  39.122   2.336
51118W        W23543  15.186  19.584   4.860
51119W        W23544  15.262   9.756   4.682
51120W        W23545  21.069  12.159   3.346
51121W        W23546  24.266  42.782   3.800
51122W        W23547  19.125  33.699   2.274
51123W        W23548  11.361  40.243  10.682
51124W        W23549  15.134  28.495   3.468
51125W        W23550  33.387  29.672   3.574
51126W        W23551  22.842  41.032  12.794
51127W        W23552  26.247   6.316  13.534
51128W        W23553  36.051  41.330  12.143
51129W        W23554  25.977   2.486  11.183
51130W        W23555  33.159   9.077   4.341
51131W        W23556  32.649  36.088   1.865
51132W        W23557   2.551  12.368   2.522
51133W        W23558  22.600  11.466  10.064
51134W        W23559   6.305  38.865   0.695
51135W        W23560  38.433  10.322  13.076
51136W        W23561   8.326   9.909   3.294
51137W        W23562  39.931  35.071  14.980
51138W        W23563  43.755  41.576   0.434
51139W        W23564  19.720  26.153   3.582
51140W        W23565  44.981  19.490  13.084
51141W        W23566  29.051  14.091   3.898
51142W        W23567  29.448  36.021   0.975
51143W        W23568   8.818  35.780  13.935
51144W        W23569  37.596  39.747   2.102
51145W        W23570  26.220  33.898  12.541
51146W        W23571  16.298   6.748  12.813
51147W        W23572  27.094  37.018   3.252
51148W        W23573  10.693   2.027  12.315
51149W        W23574  34.071  30.408  13.108
51150W        W23575  19.983  22.674   3.656
51151W        W23576  19.612  17.074   1.028
51152W        W23577  25.202  26.554  13.305
51153W        W23578  11.692  30.948   2.883
51154W        W23579  23.248  32.943  13.392
51155W        W23580   9.182  21.028   2.696
51156W        W23581  30.478   8.849   2.212
51157W        W23582  31.555  19.753  14.224
51158W        W23583  30.118  42.963   0.867
51159W        W23584  13.673   1.920  10.371
51160W        W23585  11.307  34.021   1.696
51161W        W23586  23.647  11.093  12.256
51162W        W23587  25.534  42.346  12.090
51163W        W23588   9.397   0.583   4.171
51164W        W23589  12.672   6.090   2.758
51165W        W23590  28.929  26.155   3.598
51166W        W23591  38.811  15.320   4.437
51167W        W23592  43.767  16.652  11.644
51168W        W23593  18.799   9.685   1.968
51169W        W23594  34.516   0.283   4.445
51170W        W23595   2.202  11.204  11.450
51171W        W23596  14.811  23.683   5.512
51172W        W23597  14.496  32.508  13.891
51173W        W23598  33.987  27.953   2.784
51174W        W23599  36.695  32.516   1.350
51175W        W23600  23.181  24.508   2.653
51176W        W23601  29.345  19.903   1.294
51177W        W23602  33.616  34.941   0.350
51178W        W23603  14.069   3.426  14.952
51179W        W23604   6.853  28.676   4.582
51180W        W23605  27.417  38.801  13.516
51181W        W23606  37.617   1.651   0.524
51182W        W23607  35.763  37.064  13.058
51183W        W23608  12.670  11.343  12.197
51184W        W23609  20.547  44.708  11.546
51185W        W23610  27.487  35.664  10.872
51186W        W23611  26.571  14.629  11.457
51187W        W23612  36.097  30.347   3.181
51188W        W23613   9.367  35.306  13.458
51189W        W23614   8.912  35.649  12.440
51190W        W23615  25.468   5.816  14.285
51191W        W23616  30.393  25.002  14.768
51192W        W23617  30.112   1.418  13.823
51193W        W23618  30.650  24.524  13.896
51194W        W23619   4.294  41.761   4.048
51195W        W23620  34.554   8.276   1.353
51196W        W23621  25.465  11.482   2.220
51197W        W23622   9.710   7.392   4.623
51198W        W23623  33.501  30.193  14.920
51199W        W23624  32.173  26.427   4.630
51200W        W23625  25.033   2.987  12.891
51201W        W23626  16.619  30.371  13.914
51202W        W23627  16.093  38.821  11.616
51203W        W23628  13.760  37.949   4.527
51204W        W23629  42.779  27.060  12.014
51205W        W23630  22.414   4.978  10.845
51206W        W23631  39.613   5.365   4.539
51207W        W23632   3.377  35.423  11.058
51208W        W23633   3.326  44.984  12.519
51209W        W23634  36.953  40.069  13.743
51210W        W23635  11.638  19.265   2.999
51211W        W23636   9.566  27.967   1.732
51212W        W23637   4.970  35.773  10.982
51213W        W23638  10.245  18.886   4.959
51214W        W23639  38.832  32.542  14.482
51215W        W23640  23.688   6.737   3.673
51216W        W23641  38.755  41.798  14.397
51217W        W23642  31.547  42.361  13.109
51218W        W23643  41.880  31.046   3.144
51219W        W23644  17.673   8.667  14.514
51220W        W23645  18.511  16.039   3.652
51221W        W23646  35.903  26.435  14.529
51222W        W23647  12.712   6.659  12.418
51223W        W23648  23.846  11.170   9.598
51224W        W23649  44.471  17.322   2.862
51225W        W23650  24.553  43.419  14.958
51226W        W23651   3.156   6.036   9.979
51227W        W23652  26.554  28.507   3.241
51228W        W23653  18.105  16.728  10.711
51229W        W23654  30.032  42.295  12.828
51230W        W23655  27.900  37.533   4.102
51231W        W23656  22.326   2.222  14.412
51232W        W23657  21.598  23.971  10.858
51233W        W23658  33.283  25.353  14.284
51234W        W23659  23.135  23.522  12.406
51235W        W23660  33.099   7.951   0.472
51236W        W23661  32.292  36.301  14.883
51237W        W23662  22.307   7.777  13.924
51238W        W23663  25.111  23.023   3.059
51239W        W23664  17.729  26.463  10.593
51240W        W23665  10.623  40.540   1.111
51241W        W23666  30.126   7.335  11.620
51242W        W23667  16.800  41.432   2.655
51243W        W23668  38.451  25.485   4.074
51244W        W23669  13.243  31.998   2.633
51245W        W23670   1.352  40.137  11.104
51246W        W23671   6.817  16.415   1.896
51247W        W23672   9.209   1.842  13.442
51248W        W23673   2.000  10.232   3.613
51249W        W23674   1.800  28.898   2.163
51250W        W23675  15.478  29.459   9.813
51251W        W23676  38.531  10.722  11.106
51252W        W23677  42.872  11.353  12.763
51253W        W23678   0.305  29.716   4.149
51254W        W23679  33.817  13.263   1.783
51255W        W23680  20.612  34.856   3.761
51256W        W23681   2.935  11.688  14.875
51257W        W23682  10.704  28.207   3.305
51258W        W23683  12.295  23.712   2.763
51259W        W23684   2.510  13.719   3.646
51260W        W23685  10.551   4.748   4.654
51261W        W23686  25.316  18.390   2.898
51262W        W23687  19.532  20.466   1.802
51263W        W23688  23.544  43.373   3.559
51264W        W23689  33.360  43.277   1.915
51265W        W23690  40.857  27.523   2.905
51266W        W23691   2.515  31.111  11.207
51267W        W23692  25.511  11.996   2.273
51268W        W23693   6.328  10.203  10.413
51269W        W23694  23.930  27.479   0.818
51270W        W23695  39.927  23.816  13.067
51271W        W23696   6.243  21.734   1.162
51272W        W23697  29.032  20.178   4.770
51273W        W23698  15.700  17.876   2.687
51274W        W23699  31.111  32.722   0.681
51275W        W23700  37.020  21.965  14.922
51276W        W23701   1.360   5.401  10.530
51277W        W23702   7.859   0.898   1.141
51278W        W23703  38.339  13.200   0.225
51279W        W23704  28.455  32.053   4.433
51280W        W23705  43.091  16.222   1.745
51281W        W23706  15.764  33.117   3.715
51282W        W23707   4.204  37.054   4.097
51283W        W23708  41.530  16.099  13.509
51284W        W23709  15.190  41.483  13.875
51285W        W23710  36.538   4.998   0.804
51286W        W23711  17.135   0.899   0.491
51287W        W23712   7.780  12.086  12.625
51288W        W23713  18.008  35.846  12.171
51289W        W23714  24.491  23.280  13.827
51290W        W23715   8.533  23.513   1.683
51291W        W23716  39.475   7.250   3.186
51292W        W23717   1.818   4.693   1.620
51293W        W23718  38.722   3.196  12.068
51294W        W23719  34.709   1.657   0.226
51295W        W23720  21.501  32.996  14.954
51296W        W23721  39.080  25.971   3.545
51297W        W23722  10.681  38.761   4.881
51298W        W23723   5.261  39.263   3.852
51299W        W23724  13.696  18.765  12.625
51300W        W23725  16.360  13.568   1.745
51301W        W23726  36.950  43.363   3.232
51302W        W23727  11.756  39.383   0.021
51303W        W23728   6.936  27.721  11.190
51304W        W23729   3.529  29.053   0.876
51305W        W23730  20.346  31.641  11.543
51306W        W23731  21.567  10.115   4.150
51307W        W23732  25.504  26.513  12.863
51308W        W23733  33.416  10.841  13.962
51309W        W23734  44.412  43.020   1.950
51310W        W23735  23.494  26.486  14.362
51311W        W23736  27.696  10.830   4.136
51312W        W23737  19.985  25.522  11.606
51313W        W23738  41.490   6.841   4.846
51314W        W23739  17.117  13.806  11.123
51315W        W23740  27.111  41.937  11.885
51316W        W23741  38.159  29.380   0.416
51317W        W23742   0.975   8.747  12.066
51318W        W23743  38.157  14.924   1.875
51319W        W23744  22.058   7.336   4.835
51320W        W23745   1.763  21.117  11.782
51321W        W23746  26.719  43.507   3.415
51322W        W23747  44.791  18.830   4.978
51323W        W23748  17.652  21.693   0.942
51324W        W23749  13.134  41.949   4.159
51325W        W23750  13.313  44.704  12.076
51326W        W23751  35.998  24.918  11.614
51327W        W23752  23.338  16.103  12.140
51328W        W23753   2.799  31.461   0.742
51329W        W23754  21.172   8.017   1.326
51330W        W23755   8.611   4.009   1.784
51331W        W23756  23.659  33.390   4.724
51332W        W23757   4.644  23.782  14.835
51333W        W23758  22.544   9.726   1.331
51334W        W23759  10.439  35.001  11.147
51335W        W23760  28.416  34.819  11.549
51336W        W23761  43.689   0.594   2.171
51337W        W23762  12.817   1.339   2.393
51338W        W23763  31.982  29.340  10.894
51339W        W23764  17.048   5.010   9.903
51340W        W23765  29.412  20.555  11.566
51341W        W23766  22.736  27.162   0.002
51342W        W23767  18.856  31.061  12.045
51343W        W23768  15.057  16.275  11.539
51344W        W23769  37.636  20.776  11.726
51345W        W23770  35.865  15.540  14.252
51346W        W23771  42.116  22.886   0.713
51347W        W23772   7.746  25.252  11.636
51348W        W23773  39.519  33.093  13.118
51349W        W23774   0.839   4.533   0.540
51350W        W23775  43.403  27.245  14.496
51351W        W23776  33.885  33.908   1.355
51352W        W23777  37.491  34.013   3.130
51353W        W23778  15.820  27.118   3.691
51354W        W23779  32.443  38.809  14.404
51355W        W23780  14.148  22.081  11.692
51356W        W23781  25.025  38.479  12.817
51357W        W23782  23.339  26.050  14.565
51358W        W23783   6.780  24.093   0.564
51359W        W23784  26.494  10.487   4.434
51360W        W23785   5.202   1.702  11.626
51361W        W23786  33.358  40.799   5.154
51362W        W23787  26.264  28.859  11.167
51363W        W23788  11.628  44.432  12.564
51364W        W23789  32.006  13.593  14.309
51365W        W23790   1.140  43.844  13.093
51366W        W23791  17.986  19.995   2.928
51367W        W23792  12.448  13.687   0.685
51368W        W23793  12.246   6.272   1.856
51369W        W23794  36.634  26.436  12.020
51370W        W23795  44.035  15.216   1.467
51371W        W23796  21.725  16.731  11.616
51372W        W23797   2.184  11.151   1.614
51373W        W23798  15.626  42.749  14.711
51374W        W23799   4.210   2.990   2.209
51375W        W23800   8.798  23.506   4.845
51376W        W23801  39.784  24.307  11.580
51377W        W23802  44.351   2.825   1.756
51378W        W23803   4.810  22.119  13.550
51379W        W23804  44.982  15.566  12.149
51380W        W23805  28.937  14.748  11.658
51381W        W23806  12.586  10.670  13.529
51382W        W23807  11.135  37.900  10.610
51383W        W23808   4.971  39.964   2.629
51384W        W23809   9.376  17.099   4.317
51385W        W23810  32.310  18.635   1.898
51386W        W23811  41.515   3.189   4.486
51387W        W23812  37.789  10.134   1.434
51388W        W23813  17.858  33.267   5.044
51389W        W23814  29.151  41.757   3.392
51390W        W23815  11.405  34.374   3.593
51391W        W23816   6.702   7.963  10.849
51392W        W23817   1.740   8.809  12.666
51393W        W23818   6.969  18.583  13.457
51394W        W23819   1.636  34.960   1.009
51395W        W23820  41.414   4.746  12.617
51396W        W23821  29.524  12.073   3.270
51397W        W23822  12.832  10.891  11.991
51398W        W23823  33.058  33.361  14.474
51399W        W23824  34.113  22.128  11.178
51400W        W23825  27.619  22.772   4.138
51401W        W23826  25.482  35.138   1.160
51402W        W23827  29.582  11.797   4.164
51403W        W23828  27.600  39.501   2.326
51404W        W23829  37.017  16.552  13.034
51405W        W23830  42.873  30.125   2.744
51406W        W23831   4.709   7.475   1.233
51407W        W23832  17.045  36.872   0.322
51408W        W23833  25.710   6.148  12.620
51409W        W23834  15.496  17.361  14.367
51410W        W23835  37.487   7.763   0.252
51411W        W23836  34.318  23.108  12.577
51412W        W23837  18.286  15.952  12.077
51413W        W23838  21.539  35.570  11.746
51414W        W23839  42.397  20.268   3.755
51415W        W23840  33.356  31.237   0.486
51416W        W23841  10.216   5.106  14.275
51417W        W23842   2.284  10.415  10.659
51418W        W23843  21.486  24.192  12.623
51419W        W23844   6.095   7.491  11.129
51420W        W23845  37.520  25.728   4.116
51421W        W23846   7.399   3.782   4.118
51422W        W23847   1.462   3.358  13.922
51423W        W23848  28.285  23.953  10.606
51424W        W23849  12.678   6.462   4.081
51425W        W23850  43.375  27.819   3.622
51426W        W23851   0.907  21.585   3.833
51427W        W23852  37.840   5.372  12.504
51428W        W23853  32.383  33.901  11.535
51429W        W23854  38.592   3.750   2.883
51430W        W23855  44.377  27.698   2.219
51431W        W23856   8.241  21.100  11.107
51432W        W23857  20.582   8.848  13.457
51433W        W23858  37.481  43.729  12.089
51434W        W23859   1.313  28.094  12.844
51435W        W23860  33.569   5.735  11.528
51436W        W23861  27.452   5.781   4.364
51437W        W23862  42.025   7.688   2.647
51438W        W23863   7.850  14.780  12.915
51439W        W23864  21.920  13.834  13.831
51440W        W23865  24.067  31.471   3.473
51441W        W23866  21.489  23.168   4.629
51442W        W23867  21.742  18.486   2.218
51443W        W23868  18.659  33.368   0.281
51444W        W23869  21.102  42.486   3.298
51445W        W23870  36.090  10.878   0.330
51446W        W23871  12.741   0.816  14.028
51447W        W23872  30.996  24.033  10.248
51448W        W23873   4.494  32.367  14.256
51449W        W23874  33.838  44.826  12.120
51450W        W23875  26.205   4.478  13.017
51451W        W23876  11.838  17.753   4.061
51452W        W23877  19.834  31.894  12.549
51453W        W23878  42.009  34.737   2.176
51454W        W23879  36.137  38.940   4.619
51455W        W23880   2.853  42.628  14.580
51456W        W23881   1.271   8.178   3.706
51457W        W23882  34.561  29.891  13.391
51458W        W23883  27.101  15.451  11.992
51459W        W23884   0.774  12.564  10.461
51460W        W23885  24.366  15.867  14.792
51461W        W23886   4.479  43.986  14.110
51462W        W23887  44.410  30.980   0.320
51463W        W23888  34.543  19.149  11.137
51464W        W23889  30.751  22.925  12.506
51465W        W23890  26.577   5.245  14.918
51466W        W23891  40.481  30.021  12.028
51467W        W23892  21.430  25.528   0.938
51468W        W23893  12.605  10.702   2.240
51469W        W23894  34.432   4.202   4.257
51470W        W23895  24.296  26.617  13.443
51471W        W23896  42.965   8.854  10.753
51472W        W23897  13.608   2.631  14.863
51473W        W23898  36.912  37.380   1.799
51474W        W23899  33.730  36.080  12.203
51475W        W23900  29.530   2.420   3.831
51476W        W23901  32.142  32.484  11.549
51477W        W23902  11.373  40.933  11.824
51478W        W23903  39.937  17.138   3.153
51479W        W23904  43.163   8.977  12.979
51480W        W23905  11.436  39.820   2.613
51481W        W23906   2.924   6.267   2.164
51482W        W23907  21.912  24.626   3.446
51483W        W23908  24.999  40.118   4.972
51484W        W23909  32.580  37.343  10.323
51485W        W23910  36.384   3.680   4.733
51486W        W23911  12.044  40.410   2.675
51487W        W23912  23.970  21.922  10.960
51488W        W23913  27.113  13.747   3.726
51489W        W23914   7.886   0.192  11.041
51490W        W23915  33.397  44.068   3.690
51491W        W23916  36.561  41.826  13.993
51492W        W23917  30.894   3.857  13.916
51493W        W23918   3.252  37.558  14.004
51494W        W23919  36.211  31.728   3.430
51495W        W23920   4.865  44.319   2.450
51496W        W23921  21.078  43.926  12.760
51497W        W23922   8.820   1.946  12.054
51498W        W23923  17.689   6.297  10.765
51499W        W23924  22.462  28.172   1.313
51500W        W23925  35.042  10.483  11.096
51501W        W23926   8.741  31.367  14.804
51502W        W23927  32.862  35.541  12.632
51503W        W23928  25.400  32.106  14.838
51504W        W23929  40.881  24.535  12.048
51505W        W23930  10.754  40.117   4.829
51506W        W23931  43.712  12.178  13.521
51507W        W23932  39.925   9.187  14.663
51508W        W23933  12.177  30.989   4.717
51509W        W23934  30.302  41.203   3.578
51510W        W23935   4.753   5.154   3.246
51511W        W23936  35.370  17.262   1.414
51512W        W23937   6.187   7.672  14.371
51513W        W23938  21.294  42.453  12.908
51514W        W23939  16.291  15.664   4.288
51515W        W23940  32.362  13.764  13.731
51516W        W23941  41.861  27.015  13.282
51517W        W23942  16.048  35.804  14.416
51518W        W23943  27.244  25.215  13.042
51519W        W23944   9.636  18.360   1.406
51520W        W23945  38.117   8.389   5.451
51521W        W23946  40.785   5.080   0.523
51522W        W23947   3.938  32.662  13.974
51523W        W23948  36.275  37.657  10.843
51524W        W23949  16.073  23.569   2.711
51525W        W23950  26.649  11.364  14.811
51526W        W23951   6.470  28.080   1.102
51527W        W23952  29.528  16.295  13.852
51528W        W23953  21.250  13.820   0.262
51529W        W23954   9.578   8.262  12.238
51530W        W23955  38.194  11.180   3.066
51531W        W23956   1.392   3.170   4.708
51532W        W23957  29.726  38.889  11.541
51533W        W23958  17.651  24.248   3.290
51534W        W23959   7.239  28.967   0.268
51535W        W23960  13.869  31.049  10.715
51536W        W23961  34.528  36.038   2.066
51537W        W23962   5.958   0.653   2.717
51538W        W23963  37.749  28.701  14.420
51539W        W23964  17.675  17.562  13.951
51540W        W23965  36.034  17.562   3.122
51541W        W23966  11.793  10.376  11.089
51542W        W23967  13.253   2.729   0.765
51543W        W23968  14.379  32.396  12.474
51544W        W23969  21.230  11.024   5.159
51545W        W23970  16.545   6.731  10.967
51546W        W23971  10.362  24.740  13.054
51547W        W23972  21.230  15.400  11.581
51548W        W23973  30.863  19.669   2.757
51549W        W23974  16.196   6.690   0.189
51550W        W23975  11.189  19.595   4.129
51551W        W23976   8.600  43.632   3.895
51552W        W23977  37.221  14.148   2.872
51553W        W23978  30.132  44.885   3.122
51554W        W23979   8.402   9.597  12.531
51555W        W23980   9.856  32.611  11.046
51556W        W23981  36.907   4.048  12.853
51557W        W23982  15.869  23.703  14.480
51558W        W23983  38.413   3.234  13.010
51559W        W23984  13.217  38.073   2.750
51560W        W23985  21.254  42.870  11.342
51561W        W23986   1.250  24.954  13.075
51562W        W23987  34.562  10.752   2.430
51563W        W23988  41.565   9.714   3.794
51564W        W23989  24.259  29.997  14.912
51565W        W23990  28.466  17.599  12.824
51566W        W23991   8.801  28.101   4.935
51567W        W23992  31.678  39.472   3.860
51568W        W23993  23.163   2.654  12.426
51569W        W23994  21.119  41.266   0.905
51570W        W23995   8.338  38.814  13.490
51571W        W23996  22.633  12.221   9.859
51572W        W23997  33.579  22.836  12.227
51573W        W23998  31.640  24.595   2.359
51574W        W23999  37.606  28.178  14.252
51575W        W24000   7.769  32.251   0.472
51576W        W24001  42.037  16.765   2.188
51577W        W24002  10.272   9.670   3.768
51578W        W24003  32.032   1.198   2.853
51579W        W24004  32.035  36.899   4.408
51580W        W24005  17.650  35.136   3.753
51581W        W24006  42.584  41.809  10.795
51582W        W24007  37.903  24.718   0.949
51583W        W24008  38.542  18.116   3.169
51584W        W24009  16.219   0.323   4.124
51585W        W24010  35.486  40.034   2.334
51586W        W24011  31.464  28.990  14.052
51587W        W24012  14.825  37.081   3.626
51588W        W24013  25.137  39.726   3.860
51589W        W24014   3.694  28.465  13.482
51590W        W24015   6.213  28.666   3.705
51591W        W24016  16.560  22.198  11.942
51592W        W24017  27.153  42.736   3.206
51593W        W24018   6.742  44.369  14.871
51594W        W24019  26.075  38.979   1.826
51595W        W24020   7.331   0.054  12.181
51596W        W24021  43.498   4.675   0.948
51597W        W24022  39.355  37.935  14.838
51598W        W24023   5.217   5.952   3.335
51599W        W24024  43.183   6.344   4.940
51600W        W24025  33.295  19.124  12.602
51601W        W24026  15.726  28.202   4.343
51602W        W24027  31.572  30.045  13.829
51603W        W24028  17.134  36.467  13.974
51604W        W24029  44.847  32.590   2.301
51605W        W24030  19.200   8.644   2.882
51606W        W24031  42.837  22.226  12.531
51607W        W24032  44.471  37.750   3.798
51608W        W24033  21.535  29.922  13.825
51609W        W24034   7.187  32.191  13.821
51610W        W24035  44.393  36.958  11.647
51611W        W24036  15.317  14.967   2.722
51612W        W24037  15.760  29.621  11.088
51613W        W24038   6.423   0.857   0.484
51614W        W24039  13.123  29.119  14.363
51615W        W24040   3.413   9.425   4.680
51616W        W24041   0.337  28.922   2.784
51617W        W24042   6.435  19.037   2.384
51618W        W24043   4.879  22.635  11.984
51619W        W24044  41.953  13.264   1.869
51620W        W24045  32.102   2.516  11.991
51621W        W24046  20.316  37.764   2.790
51622W        W24047  13.920  41.819  13.461
51623W        W24048   1.236  44.565  11.958
51624W        W24049  28.116  34.496   0.182
51625W        W24050   2.392  26.259  14.976
51626W        W24051  21.281   4.195   0.508
51627W        W24052  22.391  18.741   4.900
51628W        W24053  20.498  26.709  11.152
51629W        W24054  15.781  17.150  14.012
51630W        W24055   2.388  27.087  13.280
51631W        W24056  19.058  26.738   0.373
51632W        W24057  27.931  25.834  11.619
51633W        W24058  28.643  20.202   2.607
51634W        W24059  27.196  13.209   1.277
51635W        W24060   7.095  30.660   3.319
51636W        W24061  22.691  44.833   0.965
51637W        W24062  27.045  43.807  13.518
51638W        W24063  18.719  16.750   3.272
51639W        W24064   5.659  43.332  14.405
51640W        W24065  16.070  32.568  12.827
51641W        W24066  25.566   5.207  13.024
51642W        W24067   3.806  33.381  13.323
51643W        W24068  32.627  40.881  13.461
51644W        W24069  42.037   0.170   4.243
51645W        W24070  13.769  43.581  13.009
51646W        W24071  29.629  20.521   4.119
51647W        W24072  44.040  21.204  14.753
51648W        W24073   0.994  43.779  11.558
51649W        W24074  34.542  21.971  12.077
51650W        W24075   6.770   6.275  11.057
51651W        W24076   7.927  10.802  14.864
51652W        W24077  10.777   6.318   1.389
51653W        W24078  13.801  15.373  10.939
51654W        W24079  39.322  19.600  14.306
51655W        W24080  41.784  37.601   4.137
51656W        W24081  42.311  37.600   3.254
51657W        W24082  43.916  26.034  13.494
51658W        W24083  27.449  29.335  13.010
51659W        W24084   6.850  23.185  12.105
51660W        W24085  22.130  43.220  12.825
51661W        W24086  11.594   0.262  12.969
51662W        W24087  11.698   8.450  10.651
51663W        W24088  40.226  39.140   2.290
51664W        W24089  43.774   6.202  10.525
51665W        W24090   2.965  17.699   2.477
51666W        W24091  35.978  44.749  14.807
51667W        W24092  32.939  33.385  13.903
51668W        W24093  18.104   9.346  13.466
51669W        W24094  42.431  34.569  10.992
51670W        W24095  41.138  13.795   2.250
51671W        W24096  22.351   1.276  11.472
51672W        W24097  29.213  44.216  12.804
51673W        W24098  14.115  25.073   4.200
51674W        W24099  32.115  20.565  14.446
51675W        W24100   6.719  19.981  14.214
51676W        W24101  44.849  25.296  10.658
51677W        W24102  27.509  38.507  12.060
51678W        W24103  44.821  31.662   0.493
51679W        W24104  10.483  37.803  13.484
51680W        W24105  42.105  16.809  14.803
51681W        W24106  42.452  37.712  12.804
51682W        W24107  35.538  33.561  10.682
51683W        W24108   8.261   2.918   2.626
51684W        W24109  16.559  32.080   5.135
51685W        W24110  35.293  31.158   2.613
51686W        W24111  30.580  35.695   4.215
51687W        W24112  37.974  41.426  11.001
51688W        W24113  39.455  12.292   2.880
51689W        W24114  22.506  35.032   3.270
51690W        W24115  22.243  28.470  11.943
51691W        W24116  40.061  11.635  12.586
51692W        W24117   5.357  36.228   3.594
51693W        W24118  36.168  35.850  11.962
51694W        W24119   6.832  17.555  13.302
51695W        W24120  11.215   8.279  13.158
51696W        W24121  32.887  15.172   2.165
51697W        W24122  15.235  12.908  12.374
51698W        W24123  17.781   9.410   4.323
51699W        W24124  37.927  25.153   0.288
51700W        W24125  41.099   6.856   1.797
51701W        W24126  20.434  21.746  14.752
51702W        W24127  20.308  22.750  11.913
51703W        W24128  44.404  33.843  13.484
51704W        W24129   4.244  18.105  12.999
51705W        W24130  31.004  44.679   2.816
51706W        W24131  33.545   8.687   3.191
51707W        W24132  16.747   5.341  12.059
51708W        W24133  29.476  31.232   1.908
51709W        W24134  25.811  44.962  11.511
51710W        W24135   1.882  42.601  11.162
51711W        W24136  41.025  10.008  14.451
51712W        W24137  18.825  14.757   3.634
51713W        W24138  14.623   4.306   3.913
51714W        W24139   9.712  10.799  10.859
51715W        W24140   7.151  18.212  11.629
51716W        W24141   7.392  42.235  11.200
51717W        W24142   6.682  16.363   2.402
51718W        W24143  21.642  28.820   0.849
51719W        W24144  44.590  36.953   0.310
51720W        W24145  20.214  15.369  13.761
51721W        W24146  32.487  27.538   0.205
51722W        W24147  29.117  24.455  12.947
51723W        W24148   4.296  30.292   4.909
51724W        W24149  13.660   3.776   3.144
51725W        W24150  27.657  28.045   3.176
51726W        W24151   1.317  36.473  10.751
51727W        W24152  13.112  36.457   4.086
51728W        W24153   0.987  30.179   3.797
51729W        W24154  40.011  35.233   3.546
51730W        W24155  34.945  24.404  11.606
51731W        W24156  41.733  10.357   2.452
51732W        W24157   7.886   8.492   2.865
51733W        W24158  37.366   3.435   2.168
51734W        W24159  43.891   3.753  10.887
51735W        W24160  39.093  13.190   4.186
51736W        W24161  43.411  35.919  13.500
51737W        W24162  34.588  25.473   0.497
51738W        W24163   0.392  13.096  11.689
51739W        W24164  43.917  44.195  14.446
51740W        W24165  40.205  28.467  14.499
51741W        W24166  25.763   4.838  11.669
51742W        W24167  36.174  35.143  11.594
51743W        W24168   2.307  32.953   1.465
51744W        W24169  29.387  39.058  12.509
51745W        W24170  16.117  25.917  11.693
51746W        W24171  41.745   0.195  11.199
51747W        W24172  31.898   6.440  14.431
51748W        W24173   1.167  16.112  13.921
51749W        W24174  36.854  12.233   2.198
51750W        W24175  34.601  26.004  14.288
51751W        W24176  13.354   8.358  14.695
51752W        W24177  40.392  25.485   4.735
51753W        W24178  43.930  26.699   0.301
51754W        W24179   8.123  35.492   1.337
51755W        W24180  39.882  21.911   2.689
51756W        W24181  14.804  31.187  14.407
51757W        W24182  35.862  42.353   2.720
51758W        W24183  41.992  32.551   4.206
51759W        W24184  26.735  31.271  11.130
51760W        W24185  40.379  28.415   3.363
51761W        W24186  43.246  31.352   4.317
51762W        W24187  25.397  15.749   4.545
51763W        W24188  35.432  34.275  14.821
51764W        W24189  20.679  24.024   4.847
51765W        W24190  37.041  18.196   4.288
51766W        W24191  13.226  37.287  11.609
51767W        W24192  16.423  21.039   3.188
51768W        W24193  17.521  27.376  10.402
51769W        W24194  23.465   3.758  12.189
51770W        W24195  28.941   8.374   3.352
51771W        W24196  38.459  30.478   1.836
51772W        W24197  43.406  13.696  12.686
51773W        W24198  36.484  19.977   4.512
51774W        W24199  31.725  41.667  11.035
51775W        W24200  37.032   7.949  10.634
51776W        W24201  29.901  12.419   0.702
51777W        W24202  42.921  44.842   2.673
51778W        W24203  32.416  33.067   0.384
51779W        W24204  34.552  33.421  12.619
51780W        W24205  38.318  43.789   2.825
51781W        W24206   0.941   1.360   4.570
51782W        W24207  29.977  23.574  10.960
51783W        W24208  31.323  26.937  13.880
51784W        W24209  43.251  32.183  13.185
51785W        W24210  40.716  34.344   0.447
51786W        W24211   5.823  11.498  13.715
51787W        W24212  20.709  38.536  11.496
51788W        W24213  33.720  10.669   4.868
51789W        W24214  24.866  39.039  11.645
51790W        W24215  36.354  30.695  13.456
51791W        W24216  13.817  31.938   4.666
51792W        W24217  24.071  40.101  12.060
51793W        W24218  12.710  43.132   1.712
51794W        W24219  31.882  23.062  12.605
51795W        W24220  24.458  39.756  11.993
51796W        W24221  28.030  22.690  13.461
51797W        W24222  16.603  20.034  10.608
51798W        W24223  20.679   6.445   3.673
51799W        W24224  16.333  35.259   0.323
51800W        W24225  25.544  14.912   3.601
51801W        W24226  27.490  37.297   4.329
51802W        W24227  31.380  19.003   2.465
51803W        W24228  38.024  14.359  11.463
51804W        W24229  32.680  20.795  12.822
51805W        W24230  22.740  27.933  12.545
51806W        W24231  17.679  16.222   1.823
51807W        W24232  24.793  44.458  13.049
51808W        W24233  25.186  25.462   4.197
51809W        W24234  14.136  42.509   3.752
51810W        W24235  44.956  38.489   0.385
51811W        W24236  20.741  34.648  12.641
51812W        W24237  38.461  25.997  14.869
51813W        W24238  40.933  38.857  13.338
51814W        W24239   4.562  13.794  11.457
51815W        W24240  39.362  38.820  14.331
51816W        W24241   3.543  16.645  12.301
51817W        W24242  15.526  22.105  11.937
51818W        W24243  44.751  11.610  14.055
51819W        W24244  13.798  38.020   1.332
51820W        W24245  10.394   0.868   3.783
51821W        W24246  40.396  15.503   0.384
51822W        W24247  22.179  28.911   0.691
51823W        W24248  34.396  38.606   3.709
51824W        W24249  43.016   2.280   1.121
51825W        W24250  11.867  21.583   4.167
51826W        W24251  16.545  26.580  11.139
51827W        W24252  27.245  21.732   2.472
51828W        W24253  33.480  17.131  11.903
51829W        W24254  18.986   7.900  11.605
51830W        W24255   0.739  36.391   1.992
51831W        W24256  21.205  24.780   4.014
51832W        W24257  36.901  37.602   2.272
51833W        W24258  28.281  26.228  14.729
51834W        W24259  36.505  42.939   2.919
51835W        W24260  24.903   9.239   5.309
51836W        W24261  15.356  31.225  11.588
51837W        W24262  30.830  31.129   3.450
51838W        W24263  12.770  15.003  13.834
51839W        W24264  21.310  22.132   3.916
51840W        W24265  36.964  17.228   3.138
51841W        W24266  13.894  10.561   3.638
51842W        W24267  38.567  18.653   4.146
51843W        W24268  15.334  38.975  10.669
51844W        W24269  10.044   3.628  14.907
51845W        W24270  22.256  41.042  11.510
51846W        W24271   2.893  33.569   1.873
51847W        W24272  44.179  40.601   1.755
51848W        W24273  37.540  31.003   1.157
51849W        W24274  15.919  24.411   1.806
51850W        W24275  36.946   7.776  12.084
51851W        W24276   8.805  42.459  14.235
51852W        W24277  32.569  24.937  14.035
51853W        W24278  40.782  42.656  14.446
51854W        W24279  34.658  19.134   3.156
51855W        W24280  31.941  27.062  10.743
51856W        W24281  16.116  42.314  12.957
51857W        W24282  31.449  28.599  13.524
51858W        W24283  35.979  13.732   4.564
51859W        W24284  28.361  30.856   3.778
51860W        W24285  12.696  31.404  14.515
51861W        W24286  13.847  30.680  11.523
51862W        W24287  20.776  33.209   0.438
51863W        W24288  19.218  31.628   4.560
51864W        W24289  36.959  21.557  11.411
51865W        W24290  43.424  25.713   2.276
51866W        W24291  34.332  32.724  12.121
51867W        W24292   3.913  35.430   0.782
51868W        W24293   0.159  39.115   4.022
51869W        W24294  24.587  44.266   0.243
51870W        W24295  34.009  31.384   0.289
51871W        W24296   5.334  42.976   2.173
51872W        W24297  30.717  10.638   2.705
51873W        W24298  15.179  19.129   4.531
51874W        W24299  17.455   7.083  13.856
51875W        W24300   0.940   6.311   2.322
51876W        W24301  12.855  37.926   3.196
51877W        W24302  41.027  22.286   4.648
51878W        W24303  31.629  28.641   1.110
51879W        W24304   7.293  29.485   2.656
51880W        W24305   4.788  25.156   3.569
51881W        W24306  24.686  37.893   4.695
51882W        W24307  32.563  44.209   0.324
51883W        W24308   8.415   1.834  14.002
51884W        W24309  28.981   6.299  10.483
51885W        W24310  30.364  42.912  11.204
51886W        W24311  23.623  37.947  14.883
51887W        W24312   1.583   3.044   2.272
51888W        W24313  24.655  22.575   1.721
51889W        W24314  42.998   4.913  11.937
51890W        W24315  29.972   1.225   3.739
51891W        W24316  34.536  23.440  13.456
51892W        W24317  25.613  32.484   4.137
51893W        W24318  20.314  33.415   0.054
51894W        W24319  30.034  30.593  10.492
51895W        W24320   6.620  23.210  12.573
51896W        W24321  15.549   1.359   3.860
51897W        W24322  36.402  32.115  11.628
51898W        W24323  25.655  12.847   4.656
51899W        W24324  34.331  14.420  14.299
51900W        W24325   8.146  32.555   2.248
51901W        W24326  35.356  13.846  13.405
51902W        W24327  29.922  39.382  12.606
51903W        W24328  24.548  25.096   0.892
51904W        W24329  39.155  43.510   0.528
51905W        W24330   5.634  27.576   0.097
51906W        W24331  31.881  12.158  12.005
51907W        W24332   2.068  29.535  13.013
51908W        W24333  25.574  14.395   3.536
51909W        W24334  13.062   1.421  14.591
51910W        W24335  13.126   9.854   2.165
51911W        W24336  23.937  26.074  11.174
51912W        W24337  17.515  11.656  11.248
51913W        W24338  23.014  15.611   4.176
51914W        W24339  24.228  29.546  12.727
51915W        W24340  36.619   1.127  11.565
51916W        W24341   6.065  22.328  11.551
51917W        W24342  43.665   3.398   4.175
51918W        W24343   0.529   6.346  11.437
51919W        W24344  29.686  43.336   2.359
51920W        W24345  38.296   7.421  11.368
51921W        W24346  37.963  18.026  12.555
51922W        W24347   5.522   1.946  14.507
51923W        W24348   2.442  25.373  11.805
51924W        W24349  34.391   2.290   3.665
51925W        W24350  44.938  12.432  14.371
51926W        W24351  37.178  36.631  14.018
51927W        W24352   5.587   0.485   0.589
51928W        W24353   5.595  27.035  13.046
51929W        W24354  31.300   6.786   3.291
51930W        W24355  23.032  36.432  12.500
51931W        W24356  30.910   4.823  14.882
51932W        W24357  35.262  25.480  13.953
51933W        W24358  12.649  10.254  14.492
51934W        W24359   4.974   3.886   0.649
51935W        W24360  14.783   3.798   3.674
51936W        W24361   6.773  19.497   1.502
51937W        W24362  20.204  32.442   3.652
51938W        W24363  13.384  37.843   4.191
51939W        W24364   4.317  26.929  14.293
51940W        W24365   2.367  16.694   1.901
51941W        W24366  22.553  24.120   4.875
51942W        W24367   2.549  34.745  14.885
51943W        W24368  34.095  15.794   4.605
51944W        W24369  14.041   1.936  11.172
51945W        W24370  24.253   5.348  12.006
51946W        W24371  16.338   1.547   0.358
51947W        W24372   7.211   3.154   4.687
51948W        W24373  15.350  32.632  13.533
51949W        W24374  39.763  20.109   1.955
51950W        W24375  18.301   6.383   2.631
51951W        W24376  37.497  36.317  14.270
51952W        W24377  26.772  25.541   0.841
51953W        W24378  40.783  19.241   1.746
51954W        W24379  43.088   8.499   1.761
51955W        W24380  37.878  30.904   3.194
51956W        W24381  31.546  15.794  12.825
51957W        W24382  35.640  44.267   0.786
51958W        W24383  11.193  36.609  13.645
51959W        W24384  35.537   8.774  12.953
51960W        W24385   4.205   2.727   1.753
51961W        W24386  37.120  32.100  10.664
51962W        W24387  28.721  15.082   4.726
51963W        W24388  38.333  16.618  14.422
51964W        W24389   3.756   7.447  12.891
51965W        W24390   8.647  18.331   0.192
51966W        W24391  20.023  27.759  10.998
51967W        W24392  35.889  39.715   4.221
51968W        W24393  37.568  44.517  11.659
51969W        W24394  15.263  11.403   4.636
51970W        W24395  28.768  14.303   1.745
51971W        W24396  14.332  44.543  11.704
51972W        W24397  40.838  22.777  14.314
51973W        W24398   8.248   5.194   1.353
51974W        W24399   5.154  40.943   3.359
51975W        W24400   2.635  44.350  13.876
51976W        W24401  31.672  10.625   0.868
51977W        W24402  18.962  28.936   1.709
51978W        W24403   4.407  27.808   0.193
51979W        W24404  30.544  37.642  11.522
51980W        W24405  37.010  27.021   2.284
51981W        W24406  38.246  28.581  11.216
51982W        W24407  23.568  23.535  11.191
51983W        W24408  33.053   1.211   3.843
51984W        W24409  13.062  40.896   4.190
51985W        W24410  31.005  42.394  14.609
51986W        W24411  17.355  18.291   5.015
51987W        W24412  31.143  23.299   0.076
51988W        W24413  16.999  34.355  13.411
51989W        W24414   1.924  11.721  14.546
51990W        W24415  39.276  42.846   2.188
51991W        W24416  11.357  30.691   1.814
51992W        W24417   5.288  11.371   4.728
51993W        W24418  27.047  25.740  10.712
51994W        W24419  19.518  36.914   0.487
51995W        W24420  40.116  13.000  14.501
51996W        W24421  25.568   9.670  11.919
51997W        W24422  44.942   0.781  14.497
51998W        W24423  13.044   6.621   0.840
51999W        W24424  30.627  28.617   1.425
52000W        W24425  10.398  33.612  12.859
52001W        W24426  34.719  10.355   4.570
52002W        W24427  36.984  36.158   1.487
52003W        W24428   0.677  11.231   3.342
52004W        W24429  40.917  18.717  14.031
52005W        W24430  32.983  17.758   2.383
52006W        W24431  14.163  37.380  14.011
52007W        W24432  35.974  35.369   0.868
52008W        W24433  34.966   6.183   2.284
52009W        W24434  43.301  42.946   1.134
52010W        W24435   4.216  10.661  14.733
52011W        W24436  30.389  12.268   3.811
52012W        W24437  29.458   1.731  10.732
52013W        W24438  18.478  19.244  13.969
52014W        W24439  25.675  44.040  12.415
52015W        W24440  42.886  26.472  11.963
52016W        W24441   9.332  26.755   0.501
52017W        W24442  37.506   8.104   1.718
52018W        W24443  29.177  28.526   3.638
52019W        W24444  10.214  34.858   3.748
52020W        W24445  25.069   0.089   3.636
52021W        W24446  28.812  41.355   3.655
52022W        W24447  29.680  15.230   3.155
52023W        W24448  13.207   6.381   4.900
52024W        W24449  11.158  20.748  14.819
52025W        W24450   2.343  40.005   3.725
52026W        W24451   3.410   5.345  14.831
52027W        W24452  43.073  16.668  11.292
52028W        W24453   3.067  13.941   3.579
52029W        W24454   2.194  21.207  13.422
52030W        W24455  20.033  26.003  10.911
52031W        W24456   9.423   5.864   2.825
52032W        W24457   2.083   2.297   4.625
52033W        W24458  31.234  40.825   3.750
52034W        W24459  41.245  38.674  11.181
52035W        W24460  27.544  15.047   1.141
52036W        W24461   6.921  24.889  13.424
52037W        W24462  38.985  32.715  10.162
52038W        W24463  32.151  17.252  14.227
52039W        W24464   8.689  26.719   0.683
52040W        W24465  10.646  32.546   2.692
52041W        W24466  39.982  29.593  14.059
52042W        W24467  31.980   1.779   2.387
52043W        W24468  19.314  12.801  13.450
52044W        W24469  18.576  18.797   0.214
52045W        W24470  25.122  23.900   0.799
52046W        W24471   2.395  26.119   4.185
52047W        W24472  10.893  25.206  14.022
52048W        W24473   9.443  31.498   1.276
52049W        W24474  16.803  21.788  14.457
52050W        W24475  20.367  37.170   0.260
52051W        W24476  31.094  12.524   3.568
52052W        W24477  19.941  21.758   1.405
52053W        W24478  38.560  30.153  13.902
52054W        W24479  42.829  31.757   1.344
52055W        W24480  19.323  23.160  11.073
52056W        W24481  38.581  10.965  11.565
52057W        W24482  34.835  30.412  14.992
52058W        W24483  19.527   9.283   0.319
52059W        W24484  26.990  14.749   3.763
52060W        W24485  33.102  25.649   0.154
52061W        W24486  24.248  13.369  10.627
52062W        W24487  16.099   5.844  10.995
52063W        W24488   6.522   5.135  14.257
52064W        W24489   9.034  21.500   1.502
52065W        W24490  25.459  37.126   2.748
52066W        W24491   9.276  44.735  14.016
52067W        W24492  43.325   8.745  14.329
52068W        W24493  25.610  12.651   0.801
52069W        W24494  38.480  30.071  11.979
52070W        W24495   3.918  38.136   2.876
52071W        W24496  32.272  18.207   1.136
52072W        W24497   4.872  35.418  12.348
52073W        W24498   9.663  40.722  13.145
52074W        W24499   3.688  34.580   1.837
52075W        W24500  13.115  12.813  14.968
52076W        W24501   7.138  16.779  11.517
52077W        W24502   8.314   3.078  10.594
52078W        W24503  17.101   8.348   2.013
52079W        W24504  30.393  42.915   0.373
52080W        W24505  13.811  24.591  10.538
52081W        W24506   4.398  20.076  14.265
52082W        W24507  10.075   6.366   0.436
52083W        W24508  12.860   9.452   3.312
52084W        W24509   2.429  24.452   1.885
52085W        W24510  33.389  25.539   2.539
52086W        W24511  44.500  28.005  10.705
52087W        W24512  42.465  21.232   3.368
52088W        W24513  19.977  27.481   2.210
52089W        W24514  38.477  35.816   2.593
52090W        W24515  30.591  14.972   1.347
52091W        W24516  23.665  13.307  12.322
52092W        W24517  35.569  35.838   2.751
52093W        W24518  43.263  13.407   3.667
52094W        W24519  27.752   0.688   1.230
52095W        W24520   4.397  17.906   3.885
52096W        W24521  28.243  25.809  14.387
52097W        W24522  35.025   9.823  10.932
52098W        W24523  30.406  12.190  12.905
52099W        W24524  34.536  22.539   1.178
52100W        W24525  42.021   0.370  11.612
52101W        W24526  17.766   3.959  13.449
52102W        W24527  36.413   2.262  10.683
52103W        W24528  10.386  10.091  13.807
52104W        W24529   5.190  18.070  12.831
52105W        W24530   8.433  29.014  10.980
52106W        W24531   4.359  29.761  12.745
52107W        W24532  35.662  42.902  13.124
52108W        W24533  27.469  44.190  12.050
52109W        W24534  25.246  21.650  12.091
52110W        W24535   7.622  23.752  11.859
52111W        W24536  11.265  12.150  14.024
52112W        W24537  10.290  12.307  12.502
52113W        W24538   7.216  31.168   3.220
52114W        W24539  35.505  43.073   3.541
52115W        W24540  14.261   2.952   2.651
52116W        W24541  12.682  28.570  12.123
52117W        W24542  24.728  34.345  11.175
52118W        W24543   8.244   8.723   1.403
52119W        W24544  38.875   7.105   3.753
52120W        W24545  30.674  43.012  10.800
52121W        W24546  42.006   8.422  10.751
52122W        W24547   4.543  32.106  11.063
52123W        W24548  39.792  32.660   3.856
52124W        W24549  35.865  26.678  12.286
52125W        W24550  29.456  16.067  13.399
52126W        W24551  25.708  37.701  11.958
52127W        W24552  22.492  23.240  13.070
52128W        W24553  27.021  36.257   2.222
52129W        W24554  33.547  13.733  10.865
52130W        W24555   7.725  14.183  13.953
52131W        W24556  13.096  33.928  13.574
52132W        W24557  17.524   1.493   4.549
52133W        W24558  20.576  30.144   1.275
52134W        W24559  24.536  15.295   4.761
52135W        W24560  28.443  16.189   2.321
52136W        W24561  25.501  16.168  13.449
52137W        W24562  19.119   6.859  10.952
52138W        W24563  28.584   6.704  13.767
52139W        W24564  27.563   3.217  11.098
52140W        W24565  43.893  42.391   0.045
52141W        W24566   7.130  34.017  13.626
52142W        W24567  42.261   5.098  14.125
52143W        W24568  15.430  15.080  12.688
52144W        W24569   6.431  42.013  10.766
52145W        W24570  10.674  22.484  11.967
52146W        W24571  17.073  21.027   2.779
52147W        W24572  39.832  42.845   2.148
52148W        W24573   9.899  16.778   2.381
52149W        W24574  30.632  24.809  13.441
52150W        W24575  10.432  34.459  12.424
52151W        W24576  11.236   9.270  14.407
52152W        W24577  34.569   2.293  11.142
52153W        W24578   0.429  19.551   0.836
52154W        W24579  26.069   4.496  14.825
52155W        W24580  20.605   8.838   2.448
52156W        W24581  23.826  34.413  11.540
52157W        W24582  21.701  36.062  12.536
52158W        W24583   0.226  35.981   2.423
52159W        W24584  32.923   3.394   3.959
52160W        W24585  21.871  42.114  10.479
52161W        W24586  20.277  35.546   1.021
52162W        W24587  32.499  42.225  13.481
52163W        W24588  40.818   4.822  14.302
52164W        W24589  13.862  29.663   5.302
52165W        W24590   9.265  17.142  13.914
52166W        W24591  17.522  29.909   1.867
52167W        W24592  20.942  13.997   1.111
52168W        W24593   5.148   0.282   4.138
52169W        W24594  20.089   9.713   2.846
52170W        W24595  37.333  36.368  13.229
52171W        W24596  36.389  21.259  14.730
52172W        W24597  30.410   5.297   0.491
52173W        W24598  28.961   7.869   3.303
52174W        W24599  30.441  19.826   4.965
52175W        W24600  39.599  16.040   1.835
52176W        W24601  22.691  43.363  14.908
52177W        W24602  38.964   7.336   3.294
52178W        W24603   3.417  13.647  13.838
52179W        W24604  43.796  32.634   3.712
52180W        W24605  34.335  15.115   1.700
52181W        W24606  29.266  14.242  10.633
52182W        W24607  31.090  10.597   4.521
52183W        W24608  11.093  26.513   2.027
52184W        W24609   8.940  16.363   2.717
52185W        W24610  11.110  42.842   3.217
52186W        W24611  36.447  33.471   3.428
52187W        W24612  22.747  44.563  12.081
52188W        W24613  22.276  28.520  14.920
52189W        W24614  25.298  25.575   1.881
52190W        W24615   6.903  10.379   3.722
52191W        W24616  37.036   5.325   1.802
52192W        W24617  10.596  39.263   3.193
52193W        W24618  21.621  31.025  14.443
52194W        W24619  13.601  29.915  12.003
52195W        W24620   5.642  10.230  13.893
52196W        W24621  42.356  36.849   1.314
52197W        W24622   6.826  41.098   3.758
52198W        W24623  25.695  30.050  10.800
52199W        W24624  16.329  39.771   0.629
52200W        W24625  25.262  43.730  12.505
52201W        W24626   9.860   6.760   0.674
52202W        W24627  40.472   8.123   4.171
52203W        W24628  29.514  22.964  14.853
52204W        W24629  20.139  26.884  12.065
52205W        W24630   1.412  32.051  11.619
52206W        W24631   0.756   5.607  12.978
52207W        W24632  27.928   5.479  11.245
52208W        W24633  40.349  21.726   4.202
52209W        W24634   8.076  39.226  13.992
52210W        W24635  29.695  10.800  11.635
52211W        W24636   2.970  18.639   2.857
52212W        W24637  34.173  27.489   2.741
52213W        W24638  18.326  27.505  12.066
52214W        W24639  10.289  22.771  13.569
52215W        W24640   0.526  35.974   3.751
52216W        W24641   0.406  41.461   4.616
52217W        W24642  40.348   6.256  13.366
52218W        W24643  21.236  31.095  11.198
52219W        W24644  21.564   1.659  11.581
52220W        W24645  30.522  13.208  10.648
52221W        W24646  20.180  44.741   2.180
52222W        W24647  32.882  35.133   2.175
52223W        W24648   1.949  33.438   2.213
52224W        W24649  29.074  14.730   1.763
52225W        W24650  27.923   8.745   4.199
52226W        W24651   0.501  10.339   3.654
52227W        W24652  27.558  33.829  12.545
52228W        W24653  43.361  17.050   0.258
52229W        W24654  38.533  31.078   2.451
52230W        W24655  36.944  34.626   0.013
52231W        W24656  37.583  35.884  13.967
52232W        W24657  24.174  12.204  13.863
52233W        W24658  25.466  37.830  12.426
52234W        W24659  35.599  35.767   2.014
52235W        W24660   8.877  34.483  11.166
52236W        W24661   0.257  42.036  11.702
52237W        W24662  39.915  10.891   4.200
52238W        W24663  29.155  11.260   1.145
52239W        W24664  25.193  10.805  14.947
52240W        W24665   4.882   0.793  12.974
52241W        W24666  38.911   9.205  10.538
52242W        W24667  17.659   1.909   1.296
52243W        W24668  39.014  10.510  11.071
52244W        W24669  31.431  43.607  12.344
52245W        W24670  34.026   6.600  13.129
52246W        W24671   1.330  21.035   0.294
52247W        W24672  18.513  34.552  13.277
52248W        W24673   2.612  35.364   0.359
52249W        W24674  16.744  43.794  11.761
52250W        W24675  12.323   2.457   5.463
52251W        W24676  16.181  32.904   2.723
52252W        W24677   2.707   1.771  14.696
52253W        W24678  42.049  19.561   1.616
52254W        W24679   0.942  10.489   1.349
52255W        W24680  30.663  14.849   4.292
52256W        W24681  12.145  17.399  12.341
52257W        W24682  37.319   0.468   4.344
52258W        W24683  15.678   8.303   0.801
52259W        W24684  31.195   4.749   1.273
52260W        W24685  20.998   9.141   2.267
52261W        W24686  16.832  16.968  10.882
52262W        W24687  38.479  30.666   3.740
52263W        W24688   4.741  27.667  11.136
52264W        W24689  23.991  27.779   3.659
52265W        W24690  17.773  30.456   3.557
52266W        W24691  32.802  26.083   4.174
52267W        W24692  37.375  31.102   0.666
52268W        W24693  31.968   9.067   4.855
52269W        W24694  22.960  17.094   4.266
52270W        W24695  26.394   2.332  14.457
52271W        W24696  44.538  27.442   2.679
52272W        W24697  38.445  44.974  10.917
52273W        W24698   6.466  18.153  11.243
52274W        W24699   4.071  12.752  13.849
52275W        W24700   3.871  44.804  10.369
52276W        W24701   3.880  32.673  13.069
52277W        W24702  31.556  14.627  12.399
52278W        W24703  31.453   8.805   4.068
52279W        W24704  26.981  42.500  12.543
52280W        W24705  42.990   9.419   3.787
52281W        W24706  44.347  18.758  13.820
52282W        W24707  12.408  28.655  11.701
52283W        W24708  12.917   9.963   2.613
52284W        W24709  40.998   5.261   1.207
52285W        W24710   0.923  28.120  14.864
52286W        W24711  42.512   5.192   4.545
52287W        W24712  17.298  18.039   4.571
52288W        W24713  32.523  28.840   1.354
52289W        W24714  39.853  18.734  14.196
52290W        W24715  23.632   7.828  11.878
52291W        W24716   4.172   7.749  11.064
52292W        W24717  42.851  13.172  13.584
52293W        W24718   0.436  18.723   1.161
52294W        W24719  25.438   5.951   1.830
52295W        W24720   8.783   0.899   1.772
52296W        W24721  25.948  18.847  10.665
52297W        W24722  41.063  21.757   4.657
52298W        W24723  23.506  14.020   3.100
52299W        W24724   8.119  13.764   0.921
52300W        W24725  37.316  32.449   3.064
52301W        W24726   8.583  37.930  11.520
52302W        W24727  38.174  10.244  11.134
52303W        W24728  38.314  31.341  10.677
52304W        W24729  23.366   6.286  13.989
52305W        W24730  27.452   7.647   0.025
52306W        W24731  11.117  12.637  12.378
52307W        W24732   2.025  35.893  10.243
52308W        W24733  23.216   3.261   3.888
52309W        W24734  13.538  43.709  12.018
52310W        W24735  39.770  35.040  11.641
52311W        W24736  25.999   3.695  13.433
52312W        W24737  16.847  27.080   3.552
52313W        W24738  23.553  10.264   4.675
52314W        W24739  42.962  21.327   4.678
52315W        W24740  44.806  40.124   3.301
52316W        W24741  44.789  14.662   2.279
52317W        W24742  43.512  40.523   0.498
52318W        W24743  23.012  18.207  11.476
52319W        W24744  16.064  18.042   1.387
52320W        W24745  30.353  23.757  13.491
52321W        W24746  34.928   9.389   4.244
52322W        W24747   7.971  19.052  10.996
52323W        W24748  14.310  13.574   3.860
52324W        W24749  17.449  37.573  12.098
52325W        W24750   1.311  21.693  13.403
52326W        W24751  26.754  15.293   2.923
52327W        W24752  38.629  23.893  10.999
52328W        W24753  39.582  19.154  14.384
52329W        W24754  28.175  25.373   4.146
52330W        W24755  29.191  34.459  13.402
52331W        W24756  17.758  14.055  14.769
52332W        W24757   3.777   0.179  10.739
52333W        W24758  34.221  14.810   2.362
52334W        W24759  26.615  12.512   5.140
52335W        W24760  28.990  28.630   4.559
52336W        W24761  39.901  44.201   4.211
52337W        W24762  39.077  43.466   2.400
52338W        W24763  32.088  39.635  14.498
52339W        W24764  43.710  11.104  14.353
52340W        W24765  25.416  26.807   0.146
52341W        W24766  34.368   6.676  12.160
52342W        W24767  14.962   1.753  12.560
52343W        W24768  21.674  30.658  12.101
52344W        W24769  43.219  22.110   4.515
52345W        W24770  16.609  12.564   1.344
52346W        W24771  44.626   3.332  11.953
52347W        W24772  36.512  43.280   1.949
52348W        W24773   7.536   3.282  14.370
52349W        W24774   6.379  44.351  12.790
52350W        W24775  14.876  42.938  12.350
52351W        W24776  17.102   8.006  11.665
52352W        W24777  29.656   6.739  11.094
52353W        W24778   6.355  16.085   2.092
52354W        W24779  11.667  10.913   1.794
52355W        W24780  34.363  42.323  13.903
52356W        W24781  37.545  40.059   3.215
52357W        W24782  17.802  19.667  10.877
52358W        W24783  25.149   4.468  12.830
52359W        W24784  11.245  36.953   3.822
52360W        W24785  25.137  41.093   1.836
52361W        W24786  26.242  37.069  14.338
52362W        W24787  40.830   2.496  10.788
52363W        W24788  22.451  22.516  11.463
52364W        W24789   7.730   3.743  14.277
52365W        W24790   8.230  20.790  14.355
52366W        W24791  36.982  24.016  14.497
52367W        W24792   0.448  39.010   2.103
52368W        W24793  11.550  16.270  14.345
52369W        W24794   4.391  22.128  10.972
52370W        W24795  27.594  28.133   0.400
52371W        W24796  41.365  29.500   3.182
52372W        W24797   5.370  11.204   2.729
52373W        W24798  28.235  33.034   1.496
52374W        W24799   9.703  41.526  14.758
52375W        W24800   1.505  24.956   4.975
52376W        W24801  17.200   7.859  11.195
52377W        W24802  41.475   5.668  11.090
52378W        W24803  27.227  28.391   3.907
52379W        W24804  39.493  37.078  13.721
52380W        W24805  27.056  18.414   2.733
52381W        W24806   4.223   1.023   2.394
52382W        W24807   2.903  12.080  13.927
52383W        W24808   7.083   8.502  14.944
52384W        W24809  25.994   6.434  11.530
52385W        W24810  43.453  44.051   2.836
52386W        W24811  19.926   7.713  11.553
52387W        W24812   3.464  41.106  12.915
52388W        W24813  26.259  15.677  11.978
52389W        W24814  39.329  32.626  11.926
52390W        W24815  18.024  42.594  13.906
52391W        W24816   1.650   6.319  12.774
52392W        W24817   2.972   6.142  14.426
52393W        W24818  22.246  23.580   4.135
52394W        W24819  26.780  38.996   2.215
52395W        W24820  31.395  39.834   2.939
52396W        W24821  17.685  27.586   3.624
52397W        W24822  30.719   7.951  12.746
52398W        W24823   4.316  14.156   0.874
52399W        W24824  15.967  27.709   1.743
52400W        W24825  25.385   1.243  14.795
52401W        W24826  31.383  30.962  10.571
52402W        W24827  11.281   2.935   2.602
52403W        W24828   6.693  25.019  14.415
52404W        W24829  29.428  18.495   1.191
52405W        W24830   7.168  17.714  11.854
52406W        W24831  15.928  37.489  11.238
52407W        W24832  15.504  29.090   3.078
52408W        W24833  12.595   2.870  13.888
52409W        W24834   8.749   0.742  12.991
52410W        W24835  24.401  40.593  13.947
52411W        W24836  18.601  20.699  10.885
52412W        W24837  22.125  15.369  13.717
52413W        W24838  17.600  11.587   1.228
52414W        W24839   4.484  30.388  11.547
52415W        W24840  27.910   9.340  14.928
52416W        W24841  41.783  21.581  11.201
52417W        W24842  29.712  13.143  13.584
52418W        W24843   3.287  13.120   2.729
52419W        W24844   6.829  20.322   2.193
52420W        W24845  14.190  22.997  12.959
52421W        W24846  32.001  38.570  10.342
52422W        W24847   9.287   5.939  13.895
52423W        W24848   7.921  37.823  11.470
52424W        W24849  24.615  34.518   2.770
52425W        W24850  43.770   6.097  13.785
52426W        W24851  17.681  41.773  14.753
52427W        W24852  39.788  14.942  13.377
52428W        W24853  32.051  43.945  10.297
52429W        W24854  18.186   5.944  12.603
52430W        W24855   2.937   9.119  12.452
52431W        W24856  40.891  43.498  11.544
52432W        W24857  12.740  23.966   2.767
52433W        W24858  20.595   5.899  14.072
52434W        W24859   0.362  16.330  14.087
52435W        W24860  20.847   4.263   3.180
52436W        W24861  41.533   2.998  12.024
52437W        W24862  35.117  44.744  11.156
52438W        W24863   4.274  17.889   0.845
52439W        W24864  22.876  15.246   0.891
52440W        W24865  40.783   0.333   2.993
52441W        W24866  31.578  28.109  13.454
52442W        W24867  39.084  34.942  12.840
52443W        W24868  35.922   5.199   2.444
52444W        W24869  33.190  41.575   2.498
52445W        W24870  33.424  37.979   2.853
52446W        W24871  23.275  19.064  11.954
52447W        W24872  44.579   1.210   4.000
52448W        W24873  20.910  14.585  14.869
52449W        W24874  31.137   5.369   4.632
52450W        W24875  16.677  44.069   3.349
52451W        W24876  28.285  16.136  12.507
52452W        W24877  43.968  33.617   3.423
52453W        W24878  22.730  41.291  14.008
52454W        W24879  25.760   7.729   3.652
52455W        W24880  11.146  40.514  11.556
52456W        W24881  30.011  28.044  14.282
52457W        W24882  11.762  10.715   3.356
52458W        W24883  37.106  39.526   3.483
52459W        W24884  11.172  38.825   1.357
52460W        W24885  37.976  14.104   2.122
52461W        W24886  15.762  14.842   0.479
52462W        W24887  17.418  17.220   0.316
52463W        W24888  10.697   1.937  12.824
52464W        W24889  15.713  42.528   3.775
52465W        W24890   0.926  44.198  10.226
52466W        W24891  43.474  38.939   1.539
52467W        W24892  39.926   3.591  12.127
52468W        W24893   2.379  16.492  12.013
52469W        W24894  17.409  20.095   3.740
52470W        W24895  15.684  24.366  12.394
52471W        W24896   2.040  24.665  13.479
52472W        W24897  39.072  36.374   3.958
52473W        W24898   5.438   7.893  11.548
52474W        W24899   2.719  41.981  11.551
52475W        W24900  44.805  24.699  13.164
52476W        W24901  12.809  25.991   0.290
52477W        W24902  11.675  33.136   2.236
52478W        W24903  32.579  10.191  13.552
52479W        W24904  43.746  21.599  10.631
52480W        W24905   3.372  15.027  12.375
52481W        W24906  13.772  27.133  12.509
52482W        W24907   3.279  31.097  12.633
52483W        W24908  29.467  33.392  12.532
52484W        W24909  18.236  21.281   3.200
52485W        W24910  41.116  22.041   9.759
52486W        W24911   1.654  16.674   0.281
52487W        W24912  19.315  43.582  14.905
52488W        W24913   5.389   0.135  11.758
52489W        W24914   3.080  17.360   2.054
52490W        W24915  35.404  37.956  10.504
52491W        W24916  31.418   4.428  13.003
52492W        W24917  29.573  31.499   2.372
52493W        W24918   5.406  39.325  11.135
52494W        W24919   9.774  24.769   0.277
52495W        W24920  10.052   1.732   0.431
52496W        W24921  16.317  35.540   3.874
52497W        W24922  37.016  17.516  12.966
52498W        W24923  16.096  21.387   0.754
52499W        W24924   7.140  14.846  14.263
52500W        W24925  36.664   2.600   0.950
52501W        W24926  24.080  15.868  11.104
52502W        W24927  23.892   6.722  12.370
52503W        W24928  22.583  16.829  14.390
52504W        W24929  41.744  11.584  12.107
52505W        W24930   4.323  38.038   4.656
52506W        W24931   5.130  18.286   0.765
52507W        W24932   4.886  36.411  12.820
52508W        W24933   7.205  25.131   0.941
52509W        W24934  10.980  28.520  11.530
52510W        W24935   7.792  39.826  14.339
52511W        W24936  32.477  33.886   0.519
52512W        W24937  19.606  37.923   2.272
52513W        W24938  16.461  14.713   1.743
52514W        W24939   6.511  42.378   4.110
52515W        W24940  42.394   7.839   2.281
52516W        W24941   3.908   9.862   4.749
52517W        W24942  33.621  31.910  13.975
52518W        W24943  11.664   4.329   3.266
52519W        W24944   3.114  18.533  11.667
52520W        W24945  37.587  14.167  12.912
52521W        W24946  36.594  43.783   3.238
52522W        W24947   8.437   5.866  14.143
52523W        W24948  14.483  22.055  12.115
52524W        W24949  11.731  41.027  13.075
52525W        W24950  21.582  32.864  10.489
52526W        W24951   4.703   1.841   2.457
52527W        W24952  17.051  30.328   5.038
52528W        W24953  44.619  18.222  13.083
52529W        W24954  11.060  28.060  11.271
52530W        W24955  42.074  37.468  11.489
52531W        W24956  33.417  42.724  10.554
52532W        W24957  16.244  17.125   4.807
52533W        W24958   0.935  37.026   1.680
52534W        W24959  32.936   5.231  14.788
52535W        W24960  11.103  37.889   0.491
52536W        W24961  34.592  33.215   2.049
52537W        W24962  10.125   9.794  12.046
52538W        W24963   7.253  24.156   0.835
52539W        W24964  28.123  27.881   3.709
52540W        W24965  38.346  17.586   3.840
52541W        W24966  10.158   7.295  14.708
52542W        W24967  40.771  12.720   0.900
52543W        W24968  39.153  12.802  10.239
52544W        W24969  31.726  27.393  12.166
52545W        W24970  38.948   1.435   5.049
52546W        W24971  13.134  21.478  12.618
52547W        W24972  21.125  31.833   2.843
52548W        W24973  29.539  35.976  14.551
52549W        W24974  42.202  19.370   5.416
52550W        W24975  24.219   7.312   0.566
52551W        W24976  33.616  41.495   4.535
52552W        W24977  16.303  27.032  13.285
52553W        W24978  24.718   3.887  12.892
52554W        W24979  33.977   3.984   2.577
52555W        W24980  14.428   6.845  10.385
52556W        W24981  34.127   9.507  14.405
52557W        W24982  34.574   5.193  13.505
52558W        W24983   6.001   2.442  14.943
52559W        W24984  39.108  11.319   1.163
52560W        W24985  12.797  16.118  14.861
52561W        W24986  44.211  43.413   2.736
52562W        W24987  37.858  40.316   0.366
52563W        W24988  22.980  35.904  14.912
52564W        W24989  30.059  44.564  13.040
52565W        W24990  34.877  39.022  11.203
52566W        W24991  39.260  28.432   4.918
52567W        W24992   1.760  24.437   2.276
52568W        W24993  18.340  17.577   1.881
52569W        W24994  41.793  44.201   4.050
52570W        W24995  11.692  38.747   3.637
52571W        W24996  35.857  36.702   4.178
52572W        W24997  43.206  14.216  10.620
52573W        W24998  23.818  32.232  12.426
52574W        W24999  43.690   9.906   1.247
52575W        W25000  16.835   3.290   2.640
52576W        W25001  21.025  30.544  14.336
52577W        W25002  39.814  34.700   0.883
52578W        W25003  40.947  28.894   2.977
52579W        W25004  13.585  29.140  13.399
52580W        W25005  26.999  20.980  13.065
52581W        W25006   1.314  34.504   1.792
52582W        W25007   2.818   4.730  11.131
52583W        W25008  25.109   3.871   3.184
52584W        W25009  38.300  43.822  13.933
52585W        W25010   1.943  44.771   4.213
52586W        W25011  21.688  41.355  14.292
52587W        W25012  25.528  31.480  13.157
52588W        W25013  31.854  29.657  14.449
52589W        W25014  24.559   7.639  13.055
52590W        W25015  39.824   2.755  13.355
52591W        W25016   7.020  34.864  13.448
52592W        W25017  11.631  44.857   3.378
52593W        W25018  21.307  23.611  10.460
52594W        W25019   3.328  38.884  13.578
52595W        W25020  37.332   4.889  10.430
52596W        W25021  25.713  18.402   3.770
52597W        W25022  38.864  25.477  12.688
52598W        W25023   3.189   0.254   1.368
52599W        W25024  30.180  35.639   2.412
52600W        W25025  14.639   2.844   1.974
52601W        W25026  26.554  28.585   2.107
52602W        W25027   3.467  30.017   4.528
52603W        W25028  42.224  39.557  14.390
52604W        W25029   6.500  31.488  14.804
52605W        W25030  30.546  34.410   1.205
52606W        W25031  28.470   7.980   3.286
52607W        W25032  26.605  14.766  14.294
52608W        W25033  19.755  36.010   0.394
52609W        W25034  40.806  13.172   3.756
52610W        W25035  17.266   1.841  11.432
52611W        W25036  26.133   9.174   4.616
52612W        W25037  15.355  27.034   0.577
52613W        W25038  40.070  23.546   0.573
52614W        W25039  39.917   7.840   1.919
52615W        W25040  44.551  12.231  14.043
52616W        W25041  28.088  27.728  11.069
52617W        W25042  10.096   6.393  12.163
52618W        W25043  10.664   5.821   1.139
52619W        W25044  36.392   9.675  12.178
52620W        W25045   9.863  26.564  14.825
52621W        W25046  15.555   7.610   1.870
52622W        W25047  23.437  16.932   4.115
52623W        W25048  15.050   3.471  13.433
52624W        W25049  12.105  40.247  13.225
52625W        W25050  14.179  34.133   4.684
52626W        W25051  39.049  39.967  12.450
52627W        W25052   6.198  43.795   1.554
52628W        W25053   7.920  44.871  12.920
52629W        W25054  15.529  27.645  12.166
52630W        W25055  27.045  18.971  11.057
52631W        W25056  42.410  17.091   2.236
52632W        W25057  20.641  22.207   1.924
52633W        W25058   4.301  12.071   0.848
52634W        W25059   4.655  38.182  13.004
52635W        W25060   7.298   1.240  11.572
52636W        W25061   6.874  41.811   4.745
52637W        W25062  11.111  41.863  11.489
52638W        W25063   2.242  10.649   3.703
52639W        W25064  29.327  20.697  13.876
52640W        W25065  16.170  17.508  12.969
52641W        W25066  17.536  22.951  13.998
52642W        W25067  17.017  19.481  13.618
52643W        W25068  43.754  38.329  13.059
52644W        W25069  16.876  11.742  11.903
52645W        W25070  43.815  16.351  12.606
52646W        W25071  26.424  43.944   3.604
52647W        W25072  33.929  26.233   1.283
52648W        W25073  15.670  30.840   3.350
52649W        W25074  30.374  25.162   3.903
52650W        W25075   4.726  44.963  11.550
52651W        W25076  34.546  32.202  10.692
52652W        W25077  16.576  17.508   2.294
52653W        W25078   4.873  40.399  12.329
52654W        W25079  29.447  19.188   3.986
52655W        W25080  32.000   8.343   1.977
52656W        W25081  12.201   0.730   1.863
52657W        W25082  14.862   7.329  14.827
52658W        W25083   2.951  39.341   2.687
52659W        W25084  43.346  41.847  10.355
52660W        W25085  10.814  27.860   4.628
52661W        W25086  11.223  37.108  13.610
52662W        W25087  35.517  21.287  11.570
52663W        W25088  30.435  13.267  14.466
52664W        W25089   1.704  35.604  12.452
52665W        W25090  24.749  34.955  10.698
52666W        W25091  32.639  19.768   3.618
52667W        W25092  28.971  21.587   1.716
52668W        W25093  37.078  12.728  12.567
52669W        W25094  16.851   0.731   2.291
52670W        W25095  32.337   0.242   9.984
52671W        W25096  24.543  22.472  14.947
52672W        W25097  22.774   2.757   3.936
52673W        W25098  28.500  18.042   0.382
52674W        W25099  25.048   7.727   0.528
52675W        W25100  32.925  17.155  14.730
52676W        W25101  26.713  37.416  13.007
52677W        W25102   1.260  18.787  11.631
52678W        W25103  23.716   2.399   4.093
52679W        W25104  15.766  38.049  10.695
52680W        W25105  26.317  37.087   4.233
52681W        W25106  31.124  17.321   2.737
52682W        W25107  14.340  17.229  13.782
52683W        W25108  28.799  12.954   4.054
52684W        W25109  15.118  31.148  12.436
52685W        W25110  18.294   4.038   4.382
52686W        W25111   9.173  36.515   1.323
52687W        W25112   8.718  26.256   0.433
52688W        W25113  24.713  27.923  13.402
52689W        W25114  19.192  22.824  13.889
52690W        W25115  16.295  40.066  12.112
52691W        W25116  38.918  12.914   2.317
52692W        W25117  23.684  33.322  11.975
52693W        W25118   9.488  14.770   3.584
52694W        W25119  29.636  30.608  11.166
52695W        W25120  24.272  18.710  13.999
52696W        W25121  31.617  12.120   2.323
52697W        W25122  12.678  37.942  12.672
52698W        W25123   9.703  24.403  13.830
52699W        W25124  25.415  15.404   3.688
52700W        W25125  35.956   3.843   0.994
52701W        W25126  28.731  27.309  13.881
52702W        W25127  25.227  27.171   3.210
52703W        W25128  39.095   8.467   3.664
52704W        W25129   6.663  16.552  13.334
52705W        W25130  21.926   7.791  11.187
52706W        W25131  21.894  18.552   0.459
52707W        W25132   8.924  41.312   3.018
52708W        W25133  17.470   0.233   3.380
52709W        W25134  15.680  17.343  13.046
52710W        W25135   6.798   6.785  10.968
52711W        W25136  25.745  17.574   1.369
52712W        W25137   6.378   1.385   3.019
52713W        W25138   7.248  10.619  13.138
52714W        W25139  25.491  22.599   3.747
52715W        W25140  26.543  42.808   1.068
52716W        W25141  29.679  11.080   3.719
52717W        W25142  44.266  11.790   2.348
52718W        W25143   2.415  19.770   2.488
52719W        W25144  22.855   8.623   5.111
52720W        W25145   7.294  28.032   3.211
52721W        W25146  32.300  19.729   3.198
52722W        W25147  26.076  27.134  11.253
52723W        W25148  39.467  36.986  11.032
52724W        W25149  16.560   2.441   4.718
52725W        W25150  42.162  41.169   4.085
52726W        W25151  40.398  32.184  12.820
52727W        W25152   5.541   7.745   2.208
52728W        W25153  21.273  12.437  12.048
52729W        W25154  24.375  43.157   4.137
52730W        W25155  25.174   5.644   2.169
52731W        W25156  31.235  30.595   1.752
52732W        W25157  38.616  11.901   0.682
52733W        W25158  16.721  33.296   2.141
52734W        W25159  23.173   8.418  14.474
52735W        W25160   2.181  22.296   3.618
52736W        W25161  22.102  18.170   3.853
52737W        W25162  22.142  35.993   1.492
52738W        W25163  38.584  21.175   3.785
52739W        W25164  44.503  19.126  11.109
52740W        W25165  27.070  29.954  13.656
52741W        W25166   3.284  33.823   1.391
52742W        W25167  34.129  15.030  14.243
52743W        W25168  31.864  28.578   1.572
52744W        W25169   2.727  15.695   3.829
52745W        W25170  13.655  26.462  14.329
52746W        W25171  15.997   1.049   0.734
52747W        W25172  15.616  36.314  11.620
52748W        W25173   7.730  33.648   2.364
52749W        W25174   7.325  44.858   3.844
52750W        W25175  32.172   3.702   2.037
52751W        W25176  12.110   2.700  13.922
52752W        W25177  40.553  27.169   2.665
52753W        W25178  31.329  27.893   0.065
52754W        W25179  36.155  15.421   5.207
52755W        W25180  15.824  10.643  12.394
52756W        W25181  40.586   6.190  13.815
52757W        W25182   5.039  39.198  11.494
52758W        W25183  17.820  41.021  13.975
52759W        W25184  38.959  39.090  12.007
52760W        W25185  20.868  35.421   4.343
52761W        W25186  18.613  44.870   4.276
52762W        W25187  36.346  36.952  13.764
52763W        W25188  29.983   2.514  10.637
52764W        W25189  13.292  25.965   4.757
52765W        W25190  14.046  39.957  14.751
52766W        W25191  23.235  16.821   0.868
52767W        W25192  17.731  41.275  10.405
52768W        W25193  42.548   3.508  12.612
52769W        W25194  23.760  35.314  12.139
52770W        W25195  41.820   8.861  14.452
52771W        W25196   4.893  17.101  14.002
52772W        W25197   6.258   0.671  14.572
52773W        W25198   7.253  20.704  12.895
52774W        W25199  34.774  23.556  14.493
52775W        W25200  26.404  19.190  13.243
52776W        W25201   6.844  44.547  12.500
52777W        W25202  26.251  20.641   0.484
52778W        W25203   7.756  14.128   0.449
52779W        W25204  35.464  14.249   4.336
52780W        W25205  37.956  43.896  11.917
52781W        W25206  33.766  10.487  11.103
52782W        W25207  28.420  16.216  11.097
52783W        W25208   7.510  35.424  11.557
52784W        W25209  19.917  16.181  11.348
52785W        W25210  14.570  13.581  14.822
52786W        W25211  17.459  33.464   1.654
52787W        W25212  37.273  19.518  14.379
52788W        W25213  43.525  36.070  11.619
52789W        W25214   2.832  42.430   3.228
52790W        W25215   5.886  10.277   2.484
52791W        W25216  44.362  22.921  14.054
52792W        W25217  35.988   8.714  13.241
52793W        W25218  12.703  27.082   2.363
52794W        W25219  20.288  13.419  13.599
52795W        W25220  18.844  31.901  11.633
52796W        W25221  14.938  43.687  13.735
52797W        W25222   5.387   2.281   2.303
52798W        W25223  29.485   5.282  12.233
52799W        W25224  43.640  36.967   4.231
52800W        W25225  36.088  24.677  12.095
52801W        W25226  17.137  10.654   0.954
52802W        W25227   7.043  28.266   3.606
52803W        W25228  18.839  26.721  11.674
52804W        W25229   4.058  29.000   0.872
52805W        W25230  31.038  37.049  12.124
52806W        W25231  17.006  13.207   3.746
52807W        W25232  25.551   1.285  12.002
52808W        W25233  41.324  29.221  10.644
52809W        W25234   4.019   7.481  11.493
52810W        W25235  33.468  43.024   5.296
52811W        W25236  29.634  29.543  13.843
52812W        W25237   4.414  22.369  13.784
52813W        W25238  20.100  41.495  14.158
52814W        W25239  11.347  31.422   1.289
52815W        W25240   8.860   3.461  12.716
52816W        W25241  41.596  38.877  12.564
52817W        W25242  36.514  32.943  12.338
52818W        W25243   1.040  27.713   4.584
52819W        W25244  43.827  11.298  14.807
52820W        W25245  11.706  13.187  12.043
52821W        W25246  26.631  32.068   5.032
52822W        W25247  42.071  41.561   3.776
52823W        W25248  41.010  19.294   0.350
52824W        W25249  14.135   7.156   0.247
52825W        W25250  25.361  17.226   1.344
52826W        W25251  14.871   7.321   0.731
52827W        W25252  26.060  16.331  11.186
52828W        W25253  12.134  42.319   2.692
52829W        W25254   9.246  32.351   2.288
52830W        W25255   4.639  23.542   3.373
52831W        W25256  42.548  31.203   3.274
52832W        W25257   0.861  22.693  10.721
52833W        W25258  25.214  34.406   4.522
52834W        W25259  31.464   1.227  10.725
52835W        W25260  41.252  39.030   4.019
52836W        W25261  14.275  27.879   3.334
52837W        W25262  11.541  19.718  14.217
52838W        W25263  40.744  17.640  12.238
52839W        W25264   4.857  38.532   1.439
52840W        W25265  24.230  41.300   0.295
52841W        W25266  29.526  28.631   4.686
52842W        W25267   3.788  37.068  10.480
52843W        W25268  35.167  24.574  12.112
52844W        W25269  36.417  13.123  11.596
52845W        W25270  34.433  26.347  12.470
52846W        W25271  37.454  22.248  14.732
52847W        W25272  29.382  16.314  12.068
52848W        W25273  21.209  35.368  12.075
52849W        W25274  44.829  34.989  13.045
52850W        W25275  27.883  41.435  14.908
52851W        W25276  11.406  13.727   2.314
52852W        W25277  30.026   3.930   1.215
52853W        W25278   3.527  22.974  14.282
52854W        W25279  36.842  14.681  13.911
52855W        W25280  29.611  41.293  14.354
52856W        W25281  26.369  43.272   0.896
52857W        W25282   5.199  38.452  11.510
52858W        W25283  39.673  26.473   0.511
52859W        W25284   9.430  22.963  14.072
52860W        W25285   8.497  37.151   1.644
52861W        W25286   3.329  41.240   3.578
52862W        W25287  37.381  30.890  12.421
52863W        W25288  21.452  39.925  11.653
52864W        W25289  33.354   4.299  11.514
52865W        W25290   2.169  23.378   5.523
52866W        W25291   9.737  16.495  14.529
52867W        W25292  18.794  43.573   0.726
52868W        W25293   4.823  13.222   0.164
52869W        W25294   4.922   5.398   3.777
52870W        W25295  40.978   6.173   3.731
52871W        W25296  32.860  36.012  12.882
52872W        W25297   7.265  32.735   3.376
52873W        W25298   4.123  32.859  12.659
52874W        W25299  35.481  43.443   3.894
52875W        W25300  10.117  11.554  14.845
52876W        W25301   6.247  15.161  11.413
52877W        W25302  14.684  17.786   1.237
52878W        W25303   0.788  10.963   1.224
52879W        W25304   2.230  35.640  12.469
52880W        W25305   1.850   8.259  10.715
52881W        W25306  30.815  19.268  13.454
52882W        W25307  18.698  31.631  11.204
52883W        W25308  42.079  40.308  12.423
52884W        W25309   6.227  23.998   0.380
52885W        W25310  24.680  41.356   2.852
52886W        W25311   9.518  14.854   1.428
52887W        W25312  36.598  28.176   3.617
52888W        W25313  42.491  23.240   5.732
52889W        W25314  16.701   8.728  14.427
52890W        W25315  23.147  32.435  14.994
52891W        W25316  17.750  12.116  11.623
52892W        W25317  10.614   8.699  13.946
52893W        W25318  37.358  20.205   3.196
52894W        W25319  41.245  25.990  10.709
52895W        W25320   7.872  26.796  11.260
52896W        W25321   3.612   2.063   1.794
52897W        W25322  19.167  31.840  11.222
52898W        W25323  17.814  13.614  13.968
52899W        W25324  27.280   1.762   2.470
52900W        W25325  16.229  33.672   5.107
52901W        W25326   9.837  14.171   2.652
52902W        W25327  12.806   9.254   0.594
52903W        W25328  25.496   0.893   2.838
52904W        W25329  11.051   3.830   3.723
52905W        W25330   1.043  29.188  12.503
52906W        W25331  44.952  34.875   4.624
52907W        W25332  18.393  32.957   3.323
52908W        W25333  23.418  26.089   4.180
52909W        W25334  37.570  35.413   4.055
52910W        W25335  41.358  11.860  14.398
52911W        W25336   7.432  42.952  11.541
52912W        W25337   0.040  20.751   2.412
52913W        W25338  12.568  44.011  13.584
52914W        W25339  17.235   4.808   3.171
52915W        W25340  11.192  19.195   0.715
52916W        W25341  38.398  19.505  11.767
52917W        W25342  39.613   2.325   1.515
52918W        W25343  31.009   1.938  13.145
52919W        W25344  21.213   8.193  13.102
52920W        W25345   6.132  44.922   1.858
52921W        W25346  38.113  40.053   4.092
52922W        W25347  37.467  22.768  11.588
52923W        W25348  20.308  25.172   1.380
52924W        W25349  28.716  16.573  14.229
52925W        W25350   6.910  34.519   4.657
52926W        W25351  39.413  36.498   0.986
52927W        W25352  16.236  33.767  10.948
52928W        W25353  19.716  39.108   0.333
52929W        W25354  25.131   6.249  14.442
52930W        W25355   7.854  39.308   4.397
52931W        W25356   7.587  34.596  13.751
52932W        W25357  25.204   2.877   4.080
52933W        W25358  26.931   8.933  14.519
52934W        W25359  11.401  30.663  11.900
52935W        W25360  23.964  41.381   2.135
52936W        W25361  36.004  32.516   1.959
52937W        W25362  31.112  14.698   2.109
52938W        W25363  27.601  17.171  11.245
52939W        W25364  15.262  29.473   2.784
52940W        W25365   7.870   8.746  13.868
52941W        W25366  40.450  16.974   0.341
52942W        W25367   2.895  29.411   3.225
52943W        W25368   9.621  43.650   0.499
52944W        W25369  41.940   6.379   2.364
52945W        W25370  30.033  31.884   1.774
52946W        W25371  20.799  43.610  13.303
52947W        W25372  31.069  43.217   3.671
52948W        W25373  13.383  34.085   1.951
52949W        W25374  36.426   0.499  12.890
52950W        W25375  11.071  14.671  11.706
52951W        W25376  15.988  17.684   0.977
52952W        W25377  16.624  18.807   1.648
52953W        W25378  41.094  31.941   0.777
52954W        W25379  24.802  31.626  11.976
52955W        W25380  31.890  31.898  12.142
52956W        W25381   8.346   4.771   3.721
52957W        W25382  12.862  42.057   3.733
52958W        W25383  28.209  37.380   1.347
52959W        W25384  28.635  27.628  11.683
52960W        W25385  39.243  41.949  14.846
52961W        W25386  17.664  44.181   4.438
52962W        W25387  43.059   3.884  11.082
52963W        W25388  16.511  17.788   1.483
52964W        W25389  17.263  33.882   5.410
52965W        W25390  26.611  14.771   2.864
52966W        W25391  35.480  31.431   0.796
52967W        W25392  40.969  20.586   0.812
52968W        W25393  31.446  28.534   3.352
52969W        W25394   9.771  10.490  13.952
52970W        W25395  11.448  18.228  14.257
52971W        W25396  29.506   1.837   4.484
52972W        W25397   6.165  19.673   3.728
52973W        W25398  36.787  43.746   0.245
52974W        W25399  36.098  17.977   4.882
52975W        W25400  43.912   9.732  11.846
52976W        W25401  23.746  14.999   1.429
52977W        W25402   5.275  10.123  10.773
52978W        W25403  10.146  37.866   2.920
52979W        W25404  34.500   1.457  13.893
52980W        W25405  38.744  31.447   2.095
52981W        W25406  21.780  30.088  12.422
52982W        W25407  25.657  34.025  14.815
52983W        W25408  41.884  23.154  12.471
52984W        W25409  20.583   8.414  11.636
52985W        W25410   9.183  12.895   4.177
52986W        W25411  42.177   5.500   3.247
52987W        W25412   9.260  36.753   3.642
52988W        W25413  17.832   2.068  12.081
52989W        W25414  10.313  11.798   0.262
52990W        W25415  15.735  39.748  11.540
52991W        W25416   8.663  36.067   2.652
52992W        W25417  31.394  30.794   3.237
52993W        W25418  26.200   1.236  11.483
52994W        W25419  10.747  10.820  12.809
52995W        W25420  38.767  23.244   3.147
52996W        W25421   4.874  42.762  10.779
52997W        W25422  25.127  41.507   4.735
52998W        W25423  36.930   1.023  11.156
52999W        W25424  29.424  33.603  13.388
53000W        W25425  42.320  25.662   4.637
53001W        W25426  40.486   9.423  14.332
53002W        W25427   5.735  35.482  10.393
53003W        W25428  42.479  19.598  10.815
53004W        W25429  21.147  23.164   1.790
53005W        W25430   7.002  22.040   2.174
53006W        W25431  23.175  13.157  12.022
53007W        W25432  17.189   6.833   4.283
53008W        W25433  42.796  42.395   2.348
53009W        W25434  37.435  28.029   4.109
53010W        W25435   5.713  23.616   3.574
53011W        W25436  34.140  25.468  12.069
53012W        W25437  35.357   6.887  13.149
53013W        W25438  24.733  19.034  13.061
53014W        W25439  26.884   0.064  10.899
53015W        W25440  38.719  18.351   3.639
53016W        W25441  38.103   8.880  11.506
53017W        W25442  32.574  27.410   2.746
53018W        W25443  26.075  21.073  11.380
53019W        W25444  18.264   5.846   3.158
53020W        W25445  41.948   2.253   2.222
53021W        W25446  30.106   9.387  13.899
53022W        W25447  15.446  39.041   4.142
53023W        W25448   7.849  29.942   3.327
53024W        W25449   8.211   8.600  12.626
53025W        W25450   8.640  28.540  10.676
53026W        W25451  13.150  38.555  11.128
53027W        W25452  22.998  21.332  10.239
53028W        W25453   1.604   5.729  14.451
53029W        W25454   6.686  25.370   4.521
53030W        W25455  32.394  22.117   3.908
53031W        W25456  36.557  22.348   0.860
53032W        W25457   5.679  22.332  14.417
53033W        W25458  17.825  31.041  13.996
53034W        W25459  23.762   9.827  10.161
53035W        W25460  28.083   4.851   3.667
53036W        W25461   1.820  21.726   0.456
53037W        W25462  41.335  25.015   0.265
53038W        W25463  33.478  30.961  13.567
53039W        W25464   5.872  34.227   4.493
53040W        W25465  11.401  24.805   1.622
53041W        W25466   0.784  33.188  13.848
53042W        W25467  44.444   0.920  14.354
53043W        W25468   4.329  13.986  11.893
53044W        W25469  20.812  40.918  12.525
53045W        W25470  25.913  33.176   2.796
53046W        W25471  28.667  32.921  13.839
53047W        W25472  21.074   6.615  10.562
53048W        W25473  41.795  31.192   3.646
53049W        W25474  15.553  20.027   0.059
53050W        W25475  24.123  29.928  11.990
53051W        W25476  38.416  25.940   4.304
53052W        W25477  42.276  43.457  11.937
53053W        W25478  43.359  24.664   4.359
53054W        W25479  42.679  15.046  10.834
53055W        W25480  25.971  19.926   4.486
53056W        W25481  21.504  43.933  12.452
53057W        W25482  24.050   1.477   2.201
53058W        W25483  38.919  41.840   1.691
53059W        W25484  11.877   1.501   4.763
53060W        W25485   6.206  25.170   1.826
53061W        W25486  40.502  36.504  14.951
53062W        W25487  23.751   7.690   3.303
53063W        W25488  24.145  12.938   1.925
53064W        W25489  15.917  11.795   0.271
53065W        W25490  12.112  40.765  13.366
53066W        W25491  42.370  14.719   0.427
53067W        W25492  22.548   8.304  13.747
53068W        W25493  21.608  34.865  14.036
53069W        W25494   6.720   9.480  10.686
53070W        W25495  28.045  10.756  14.232
53071W        W25496  11.747  38.652   2.339
53072W        W25497  23.247  26.574  13.416
53073W        W25498  19.371  23.813   4.100
53074W        W25499  12.595  28.125  14.460
53075W        W25500   1.401  42.287  14.904
53076W        W25501  32.685  40.508   2.352
53077W        W25502  34.428  34.887   4.601
53078W        W25503  31.824   6.729   4.617
53079W        W25504  11.343  25.779  14.482
53080W        W25505  29.844  14.394   0.798
53081W        W25506   5.263  26.665   3.181
53082W        W25507   2.434  41.286   4.639
53083W        W25508  27.464  23.256  11.114
53084W        W25509  43.267  17.158   3.605
53085W        W25510  27.042   0.472   0.911
53086W        W25511  21.934  27.873  11.136
53087W        W25512   3.674  32.750  10.611
53088W        W25513  20.068   4.872   1.381
53089W        W25514  28.436  14.186   0.277
53090W        W25515   0.754  31.321  10.633
53091W        W25516  39.617  32.149  12.124
53092W        W25517   6.143  35.460   2.365
53093W        W25518  40.068  13.075  12.975
53094W        W25519  33.056  27.080  11.998
53095W        W25520  11.087  32.499  11.182
53096W        W25521  36.534  35.128  12.505
53097W        W25522  15.133  22.647   4.319
53098W        W25523  16.903  11.180   1.689
53099W        W25524  22.129   0.203  14.390
53100W        W25525   9.372   3.792   4.808
53101W        W25526  26.216  38.023  14.381
53102W        W25527  15.243   1.894  13.302
53103W        W25528   7.549  37.315   3.230
53104W        W25529  21.981  37.023   4.239
53105W        W25530  42.793  26.226   0.756
53106W        W25531  43.294   8.143  13.818
53107W        W25532  29.974  23.207   4.167
53108W        W25533  44.486  16.122   4.729
53109W        W25534  36.888   1.785  13.802
53110W        W25535   3.451   7.669   4.758
53111W        W25536   7.860  32.574  11.100
53112W        W25537  20.999   9.913  13.478
53113W        W25538   4.120  18.600   1.520
53114W        W25539  30.133  35.128   4.799
53115W        W25540  31.223  27.245   2.408
53116W        W25541  42.440   1.302  12.985
53117W        W25542  23.545   7.269   1.709
53118W        W25543  25.113   1.309  13.893
53119W        W25544  36.062  22.259  13.985
53120W        W25545  15.642   5.834  12.813
53121W        W25546   7.225  10.450   4.207
53122W        W25547   1.251  13.901  10.535
53123W        W25548  24.154  34.209   4.675
53124W        W25549  15.114  30.588   3.206
53125W        W25550  17.074  43.222  13.394
53126W        W25551  24.787   4.547   1.434
53127W        W25552  23.602   6.680  13.607
53128W        W25553  44.822  20.710   2.887
53129W        W25554  32.053   3.123  14.425
53130W        W25555  42.755  24.538  10.999
53131W        W25556  37.935  10.678  14.822
53132W        W25557  22.877  32.105  13.806
53133W        W25558  15.688  27.461  10.915
53134W        W25559   7.462  44.007   1.206
53135W        W25560  34.675   0.895   2.166
53136W        W25561  21.218  16.607   4.688
53137W        W25562  30.904   5.291  13.149
53138W        W25563  17.204  16.064   4.627
53139W        W25564  24.251   2.322  11.261
53140W        W25565  30.121  39.048  12.985
53141W        W25566  28.002  42.487  11.968
53142W        W25567  11.187   9.294   2.254
53143W        W25568  24.071  35.330  11.715
53144W        W25569  33.070  42.427   2.256
53145W        W25570  35.957  26.406  10.758
53146W        W25571  41.513  30.051  14.571
53147W        W25572   1.407  19.029   0.740
53148W        W25573  35.173  27.173   4.172
53149W        W25574  40.045  21.133  14.120
53150W        W25575   9.332  41.793   0.682
53151W        W25576  16.306  34.992   0.796
53152W        W25577   6.381  23.255   3.297
53153W        W25578   6.740  19.998  13.293
53154W        W25579   5.839  15.862   2.809
53155W        W25580  35.846   8.345  11.426
53156W        W25581  33.387  40.870  10.412
53157W        W25582   6.821  19.412  11.557
53158W        W25583  35.429   8.509   1.292
53159W        W25584  24.807  22.568  14.440
53160W        W25585  37.608  23.442   0.552
53161W        W25586  13.569  24.387  10.938
53162W        W25587  25.807  31.368   4.402
53163W        W25588  13.187  19.206   1.307
53164W        W25589  30.967  24.698   0.886
53165W        W25590  17.407  39.482   2.634
53166W        W25591  18.175  14.026  10.752
53167W        W25592  30.158   0.832  13.489
53168W        W25593  22.699  36.878  14.432
53169W        W25594   8.891  25.906  14.745
53170W        W25595   7.790  34.201  12.938
53171W        W25596   1.743  12.309  11.119
53172W        W25597  30.835  11.284   0.309
53173W        W25598  24.203  33.364  12.022
53174W        W25599   1.756   1.452   0.356
53175W        W25600  16.546   1.343  14.933
53176W        W25601  12.854  22.460   1.342
53177W        W25602  44.694  32.585  14.576
53178W        W25603   6.891  12.102  11.459
53179W        W25604  19.509  16.136   4.878
53180W        W25605  17.178  18.755  14.777
53181W        W25606  22.540  23.480  14.864
53182W        W25607  37.757  31.470  10.596
53183W        W25608   1.309  11.324   0.736
53184W        W25609  25.172   4.699   4.157
53185W        W25610  37.634  24.766   0.515
53186W        W25611  11.870  12.665   1.157
53187W        W25612  12.206  39.407  14.397
53188W        W25613   5.955  25.252  12.587
53189W        W25614   3.260  33.541   4.656
53190W        W25615  24.698  24.953   1.876
53191W        W25616   6.761  42.233  13.315
53192W        W25617  16.850  19.253   3.116
53193W        W25618  26.681   5.778   3.800
53194W        W25619  32.923  34.998   4.699
53195W        W25620  44.767  36.589  10.807
53196W        W25621   8.896   1.910   3.805
53197W        W25622   3.740   1.528  11.547
53198W        W25623   1.473  23.724  11.056
53199W        W25624  33.346  14.259   4.017
53200W        W25625  11.826  15.301  14.277
53201W        W25626  44.323  33.463   4.510
53202W        W25627  40.007  21.731  10.272
53203W        W25628  12.757  21.487   2.862
53204W        W25629  25.112  40.165   0.215
53205W        W25630  38.102  31.366   3.639
53206W        W25631  34.827  39.577  13.911
53207W        W25632  11.568  40.977  11.351
53208W        W25633  27.074  10.747  12.950
53209W        W25634  13.761  23.671  12.069
53210W        W25635   1.100  37.152   0.172
53211W        W25636   1.317   0.997  13.616
53212W        W25637  36.999   1.233   1.933
53213W        W25638   4.056  44.791  14.455
53214W        W25639   3.065  19.139   1.370
53215W        W25640  28.525  14.570  10.816
53216W        W25641  22.458   8.250   4.845
53217W        W25642  41.029  21.302  10.226
53218W        W25643  37.589  37.420   3.760
53219W        W25644  25.229  12.138  11.286
53220W        W25645  26.640  14.708  12.852
53221W        W25646  25.790   0.479   2.730
53222W        W25647  38.327  36.332   2.561
53223W        W25648   3.755  18.954  11.165
53224W        W25649   3.874  11.159   4.190
53225W        W25650   6.225   2.414   2.875
53226W        W25651  36.352  11.641  12.811
53227W        W25652   3.533  30.192   1.672
53228W        W25653  37.757   2.722   1.421
53229W        W25654  43.575  40.755  13.817
53230W        W25655  18.539  15.652   4.029
53231W        W25656  16.738  24.748  14.965
53232W        W25657  40.203  41.409  13.186
53233W        W25658  29.355  15.004   2.818
53234W        W25659   6.170  31.443   1.467
53235W        W25660  41.366  19.567  12.763
53236W        W25661  38.030  11.429   2.617
53237W        W25662   9.854  24.177  14.400
53238W        W25663  31.112   6.380  10.264
53239W        W25664   5.472  19.347   3.277
53240W        W25665  43.679  22.914   1.263
53241W        W25666  27.446  22.625  13.901
53242W        W25667  42.822  36.372  14.623
53243W        W25668  23.136  35.532   1.471
53244W        W25669   9.398  23.151   2.319
53245W        W25670  25.579   8.345   1.650
53246W        W25671  31.179  13.141   0.509
53247W        W25672  12.065  41.414   0.477
53248W        W25673  25.765  41.970  14.588
53249W        W25674  17.614   4.194  11.873
53250W        W25675  41.776  28.780   4.321
53251W        W25676   6.238  38.464  12.560
53252W        W25677  19.293  43.757  11.788
53253W        W25678  27.956   2.031  10.901
53254W        W25679  30.115  27.953   4.804
53255W        W25680  19.226  17.255   3.606
53256W        W25681  44.518  21.282  12.575
53257W        W25682   9.411  12.352   2.806
53258W        W25683  29.705  39.736  13.507
53259W        W25684  41.542  31.139  10.807
53260W        W25685  12.335  13.901   1.793
53261W        W25686  10.692  22.771  11.165
53262W        W25687  10.724  40.791  11.107
53263W        W25688  15.153  26.529  13.959
53264W        W25689   5.645  44.446   4.428
53265W        W25690  23.672  41.956  14.332
53266W        W25691  26.533  27.687   4.302
53267W        W25692  13.773   3.308   0.388
53268W        W25693   4.134   1.245   1.830
53269W        W25694  35.662  40.006   3.259
53270W        W25695  37.010  27.900  14.862
53271W        W25696  27.819   8.100  11.987
53272W        W25697  32.089  43.217  11.167
53273W        W25698  44.870   8.234  11.586
53274W        W25699   8.090  31.803  12.961
53275W        W25700   0.322  12.275  13.063
53276W        W25701  10.388  37.911   2.007
53277W        W25702   1.455  15.823   4.641
53278W        W25703  14.154  19.687  11.587
53279W        W25704  14.605  28.327   3.328
53280W        W25705  11.690  41.889  14.590
53281W        W25706  44.802  40.367  14.500
53282W        W25707  21.529  33.274   2.832
53283W        W25708   2.797  27.532  14.812
53284W        W25709  32.407   7.953   3.739
53285W        W25710  25.081   9.110  11.623
53286W        W25711  36.884  21.188   4.818
53287W        W25712  23.943  29.159  13.013
53288W        W25713   3.327  35.120   4.162
53289W        W25714  19.906   6.120  10.381
53290W        W25715  18.826  26.954   2.724
53291W        W25716   9.788   5.525   0.479
53292W        W25717  35.304  41.672  12.117
53293W        W25718  32.721  39.894   0.962
53294W        W25719  18.064   7.263   2.695
53295W        W25720  37.519  11.312  14.878
53296W        W25721   6.882   2.957  14.930
53297W        W25722   6.487  34.065   0.435
53298W        W25723  25.185  36.639  11.185
53299W        W25724  35.344  38.096   2.346
53300W        W25725  25.092  34.416   2.583
53301W        W25726  43.361  38.663  11.103
53302W        W25727  22.827  37.793  13.298
53303W        W25728  44.551  17.779  13.887
53304W        W25729  32.524   7.707  12.746
53305W        W25730  10.125  12.775  10.103
53306W        W25731  10.883   5.522  12.527
53307W        W25732  14.782  30.510   5.032
53308W        W25733  43.974  14.661  10.512
53309W        W25734  21.659  24.701  12.581
53310W        W25735  27.720  18.317  10.598
53311W        W25736  24.430  43.229   0.459
53312W        W25737  27.849  14.959   0.734
53313W        W25738  22.470   8.658   0.027
53314W        W25739   4.339  26.698   0.205
53315W        W25740  23.502  21.145   2.953
53316W        W25741   3.531  21.093  10.875
53317W        W25742  24.630  42.367   1.240
53318W        W25743  40.007  16.376   1.860
53319W        W25744   0.314  26.290   4.005
53320W        W25745  21.642  42.044  13.558
53321W        W25746  14.969  43.155  13.537
53322W        W25747  35.553  37.925  12.313
53323W        W25748  29.223   7.616   1.061
53324W        W25749  44.878  41.002   3.548
53325W        W25750  19.484  20.143  12.933
53326W        W25751  22.154   5.921  14.507
53327W        W25752  33.517  42.333  13.451
53328W        W25753  15.309   9.805  11.909
53329W        W25754  27.407   5.854  11.909
53330W        W25755   1.869  44.275  13.566
53331W        W25756  29.215   8.114   0.944
53332W        W25757  42.953  38.597  10.767
53333W        W25758  26.227  34.681   1.481
53334W        W25759  42.220  31.166  13.361
53335W        W25760  34.511  32.859  13.491
53336W        W25761   1.558  34.780  12.853
53337W        W25762  29.608  41.358   3.383
53338W        W25763   0.499  28.588  12.062
53339W        W25764  36.152  28.067  11.655
53340W        W25765  15.067   0.456  12.177
53341W        W25766  15.144  28.460   1.157
53342W        W25767   3.714  39.841   2.695
53343W        W25768  20.793  37.253  13.317
53344W        W25769  10.771   6.989  12.681
53345W        W25770  38.951  36.602  11.655
53346W        W25771  44.958  32.407   4.622
53347W        W25772  12.213  15.582   3.782
53348W        W25773   2.976  15.270   4.235
53349W        W25774  34.550  44.775   0.975
53350W        W25775   7.310  35.853   3.351
53351W        W25776  21.904  42.219  10.989
53352W        W25777  10.595  44.196   3.164
53353W        W25778  43.440  28.438  13.309
53354W        W25779  13.783  42.518  14.147
53355W        W25780  13.840  15.805  11.908
53356W        W25781   6.199   7.812  10.747
53357W        W25782  28.083  22.680   2.145
53358W        W25783   3.757  14.861  12.059
53359W        W25784  36.233   5.647  10.191
53360W        W25785  25.919   2.150  14.438
53361W        W25786  22.208   0.026   1.091
53362W        W25787  37.264  20.004   2.334
53363W        W25788  22.687  23.012  11.563
53364W        W25789  19.023   2.538  14.354
53365W        W25790  29.447   3.800   2.403
53366W        W25791  39.291  44.730   2.320
53367W        W25792   1.442  31.657   4.211
53368W        W25793  34.101   8.420  13.583
53369W        W25794  33.434  27.224  13.707
53370W        W25795  38.552  44.410   3.696
53371W        W25796  26.457  26.634  14.268
53372W        W25797  37.983   5.956   4.237
53373W        W25798  26.029   4.212  13.464
53374W        W25799  28.029  39.906  13.798
53375W        W25800   2.433  17.616   3.328
53376W        W25801   2.860   3.990   2.704
53377W        W25802   0.494  26.157  10.638
53378W        W25803  39.319   7.778  12.360
53379W        W25804  27.421  30.934  13.953
53380W        W25805  40.085  20.658  11.582
53381W        W25806   3.202  24.384   3.145
53382W        W25807   4.997  30.784  12.965
53383W        W25808  42.447   8.471   0.849
53384W        W25809  10.644   8.347   2.183
53385W        W25810  41.833   6.375  13.454
53386W        W25811   1.362  33.157   1.444
53387W        W25812   9.791  28.191   3.284
53388W        W25813   9.961  31.566   1.272
53389W        W25814  42.098   9.928  11.001
53390W        W25815  36.637  31.047   1.201
53391W        W25816  36.826  24.684  12.966
53392W        W25817  19.306  32.128   0.418
53393W        W25818  39.555  43.128   3.097
53394W        W25819   3.222   4.390  11.149
53395W        W25820  12.299   6.323  13.172
53396W        W25821  40.886  13.093  12.086
53397W        W25822   4.384  13.621   0.841
53398W        W25823  23.168  34.510   2.383
53399W        W25824  10.504  33.995   3.725
53400W        W25825  33.399  29.914   2.249
53401W        W25826  26.490  18.861   0.475
53402W        W25827   0.260   4.345   4.136
53403W        W25828   0.264  35.502   3.758
53404W        W25829   4.997  42.784   2.965
53405W        W25830  21.870  15.186  10.921
53406W        W25831  20.146  12.896   2.785
53407W        W25832  26.634  39.028   1.379
53408W        W25833  11.119  39.510   3.967
53409W        W25834   2.516  38.764   0.395
53410W        W25835  21.915   5.785  11.117
53411W        W25836  42.388  33.577  12.555
53412W        W25837  15.596  20.292   1.825
53413W        W25838   8.214  43.054   0.346
53414W        W25839  43.496  14.211   0.659
53415W        W25840  40.541  23.239  10.621
53416W        W25841  13.795  17.767  14.343
53417W        W25842  37.356  25.610  13.757
53418W        W25843  38.943  38.235  14.927
53419W        W25844   1.560   3.974   0.724
53420W        W25845  26.140   4.979   4.071
53421W        W25846  33.442  40.791   4.462
53422W        W25847  36.412  41.865  13.511
53423W        W25848  33.821  26.524   2.174
53424W        W25849  28.501   7.591   1.645
53425W        W25850   0.663   8.327  13.820
53426W        W25851   3.188  12.212  14.362
53427W        W25852  23.051  38.339   2.305
53428W        W25853   4.136  37.197   3.200
53429W        W25854   6.913  22.390  14.400
53430W        W25855   2.518  21.172   0.830
53431W        W25856  37.262  39.336   1.319
53432W        W25857  32.146  37.951   0.197
53433W        W25858  23.986  15.643   3.696
53434W        W25859  18.041  10.330   0.908
53435W        W25860   8.212  25.733  11.533
53436W        W25861  36.551  22.426  13.907
53437W        W25862  20.020  36.261  14.977
53438W        W25863  25.152  16.695  13.022
53439W        W25864  18.297  39.059   2.643
53440W        W25865  19.908   9.249   4.118
53441W        W25866   4.278  22.052  13.383
53442W        W25867  41.850  27.230   1.978
53443W        W25868  36.762  35.133   4.044
53444W        W25869  14.632  25.919   0.831
53445W        W25870  18.247   9.377   3.600
53446W        W25871  15.792  30.129   0.209
53447W        W25872  37.107  36.562   3.266
53448W        W25873   5.567   8.178   3.213
53449W        W25874  10.387  25.199  13.885
53450W        W25875  39.121   7.696  14.155
53451W        W25876  38.660  42.885  14.931
53452W        W25877  37.483   2.161   3.824
53453W        W25878  35.095  11.502  11.997
53454W        W25879  32.045  29.520   2.433
53455W        W25880   3.363  16.911   2.206
53456W        W25881  40.423  30.599  11.108
53457W        W25882  21.350   7.902   1.784
53458W        W25883  39.768   8.265  11.165
53459W        W25884   5.270  35.776   0.259
53460W        W25885   1.214  25.665   0.985
53461W        W25886  20.607  30.902  14.357
53462W        W25887  44.796  35.764  10.952
53463W        W25888  41.578  16.639  11.146
53464W        W25889  30.500   3.137   0.645
53465W        W25890  30.421  43.286  12.467
53466W        W25891  11.280  22.760   1.865
53467W        W25892  39.873  41.942   0.893
53468W        W25893  43.810  34.768   0.747
53469W        W25894  22.644  36.003  12.561
53470W        W25895   1.884  28.974  14.474
53471W        W25896  27.068  16.350  13.936
53472W        W25897   3.784  40.306   0.747
53473W        W25898   4.144  19.017  13.390
53474W        W25899   2.694   9.648   0.672
53475W        W25900  38.776  31.996   4.623
53476W        W25901  27.756  39.449   3.239
53477W        W25902  42.384  35.052   0.720
53478W        W25903   4.441  11.063   3.524
53479W        W25904  30.739  37.110   4.322
53480W        W25905   7.662   4.342  10.882
53481W        W25906  34.081  42.009   3.424
53482W        W25907  12.609   5.528  11.110
53483W        W25908   0.308  29.140  12.922
53484W        W25909  39.833  22.605  11.338
53485W        W25910  44.243   7.993   0.291
53486W        W25911   2.816  19.998   1.295
53487W        W25912   5.406  43.352  11.199
53488W        W25913   6.683  32.437  14.803
53489W        W25914  15.306  33.400   1.864
53490W        W25915   7.164   9.188  13.917
53491W        W25916  35.579  19.998   1.718
53492W        W25917   2.352   5.402  14.957
53493W        W25918  27.670   4.174   1.125
53494W        W25919   6.160  24.801  12.839
53495W        W25920  32.422  40.990   1.435
53496W        W25921   1.562  21.713   1.857
53497W        W25922  24.666  30.462  14.986
53498W        W25923  44.207  10.788   4.215
53499W        W25924  31.726  17.031  12.469
53500W        W25925   7.662  18.175  13.885
53501W        W25926   3.561  16.559  10.480
53502W        W25927   6.140  26.166  12.225
53503W        W25928  17.705  39.801  11.598
53504W        W25929  24.246   8.678  14.001
53505W        W25930  43.704  15.841  14.507
53506W        W25931   5.002  28.716   1.721
53507W        W25932  22.595  21.639  11.406
53508W        W25933  25.284  12.314  10.789
53509W        W25934  26.656  13.792   2.661
53510W        W25935  34.065  32.102   4.280
53511W        W25936  27.032  13.051   1.775
53512W        W25937  21.881   1.855  12.194
53513W        W25938  24.612  32.865  13.049
53514W        W25939  18.570  31.440  12.395
53515W        W25940   7.688  42.059  12.166
53516W        W25941  29.556  18.503   2.313
53517W        W25942   2.182  24.611   1.163
53518W        W25943  22.735  39.630   0.299
53519W        W25944  37.362  27.960   3.191
53520W        W25945   9.315  40.262  11.958
53521W        W25946   3.827  43.408  14.459
53522W        W25947  18.590  41.010   4.577
53523W        W25948  14.520  27.908  11.566
53524W        W25949  30.889   4.379  14.312
53525W        W25950  10.218  22.177   5.224
53526W        W25951  35.400   4.891  11.171
53527W        W25952   2.873  19.327  13.486
53528W        W25953  27.122  29.581   0.782
53529W        W25954  25.890  33.189   0.397
53530W        W25955  25.051  18.761   0.357
53531W        W25956  23.101  10.575   3.134
53532W        W25957  11.166  44.532  12.828
53533W        W25958  13.779  25.135   0.073
53534W        W25959  38.903  21.030  13.865
53535W        W25960  31.497  40.985   1.381
53536W        W25961  10.257  29.546  11.481
53537W        W25962  18.028  11.144   4.082
53538W        W25963   9.910  23.691  14.545
53539W        W25964  36.125  30.795  10.697
53540W        W25965  17.338  35.334  13.447
53541W        W25966  42.440   6.125  14.063
53542W        W25967  37.112   5.504   0.289
53543W        W25968  16.475   0.067   3.275
53544W        W25969  22.434  24.756  14.422
53545W        W25970  13.133  41.081  11.532
53546W        W25971  24.012  11.197  13.636
53547W        W25972  33.360   3.662  12.974
53548W        W25973  19.454   5.235  12.365
53549W        W25974  33.325  12.318  13.407
53550W        W25975  37.958  12.161   0.731
53551W        W25976  30.413  34.809   2.388
53552W        W25977  11.252  10.193   1.714
53553W        W25978  18.189   1.325  13.904
53554W        W25979   3.838   7.916   0.798
53555W        W25980  41.655  26.189  13.821
53556W        W25981  26.880  35.409   3.174
53557W        W25982   7.511   5.704   0.603
53558W        W25983  25.511   5.239  11.523
53559W        W25984  11.557  13.760   0.199
53560W        W25985  29.691  17.143  12.491
53561W        W25986  28.405  38.186   0.072
53562W        W25987   6.281  36.552   4.384
53563W        W25988  39.968   6.740   3.418
53564W        W25989  11.861  34.454  14.806
53565W        W25990  26.528  43.825  12.618
53566W        W25991  23.756  22.801  13.450
53567W        W25992  12.673  43.975   1.498
53568W        W25993  13.843   5.220   0.996
53569W        W25994  43.241  43.932   4.637
53570W        W25995  44.969  23.523   0.276
53571W        W25996  30.364  44.006   1.781
53572W        W25997  44.799  41.956  10.663
53573W        W25998  21.733  20.074   3.185
53574W        W25999  27.917  33.170   2.400
53575W        W26000   4.093  11.249   0.569
53576W        W26001  23.620  31.474   0.329
53577W        W26002  41.153  24.039   1.666
53578W        W26003  10.650  20.544   1.707
53579W        W26004  32.512  42.878  12.978
53580W        W26005  38.508  15.036  11.826
53581W        W26006  31.628  38.460   2.991
53582W        W26007  17.786  14.081   2.625
53583W        W26008  13.712  16.625  13.014
53584W        W26009  22.688  44.548   1.690
53585W        W26010  38.645  18.971  13.484
53586W        W26011  13.707  32.807   1.051
53587W        W26012  22.031  21.096   4.658
53588W        W26013   4.403   4.326   1.243
53589W        W26014  44.702  19.528  10.790
53590W        W26015  37.416  12.282   0.415
53591W        W26016  32.892   8.284  12.565
53592W        W26017  31.228   7.800   1.251
53593W        W26018  24.867  42.097   1.808
53594W        W26019  22.040  15.391   2.765
53595W        W26020  22.702  26.099  10.043
53596W        W26021  43.414  31.105  12.848
53597W        W26022  29.452  35.801  11.069
53598W        W26023  38.761  27.120   3.085
53599W        W26024  44.957  41.109  13.992
53600W        W26025  31.626  36.064   4.161
53601W        W26026  19.842  35.121   2.810
53602W        W26027  13.236  33.925  11.138
53603W        W26028  14.105  44.907  13.003
53604W        W26029  16.800   9.667  14.044
53605W        W26030  43.765  43.110  12.429
53606W        W26031  41.268  40.514   0.394
53607W        W26032  19.557  24.499  13.063
53608W        W26033  36.071  11.818  10.710
53609W        W26034  17.170  42.289   3.680
53610W        W26035  34.141  33.325  12.328
53611W        W26036  37.119   3.831   0.764
53612W        W26037  14.314  21.456   0.904
53613W        W26038  19.535  33.954  12.142
53614W        W26039  39.891  24.059  10.767
53615W        W26040  44.422  29.665  14.685
53616W        W26041   5.323  31.598   4.120
53617W        W26042  23.339   2.965  11.124
53618W        W26043   3.258  26.452   0.474
53619W        W26044  44.304   4.353  14.407
53620W        W26045   0.630   5.262  13.433
53621W        W26046  39.019  14.066   0.372
53622W        W26047  44.718  13.174  11.176
53623W        W26048  15.267  31.647   1.395
53624W        W26049  42.481  32.236   2.183
53625W        W26050   2.739  12.617   4.457
53626W        W26051  23.743   9.038  14.915
53627W        W26052   6.574  34.501  13.991
53628W        W26053   4.677  37.323  14.801
53629W        W26054  29.152  33.006   2.749
53630W        W26055   4.199  39.544  13.082
53631W        W26056  27.736  38.028   1.385
53632W        W26057  11.848  11.883  10.693
53633W        W26058  25.118   5.687   4.056
53634W        W26059  43.451   2.880   3.036
53635W        W26060   7.249  15.417   1.200
53636W        W26061  18.534   7.978  11.371
53637W        W26062  40.994  29.205   4.661
53638W        W26063  31.994  26.716   3.693
53639W        W26064   7.676   2.954   3.755
53640W        W26065  26.732  12.015  13.532
53641W        W26066  41.177  38.572   3.077
53642W        W26067  44.362  28.860  11.807
53643W        W26068   6.316  28.424  12.966
53644W        W26069  19.476   1.802   2.020
53645W        W26070  31.967  19.984  13.372
53646W        W26071  30.619  10.480   0.883
53647W        W26072  30.015   1.992  12.986
53648W        W26073   8.121  26.730   5.084
53649W        W26074  40.084   5.681  11.960
53650W        W26075   0.437  25.704  13.804
53651W        W26076  44.865  15.473   1.044
53652W        W26077  34.619  16.561  13.450
53653W        W26078  44.399   1.578   1.607
53654W        W26079  41.963  30.276   1.767
53655W        W26080  41.750  38.495  13.807
53656W        W26081  36.464  27.492  10.716
53657W        W26082  13.577  35.916  14.921
53658W        W26083  20.374  15.178   4.092
53659W        W26084  23.060  42.540   2.141
53660W        W26085  38.822  25.761   2.222
53661W        W26086   4.296  15.154   4.090
53662W        W26087  32.451  31.674  13.454
53663W        W26088  35.472  43.573  12.592
53664W        W26089  27.846  19.494   4.837
53665W        W26090  38.897  39.296   4.270
53666W        W26091  23.062  23.061  14.773
53667W        W26092  42.335   7.446  12.841
53668W        W26093   1.816  13.267   2.810
53669W        W26094  43.747  30.527   2.432
53670W        W26095  31.946  26.969   4.219
53671W        W26096   9.951  30.360   2.769
53672W        W26097  27.012  37.232   2.233
53673W        W26098  17.237   4.550   1.870
53674W        W26099   0.871  27.711   0.857
53675W        W26100  43.547  15.316   1.305
53676W        W26101  29.120  25.672  14.392
53677W        W26102  18.254  13.654   1.495
53678W        W26103  26.429  17.035   0.778
53679W        W26104  15.687  15.112  11.716
53680W        W26105  20.692  40.587  14.891
53681W        W26106   7.811  33.130  11.782
53682W        W26107  28.616  19.638  13.064
53683W        W26108   2.353  17.006  12.070
53684W        W26109  25.190  18.932  11.203
53685W        W26110  44.265   8.401   0.844
53686W        W26111   3.132  12.249   0.296
53687W        W26112  26.084   9.406   2.399
53688W        W26113   3.388   9.526  10.679
53689W        W26114  15.682  41.682   0.907
53690W        W26115  28.576  33.403   4.098
53691W        W26116   3.350  39.691  13.929
53692W        W26117  36.061   9.468   1.714
53693W        W26118  13.119   1.783  12.960
53694W        W26119  29.276  32.296   1.891
53695W        W26120  40.209  30.410  11.559
53696W        W26121  24.092  32.466   2.984
53697W        W26122  42.013  11.887  13.027
53698W        W26123   5.727  37.981  12.110
53699W        W26124  24.671   0.185   4.610
53700W        W26125  15.626  23.534   0.380
53701W        W26126  13.284  43.289  12.212
53702W        W26127  22.573  29.829  11.475
53703W        W26128  31.069  33.361  14.878
53704W        W26129  13.376  12.506   0.330
53705W        W26130  23.002  17.294   0.812
53706W        W26131   9.238  26.580   3.808
53707W        W26132  18.594  10.413  12.470
53708W        W26133  37.667   8.422   3.672
53709W        W26134  41.968  31.077  14.495
53710W        W26135  44.844  11.921   1.459
53711W        W26136   5.130   1.027  12.136
53712W        W26137  15.188   6.208   2.761
53713W        W26138  41.376  17.756  13.448
53714W        W26139  33.637  22.572  14.853
53715W        W26140   0.497  34.383   2.679
53716W        W26141  11.713  24.777   3.735
53717W        W26142  23.425  42.844   1.822
53718W        W26143  23.764  11.462  14.480
53719W        W26144  25.425  13.150   0.777
53720W        W26145   2.851  41.316   1.806
53721W        W26146  40.832   9.146  11.038
53722W        W26147  37.762  28.728  11.306
53723W        W26148  33.616  28.381  12.441
53724W        W26149  18.113  44.926  14.054
53725W        W26150  43.324   9.066   2.887
53726W        W26151   9.428   5.423   4.137
53727W        W26152  21.610   1.816  13.978
53728W        W26153  24.089   3.971   1.385
53729W        W26154  30.162   2.645   2.733
53730W        W26155  30.093  25.906   1.330
53731W        W26156   3.008  26.072   0.841
53732W        W26157  19.846  24.144  13.929
53733W        W26158   4.763   3.290  10.251
53734W        W26159  22.796  36.538  11.124
53735W        W26160   0.250  36.319   1.638
53736W        W26161   8.472  20.133   4.590
53737W        W26162  40.122   1.519   4.844
53738W        W26163  26.014  30.015   3.229
53739W        W26164   7.666   9.353   3.619
53740W        W26165  13.927   5.103  10.052
53741W        W26166  21.259  30.849  11.671
53742W        W26167  23.004  11.283   1.792
53743W        W26168  43.857  12.853   4.309
53744W        W26169  26.946  13.086  12.603
53745W        W26170  29.126   3.960   4.645
53746W        W26171   0.423   5.657   2.923
53747W        W26172  26.450  30.866   3.548
53748W        W26173  19.042   1.505   1.856
53749W        W26174  40.406  40.289   3.254
53750W        W26175  14.833  34.355  12.345
53751W        W26176  16.209  44.960  14.910
53752W        W26177   4.238  43.151  14.281
53753W        W26178  40.557  25.978   1.159
53754W        W26179  37.176  18.983  14.819
53755W        W26180   5.423  35.397   3.785
53756W        W26181  18.511  38.412   0.019
53757W        W26182  20.686  14.838  14.476
53758W        W26183  12.696   8.186   4.642
53759W        W26184  19.263   5.932  10.787
53760W        W26185  18.604  40.880  14.484
53761W        W26186  33.957  39.112  14.385
53762W        W26187  23.642  19.068   2.737
53763W        W26188  31.630  28.631   0.279
53764W        W26189   1.918  10.422  11.961
53765W        W26190   4.409  39.114   2.593
53766W        W26191  25.125  13.745  14.974
53767W        W26192  21.269  19.934  13.530
53768W        W26193  23.836   0.001   1.058
53769W        W26194  12.327   9.046   0.753
53770W        W26195  42.683  33.594  12.969
53771W        W26196  28.565   4.882  11.040
53772W        W26197  16.637  18.228  12.891
53773W        W26198  42.374  16.032  12.240
53774W        W26199  34.575  38.439   0.766
53775W        W26200  27.151   1.463   0.946
53776W        W26201  41.729  37.942  13.499
53777W        W26202  21.326  29.456  12.008
53778W        W26203  33.778  43.773   0.860
53779W        W26204  10.752  41.287   3.168
53780W        W26205  24.394  35.986   4.013
53781W        W26206  41.066  43.022   3.626
53782W        W26207  40.537  18.032  13.972
53783W        W26208   3.017  24.879   3.233
53784W        W26209  19.179  19.029  11.036
53785W        W26210  14.631   0.364   2.709
53786W        W26211  16.013  27.964  13.530
53787W        W26212  11.730  35.358  11.674
53788W        W26213  44.888   2.695   4.016
53789W        W26214  18.112  26.517   2.887
53790W        W26215  30.884   9.302   0.850
53791W        W26216  12.151   9.401  10.661
53792W        W26217   0.736  36.391  12.521
53793W        W26218  29.263  29.375   1.823
53794W        W26219  29.143  32.177  14.417
53795W        W26220  30.561  40.584  13.955
53796W        W26221  38.473  30.548   3.133
53797W        W26222  31.324  41.627  10.228
53798W        W26223  33.945  15.647   0.589
53799W        W26224   2.188  31.763  12.945
53800W        W26225  20.381  32.317   2.748
53801W        W26226  36.145  19.042  14.895
53802W        W26227   2.353  22.580   4.852
53803W        W26228   6.897  37.749   4.299
53804W        W26229  29.120   1.163   1.266
53805W        W26230   9.896  20.067  13.965
53806W        W26231  14.069  30.030   1.809
53807W        W26232   2.419   4.830   2.682
53808W        W26233  24.124  17.349  12.092
53809W        W26234  13.093  28.113   0.793
53810W        W26235  18.919   5.371   3.625
53811W        W26236  12.037  10.645   1.538
53812W        W26237  33.428  43.181  10.902
53813W        W26238  14.751  19.783   5.096
53814W        W26239  28.652  42.805   4.233
53815W        W26240  20.180   2.397   0.783
53816W        W26241  13.813  37.294  13.412
53817W        W26242  26.124  35.108  10.552
53818W        W26243  40.336  21.811   0.933
53819W        W26244  10.312   6.619   2.548
53820W        W26245  26.589  20.304   3.702
53821W        W26246  32.194  42.488   3.620
53822W        W26247  22.749  21.767  14.306
53823W        W26248   0.031  32.960   2.688
53824W        W26249  38.572   4.795   2.271
53825W        W26250  37.572  10.777  10.492
53826W        W26251  38.801   9.752  10.693
53827W        W26252  10.196  34.626  12.852
53828W        W26253   8.389  23.835   3.403
53829W        W26254  22.708  28.223  13.495
53830W        W26255  22.167  40.307   1.696
53831W        W26256  24.562  39.302   4.766
53832W        W26257  32.684   5.335   0.948
53833W        W26258  19.161  15.030  10.622
53834W        W26259  40.320   2.236  12.022
53835W        W26260  12.295   8.150   1.038
53836W        W26261  15.917  37.960  14.893
53837W        W26262  35.466  43.327  14.753
53838W        W26263  27.297  35.486   3.633
53839W        W26264  24.499  10.175  14.971
53840W        W26265   0.083  17.554   0.107
53841W        W26266  31.856   0.313  12.986
53842W        W26267  43.788  17.381   4.233
53843W        W26268   9.678  26.538   1.730
53844W        W26269  30.000  40.304  14.270
53845W        W26270   1.407  33.823   2.836
53846W        W26271  13.846  11.092   2.370
53847W        W26272  22.612   0.386  14.258
53848W        W26273  23.296  39.998  13.298
53849W        W26274   1.216   9.672  11.181
53850W        W26275  24.147  44.438   4.466
53851W        W26276  27.518  10.314   9.799
53852W        W26277  42.405   9.576  12.622
53853W        W26278  15.701  15.827   1.877
53854W        W26279  34.471  27.143   3.695
53855W        W26280   2.642  40.231   0.509
53856W        W26281  35.150  28.561   3.907
53857W        W26282  23.890  22.665   0.849
53858W        W26283  21.161  16.692   0.513
53859W        W26284  19.202  20.211   3.095
53860W        W26285   2.441  25.821   3.202
53861W        W26286   5.254  21.066   5.003
53862W        W26287   2.178   3.332   0.226
53863W        W26288  40.055  31.611   4.789
53864W        W26289   3.837  32.852   4.534
53865W        W26290  35.945  30.707   2.170
53866W        W26291  12.835  30.032   2.590
53867W        W26292   3.177  15.720   4.554
53868W        W26293   0.449  33.141   4.368
53869W        W26294  19.714  26.920  10.469
53870W        W26295  42.106   3.450  13.424
53871W        W26296  33.577  31.892   2.162
53872W        W26297  41.296  11.228  13.904
53873W        W26298  40.799  44.297   4.111
53874W        W26299  35.295  28.460   2.757
53875W        W26300   5.327  40.786  10.692
53876W        W26301   3.264  43.938   0.892
53877W        W26302  17.214  32.835   0.008
53878W        W26303  31.030  29.152  12.378
53879W        W26304  19.493  34.519  13.578
53880W        W26305  19.509  30.422   4.544
53881W        W26306  15.623   4.794   1.140
53882W        W26307  42.281  40.364   2.841
53883W        W26308   3.154  37.494   3.376
53884W        W26309  43.768  25.714   1.244
53885W        W26310   2.481  21.642  13.395
53886W        W26311  42.505  24.601   1.309
53887W        W26312  33.282  15.057   1.854
53888W        W26313  39.021  21.250  11.136
53889W        W26314  10.935  10.106   0.315
53890W        W26315  28.760  44.763   3.255
53891W        W26316  28.894   6.699   4.130
53892W        W26317  10.406  28.900  10.680
53893W        W26318  33.509  37.349  11.985
53894W        W26319  25.149  44.462   0.514
53895W        W26320   3.211  13.733  10.644
53896W        W26321  19.035  19.211   0.382
53897W        W26322  13.316  20.665   2.602
53898W        W26323  33.715  14.103   1.756
53899W        W26324  39.070  27.946   4.820
53900W        W26325  44.853  20.339   4.746
53901W        W26326  13.702  18.323  13.477
53902W        W26327  16.344  19.219   4.289
53903W        W26328  36.878  33.985  11.607
53904W        W26329  23.617   1.472  10.688
53905W        W26330  14.947  43.812   3.583
53906W        W26331  39.109  21.608   4.273
53907W        W26332  12.395  32.718   3.222
53908W        W26333   2.830   4.538  10.329
53909W        W26334   4.439   3.330   0.704
53910W        W26335  12.728   4.514  14.376
53911W        W26336  34.950   8.419   3.871
53912W        W26337  43.786  44.340  12.043
53913W        W26338  32.582   6.332   4.551
53914W        W26339  43.420  11.933  11.077
53915W        W26340  26.758  14.651  10.990
53916W        W26341   6.671  35.573  11.988
53917W        W26342  10.255   8.081   4.139
53918W        W26343  33.517   2.187  14.855
53919W        W26344   7.615  20.134  10.895
53920W        W26345  43.389  10.142  13.958
53921W        W26346  29.880  14.054  12.488
53922W        W26347  29.162  41.405   9.739
53923W        W26348  42.941  29.064  10.711
53924W        W26349  13.389   8.653   3.249
53925W        W26350   0.727   0.511   1.386
53926W        W26351  28.576  15.984   0.948
53927W        W26352  11.306  36.294  10.562
53928W        W26353  42.075  44.807   1.888
53929W        W26354  27.137   7.270  14.858
53930W        W26355  44.044  39.552   1.815
53931W        W26356  34.574   7.738   0.201
53932W        W26357  18.305   8.558   3.069
53933W        W26358   4.413  10.942  13.811
53934W        W26359  27.815  27.953  14.979
53935W        W26360  22.538  35.023  10.196
53936W        W26361   6.804  41.308  12.143
53937W        W26362  32.080   1.732   3.729
53938W        W26363  21.470  27.600  10.796
53939W        W26364  29.451   3.896   2.890
53940W        W26365   6.447  15.993   1.184
53941W        W26366   9.640  20.585  12.249
53942W        W26367  28.968   3.878  14.079
53943W        W26368  27.163  22.397  14.700
53944W        W26369  21.178   9.107   3.731
53945W        W26370  24.191  32.668  13.905
53946W        W26371  22.042  35.405  10.495
53947W        W26372   8.150  44.929   4.838
53948W        W26373  37.063  29.386  14.736
53949W        W26374  16.208  43.368  10.733
53950W        W26375   6.417  39.729  14.819
53951W        W26376  22.167   9.197  11.048
53952W        W26377   9.294  10.902  11.591
53953W        W26378  21.214  37.858   3.401
53954W        W26379  15.510   5.419   0.364
53955W        W26380   1.359  22.677   0.888
53956W        W26381  30.496  44.849  11.963
53957W        W26382  37.589  22.768   3.322
53958W        W26383  33.450   2.345  13.324
53959W        W26384  16.600   0.297  13.957
53960W        W26385  37.573   0.462   3.843
53961W        W26386  35.552   9.469  10.325
53962W        W26387   1.497  22.112  10.568
53963W        W26388  35.444   4.138   0.851
53964W        W26389  38.939  25.152   1.152
53965W        W26390  18.781   3.934  13.851
53966W        W26391  36.305  37.404   3.792
53967W        W26392  17.030  39.667   0.022
53968W        W26393   1.774   7.369  12.421
53969W        W26394  10.614  44.755  12.948
53970W        W26395  14.132  15.827  11.476
53971W        W26396  41.448  28.606  14.371
53972W        W26397   5.225  20.599   4.735
53973W        W26398  41.797  31.646  11.947
53974W        W26399  29.692  12.251   4.409
53975W        W26400  16.809  38.978   0.786
53976W        W26401  23.155  24.073  13.289
53977W        W26402  43.481  44.485  14.200
53978W        W26403   7.435   6.345  11.580
53979W        W26404  26.386   9.802   0.282
53980W        W26405  14.308  14.336   3.398
53981W        W26406  32.157   4.642   1.301
53982W        W26407  15.526  14.627  14.453
53983W        W26408  35.490  16.295   4.566
53984W        W26409  37.880  28.504  10.833
53985W        W26410  37.060  11.670   1.558
53986W        W26411  32.438  42.295  10.797
53987W        W26412   7.222  11.899   0.276
53988W        W26413  26.155  20.185  11.435
53989W        W26414  10.696  25.604  13.737
53990W        W26415  30.031  17.033   4.268
53991W        W26416  12.508  18.094  10.586
53992W        W26417  41.390   9.669   0.365
53993W        W26418  36.489  32.526  14.818
53994W        W26419  44.812  31.111   9.841
53995W        W26420   2.559  39.807  13.666
53996W        W26421  35.423   5.179  10.735
53997W        W26422  11.826  30.081   4.904
53998W        W26423   3.395  17.458  14.015
53999W        W26424  32.295  26.525  12.052
54000W        W26425   7.917  23.249   4.085
54001W        W26426  27.637  20.903  10.664
54002W        W26427  14.282  13.721  14.195
54003W        W26428  29.963  13.032  10.600
54004W        W26429  27.054  31.542   2.714
54005W        W26430  31.172   3.984   4.221
54006W        W26431  33.527  22.582   0.702
54007W        W26432  17.168  26.764  12.605
54008W        W26433   1.851  34.644   0.625
54009W        W26434  35.971  27.082   2.311
54010W        W26435  31.090  11.722   0.408
54011W        W26436  12.747  23.472   2.945
54012W        W26437   7.673   3.821  13.408
54013W        W26438  41.084  19.214   2.193
54014W        W26439  31.180  43.009   4.262
54015W        W26440  25.125   6.965  10.461
54016W        W26441  16.014   5.186   3.231
54017W        W26442  44.548   9.111  12.994
54018W        W26443   4.292  32.703   1.476
54019W        W26444  35.135   5.175  11.987
54020W        W26445  44.989  32.982   0.347
54021W        W26446  32.912  41.312  13.494
54022W        W26447   8.238  38.428  12.607
54023W        W26448  18.947  34.115  10.999
54024W        W26449   2.371  15.743  14.123
54025W        W26450  10.643  41.294  11.145
54026W        W26451  12.703  27.105   4.625
54027W        W26452  10.897  17.535   3.093
54028W        W26453   2.833  39.310   1.683
54029W        W26454  24.930  33.204   5.182
54030W        W26455  26.344  33.025   9.755
54031W        W26456  34.101  19.897   1.523
54032W        W26457  20.216  27.629  13.911
54033W        W26458  26.776  30.890  10.263
54034W        W26459  18.465  32.075  14.724
54035W        W26460  28.672  16.474  13.720
54036W        W26461   0.038  41.540  10.830
54037W        W26462  36.737   8.809   4.791
54038W        W26463  20.113   9.083  12.275
54039W        W26464   8.158  42.435   1.090
54040W        W26465  29.925  23.714   3.128
54041W        W26466  19.291  34.921  12.355
54042W        W26467   5.256  43.577  10.714
54043W        W26468  39.688  11.120  12.312
54044W        W26469   8.891   2.208  12.970
54045W        W26470   7.370   5.765   1.232
54046W        W26471  13.919   4.006   1.821
54047W        W26472   5.820  30.580  10.730
54048W        W26473  15.797   3.242  11.175
54049W        W26474  22.210  18.571   0.051
54050W        W26475   5.871  43.275  13.352
54051W        W26476   2.618  44.568  11.287
54052W        W26477   9.490  31.352  13.578
54053W        W26478  40.436  44.834   0.567
54054W        W26479  23.036   9.557   9.883
54055W        W26480  43.261  25.710   1.397
54056W        W26481   8.084  24.526  11.004
54057W        W26482  21.180  36.321   1.531
54058W        W26483  11.320  23.754  14.588
54059W        W26484   7.128  27.074  12.000
54060W        W26485   2.772  15.897   1.726
54061W        W26486  36.056  43.084  12.282
54062W        W26487  42.550   5.336   0.861
54063W        W26488  13.068  42.466   2.339
54064W        W26489  29.113  10.680  13.613
54065W        W26490  42.925  23.742  14.093
54066W        W26491  39.055  30.737  13.451
54067W        W26492  12.101  25.246   9.599
54068W        W26493  16.765  34.856   1.027
54069W        W26494  38.507  28.222  13.810
54070W        W26495  19.044   1.406  11.531
54071W        W26496  33.155  21.753   0.507
54072W        W26497  16.638   8.669   4.606
54073W        W26498  14.641   3.280   5.048
54074W        W26499  40.451  24.215   2.797
54075W        W26500  13.231  30.104  11.666
54076W        W26501  44.729  34.363  10.527
54077W        W26502  10.128  43.436  14.000
54078W        W26503  30.131  31.805  11.833
54079W        W26504  27.921  15.290  13.685
54080W        W26505  37.467   6.128  12.362
54081W        W26506  43.911  41.270   2.222
54082W        W26507  28.585  31.583  11.684
54083W        W26508  43.881   5.215  14.200
54084W        W26509  38.420  38.457   4.395
54085W        W26510  28.845  27.096  11.123
54086W        W26511   2.161  18.189   2.710
54087W        W26512  32.786  29.677   1.367
54088W        W26513   7.887  39.098  10.222
54089W        W26514  28.399  31.438   2.664
54090W        W26515  42.532  29.440  11.857
54091W        W26516  16.544  38.030   3.352
54092W        W26517  34.782   9.219  11.643
54093W        W26518  33.376  21.151   1.917
54094W        W26519   9.717   6.417   1.353
54095W        W26520   3.380   9.036   3.419
54096W        W26521  43.930   5.618   1.791
54097W        W26522  22.725  16.505  13.082
54098W        W26523  26.225  38.417   0.929
54099W        W26524  36.023  16.302   0.003
54100W        W26525   5.110  27.107  12.095
54101W        W26526   1.923  26.365  12.551
54102W        W26527  24.429  44.031   2.240
54103W        W26528  35.876   6.456  10.262
54104W        W26529  12.438  41.781   3.791
54105W        W26530  34.408  10.877   3.736
54106W        W26531   1.978  16.176  10.765
54107W        W26532  29.101  37.474  13.358
54108W        W26533  13.358  30.567   3.730
54109W        W26534  33.304   8.767  13.120
54110W        W26535   6.894  33.054  12.954
54111W        W26536  36.960  22.315   2.722
54112W        W26537  40.842  44.869  13.877
54113W        W26538   4.833  14.048  12.432
54114W        W26539  30.208   2.427   0.864
54115W        W26540  36.531   8.095  10.739
54116W        W26541  31.839   6.031  14.761
54117W        W26542  12.395  15.156   2.312
54118W        W26543  25.003  26.548   1.826
54119W        W26544  41.017  10.644   4.676
54120W        W26545   9.849   1.158  11.198
54121W        W26546  44.704  10.464   0.447
54122W        W26547  27.038  24.422   1.452
54123W        W26548  13.857   2.495  13.893
54124W        W26549   5.870  43.814  12.464
54125W        W26550  24.593  44.870  10.435
54126W        W26551  17.028  16.256  13.013
54127W        W26552  41.818  31.671   1.863
54128W        W26553  40.372   8.888  13.316
54129W        W26554  44.931  11.444   1.343
54130W        W26555   4.895   1.425  10.450
54131W        W26556  11.212  14.882   4.375
54132W        W26557  21.298  13.136   0.967
54133W        W26558  44.787  18.428   1.991
54134W        W26559  41.899  24.195  12.515
54135W        W26560   0.236   5.045  13.730
54136W        W26561  43.448   5.711  13.980
54137W        W26562  42.919  28.007  10.856
54138W        W26563  38.615  13.887  13.541
54139W        W26564   0.769  13.796   0.746
54140W        W26565  41.291  31.951   3.924
54141W        W26566   0.298  15.199   3.751
54142W        W26567  21.267  21.282  13.381
54143W        W26568  43.422  23.705  13.299
54144W        W26569  15.159  13.390  14.049
54145W        W26570  35.430   8.945   0.327
54146W        W26571  38.967  42.581   0.447
54147W        W26572  24.500  19.127  12.502
54148W        W26573  12.058   3.077   1.204
54149W        W26574   8.233  36.702  14.802
54150W        W26575  19.526  25.457  14.377
54151W        W26576   2.194  34.198   2.413
54152W        W26577  28.198   1.701  13.084
54153W        W26578   2.402  43.535  13.632
54154W        W26579  29.703  30.493   4.145
54155W        W26580  41.149  22.550   4.153
54156W        W26581  19.308  39.261  11.140
54157W        W26582  28.207  10.808   4.209
54158W        W26583  39.574  37.077  12.883
54159W        W26584  39.906   9.887   1.850
54160W        W26585  36.330  38.032  14.486
54161W        W26586  25.402  41.099   5.029
54162W        W26587  19.022  37.005   1.468
54163W        W26588  39.495  16.657   4.192
54164W        W26589  21.127  11.603  11.735
54165W        W26590  37.428   6.492  12.722
54166W        W26591   5.386  24.577   1.499
54167W        W26592  35.020  36.665   4.001
54168W        W26593   0.709  26.303   4.342
54169W        W26594  41.175   0.451  14.715
54170W        W26595  31.637  44.488  11.101
54171W        W26596  42.977  28.984   0.377
54172W        W26597  11.071  11.158  14.398
54173W        W26598   9.849  44.662  11.155
54174W        W26599  29.062  21.166  13.793
54175W        W26600  30.473  31.887   9.930
54176W        W26601  15.554  36.879   1.663
54177W        W26602  36.980  42.163   0.188
54178W        W26603  16.682  16.857   1.795
54179W        W26604  11.388  36.823  11.596
54180W        W26605  12.851  23.227   1.028
54181W        W26606  35.347   4.509  13.575
54182W        W26607  10.279  26.616  12.429
54183W        W26608  19.634  15.115  11.085
54184W        W26609  43.806  34.414   4.445
54185W        W26610   0.514  27.625  12.010
54186W        W26611  11.048  15.652  10.805
54187W        W26612  18.460   4.712   0.692
54188W        W26613  43.915  28.051   0.272
54189W        W26614  21.334  18.305  11.175
54190W        W26615   2.941   9.224   1.453
54191W        W26616  21.257  34.532  12.145
54192W        W26617  23.966  21.548   4.119
54193W        W26618  35.371  10.625   1.665
54194W        W26619   4.006  21.858  10.818
54195W        W26620  27.461  24.143  11.098
54196W        W26621  27.212  37.394   2.706
54197W        W26622   5.486  34.784   3.634
54198W        W26623  11.221  35.932   0.795
54199W        W26624  27.000  18.784   2.394
54200W        W26625  13.700  39.848  13.862
54201W        W26626  35.785   4.275  13.740
54202W        W26627   3.149  11.765   3.143
54203W        W26628  17.769  22.457   2.185
54204W        W26629  15.486  36.548   0.798
54205W        W26630  32.999  22.226   1.850
54206W        W26631   7.257  28.125   0.426
54207W        W26632   4.294  22.157  10.461
54208W        W26633  35.331  29.719  10.530
54209W        W26634  17.661  35.382   0.767
54210W        W26635   6.857  37.232   4.360
54211W        W26636  21.602   9.117  14.972
54212W        W26637  25.218  12.795   0.425
54213W        W26638  15.376  31.176   0.338
54214W        W26639   5.120  25.085   2.639
54215W        W26640  29.127   9.583   2.735
54216W        W26641  33.629  28.901  14.647
54217W        W26642  17.261  11.878   1.537
54218W        W26643  27.923   5.090   1.113
54219W        W26644  18.853  29.486   0.219
54220W        W26645  38.448  29.948   1.817
54221W        W26646   7.352  14.395   4.262
54222W        W26647  44.772  36.141   1.384
54223W        W26648  31.002  35.621  14.942
54224W        W26649  29.218  16.517   3.294
54225W        W26650  31.689  43.905   1.276
54226W        W26651  35.982  18.521  14.470
54227W        W26652  37.086  35.999  12.942
54228W        W26653   5.115  27.951  10.031
54229W        W26654  28.490  26.751   1.221
54230W        W26655  21.572   7.513   3.258
54231W        W26656  20.298   7.330  10.693
54232W        W26657  20.003  30.529  13.423
54233W        W26658  14.543  10.120   4.322
54234W        W26659   6.461   7.288   3.109
54235W        W26660   3.989  30.405   4.504
54236W        W26661  34.466  32.224  12.056
54237W        W26662  30.790  37.992   4.205
54238W        W26663   6.367  38.104  14.796
54239W        W26664  38.375  43.964   0.994
54240W        W26665   1.252  17.020  13.426
54241W        W26666   1.700  19.585  11.536
54242W        W26667  41.568  24.073  12.896
54243W        W26668  26.571  38.776   4.859
54244W        W26669   0.563  26.992   0.704
54245W        W26670   8.398  16.660  13.325
54246W        W26671  28.576  18.112   3.343
54247W        W26672   3.811  22.491   1.292
54248W        W26673  42.805  24.445   2.186
54249W        W26674   3.254  30.149   4.075
54250W        W26675  34.253  38.419   2.756
54251W        W26676   9.168  33.139  14.823
54252W        W26677  27.893  38.721  13.313
54253W        W26678  16.127  15.738   1.412
54254W        W26679  10.826  41.849  11.057
54255W        W26680  23.179  37.471   0.071
54256W        W26681   7.117  14.631   2.219
54257W        W26682  20.988  12.598   2.291
54258W        W26683   6.630  44.974   2.374
54259W        W26684  37.770  24.215   1.844
54260W        W26685  39.942  28.106   4.310
54261W        W26686  39.971  37.546   1.419
54262W        W26687  31.635   5.210   1.868
54263W        W26688  16.389  32.502  13.203
54264W        W26689  12.695   1.832   3.191
54265W        W26690  24.507  11.483  11.674
54266W        W26691  11.644   8.142  11.068
54267W        W26692  21.810  26.659  10.700
54268W        W26693  42.218  12.054  11.057
54269W        W26694  43.443  24.444   2.835
54270W        W26695  31.679   4.803  13.524
54271W        W26696  35.229  16.081   5.019
54272W        W26697  37.546  38.514   3.334
54273W        W26698  38.696  15.643   2.757
54274W        W26699  15.245  40.765   0.937
54275W        W26700  19.925  30.765   1.694
54276W        W26701  40.949  26.975   0.799
54277W        W26702   3.716  31.451  12.428
54278W        W26703   0.601  34.417  10.356
54279W        W26704  10.756   1.906  14.330
54280W        W26705  20.126  16.282   3.177
54281W        W26706  44.473  16.325  13.324
54282W        W26707  21.992   1.644   4.140
54283W        W26708  30.914   3.259  12.964
54284W        W26709  30.978  43.102  13.867
54285W        W26710   9.612  37.618  13.994
54286W        W26711  25.269  41.414   0.961
54287W        W26712  17.319  32.074  13.155
54288W        W26713  43.161  35.770   5.047
54289W        W26714  16.544  19.328   0.320
54290W        W26715  31.041  43.715   3.736
54291W        W26716  27.621  20.475  11.139
54292W        W26717  18.575  39.392  13.055
54293W        W26718  34.131  13.241   3.128
54294W        W26719  27.982   5.726   1.722
54295W        W26720  12.064  17.295  11.507
54296W        W26721  24.504  38.022   0.902
54297W        W26722   9.665   0.193   0.477
54298W        W26723  11.562  15.831   4.619
54299W        W26724   3.015  32.761   2.733
54300W        W26725  10.626  32.961  12.212
54301W        W26726   0.381  44.868  11.501
54302W        W26727  30.370   7.267  11.175
54303W        W26728  33.117  29.687  12.461
54304W        W26729  20.692   6.942   4.917
54305W        W26730  35.871  25.199  11.193
54306W        W26731   5.169  37.605  13.333
54307W        W26732  34.893  12.347  12.823
54308W        W26733  42.365  27.283   2.223
54309W        W26734  25.222   8.718  13.361
54310W        W26735  25.650  44.337  12.862
54311W        W26736  33.003  16.089   4.120
54312W        W26737  36.434  10.675   3.272
54313W        W26738  20.194  27.833   3.788
54314W        W26739  28.576   1.941   1.363
54315W        W26740  23.264  24.638   4.093
54316W        W26741   4.211  35.047   4.188
54317W        W26742  41.067  34.751  13.305
54318W        W26743  36.071  14.876  13.419
54319W        W26744  16.090  44.422  13.325
54320W        W26745  25.684   8.478  11.273
54321W        W26746  37.136  42.987  14.107
54322W        W26747  12.616  42.522   0.445
54323W        W26748  22.739  43.249  12.609
54324W        W26749  38.448  26.465  12.020
54325W        W26750  27.631  31.832  14.558
54326W        W26751  16.176  12.856   3.840
54327W        W26752  17.231  35.596   9.958
54328W        W26753  44.516  16.038  12.879
54329W        W26754  35.807  23.579  11.403
54330W        W26755  35.919  39.897  14.591
54331W        W26756  17.034   1.933  13.786
54332W        W26757  41.051  35.283  13.345
54333W        W26758  12.409  12.031  11.155
54334W        W26759  33.477  42.364   4.464
54335W        W26760  43.571  14.629  12.337
54336W        W26761  12.093  26.871  12.992
54337W        W26762  24.517  11.660  10.026
54338W        W26763  32.393  43.232   1.935
54339W        W26764   2.066  15.471  14.443
54340W        W26765   4.507   1.729  10.229
54341W        W26766  23.464  26.666  10.449
54342W        W26767  34.716   9.788   4.559
54343W        W26768  14.926  28.961   2.776
54344W        W26769  33.640  13.030  13.788
54345W        W26770  41.366  33.203   0.971
54346W        W26771  18.578   3.268  12.596
54347W        W26772  20.836   7.792  14.473
54348W        W26773  24.678  35.491  12.483
54349W        W26774  22.167  30.450   4.578
54350W        W26775  44.343  20.862   1.341
54351W        W26776  30.224  28.878   3.746
54352W        W26777  10.761  34.644   5.116
54353W        W26778  12.859  15.518  13.904
54354W        W26779   9.978  36.803   3.733
54355W        W26780  33.973  39.148   1.241
54356W        W26781   8.154  22.491  10.698
54357W        W26782   7.697  11.682   0.860
54358W        W26783  29.615  10.934   0.021
54359W        W26784   7.277   4.316  11.643
54360W        W26785  35.877   3.770   4.032
54361W        W26786  34.885  15.724  10.631
54362W        W26787   5.714  29.160   4.512
54363W        W26788  43.435   2.825   0.396
54364W        W26789  26.747  26.668  11.864
54365W        W26790  17.831  15.600  11.014
54366W        W26791  40.511   7.736  13.832
54367W        W26792   8.340  15.858   2.377
54368W        W26793   9.801  11.288   1.200
54369W        W26794   2.229  36.922  14.376
54370W        W26795  32.394  37.809   2.909
54371W        W26796   0.202  33.643   4.134
54372W        W26797  27.102  23.895  13.855
54373W        W26798   4.656  36.843   2.114
54374W        W26799  15.351  40.546   2.277
54375W        W26800  21.568  36.016   4.209
54376W        W26801  40.735  39.780  13.105
54377W        W26802  15.258   6.272  14.325
54378W        W26803  34.059  20.007  12.228
54379W        W26804  11.188  23.683   3.161
54380W        W26805  23.463  15.178   3.624
54381W        W26806  18.152  44.334  13.430
54382W        W26807  24.332  44.467   3.757
54383W        W26808   8.497  21.102  11.578
54384W        W26809   1.064  31.037  12.971
54385W        W26810  31.468  35.847   0.691
54386W        W26811  27.170  39.555  10.949
54387W        W26812  33.354  23.552   3.833
54388W        W26813  36.099  22.155  13.471
54389W        W26814   1.377  16.148   2.701
54390W        W26815  43.480  27.275  10.372
54391W        W26816  22.327   9.756   4.688
54392W        W26817   3.586  26.571   2.307
54393W        W26818  15.627  14.265  12.606
54394W        W26819  11.353  18.330   1.873
54395W        W26820   1.851  41.130   0.546
54396W        W26821  23.793  18.756   0.949
54397W        W26822  20.353  14.553   2.758
54398W        W26823  25.213  19.088   1.919
54399W        W26824   2.705   1.780   0.231
54400W        W26825  44.494  37.130   4.882
54401W        W26826  29.584  10.071   3.196
54402W        W26827  40.416  35.526  11.679
54403W        W26828  27.139  24.700  12.341
54404W        W26829  25.791  19.480  11.752
54405W        W26830  24.112  14.674   1.596
54406W        W26831  44.394  20.382  12.535
54407W        W26832  10.258  10.807   4.237
54408W        W26833  42.863   3.320  14.848
54409W        W26834  16.062  24.602  11.709
54410W        W26835  30.014  36.336  13.980
54411W        W26836  43.756  22.353  14.576
54412W        W26837  40.018  32.055  11.378
54413W        W26838   9.572  28.671  13.237
54414W        W26839  25.316  41.214  13.073
54415W        W26840  28.192  42.072   1.467
54416W        W26841   8.109  31.010  13.327
54417W        W26842  44.440  38.882  11.081
54418W        W26843  37.279  19.951   5.057
54419W        W26844   5.642  33.458  14.375
54420W        W26845  33.583  15.370  14.848
54421W        W26846  12.293   0.495  12.875
54422W        W26847  34.652  14.673  12.463
54423W        W26848  18.055   9.779  12.156
54424W        W26849  28.709  44.709  11.725
54425W        W26850  11.100  38.365  14.670
54426W        W26851  31.730  44.385   1.801
54427W        W26852   6.202  22.928   2.679
54428W        W26853  16.020  25.600  12.947
54429W        W26854   1.869  18.401   0.258
54430W        W26855  35.861  29.009  11.089
54431W        W26856  16.232  39.492   4.259
54432W        W26857  12.138  38.426  11.128
54433W        W26858  36.592  29.975  14.567
54434W        W26859  44.864  37.366  10.696
54435W        W26860  39.413  20.274  14.056
54436W        W26861  36.745  22.459  12.900
54437W        W26862   2.325  29.057  12.902
54438W        W26863   7.828   2.822   1.301
54439W        W26864   4.655  33.498  11.595
54440W        W26865   0.425  18.296  13.762
54441W        W26866   4.732  36.136   2.788
54442W        W26867  25.067   4.677   1.874
54443W        W26868  23.970  35.014  12.510
54444W        W26869  19.425   0.830  14.881
54445W        W26870  22.037  15.628   4.540
54446W        W26871  22.592  18.210   4.129
54447W        W26872  14.740   2.222  12.539
54448W        W26873   1.697   3.486  13.492
54449W        W26874  15.767   5.517  14.074
54450W        W26875  32.501  39.810  12.082
54451W        W26876  26.418  28.283   2.782
54452W        W26877  18.700  15.561  11.257
54453W        W26878  23.832  21.713   0.884
54454W        W26879  39.670  31.970  10.544
54455W        W26880   3.221  33.850  13.062
54456W        W26881  34.211  33.057  14.346
54457W        W26882  13.784  16.471   4.180
54458W        W26883  32.486  31.183   2.334
54459W        W26884   1.154  40.016  11.578
54460W        W26885   9.133   7.302  12.043
54461W        W26886  41.371  32.430  13.922
54462W        W26887  30.461  12.071  13.747
54463W        W26888  15.043  13.358  11.607
54464W        W26889  30.234  38.470  14.089
54465W        W26890  22.069  24.557   4.658
54466W        W26891  37.315   0.729   3.049
54467W        W26892   9.787   4.496  14.001
54468W        W26893   6.303  41.230  14.794
54469W        W26894  29.495   7.937  11.540
54470W        W26895  37.504   4.730  11.849
54471W        W26896  32.702  13.204  11.648
54472W        W26897   6.400  40.693   0.811
54473W        W26898  19.235  30.206  14.117
54474W        W26899  13.655  27.667  13.628
54475W        W26900  35.395  32.299   0.341
54476W        W26901   7.217  13.757  12.698
54477W        W26902  24.556  44.563  12.621
54478W        W26903  35.549  33.549  14.238
54479W        W26904  27.975   6.492   4.214
54480W        W26905  19.201  25.026  13.613
54481W        W26906  43.340  39.045   4.520
54482W        W26907  43.350  33.365  14.707
54483W        W26908  26.733   1.897   4.941
54484W        W26909  36.839  11.422  13.053
54485W        W26910  21.243  25.848  12.019
54486W        W26911   3.522  29.604   0.345
54487W        W26912  38.579  22.916   1.731
54488W        W26913   6.866   5.270  11.072
54489W        W26914  32.793  26.488  11.930
54490W        W26915   5.344  35.453   4.833
54491W        W26916  22.025  19.586  10.719
54492W        W26917  34.813   1.962   4.709
54493W        W26918  24.382  22.696   0.772
54494W        W26919  43.886  24.450  10.697
54495W        W26920   0.439  43.460   1.734
54496W        W26921  22.354  41.785   3.673
54497W        W26922  13.416   1.938  12.535
54498W        W26923  17.937  28.534  10.639
54499W        W26924   2.120  21.555  13.036
54500W        W26925   6.009  36.864  14.443
54501W        W26926  44.383  22.302   2.843
54502W        W26927  25.510  22.004  13.385
54503W        W26928  32.190  43.013  12.023
54504W        W26929  39.941  32.895  14.389
54505W        W26930  16.792  20.719   1.902
54506W        W26931  30.148   9.149  12.697
54507W        W26932  37.932  24.259   4.086
54508W        W26933  23.749  21.033  12.936
54509W        W26934  22.339  16.544  13.427
54510W        W26935  26.218  36.957   1.800
54511W        W26936  21.773  36.459  12.881
54512W        W26937  22.703  28.938  11.171
54513W        W26938  26.077  28.425   4.155
54514W        W26939  26.940   0.251  13.697
54515W        W26940  14.840   8.751  13.895
54516W        W26941  30.037   5.837   3.159
54517W        W26942  20.947  13.336  11.429
54518W        W26943   7.147  13.679   4.072
54519W        W26944  31.269  39.877  10.561
54520W        W26945  19.001   5.008  10.483
54521W        W26946   0.756  31.156   4.761
54522W        W26947   1.234   9.873   0.904
54523W        W26948  35.662  16.649  10.820
54524W        W26949  27.262   8.860   0.403
54525W        W26950  35.826  38.122  14.521
54526W        W26951  44.843  28.389  13.877
54527W        W26952  41.578   5.917  13.554
54528W        W26953  35.875   9.826  13.071
54529W        W26954  39.980   2.875   0.884
54530W        W26955   5.839  36.872   3.217
54531W        W26956  43.060  37.389  11.573
54532W        W26957  39.457  16.887   2.266
54533W        W26958  16.691  39.554  13.831
54534W        W26959  16.623  11.304  10.989
54535W        W26960   4.205  14.067   3.270
54536W        W26961  24.746  37.627  14.803
54537W        W26962  16.592  21.998  14.914
54538W        W26963  12.797  14.503   4.073
54539W        W26964   3.447  26.127   4.151
54540W        W26965  42.313  10.764   3.900
54541W        W26966   5.886  38.807   1.922
54542W        W26967  19.562   9.598  12.952
54543W        W26968  42.221  20.670   2.246
54544W        W26969  20.386  11.651  11.113
54545W        W26970   6.749  15.360   2.880
54546W        W26971  26.870  10.222   2.171
54547W        W26972   6.511  15.187  13.056
54548W        W26973  43.828  43.736  13.057
54549W        W26974  24.997  36.510   0.780
54550W        W26975  34.139   9.629  13.463
54551W        W26976  30.146  39.596  11.414
54552W        W26977  38.501  32.112   1.662
54553W        W26978   5.229  27.874   0.854
54554W        W26979   3.724   8.364  14.953
54555W        W26980  16.981  44.770  12.605
54556W        W26981  23.651   9.611  14.862
54557W        W26982  12.423  36.570   0.426
54558W        W26983   9.862  30.156  10.695
54559W        W26984  18.029  33.067   5.517
54560W        W26985  40.160  25.120  13.906
54561W        W26986  39.439   3.371   0.086
54562W        W26987  18.480  20.104   2.400
54563W        W26988  35.385  36.031   1.636
54564W        W26989   2.169  34.660   2.153
54565W        W26990   4.931  31.334   3.858
54566W        W26991  32.447  20.981  10.231
54567W        W26992  18.802  21.877   3.230
54568W        W26993  34.380  16.346  11.152
54569W        W26994  43.937  11.135  13.049
54570W        W26995   5.464  43.976   2.204
54571W        W26996   0.043   5.004  11.020
54572W        W26997   4.497  17.528  11.186
54573W        W26998  37.476  34.440  11.115
54574W        W26999  34.901  36.259  12.807
54575W        W27000   7.982  38.427  12.147
54576W        W27001   1.401   0.006   1.003
54577W        W27002  44.422  16.035   2.188
54578W        W27003  43.038  37.368   0.873
54579W        W27004  40.775  19.612   2.267
54580W        W27005  38.555  13.156   4.194
54581W        W27006  36.996  36.381   2.777
54582W        W27007  26.309  26.710   3.912
54583W        W27008  43.955   4.535   3.589
54584W        W27009   2.474  27.586  10.938
54585W        W27010  28.217  22.688  10.633
54586W        W27011  34.981  30.606   1.043
54587W        W27012  41.991  25.544  14.852
54588W        W27013   0.106   2.397  11.839
54589W        W27014  34.195  21.096   0.030
54590W        W27015   8.090  27.794  10.428
54591W        W27016  39.956  27.209  11.485
54592W        W27017  14.075  32.412   2.988
54593W        W27018  37.927  44.911  11.696
54594W        W27019   8.716  20.600   1.410
54595W        W27020  42.466  37.142  10.739
54596W        W27021  42.006   8.452  11.685
54597W        W27022  38.724  33.102   4.628
54598W        W27023   6.764  11.768  12.399
54599W        W27024  21.550  27.482   1.424
54600W        W27025  22.553  30.163  10.570
54601W        W27026  44.815  25.199   1.942
54602W        W27027  42.678  20.338  14.433
54603W        W27028  22.284  40.229  13.240
54604W        W27029  19.474   9.862   4.113
54605W        W27030  36.414  22.857  12.955
54606W        W27031   3.796  16.770   1.925
54607W        W27032  33.924   9.686   3.404
54608W        W27033   8.256  15.502  14.453
54609W        W27034   2.878  38.276   0.436
54610W        W27035   5.983  22.766   9.913
54611W        W27036  26.764  44.598   5.246
54612W        W27037   0.292   9.840   3.742
54613W        W27038  39.952  26.947   3.752
54614W        W27039  34.704   3.862  14.522
54615W        W27040   7.825  39.965  11.962
54616W        W27041  30.153   8.189  13.144
54617W        W27042  36.447  21.466  10.632
54618W        W27043   9.299  12.906  13.996
54619W        W27044  13.239  43.788   2.201
54620W        W27045  38.841  33.038   0.780
54621W        W27046  37.809  19.600   3.716
54622W        W27047  26.551  28.418  11.411
54623W        W27048  35.957   7.345   1.550
54624W        W27049  37.618  41.903   3.864
54625W        W27050  15.077  27.684   3.852
54626W        W27051  29.943   2.229   3.614
54627W        W27052  30.167  39.113  11.657
54628W        W27053   3.280  19.733  11.174
54629W        W27054   4.404   9.113   1.765
54630W        W27055  27.684  17.192   2.806
54631W        W27056  41.198  17.035   0.762
54632W        W27057  19.960  34.848  14.855
54633W        W27058  42.743  19.821   4.048
54634W        W27059  11.865  26.964   1.904
54635W        W27060  33.050  24.188   2.224
54636W        W27061   3.992   8.619   4.163
54637W        W27062  25.478  39.548   0.760
54638W        W27063  41.423  23.170  12.912
54639W        W27064   9.349  25.111  12.188
54640W        W27065  31.223  40.020  14.523
54641W        W27066  18.060   9.187  12.424
54642W        W27067   4.307   0.838  12.321
54643W        W27068  21.796  20.947   4.209
54644W        W27069  34.280  26.065   0.262
54645W        W27070  18.191  25.111   3.272
54646W        W27071  43.357  17.512  10.666
54647W        W27072   1.956  22.521  11.386
54648W        W27073   5.151  29.860   1.915
54649W        W27074  12.621  21.199   2.152
54650W        W27075   9.846  16.341   0.380
54651W        W27076  17.077  35.590  13.043
54652W        W27077  18.927  30.386  11.398
54653W        W27078  34.902  44.703  13.972
54654W        W27079  32.873   6.272   1.587
54655W        W27080   2.067  30.042   4.994
54656W        W27081  32.471  29.248   3.607
54657W        W27082  27.820  35.520   1.603
54658W        W27083  44.381  30.012   3.135
54659W        W27084  11.136  18.752  12.185
54660W        W27085  22.272  34.176  11.437
54661W        W27086  11.377  34.566  14.066
54662W        W27087   9.328  17.051   1.324
54663W        W27088  17.140  17.034   1.950
54664W        W27089  39.858  40.564   0.452
54665W        W27090  41.829  13.109   1.360
54666W        W27091  32.710  36.011  11.766
54667W        W27092   2.414  17.625  14.141
54668W        W27093  13.766  20.276  11.580
54669W        W27094  15.843   7.508   4.238
54670W        W27095  11.292   2.862   3.580
54671W        W27096   9.456  20.679  14.016
54672W        W27097  38.811  30.064   4.875
54673W        W27098  25.678  19.720   3.192
54674W        W27099  15.720  38.993   1.016
54675W        W27100  34.953  43.838   4.670
54676W        W27101  32.615  23.714   0.247
54677W        W27102  27.647  26.842   4.563
54678W        W27103  11.338  36.262  13.285
54679W        W27104   1.458  26.304  13.866
54680W        W27105  32.017  39.608  11.985
54681W        W27106  12.678  41.537  14.323
54682W        W27107  23.255  13.952  11.085
54683W        W27108  37.552  11.798   1.773
54684W        W27109  39.048  15.813  12.196
54685W        W27110   1.806  22.655  11.869
54686W        W27111   5.869  41.379  13.741
54687W        W27112  38.123  28.712   3.121
54688W        W27113  23.027  41.843  14.923
54689W        W27114  24.127  10.270  10.633
54690W        W27115  27.881  10.792   4.612
54691W        W27116  12.464   2.677   5.008
54692W        W27117  28.858  29.532   2.599
54693W        W27118  35.162  32.349   2.851
54694W        W27119  32.526   1.224  10.914
54695W        W27120  33.571  10.071   3.282
54696W        W27121   4.502  34.021   1.880
54697W        W27122  16.626  21.286   2.741
54698W        W27123  24.111  33.142   4.588
54699W        W27124   5.699  12.153  11.569
54700W        W27125  23.686  18.159  14.330
54701W        W27126  17.642  16.603  11.939
54702W        W27127  25.479  23.638  12.815
54703W        W27128  39.027   4.630   2.048
54704W        W27129  14.176  19.300   2.847
54705W        W27130  41.825   1.220   1.710
54706W        W27131   7.774  26.558  13.934
54707W        W27132  42.273  16.483   1.832
54708W        W27133  11.182   6.755  13.792
54709W        W27134  29.528  19.590   3.148
54710W        W27135  21.221  11.220   0.212
54711W        W27136   5.310  37.960  12.941
54712W        W27137  35.321   1.263   0.862
54713W        W27138  25.609  20.878  11.116
54714W        W27139  34.026   3.753  14.732
54715W        W27140  34.991  40.720  13.145
54716W        W27141   3.813  20.502   1.252
54717W        W27142   5.403   8.087   1.303
54718W        W27143  39.576  22.607   3.397
54719W        W27144  18.655  11.847   3.271
54720W        W27145  39.727  22.180   2.239
54721W        W27146  16.200   5.706   3.211
54722W        W27147   0.457   6.893  12.943
54723W        W27148   5.898  24.304  14.381
54724W        W27149  10.138  17.102   2.691
54725W        W27150   6.640  10.243  14.725
54726W        W27151  30.482  23.964  14.785
54727W        W27152  19.662   3.509   4.105
54728W        W27153   7.103  32.031  10.972
54729W        W27154   9.310   0.406  10.995
54730W        W27155  19.930  34.017   0.851
54731W        W27156  28.287   9.788  13.753
54732W        W27157  22.082  14.694   4.573
54733W        W27158   4.829  25.053  11.751
54734W        W27159  33.475  43.047   4.766
54735W        W27160  11.241  31.947   3.353
54736W        W27161  13.856  30.554  13.508
54737W        W27162  44.261  20.318   3.728
54738W        W27163  13.588  31.237   4.109
54739W        W27164  12.881  26.401  14.938
54740W        W27165  23.011  15.607   3.649
54741W        W27166  28.466  27.429  11.214
54742W        W27167  30.493  21.996   2.842
54743W        W27168   1.999   6.233   0.699
54744W        W27169   1.417  35.846   1.449
54745W        W27170  14.037   6.190  14.690
54746W        W27171   0.507  10.683   3.234
54747W        W27172   1.664   1.782  13.030
54748W        W27173  34.540  34.035  12.654
54749W        W27174   6.665  29.152  11.637
54750W        W27175  37.059  10.797  14.471
54751W        W27176  31.629  17.108  14.371
54752W        W27177  20.417  20.896  14.066
54753W        W27178  26.682  26.612   0.218
54754W        W27179   5.266  37.368   2.719
54755W        W27180  33.932  42.250   4.713
54756W        W27181  26.926   3.248  11.459
54757W        W27182  36.722  26.735  13.861
54758W        W27183  39.765  41.457   0.216
54759W        W27184  16.730  15.885  10.133
54760W        W27185   9.263  35.724   3.287
54761W        W27186  20.767  26.340  12.427
54762W        W27187  34.614  33.391   1.014
54763W        W27188   4.915  27.582  12.122
54764W        W27189   2.762  33.027   2.385
54765W        W27190  44.840  15.182   2.491
54766W        W27191  14.383  33.539  13.302
54767W        W27192  15.238  17.626  13.012
54768W        W27193  10.392   2.501  12.860
54769W        W27194  34.014  29.565  14.319
54770W        W27195  36.641  22.791  14.236
54771W        W27196  41.702  37.976  12.528
54772W        W27197   5.180  44.722   4.680
54773W        W27198   2.517  34.031   4.138
54774W        W27199  25.610  23.752   0.889
54775W        W27200  21.152  10.961   4.241
54776W        W27201   9.662  35.662   0.500
54777W        W27202   5.218  38.785  14.965
54778W        W27203   8.262  10.259   0.380
54779W        W27204  10.756  12.359   2.802
54780W        W27205  30.992  11.363   2.653
54781W        W27206  12.221  30.874  13.779
54782W        W27207  37.497  41.964  10.672
54783W        W27208  23.252  22.706   2.789
54784W        W27209  21.563  38.132   3.084
54785W        W27210   0.611  10.060   0.097
54786W        W27211  14.812  30.700  11.575
54787W        W27212  35.513  10.486  10.491
54788W        W27213  34.006  27.172   2.347
54789W        W27214   1.192   7.984   2.656
54790W        W27215  25.445  13.819   4.704
54791W        W27216  40.066  24.093   4.858
54792W        W27217  38.021  18.139   2.321
54793W        W27218  43.838  44.924  12.376
54794W        W27219  15.336  39.400   4.594
54795W        W27220  27.020  16.334  10.655
54796W        W27221  30.632  24.480   2.349
54797W        W27222   2.930   5.413  12.397
54798W        W27223  32.569  12.664   1.419
54799W        W27224  15.601  22.322   2.839
54800W        W27225  42.235  38.933   1.409
54801W        W27226   5.711   8.926   2.903
54802W        W27227  17.897  26.236   3.765
54803W        W27228   4.817  27.035   2.729
54804W        W27229  21.642  35.547  13.322
54805W        W27230   1.257   6.854   2.759
54806W        W27231  21.745  42.115  12.323
54807W        W27232  13.337  12.363   2.909
54808W        W27233  22.753  41.339   2.482
54809W        W27234  35.933  24.194  12.992
54810W        W27235   1.539  40.300   0.522
54811W        W27236  34.194  27.632  11.557
54812W        W27237  17.132   3.758   2.640
54813W        W27238  43.097   4.138   4.123
54814W        W27239  34.521  27.874  12.502
54815W        W27240  18.062  17.242  14.060
54816W        W27241  12.035  44.049   2.012
54817W        W27242  40.093  34.342  12.045
54818W        W27243  44.956   9.244   0.022
54819W        W27244  44.398  40.386  14.964
54820W        W27245  26.675   4.704  13.033
54821W        W27246   8.947   7.716  12.889
54822W        W27247   2.872  40.885  14.333
54823W        W27248  41.134   7.466   2.702
54824W        W27249   3.879  25.371   4.158
54825W        W27250  18.500  30.418  10.649
54826W        W27251  40.296  16.763  10.812
54827W        W27252  35.379  20.258   2.696
54828W        W27253  18.836  39.564  12.211
54829W        W27254  38.179   9.805   4.972
54830W        W27255  32.423   2.382   0.945
54831W        W27256  39.536  10.208   4.070
54832W        W27257  19.001  38.278  13.820
54833W        W27258  40.300  10.610  12.626
54834W        W27259   2.289  17.182   0.286
54835W        W27260  14.074  24.526   2.367
54836W        W27261   9.978  37.008   2.395
54837W        W27262   3.857  36.540  12.769
54838W        W27263  44.951  25.655   0.290
54839W        W27264  14.357   5.851   4.196
54840W        W27265  34.140   7.842  11.890
54841W        W27266  20.540  25.870  14.804
54842W        W27267  31.049  42.378   1.971
54843W        W27268  39.072  36.030  13.849
54844W        W27269  17.778  17.990  14.201
54845W        W27270  12.281   4.083   1.259
54846W        W27271  34.770  29.663  12.116
54847W        W27272  35.811  38.911  14.521
54848W        W27273   3.781   5.871   2.708
54849W        W27274  14.583  15.169   0.947
54850W        W27275   7.443  24.048  13.501
54851W        W27276  13.877  38.075   0.401
54852W        W27277   6.674  15.677  12.516
54853W        W27278   4.552  26.510  11.142
54854W        W27279  34.954   3.425  12.883
54855W        W27280  33.414  37.917  12.578
54856W        W27281   1.363  20.586   2.794
54857W        W27282  14.823  15.210  14.350
54858W        W27283  13.785  26.198   2.883
54859W        W27284   7.155  17.253   4.090
54860W        W27285   3.777  26.538  11.531
54861W        W27286  44.444  38.403   0.443
54862W        W27287  29.008   9.924   0.412
54863W        W27288   5.950  26.715  11.576
54864W        W27289  22.317  32.913   1.336
54865W        W27290  32.321  17.226   1.398
54866W        W27291   5.786  35.980  11.572
54867W        W27292  26.534  35.881   0.293
54868W        W27293  17.095  40.943   2.895
54869W        W27294   6.170  21.546   5.020
54870W        W27295  35.525  34.371   4.329
54871W        W27296   0.254  11.328   1.803
54872W        W27297  40.504  27.101  12.973
54873W        W27298   7.126  36.048  14.566
54874W        W27299  36.748  37.653   3.751
54875W        W27300  28.218  34.954  12.048
54876W        W27301  24.183   1.271   2.872
54877W        W27302   0.477  32.841   1.313
54878W        W27303  12.463  12.800   0.886
54879W        W27304  28.201  15.862   0.554
54880W        W27305  30.519   5.147  12.831
54881W        W27306  18.044  34.068   1.006
54882W        W27307  33.887  21.567   3.275
54883W        W27308  21.610   6.895   2.302
54884W        W27309  29.480  31.055   0.005
54885W        W27310  13.276  37.769   4.706
54886W        W27311  13.648   0.995  11.195
54887W        W27312  18.269  21.862  13.349
54888W        W27313  31.670  37.587   4.107
54889W        W27314  29.678  30.912  14.516
54890W        W27315  18.631   6.603  11.571
54891W        W27316   4.924  41.330   0.700
54892W        W27317  21.284  40.869   2.217
54893W        W27318  16.647  27.698  12.615
54894W        W27319  19.062   7.663  13.419
54895W        W27320   1.188  44.771  13.005
54896W        W27321   2.767  24.783   2.760
54897W        W27322  13.703   7.862   1.915
54898W        W27323  16.320  16.764   0.844
54899W        W27324  24.996  23.833  12.052
54900W        W27325  28.230  27.445  11.946
54901W        W27326  41.089  38.524   1.171
54902W        W27327  38.678  24.668   1.322
54903W        W27328  10.073  41.937  11.507
54904W        W27329  11.805  17.293  10.305
54905W        W27330  27.392  42.386   1.857
54906W        W27331   8.664   0.834   2.313
54907W        W27332  28.237  43.795  11.444
54908W        W27333  39.401  34.645   4.135
54909W        W27334  33.671  12.571   0.571
54910W        W27335   7.957   1.387  12.517
54911W        W27336   9.280   5.661  14.323
54912W        W27337  23.172  39.890   1.958
54913W        W27338   7.325  30.744   1.316
54914W        W27339   7.418  27.562   2.293
54915W        W27340   4.720  30.365  11.991
54916W        W27341   3.915   6.290   2.177
54917W        W27342   6.897  12.750  13.559
54918W        W27343  18.659  36.514  12.195
54919W        W27344  34.919   9.107  12.566
54920W        W27345  15.802   3.698   3.424
54921W        W27346  42.569  18.102   1.289
54922W        W27347  24.668  33.431  10.186
54923W        W27348   8.118  42.683   2.352
54924W        W27349  29.561  24.561  14.817
54925W        W27350  20.121   4.697  10.461
54926W        W27351  32.129  15.940   1.560
54927W        W27352  39.880  22.608  11.869
54928W        W27353  24.442  21.983   0.133
54929W        W27354  29.504  21.708  11.081
54930W        W27355  14.600  15.900  12.241
54931W        W27356   8.901  15.076  10.700
54932W        W27357  29.246  41.064  12.944
54933W        W27358   9.411  39.768   2.845
54934W        W27359  11.105  33.544   1.765
54935W        W27360  29.535  25.009  14.524
54936W        W27361   3.375  30.477  14.603
54937W        W27362   0.791  24.406  10.676
54938W        W27363  42.478  37.942  11.172
54939W        W27364  26.681  23.078   2.933
54940W        W27365  21.236  43.960   2.172
54941W        W27366  12.266  14.675  13.162
54942W        W27367  39.004  24.447   3.343
54943W        W27368  18.829  28.743  11.977
54944W        W27369  18.517  19.346  11.525
54945W        W27370  40.336  15.202  12.079
54946W        W27371  37.382   7.852   3.511
54947W        W27372  42.745  38.390   1.520
54948W        W27373  21.969   1.796   1.322
54949W        W27374  40.067  14.052  10.914
54950W        W27375  10.098  17.175   1.761
54951W        W27376  32.954  30.298  11.098
54952W        W27377  43.800  27.564   1.336
54953W        W27378  18.387  18.244  11.534
54954W        W27379  33.923  41.539  12.894
54955W        W27380  18.879   9.247  12.052
54956W        W27381   7.854  33.685  12.933
54957W        W27382  36.564  10.610  10.674
54958W        W27383   9.283  14.197  12.978
54959W        W27384  29.965  19.759   3.929
54960W        W27385  44.566  27.967   3.222
54961W        W27386  11.638  18.099  10.775
54962W        W27387   0.479  42.775   0.948
54963W        W27388   5.256   4.938  12.142
54964W        W27389  24.173  14.176   1.405
54965W        W27390  21.118  36.363  12.021
54966W        W27391  33.606  12.252   3.151
54967W        W27392   5.468  25.610  10.710
54968W        W27393  43.592  38.168  13.993
54969W        W27394  40.413  12.243  10.690
54970W        W27395  15.617   8.401   2.373
54971W        W27396   6.244  37.562   0.826
54972W        W27397  32.999  12.667  14.077
54973W        W27398  22.031  14.751   0.726
54974W        W27399   5.910  28.912   4.091
54975W        W27400  15.183  23.985   4.382
54976W        W27401   1.054  17.198  10.593
54977W        W27402  18.783   8.879   0.710
54978W        W27403  33.582  27.428   2.218
54979W        W27404  12.703  25.705  13.923
54980W        W27405  11.615  32.975  12.297
54981W        W27406  36.619  28.503   3.183
54982W        W27407  17.772  10.094   1.321
54983W        W27408   8.273  10.809  12.981
54984W        W27409  16.782  36.007  13.865
54985W        W27410  18.202  12.185  12.831
54986W        W27411  17.911  19.569  13.504
54987W        W27412  42.439  24.117   1.531
54988W        W27413  16.360   8.644   9.970
54989W        W27414  38.974  44.005   1.689
54990W        W27415   3.202  31.784  13.899
54991W        W27416  25.684   0.349  14.421
54992W        W27417  10.959  43.490  14.271
54993W        W27418  15.601   7.618  13.544
54994W        W27419  19.102  33.129   2.930
54995W        W27420  26.979  17.733   3.659
54996W        W27421  17.054   5.483   3.456
54997W        W27422   6.169  14.666  11.496
54998W        W27423  11.620  30.436  10.686
54999W        W27424   7.420   8.492   3.080
55000W        W27425  43.131  44.877  14.044
55001W        W27426  39.315  28.396   1.459
55002W        W27427  22.736   9.584  12.492
55003W        W27428   4.002  22.286  11.625
55004W        W27429  21.021  11.950  14.886
55005W        W27430  38.443   7.613  10.796
55006W        W27431  17.671  24.240   0.910
55007W        W27432  25.661  23.137  12.910
55008W        W27433  19.087  30.539  11.866
55009W        W27434   3.906  23.999   1.437
55010W        W27435  16.132  33.553   0.975
55011W        W27436  37.948  10.242  14.516
55012W        W27437  30.493  39.256  11.279
55013W        W27438   8.789   1.471  14.861
55014W        W27439  15.947  43.808  10.707
55015W        W27440   4.223  29.423  11.582
55016W        W27441  23.223  43.623   2.720
55017W        W27442  20.113  15.039  12.315
55018W        W27443   7.865  10.603  14.370
55019W        W27444  18.332  28.200  13.696
55020W        W27445  44.443   3.882   1.381
55021W        W27446  10.585  26.982  14.999
55022W        W27447  11.989  27.307  14.445
55023W        W27448  40.312   8.338  12.018
55024W        W27449  34.149   6.312   0.876
55025W        W27450  29.623  40.889   5.503
55026W        W27451   9.236  43.957   1.313
55027W        W27452   5.146  39.358   0.865
55028W        W27453  20.657  23.462  12.572
55029W        W27454  42.847  39.135  11.625
55030W        W27455  35.020  11.740  10.644
55031W        W27456  25.422  25.089  12.480
55032W        W27457  20.970  36.861  12.160
55033W        W27458   6.806   2.076   4.097
55034W        W27459  43.033  40.523  11.210
55035W        W27460  17.059  40.452   5.009
55036W        W27461  32.861  23.297  11.075
55037W        W27462   5.219   4.440   1.947
55038W        W27463  25.987   9.623   3.694
55039W        W27464  18.686  41.049   2.333
55040W        W27465  13.741  15.454  13.328
55041W        W27466  23.291   0.062   0.948
55042W        W27467  32.506  18.628   2.414
55043W        W27468  39.078  44.020  13.423
55044W        W27469  18.303  16.814  13.529
55045W        W27470  12.607  32.033  13.299
55046W        W27471  28.586  11.624  11.164
55047W        W27472  38.374  29.051  11.934
55048W        W27473  42.738  21.195  12.486
55049W        W27474  13.489  31.245   3.254
55050W        W27475  11.056  38.938   2.247
55051W        W27476  34.795   0.459   2.412
55052W        W27477   0.107  42.054  13.625
55053W        W27478  22.479  35.067  14.920
55054W        W27479  25.028   3.348   3.887
55055W        W27480  19.551  24.632  13.578
55056W        W27481  42.995  19.089   9.762
55057W        W27482   3.443  22.524  10.982
55058W        W27483  14.529  10.956   2.806
55059W        W27484  29.750  40.296   0.424
55060W        W27485  43.937  36.615  13.348
55061W        W27486   1.012  17.225  11.917
55062W        W27487  16.709   4.747   1.226
55063W        W27488  26.675  36.713   4.169
55064W        W27489  33.273   4.127   2.602
55065W        W27490  14.036  33.442  10.303
55066W        W27491  27.532  33.990   2.565
55067W        W27492  28.118  11.230  14.476
55068W        W27493  39.308  12.741  14.825
55069W        W27494  21.609  28.511  14.932
55070W        W27495  13.641  38.645  11.503
55071W        W27496  39.468   6.295   4.698
55072W        W27497  16.546  35.036   1.458
55073W        W27498  12.257   8.815  11.754
55074W        W27499  23.345   8.019   3.814
55075W        W27500  15.294   1.208  13.067
55076W        W27501  14.741  26.385   4.154
55077W        W27502   9.419  14.115  11.433
55078W        W27503  19.003  20.516   1.796
55079W        W27504   4.928   3.740   4.992
55080W        W27505  33.898  17.212   4.106
55081W        W27506  23.257  42.329  11.594
55082W        W27507  29.415  30.384  10.746
55083W        W27508  25.648  19.534  12.979
55084W        W27509  32.182  35.644  11.107
55085W        W27510  31.466  22.087  14.334
55086W        W27511  36.105  32.490   3.869
55087W        W27512  17.420   8.760  11.903
55088W        W27513   2.690  12.309  14.394
55089W        W27514   2.447  24.710   2.330
55090W        W27515  44.386   6.433   1.751
55091W        W27516  28.963  13.820   3.455
55092W        W27517  20.239  17.211  10.431
55093W        W27518  17.372  26.769  13.969
55094W        W27519  42.933   0.474  13.414
55095W        W27520  26.186   5.422  11.589
55096W        W27521   2.035  13.580  10.963
55097W        W27522   2.491   3.466  12.901
55098W        W27523   9.315  31.820   3.931
55099W        W27524  30.963  23.283  12.214
55100W        W27525  29.553  12.414   2.874
55101W        W27526  15.032  38.287  11.292
55102W        W27527   6.026  32.051   4.675
55103W        W27528  22.699  24.652   0.268
55104W        W27529  37.814  25.512  14.735
55105W        W27530  12.877  35.296   0.061
55106W        W27531   4.327  31.690   4.270
55107W        W27532  19.158  23.111   0.434
55108W        W27533   1.860  23.476  11.276
55109W        W27534  38.654  42.390   0.837
55110W        W27535  23.399  29.639   0.766
55111W        W27536  30.522  24.241   1.877
55112W        W27537  16.321  16.558  14.505
55113W        W27538  13.860  16.275   1.444
55114W        W27539  35.714  10.515  12.700
55115W        W27540  43.950   9.297  10.546
55116W        W27541   4.747  27.622   5.078
55117W        W27542  44.465  43.277  14.743
55118W        W27543  23.986   9.387   2.195
55119W        W27544   0.489   4.318  13.483
55120W        W27545  27.680  40.400  10.564
55121W        W27546  16.551  10.598   0.006
55122W        W27547   6.770  36.466  13.977
55123W        W27548  14.592  12.612  11.555
55124W        W27549  14.323  22.214  14.365
55125W        W27550  31.952  17.701   2.388
55126W        W27551  28.970  20.608   9.433
55127W        W27552  31.376  30.110  13.339
55128W        W27553  10.822  11.469  10.766
55129W        W27554   2.238  33.527   4.596
55130W        W27555  14.344   2.519  14.058
55131W        W27556  23.409   6.296  12.216
55132W        W27557  33.039  15.263   3.258
55133W        W27558  44.226   4.308   0.499
55134W        W27559  12.639  37.810   1.802
55135W        W27560  16.610  33.030   4.627
55136W        W27561  15.646  14.116  11.678
55137W        W27562  16.128  37.701  10.803
55138W        W27563  12.132  31.310   4.299
55139W        W27564  10.537   3.943  14.014
55140W        W27565  25.736  11.136   1.874
55141W        W27566  25.717   1.891  12.736
55142W        W27567  35.062  44.286   4.456
55143W        W27568  35.779   4.645  12.553
55144W        W27569  17.408  40.916   3.961
55145W        W27570  11.712   6.547   4.926
55146W        W27571   3.986  42.967   2.945
55147W        W27572  34.743  30.654  11.164
55148W        W27573  22.181  21.831   0.490
55149W        W27574  24.700  30.471  13.451
55150W        W27575  16.181  30.138  13.033
55151W        W27576  26.410   3.289  10.503
55152W        W27577  40.411  23.689   1.838
55153W        W27578  15.103   7.699  11.527
55154W        W27579  40.614  14.615   0.694
55155W        W27580  11.748  11.717  15.000
55156W        W27581  20.560  27.679   4.121
55157W        W27582  18.338   5.999  13.989
55158W        W27583  40.395  24.558   4.135
55159W        W27584  14.143  42.741   0.656
55160W        W27585  18.250  43.369  14.917
55161W        W27586  16.093  17.236   0.688
55162W        W27587  37.397   3.441   1.647
55163W        W27588  11.557  23.045   2.848
55164W        W27589   8.779  42.754  12.895
55165W        W27590  16.301   3.038  11.219
55166W        W27591  13.122   2.260   4.386
55167W        W27592  28.223  25.115   1.492
55168W        W27593   7.033  35.943  13.234
55169W        W27594  30.363   7.737  13.048
55170W        W27595  10.609  19.527  11.683
55171W        W27596  28.472  14.732   1.063
55172W        W27597   9.779   5.451  12.077
55173W        W27598  40.398  34.091   3.212
55174W        W27599   2.228  35.091  12.390
55175W        W27600  39.023   0.942   3.843
55176W        W27601   0.386  26.446   1.658
55177W        W27602  32.498  22.271   2.183
55178W        W27603  19.130  43.728   1.127
55179W        W27604  20.527  41.520   2.916
55180W        W27605  35.109  27.355   1.291
55181W        W27606   4.203  43.721   0.874
55182W        W27607  14.309  13.558   2.719
55183W        W27608  31.086  23.237   0.927
55184W        W27609   7.349   2.696   2.245
55185W        W27610  27.191  32.898  13.737
55186W        W27611  34.016  34.557  13.110
55187W        W27612  33.902  16.623   2.804
55188W        W27613  21.649  21.838   4.315
55189W        W27614  13.156   4.428  12.458
55190W        W27615  37.188  13.299   4.231
55191W        W27616  24.656  38.540   0.901
55192W        W27617  11.163  21.351  14.013
55193W        W27618  29.606  35.417   2.393
55194W        W27619   0.297  35.058   0.860
55195W        W27620  17.291  43.946   3.639
55196W        W27621  38.663  35.450  11.069
55197W        W27622  14.765   4.656  11.477
55198W        W27623   3.231   0.097   4.604
55199W        W27624   9.018  22.051   3.648
55200W        W27625  44.511   0.749   3.791
55201W        W27626  23.219   5.827   4.362
55202W        W27627  21.466  12.416   2.203
55203W        W27628  44.754   4.141  13.538
55204W        W27629  33.498   1.502  13.910
55205W        W27630  24.279  11.275   0.882
55206W        W27631  20.139  20.145  10.655
55207W        W27632   9.782  30.522   1.821
55208W        W27633  35.102   2.022  14.305
55209W        W27634  31.192  42.849  10.835
55210W        W27635  25.311  18.511  14.002
55211W        W27636  20.115  19.459   1.815
55212W        W27637   9.311  42.503  14.465
55213W        W27638  10.253  30.603  13.943
55214W        W27639  32.598  26.496   2.761
55215W        W27640  32.494  14.132   4.280
55216W        W27641  26.762  18.521   0.770
55217W        W27642  40.316  14.694  14.194
55218W        W27643  18.221   5.891  14.893
55219W        W27644  25.096  20.712  14.424
55220W        W27645  20.503  24.979  12.490
55221W        W27646  44.769  42.043   0.875
55222W        W27647  30.733  15.681   9.968
55223W        W27648  21.301  32.005   3.858
55224W        W27649  37.380  20.140  12.789
55225W        W27650   8.930  28.197   3.105
55226W        W27651  20.335   7.318   3.212
55227W        W27652  12.719   1.238   3.909
55228W        W27653  21.164  32.537  14.297
55229W        W27654   2.029  12.418  11.886
55230W        W27655   8.902  15.470  14.774
55231W        W27656  26.390   2.815  11.172
55232W        W27657  21.706  35.356   4.944
55233W        W27658  37.352   2.235  11.903
55234W        W27659   7.246  18.290   3.689
55235W        W27660  20.472  10.206  13.586
55236W        W27661  14.062  12.238   4.971
55237W        W27662  39.925  27.707  12.975
55238W        W27663  38.096  39.221  10.487
55239W        W27664  37.096  13.789   4.084
55240W        W27665  23.246  35.059   4.609
55241W        W27666  27.980  39.329  13.947
55242W        W27667  28.033  42.982  12.180
55243W        W27668  39.551  29.608  10.479
55244W        W27669  29.729   3.796  10.549
55245W        W27670   8.812  26.234  12.035
55246W        W27671  15.766  42.522  12.607
55247W        W27672  44.917  40.579   2.698
55248W        W27673  34.563  41.222  10.970
55249W        W27674  43.786  13.002   1.725
55250W        W27675   1.940  28.048  10.538
55251W        W27676  23.171  13.679  11.542
55252W        W27677  11.860  41.470   1.274
55253W        W27678  38.084  44.640   3.716
55254W        W27679  42.612  36.065  10.648
55255W        W27680  30.505  24.754  11.030
55256W        W27681  35.392  41.232   0.269
55257W        W27682  20.927  30.434  11.223
55258W        W27683   1.252  38.386  13.062
55259W        W27684   5.953   1.443  11.953
55260W        W27685   8.052  10.820   2.337
55261W        W27686  11.759   6.339   3.133
55262W        W27687  36.313  14.862   3.347
55263W        W27688  37.797  43.974   3.172
55264W        W27689   2.414  39.361  11.497
55265W        W27690   8.671  20.032  14.377
55266W        W27691  43.329   2.592   1.384
55267W        W27692   9.613  28.035  11.510
55268W        W27693  10.293   8.188  10.658
55269W        W27694  25.797  26.946   0.473
55270W        W27695  43.537   7.649  11.405
55271W        W27696  10.234  10.852  10.539
55272W        W27697   8.515   5.026  14.494
55273W        W27698   9.598   0.780   2.313
55274W        W27699   0.863  10.184  11.632
55275W        W27700  30.027  16.646  14.276
55276W        W27701  39.319  22.593  13.107
55277W        W27702  12.253  36.609  13.495
55278W        W27703  20.061  35.394   2.400
55279W        W27704  19.046  26.981   2.174
55280W        W27705  35.407  23.255  11.385
55281W        W27706   4.328  13.424   4.124
55282W        W27707  42.601  17.868  13.463
55283W        W27708  26.460  37.587   4.220
55284W        W27709  41.791  11.245  13.775
55285W        W27710  34.904  17.366   1.645
55286W        W27711  25.497  33.207  10.101
55287W        W27712  36.251   0.433   0.283
55288W        W27713   1.701  25.564  14.045
55289W        W27714  38.720  28.414  11.171
55290W        W27715  31.977  25.227   3.582
55291W        W27716  26.114   3.481  13.903
55292W        W27717  20.780  17.096  12.157
55293W        W27718  19.737   7.878   1.430
55294W        W27719  15.631  32.582   4.511
55295W        W27720   8.269  38.743  14.009
55296W        W27721  19.557  27.687   3.264
55297W        W27722   4.767  34.320  13.917
55298W        W27723  18.966  36.430   0.324
55299W        W27724  38.003  23.221  10.380
55300W        W27725   6.319  16.177   0.678
55301W        W27726  19.248  13.592   3.577
55302W        W27727  37.736   8.559  12.814
55303W        W27728  15.351  23.160   2.737
55304W        W27729   5.653  43.267   1.375
55305W        W27730   4.741  13.786  13.364
55306W        W27731  31.690  30.416   1.931
55307W        W27732  10.156  40.246  11.548
55308W        W27733  34.551   2.358  13.938
55309W        W27734  18.235  43.875   3.371
55310W        W27735  37.490  12.162  13.959
55311W        W27736   1.291  34.464   4.879
55312W        W27737   9.594  31.549  12.220
55313W        W27738  14.887   1.841  14.296
55314W        W27739  24.661  28.926  13.395
55315W        W27740  32.058  12.860  13.336
55316W        W27741   5.867  41.874   2.603
55317W        W27742  10.452  41.528  13.461
55318W        W27743  27.171   2.846  12.574
55319W        W27744  13.350  20.076   3.273
55320W        W27745  33.460  38.467  13.602
55321W        W27746   9.855  25.096  13.082
55322W        W27747   6.399  29.532  10.587
55323W        W27748  16.194  40.801  10.476
55324W        W27749  14.134   1.565  13.789
55325W        W27750   5.502  24.664  14.512
55326W        W27751   3.640  21.134   2.751
55327W        W27752  14.878  14.185  13.757
55328W        W27753  28.470  20.478   2.199
55329W        W27754  19.577   7.273   4.649
55330W        W27755  31.585  29.374  13.109
55331W        W27756  16.172  27.667  12.817
55332W        W27757  24.515  42.560  12.322
55333W        W27758  24.595  28.731  10.968
55334W        W27759  29.127  21.144   5.687
55335W        W27760  14.704  21.754   2.209
55336W        W27761  29.680  27.937  11.881
55337W        W27762   8.510   1.135   4.236
55338W        W27763  34.673  23.202   0.373
55339W        W27764   7.789   3.250  10.631
55340W        W27765  11.789  39.119  10.971
55341W        W27766  13.805  42.217   1.819
55342W        W27767   0.510  28.195   3.298
55343W        W27768  11.850  38.975   3.222
55344W        W27769  35.143  27.491  11.412
55345W        W27770  24.407   3.869   3.695
55346W        W27771  23.654   1.342   0.953
55347W        W27772   9.885  24.967  14.817
55348W        W27773  35.041  14.263   2.648
55349W        W27774  39.870  22.773  14.515
55350W        W27775   3.406  24.467  13.412
55351W        W27776  12.382  24.801  10.568
55352W        W27777   3.743  35.855  13.488
55353W        W27778  36.922  38.519   1.119
55354W        W27779  29.668   6.366  12.887
55355W        W27780  35.914  29.731   1.152
55356W        W27781  38.167  36.731  13.715
55357W        W27782  15.840  17.720   0.485
55358W        W27783  29.966  15.672   3.129
55359W        W27784   2.517   5.203   0.851
55360W        W27785   8.868  42.856  10.539
55361W        W27786  28.791  25.716  12.197
55362W        W27787  32.130  19.588  13.067
55363W        W27788   9.952  23.257  12.090
55364W        W27789  12.513  38.863  13.169
55365W        W27790  44.538  36.425   2.215
55366W        W27791   6.747   1.246   0.315
55367W        W27792  36.972  19.891  10.320
55368W        W27793   1.237  34.452  13.394
55369W        W27794  26.765  33.520   1.736
55370W        W27795   6.211  41.382   1.184
55371W        W27796  13.824  24.342   0.427
55372W        W27797   8.433  12.153  11.513
55373W        W27798  18.293   2.688   3.301
55374W        W27799   0.422  35.082   4.597
55375W        W27800  42.986   6.263  10.410
55376W        W27801  29.053  22.847  10.516
55377W        W27802  36.056  15.605   2.226
55378W        W27803  21.600   3.128   4.350
55379W        W27804  25.693  39.729   0.306
55380W        W27805  14.167  10.916  12.838
55381W        W27806  30.914  25.083   0.442
55382W        W27807   8.136  26.572  11.621
55383W        W27808  39.004  33.997   4.788
55384W        W27809  24.287   2.261   1.922
55385W        W27810  18.665  26.364   0.352
55386W        W27811  40.032   4.858   3.755
55387W        W27812   7.115  38.294  12.912
55388W        W27813  32.347  44.554   2.074
55389W        W27814  43.271  24.142   0.463
55390W        W27815  31.440  40.371   3.039
55391W        W27816  16.964  42.714  13.371
55392W        W27817  23.651   7.697   4.668
55393W        W27818  33.326  23.096  10.086
55394W        W27819  29.141  12.763  13.051
55395W        W27820  38.051  12.249   1.243
55396W        W27821  37.321  16.875   1.727
55397W        W27822   8.632  11.379   1.744
55398W        W27823  28.626  26.155  10.699
55399W        W27824   7.195   2.023  13.049
55400W        W27825   3.263  37.412   2.877
55401W        W27826  11.814  42.474  12.876
55402W        W27827  25.380  16.316   1.243
55403W        W27828   9.356  35.353  14.445
55404W        W27829  23.556  13.270  13.273
55405W        W27830  33.518   9.378   4.553
55406W        W27831  13.722  20.833  13.784
55407W        W27832  32.529   9.924  10.903
55408W        W27833  14.106  22.299  10.623
55409W        W27834  34.119  10.360   2.164
55410W        W27835   7.913  11.466  10.396
55411W        W27836   8.562  23.458  12.854
55412W        W27837   6.631  16.716  12.444
55413W        W27838  10.395  32.129   0.723
55414W        W27839  30.513   7.816  10.671
55415W        W27840  36.017   8.294   4.966
55416W        W27841  38.869  24.220  10.657
55417W        W27842  35.014  10.160   1.688
55418W        W27843  23.005  31.532  12.140
55419W        W27844  32.657   9.943  11.987
55420W        W27845   6.410  19.716  12.965
55421W        W27846  33.963  11.260  14.980
55422W        W27847  29.705  37.030   4.158
55423W        W27848  40.874  32.014  12.914
55424W        W27849  30.553  20.868  10.211
55425W        W27850  15.036  35.008  14.939
55426W        W27851  20.561  33.942  11.953
55427W        W27852   0.774  37.562  11.403
55428W        W27853  36.429  15.304   1.136
55429W        W27854  33.845  37.972   3.671
55430W        W27855  40.967  34.088   0.834
55431W        W27856   2.883  22.542   4.075
55432W        W27857  34.034  43.362   3.869
55433W        W27858  25.493  28.979   2.610
55434W        W27859  20.841  21.102  11.633
55435W        W27860  42.993  16.335  14.862
55436W        W27861  20.239  41.438   3.320
55437W        W27862  38.981  14.689  13.949
55438W        W27863  21.796  37.368   2.651
55439W        W27864  11.546  21.937  12.946
55440W        W27865  13.672  27.365   0.445
55441W        W27866  39.377  30.065  12.873
55442W        W27867   2.293  36.572   3.715
55443W        W27868  38.033  36.149   1.447
55444W        W27869  24.506   3.456  13.163
55445W        W27870   9.630  41.018  14.887
55446W        W27871  34.157  11.419   0.460
55447W        W27872  31.821  13.336   0.726
55448W        W27873  16.122   1.230   1.980
55449W        W27874  17.542   3.479  13.492
55450W        W27875  39.070  44.385  12.941
55451W        W27876  44.148   6.990  11.552
55452W        W27877  29.769   1.571   4.112
55453W        W27878   8.107   8.381  14.841
55454W        W27879  13.266  40.526   5.491
55455W        W27880  16.623  36.821   4.156
55456W        W27881  22.279  32.504  10.628
55457W        W27882  36.612  32.055  10.692
55458W        W27883  12.135  23.190   1.530
55459W        W27884  32.180  10.705   1.010
55460W        W27885   7.842  39.655  12.398
55461W        W27886   4.142  15.381  13.844
55462W        W27887  38.308  33.183  11.512
55463W        W27888  37.544   4.748  13.718
55464W        W27889   4.710  41.024  13.453
55465W        W27890  12.575  40.306   4.375
55466W        W27891  26.741  26.204   1.426
55467W        W27892  43.646  19.773  11.863
55468W        W27893   2.390   2.952  13.998
55469W        W27894   2.396   9.884  10.636
55470W        W27895  10.332  22.148  12.425
55471W        W27896  17.998  23.040  12.539
55472W        W27897   8.496  43.921  13.480
55473W        W27898  37.485  36.842  13.071
55474W        W27899  16.698   0.971  12.715
55475W        W27900   0.258  22.526   2.511
55476W        W27901   8.299  20.216  13.505
55477W        W27902  19.540  33.579   0.965
55478W        W27903   1.414  11.083   4.589
55479W        W27904  43.242  25.964   0.551
55480W        W27905  24.133  20.677  12.919
55481W        W27906   8.717  13.759   0.841
55482W        W27907  12.032  30.497   2.293
55483W        W27908  42.308  44.459   0.931
55484W        W27909  35.277  16.920  12.169
55485W        W27910  30.591  32.188   2.776
55486W        W27911   8.810  13.168   2.731
55487W        W27912  31.194   4.491  12.531
55488W        W27913   8.431   7.249   2.682
55489W        W27914   5.723   0.423   1.086
55490W        W27915  22.922  41.059   0.464
55491W        W27916  43.981  32.217   3.205
55492W        W27917  32.901   9.258  14.354
55493W        W27918  39.802  42.295   3.999
55494W        W27919  22.448  35.407  13.787
55495W        W27920  25.267   8.775   4.580
55496W        W27921   2.512  17.060  11.566
55497W        W27922  16.710  12.278  10.681
55498W        W27923  23.122  20.542   0.853
55499W        W27924  39.507  17.294  12.448
55500W        W27925  15.625   2.805   2.659
55501W        W27926  27.563  19.111   4.580
55502W        W27927   4.457  42.728   2.879
55503W        W27928  12.060   1.477  12.600
55504W        W27929  23.669  13.610   0.981
55505W        W27930   4.860  24.977   3.079
55506W        W27931  23.288  24.701   4.612
55507W        W27932  21.145  20.436  12.182
55508W        W27933  24.739  21.726  12.156
55509W        W27934  34.084  31.205  12.748
55510W        W27935  32.188  30.433  10.635
55511W        W27936  37.041   4.563  13.802
55512W        W27937  34.941  22.817  12.028
55513W        W27938  35.993  21.546  14.557
55514W        W27939  30.683  12.453   2.287
55515W        W27940  24.185  23.911  14.390
55516W        W27941  14.751  29.180  12.464
55517W        W27942  22.708   6.719  13.370
55518W        W27943  21.681   4.819  13.860
55519W        W27944  44.514  21.562  12.031
55520W        W27945  39.495  16.875   3.186
55521W        W27946   8.201  10.173   3.873
55522W        W27947  30.392   1.851  11.349
55523W        W27948  31.932  15.989  13.390
55524W        W27949  17.780  42.840  10.701
55525W        W27950  13.434  33.884   0.258
55526W        W27951   4.683  13.674   2.317
55527W        W27952  10.326   2.905  14.095
55528W        W27953  34.615  37.454  11.065
55529W        W27954  42.855  29.013   2.881
55530W        W27955  25.911  32.895  12.444
55531W        W27956  33.195  42.533  12.564
55532W        W27957  26.114  15.683  13.492
55533W        W27958  25.778  27.572   2.467
55534W        W27959  32.193  14.365  10.735
55535W        W27960  29.431  39.992  13.020
55536W        W27961  28.775  10.172  14.421
55537W        W27962  27.480  36.415   2.028
55538W        W27963  11.151  30.479   3.719
55539W        W27964   4.374  24.418   3.730
55540W        W27965  14.702  13.302  14.297
55541W        W27966   5.332  41.833   0.393
55542W        W27967  24.254  10.147  11.633
55543W        W27968  43.698  22.925   2.191
55544W        W27969  34.099  13.781   1.910
55545W        W27970  15.911  30.997   2.647
55546W        W27971  17.279  18.966   3.142
55547W        W27972  15.872  12.312  12.946
55548W        W27973  21.693  22.476   0.191
55549W        W27974   4.268   0.330   3.152
55550W        W27975  36.280  31.114   0.827
55551W        W27976  34.490   9.380  12.629
55552W        W27977   3.106  39.996   4.143
55553W        W27978  42.831  36.938  11.549
55554W        W27979   4.353  39.950  14.046
55555W        W27980  13.869  22.631  11.796
55556W        W27981  33.465  39.330  14.303
55557W        W27982  31.679  36.050  13.818
55558W        W27983   0.642   9.559  12.200
55559W        W27984  32.498   8.344   4.709
55560W        W27985  27.998  41.979  14.994
55561W        W27986  26.113  17.194   3.736
55562W        W27987  26.759   7.657  11.202
55563W        W27988  38.045  30.206  11.128
55564W        W27989  41.999   5.010   3.249
55565W        W27990  18.645  16.529   3.749
55566W        W27991  27.640   1.781   1.818
55567W        W27992  14.804  34.724  10.138
55568W        W27993  30.051   4.046  13.326
55569W        W27994   3.491  30.894   2.705
55570W        W27995  35.369  25.264   2.985
55571W        W27996  28.941  29.072  11.566
55572W        W27997  43.817  40.553  11.910
55573W        W27998  42.427  34.002  12.244
55574W        W27999  28.155   2.277  14.912
55575W        W28000  40.930   6.255  12.109
55576W        W28001  28.039  34.860  14.790
55577W        W28002  11.522  14.171  11.482
55578W        W28003  13.108  12.347  12.855
55579W        W28004   7.264  42.375  14.539
55580W        W28005  27.546  17.363   4.650
55581W        W28006  35.538   2.248  14.024
55582W        W28007  20.731   4.254   0.410
55583W        W28008  37.167   9.363  12.127
55584W        W28009  29.108  15.679  12.569
55585W        W28010  31.115  23.679   4.207
55586W        W28011  29.663  32.152   0.745
55587W        W28012  13.904  19.011   2.508
55588W        W28013   2.348   7.743   3.102
55589W        W28014  15.010  20.723  13.589
55590W        W28015  23.655  25.074  14.729
55591W        W28016  20.731  24.647  14.081
55592W        W28017  38.540  31.625   0.757
55593W        W28018  16.154  22.666   1.339
55594W        W28019   0.910  14.574   4.602
55595W        W28020  33.658  33.564  11.539
55596W        W28021  36.550  17.434   2.887
55597W        W28022  10.444  38.825   1.384
55598W        W28023  23.041  27.776   1.981
55599W        W28024  11.660  36.765  12.469
55600W        W28025  38.238  23.579   2.751
55601W        W28026   7.138  24.724   1.679
55602W        W28027  40.819   2.242   4.216
55603W        W28028  20.114  39.366  11.828
55604W        W28029   2.677  29.170   1.867
55605W        W28030   4.736  29.936   3.334
55606W        W28031   0.530   8.369   1.943
55607W        W28032  33.633   8.328  12.394
55608W        W28033   4.761   0.039   1.741
55609W        W28034  38.385  41.017  12.529
55610W        W28035   7.444  21.685  12.518
55611W        W28036  15.197  20.696   0.375
55612W        W28037  34.870  26.668   0.762
55613W        W28038  34.410  25.282  13.751
55614W        W28039  22.216   9.740   5.757
55615W        W28040  41.811   3.630   4.573
55616W        W28041   0.772  41.136   1.769
55617W        W28042  12.100   9.054  14.435
55618W        W28043  16.908  41.378   0.865
55619W        W28044  14.896  14.712   4.529
55620W        W28045  42.934  30.972  10.767
55621W        W28046   5.324  27.484  11.832
55622W        W28047  22.464  18.679   2.854
55623W        W28048  21.087   2.706   2.916
55624W        W28049   1.420  41.275   3.717
55625W        W28050  11.666  26.004   3.320
55626W        W28051  27.734  23.718   2.929
55627W        W28052  41.315  17.837   2.368
55628W        W28053  27.710  27.453  13.893
55629W        W28054  32.020  25.668  13.976
55630W        W28055  43.819   2.403   1.386
55631W        W28056  16.150   7.489   4.920
55632W        W28057  14.789  16.565   3.327
55633W        W28058   0.352  13.858  12.957
55634W        W28059  37.132  23.692  12.991
55635W        W28060  12.282  31.856   5.079
55636W        W28061  26.168  36.474   4.134
55637W        W28062  29.696  24.888   3.287
55638W        W28063  36.030  10.440  14.466
55639W        W28064  38.082  21.566   2.135
55640W        W28065  30.154   8.911   4.534
55641W        W28066   3.318  16.148   4.316
55642W        W28067  30.514  30.350  14.317
55643W        W28068  37.872  20.114   3.047
55644W        W28069  17.502  22.630   3.742
55645W        W28070  10.812  41.505   2.705
55646W        W28071  38.074  25.866   3.891
55647W        W28072  16.813  34.125  12.043
55648W        W28073  23.930  36.947  13.789
55649W        W28074  14.737   4.030  10.745
55650W        W28075   1.465   3.174  11.462
55651W        W28076  21.293  42.021   0.375
55652W        W28077  43.531  44.869   0.860
55653W        W28078  21.370  13.099  14.230
55654W        W28079   2.836  10.162   1.292
55655W        W28080  24.105  41.528   3.120
55656W        W28081   4.297  32.592   0.009
55657W        W28082  10.145  34.545  12.019
55658W        W28083  37.536  36.799  11.161
55659W        W28084  35.985  27.371   1.462
55660W        W28085  23.719  11.092  11.002
55661W        W28086  16.793  30.490   4.605
55662W        W28087  41.891  18.258   3.698
55663W        W28088   6.358   1.767   4.890
55664W        W28089  24.322   1.837  14.539
55665W        W28090  41.727  21.301   0.949
55666W        W28091   7.881   4.191   1.521
55667W        W28092  20.223  19.276   4.317
55668W        W28093  20.957  40.874   2.605
55669W        W28094  41.002  38.992   0.807
55670W        W28095  25.047   9.241  11.128
55671W        W28096  13.882  17.089   1.956
55672W        W28097   7.793  24.581   2.400
55673W        W28098  43.888  20.623   2.930
55674W        W28099  12.635  22.028  11.924
55675W        W28100   8.882  13.811  11.041
55676W        W28101  16.209   9.383  11.241
55677W        W28102   4.955   8.317  12.153
55678W        W28103  19.229  30.944  13.361
55679W        W28104  36.346  32.399  10.958
55680W        W28105  24.054  10.255  10.121
55681W        W28106   6.614  29.674  13.852
55682W        W28107  10.334  18.224   0.720
55683W        W28108  43.983  10.733  11.934
55684W        W28109  42.583  27.164  10.999
55685W        W28110  42.039   1.476   2.890
55686W        W28111  26.763  29.506  11.764
55687W        W28112  34.572  11.566  13.911
55688W        W28113  27.722  26.774  11.565
55689W        W28114  29.274  23.074   1.476
55690W        W28115  10.312  20.250   0.838
55691W        W28116  16.065  29.146  13.039
55692W        W28117  26.451  16.153  11.904
55693W        W28118  15.381  18.239  12.662
55694W        W28119  34.962  21.179  10.414
55695W        W28120  19.009  18.664  13.350
55696W        W28121   8.537  14.225  12.474
55697W        W28122  36.932  13.427   0.980
55698W        W28123  34.914  21.719  10.620
55699W        W28124  14.952  30.677  12.568
55700W        W28125  14.524  33.894  14.525
55701W        W28126  44.002   7.867  12.359
55702W        W28127  20.316  31.628  13.930
55703W        W28128   1.429   7.405   0.063
55704W        W28129  38.034  38.110  11.160
55705W        W28130  43.580  19.098   1.383
55706W        W28131   0.242  32.969   0.801
55707W        W28132  28.939  19.235  12.996
55708W        W28133  36.849   1.429  12.892
55709W        W28134  37.352  11.330   3.377
55710W        W28135  24.024   1.902   1.400
55711W        W28136  43.331   6.649   2.376
55712W        W28137  38.927   7.863  13.092
55713W        W28138  31.054  13.899   0.347
55714W        W28139  18.842  15.505  13.894
55715W        W28140  23.818   3.416   2.729
55716W        W28141  23.942  30.410  11.991
55717W        W28142   5.516  41.390  13.346
55718W        W28143  33.021  17.703  11.714
55719W        W28144  34.997   5.687  14.509
55720W        W28145   0.669  10.089  10.027
55721W        W28146   3.188  42.260  13.542
55722W        W28147  34.565   7.346   5.215
55723W        W28148  35.886  39.804  12.162
55724W        W28149   9.304   9.144  12.112
55725W        W28150   1.612  29.025  13.343
55726W        W28151  44.547  35.662   1.361
55727W        W28152  35.454  36.664  10.962
55728W        W28153  40.613   0.827   2.796
55729W        W28154   4.155  28.354   1.281
55730W        W28155  40.930  37.958   2.735
55731W        W28156   8.897   6.341   0.694
55732W        W28157  23.053  42.623  11.225
55733W        W28158  23.571  10.258   9.918
55734W        W28159  22.692  29.062   2.270
55735W        W28160  26.890  19.750  14.249
55736W        W28161  15.267  29.437   3.806
55737W        W28162  30.244  33.869  11.629
55738W        W28163   8.959  33.053  13.451
55739W        W28164  20.555   1.940  12.573
55740W        W28165  25.760  10.329  13.846
55741W        W28166   6.005  31.467  14.978
55742W        W28167  41.072  33.589   0.741
55743W        W28168  32.843  33.130  12.876
55744W        W28169   5.648  42.940   1.779
55745W        W28170  14.588  40.352   4.876
55746W        W28171  13.096  30.452  14.045
55747W        W28172  40.834   6.703  11.839
55748W        W28173  27.662  33.411  10.683
55749W        W28174  39.407  35.938   3.858
55750W        W28175  41.308  33.146  13.432
55751W        W28176  35.794  34.918  11.900
55752W        W28177   9.409  39.095  11.213
55753W        W28178  37.971   0.397  13.377
55754W        W28179   3.346  38.308   1.282
55755W        W28180  25.154   5.463   2.668
55756W        W28181  34.116   0.582  13.767
55757W        W28182  40.925  24.460  13.496
55758W        W28183  41.379  38.962  13.581
55759W        W28184  27.881  30.082  11.506
55760W        W28185  18.513  27.230  13.460
55761W        W28186  17.092  25.172  11.929
55762W        W28187  37.078  29.989  14.369
55763W        W28188  30.540  23.117  14.350
55764W        W28189  35.924  26.361   5.319
55765W        W28190   2.757  36.356  10.457
55766W        W28191  24.248  36.012  11.961
55767W        W28192   8.972   1.308   3.603
55768W        W28193  17.310  20.795  12.502
55769W        W28194  29.885  32.033   3.353
55770W        W28195  13.782  26.621   4.177
55771W        W28196  15.295  11.382   2.737
55772W        W28197  36.949  27.165  10.633
55773W        W28198   3.985  43.059  12.580
55774W        W28199  23.711  24.953   3.277
55775W        W28200   1.524  41.958   1.020
55776W        W28201  20.595  25.389   2.732
55777W        W28202  37.543  21.314  12.999
55778W        W28203  43.004   5.127  13.579
55779W        W28204   8.751  44.850  13.344
55780W        W28205  20.759  38.671  13.072
55781W        W28206  17.029   9.440  11.449
55782W        W28207  27.067  43.283  13.465
55783W        W28208   0.827  22.314   1.903
55784W        W28209  33.652   6.780   4.114
55785W        W28210  39.039  32.982   1.253
55786W        W28211   3.832  29.218   0.470
55787W        W28212   3.793  27.401   1.491
55788W        W28213  36.351  21.589  13.702
55789W        W28214  30.686  25.569  12.621
55790W        W28215  35.354  26.224  12.361
55791W        W28216   9.785  37.303  13.116
55792W        W28217  43.283  20.947  11.650
55793W        W28218  31.292   8.919  13.305
55794W        W28219  34.135  26.033  11.937
55795W        W28220  24.535   7.935  13.482
55796W        W28221  14.822  43.495   3.148
55797W        W28222  13.846  33.883  12.393
55798W        W28223  25.874   5.943   0.811
55799W        W28224  30.183   0.802  12.578
55800W        W28225   6.981   3.776  12.063
55801W        W28226  30.905  23.101  10.508
55802W        W28227  38.668   3.882   3.829
55803W        W28228  39.790  12.721   3.154
55804W        W28229   4.207   6.745   1.366
55805W        W28230  24.187  17.854  11.170
55806W        W28231  29.619  17.199   0.981
55807W        W28232  30.661  11.559  13.680
55808W        W28233   2.042  34.944  12.879
55809W        W28234   2.226  43.898   0.901
55810W        W28235  18.610  32.764   2.907
55811W        W28236  22.767  32.270   2.801
55812W        W28237  19.691   2.287  12.492
55813W        W28238  26.438   3.226   3.831
55814W        W28239  35.030  38.992   3.677
55815W        W28240  34.640   9.770   1.882
55816W        W28241   8.270  35.025  12.689
55817W        W28242  42.314  33.653  14.901
55818W        W28243  16.268  30.192  12.527
55819W        W28244  24.960  24.919  12.398
55820W        W28245  31.824  37.350   1.807
55821W        W28246  35.078  44.990  12.582
55822W        W28247  17.598  24.551   0.491
55823W        W28248  44.304  21.615   4.023
55824W        W28249  43.965  20.187   1.794
55825W        W28250   4.807  14.822  13.552
55826W        W28251   4.708   5.251   1.602
55827W        W28252  40.352   2.778  13.335
55828W        W28253   2.503  25.030  11.434
55829W        W28254  35.559  38.255   1.890
55830W        W28255   3.458  37.985  14.922
55831W        W28256  31.165  13.647   1.260
55832W        W28257   4.689  22.958  11.143
55833W        W28258  40.971  30.691   0.795
55834W        W28259  10.127  17.093  13.141
55835W        W28260  12.120  15.221  13.869
55836W        W28261  20.202  39.530  10.332
55837W        W28262   3.731  12.348  10.699
55838W        W28263  14.360  38.050   3.375
55839W        W28264  25.683  27.627   2.957
55840W        W28265  10.718  29.611  12.886
55841W        W28266  34.106  24.027   4.422
55842W        W28267  27.049   3.786   3.133
55843W        W28268   3.260  30.631   1.847
55844W        W28269  40.607  19.143   3.135
55845W        W28270  29.596  27.060  11.595
55846W        W28271  25.605  28.586  13.116
55847W        W28272  28.035  10.255  14.987
55848W        W28273  32.903  29.929   3.657
55849W        W28274  38.382  33.154   1.615
55850W        W28275  39.460  22.963   3.760
55851W        W28276  23.765  29.370  12.567
55852W        W28277  32.962  44.342   4.693
55853W        W28278  10.909  31.190   2.185
55854W        W28279   5.589  16.164   1.111
55855W        W28280   2.939   8.086  11.232
55856W        W28281  34.837   9.394   0.795
55857W        W28282  11.329   1.891  10.147
55858W        W28283  43.137  32.956   0.935
55859W        W28284  30.529  23.997  10.502
55860W        W28285  29.155  13.194  13.312
55861W        W28286   9.372   3.861   2.466
55862W        W28287  42.989  10.717   0.688
55863W        W28288   0.694  23.919  12.484
55864W        W28289   1.816  20.669   0.819
55865W        W28290  16.222   5.691  12.327
55866W        W28291  29.990  37.145  12.070
55867W        W28292  28.003  28.000   0.965
55868W        W28293   8.216  39.913   1.823
55869W        W28294   6.676   4.304   4.319
55870W        W28295  11.678  18.596   3.874
55871W        W28296  24.184  30.968   2.920
55872W        W28297   3.253   7.119  13.524
55873W        W28298  15.166  42.334   3.648
55874W        W28299   8.933  35.018  13.345
55875W        W28300  42.419  17.939  13.962
55876W        W28301   5.650  15.090   1.210
55877W        W28302  11.576  30.150   2.310
55878W        W28303   6.233   6.292   1.795
55879W        W28304  17.114  22.103   0.040
55880W        W28305  21.134  22.783   2.132
55881W        W28306   0.499  35.473   3.306
55882W        W28307  11.686  23.523  14.301
55883W        W28308  33.692  27.451  11.583
55884W        W28309  22.099  25.923   1.903
55885W        W28310  43.481  38.311  13.506
55886W        W28311  16.842  29.172   4.398
55887W        W28312  39.905  23.609   0.089
55888W        W28313  16.900   7.838  13.863
55889W        W28314  27.700  10.617   0.684
55890W        W28315   2.973  39.980  11.096
55891W        W28316  34.627  13.118   4.243
55892W        W28317  32.198  35.234   3.249
55893W        W28318   8.132   3.489  14.059
55894W        W28319  28.832  10.518  13.201
55895W        W28320  18.633   5.697   0.537
55896W        W28321  40.854  43.940  13.981
55897W        W28322   5.664  16.446   4.582
55898W        W28323  35.379  21.456  10.573
55899W        W28324  37.063  31.582   1.338
55900W        W28325  31.944   5.020  10.147
55901W        W28326  13.578  39.378   0.930
55902W        W28327  28.377  32.883  11.391
55903W        W28328  42.357   7.243  10.555
55904W        W28329  34.322  10.870   4.545
55905W        W28330  20.872  38.954   1.796
55906W        W28331  30.382  38.125  14.423
55907W        W28332   6.211   9.393   2.407
55908W        W28333   7.408  18.806   4.870
55909W        W28334  16.541  40.004   1.156
55910W        W28335  23.539   6.402   2.679
55911W        W28336   2.820   7.246  13.289
55912W        W28337  17.890   1.895  11.076
55913W        W28338  14.809  17.207  14.888
55914W        W28339  19.622  40.949   2.744
55915W        W28340   4.124  43.858   2.589
55916W        W28341  32.948  14.139  13.454
55917W        W28342  12.265  13.565   2.178
55918W        W28343  12.634  25.699  12.082
55919W        W28344  19.290  17.191   2.707
55920W        W28345  40.028   0.233   4.346
55921W        W28346  18.273  13.740   2.815
55922W        W28347  10.648   7.448  14.550
55923W        W28348  11.644  29.743   5.240
55924W        W28349  42.363  23.301   4.774
55925W        W28350  28.503   5.761   3.881
55926W        W28351  34.237   7.482  13.167
55927W        W28352  41.596  11.651  12.815
55928W        W28353  40.527  20.415  11.488
55929W        W28354   3.762  27.422  12.663
55930W        W28355  23.647  18.697  11.071
55931W        W28356  12.258  38.539   2.570
55932W        W28357  11.321  23.074  11.663
55933W        W28358  34.399  37.563  11.527
55934W        W28359   6.855   2.748  13.119
55935W        W28360  26.229  15.864  11.120
55936W        W28361  22.770   4.447   1.996
55937W        W28362  31.194  36.855   1.549
55938W        W28363   5.918  11.714   0.467
55939W        W28364   0.125  22.462  10.734
55940W        W28365  17.770  33.816  14.316
55941W        W28366  41.449   5.506   4.595
55942W        W28367  37.521  12.633   2.257
55943W        W28368  35.553   0.731  10.750
55944W        W28369  24.534  35.969  14.763
55945W        W28370   1.776  32.964   4.581
55946W        W28371  31.435   7.783   4.949
55947W        W28372   1.751  19.112   1.513
55948W        W28373  30.091  40.520   4.276
55949W        W28374  40.661  11.396   2.288
55950W        W28375   4.677  30.817   2.742
55951W        W28376  23.290  38.531   1.773
55952W        W28377  32.923  33.067   0.615
55953W        W28378  22.889  12.088  14.709
55954W        W28379  23.507  26.688   0.199
55955W        W28380   7.853  23.109  13.073
55956W        W28381   0.009  33.167   4.071
55957W        W28382  43.198  39.511  11.567
55958W        W28383  24.913  18.584   3.270
55959W        W28384   7.966  16.194  13.504
55960W        W28385  15.421  33.557  13.389
55961W        W28386  31.538  20.577   0.221
55962W        W28387   6.984  16.162   3.790
55963W        W28388  23.353  34.579  11.669
55964W        W28389  11.941  24.807  13.380
55965W        W28390  29.475  34.845   4.684
55966W        W28391  20.549  11.571  12.517
55967W        W28392  21.630  44.970  14.414
55968W        W28393  20.323  32.390  12.021
55969W        W28394  37.757  41.812  11.948
55970W        W28395  37.320  37.870  14.426
55971W        W28396  14.311  18.681   1.654
55972W        W28397   9.424  41.247  11.140
55973W        W28398  25.610   9.045   2.801
55974W        W28399  27.440   2.304   1.799
55975W        W28400   0.047  10.186   1.372
55976W        W28401  29.568   0.045  14.884
55977W        W28402  26.679  22.551   4.122
55978W        W28403  17.490  42.733  13.461
55979W        W28404   4.253  30.225  12.956
55980W        W28405  17.385  34.626   2.752
55981W        W28406  23.239  23.540   2.275
55982W        W28407  35.507  12.792   2.853
55983W        W28408   0.300  44.255  12.961
55984W        W28409  26.301  40.321  13.942
55985W        W28410  12.405  36.128   2.787
55986W        W28411  29.954  39.945   4.246
55987W        W28412  36.551   1.246   1.670
55988W        W28413  22.877  38.442  14.867
55989W        W28414   2.022   4.585  10.610
55990W        W28415  13.821  35.026  10.976
55991W        W28416   3.415  31.041   3.608
55992W        W28417  10.535  23.044  13.156
55993W        W28418  36.453  35.981  11.547
55994W        W28419  25.204   8.163  13.386
55995W        W28420  33.086  30.229  12.492
55996W        W28421  28.978  26.230  13.469
55997W        W28422   6.136   0.116   2.384
55998W        W28423  34.104  10.130  13.271
55999W        W28424  10.364  43.029  11.165
56000W        W28425  11.852   7.889  11.503
56001W        W28426  38.504   7.674   4.085
56002W        W28427   3.031  10.655   1.250
56003W        W28428  43.432  14.080  13.011
56004W        W28429  35.844  18.476   2.309
56005W        W28430   4.509  21.190   4.596
56006W        W28431  19.365  27.575  13.475
56007W        W28432   1.162  28.995  12.039
56008W        W28433  19.799  39.528   3.918
56009W        W28434  10.269  35.126  10.676
56010W        W28435  17.558  43.895   0.712
56011W        W28436  11.389   4.216   3.693
56012W        W28437  19.995   5.469  11.395
56013W        W28438  19.263  20.705   3.811
56014W        W28439   5.358  24.513  10.760
56015W        W28440  23.154  22.556   1.190
56016W        W28441  37.069  20.534   3.693
56017W        W28442  30.006  21.561  14.527
56018W        W28443  44.723   5.396  13.005
56019W        W28444  10.689  11.755  12.487
56020W        W28445  19.034  13.960   0.076
56021W        W28446  20.113   0.493   4.109
56022W        W28447   1.422  34.415   4.363
56023W        W28448  16.824  25.191   2.416
56024W        W28449  11.313  13.179   2.320
56025W        W28450  12.424  28.648   2.400
56026W        W28451   5.328   2.294   0.418
56027W        W28452  28.053  34.994   2.672
56028W        W28453  11.165  41.817   3.764
56029W        W28454  16.544  43.495   3.207
56030W        W28455   7.613  19.218  12.418
56031W        W28456  27.498  36.932   3.584
56032W        W28457  31.587  14.688  13.844
56033W        W28458  37.958  17.231  11.503
56034W        W28459  31.334  22.541  12.565
56035W        W28460  24.871  34.466   3.221
56036W        W28461   4.507  27.610  12.547
56037W        W28462  14.119  38.403  14.975
56038W        W28463  33.646  17.233  14.026
56039W        W28464  10.351   2.998  13.017
56040W        W28465   3.960  19.250   0.751
56041W        W28466  31.890  28.933  11.215
56042W        W28467  22.160  12.156  13.056
56043W        W28468   6.788  20.219  12.088
56044W        W28469  21.737  16.619   4.683
56045W        W28470  29.052   4.953  13.826
56046W        W28471  13.364   9.396   4.564
56047W        W28472  30.370  15.533  10.525
56048W        W28473  30.970  35.445  12.429
56049W        W28474  33.624  37.136   2.984
56050W        W28475  24.533  43.086  12.542
56051W        W28476  12.744  44.938   0.425
56052W        W28477  27.671  38.423  10.690
56053W        W28478  24.023  39.801  14.134
56054W        W28479  39.782  16.059  11.402
56055W        W28480  30.454   4.219  14.030
56056W        W28481  15.571  40.338   4.886
56057W        W28482  34.965  36.810  13.521
56058W        W28483  41.379  18.967   3.519
56059W        W28484  20.773  11.732  12.083
56060W        W28485  38.710  39.883  12.066
56061W        W28486  16.219  40.262   0.809
56062W        W28487  39.867   8.260  13.455
56063W        W28488  22.047  36.648   2.115
56064W        W28489  31.048  29.982  11.229
56065W        W28490  28.877   8.711   2.270
56066W        W28491   8.130  21.179  10.124
56067W        W28492  29.117  18.341   0.797
56068W        W28493  17.485  41.900   1.640
56069W        W28494   8.291  15.685  14.945
56070W        W28495  14.802   8.213  13.000
56071W        W28496   1.698  16.180   0.516
56072W        W28497  32.239  21.035  14.629
56073W        W28498  32.888  14.686  11.009
56074W        W28499   8.188   4.607  11.849
56075W        W28500  17.035  31.946   2.705
56076W        W28501  22.091  20.816  11.091
56077W        W28502  38.286   8.827   0.785
56078W        W28503  16.829  10.457  12.325
56079W        W28504  33.621  13.366   1.171
56080W        W28505  43.818   0.281   0.711
56081W        W28506  32.573  42.282   4.019
56082W        W28507   1.498   0.810   0.497
56083W        W28508  41.521  40.857  14.747
56084W        W28509  30.510  35.937  13.062
56085W        W28510  40.294  41.588  11.853
56086W        W28511  17.171  12.352  14.213
56087W        W28512  25.136  15.849   4.982
56088W        W28513   3.230   5.483   3.359
56089W        W28514  31.944  23.623   2.590
56090W        W28515   7.679  20.755  11.168
56091W        W28516  34.787   1.864   1.766
56092W        W28517  29.463  33.100   4.068
56093W        W28518  34.998  34.314  14.430
56094W        W28519   3.750  30.271   4.909
56095W        W28520  21.698  37.000  10.769
56096W        W28521  29.125  33.856   0.979
56097W        W28522  43.498  33.181  14.032
56098W        W28523  11.310  42.720  13.911
56099W        W28524  33.136  18.170   3.695
56100W        W28525  14.308  44.967  11.988
56101W        W28526   0.888   8.511   4.974
56102W        W28527   4.871  19.390  12.448
56103W        W28528  34.595  17.581   2.409
56104W        W28529   9.884   4.319  11.472
56105W        W28530  32.402  27.641   3.699
56106W        W28531  42.935  27.377  13.956
56107W        W28532  33.518  16.733  10.728
56108W        W28533  13.345   7.386  11.567
56109W        W28534  14.750  17.797  13.097
56110W        W28535   4.700  15.388  12.781
56111W        W28536  37.473  42.104   1.186
56112W        W28537  11.595  41.741   3.273
56113W        W28538   5.660  28.796   4.974
56114W        W28539  17.711   4.221  12.890
56115W        W28540   5.363  28.587   0.452
56116W        W28541  15.751  33.192   2.699
56117W        W28542  20.993   9.972  10.728
56118W        W28543  12.708   6.393   3.176
56119W        W28544  24.079   1.458   0.238
56120W        W28545  13.688  20.307   2.219
56121W        W28546   6.751  35.650  11.148
56122W        W28547  42.425  30.946  11.941
56123W        W28548  23.758   0.690   2.161
56124W        W28549   1.782  24.457  14.771
56125W        W28550  25.525  17.557   2.817
56126W        W28551  43.058  38.096  13.706
56127W        W28552  35.587  24.172  10.992
56128W        W28553  25.617   1.932  14.075
56129W        W28554  40.541  28.979  11.230
56130W        W28555  34.416  11.391   3.721
56131W        W28556  13.099  13.676  13.508
56132W        W28557   4.019  32.060  11.117
56133W        W28558  27.759  41.935  10.509
56134W        W28559  36.399  34.974   3.175
56135W        W28560   0.782   4.815   1.482
56136W        W28561  38.897  28.760   0.657
56137W        W28562  30.476   1.343   4.615
56138W        W28563   7.179  42.966   1.793
56139W        W28564  27.030   2.327   3.265
56140W        W28565   8.319  18.032   3.438
56141W        W28566  40.551  42.855  12.667
56142W        W28567  20.797  26.034   0.244
56143W        W28568  19.951  39.063  13.401
56144W        W28569   5.255  42.516   0.560
56145W        W28570  11.843  31.952  11.258
56146W        W28571  35.054   7.812  12.196
56147W        W28572  37.488   5.195  12.168
56148W        W28573  10.375   4.632  14.741
56149W        W28574   0.657  33.589  13.072
56150W        W28575  24.467  15.789   2.729
56151W        W28576   7.783  37.529  11.872
56152W        W28577  36.967   6.792  14.654
56153W        W28578  40.550  32.909   2.725
56154W        W28579  33.328  29.456  13.492
56155W        W28580   1.276   8.847   3.845
56156W        W28581  21.475  39.616  14.771
56157W        W28582  28.023  20.292   0.324
56158W        W28583  32.534  19.732  13.849
56159W        W28584  40.820  19.752  10.596
56160W        W28585   7.347  40.915   4.732
56161W        W28586  11.586  16.824  13.482
56162W        W28587   5.857   7.781   4.820
56163W        W28588  36.695   0.489   0.999
56164W        W28589  32.502  20.988   0.761
56165W        W28590  22.024  33.420   2.773
56166W        W28591  37.998  39.809   3.269
56167W        W28592  23.069  27.295   2.842
56168W        W28593  42.709  32.113  14.961
56169W        W28594  35.207  14.464  13.999
56170W        W28595  29.662  35.093   1.961
56171W        W28596   8.326  39.774  14.830
56172W        W28597   1.034  19.616  13.912
56173W        W28598   3.281  34.620  14.262
56174W        W28599   5.706  12.914   3.371
56175W        W28600  13.652   4.240  13.585
56176W        W28601  40.527  33.654   4.128
56177W        W28602   2.242  31.410  11.592
56178W        W28603  22.148   6.589  11.697
56179W        W28604  28.492  37.091  11.102
56180W        W28605  41.041  28.292   0.750
56181W        W28606  23.950  42.843   4.251
56182W        W28607  24.167  10.756  13.264
56183W        W28608  22.120   9.391   9.751
56184W        W28609  16.300  44.867   4.638
56185W        W28610  13.718  41.258  11.823
56186W        W28611  30.620  32.555   3.884
56187W        W28612  28.359  16.959  14.899
56188W        W28613  31.023  36.592  11.198
56189W        W28614   6.758  28.696   3.532
56190W        W28615  39.757  27.019  11.955
56191W        W28616   0.328   3.798   3.192
56192W        W28617  33.132   2.955   3.787
56193W        W28618  14.392  28.555  14.228
56194W        W28619  11.864  29.117   3.774
56195W        W28620  30.990  12.927  14.946
56196W        W28621   2.608  13.379   3.260
56197W        W28622   2.974  31.544   3.684
56198W        W28623  10.187  14.549   2.760
56199W        W28624  37.408  10.363  10.711
56200W        W28625  25.286  27.839  10.274
56201W        W28626   9.709   1.551   0.935
56202W        W28627  31.090  39.096   2.360
56203W        W28628  42.773   4.935   4.145
56204W        W28629  23.407   1.354   1.957
56205W        W28630  23.684   5.511  12.832
56206W        W28631   1.381  31.920   0.005
56207W        W28632  38.696  38.525  13.473
56208W        W28633   0.081  32.708  12.931
56209W        W28634  12.263  21.293  10.605
56210W        W28635  33.371  20.003  10.372
56211W        W28636  15.652  25.111  10.911
56212W        W28637  24.523   6.338  13.009
56213W        W28638  21.014  24.779   2.658
56214W        W28639  22.923  29.138  13.367
56215W        W28640  13.698  22.258   2.233
56216W        W28641  24.523  20.339  13.180
56217W        W28642  23.003  14.098  13.012
56218W        W28643   2.476  22.201  14.932
56219W        W28644  19.994  39.323  14.922
56220W        W28645  15.545  21.066   4.984
56221W        W28646  13.955  12.211  14.296
56222W        W28647  12.555  24.734   3.836
56223W        W28648  20.065   9.391   3.325
56224W        W28649  14.706  24.958  13.347
56225W        W28650  39.340  15.063  12.168
56226W        W28651  39.452  27.173   4.557
56227W        W28652  28.936   9.156  10.882
56228W        W28653   8.842  15.806  11.061
56229W        W28654  39.807  41.603  11.735
56230W        W28655  35.441  32.781  11.062
56231W        W28656  17.759   9.579  12.586
56232W        W28657  40.749  26.774  11.597
56233W        W28658  22.622  28.568   4.164
56234W        W28659  32.115  19.704  10.649
56235W        W28660  32.413  35.091   4.574
56236W        W28661   1.046  43.311   2.189
56237W        W28662   7.276  20.588  11.499
56238W        W28663  25.700  28.187   4.753
56239W        W28664  16.011  30.132   2.623
56240W        W28665  12.057  38.023  13.377
56241W        W28666  31.429   7.854  13.738
56242W        W28667  32.568   3.779   3.205
56243W        W28668   4.190  13.782  12.560
56244W        W28669  25.526   5.345  13.906
56245W        W28670  37.863  13.120   0.779
56246W        W28671  22.011  11.902  11.554
56247W        W28672  28.976  21.771   5.041
56248W        W28673  16.817  35.059   0.456
56249W        W28674  19.606  13.209  11.475
56250W        W28675  41.345  19.081  12.096
56251W        W28676  40.435  11.874   1.364
56252W        W28677  16.208  12.347  12.544
56253W        W28678   2.798   8.890  14.250
56254W        W28679  24.135  41.892  14.101
56255W        W28680  28.019  20.740   2.318
56256W        W28681  11.381  31.654  13.380
56257W        W28682  21.782  33.154   2.382
56258W        W28683  13.114  43.265   1.391
56259W        W28684   0.708  14.703   1.782
56260W        W28685  13.816  23.152  14.519
56261W        W28686  32.433  19.298   3.566
56262W        W28687   6.796  27.502   4.708
56263W        W28688   6.393  40.962   0.262
56264W        W28689  38.346   2.038  12.368
56265W        W28690  21.040   9.637  13.939
56266W        W28691  24.575   5.655   0.855
56267W        W28692   6.864  39.270  11.540
56268W        W28693  28.020  18.298   0.334
56269W        W28694  11.757  19.005   1.388
56270W        W28695  35.422  43.590   4.779
56271W        W28696  43.458   3.322   5.163
56272W        W28697  12.170  41.361  10.704
56273W        W28698  12.218  22.560   2.227
56274W        W28699  16.800   5.867  10.534
56275W        W28700  43.235  26.339  11.574
56276W        W28701  40.284   4.182  13.426
56277W        W28702  24.163   5.214   1.823
56278W        W28703  24.980   7.682  13.423
56279W        W28704  40.056   6.139   1.738
56280W        W28705  18.304   8.321  12.610
56281W        W28706   6.205  32.611   2.182
56282W        W28707  44.730  30.412  14.876
56283W        W28708   6.340  22.443  13.318
56284W        W28709   1.443  11.432   2.682
56285W        W28710  19.108  12.273  13.340
56286W        W28711  24.176   3.236  11.679
56287W        W28712  16.982  11.087   2.355
56288W        W28713  20.649  39.504   3.583
56289W        W28714   2.771  43.641   2.588
56290W        W28715  19.813  37.373   0.378
56291W        W28716  33.411  15.767  12.864
56292W        W28717   2.151  40.911  14.948
56293W        W28718  21.160  16.009   0.995
56294W        W28719  26.649  42.800  12.292
56295W        W28720  15.704  11.787   4.096
56296W        W28721   3.528  29.928   2.762
56297W        W28722  12.119  26.079  10.804
56298W        W28723  42.835  44.897  14.896
56299W        W28724  14.105  38.989  14.021
56300W        W28725   4.729  12.299  13.084
56301W        W28726   3.144  43.484  13.904
56302W        W28727  30.114   8.604   1.883
56303W        W28728   5.145  33.399  12.904
56304W        W28729  30.878  21.566   1.760
56305W        W28730  31.652   9.133  11.595
56306W        W28731  23.752  24.456   4.541
56307W        W28732  25.569  37.185   1.499
56308W        W28733  40.908  40.884  12.610
56309W        W28734   1.390  43.028   1.940
56310W        W28735  32.506  26.588   3.813
56311W        W28736  12.230   0.754  13.775
56312W        W28737  24.469   3.377  10.720
56313W        W28738  12.637  39.764   0.742
56314W        W28739  37.969  28.366  14.731
56315W        W28740   2.879  33.034  14.182
56316W        W28741  27.062   1.946  10.757
56317W        W28742  38.390  33.930  13.074
56318W        W28743   7.338  28.649   1.197
56319W        W28744  38.578  27.937   0.769
56320W        W28745   6.404  35.274   3.619
56321W        W28746  40.258  13.538  12.460
56322W        W28747  18.553  27.936   9.735
56323W        W28748  12.345  23.163  13.767
56324W        W28749  20.078  23.098   1.157
56325W        W28750   9.927   2.159  13.893
56326W        W28751   2.652  33.818   3.658
56327W        W28752   2.952  10.394   2.323
56328W        W28753  19.796  29.509  11.136
56329W        W28754  23.315  39.024   3.805
56330W        W28755  39.129   5.593   0.372
56331W        W28756   5.154  33.617   4.597
56332W        W28757  39.849  11.701   2.273
56333W        W28758  12.654  42.829  11.658
56334W        W28759  26.507  12.197   3.263
56335W        W28760  23.214  18.705  10.707
56336W        W28761  32.943  43.012  12.566
56337W        W28762  25.211  22.655   1.731
56338W        W28763  30.168   4.335   2.246
56339W        W28764  16.559  23.540   0.079
56340W        W28765  12.023  12.356   1.585
56341W        W28766  40.617  12.318  14.838
56342W        W28767  32.010   4.820   1.782
56343W        W28768  16.762  23.580  14.372
56344W        W28769  28.948  26.635   0.981
56345W        W28770  10.841   4.085   0.250
56346W        W28771  35.654   8.330  13.312
56347W        W28772  27.985  20.833   0.470
56348W        W28773  13.302   0.960  10.610
56349W        W28774  42.884  30.876   0.037
56350W        W28775   3.750   6.205  13.959
56351W        W28776   0.399  15.075  14.980
56352W        W28777  32.361  15.853  14.279
56353W        W28778  14.734   4.727   3.591
56354W        W28779  27.400  20.208   0.026
56355W        W28780  18.569  28.374   4.249
56356W        W28781   5.739  20.749  12.745
56357W        W28782  40.444  17.296   3.215
56358W        W28783  11.440  23.521  11.910
56359W        W28784  41.929  31.576  14.754
56360W        W28785   7.491  36.284  11.357
56361W        W28786  22.376  40.119   3.266
56362W        W28787  44.891  12.845  13.393
56363W        W28788   0.342  33.036  14.933
56364W        W28789  10.534  30.384  13.475
56365W        W28790  29.386  28.405  12.483
56366W        W28791  11.612  29.145  11.995
56367W        W28792  10.645  33.530  11.582
56368W        W28793   4.983  43.818   2.337
56369W        W28794  39.103  11.300   0.300
56370W        W28795   3.941  18.215  14.752
56371W        W28796  28.676  38.788   5.375
56372W        W28797  12.740  18.126  12.386
56373W        W28798   9.400  35.824  13.472
56374W        W28799   3.002  11.237   2.405
56375W        W28800   5.559  20.028   2.710
56376W        W28801  12.327  44.897   2.840
56377W        W28802  42.540  29.038   1.901
56378W        W28803  41.498  18.819  14.895
56379W        W28804  37.456   6.005   3.253
56380W        W28805  40.846   5.399   0.107
56381W        W28806  11.339  22.016  11.575
56382W        W28807  44.845   8.846   4.639
56383W        W28808  12.746   9.864   1.807
56384W        W28809  16.484  11.396  11.972
56385W        W28810  26.970  19.662   4.463
56386W        W28811  23.639  35.553  10.662
56387W        W28812  12.402  16.489   1.034
56388W        W28813  31.373  35.945  11.858
56389W        W28814   7.982  35.188  10.754
56390W        W28815  16.397  30.835  13.815
56391W        W28816  37.045  38.445   1.623
56392W        W28817  16.865   0.554  13.005
56393W        W28818  38.488  20.050   3.821
56394W        W28819  39.544   3.420  12.481
56395W        W28820  32.053  15.943   3.815
56396W        W28821  10.610  42.754   2.283
56397W        W28822  11.662  33.865   0.213
56398W        W28823   6.247  38.374  10.755
56399W        W28824  38.007  32.201   3.940
56400W        W28825  16.863  15.896   0.734
56401W        W28826  25.933  14.305   3.174
56402W        W28827   5.629  30.081   0.841
56403W        W28828  33.900  44.247   2.496
56404W        W28829   4.717  17.841  14.085
56405W        W28830  27.517   4.752  14.196
56406W        W28831  39.410  44.760  11.554
56407W        W28832  40.282  24.452  14.591
56408W        W28833  42.283  16.990   1.718
56409W        W28834  17.026  13.767  14.349
56410W        W28835  23.592  37.487  11.423
56411W        W28836  25.952   7.816  11.604
56412W        W28837  24.408  32.313   3.897
56413W        W28838  34.117  11.616  11.969
56414W        W28839  30.438  28.627  13.413
56415W        W28840  13.324  21.707   0.840
56416W        W28841  30.605  29.286   3.692
56417W        W28842   9.190  37.336  12.063
56418W        W28843  38.054   2.283  11.200
56419W        W28844  23.069  26.972  10.618
56420W        W28845  40.626   7.613   2.767
56421W        W28846  40.771   0.301  12.874
56422W        W28847  20.047  18.777  13.418
56423W        W28848   7.236   8.598   5.111
56424W        W28849   7.870  41.792  13.075
56425W        W28850  36.121   5.431  12.956
56426W        W28851  33.034  41.555  13.059
56427W        W28852  33.878  15.543   1.091
56428W        W28853  30.170  13.886  11.038
56429W        W28854  11.358  17.280   3.286
56430W        W28855  31.191  31.420  12.342
56431W        W28856  25.626  37.357   3.190
56432W        W28857  14.865  32.059   0.386
56433W        W28858  42.982  40.015  13.010
56434W        W28859  22.478   8.399  13.250
56435W        W28860   6.463  15.395   0.271
56436W        W28861  41.536  30.037   1.619
56437W        W28862  15.274  35.304   2.624
56438W        W28863  32.486  35.094   1.808
56439W        W28864  29.444  44.488   1.677
56440W        W28865  23.729  20.272  11.526
56441W        W28866  31.750  29.976   4.928
56442W        W28867  13.168  35.293  11.474
56443W        W28868  23.500  25.473  10.724
56444W        W28869  32.226  39.230   4.687
56445W        W28870  37.945   1.575   3.250
56446W        W28871  23.679  24.533   2.474
56447W        W28872  10.747  36.429   4.596
56448W        W28873  31.979  16.642   2.146
56449W        W28874  20.069   7.147   2.742
56450W        W28875   9.774   7.376   0.938
56451W        W28876   3.536  14.298  12.004
56452W        W28877  12.375  15.534  11.038
56453W        W28878  15.861  24.249   3.296
56454W        W28879  42.560  18.724   2.795
56455W        W28880  38.517   2.934   0.399
56456W        W28881  28.105  29.122  13.425
56457W        W28882  18.013  37.383   0.277
56458W        W28883  24.663  23.319  12.816
56459W        W28884  14.863  36.988  13.029
56460W        W28885  35.809  11.083  11.093
56461W        W28886  31.898  10.285  11.768
56462W        W28887  12.734  36.027  12.929
56463W        W28888  16.259  41.816  11.037
56464W        W28889  44.308  29.256  12.545
56465W        W28890  39.458  41.898   1.246
56466W        W28891  26.606  19.332  14.712
56467W        W28892  41.852  26.466   2.821
56468W        W28893  21.639  22.347   4.266
56469W        W28894  35.343   1.806   1.805
56470W        W28895  44.343  36.583  10.486
56471W        W28896  44.804   6.833  14.441
56472W        W28897  20.443   5.848   0.979
56473W        W28898  31.902  38.395   0.336
56474W        W28899  20.246  34.108   1.871
56475W        W28900  34.127   3.779  13.367
56476W        W28901   4.043  19.496   1.219
56477W        W28902  14.435  34.524  11.064
56478W        W28903  31.163  33.001  14.123
56479W        W28904   7.198  33.198   4.844
56480W        W28905  39.013  24.032   3.030
56481W        W28906  29.090  35.844  14.758
56482W        W28907  41.574  41.534  14.975
56483W        W28908  21.073  21.263   2.172
56484W        W28909  24.503  41.087   0.759
56485W        W28910   4.072  26.909  14.813
56486W        W28911  38.297  28.739   3.604
56487W        W28912  22.440  14.062  13.002
56488W        W28913   3.822   6.649   3.258
56489W        W28914  35.586   1.802   3.061
56490W        W28915  24.497  43.353   4.602
56491W        W28916   4.807  40.439   0.206
56492W        W28917   8.035  36.254  12.827
56493W        W28918  42.543  30.532   0.287
56494W        W28919  13.122  39.551  11.909
56495W        W28920  29.473  11.858  13.958
56496W        W28921   5.424  18.657   1.921
56497W        W28922  40.517  42.716   4.163
56498W        W28923  17.375  26.217   1.893
56499W        W28924   7.494   8.767  11.461
56500W        W28925  34.043  16.732   4.346
56501W        W28926  22.999  21.120  14.876
56502W        W28927  32.201  42.789  13.400
56503W        W28928  21.698  24.730   0.541
56504W        W28929   1.467  22.931  14.051
56505W        W28930  22.704  39.140   4.571
56506W        W28931   3.156  27.457   3.859
56507W        W28932   8.258  17.927   1.502
56508W        W28933  22.902  16.058  11.878
56509W        W28934  12.362  25.740   2.102
56510W        W28935  34.102  13.896  12.978
56511W        W28936  21.650  43.492   3.703
56512W        W28937   2.270  39.679  10.261
56513W        W28938  15.911  28.626  10.703
56514W        W28939  40.898  20.583   4.989
56515W        W28940  14.116   5.028   1.979
56516W        W28941   4.962  30.992  14.323
56517W        W28942   9.777   9.600  14.435
56518W        W28943  21.719  13.499   4.164
56519W        W28944  37.457  24.651   3.128
56520W        W28945  40.647   9.424   4.561
56521W        W28946  36.525  40.209   4.677
56522W        W28947   1.156  22.691  15.000
56523W        W28948  17.966  38.050  12.555
56524W        W28949  41.331  25.717   3.124
56525W        W28950  20.565  16.174   0.034
56526W        W28951   9.646  23.292   3.799
56527W        W28952   8.032  12.295  10.690
56528W        W28953  19.241   5.662  12.121
56529W        W28954  19.637  30.364   3.256
56530W        W28955  39.772  33.905  10.427
56531W        W28956  23.930   8.671  13.525
56532W        W28957  22.156  21.265  13.386
56533W        W28958  38.343  38.262   1.794
56534W        W28959   1.486  34.718   3.938
56535W        W28960  26.738   2.501  11.922
56536W        W28961   3.993   2.981   1.354
56537W        W28962  39.967  41.720   2.231
56538W        W28963  41.109  44.756  10.518
56539W        W28964  12.190  17.747  14.689
56540W        W28965  18.026  44.445  11.989
56541W        W28966  33.324  21.141  11.501
56542W        W28967  42.281   8.718  13.497
56543W        W28968  34.002  13.647   1.418
56544W        W28969  31.952   4.780  13.995
56545W        W28970  44.273  34.039  12.195
56546W        W28971  39.538  16.668   3.660
56547W        W28972  30.592   3.542   2.444
56548W        W28973  29.059  37.276  14.429
56549W        W28974  21.624  27.832   0.685
56550W        W28975   7.239  33.719   4.768
56551W        W28976  21.771  25.535  13.947
56552W        W28977  10.530   0.855  14.529
56553W        W28978  32.855  18.316  13.997
56554W        W28979  41.811   5.460   2.841
56555W        W28980  25.620  24.062   5.043
56556W        W28981   6.801   2.146   1.382
56557W        W28982   7.301   1.234   2.339
56558W        W28983   8.773   8.612   3.609
56559W        W28984  16.373   1.284  11.922
56560W        W28985  41.620   6.846   1.881
56561W        W28986  32.332  21.178  11.508
56562W        W28987  18.216   9.669   4.498
56563W        W28988  11.143  19.683  13.177
56564W        W28989  29.010  43.599   1.832
56565W        W28990  19.680  36.950  11.100
56566W        W28991   2.348  34.061  13.563
56567W        W28992  19.697   0.652   3.603
56568W        W28993  16.788  37.025   0.757
56569W        W28994  29.700  14.572   3.700
56570W        W28995   9.415  34.005  11.837
56571W        W28996  42.819  25.680   4.055
56572W        W28997  20.333  28.634  14.092
56573W        W28998  36.478  43.626   1.541
56574W        W28999  36.587  38.042   2.674
56575W        W29000  39.892  16.153   2.301
56576W        W29001  39.505  11.785   4.143
56577W        W29002  39.458  43.371   0.075
56578W        W29003  44.989   4.999   3.692
56579W        W29004  22.492  13.268   0.255
56580W        W29005  31.889   7.132   1.117
56581W        W29006   7.439  16.200  12.135
56582W        W29007  33.386  43.239  13.762
56583W        W29008  16.030  31.378   5.423
56584W        W29009  29.129  42.849   1.258
56585W        W29010  41.809  16.121   1.160
56586W        W29011  39.726  15.827  12.395
56587W        W29012  21.033  25.632   4.171
56588W        W29013  28.274   4.891   4.999
56589W        W29014  11.474  15.596  13.060
56590W        W29015  10.399  22.118  10.618
56591W        W29016  19.710   1.502  14.870
56592W        W29017  18.398   4.790   4.922
56593W        W29018  43.830  25.642  14.505
56594W        W29019  39.429   2.106  13.794
56595W        W29020  43.435  33.976   9.872
56596W        W29021  41.336  24.719   2.204
56597W        W29022  18.496  18.703  13.355
56598W        W29023   7.172   1.360   4.647
56599W        W29024  44.994  26.910   0.198
56600W        W29025  19.376  19.229   2.068
56601W        W29026  26.020  16.093   2.662
56602W        W29027   6.604  19.543   4.476
56603W        W29028  34.128   5.261  11.997
56604W        W29029  27.279  43.882  13.032
56605W        W29030  10.863  25.636  10.896
56606W        W29031  40.196  26.422  13.114
56607W        W29032  23.840  28.569   2.659
56608W        W29033  44.904  27.261   1.752
56609W        W29034  17.239   0.540   2.613
56610W        W29035  27.467  44.346  12.895
56611W        W29036  33.585  31.199   0.025
56612W        W29037   8.857   0.230  12.978
56613W        W29038  36.356   4.815  14.312
56614W        W29039  21.740  35.880   1.797
56615W        W29040  40.419  22.017   1.416
56616W        W29041  25.973   6.216   2.412
56617W        W29042  13.317  32.457   2.416
56618W        W29043  11.148  25.840  13.035
56619W        W29044  20.734   4.791  12.578
56620W        W29045  20.992  13.707  10.702
56621W        W29046  30.171  37.736  14.705
56622W        W29047   0.217  14.883   3.188
56623W        W29048  40.039  27.968  13.856
56624W        W29049   4.414  23.214  11.523
56625W        W29050  23.818  24.241  12.525
56626W        W29051  21.365  15.882  11.512
56627W        W29052  42.146   5.413  13.313
56628W        W29053  33.376  44.928   3.169
56629W        W29054  32.333   3.343   2.355
56630W        W29055  25.185  22.573  11.546
56631W        W29056   4.681  14.272   1.858
56632W        W29057  22.013   8.335  14.876
56633W        W29058  22.278  34.572   0.717
56634W        W29059  10.173  15.824   3.189
56635W        W29060  19.284  19.939   4.690
56636W        W29061  18.198   3.175   3.151
56637W        W29062  32.518  44.647  14.413
56638W        W29063   6.647   6.974   1.466
56639W        W29064  25.478  20.609   3.633
56640W        W29065  43.426   1.194  11.114
56641W        W29066  23.023  25.577   4.511
56642W        W29067  14.017  40.422   4.646
56643W        W29068  29.631  37.857   3.543
56644W        W29069  10.843   4.397  14.824
56645W        W29070   2.338  39.299  13.635
56646W        W29071  16.843  43.128  11.115
56647W        W29072   6.718  29.570  10.989
56648W        W29073  42.269   1.250  14.439
56649W        W29074   6.649   2.436   1.871
56650W        W29075  38.599   8.869  14.808
56651W        W29076  36.334  14.324   3.874
56652W        W29077  40.828  31.108   1.055
56653W        W29078  15.438  12.917  13.985
56654W        W29079  40.014  44.091   0.305
56655W        W29080  28.107  21.932   9.871
56656W        W29081  35.879  18.721  12.872
56657W        W29082   5.737  37.876   3.692
56658W        W29083   3.667   4.097  12.400
56659W        W29084  25.723   0.895   2.356
56660W        W29085  32.696  17.970  11.434
56661W        W29086  20.607  37.091  14.344
56662W        W29087  16.156  10.021   1.812
56663W        W29088   6.260   5.108   3.784
56664W        W29089  42.275  32.575  13.080
56665W        W29090  33.449  43.213  10.380
56666W        W29091  44.318  29.487   1.403
56667W        W29092   7.809   7.391   2.852
56668W        W29093  31.089  21.629  10.584
56669W        W29094  30.006  38.065  13.766
56670W        W29095  15.846  40.863   4.121
56671W        W29096  18.201  29.702   1.370
56672W        W29097  12.132  24.492   3.771
56673W        W29098  30.210  23.497  12.102
56674W        W29099  15.952  31.595  11.267
56675W        W29100  11.600   6.965  14.519
56676W        W29101   1.808  10.931  13.848
56677W        W29102  15.202  13.768  13.655
56678W        W29103  12.819  35.007   1.885
56679W        W29104   3.755  42.843   4.400
56680W        W29105  11.324  28.777   2.204
56681W        W29106   4.400  38.047   2.139
56682W        W29107  20.615   0.194   0.293
56683W        W29108  29.171  14.764   2.290
56684W        W29109  30.893  37.086   3.079
56685W        W29110  18.623   5.524   1.014
56686W        W29111  28.150  36.833  14.901
56687W        W29112  14.416   6.159   4.638
56688W        W29113  11.912  16.428  13.494
56689W        W29114  12.142  11.098   4.251
56690W        W29115  14.242   4.519  13.881
56691W        W29116  31.374  39.915  14.049
56692W        W29117  41.643  14.196   4.577
56693W        W29118  30.709  29.504  12.808
56694W        W29119  37.991  38.961  14.797
56695W        W29120   3.479   1.469   1.209
56696W        W29121   7.444  13.277  14.423
56697W        W29122  34.560   0.023   2.302
56698W        W29123   1.449   0.929  10.975
56699W        W29124  26.463  37.535  14.335
56700W        W29125  12.904   0.299   3.619
56701W        W29126   7.374  22.727   3.387
56702W        W29127  31.594   0.915   2.722
56703W        W29128  33.171   4.929   1.105
56704W        W29129  24.723  38.532   4.074
56705W        W29130   9.329   0.018  13.100
56706W        W29131  13.330   2.429   3.413
56707W        W29132  25.907  33.672   3.697
56708W        W29133   6.808  22.129   2.766
56709W        W29134  19.821   0.518  10.993
56710W        W29135  34.022  34.539  10.607
56711W        W29136  20.745   1.065  14.340
56712W        W29137   1.019  38.047   3.701
56713W        W29138  27.826  35.802   2.164
56714W        W29139  18.825   3.392   4.418
56715W        W29140  36.530  28.816  13.833
56716W        W29141  24.627  37.182  13.574
56717W        W29142  32.966  19.758   2.706
56718W        W29143   2.751  10.645   3.657
56719W        W29144  20.154  13.756  13.976
56720W        W29145  23.091   7.345  12.398
56721W        W29146  28.439  42.748  10.438
56722W        W29147  18.871  42.129   3.274
56723W        W29148  12.603  39.409  11.168
56724W        W29149  21.589  16.172  12.367
56725W        W29150  18.752  31.549   1.389
56726W        W29151  30.864  10.759  13.159
56727W        W29152  30.140  33.463   3.121
56728W        W29153   5.998  35.144   0.795
56729W        W29154  39.340  17.785   2.244
56730W        W29155  27.437  27.612  14.314
56731W        W29156  19.969  32.076   1.834
56732W        W29157  40.375   1.250   0.357
56733W        W29158  43.298  38.534  12.967
56734W        W29159   7.015  36.028  12.117
56735W        W29160   1.928  35.112  10.457
56736W        W29161  38.643  29.161   0.862
56737W        W29162  16.716   4.438  11.863
56738W        W29163  23.489  29.501   1.809
56739W        W29164  17.161  22.803   5.064
56740W        W29165   9.278  16.329  11.223
56741W        W29166  25.753   9.226   4.264
56742W        W29167  19.836  19.755   0.343
56743W        W29168  33.618  39.906  12.548
56744W        W29169  34.290  30.902   2.825
56745W        W29170  25.727  27.599   4.771
56746W        W29171  39.322  23.218  12.344
56747W        W29172  17.061   7.473   3.534
56748W        W29173  35.513  33.916   0.784
56749W        W29174  36.363   7.338  12.542
56750W        W29175  33.234   3.840   4.679
56751W        W29176   7.970  43.349  12.230
56752W        W29177  34.343  15.244   2.651
56753W        W29178  21.803   7.752  14.057
56754W        W29179   4.151  10.706   2.785
56755W        W29180  16.847  34.393   4.050
56756W        W29181  12.217  26.785  11.975
56757W        W29182  23.353  29.422   4.156
56758W        W29183  19.046  18.605  12.054
56759W        W29184  44.469  25.084  12.455
56760W        W29185  34.921  28.140  11.155
56761W        W29186  31.646  19.931  14.705
56762W        W29187  19.080  42.920  12.336
56763W        W29188  39.099  10.740   3.716
56764W        W29189  44.869  10.611   2.286
56765W        W29190  22.254  35.002   3.749
56766W        W29191  18.288  34.504  13.742
56767W        W29192  28.474  29.973  13.840
56768W        W29193  31.138   8.536  11.118
56769W        W29194  33.487  34.715  13.810
56770W        W29195  35.026  26.526   4.992
56771W        W29196  41.930  28.297   4.205
56772W        W29197  10.317  25.186  12.174
56773W        W29198  34.171  19.086   1.782
56774W        W29199  12.140   6.905   3.700
56775W        W29200  14.872  40.768   0.285
56776W        W29201  18.340  19.765   3.316
56777W        W29202   1.987  32.609   2.211
56778W        W29203  23.755  27.007   0.978
56779W        W29204  26.540  27.075   3.570
56780W        W29205  23.848  39.288   2.749
56781W        W29206  24.953  36.293  14.845
56782W        W29207  28.684  39.489   3.704
56783W        W29208  18.570  38.844  11.516
56784W        W29209  14.201  43.900   4.767
56785W        W29210   8.550  12.825   4.041
56786W        W29211   3.151  18.184   2.682
56787W        W29212  29.246  35.776   2.217
56788W        W29213  13.821  37.511   0.875
56789W        W29214  40.505  31.949   1.621
56790W        W29215  33.991  22.740  13.513
56791W        W29216  36.957  26.258  12.935
56792W        W29217   7.035  18.038   1.021
56793W        W29218  11.554  34.952   0.001
56794W        W29219  23.331   6.789   1.793
56795W        W29220  16.932   1.854  12.822
56796W        W29221  17.598  44.393  13.471
56797W        W29222  43.729  22.532  11.884
56798W        W29223  42.988  32.447  14.203
56799W        W29224  40.535  31.405   3.920
56800W        W29225  15.268  28.864  12.592
56801W        W29226  28.569   0.282  14.910
56802W        W29227  24.487  33.674   2.163
56803W        W29228   8.469  36.957  12.392
56804W        W29229  18.584  38.532   0.928
56805W        W29230   5.494  39.368  14.856
56806W        W29231  24.215  24.669   0.419
56807W        W29232  42.846  12.320  12.125
56808W        W29233  11.170   4.771   1.818
56809W        W29234  42.392  27.739   3.678
56810W        W29235   4.779  22.945   0.142
56811W        W29236  35.525  41.956  13.470
56812W        W29237  25.730  34.658   3.635
56813W        W29238   6.937  14.905  12.940
56814W        W29239  26.855  18.156   1.816
56815W        W29240  26.290  44.907  13.425
56816W        W29241  40.457  35.490   3.835
56817W        W29242  30.730  14.562   4.701
56818W        W29243  28.627  25.440  11.487
56819W        W29244  24.615  13.618   0.059
56820W        W29245   2.844  43.294  13.486
56821W        W29246  16.926  33.477  14.348
56822W        W29247  32.328   3.952  14.345
56823W        W29248  44.757  17.514   3.255
56824W        W29249  18.998  42.633  14.733
56825W        W29250  19.242  39.267  10.216
56826W        W29251  14.753  28.615   1.812
56827W        W29252  26.999  21.222  10.972
56828W        W29253  39.354  13.854  14.061
56829W        W29254  21.172   6.937   0.802
56830W        W29255   4.377   6.651   0.485
56831W        W29256  17.531  37.030  13.985
56832W        W29257  31.518  18.584   2.206
56833W        W29258   3.230  26.035   1.314
56834W        W29259  24.525  18.669   2.944
56835W        W29260  19.924  29.561   4.610
56836W        W29261   0.778  40.941  13.475
56837W        W29262  20.038  20.987  14.431
56838W        W29263  21.207  21.750  12.125
56839W        W29264  30.762  21.532   2.776
56840W        W29265  27.834  32.457  11.039
56841W        W29266  44.006  27.203  13.480
56842W        W29267  13.696  42.006   1.279
56843W        W29268  34.937  15.498  11.098
56844W        W29269  16.251  31.453   0.936
56845W        W29270  14.325  34.500  13.869
56846W        W29271  15.565   2.525  11.952
56847W        W29272   0.238  12.682  12.545
56848W        W29273  36.693  14.320   1.324
56849W        W29274  39.434  14.562   0.832
56850W        W29275   0.967  10.876   0.208
56851W        W29276  15.310  38.360  13.388
56852W        W29277  25.679   4.640   2.256
56853W        W29278  32.398  35.901  10.427
56854W        W29279   0.954  22.549   3.969
56855W        W29280  23.137  18.758   3.346
56856W        W29281   3.416   1.731   2.487
56857W        W29282  44.831  16.467   2.386
56858W        W29283  42.089  26.051   2.654
56859W        W29284   7.701  33.644   0.974
56860W        W29285   0.417   5.364   4.229
56861W        W29286  23.741  36.177   2.656
56862W        W29287   0.937  41.338   3.113
56863W        W29288  39.814  41.017  13.938
56864W        W29289   0.595   2.340  11.844
56865W        W29290  43.490  20.663  10.817
56866W        W29291  44.786  34.476  14.551
56867W        W29292  15.807  33.565   3.932
56868W        W29293   4.051  42.842  10.662
56869W        W29294  11.053  28.935   4.173
56870W        W29295  25.097   2.829   2.117
56871W        W29296  20.737   8.865   2.936
56872W        W29297   7.970  15.316   1.448
56873W        W29298   4.878   4.869   0.761
56874W        W29299  19.037  43.061  12.823
56875W        W29300   1.389   7.371   2.696
56876W        W29301  24.180  34.488   2.198
56877W        W29302  22.783  19.582   3.786
56878W        W29303   3.607  22.154  10.073
56879W        W29304  23.514  11.882  10.026
56880W        W29305  37.952  27.365   3.615
56881W        W29306  39.697  25.978   3.665
56882W        W29307  39.006  10.152  12.368
56883W        W29308  37.072  13.900  14.546
56884W        W29309  44.094  33.177   1.924
56885W        W29310  14.267  19.004  13.415
56886W        W29311  40.796  43.164  14.521
56887W        W29312  35.895   2.346   3.184
56888W        W29313   0.394  18.215   4.851
56889W        W29314   6.645  41.555  14.322
56890W        W29315  16.122   0.938  12.867
56891W        W29316  37.786   7.327  12.448
56892W        W29317  17.873  18.239  11.545
56893W        W29318  22.142  29.233   3.294
56894W        W29319  32.380  31.166  12.143
56895W        W29320  27.270   0.888   2.359
56896W        W29321  23.119   2.894  11.926
56897W        W29322  24.544   4.978   3.146
56898W        W29323  35.162  19.577   1.902
56899W        W29324   9.415   9.663  12.993
56900W        W29325  29.066  32.866  10.781
56901W        W29326  11.895   2.063  11.721
56902W        W29327  21.194   3.661   2.694
56903W        W29328   0.969  14.051   4.641
56904W        W29329  22.072  38.053  14.975
56905W        W29330  28.952   6.937  11.436
56906W        W29331  31.923  11.201  13.515
56907W        W29332  13.268  23.634   4.752
56908W        W29333  28.226  26.628   3.537
56909W        W29334  20.747   7.716   2.301
56910W        W29335  12.850  32.523  12.398
56911W        W29336  10.107  16.355   3.262
56912W        W29337   5.248  32.103   1.457
56913W        W29338  14.441  29.641  14.830
56914W        W29339   4.537  36.350   1.202
56915W        W29340  15.832  16.846  14.428
56916W        W29341  41.343  35.479  12.754
56917W        W29342  26.222  15.726  12.957
56918W        W29343  22.488  44.483   4.668
56919W        W29344  36.137   0.948  10.671
56920W        W29345  32.878  18.877   4.500
56921W        W29346  26.005   2.844   0.800
56922W        W29347  42.645  10.085  11.959
56923W        W29348  14.261  36.400   1.065
56924W        W29349  18.209  34.161   1.487
56925W        W29350  34.683  24.752  12.042
56926W        W29351  40.139   2.254   2.744
56927W        W29352  41.701  10.295   1.452
56928W        W29353  29.493  25.955   0.813
56929W        W29354  39.760  41.832  12.692
56930W        W29355   3.358  18.817   2.035
56931W        W29356  22.731   1.902  14.380
56932W        W29357  20.447  12.864   1.158
56933W        W29358  32.313  22.150   0.420
56934W        W29359  19.787  41.027   0.889
56935W        W29360  35.943  31.601   0.562
56936W        W29361  44.783  39.062   3.402
56937W        W29362   3.840   5.544   1.699
56938W        W29363  43.432  22.822   1.737
56939W        W29364  22.620   8.395  10.742
56940W        W29365  12.363  44.403  11.867
56941W        W29366  14.738   9.393   2.884
56942W        W29367  28.441  30.980   4.274
56943W        W29368  22.445  18.609  11.106
56944W        W29369  15.783   8.314  11.082
56945W        W29370  23.675  19.936  12.970
56946W        W29371  13.321  14.801   0.056
56947W        W29372   0.295   5.731  11.756
56948W        W29373   8.144  31.457  12.567
56949W        W29374  14.235  30.277   1.364
56950W        W29375  33.929  25.127  12.405
56951W        W29376  33.616  35.158  13.582
56952W        W29377  33.162  40.783   0.871
56953W        W29378  23.314  22.163   3.122
56954W        W29379  11.723   2.386  12.121
56955W        W29380  36.336  18.893  14.441
56956W        W29381   7.785  29.397   0.694
56957W        W29382  33.973  18.721  13.086
56958W        W29383  10.675  33.490   3.088
56959W        W29384  34.007  28.482   1.613
56960W        W29385   1.951   4.242   4.580
56961W        W29386  35.734   8.448   0.446
56962W        W29387   4.850   0.959  13.875
56963W        W29388  30.417  42.502   4.298
56964W        W29389  18.796  28.422   3.768
56965W        W29390  37.104  42.290  11.977
56966W        W29391   1.805  21.108   3.672
56967W        W29392  17.290  39.796   4.416
56968W        W29393  20.223  30.480  13.896
56969W        W29394  34.063  31.955  10.667
56970W        W29395  25.652  38.473  10.697
56971W        W29396  16.711   0.198  11.669
56972W        W29397   5.356  16.567  11.648
56973W        W29398   8.688  30.477   3.691
56974W        W29399   8.908  31.445   2.200
56975W        W29400  43.244  24.485   1.862
56976W        W29401  16.658  30.151  14.384
56977W        W29402  11.821  29.126   1.335
56978W        W29403  20.602  24.366  14.513
56979W        W29404  28.668   4.399   4.164
56980W        W29405  44.421   6.229   4.151
56981W        W29406  30.459  26.264   0.396
56982W        W29407  22.558  17.003   0.701
56983W        W29408   1.173  15.247  12.803
56984W        W29409   1.302  10.175   3.317
56985W        W29410  26.527  20.989  11.610
56986W        W29411  35.488  21.071   3.858
56987W        W29412  36.421   3.351  14.405
56988W        W29413  12.850  24.490   3.386
56989W        W29414   9.297  28.119   1.300
56990W        W29415  14.719  16.355   0.825
56991W        W29416  29.566  24.053   4.065
56992W        W29417  22.530  11.147   4.756
56993W        W29418  22.541   6.905   0.428
56994W        W29419  44.716  38.555  13.028
56995W        W29420  36.142  10.951  14.354
56996W        W29421  43.792  17.293   1.750
56997W        W29422  38.373  25.662   3.215
56998W        W29423   6.487  10.141  12.285
56999W        W29424   6.388  29.992   2.637
57000W        W29425  44.259   2.387  13.293
57001W        W29426  43.824   8.139   4.764
57002W        W29427   4.486  20.782  11.034
57003W        W29428  32.975   3.323   3.413
57004W        W29429   4.810  27.483  11.626
57005W        W29430  20.624  19.848  12.509
57006W        W29431  41.787  12.356  12.984
57007W        W29432   1.207  11.107  11.415
57008W        W29433  26.746  30.532   3.203
57009W        W29434  28.182   4.466  13.803
57010W        W29435  29.367  44.133   5.157
57011W        W29436  18.726   7.286  12.679
57012W        W29437  22.626   9.237   9.785
57013W        W29438   4.004  12.268   3.790
57014W        W29439  16.007   4.915   2.694
57015W        W29440  10.206  15.269  12.890
57016W        W29441  21.225  34.071   2.762
57017W        W29442  37.866  37.331   4.201
57018W        W29443  22.051  32.958  12.071
57019W        W29444  22.273  18.090  12.371
57020W        W29445  44.747  15.658   1.850
57021W        W29446   8.510  34.933  14.744
57022W        W29447  27.033   1.991  12.011
57023W        W29448  32.224   1.191   4.409
57024W        W29449  24.044  42.295   1.288
57025W        W29450  41.579  14.476   4.089
57026W        W29451  41.351  43.532   3.215
57027W        W29452  42.250  10.212   1.814
57028W        W29453   6.201  38.520   3.365
57029W        W29454   3.965  16.822  14.877
57030W        W29455  12.461  34.094   0.537
57031W        W29456  37.983  29.254  12.224
57032W        W29457  31.151  13.067   4.920
57033W        W29458  37.732  34.836  13.875
57034W        W29459   9.768  38.989   1.775
57035W        W29460  33.165  22.679   2.846
57036W        W29461  37.978   2.524   2.237
57037W        W29462  38.134  21.010  11.416
57038W        W29463  31.940  20.259   2.432
57039W        W29464   5.377   0.666  11.590
57040W        W29465  42.453  33.962   4.791
57041W        W29466   9.321   4.255  12.992
57042W        W29467   9.052   0.235   2.908
57043W        W29468  35.173  24.645   3.772
57044W        W29469   5.360  33.656  10.706
57045W        W29470  23.792  43.960  14.397
57046W        W29471  29.974  33.366   1.691
57047W        W29472  29.462  27.949   4.182
57048W        W29473  14.650   0.489  14.516
57049W        W29474  22.597  29.085  14.030
57050W        W29475   4.167  19.827  12.395
57051W        W29476  13.906   3.953   2.738
57052W        W29477  25.761  28.409  12.104
57053W        W29478   7.849  27.744  12.925
57054W        W29479  13.347   6.874  13.579
57055W        W29480  13.409  18.634  14.448
57056W        W29481  26.897  22.779  12.027
57057W        W29482  16.113  29.574   4.842
57058W        W29483   7.285  24.947  11.770
57059W        W29484  20.649  23.273   1.749
57060W        W29485  42.039   1.374   1.227
57061W        W29486  26.501  10.672   2.321
57062W        W29487   4.058  39.850  11.934
57063W        W29488  30.009  21.804   2.789
57064W        W29489   4.326  42.989  11.624
57065W        W29490   2.634  43.315   4.796
57066W        W29491  16.186  29.421  14.460
57067W        W29492  39.999   1.074   0.699
57068W        W29493   8.279  39.045   1.755
57069W        W29494  23.213  16.294   0.813
57070W        W29495  27.178  33.147   3.820
57071W        W29496  44.479   2.439   4.207
57072W        W29497  29.839  12.703   3.225
57073W        W29498   0.972  14.080  13.434
57074W        W29499   3.800   1.431  13.310
57075W        W29500  21.156  31.586  14.410
57076W        W29501  35.139  42.641  11.470
57077W        W29502   4.500   6.183  12.569
57078W        W29503   6.414  41.348  11.119
57079W        W29504   9.342  44.693   1.887
57080W        W29505  36.833  14.665   4.205
57081W        W29506  21.347   1.855   4.285
57082W        W29507  21.683   5.351   2.196
57083W        W29508   6.853   1.205   3.211
57084W        W29509   2.998  39.380  10.708
57085W        W29510   8.155  41.268  13.431
57086W        W29511  18.006  26.492  12.842
57087W        W29512  12.627  32.702   1.055
57088W        W29513  24.374  26.124   4.406
57089W        W29514  34.035  31.943  12.082
57090W        W29515  20.029  18.058   5.000
57091W        W29516  11.952  36.076  11.024
57092W        W29517  25.060  17.554  11.903
57093W        W29518  26.360  30.601  12.516
57094W        W29519  17.678  38.919  12.887
57095W        W29520  19.189  34.399  11.607
57096W        W29521  29.102   2.511   2.569
57097W        W29522  16.599  23.986  12.108
57098W        W29523  12.752   5.582  12.572
57099W        W29524  37.603  34.892  12.335
57100W        W29525  39.626   1.767  14.469
57101W        W29526  30.586  12.241  14.800
57102W        W29527  36.038  39.065  14.090
57103W        W29528  14.458  38.985  13.155
57104W        W29529   8.224  37.892   3.123
57105W        W29530  23.575   2.754  12.126
57106W        W29531  22.750   5.230   4.689
57107W        W29532  44.318  20.306   2.785
57108W        W29533  35.090  31.945   3.565
57109W        W29534  17.476  38.494  11.871
57110W        W29535  41.676   1.488   4.448
57111W        W29536  12.996  21.013  13.409
57112W        W29537  32.448  21.807   3.123
57113W        W29538  15.428  23.449   3.270
57114W        W29539  19.030  23.141   3.393
57115W        W29540   8.214  21.512  11.396
57116W        W29541  24.907   5.178   2.330
57117W        W29542  11.553  33.609  14.415
57118W        W29543  22.753   3.459   3.283
57119W        W29544  43.516   7.266  14.848
57120W        W29545   8.323  15.529  12.863
57121W        W29546   0.773  34.250   2.268
57122W        W29547  28.853  21.082  10.970
57123W        W29548   9.054  41.408   0.866
57124W        W29549  35.706  17.797   4.249
57125W        W29550   3.807  41.028  12.521
57126W        W29551  33.961   3.727  13.834
57127W        W29552  35.086  38.535   0.911
57128W        W29553   8.801  22.451   3.861
57129W        W29554  24.248   5.732  11.559
57130W        W29555  17.550  43.920  12.544
57131W        W29556   0.304  28.102  12.035
57132W        W29557  40.690  30.831  14.311
57133W        W29558  38.349  30.990  12.932
57134W        W29559  38.083  26.224  12.942
57135W        W29560  17.590  36.423  14.823
57136W        W29561  31.913  37.403   4.540
57137W        W29562  38.293  43.920   0.485
57138W        W29563  12.381  19.829   0.329
57139W        W29564  37.869  37.312   3.328
57140W        W29565  28.314  31.886  12.477
57141W        W29566  26.053  33.994   2.327
57142W        W29567  28.137  28.223  13.426
57143W        W29568  21.271  43.788  10.637
57144W        W29569   0.819  36.974  10.714
57145W        W29570  32.039  41.242   3.622
57146W        W29571   5.141   2.237   1.819
57147W        W29572  30.846  29.451  14.300
57148W        W29573  21.162  33.071  12.606
57149W        W29574  44.956  26.139   1.728
57150W        W29575  12.519  39.183   3.719
57151W        W29576  38.818  12.685   0.763
57152W        W29577  32.855   7.895  14.600
57153W        W29578  29.289   4.083  12.461
57154W        W29579  41.304  44.923  14.985
57155W        W29580  42.900  44.679   2.146
57156W        W29581  37.510   4.221   4.631
57157W        W29582  38.100  42.796   3.939
57158W        W29583  36.632  42.775   9.756
57159W        W29584  16.778   8.803   2.268
57160W        W29585  13.720  11.607   0.005
57161W        W29586  39.830  14.181   0.828
57162W        W29587   2.026   3.886  13.463
57163W        W29588  16.861  35.969  11.539
57164W        W29589  25.655  33.636   1.125
57165W        W29590  22.581  34.038  12.991
57166W        W29591   5.854  31.712  13.141
57167W        W29592  23.324   5.043   1.668
57168W        W29593  44.544   3.312  13.829
57169W        W29594  23.247  17.906  12.874
57170W        W29595  30.256  10.836   2.575
57171W        W29596  37.954   0.030   3.285
57172W        W29597  11.848   9.848  14.703
57173W        W29598  35.700  37.058  11.788
57174W        W29599  22.494  41.044  13.624
57175W        W29600   5.004  25.986   1.714
57176W        W29601  44.350  13.419   3.772
57177W        W29602  35.977  16.204   3.493
57178W        W29603  23.703   0.982  11.912
57179W        W29604  25.701   4.398   1.311
57180W        W29605   2.785  27.117  13.600
57181W        W29606   8.870   2.767   3.333
57182W        W29607  20.612  22.441   2.813
57183W        W29608  23.837  25.656  12.421
57184W        W29609   0.969   5.405  11.704
57185W        W29610   0.947  13.753  13.842
57186W        W29611  39.943  23.189   2.437
57187W        W29612   1.540  40.931  14.292
57188W        W29613  34.400  35.053  12.590
57189W        W29614  28.942  17.283  13.605
57190W        W29615  42.057   4.804  11.196
57191W        W29616  36.258  18.122   1.291
57192W        W29617  41.056   8.257  12.662
57193W        W29618  30.877  14.242   2.258
57194W        W29619  14.673  28.718  11.049
57195W        W29620   4.481  21.066  14.381
57196W        W29621   8.267   1.487  14.822
57197W        W29622  16.577  25.224  14.854
57198W        W29623   7.292   4.827  11.701
57199W        W29624  32.371  42.569  13.836
57200W        W29625  30.225   2.166  10.961
57201W        W29626  24.980   3.753   2.318
57202W        W29627  31.596   9.119   2.293
57203W        W29628   1.669  40.518  13.983
57204W        W29629   1.721  28.498  13.507
57205W        W29630  40.798  10.801   1.972
57206W        W29631   1.328  34.900  12.057
57207W        W29632  25.991  17.288  11.426
57208W        W29633   6.273  24.161  12.037
57209W        W29634  26.512  27.492   3.276
57210W        W29635   2.540  13.287  12.187
57211W        W29636   4.828  32.990   4.760
57212W        W29637   1.715  11.668   2.316
57213W        W29638  20.925   2.906   2.269
57214W        W29639   8.483  14.379   2.169
57215W        W29640   9.997  30.423   4.183
57216W        W29641  23.527  24.927   2.791
57217W        W29642  18.760  25.851   0.348
57218W        W29643  38.269  40.988   1.804
57219W        W29644  39.042   7.147   0.929
57220W        W29645  10.157  28.407  13.923
57221W        W29646  41.065  39.777  11.198
57222W        W29647   2.165  37.472  14.892
57223W        W29648  32.645  13.763  11.038
57224W        W29649  35.768  33.208  11.597
57225W        W29650  41.834  44.853   2.372
57226W        W29651  37.669  33.497   0.089
57227W        W29652  33.630  31.469  14.312
57228W        W29653  33.180  17.251   4.884
57229W        W29654   9.331  27.994  14.397
57230W        W29655  34.315  11.801   3.404
57231W        W29656  29.036  30.202   3.216
57232W        W29657   9.273  19.053  14.975
57233W        W29658  30.870  10.863  10.457
57234W        W29659  19.744   9.340   2.787
57235W        W29660  19.598  27.922  11.263
57236W        W29661  16.514  33.373   0.667
57237W        W29662  13.893  42.348   4.816
57238W        W29663  13.638  29.058  14.361
57239W        W29664  30.566  17.078  11.624
57240W        W29665  33.646  22.308  11.009
57241W        W29666  36.553  27.180   2.731
57242W        W29667   6.831  12.639  10.793
57243W        W29668  40.675  42.372   4.534
57244W        W29669  13.264   3.489   3.300
57245W        W29670  11.683  22.392   0.781
57246W        W29671  39.625  13.878   1.254
57247W        W29672  12.817  25.102  13.274
57248W        W29673  39.789  26.337   0.027
57249W        W29674  43.116   3.342  12.087
57250W        W29675  30.520   5.165   1.789
57251W        W29676  14.216  15.149  13.527
57252W        W29677  37.727  42.445  14.788
57253W        W29678  30.552  30.979   2.659
57254W        W29679   8.766  33.115  10.931
57255W        W29680  36.015  27.651   3.463
57256W        W29681  23.196  32.292  10.685
57257W        W29682  44.818   4.234   4.587
57258W        W29683  12.887   4.915   2.360
57259W        W29684   9.105  22.793   4.106
57260W        W29685  32.112  23.806  11.969
57261W        W29686  42.834  31.731   0.784
57262W        W29687  38.121  29.135   0.870
57263W        W29688   6.759  29.983  11.642
57264W        W29689  14.268  44.558   3.684
57265W        W29690  29.553  19.987   2.401
57266W        W29691  21.869   3.673   0.836
57267W        W29692  24.758  31.894  12.443
57268W        W29693  27.595   9.146   4.582
57269W        W29694  24.831   9.341  13.574
57270W        W29695  21.217   9.725   9.854
57271W        W29696  40.745  37.804  11.221
57272W        W29697  23.739   1.736   1.860
57273W        W29698  23.168  20.188   4.708
57274W        W29699  37.219  11.871   3.562
57275W        W29700  35.526   3.419   4.170
57276W        W29701  28.584  10.626   0.763
57277W        W29702  42.367  23.267  12.620
57278W        W29703  42.314  23.184  10.723
57279W        W29704  22.548  27.724  10.699
57280W        W29705   8.435   3.730   4.637
57281W        W29706  37.678  20.689  10.439
57282W        W29707   0.514   1.024  11.183
57283W        W29708  33.905  33.771  11.068
57284W        W29709  27.953  22.229   3.400
57285W        W29710  37.912  42.013  14.998
57286W        W29711  11.194  32.129   4.290
57287W        W29712  13.813   8.716  14.562
57288W        W29713  15.198  15.622   0.436
57289W        W29714  13.717  22.530   2.735
57290W        W29715  30.353  19.585  12.407
57291W        W29716   1.621   2.135  11.979
57292W        W29717   0.509  22.196  13.049
57293W        W29718  33.340  32.946  12.798
57294W        W29719  37.533  12.284   0.970
57295W        W29720  26.227   0.391  10.862
57296W        W29721  34.607   7.385   4.240
57297W        W29722   2.694  15.787  10.628
57298W        W29723  35.092   5.458   2.750
57299W        W29724  37.403  10.904  12.875
57300W        W29725   8.150   0.398   2.632
57301W        W29726  26.906  34.356   2.153
57302W        W29727  14.625   0.822  13.056
57303W        W29728   1.846   2.775   0.871
57304W        W29729   8.687  21.314  12.005
57305W        W29730  30.444  22.216  13.083
57306W        W29731  32.866  27.893   3.745
57307W        W29732  29.479   6.312  13.762
57308W        W29733   0.004  36.562   3.184
57309W        W29734  35.394  37.975   1.141
57310W        W29735  24.245  31.630   4.492
57311W        W29736  39.929  35.557   3.937
57312W        W29737  31.473  24.972  11.066
57313W        W29738  44.333   2.248   2.657
57314W        W29739   1.690   5.125   3.117
57315W        W29740  10.216  22.810  12.798
57316W        W29741  34.121  20.599  10.555
57317W        W29742  23.974  28.365  10.837
57318W        W29743  26.298  32.635   2.002
57319W        W29744  20.390  38.956   1.692
57320W        W29745  41.532  14.619   2.854
57321W        W29746   8.974   7.286  14.298
57322W        W29747  17.344  15.762  11.098
57323W        W29748  36.996  12.749   2.248
57324W        W29749  34.655  18.489   0.529
57325W        W29750   4.677  35.904   4.694
57326W        W29751  18.569   2.684  14.584
57327W        W29752  21.443  22.481  10.576
57328W        W29753  26.903  41.220  13.424
57329W        W29754   2.942  43.881  13.065
57330W        W29755  37.089  18.672  14.054
57331W        W29756  38.287  30.253   1.423
57332W        W29757   6.253  38.422   0.390
57333W        W29758  14.180  26.677   1.438
57334W        W29759  32.437   4.477   3.418
57335W        W29760  25.567  10.749  13.540
57336W        W29761  32.828  37.291  13.512
57337W        W29762  36.108  15.402  13.403
57338W        W29763   4.669   8.302  11.732
57339W        W29764  16.819  25.588  12.040
57340W        W29765  32.201   3.971  11.599
57341W        W29766  17.539  36.990   4.173
57342W        W29767  39.522  41.917   3.800
57343W        W29768  36.085  31.079  12.918
57344W        W29769  43.802  10.777   3.794
57345W        W29770  31.445  17.683   1.203
57346W        W29771  38.344  18.613   3.233
57347W        W29772  36.506  29.440  11.143
57348W        W29773  35.774   4.562  11.110
57349W        W29774   9.711  30.127   4.510
57350W        W29775  14.828  31.057  13.922
57351W        W29776  22.078  29.459   3.751
57352W        W29777  39.400  35.442   2.239
57353W        W29778  43.216  30.223  13.818
57354W        W29779  18.989  19.089   2.887
57355W        W29780  21.100  17.105  10.725
57356W        W29781  41.565  32.920  13.840
57357W        W29782   3.443  12.241   4.680
57358W        W29783  39.387  10.123  14.507
57359W        W29784  15.263  31.631   2.441
57360W        W29785  38.478   2.926   4.728
57361W        W29786  24.433   8.852  13.523
57362W        W29787   2.300  30.568  14.004
57363W        W29788  12.663   7.157   3.538
57364W        W29789   1.782   7.298   0.443
57365W        W29790  12.332  40.283   1.170
57366W        W29791  40.916  43.804   2.324
57367W        W29792   7.577  29.575  12.068
57368W        W29793  13.089  20.753   4.646
57369W        W29794   9.124  31.147   3.847
57370W        W29795  20.269  27.938   2.157
57371W        W29796  36.111  23.863   4.474
57372W        W29797  38.434  43.858   1.495
57373W        W29798  13.244   3.904  13.075
57374W        W29799  21.839  35.416   3.904
57375W        W29800  26.712  36.973   1.903
57376W        W29801  14.503   3.477   1.321
57377W        W29802  25.322  41.501  13.946
57378W        W29803   9.357   4.694  11.117
57379W        W29804  20.182  16.706  10.611
57380W        W29805  25.066   9.758  10.624
57381W        W29806  13.751  18.882   4.571
57382W        W29807  35.148  28.906   3.152
57383W        W29808  38.785  40.325   1.377
57384W        W29809  24.479  26.900   1.770
57385W        W29810  23.225  21.656   3.676
57386W        W29811  21.342  32.726  12.979
57387W        W29812  41.388  11.656   1.274
57388W        W29813  19.859  23.552   3.208
57389W        W29814  17.113  30.917  14.475
57390W        W29815  28.993  22.119   2.980
57391W        W29816  34.424  21.873   3.679
57392W        W29817   9.301   4.463   1.355
57393W        W29818   4.640  29.068  13.405
57394W        W29819  36.105   6.229  11.689
57395W        W29820   7.198   7.956   4.477
57396W        W29821  23.585   9.824  12.651
57397W        W29822  17.723  16.114   4.643
57398W        W29823  40.988  29.992  11.427
57399W        W29824  36.466  22.430   1.392
57400W        W29825  42.454   3.839   2.727
57401W        W29826   9.827  27.928  14.495
57402W        W29827  25.734  18.058   1.186
57403W        W29828  16.673  44.352   1.915
57404W        W29829   0.598  24.131  13.837
57405W        W29830  35.072  18.207  12.666
57406W        W29831   1.256   4.824   0.367
57407W        W29832  23.193  13.750   1.810
57408W        W29833  24.433   4.457  11.657
57409W        W29834  44.342  43.362  13.771
57410W        W29835  36.489   7.850   4.097
57411W        W29836  10.304   6.256  13.596
57412W        W29837  19.017   1.923  12.584
57413W        W29838  29.618  17.720  12.868
57414W        W29839  33.948  18.739  14.750
57415W        W29840  35.736  30.662  11.080
57416W        W29841  27.553  42.780  11.870
57417W        W29842  12.593   7.242  10.674
57418W        W29843   3.193   9.754  11.353
57419W        W29844  23.466  26.488   2.747
57420W        W29845   8.923  24.317   1.480
57421W        W29846  32.060  43.489   3.621
57422W        W29847  34.499  24.158   4.090
57423W        W29848   4.402   0.818   0.216
57424W        W29849  21.747   3.996   0.432
57425W        W29850  35.325  34.972  10.490
57426W        W29851  15.867   9.110  13.472
57427W        W29852  27.566   4.765  13.690
57428W        W29853  30.742  10.241   3.674
57429W        W29854   9.670  35.336  12.035
57430W        W29855  17.572  14.047  13.870
57431W        W29856  33.288  42.798   2.822
57432W        W29857  14.631  14.668   4.093
57433W        W29858  11.549  32.380   3.315
57434W        W29859  36.411   9.889   2.870
57435W        W29860  26.199  28.402   0.349
57436W        W29861  12.843  25.588   3.781
57437W        W29862  10.285  26.692   0.379
57438W        W29863  44.662  15.655   2.820
57439W        W29864   6.307  14.933  10.538
57440W        W29865   8.075  36.083  11.932
57441W        W29866   8.684   6.091   0.292
57442W        W29867  32.924  41.931   2.189
57443W        W29868  10.824  41.159   2.309
57444W        W29869  27.739   2.424   4.230
57445W        W29870  33.022  35.488  12.144
57446W        W29871  21.694   7.254  14.233
57447W        W29872   2.279  21.135  11.904
57448W        W29873   7.689   5.786   2.929
57449W        W29874  28.068  31.346   3.083
57450W        W29875  29.514  15.606   3.478
57451W        W29876  38.609   9.250   4.446
57452W        W29877   5.761  21.004  13.956
57453W        W29878  31.602  10.309  13.049
57454W        W29879  40.887   9.970   1.146
57455W        W29880  44.452  27.095   0.989
57456W        W29881  44.945  44.858  13.617
57457W        W29882  14.378  26.134   1.700
57458W        W29883   2.290  40.604   1.822
57459W        W29884   7.874   0.083   0.339
57460W        W29885  35.529   3.741  12.862
57461W        W29886  38.490  28.063   4.115
57462W        W29887  43.972  12.367   0.293
57463W        W29888  41.474  29.902   2.276
57464W        W29889  16.739  24.678   4.331
57465W        W29890   2.484  37.402   1.633
57466W        W29891  39.716  30.173  12.456
57467W        W29892   1.074  30.021  13.725
57468W        W29893  21.410   4.526   3.197
57469W        W29894   3.105  38.153  14.111
57470W        W29895  30.831  10.132   1.234
57471W        W29896  35.013  23.311  13.803
57472W        W29897  44.045  25.657  13.157
57473W        W29898  34.584  17.781   0.825
57474W        W29899  40.703  13.776  12.549
57475W        W29900  31.725  42.347   4.543
57476W        W29901   3.292  11.491  10.777
57477W        W29902   0.530  40.776  11.546
57478W        W29903  36.569   8.845  10.583
57479W        W29904  22.010  16.813  10.447
57480W        W29905  29.969  14.592  11.577
57481W        W29906   3.773   6.174   4.321
57482W        W29907  22.574  16.375   0.313
57483W        W29908  17.578   8.596  12.945
57484W        W29909  14.099  44.039  12.964
57485W        W29910  24.571  31.889   3.245
57486W        W29911  18.632   6.092  14.623
57487W        W29912  14.334  25.078  11.113
57488W        W29913   6.803  29.575   4.764
57489W        W29914  17.310  26.360  14.340
57490W        W29915  31.471   1.356  14.462
57491W        W29916  30.477   0.468  11.220
57492W        W29917  31.371  42.012   2.266
57493W        W29918  10.163  44.004   1.439
57494W        W29919  33.497  31.692  11.519
57495W        W29920  14.319  30.361  13.377
57496W        W29921  31.496  26.391  13.055
57497W        W29922  39.807   0.020   1.434
57498W        W29923   2.323  41.392  14.884
57499W        W29924  25.330  43.908  10.750
57500W        W29925   0.799  38.963   1.703
57501W        W29926  34.064  28.673  11.065
57502W        W29927  23.856  41.003  14.473
57503W        W29928  28.922  26.157  12.485
57504W        W29929  10.577  26.224  13.064
57505W        W29930  39.005   0.703  14.790
57506W        W29931  42.525   8.360  11.568
57507W        W29932   4.353   1.773   2.862
57508W        W29933  25.879   6.224   4.931
57509W        W29934  11.917   0.409   1.386
57510W        W29935  27.768  36.500  13.821
57511W        W29936  29.507   5.647   3.206
57512W        W29937  41.112  10.534  14.552
57513W        W29938  20.515  30.526   0.913
57514W        W29939  17.703  35.686  12.577
57515W        W29940  21.532   7.787   2.739
57516W        W29941  12.632  23.478  10.643
57517W        W29942  38.798  33.931  11.335
57518W        W29943  34.102  32.009  14.544
57519W        W29944  20.233  33.026  14.246
57520W        W29945  20.160  14.273   0.676
57521W        W29946   1.953  22.713  10.396
57522W        W29947  44.283  42.877  11.146
57523W        W29948  26.691  28.998   3.050
57524W        W29949  32.399  20.797   1.253
57525W        W29950  28.553  40.987   5.363
57526W        W29951  36.508   9.692   5.565
57527W        W29952   2.036  10.305  11.094
57528W        W29953  24.021  14.753   0.598
57529W        W29954  44.950  12.638   3.660
57530W        W29955  35.931  44.033   4.129
57531W        W29956  25.611  11.793  11.975
57532W        W29957  32.437   5.502   4.194
57533W        W29958  34.078  43.746  13.668
57534W        W29959  14.377  12.629   4.203
57535W        W29960  38.465  31.000  11.068
57536W        W29961  13.774   2.964   0.817
57537W        W29962  40.518   9.922  13.495
57538W        W29963  25.528   4.864  11.046
57539W        W29964   5.664  26.272  11.492
57540W        W29965  10.777  13.598   4.268
57541W        W29966   7.541  18.976  11.958
57542W        W29967  25.339  37.469   0.803
57543W        W29968   2.211  29.425   0.837
57544W        W29969  31.118  32.612   3.634
57545W        W29970  44.284  25.495   4.245
57546W        W29971  43.652  15.656   3.218
57547W        W29972  22.594  28.511   3.627
57548W        W29973  38.466  29.810  12.453
57549W        W29974   4.799  22.114  10.671
57550W        W29975   0.400  21.560   2.930
57551W        W29976  43.001  17.170   3.119
57552W        W29977  25.581  40.756   2.288
57553W        W29978  31.364  35.930   4.574
57554W        W29979  11.386  24.582  12.460
57555W        W29980  10.642  25.039   4.881
57556W        W29981  33.987  43.924  10.748
57557W        W29982  23.649  18.184   2.344
57558W        W29983  33.391  16.340  12.038
57559W        W29984  39.470  11.086  13.575
57560W        W29985   1.701   8.277   2.721
57561W        W29986  44.784  41.822   4.194
57562W        W29987  12.858  41.581  10.670
57563W        W29988  28.937  41.274   0.345
57564W        W29989  43.871  17.129  11.812
57565W        W29990  39.931   4.366   3.627
57566W        W29991  39.898  29.093  14.896
57567W        W29992   2.886  22.356  12.946
57568W        W29993  37.931  36.528  10.960
57569W        W29994  16.109  29.638   0.899
57570W        W29995  38.547  25.471   0.852
57571W        W29996  22.028  39.246   3.668
57572W        W29997  34.908   3.357   0.386
57573W        W29998  13.109   2.547  11.949
57574W        W29999  17.555  22.613  13.601
57575W        W30000  44.074  17.177  14.921
57576W        W30001  27.056  40.485   0.486
57577W        W30002  27.217  44.781  13.022
57578W        W30003   9.794  12.429   4.084
57579W        W30004  37.386  23.849   4.259
57580W        W30005  23.139   6.694  12.406
57581W        W30006  40.934  36.420   0.947
57582W        W30007  37.984   0.536   3.491
57583W        W30008  37.848  25.925   1.397
57584W        W30009   0.366  22.536   0.477
57585W        W30010  16.179  37.355  12.186
57586W        W30011  35.496   9.778   0.041
57587W        W30012  22.612  22.641  11.952
57588W        W30013  38.959  32.542  11.582
57589W        W30014  11.757  17.638  12.608
57590W        W30015  23.250  38.839  10.704
57591W        W30016  10.972  36.515  14.097
57592W        W30017  21.179  10.120   3.752
57593W        W30018  16.103  35.599   3.170
57594W        W30019  19.312  11.838  12.008
57595W        W30020  43.406   8.386   4.894
57596W        W30021  32.448   2.917   1.674
57597W        W30022  38.827  28.176  13.358
57598W        W30023  16.086  10.712   2.692
57599W        W30024  12.715   7.323   4.362
57600W        W30025   2.808   1.243  13.398
57601W        W30026  11.784  39.080   4.024
57602W        W30027  37.163  21.427  13.396
57603W        W30028  28.751  20.069  12.792
57604W        W30029  39.031   8.168   0.935
57605W        W30030  42.515   7.526   2.710
57606W        W30031  40.503  23.792  12.372
57607W        W30032  10.191  14.746  12.424
57608W        W30033  17.647   2.128   2.456
57609W        W30034  36.333  12.211  12.059
57610W        W30035  33.848  39.885  12.997
57611W        W30036  23.225  17.598   3.404
57612W        W30037  34.907  29.717   2.859
57613W        W30038  41.910   0.748   4.576
57614W        W30039   5.461  35.533   0.995
57615W        W30040  41.921   5.256  11.493
57616W        W30041  12.203  12.137  13.842
57617W        W30042  28.337  30.067   0.072
57618W        W30043  28.620  20.751   2.706
57619W        W30044   3.528  37.063  14.897
57620W        W30045   6.772  23.002   2.395
57621W        W30046   3.886  16.482   1.511
57622W        W30047  27.076  16.614  12.492
57623W        W30048   2.005   8.392   4.752
57624W        W30049  13.054  12.803   2.783
57625W        W30050  22.509  11.515  13.489
57626W        W30051  15.817  18.475  12.463
57627W        W30052  21.150  13.596   5.167
57628W        W30053  22.960  24.182   3.896
57629W        W30054  39.477  37.424  13.350
57630W        W30055  28.714   0.835  14.944
57631W        W30056   9.960   0.186  13.671
57632W        W30057  28.048   4.973  11.185
57633W        W30058  36.844  24.711   3.995
57634W        W30059  33.793  43.769  11.643
57635W        W30060  20.931   5.299  10.450
57636W        W30061  17.143  40.979   4.989
57637W        W30062  19.965  21.733  12.987
57638W        W30063  24.682  30.303   0.828
57639W        W30064  38.827  20.720   3.762
57640W        W30065  39.437  14.090   1.740
57641W        W30066  10.481  29.488  13.454
57642W        W30067   2.814  14.372   4.729
57643W        W30068  22.507  19.302  12.952
57644W        W30069   5.760   8.993  14.349
57645W        W30070  15.095   1.977   3.094
57646W        W30071  12.419   4.976  13.136
57647W        W30072  37.939  31.653  12.345
57648W        W30073  13.592   2.938  13.905
57649W        W30074   5.429  22.729  10.638
57650W        W30075  16.200  21.654   1.205
57651W        W30076  27.984  34.387   5.004
57652W        W30077   5.585   0.108  12.254
57653W        W30078  22.556  41.408  11.277
57654W        W30079  34.910  30.201  11.328
57655W        W30080   4.839  26.679  12.158
57656W        W30081  27.777  29.524  13.422
57657W        W30082  20.483  16.631  13.854
57658W        W30083  34.496  44.359   0.026
57659W        W30084   8.853  38.849   0.362
57660W        W30085  10.076  17.623   0.291
57661W        W30086  36.492   0.643  12.417
57662W        W30087  29.576  24.417   5.524
57663W        W30088  17.194   0.971  11.955
57664W        W30089  29.219   2.509  11.129
57665W        W30090   1.167   1.369  14.126
57666W        W30091   4.582  44.905  14.454
57667W        W30092   4.969  13.551   2.736
57668W        W30093   0.809  16.481  11.763
57669W        W30094  22.907   2.812   4.576
57670W        W30095  41.502  24.599   1.183
57671W        W30096  28.877  14.464  13.300
57672W        W30097  19.012   2.882  14.786
57673W        W30098  36.614  13.487  12.432
57674W        W30099  26.686  25.474  12.347
57675W        W30100  42.058   8.629   1.696
57676W        W30101   1.903  20.318  12.071
57677W        W30102  32.606   8.722   1.789
57678W        W30103   4.468  33.713  12.567
57679W        W30104  33.949  12.543  14.376
57680W        W30105   7.470  27.783   2.788
57681W        W30106   0.102  32.827   1.730
57682W        W30107  21.956  11.702   3.556
57683W        W30108  42.881  36.574  13.530
57684W        W30109   5.712  24.260  12.445
57685W        W30110   7.322  29.890   4.071
57686W        W30111  37.279  12.663  13.884
57687W        W30112  12.569   5.662   0.949
57688W        W30113  25.632   4.744  14.943
57689W        W30114  44.314  33.427  14.849
57690W        W30115  27.187  29.829   3.770
57691W        W30116  17.994  13.601  11.528
57692W        W30117  41.010  10.909   2.845
57693W        W30118  32.605   3.263  13.873
57694W        W30119  37.536  19.598   0.791
57695W        W30120  19.160  32.455  13.334
57696W        W30121  17.706  20.343   1.903
57697W        W30122   2.542  10.623  13.328
57698W        W30123   6.045  35.511  14.034
57699W        W30124  37.732  18.111  11.641
57700W        W30125   1.262  28.146   2.364
57701W        W30126   1.273   8.782  12.461
57702W        W30127   4.682  36.790   4.851
57703W        W30128  36.874  43.429   4.107
57704W        W30129  18.188  33.474  14.903
57705W        W30130  42.872  31.164   4.662
57706W        W30131  10.101  43.107  10.186
57707W        W30132  42.021  31.698   3.755
57708W        W30133   5.306  21.169   1.290
57709W        W30134  39.076  36.021  12.983
57710W        W30135  37.380   3.149  12.050
57711W        W30136   2.592  40.609   5.022
57712W        W30137  30.901   6.283   0.376
57713W        W30138   7.336   5.941   3.261
57714W        W30139  18.772   8.663  10.691
57715W        W30140  44.744  13.019  13.876
57716W        W30141  22.570  29.390   3.813
57717W        W30142  29.980  39.527  10.868
57718W        W30143  40.319  35.476  13.449
57719W        W30144   1.796  22.887  12.334
57720W        W30145  19.736  17.657  12.541
57721W        W30146  34.798   2.460   2.458
57722W        W30147  29.703   8.717  14.228
57723W        W30148  42.535  15.567   2.348
57724W        W30149  18.036  21.648   1.299
57725W        W30150   1.365  13.876   1.805
57726W        W30151  23.257   4.699  13.070
57727W        W30152  20.818  32.164  10.737
57728W        W30153  34.118  10.750  10.452
57729W        W30154  14.141  35.872   0.552
57730W        W30155  36.565  32.083   3.596
57731W        W30156   2.298  34.673   3.381
57732W        W30157  43.649   2.288   1.875
57733W        W30158   8.952   9.259   1.130
57734W        W30159  29.596  24.003   4.582
57735W        W30160  16.043  23.989  12.452
57736W        W30161  30.172  21.185  14.230
57737W        W30162  13.207  22.199   1.663
57738W        W30163  11.298  22.537   1.334
57739W        W30164  23.986  36.906   3.117
57740W        W30165  40.936  40.525  10.708
57741W        W30166  19.891   8.378  12.056
57742W        W30167  14.173  21.766  13.497
57743W        W30168  24.247  44.968   2.575
57744W        W30169  33.667  27.929   2.299
57745W        W30170  43.536  29.464  11.031
57746W        W30171  16.357  37.676  13.957
57747W        W30172   8.903  25.000   0.717
57748W        W30173  35.066   7.316  12.037
57749W        W30174   8.722  21.635   4.543
57750W        W30175  37.474  18.399  11.302
57751W        W30176  43.907  18.168  11.214
57752W        W30177  19.168  25.620  11.601
57753W        W30178  21.533  40.980   1.757
57754W        W30179  25.281  15.793  12.084
57755W        W30180   3.132  13.873   0.938
57756W        W30181  31.477   9.243   4.749
57757W        W30182  20.309  11.621  12.963
57758W        W30183  16.857   9.217  14.337
57759W        W30184  41.778  29.208  11.535
57760W        W30185  24.001  12.171   1.373
57761W        W30186   2.266  13.361  13.153
57762W        W30187  44.270   5.381   3.627
57763W        W30188   9.192   4.104   3.899
57764W        W30189  34.442  34.133   2.145
57765W        W30190   0.495  14.063  14.825
57766W        W30191  40.309  35.282   0.253
57767W        W30192  25.453  38.005   4.270
57768W        W30193  27.350   4.748  10.875
57769W        W30194  22.226  10.948   3.172
57770W        W30195  32.684  23.639  10.761
57771W        W30196  38.824  20.904  14.444
57772W        W30197  29.219  16.180   0.408
57773W        W30198  22.984  26.671  14.314
57774W        W30199   2.048   1.904   1.458
57775W        W30200  33.408   3.236  13.257
57776W        W30201  23.412  22.530   0.722
57777W        W30202  19.258  35.747  12.901
57778W        W30203   4.999  39.720  11.568
57779W        W30204  21.680  40.560   3.675
57780W        W30205   2.253  17.226   3.641
57781W        W30206   4.007   4.175  14.684
57782W        W30207   7.375  22.233  14.553
57783W        W30208  21.659  41.565  13.304
57784W        W30209  16.963  12.326   3.475
57785W        W30210   9.241   7.773  13.385
57786W        W30211  30.396  11.427   4.231
57787W        W30212  44.866   4.396   1.837
57788W        W30213  10.264  43.742  13.586
57789W        W30214  22.717  10.879   3.409
57790W        W30215  40.223  29.444  12.537
57791W        W30216  21.533  38.648   3.155
57792W        W30217   0.851  42.786   1.455
57793W        W30218  22.545  15.901  10.110
57794W        W30219   1.044  33.851  11.426
57795W        W30220  43.458  39.248   4.985
57796W        W30221   8.827  40.924  14.242
57797W        W30222   9.883   7.309   1.472
57798W        W30223  33.058  13.294   3.167
57799W        W30224   0.515  40.037  14.832
57800W        W30225  11.806  12.654   0.263
57801W        W30226  20.723  37.781  10.343
57802W        W30227   3.226   3.338  11.156
57803W        W30228  10.974   4.371   1.549
57804W        W30229  29.561  21.130  13.012
57805W        W30230  11.780  24.215   0.987
57806W        W30231  41.560  29.864  13.006
57807W        W30232  32.954  42.056  12.876
57808W        W30233  35.305   2.647   2.827
57809W        W30234   4.146  18.936  11.468
57810W        W30235  38.397  24.232   3.226
57811W        W30236   3.039  27.031   1.692
57812W        W30237  43.256  32.034  12.202
57813W        W30238  43.087  28.401  12.469
57814W        W30239  44.480   7.900   4.584
57815W        W30240  34.937  16.851   0.280
57816W        W30241  31.133  18.041  12.088
57817W        W30242  25.191   6.308  13.528
57818W        W30243  31.273  17.495  14.317
57819W        W30244  22.023  28.658  12.396
57820W        W30245  44.270  21.802  13.116
57821W        W30246  37.547   1.861   3.411
57822W        W30247   0.958  24.164   1.963
57823W        W30248  44.859  23.508  11.984
57824W        W30249   1.920  23.768  12.981
57825W        W30250  28.100  34.168   0.953
57826W        W30251  37.407   3.378   2.714
57827W        W30252  19.183  44.406  11.212
57828W        W30253   5.904  14.617   1.219
57829W        W30254  15.352  42.310   1.321
57830W        W30255  29.098  38.342  14.624
57831W        W30256   2.805   6.726  11.058
57832W        W30257  43.469  34.135  14.326
57833W        W30258  23.681  18.504  12.404
57834W        W30259  23.072  20.518  14.494
57835W        W30260  39.966  34.403   3.158
57836W        W30261   5.241  24.007  13.341
57837W        W30262  15.861  30.502   1.897
57838W        W30263  40.013  34.058  13.435
57839W        W30264   3.423  11.172   4.477
57840W        W30265   6.305  11.655   4.893
57841W        W30266  39.886  43.563   1.214
57842W        W30267  32.912  15.177  12.262
57843W        W30268   3.658   4.306  14.307
57844W        W30269  27.803  44.245  10.167
57845W        W30270   5.165  13.214   4.696
57846W        W30271  44.419  13.913   3.643
57847W        W30272  16.767  17.121  12.117
57848W        W30273  37.965  10.218   0.035
57849W        W30274   6.189  12.597   2.239
57850W        W30275   2.321  39.334  12.403
57851W        W30276  26.625  29.524   0.975
57852W        W30277   9.556  43.756   3.643
57853W        W30278  11.352  21.052  14.443
57854W        W30279  14.204   0.210  13.439
57855W        W30280  18.229  38.054  14.259
57856W        W30281   9.115  31.657  10.451
57857W        W30282  23.204  23.013  11.608
57858W        W30283  23.611  31.086  11.557
57859W        W30284  41.848  35.547  12.011
57860W        W30285  28.627   1.309   1.119
57861W        W30286  40.741  38.930   1.249
57862W        W30287  12.574  35.269  11.988
57863W        W30288  31.516   9.187   0.475
57864W        W30289  23.713   6.029   0.210
57865W        W30290  36.564  23.786   4.199
57866W        W30291  39.926   0.004  14.294
57867W        W30292  36.972  23.723  10.772
57868W        W30293  37.338  12.104   2.441
57869W        W30294  15.241  44.237  10.326
57870W        W30295   1.323  32.639  11.574
57871W        W30296  34.889  19.515  11.162
57872W        W30297   6.224   9.422  13.735
57873W        W30298  11.975  36.330   0.723
57874W        W30299  42.724  25.636   4.941
57875W        W30300  32.171  42.328   2.322
57876W        W30301  35.627   8.623  14.252
57877W        W30302  12.091  36.358   2.457
57878W        W30303  26.647  34.504   1.741
57879W        W30304  23.055   0.724  13.582
57880W        W30305  14.336  10.001  11.551
57881W        W30306   7.042  14.165   5.427
57882W        W30307  40.479  32.728  10.711
57883W        W30308  29.639  39.430  11.390
57884W        W30309  11.621  33.083  14.438
57885W        W30310  35.322   4.459   4.262
57886W        W30311  19.002   6.340  13.500
57887W        W30312  24.500  34.515  10.759
57888W        W30313  32.289   6.018   9.958
57889W        W30314  18.547  43.776  14.535
57890W        W30315  27.304  18.690  13.375
57891W        W30316  17.182  35.539   2.709
57892W        W30317  30.346   9.048   1.758
57893W        W30318  12.676  25.046   4.507
57894W        W30319  16.915  38.108   4.290
57895W        W30320  20.809   7.694  13.954
57896W        W30321  11.722  10.825  12.477
57897W        W30322   9.703   2.308   1.219
57898W        W30323   4.394  41.576   0.631
57899W        W30324  31.428   4.917   4.683
57900W        W30325   7.316  22.745   2.360
57901W        W30326  28.008  11.039   3.771
57902W        W30327   9.002   7.599  13.840
57903W        W30328  19.670  17.354   1.483
57904W        W30329  27.666  41.601   2.249
57905W        W30330  15.774  20.729  13.891
57906W        W30331  25.010   1.426  11.041
57907W        W30332   3.968  26.378  13.524
57908W        W30333  12.085  22.085   4.430
57909W        W30334  35.140   5.221  14.348
57910W        W30335  10.105  35.894  14.643
57911W        W30336  43.515   7.829   1.728
57912W        W30337   2.854  12.597   2.171
57913W        W30338   2.449   0.683  13.863
57914W        W30339  25.584  30.635  13.243
57915W        W30340   4.688  40.279  13.806
57916W        W30341  31.402  27.559   1.784
57917W        W30342  31.009  42.803  13.034
57918W        W30343  30.620   1.238   1.282
57919W        W30344   1.295  23.189   4.130
57920W        W30345   8.892  39.711   2.961
57921W        W30346  31.493   5.890   3.147
57922W        W30347   9.307  29.135  11.132
57923W        W30348  26.955  28.973   1.834
57924W        W30349   0.826   6.965  14.253
57925W        W30350  14.442  39.651  10.184
57926W        W30351  30.634   6.304  10.482
57927W        W30352  10.394  26.112   3.760
57928W        W30353  43.054   0.934  13.877
57929W        W30354  29.807  12.553  13.513
57930W        W30355  31.487  13.053  14.831
57931W        W30356  33.030  28.504  10.659
57932W        W30357  35.822  23.516  14.827
57933W        W30358  22.074  13.659  14.808
57934W        W30359  31.393  10.023  10.598
57935W        W30360  31.498  30.253   2.390
57936W        W30361  11.270  22.223   1.888
57937W        W30362  38.525  39.078   0.483
57938W        W30363   9.445   6.248  12.990
57939W        W30364  27.914   6.677  11.466
57940W        W30365  39.149  34.446  12.641
57941W        W30366  17.635  40.936   0.760
57942W        W30367  44.403  30.486   2.933
57943W        W30368  18.833  13.629   4.442
57944W        W30369  27.957  21.986  14.830
57945W        W30370  13.613  41.628  14.409
57946W        W30371   0.343  37.282  11.385
57947W        W30372  37.822  32.110  11.164
57948W        W30373  17.262  23.791  10.520
57949W        W30374  11.881  30.642  13.445
57950W        W30375  41.369  19.038   1.230
57951W        W30376  23.737  30.966   1.362
57952W        W30377  40.208   0.963  11.564
57953W        W30378  13.081  42.470  13.947
57954W        W30379  34.480  17.626  11.545
57955W        W30380   1.776  20.303  13.487
57956W        W30381  21.628  40.984  13.378
57957W        W30382  22.211  37.628  11.326
57958W        W30383   1.943  27.140  10.679
57959W        W30384  11.694  10.463   3.829
57960W        W30385  12.714  34.856  13.908
57961W        W30386  26.754  27.159   2.980
57962W        W30387  19.428   3.724  11.652
57963W        W30388  41.087   7.684  12.056
57964W        W30389  29.418  34.077  12.034
57965W        W30390  23.942  32.542  11.450
57966W        W30391  30.729   3.162   2.756
57967W        W30392   9.888   2.576   4.199
57968W        W30393  40.305  20.892   2.813
57969W        W30394  38.612   1.177  13.370
57970W        W30395  15.190  34.046  11.651
57971W        W30396  24.490  26.369   1.843
57972W        W30397   1.355  32.736  10.613
57973W        W30398  29.415  36.426  11.108
57974W        W30399  15.348  31.924   3.856
57975W        W30400  29.633  37.267   9.989
57976W        W30401  10.474  42.871   9.921
57977W        W30402  20.073   3.528  11.123
57978W        W30403  35.506  39.607  11.239
57979W        W30404  37.407   4.697  12.363
57980W        W30405  22.167  18.699   0.949
57981W        W30406  26.899  43.837   0.418
57982W        W30407  23.025  26.748   1.721
57983W        W30408  24.070  22.292   3.705
57984W        W30409  11.738  37.345   2.565
57985W        W30410  15.837  39.063   2.411
57986W        W30411  14.224  33.975  13.634
57987W        W30412  40.368   4.949  12.978
57988W        W30413  34.504   1.242   4.836
57989W        W30414  40.772  23.287  14.381
57990W        W30415  10.705  36.373   1.299
57991W        W30416  29.064  44.849   0.741
57992W        W30417   0.797  31.050   2.002
57993W        W30418   6.206  13.634   0.643
57994W        W30419   9.679  17.721  13.807
57995W        W30420   2.443  38.363   4.418
57996W        W30421   1.745  36.331  11.060
57997W        W30422  33.982  24.755  14.366
57998W        W30423  23.535  24.320  12.101
57999W        W30424  30.514  34.918   1.022
58000W        W30425  35.686  12.636   3.807
58001W        W30426  29.742  34.110   3.671
58002W        W30427  19.081   8.296  14.610
58003W        W30428  12.830  41.412  14.828
58004W        W30429   8.597  36.354   0.439
58005W        W30430  17.797  26.876  14.271
58006W        W30431  25.960  40.177   3.332
58007W        W30432  16.678   5.978  13.310
58008W        W30433  37.471  40.022  13.547
58009W        W30434  38.810  23.423   4.822
58010W        W30435  23.653   4.674  10.021
58011W        W30436  26.598  40.075   1.591
58012W        W30437  16.608   2.967   1.717
58013W        W30438  33.799  35.076  14.862
58014W        W30439  10.953  23.397  11.862
58015W        W30440  15.060  33.570  10.568
58016W        W30441  17.696  33.100   2.122
58017W        W30442   6.260  17.573  12.308
58018W        W30443  31.053  41.997  11.791
58019W        W30444  10.835  20.542   4.064
58020W        W30445  26.175  43.103  14.285
58021W        W30446   3.400  31.537   0.022
58022W        W30447  33.392  29.668  14.882
58023W        W30448   9.051   8.108  13.925
58024W        W30449  36.061  33.306   0.962
58025W        W30450  31.083  17.754  12.532
58026W        W30451  17.753  17.063  11.012
58027W        W30452  24.165  22.630  11.599
58028W        W30453  17.956  23.301  13.985
58029W        W30454  36.326  36.455   0.271
58030W        W30455  14.546  42.985   0.415
58031W        W30456  24.247  34.061   1.896
58032W        W30457  41.447  11.895  12.376
58033W        W30458  37.333  38.875  14.096
58034W        W30459   4.318   8.291   2.955
58035W        W30460   9.758  12.087  11.633
58036W        W30461  29.877  12.596  12.653
58037W        W30462   7.895   3.241   3.212
58038W        W30463  11.312  15.234   4.016
58039W        W30464  26.932  40.382  13.804
58040W        W30465  29.407  28.153  11.476
58041W        W30466  32.805  37.704   3.210
58042W        W30467  42.545  28.797  12.853
58043W        W30468   8.764  26.476   3.669
58044W        W30469   1.959  19.683   2.252
58045W        W30470  44.322  28.508  12.981
58046W        W30471  29.071  34.981  14.923
58047W        W30472  43.822  34.820  10.699
58048W        W30473  26.576   5.397   2.725
58049W        W30474   1.772  18.044  11.568
58050W        W30475  15.923  25.886   2.851
58051W        W30476   7.097   7.807  13.548
58052W        W30477  40.864  37.511   0.305
58053W        W30478  33.779  18.597   4.635
58054W        W30479  40.846  19.638  13.346
58055W        W30480  11.315   1.401  12.951
58056W        W30481   3.713  27.976  11.241
58057W        W30482   9.462   9.912   4.726
58058W        W30483  23.495  12.913  14.508
58059W        W30484   8.861  22.586  12.772
58060W        W30485  25.704   3.205   5.069
58061W        W30486   5.833   2.543  11.564
58062W        W30487  34.637  40.394  12.908
58063W        W30488  20.674   7.879   2.811
58064W        W30489  42.952  20.722  12.486
58065W        W30490  39.501   7.384   0.472
58066W        W30491  43.420  34.622  14.958
58067W        W30492   3.411  20.865  13.081
58068W        W30493  28.009   7.680   2.526
58069W        W30494  42.780  22.835  13.329
58070W        W30495   7.672  26.477  14.878
58071W        W30496  16.810  43.421  14.825
58072W        W30497   4.404   8.340   3.962
58073W        W30498  24.015  13.635  13.837
58074W        W30499  38.819  41.395   4.632
58075W        W30500  35.496   7.191  12.327
58076W        W30501  37.616  43.843   2.140
58077W        W30502  38.282   5.995   2.880
58078W        W30503  40.573  29.093  12.465
58079W        W30504  33.396  14.862  14.299
58080W        W30505   2.816   8.811   4.227
58081W        W30506  14.659   7.166  10.743
58082W        W30507  15.099   6.432   3.234
58083W        W30508  10.128  12.258   0.774
58084W        W30509   6.323  24.739   2.958
58085W        W30510   6.027  23.931  14.899
58086W        W30511  22.500  39.285  10.445
58087W        W30512   2.884  33.917  11.364
58088W        W30513  43.829  27.314   2.855
58089W        W30514   6.275   8.775  11.033
58090W        W30515  23.341  15.889  14.968
58091W        W30516  14.735  39.872  13.921
58092W        W30517  33.288  36.054  14.728
58093W        W30518   8.252  20.715  12.355
58094W        W30519  36.170  33.960  14.118
58095W        W30520  22.507  18.556  13.112
58096W        W30521  27.120  33.574   0.666
58097W        W30522   3.048  22.611   1.829
58098W        W30523  24.927  34.820   4.818
58099W        W30524  12.047  33.394  14.399
58100W        W30525  17.521  30.668   3.969
58101W        W30526   1.801   3.856  10.858
58102W        W30527  11.949  25.640  12.816
58103W        W30528  14.332  35.538  12.888
58104W        W30529  15.694  37.819   3.702
58105W        W30530  41.838  40.787   3.119
58106W        W30531  24.916   8.356  10.695
58107W        W30532  35.920  40.663   4.072
58108W        W30533  10.406  44.869   2.748
58109W        W30534  43.752  19.562   2.674
58110W        W30535  23.217  33.450   0.866
58111W        W30536   1.295  44.973   1.939
58112W        W30537  13.300  28.992   3.629
58113W        W30538  29.674  35.002  14.964
58114W        W30539  37.794   5.705  12.891
58115W        W30540  24.124  39.217  10.591
58116W        W30541  20.469   4.349   1.804
58117W        W30542   2.976   4.029   0.783
58118W        W30543   9.749   0.248   4.401
58119W        W30544  33.340  40.383   1.195
58120W        W30545  29.489  32.601  13.259
58121W        W30546  25.518  17.074  13.165
58122W        W30547  33.624   8.753  12.716
58123W        W30548   6.916  40.656   2.762
58124W        W30549  23.812   5.417   2.944
58125W        W30550  18.763   1.375  14.079
58126W        W30551  38.286  35.457   2.894
58127W        W30552  29.100   7.799  13.574
58128W        W30553  13.217  44.790   4.349
58129W        W30554  10.186  39.568   3.626
58130W        W30555   5.911  41.196   0.144
58131W        W30556  26.603   9.975   4.276
58132W        W30557  24.853   0.179   0.982
58133W        W30558   5.022  22.503   0.036
58134W        W30559  35.182  38.898   0.551
58135W        W30560  37.025  39.506   0.890
58136W        W30561  36.811  31.478   2.733
58137W        W30562  18.375  36.801   3.250
58138W        W30563  26.247  25.073   0.200
58139W        W30564  37.427   7.241   3.317
58140W        W30565  44.946   4.492   0.421
58141W        W30566  32.376  44.458  14.875
58142W        W30567  38.823  25.417   0.056
58143W        W30568  25.187  16.797   3.709
58144W        W30569  43.758  27.480   2.270
58145W        W30570  32.657   3.768  11.466
58146W        W30571  32.982  26.719  14.778
58147W        W30572   0.342  30.178   1.256
58148W        W30573  18.295  16.147   2.164
58149W        W30574  20.509   6.204   4.265
58150W        W30575  29.125  25.477   1.398
58151W        W30576  11.876   6.413  12.887
58152W        W30577  19.753  18.092   2.128
58153W        W30578  37.072   3.881   3.837
58154W        W30579   3.858  29.597  10.681
58155W        W30580  21.047  23.812   0.569
58156W        W30581  30.017  20.280   0.841
58157W        W30582  44.220   4.251   2.772
58158W        W30583  27.808  41.953   4.986
58159W        W30584  37.899  41.085  12.901
58160W        W30585  24.980  39.263   3.717
58161W        W30586   0.941  40.067   4.007
58162W        W30587  23.009  13.245   0.372
58163W        W30588   2.749  20.291  12.081
58164W        W30589  10.541  18.747   1.778
58165W        W30590  16.785  19.819  13.285
58166W        W30591  10.608  38.355  14.530
58167W        W30592   7.833   5.311  10.829
58168W        W30593  42.068   2.527  13.493
58169W        W30594   7.831   6.570   0.479
58170W        W30595  38.121   4.590   2.155
58171W        W30596  39.249  22.237   3.242
58172W        W30597  30.895  12.361  10.714
58173W        W30598   3.144   8.247   1.326
58174W        W30599   4.035  27.202   3.360
58175W        W30600  16.345  40.662  12.653
58176W        W30601  27.650  16.714   4.026
58177W        W30602   6.798  18.706   0.562
58178W        W30603  14.287  43.564   1.856
58179W        W30604   4.885   8.229   3.759
58180W        W30605   8.860  29.447   2.104
58181W        W30606   7.712  35.237  12.913
58182W        W30607  20.588  22.449  13.104
58183W        W30608  20.012  10.636   4.218
58184W        W30609   3.498  30.871  11.067
58185W        W30610  17.064  37.031  11.100
58186W        W30611   8.629  27.501   3.861
58187W        W30612  15.940  14.054  11.143
58188W        W30613  19.620  16.449   3.840
58189W        W30614  37.616  22.006  10.602
58190W        W30615  30.985   7.718  11.444
58191W        W30616  29.140  34.070  14.497
58192W        W30617   2.697  19.899   3.782
58193W        W30618  13.661  10.173   0.467
58194W        W30619   2.408   7.696   4.378
58195W        W30620  29.426  38.084  11.982
58196W        W30621  29.294  17.237  14.739
58197W        W30622  30.502  38.535   3.695
58198W        W30623  35.307  34.784   1.936
58199W        W30624  42.744  39.880  11.123
58200W        W30625  30.065  16.120   4.470
58201W        W30626   2.875   7.916  12.619
58202W        W30627  35.948  31.041  13.850
58203W        W30628  11.353   8.818   2.389
58204W        W30629  33.085  28.845   0.354
58205W        W30630  26.116  13.480  14.599
58206W        W30631  43.852  16.536  13.861
58207W        W30632  42.357  36.313  11.992
58208W        W30633  23.687  34.571  12.455
58209W        W30634   4.893  13.297   0.703
58210W        W30635  10.669  12.293   1.502
58211W        W30636   6.200   5.415   0.236
58212W        W30637   2.479  32.412   4.919
58213W        W30638  41.569  31.459   0.567
58214W        W30639  37.132  21.955  13.419
58215W        W30640  24.269  36.891   1.642
58216W        W30641  37.644   6.766   3.325
58217W        W30642  36.790   2.201  11.846
58218W        W30643   9.605  17.995  13.365
58219W        W30644  33.869  13.251   2.680
58220W        W30645  13.097  43.634  14.091
58221W        W30646  29.536  42.299   1.821
58222W        W30647  38.107  43.691   3.896
58223W        W30648  12.572  13.550  14.837
58224W        W30649   8.830  25.132  13.123
58225W        W30650   7.883  20.757   4.169
58226W        W30651  40.441   4.115  14.775
58227W        W30652  22.124  20.297  14.537
58228W        W30653  27.734  32.007  13.328
58229W        W30654  40.572  11.717   4.200
58230W        W30655  14.355  30.570  12.381
58231W        W30656   2.174   5.645   1.927
58232W        W30657  39.944  28.996  14.368
58233W        W30658  33.570  43.634   4.634
58234W        W30659  35.640  13.663  13.823
58235W        W30660   0.395  25.084  12.965
58236W        W30661  40.919  21.150   3.798
58237W        W30662  22.628  12.087   1.149
58238W        W30663  30.542  42.516  12.549
58239W        W30664  17.664  10.216   1.797
58240W        W30665  18.294  32.353  11.128
58241W        W30666  24.423   2.382   3.187
58242W        W30667  43.219  42.179   4.529
58243W        W30668  42.908  13.667   1.827
58244W        W30669  39.622   9.878  11.084
58245W        W30670  44.733  39.790  10.957
58246W        W30671  25.409   8.177   3.735
58247W        W30672  28.102  28.464   0.280
58248W        W30673  33.390  23.474  11.496
58249W        W30674  35.246   3.212  14.815
58250W        W30675  27.754  33.428  11.996
58251W        W30676  23.626  32.388   0.183
58252W        W30677  35.588   5.791   1.404
58253W        W30678   2.299  38.464  14.800
58254W        W30679  22.566  16.777  10.500
58255W        W30680   4.452  12.257  13.970
58256W        W30681  29.112  39.708   4.486
58257W        W30682  11.219   3.876  13.047
58258W        W30683  39.746  11.150  11.051
58259W        W30684  41.695  16.633   4.549
58260W        W30685  37.583  37.890  11.092
58261W        W30686  43.545  24.236   4.629
58262W        W30687  12.294   2.868   0.735
58263W        W30688   0.409  35.113   2.214
58264W        W30689  13.346   2.022   1.297
58265W        W30690   4.271   9.328   0.381
58266W        W30691  27.695  19.391   2.318
58267W        W30692  13.666  43.046  11.616
58268W        W30693  20.725  16.427   0.467
58269W        W30694   7.188  36.474  12.782
58270W        W30695  40.222  20.553  13.424
58271W        W30696  13.773  29.445  13.002
58272W        W30697   8.760  30.683  11.457
58273W        W30698  39.927  37.059  12.047
58274W        W30699  28.553   3.425   2.715
58275W        W30700  26.917  28.609   0.752
58276W        W30701  27.449   5.315   1.221
58277W        W30702  19.522  21.858  14.701
58278W        W30703  35.032  18.222  12.162
58279W        W30704   5.037  30.912   4.139
58280W        W30705   9.323  23.277  11.118
58281W        W30706  17.689   9.250   3.835
58282W        W30707  36.559  28.501  11.006
58283W        W30708  19.059   6.855   0.136
58284W        W30709  29.911  17.016  11.491
58285W        W30710  29.864   8.715  11.891
58286W        W30711  44.662   6.869  11.624
58287W        W30712  43.783  11.931  10.596
58288W        W30713  44.795  38.505   1.222
58289W        W30714   2.066  37.142  10.532
58290W        W30715  40.321  23.134   3.597
58291W        W30716  23.510  21.701  10.836
58292W        W30717  28.733  35.063  12.093
58293W        W30718  42.839  18.214  11.865
58294W        W30719  22.680   2.952   0.268
58295W        W30720  19.749  29.020   1.559
58296W        W30721  24.977  32.508  10.131
58297W        W30722  10.178  22.175   0.658
58298W        W30723  38.863  38.895   1.912
58299W        W30724   1.288  23.287  14.370
58300W        W30725  21.785   0.295  11.976
58301W        W30726  39.778  34.378   1.288
58302W        W30727  12.549  12.656  10.728
58303W        W30728  44.331  24.159   0.420
58304W        W30729  39.070   1.751  11.163
58305W        W30730  43.865  23.660  12.966
58306W        W30731  32.111   2.681  14.143
58307W        W30732   1.790   3.730   3.882
58308W        W30733  39.623  44.283  14.967
58309W        W30734  33.814  37.603  10.616
58310W        W30735  39.602  13.874  11.708
58311W        W30736  26.516   2.470   3.333
58312W        W30737  32.479  20.271  14.229
58313W        W30738  35.429  35.938   0.224
58314W        W30739  40.279  19.271   1.794
58315W        W30740  19.205  27.129  12.562
58316W        W30741  40.138  40.016  12.635
58317W        W30742  40.335  33.369   2.884
58318W        W30743  23.964  31.144  14.511
58319W        W30744   8.394  34.790  13.510
58320W        W30745  19.505   1.088   2.718
58321W        W30746   4.737  28.101  10.824
58322W        W30747  34.555  38.181  13.905
58323W        W30748  38.160  13.165   1.225
58324W        W30749  40.970   2.921   1.850
58325W        W30750  30.449  36.011   4.878
58326W        W30751  43.055  38.279   1.929
58327W        W30752  44.189   0.995   4.244
58328W        W30753   6.234  20.087   0.397
58329W        W30754  26.761  18.271   1.296
58330W        W30755  18.080  16.179  13.049
58331W        W30756  26.219  15.276  13.203
58332W        W30757   5.798  17.373   2.852
58333W        W30758  16.210  34.514   4.541
58334W        W30759  16.543  33.400  12.822
58335W        W30760  40.954   3.820   1.837
58336W        W30761  16.551   0.434  12.105
58337W        W30762  15.310  13.679   2.805
58338W        W30763  41.735  24.514  10.664
58339W        W30764  43.965  36.899  11.355
58340W        W30765  21.133  41.087  10.213
58341W        W30766  34.372  28.249  11.979
58342W        W30767   8.101   9.822   0.940
58343W        W30768  18.614  34.045  13.013
58344W        W30769  40.906   1.735  11.112
58345W        W30770  29.441  11.043  11.243
58346W        W30771  24.331   0.243  14.908
58347W        W30772  42.817  36.083   3.706
58348W        W30773   1.988  10.673  11.458
58349W        W30774  35.906  42.973   0.739
58350W        W30775  30.081  26.142   1.789
58351W        W30776  10.386  43.810   2.816
58352W        W30777  31.217  26.598   4.196
58353W        W30778   2.855  29.586  10.707
58354W        W30779  35.983  37.978  12.656
58355W        W30780   3.934   9.367   4.577
58356W        W30781   5.839  10.120   0.968
58357W        W30782  37.090  28.313   3.619
58358W        W30783  29.490  32.739   1.529
58359W        W30784   0.793  37.569   3.664
58360W        W30785  29.019  33.057   0.443
58361W        W30786  44.431  18.483   4.102
58362W        W30787  26.217  34.610  10.579
58363W        W30788   4.501  25.988  14.368
58364W        W30789  18.256  20.028   1.927
58365W        W30790   2.902   3.507   3.885
58366W        W30791   5.973  31.008   0.404
58367W        W30792  31.159   8.283   1.459
58368W        W30793  21.190  28.474  14.141
58369W        W30794  18.024  23.729  11.690
58370W        W30795  31.558   8.280  13.978
58371W        W30796   6.972  34.090  13.105
58372W        W30797   2.257  20.112   2.143
58373W        W30798  19.577  42.620   3.103
58374W        W30799  18.545  30.230   1.817
58375W        W30800   8.581  40.750  12.960
58376W        W30801  17.517  34.909  14.903
58377W        W30802   0.542   9.103   2.136
58378W        W30803  36.661  44.380  12.013
58379W        W30804  32.938   8.074  11.128
58380W        W30805  42.910  16.169   2.231
58381W        W30806   6.822  23.027   1.883
58382W        W30807  26.690  21.717   1.714
58383W        W30808  20.661  18.795  11.635
58384W        W30809   8.384  44.288  12.105
58385W        W30810  36.323  14.786  13.866
58386W        W30811  34.126   1.647   3.229
58387W        W30812  24.210  29.125   4.887
58388W        W30813  36.531   5.981   4.275
58389W        W30814  16.736  15.158  11.693
58390W        W30815  23.674  36.854  14.624
58391W        W30816  28.111   9.764   0.198
58392W        W30817  39.400  15.053   1.778
58393W        W30818  19.132  44.335  13.566
58394W        W30819  27.877  19.699  14.381
58395W        W30820   3.799  19.008   4.718
58396W        W30821  19.590  44.077  13.511
58397W        W30822  42.670  20.046   2.402
58398W        W30823   0.959  33.101   4.185
58399W        W30824  40.207  14.299  14.845
58400W        W30825  20.827  23.771   4.206
58401W        W30826   1.971  30.004   2.717
58402W        W30827  37.811  20.042   0.670
58403W        W30828  28.474  16.219   4.113
58404W        W30829  32.590  15.287   0.846
58405W        W30830  21.239  18.806  14.914
58406W        W30831  10.803  23.595  10.595
58407W        W30832  17.748  19.191   3.099
58408W        W30833  22.701  40.043  14.476
58409W        W30834   7.205   0.712   2.270
58410W        W30835  26.395  43.340   2.879
58411W        W30836  22.472  16.795   2.444
58412W        W30837  14.494  24.488  11.507
58413W        W30838  19.798  36.952  11.624
58414W        W30839  12.333  15.336   3.335
58415W        W30840  42.062  18.024   5.044
58416W        W30841   1.883   3.474  11.647
58417W        W30842   3.805  40.217   4.806
58418W        W30843  44.465   7.941   1.754
58419W        W30844  13.042  41.960  13.831
58420W        W30845  24.202  13.198  14.042
58421W        W30846  26.188  37.326   3.584
58422W        W30847  35.857   7.178   4.362
58423W        W30848  41.425   5.255   1.485
58424W        W30849  24.490   1.827  14.045
58425W        W30850  44.817  32.179   3.592
58426W        W30851  26.739  13.419   3.542
58427W        W30852   7.418  21.614  14.731
58428W        W30853  22.238  43.903  10.573
58429W        W30854  24.149  26.431   1.454
58430W        W30855   6.724  38.194  14.416
58431W        W30856  38.347   8.740   2.212
58432W        W30857   8.123  20.966   2.822
58433W        W30858   3.328  21.550  14.537
58434W        W30859  22.890  17.665   2.486
58435W        W30860   8.152  28.476   2.483
58436W        W30861  31.498  42.348  14.708
58437W        W30862  12.197  22.794  10.875
58438W        W30863  31.074  44.818   2.297
58439W        W30864  26.500  13.354  13.857
58440W        W30865  18.212  42.022  12.424
58441W        W30866  30.099   4.223  14.977
58442W        W30867  27.746   1.819  13.400
58443W        W30868  11.259  28.397   1.017
58444W        W30869  30.148  25.454  12.116
58445W        W30870  12.162   5.348  13.498
58446W        W30871  39.966  14.666   0.689
58447W        W30872   7.392   5.390   3.340
58448W        W30873  15.682  30.121  12.026
58449W        W30874  21.335  30.493   4.182
58450W        W30875  19.244  16.552  10.678
58451W        W30876  15.171  36.011  14.407
58452W        W30877  43.192   3.007  10.834
58453W        W30878  22.658  43.819  11.550
58454W        W30879  12.293  18.262   2.456
58455W        W30880  29.484  33.379   3.628
58456W        W30881  35.138  27.955  11.640
58457W        W30882  18.092  27.630  14.790
58458W        W30883  34.397  16.623   2.690
58459W        W30884  22.025  38.599  13.312
58460W        W30885  12.457  23.241   0.171
58461W        W30886  10.387  25.968  14.361
58462W        W30887  20.601  16.581   4.316
58463W        W30888  24.741  20.111  12.338
58464W        W30889  19.226  17.786   3.603
58465W        W30890  32.542   3.204  11.159
58466W        W30891  41.391  34.461   1.715
58467W        W30892  34.617  31.646   4.214
58468W        W30893  15.214  16.589   0.862
58469W        W30894  14.137   1.718  12.929
58470W        W30895  40.141  41.718  14.955
58471W        W30896  13.837   1.116   4.200
58472W        W30897  11.334  42.599   4.236
58473W        W30898   4.558  39.817   4.244
58474W        W30899  41.782  13.033  11.315
58475W        W30900  23.773  35.457  14.003
58476W        W30901  31.179  42.557   0.073
58477W        W30902  42.924  39.321   0.913
58478W        W30903  14.665  31.370  12.053
58479W        W30904   1.730   1.802   4.858
58480W        W30905  28.549  10.072   0.764
58481W        W30906  13.100   1.913  10.641
58482W        W30907  18.017  36.910  13.867
58483W        W30908  13.024  43.737  11.980
58484W        W30909  33.801  29.407   3.731
58485W        W30910  23.386  41.816   1.789
58486W        W30911  10.835  12.476   4.707
58487W        W30912  17.175   4.466  11.645
58488W        W30913  10.341  18.741   0.781
58489W        W30914  38.780  31.597   1.595
58490W        W30915  40.590  39.728  10.870
58491W        W30916   5.281   8.025   1.871
58492W        W30917  32.377  40.908  13.911
58493W        W30918  37.118  36.182  14.839
58494W        W30919  37.810  17.681   2.234
58495W        W30920   8.159  24.210   4.177
58496W        W30921   6.778   1.994   2.704
58497W        W30922  40.508   5.423  12.082
58498W        W30923  36.945  35.942   4.504
58499W        W30924  25.175  31.388  12.763
58500W        W30925  16.050  33.887   4.661
58501W        W30926   3.190  28.477  14.231
58502W        W30927  20.656  26.586   3.325
58503W        W30928  20.306  23.661   1.756
58504W        W30929  38.111  19.688  14.083
58505W        W30930   0.072  18.765  12.080
58506W        W30931  40.689  15.710  12.728
58507W        W30932  14.336  28.367  13.317
58508W        W30933  43.357  25.968   1.849
58509W        W30934  19.751  18.683  12.543
58510W        W30935  41.093  26.112  12.075
58511W        W30936  44.106  36.915   2.844
58512W        W30937  11.060  43.539   4.160
58513W        W30938  13.231  36.018  12.760
58514W        W30939  38.694  37.675  13.016
58515W        W30940  23.154  12.793  11.275
58516W        W30941  36.974  28.658  10.726
58517W        W30942   7.147  15.195   3.214
58518W        W30943   8.161   7.466   0.190
58519W        W30944  32.931  27.449   0.497
58520W        W30945   1.939  33.340  12.118
58521W        W30946  44.760  35.067   0.359
58522W        W30947  27.235  32.601  14.400
58523W        W30948  27.203  18.193  10.603
58524W        W30949  31.264  25.760  11.948
58525W        W30950   1.527  15.560  14.417
58526W        W30951  19.026  21.944  14.860
58527W        W30952  22.724  17.774  11.990
58528W        W30953   8.190  11.605   3.643
58529W        W30954  13.561  19.158  12.273
58530W        W30955   1.062   0.855  14.300
58531W        W30956  30.696  12.965   4.183
58532W        W30957  20.974   2.771   4.893
58533W        W30958  19.803  33.861   1.736
58534W        W30959   4.981  17.795   0.402
58535W        W30960   2.573  10.850  10.667
58536W        W30961  24.938   9.246  10.627
58537W        W30962  36.135  26.505   1.767
58538W        W30963   6.513  10.653   3.247
58539W        W30964  30.668  13.021  14.037
58540W        W30965  18.488  13.747  11.680
58541W        W30966  17.250  11.176   4.566
58542W        W30967  14.721  15.615  14.682
58543W        W30968  17.637  23.172   1.171
58544W        W30969  17.767  33.361   9.846
58545W        W30970  41.309  16.823  11.550
58546W        W30971   6.786  21.097   3.220
58547W        W30972   1.485  22.094   3.189
58548W        W30973  40.842  10.667   3.265
58549W        W30974  14.740  29.631   1.654
58550W        W30975  41.145  25.493   2.695
58551W        W30976  12.230  41.511   4.196
58552W        W30977  28.958   7.106  12.827
58553W        W30978   8.195  32.597  10.683
58554W        W30979  10.367  42.373  11.628
58555W        W30980   3.787  34.401   3.773
58556W        W30981  44.078  28.037   1.281
58557W        W30982  22.505  43.464  14.035
58558W        W30983  30.071  14.970  14.044
58559W        W30984  22.059  37.551   4.056
58560W        W30985  13.695   9.944   1.688
58561W        W30986  34.180   5.135   0.903
58562W        W30987  16.768  44.336  11.561
58563W        W30988  33.650  31.204   1.797
58564W        W30989  29.466  22.751  11.188
58565W        W30990  25.023  42.458  10.838
58566W        W30991   8.695  31.853   4.254
58567W        W30992  34.106  21.426  14.047
58568W        W30993   2.032   8.386  12.627
58569W        W30994   6.699  17.723   1.239
58570W        W30995  32.422  20.729   3.629
58571W        W30996  12.692  11.860  14.094
58572W        W30997   5.828  25.630   2.846
58573W        W30998  24.604   2.352  10.897
58574W        W30999  34.129  11.449  11.070
58575W        W31000  41.070  35.609  14.724
58576W        W31001   0.403   3.230  10.762
58577W        W31002  26.398   0.018   3.215
58578W        W31003  10.691  31.120   0.778
58579W        W31004  43.336  11.197  12.388
58580W        W31005  20.187  28.627  13.582
58581W        W31006  15.169  16.006   2.711
58582W        W31007  26.335  29.368  11.508
58583W        W31008  16.164   2.377  11.687
58584W        W31009   0.745  39.520  12.929
58585W        W31010   3.740  29.211   2.211
58586W        W31011  33.085  30.343  14.319
58587W        W31012  40.991  13.694   3.774
58588W        W31013   7.124  13.655   0.723
58589W        W31014  15.745  22.772   2.631
58590W        W31015  23.706  17.168  11.821
58591W        W31016  32.328   5.049  13.723
58592W        W31017  11.639  26.043  11.004
58593W        W31018  39.884  38.029   2.795
58594W        W31019  32.408  25.009   1.081
58595W        W31020   5.929  20.181  12.088
58596W        W31021  10.907  26.367  11.062
58597W        W31022   1.084  35.508  13.888
58598W        W31023  17.469  19.118  11.480
58599W        W31024  33.965  22.953  14.965
58600W        W31025  44.214  38.567  13.088
58601W        W31026   0.629  21.103  11.118
58602W        W31027  15.505  43.943   1.899
58603W        W31028  39.429  33.317  11.481
58604W        W31029  22.589  31.414   0.969
58605W        W31030  18.744  27.134  13.004
58606W        W31031   0.215   5.488  11.054
58607W        W31032   0.287  26.089  11.559
58608W        W31033  39.465  40.368  13.492
58609W        W31034  42.921  22.760   3.652
58610W        W31035   1.934  39.056   2.217
58611W        W31036   0.791  29.165   3.630
58612W        W31037  43.528  21.072   2.186
58613W        W31038   3.360  23.900   3.286
58614W        W31039  10.399  19.226   3.913
58615W        W31040  41.980  21.028   3.333
58616W        W31041  41.403  13.333  11.545
58617W        W31042   4.861  21.709  14.430
58618W        W31043  17.157  13.714   0.236
58619W        W31044   8.714  26.121   4.981
58620W        W31045  10.820  33.886  14.952
58621W        W31046   0.009   1.409  14.894
58622W        W31047   2.376  39.792   0.475
58623W        W31048   9.327   6.194  14.334
58624W        W31049  12.755   9.497   2.790
58625W        W31050   0.788  40.462  10.953
58626W        W31051  25.117  24.947   4.151
58627W        W31052  27.930  30.522  10.999
58628W        W31053   2.305   2.398   0.704
58629W        W31054  32.960   7.803   3.231
58630W        W31055  38.776  25.619   1.325
58631W        W31056   6.008   9.200   1.160
58632W        W31057  19.187   9.786   0.249
58633W        W31058   6.729  14.153   3.174
58634W        W31059  31.704  17.880  11.509
58635W        W31060  34.448  38.316  12.169
58636W        W31061   8.807  41.918   0.744
58637W        W31062  32.493  40.036   0.531
58638W        W31063  15.256   8.462   3.144
58639W        W31064  36.566  26.693   2.034
58640W        W31065   5.333  24.508  14.988
58641W        W31066   3.947  40.981   4.541
58642W        W31067   7.352  37.412  13.394
58643W        W31068   2.281  38.803   4.155
58644W        W31069  32.933  27.937   1.377
58645W        W31070  11.290  13.856  10.927
58646W        W31071  36.868  37.152  10.507
58647W        W31072  32.048  17.918  12.454
58648W        W31073  39.620  13.373   1.167
58649W        W31074   2.727   0.323   3.082
58650W        W31075  12.743  16.075  10.625
58651W        W31076  41.717  31.591  13.725
58652W        W31077   1.205  11.370   1.784
58653W        W31078  26.587   7.325   1.758
58654W        W31079  27.696   9.630   3.569
58655W        W31080   3.901   2.380  13.264
58656W        W31081  33.064   3.089  14.051
58657W        W31082  27.036   1.565   2.912
58658W        W31083  24.766  38.964  13.439
58659W        W31084  26.973  37.889  11.530
58660W        W31085  33.439  36.433  11.959
58661W        W31086  27.462  16.214  13.534
58662W        W31087  14.738  14.134  11.432
58663W        W31088  38.626  24.158  13.778
58664W        W31089   9.136  19.543   3.728
58665W        W31090  43.833  16.348   0.276
58666W        W31091  28.698  23.140  13.856
58667W        W31092  42.337  41.227  12.875
58668W        W31093  27.740  27.546  11.913
58669W        W31094  42.510   6.480  11.651
58670W        W31095  42.069  23.116   1.185
58671W        W31096  25.466  13.759   4.141
58672W        W31097  31.017  29.516   4.921
58673W        W31098  22.056  10.199   4.891
58674W        W31099   4.435  42.177   2.826
58675W        W31100  31.480  42.798   4.617
58676W        W31101  10.887  40.640  12.947
58677W        W31102  31.840   9.871   1.257
58678W        W31103  11.045   9.337   4.118
58679W        W31104   8.906  27.196  11.691
58680W        W31105   4.221   7.265   1.274
58681W        W31106   2.911  25.148  11.740
58682W        W31107  22.538  21.225   4.570
58683W        W31108  19.082  28.848   3.789
58684W        W31109   0.402  25.160  13.866
58685W        W31110   9.118  20.146   0.791
58686W        W31111  40.085  10.945   2.784
58687W        W31112  18.051  10.621   3.014
58688W        W31113  27.917  28.693  12.526
58689W        W31114  36.916  43.073  11.124
58690W        W31115  38.395  41.480  12.197
58691W        W31116   9.197  22.269   3.182
58692W        W31117  15.310  10.383   4.210
58693W        W31118  43.352  27.639  14.128
58694W        W31119   8.918  28.640   2.800
58695W        W31120  39.814  25.942   1.841
58696W        W31121  23.963  24.744  12.477
58697W        W31122  33.318   7.152  14.234
58698W        W31123  11.872   2.488   1.497
58699W        W31124  36.506  25.973   1.181
58700W        W31125  10.660  24.966   1.835
58701W        W31126  32.839  24.873   3.631
58702W        W31127   9.637  24.569  11.877
58703W        W31128   3.936  32.598  11.038
58704W        W31129   2.977  18.075  13.343
58705W        W31130   0.534  33.368   2.821
58706W        W31131  29.614  25.201   1.372
58707W        W31132  28.098  30.466   1.824
58708W        W31133  27.155  16.056  14.402
58709W        W31134  34.318  16.107  12.485
58710W        W31135  16.140   9.725  10.826
58711W        W31136  43.358  22.709   4.998
58712W        W31137  13.668   7.298   4.058
58713W        W31138   7.468  42.312   1.737
58714W        W31139   1.288  38.563  14.953
58715W        W31140   0.254  12.793   0.785
58716W        W31141   1.682  40.958  13.315
58717W        W31142  25.733  35.495  12.602
58718W        W31143   6.052  32.879   3.064
58719W        W31144   8.107  37.508   1.198
58720W        W31145   3.101  22.640   0.444
58721W        W31146  37.709  31.472   2.321
58722W        W31147  14.808  24.089   0.424
58723W        W31148   9.785  12.355  12.622
58724W        W31149  40.803  39.957   1.719
58725W        W31150   7.453  18.276   4.179
58726W        W31151  10.555  12.223  14.352
58727W        W31152  22.424  24.720   0.689
58728W        W31153  38.274  16.150   0.353
58729W        W31154  31.558   0.052   2.210
58730W        W31155  44.397  43.208   3.180
58731W        W31156  16.681   0.813  10.669
58732W        W31157   5.943  35.708   0.852
58733W        W31158  21.508  34.575  14.476
58734W        W31159  29.943  36.909   4.614
58735W        W31160  43.272  20.459   3.718
58736W        W31161  25.099  32.796  10.522
58737W        W31162  35.356  25.268  11.214
58738W        W31163  13.238  13.100  14.527
58739W        W31164  32.537   2.973   2.694
58740W        W31165   5.253   0.993  14.240
58741W        W31166  19.216   6.716   0.614
58742W        W31167  38.986  34.090   3.594
58743W        W31168  29.840  31.109   3.167
58744W        W31169  34.457  43.842   2.309
58745W        W31170  39.045  41.496  14.700
58746W        W31171  23.181   3.414  10.610
58747W        W31172   1.316   3.688   4.745
58748W        W31173   5.792  24.056   3.330
58749W        W31174  41.344  43.310  13.809
58750W        W31175  29.228  13.813   0.257
58751W        W31176   4.697  18.298  11.611
58752W        W31177  22.682  29.672   1.440
58753W        W31178  29.772  10.731   2.458
58754W        W31179   7.985  10.356  11.294
58755W        W31180  27.039  32.864   2.429
58756W        W31181   3.323   3.239   3.675
58757W        W31182  42.422   7.995   1.000
58758W        W31183  21.561   6.418   2.087
58759W        W31184  37.586  27.939   2.114
58760W        W31185  22.834  35.568  12.867
58761W        W31186  12.629  33.946   0.032
58762W        W31187   7.364   5.750  12.113
58763W        W31188  42.945  33.472   1.134
58764W        W31189   0.010  24.013  12.087
58765W        W31190  37.744   8.814   3.340
58766W        W31191  43.487  41.440  14.990
58767W        W31192   0.595  33.309   5.011
58768W        W31193  25.495  10.816  14.053
58769W        W31194  12.078  38.959  10.536
58770W        W31195  36.803  27.114   1.813
58771W        W31196  43.589  17.236   2.270
58772W        W31197  11.396  21.456  13.114
58773W        W31198  10.183  37.322  12.326
58774W        W31199  30.727  43.035  13.408
58775W        W31200   4.210  29.455   2.083
58776W        W31201  30.614  37.366   2.229
58777W        W31202  35.919  12.270  14.777
58778W        W31203  20.001   6.389  13.503
58779W        W31204  24.301  21.162  11.493
58780W        W31205  17.935  21.189   3.673
58781W        W31206  16.007  34.100  14.796
58782W        W31207  20.046  31.142   1.338
58783W        W31208  28.920  33.330   0.919
58784W        W31209  21.488   4.347   4.589
58785W        W31210  27.138   0.091   4.354
58786W        W31211   8.172  43.570   0.305
58787W        W31212  12.701  36.623  12.914
58788W        W31213  22.341  43.289  14.494
58789W        W31214   3.415  38.081   3.062
58790W        W31215  28.678  23.700  10.410
58791W        W31216  16.802  27.587  14.319
58792W        W31217   8.772  23.957  14.546
58793W        W31218   5.516  40.364  11.153
58794W        W31219   0.747  19.152   3.150
58795W        W31220  19.553  34.451  10.648
58796W        W31221  29.039  26.209   2.153
58797W        W31222  27.507  33.539   1.025
58798W        W31223  33.721   9.465   2.675
58799W        W31224  36.536   9.954   5.129
58800W        W31225  39.064   9.204   3.176
58801W        W31226  32.576  44.106   1.208
58802W        W31227  22.992  37.064  11.022
58803W        W31228  19.505  26.889   1.741
58804W        W31229  22.542  42.949   4.581
58805W        W31230  30.349  21.559   5.653
58806W        W31231   7.958  21.124  10.669
58807W        W31232   0.167  19.469   3.632
58808W        W31233  29.584  32.358   3.645
58809W        W31234  12.601  23.658  11.539
58810W        W31235  41.015  32.086  12.427
58811W        W31236  34.571  20.651   0.913
58812W        W31237  39.042  19.022   3.191
58813W        W31238  22.495   8.309   4.338
58814W        W31239   1.376  31.817   2.567
58815W        W31240  13.340  41.436   3.570
58816W        W31241  24.496   2.725   1.875
58817W        W31242  11.910   9.771  11.492
58818W        W31243  26.164  12.206   3.693
58819W        W31244   9.643  15.517  10.613
58820W        W31245  24.612  22.966   3.800
58821W        W31246  25.446   7.575   3.282
58822W        W31247   7.626   6.239  10.826
58823W        W31248   7.293  39.113  11.324
58824W        W31249   5.372  10.133   3.158
58825W        W31250  29.900  33.471  14.003
58826W        W31251  34.345  10.355  14.215
58827W        W31252   2.461  25.973   1.829
58828W        W31253  32.924  37.492  14.826
58829W        W31254  19.144  15.075  12.912
58830W        W31255  12.315   8.181  11.934
58831W        W31256   0.497  43.027  14.406
58832W        W31257  13.409   4.363   0.766
58833W        W31258  27.726   2.082   1.398
58834W        W31259   7.676  15.890   4.980
58835W        W31260  15.993  21.223  14.571
58836W        W31261  12.144  26.522  10.523
58837W        W31262   3.748   0.938  14.526
58838W        W31263   7.284  39.452   2.429
58839W        W31264   4.893  35.364   3.718
58840W        W31265  12.397  38.533  10.686
58841W        W31266  25.527  43.514   1.241
58842W        W31267  26.135  43.531   2.449
58843W        W31268  39.524  37.842   1.438
58844W        W31269  14.635  38.489   3.019
58845W        W31270  42.420  10.302  14.341
58846W        W31271  19.593  15.831   0.355
58847W        W31272  14.783  31.485  12.629
58848W        W31273  13.916   2.329  10.650
58849W        W31274  29.965  24.814   3.780
58850W        W31275  10.332  17.698   0.739
58851W        W31276  18.481  35.303   4.991
58852W        W31277  13.359  21.213  10.639
58853W        W31278  32.526   3.845   2.359
58854W        W31279  29.213   1.990  11.115
58855W        W31280  29.674   7.386   0.978
58856W        W31281  16.275  35.383   2.714
58857W        W31282  30.465  24.765  14.302
58858W        W31283  36.983   3.388  12.683
58859W        W31284  22.075  19.511   2.940
58860W        W31285  30.913  32.549  12.026
58861W        W31286  19.324  39.758  12.976
58862W        W31287   4.352  41.224  12.932
58863W        W31288  26.595  13.197  14.391
58864W        W31289  11.644  40.256   3.174
58865W        W31290   3.793  27.670  14.808
58866W        W31291  20.255  34.735  12.500
58867W        W31292  25.773  17.656   3.245
58868W        W31293  10.150  25.909   4.188
58869W        W31294  28.452  11.055   3.153
58870W        W31295  40.661  35.507  10.730
58871W        W31296  19.638  17.816  11.468
58872W        W31297  13.173  11.892  11.124
58873W        W31298   0.296   7.382  13.616
58874W        W31299  38.061  29.600   4.641
58875W        W31300   0.872  28.197   4.519
58876W        W31301   1.303   6.764   3.685
58877W        W31302  24.751  34.159  14.290
58878W        W31303  37.875  42.847   2.956
58879W        W31304  26.703   0.252   0.539
58880W        W31305   6.744  24.752   1.333
58881W        W31306  27.620  25.904  10.482
58882W        W31307  23.459  28.463   1.369
58883W        W31308  26.006  22.438  11.382
58884W        W31309  11.925   9.585  10.221
58885W        W31310  25.132  38.070   2.829
58886W        W31311  25.094  38.038  13.074
58887W        W31312  39.891  32.889   2.148
58888W        W31313  22.014  26.036   0.789
58889W        W31314  21.040  22.966   3.715
58890W        W31315  43.477  40.358  11.566
58891W        W31316  21.676  13.790   3.719
58892W        W31317  23.131  19.620  10.752
58893W        W31318  41.088   8.228   4.533
58894W        W31319  11.358  41.885  11.028
58895W        W31320  19.753  44.186  14.007
58896W        W31321  34.463  11.033  11.096
58897W        W31322  17.302  40.772  12.218
58898W        W31323  31.215  41.065  11.485
58899W        W31324  29.566   3.330  14.569
58900W        W31325  28.693  26.500   2.810
58901W        W31326  25.943  27.674   0.023
58902W        W31327   3.520  34.158  14.118
58903W        W31328  33.052  36.357   1.494
58904W        W31329  25.201   6.990   3.299
58905W        W31330  13.175  13.322  11.387
58906W        W31331  40.864   0.991   4.122
58907W        W31332  40.347  41.340   4.616
58908W        W31333  41.932  17.319  10.881
58909W        W31334   5.730  31.355  11.516
58910W        W31335  12.616  11.708   0.483
58911W        W31336  20.143   0.262  13.423
58912W        W31337  22.241  25.138   3.235
58913W        W31338  40.999  24.999  11.758
58914W        W31339  38.338  44.002  11.524
58915W        W31340  21.106  16.814   2.304
58916W        W31341  36.639   5.040  11.649
58917W        W31342  33.823   6.959  13.480
58918W        W31343  38.091  34.074   0.566
58919W        W31344   6.166  26.458  13.868
58920W        W31345  26.369  24.078   3.626
58921W        W31346  42.080  32.151   1.740
58922W        W31347  44.943  26.983   3.239
58923W        W31348  27.076  19.498   1.684
58924W        W31349  21.743  25.066   5.147
58925W        W31350  11.169  35.266   3.812
58926W        W31351  44.215  22.134  14.397
58927W        W31352   1.409  36.875   2.341
58928W        W31353   8.736  39.305  12.665
58929W        W31354   5.403  23.571  12.231
58930W        W31355   8.854  32.087  13.379
58931W        W31356  19.097   2.424   3.799
58932W        W31357  21.710  30.149  14.832
58933W        W31358   6.738  26.126  13.994
58934W        W31359  15.667   7.723   4.676
58935W        W31360  10.843  10.870   3.852
58936W        W31361  41.814  23.339  13.907
58937W        W31362  20.941  26.286  11.938
58938W        W31363  33.231  41.107  11.218
58939W        W31364  36.768  40.782  12.125
58940W        W31365  36.989   6.027  12.553
58941W        W31366  22.519  34.916  13.434
58942W        W31367  31.590   8.855  11.160
58943W        W31368  41.413  40.542  12.864
58944W        W31369   7.686  20.588   4.771
58945W        W31370  34.360  27.413  11.009
58946W        W31371  12.901  38.382   4.039
58947W        W31372  28.584  26.468  14.362
58948W        W31373  26.521  12.992   5.029
58949W        W31374  33.386  14.494   2.766
58950W        W31375  20.308  19.548  13.129
58951W        W31376  30.460  23.193   0.308
58952W        W31377  29.858   8.757  12.406
58953W        W31378  25.669   9.548   2.682
58954W        W31379  19.309  16.313  14.525
58955W        W31380  16.545   2.806   2.790
58956W        W31381  40.422  26.885   4.723
58957W        W31382  17.361  25.618  14.670
58958W        W31383  38.421  29.179   3.377
58959W        W31384   9.762  23.657   4.936
58960W        W31385  32.168  12.284   1.111
58961W        W31386  38.636  34.481   3.641
58962W        W31387  41.791  11.314  11.001
58963W        W31388  34.891  23.698  10.376
58964W        W31389  20.114  28.233   1.251
58965W        W31390  24.576  12.129  13.056
58966W        W31391  21.717   9.782  12.782
58967W        W31392  41.452   0.215  10.578
58968W        W31393  27.222  32.078  13.419
58969W        W31394  13.085  19.069  14.392
58970W        W31395  23.971  21.203   3.178
58971W        W31396  12.133  21.110  11.169
58972W        W31397   8.292  38.929  12.516
58973W        W31398  32.832  19.745   1.835
58974W        W31399  20.186   8.130   3.668
58975W        W31400  19.713  41.402  11.328
58976W        W31401   7.642   5.743   1.667
58977W        W31402   5.430  22.946  12.904
58978W        W31403   2.642   3.616  12.012
58979W        W31404  30.957  16.128  10.769
58980W        W31405  40.571  14.332  14.452
58981W        W31406  44.017  40.298  12.296
58982W        W31407  31.517  42.030  12.714
58983W        W31408  33.486   4.232  13.229
58984W        W31409   2.813   3.795   1.614
58985W        W31410  11.399   6.757  12.441
58986W        W31411  29.195   8.660  14.102
58987W        W31412  35.809   2.752   2.769
58988W        W31413   7.157   3.667  13.494
58989W        W31414   4.902   8.875   0.388
58990W        W31415  14.753  32.959  13.878
58991W        W31416  23.496   0.027   1.438
58992W        W31417  32.877  14.512   2.669
58993W        W31418  20.150  28.629   2.394
58994W        W31419   4.075  25.531  11.896
58995W        W31420   5.816  10.338   3.001
58996W        W31421  36.188  41.145   3.193
58997W        W31422  35.886  42.477  12.951
58998W        W31423  25.227  16.062   3.296
58999W        W31424  15.064  11.644   0.113
59000W        W31425  30.343  17.962   0.216
59001W        W31426  35.081  39.470   3.408
59002W        W31427  41.496   9.286   0.036
59003W        W31428  23.184  10.155  10.691
59004W        W31429  40.719  43.409  11.068
59005W        W31430  20.071  19.076   3.843
59006W        W31431  38.868   8.720   3.229
59007W        W31432  24.462  37.589  14.379
59008W        W31433  10.657   9.879   2.096
59009W        W31434  16.195  10.876   1.318
59010W        W31435  20.431  29.177  11.361
59011W        W31436  42.222  21.244   2.900
59012W        W31437  22.095   7.741  12.057
59013W        W31438  19.612  40.340   3.773
59014W        W31439  14.541  40.043   3.985
59015W        W31440  10.804  17.816  14.023
59016W        W31441  24.966  11.568   2.079
59017W        W31442   8.034  15.660  13.679
59018W        W31443  42.936  23.236   0.829
59019W        W31444  29.022  37.015  11.641
59020W        W31445  36.097  10.658  11.224
59021W        W31446  21.131  24.117   1.660
59022W        W31447  15.236  40.443   0.484
59023W        W31448   5.766  22.413  10.383
59024W        W31449  42.629  18.833  10.131
59025W        W31450  37.546  38.378  12.897
59026W        W31451   1.207  44.112   9.546
59027W        W31452  12.540  31.728   0.813
59028W        W31453  11.333  44.999   0.716
59029W        W31454  17.128  40.456  13.155
59030W        W31455  27.620  12.618  12.775
59031W        W31456  14.189   5.424   0.665
59032W        W31457  31.643  40.909   5.074
59033W        W31458  35.428  42.139   2.845
59034W        W31459   5.845  41.326   0.801
59035W        W31460  17.754  33.914   9.817
59036W        W31461  37.821  34.455  14.224
59037W        W31462   8.191  38.536   4.418
59038W        W31463  13.848  18.844   0.729
59039W        W31464   1.417  29.639   4.624
59040W        W31465   3.182  40.277  12.834
59041W        W31466  23.227  10.261   3.762
59042W        W31467  16.734  38.419  11.024
59043W        W31468  10.958  22.158  10.653
59044W        W31469  40.879  22.959   9.932
59045W        W31470  17.920  29.079  13.911
59046W        W31471   0.650  19.996  12.787
59047W        W31472  31.402  11.921  11.948
59048W        W31473  36.874  33.598  10.925
59049W        W31474  31.187  43.351   0.473
59050W        W31475  27.334  39.797   3.630
59051W        W31476   1.238   8.490   2.819
59052W        W31477  17.141  13.486  11.599
59053W        W31478  33.821  15.628   1.857
59054W        W31479  36.182  28.231  14.424
59055W        W31480   4.969  12.087   2.693
59056W        W31481   7.448  29.208  11.088
59057W        W31482  36.293   8.826  11.016
59058W        W31483  15.525  13.727  11.052
59059W        W31484  37.458  37.967   0.650
59060W        W31485   7.067   1.910  12.097
59061W        W31486  36.797  14.114   3.158
59062W        W31487   6.247   2.725   4.464
59063W        W31488  37.773  11.796  12.972
59064W        W31489  36.389  23.137   3.683
59065W        W31490  19.478  15.831  13.505
59066W        W31491   6.321  24.635   1.961
59067W        W31492  43.854  15.875   4.168
59068W        W31493  22.569  17.773  13.919
59069W        W31494  34.529  36.706   4.629
59070W        W31495  29.478   2.337   0.319
59071W        W31496   1.769  10.610   0.758
59072W        W31497  30.632  14.238  13.183
59073W        W31498  21.555  40.511   2.870
59074W        W31499  26.515  31.390   0.884
59075W        W31500  31.659  12.694  11.138
59076W        W31501   6.459   3.409   0.137
59077W        W31502  17.938  19.594   4.791
59078W        W31503  19.583  44.960  12.846
59079W        W31504   6.417  32.447   1.664
59080W        W31505  26.453  32.196   1.353
59081W        W31506   3.016  36.527   1.245
59082W        W31507  30.977  19.107   0.778
59083W        W31508   6.535  42.998  12.470
59084W        W31509  16.006  37.117  13.868
59085W        W31510   6.192   2.791  13.861
59086W        W31511  16.687  22.734   3.207
59087W        W31512  40.041  15.365  12.511
59088W        W31513   1.295  41.684   2.182
59089W        W31514  44.003  31.228   5.509
59090W        W31515  32.894  34.584  10.670
59091W        W31516  14.302  38.130   1.381
59092W        W31517  15.868  11.822   1.334
59093W        W31518  18.644  21.829   1.847
59094W        W31519  27.496   1.384   2.175
59095W        W31520  35.578   6.847  10.131
59096W        W31521   6.406  41.036  11.513
59097W        W31522  41.990  11.729  10.706
59098W        W31523  18.235  17.649  10.644
59099W        W31524  26.806   3.942   2.710
59100W        W31525  32.535  20.006   0.706
59101W        W31526  44.168  15.060   4.077
59102W        W31527  40.988  40.890  13.975
59103W        W31528  38.930  21.272  13.374
59104W        W31529  43.824   4.720  10.713
59105W        W31530  20.295  26.845   3.900
59106W        W31531  16.298  18.744   1.228
59107W        W31532   7.584  16.961  11.830
59108W        W31533  15.834   8.079  13.547
59109W        W31534  16.560  34.847   2.294
59110W        W31535  27.974  32.657  10.496
59111W        W31536  20.719  21.512   4.465
59112W        W31537  15.049  43.351  14.411
59113W        W31538  34.374  24.614   4.304
59114W        W31539  10.747  16.324   2.434
59115W        W31540  15.638  29.085  14.490
59116W        W31541  28.593  18.194  11.113
59117W        W31542  42.124   3.894  10.671
59118W        W31543  39.077  26.120  13.874
59119W        W31544  20.751   8.748   1.965
59120W        W31545  31.846   4.125  14.321
59121W        W31546   1.370  16.273   4.337
59122W        W31547  22.925  35.776   3.253
59123W        W31548  16.180  16.351   3.245
59124W        W31549   9.489  37.413  14.462
59125W        W31550  35.442   2.327   1.853
59126W        W31551  40.673   1.746  14.706
59127W        W31552  11.469  25.479  12.802
59128W        W31553  26.800  11.514  13.422
59129W        W31554  18.252  36.321  10.420
59130W        W31555   5.996  12.006   0.018
59131W        W31556  42.457  18.022   0.378
59132W        W31557  29.417   3.279   3.162
59133W        W31558   8.253  39.406   0.831
59134W        W31559  37.987  43.752   1.251
59135W        W31560  15.470  19.291   4.113
59136W        W31561   5.816  29.344  13.671
59137W        W31562   5.325  29.358  11.064
59138W        W31563  23.248  14.571   1.424
59139W        W31564  11.529  40.976  14.209
59140W        W31565  19.819  39.793  13.907
59141W        W31566   3.217  33.159   3.346
59142W        W31567  16.680  18.671   4.859
59143W        W31568  40.306  43.242   1.243
59144W        W31569  17.684  12.881   4.248
59145W        W31570  25.003  27.469   0.040
59146W        W31571  27.256   1.645  13.425
59147W        W31572  14.593  36.712   1.332
59148W        W31573  34.602  26.309   3.273
59149W        W31574  28.630  28.662   3.694
59150W        W31575  23.414   4.339  10.783
59151W        W31576  15.671   2.874   4.528
59152W        W31577   8.916   0.062  13.792
59153W        W31578  36.571   8.804  11.470
59154W        W31579  18.084  23.746   2.182
59155W        W31580  38.553   7.416   0.812
59156W        W31581  21.188  44.297  10.799
59157W        W31582  35.831   0.200  12.061
59158W        W31583  39.091  41.189   2.380
59159W        W31584  19.899   9.328   0.729
59160W        W31585  39.532  12.006   0.738
59161W        W31586  12.727  43.837   0.055
59162W        W31587   0.218   4.354  14.172
59163W        W31588  35.857  24.010   1.881
59164W        W31589  19.101   6.293   0.890
59165W        W31590   5.461  18.755  11.589
59166W        W31591   1.050  38.669  13.456
59167W        W31592  29.109  17.136  12.413
59168W        W31593  31.165  17.758   3.032
59169W        W31594  41.494   0.730  13.105
59170W        W31595  39.291  43.974   2.664
59171W        W31596  20.148  41.396   2.223
59172W        W31597  44.568  11.523  10.370
59173W        W31598  13.657  12.894   3.696
59174W        W31599  27.460  35.771   0.308
59175W        W31600  13.797  44.912  12.078
59176W        W31601  15.260  27.527   0.708
59177W        W31602  15.254  10.887   4.519
59178W        W31603  10.196   9.361   2.099
59179W        W31604  38.614  11.978   5.121
59180W        W31605  12.270  29.704  10.934
59181W        W31606   5.149  21.181   2.625
59182W        W31607   9.232  12.622  12.667
59183W        W31608   8.606  43.349  14.623
59184W        W31609  39.929  11.336  14.302
59185W        W31610  33.354  36.548   3.640
59186W        W31611   3.919  19.501   1.718
59187W        W31612  34.674  32.370  12.527
59188W        W31613  42.565  33.079   1.848
59189W        W31614  35.920  15.131  11.120
59190W        W31615  35.334   6.127  14.545
59191W        W31616  31.542  28.049   3.572
59192W        W31617   2.945  37.971  14.908
59193W        W31618  34.135  39.461   3.383
59194W        W31619  21.928  39.826  11.019
59195W        W31620   0.078  13.204   4.205
59196W        W31621  32.875  27.375   3.694
59197W        W31622   7.735   5.424  14.748
59198W        W31623  16.511  37.844  11.107
59199W        W31624   6.481  25.137   3.229
59200W        W31625   1.739  12.760   2.724
59201W        W31626   2.047   0.451  14.801
59202W        W31627  23.608  41.732   3.020
59203W        W31628  41.031  20.568  14.908
59204W        W31629  43.492  39.678  11.990
59205W        W31630  16.357  31.346  13.903
59206W        W31631  36.946  17.235  11.986
59207W        W31632  30.469  24.542  12.289
59208W        W31633  38.263  19.098   0.904
59209W        W31634  44.890  23.794  11.554
59210W        W31635  38.541   6.214   0.233
59211W        W31636  20.787  26.149   5.329
59212W        W31637   5.262  14.164   0.000
59213W        W31638   0.257  17.349   0.728
59214W        W31639  17.233   6.135  10.608
59215W        W31640  27.052   8.352  11.555
59216W        W31641  31.587  15.914   0.365
59217W        W31642  15.046  38.529   3.589
59218W        W31643  16.667   9.904  13.072
59219W        W31644  25.414  41.756   4.090
59220W        W31645  15.145  18.567   4.592
59221W        W31646  41.837   3.166   1.934
59222W        W31647   7.421  19.802  12.951
59223W        W31648   6.766   6.391   1.784
59224W        W31649  20.561  40.428   3.656
59225W        W31650   2.302   2.497  14.252
59226W        W31651  22.753  19.809  12.907
59227W        W31652  30.909  13.445   1.659
59228W        W31653   4.970  17.337  11.226
59229W        W31654  30.104   7.585   1.967
59230W        W31655  27.496  25.451  10.753
59231W        W31656  37.972  35.570  13.269
59232W        W31657  34.420   8.732  12.015
59233W        W31658  38.148  40.561   4.125
59234W        W31659  43.756   8.590   2.277
59235W        W31660  34.224  10.877   1.429
59236W        W31661  26.879   9.243  11.030
59237W        W31662   8.795   9.930  10.828
59238W        W31663  12.095  10.832  13.395
59239W        W31664   4.934   1.887   1.506
59240W        W31665  25.034  13.661   2.302
59241W        W31666  31.057  32.173   0.839
59242W        W31667  29.089   8.613   0.956
59243W        W31668  31.189  35.529  11.120
59244W        W31669  37.772   4.619  14.893
59245W        W31670   1.236  31.920  13.002
59246W        W31671   3.855  14.809  12.560
59247W        W31672  29.468  34.931   0.422
59248W        W31673   0.362  18.141   1.756
59249W        W31674  22.092  19.204   1.165
59250W        W31675  34.915  21.225   3.065
59251W        W31676  26.544   5.204  12.930
59252W        W31677  26.282   2.421  12.156
59253W        W31678  12.109  28.966  12.033
59254W        W31679  10.959  20.052  12.871
59255W        W31680  35.063  22.257   2.306
59256W        W31681  37.333  24.620   0.035
59257W        W31682  29.520  18.626   3.427
59258W        W31683   8.852   2.265   3.136
59259W        W31684  35.856  13.741   1.339
59260W        W31685   4.303  30.178   3.223
59261W        W31686  29.509  19.260   4.568
59262W        W31687  40.351  10.137   1.942
59263W        W31688  21.311  15.160  12.037
59264W        W31689  40.301   0.403  10.681
59265W        W31690  38.494  24.555  11.570
59266W        W31691  16.276  11.420   3.436
59267W        W31692  30.590   8.226  11.449
59268W        W31693  14.594  14.673  12.323
59269W        W31694  20.256  32.060  10.734
59270W        W31695  38.256  16.923   1.271
59271W        W31696  12.369   5.473  12.930
59272W        W31697   6.699  37.163  10.752
59273W        W31698  39.159  35.372  11.091
59274W        W31699  16.833   4.492  12.879
59275W        W31700  31.008   3.344   1.719
59276W        W31701   4.480  10.591  10.881
59277W        W31702   8.842  21.293   4.088
59278W        W31703  24.000  18.075   5.046
59279W        W31704  37.779  21.037   0.370
59280W        W31705  40.764  10.256  14.836
59281W        W31706  16.471   9.092   3.768
59282W        W31707  10.297  33.904   2.303
59283W        W31708  29.288  10.576  14.870
59284W        W31709  12.818  17.182  13.026
59285W        W31710  15.564   1.789   0.236
59286W        W31711   9.629  39.898   4.155
59287W        W31712  15.432   2.924  11.573
59288W        W31713  27.955  17.122  10.252
59289W        W31714  20.219  19.580  10.169
59290W        W31715  26.424  15.792  10.628
59291W        W31716  39.385  13.102   3.794
59292W        W31717   0.854   2.807   1.814
59293W        W31718  22.157   0.697   0.291
59294W        W31719  37.880   4.349  13.477
59295W        W31720  19.149  15.697   3.833
59296W        W31721  24.995  21.561  10.769
59297W        W31722  41.102  17.959   1.640
59298W        W31723  28.581  17.229  11.007
59299W        W31724  41.832   6.466   0.309
59300W        W31725  35.913   8.108  12.414
59301W        W31726   6.222  20.520   4.818
59302W        W31727  25.427   0.953  12.402
59303W        W31728  32.600  16.132  11.137
59304W        W31729   8.732  34.324  12.917
59305W        W31730  41.387  24.792   0.723
59306W        W31731   8.595  13.204   1.708
59307W        W31732  17.668  21.675  14.007
59308W        W31733  33.858  12.840   2.372
59309W        W31734  42.194  29.521  11.479
59310W        W31735  10.362  12.311   4.824
59311W        W31736  36.967  34.903   3.612
59312W        W31737   3.001  17.268   1.547
59313W        W31738  26.046  21.409   3.070
59314W        W31739  36.311   2.661   2.703
59315W        W31740   3.990  35.843   1.898
59316W        W31741  27.304  18.234  11.461
59317W        W31742  43.335   0.250  12.020
59318W        W31743  15.748   5.861   3.541
59319W        W31744  29.533  11.332   1.896
59320W        W31745  22.253   3.352   0.955
59321W        W31746  17.174  20.083   0.778
59322W        W31747   7.331  19.679  11.546
59323W        W31748  34.074  35.620   0.815
59324W        W31749  13.838  20.712   2.543
59325W        W31750   2.862  30.482   4.059
59326W        W31751  37.446  17.053   1.252
59327W        W31752   0.582  15.142  11.039
59328W        W31753  44.032  35.442  11.175
59329W        W31754   9.725  10.786   1.447
59330W        W31755   5.294  23.477   0.012
59331W        W31756  37.377  37.251   2.910
59332W        W31757  30.654  38.423   2.784
59333W        W31758   4.317  33.508   0.494
59334W        W31759  21.205  17.545  10.985
59335W        W31760  25.548   4.473   0.380
59336W        W31761   2.250   8.623   3.280
59337W        W31762  36.447  24.941   1.251
59338W        W31763  37.092  37.982   0.285
59339W        W31764  23.671  14.180   2.238
59340W        W31765  15.377  23.418  14.914
59341W        W31766  27.672   6.266   0.214
59342W        W31767  31.623  13.608  11.166
59343W        W31768  42.829  27.193   0.938
59344W        W31769  30.012  25.677  14.439
59345W        W31770  32.311  40.015   4.121
59346W        W31771  21.546  42.783   4.181
59347W        W31772   4.176   1.745   1.728
59348W        W31773   0.814   7.895  14.053
59349W        W31774  39.518  25.880  12.946
59350W        W31775  31.976  38.711   4.726
59351W        W31776  18.741  39.207  11.848
59352W        W31777   7.268  23.588  10.858
59353W        W31778   1.490  33.848  14.641
59354W        W31779   4.838  11.182  12.051
59355W        W31780  19.808   6.478  14.404
59356W        W31781  14.720  20.519   4.037
59357W        W31782  24.079  20.729   0.351
59358W        W31783  14.239  42.741  14.284
59359W        W31784  14.162  34.060   0.808
59360W        W31785  40.544  21.453   0.367
59361W        W31786   9.632  40.865  11.434
59362W        W31787  19.140  26.730  14.375
59363W        W31788   7.719  36.477  14.005
59364W        W31789   0.399  15.727   5.044
59365W        W31790  35.430   5.724  10.780
59366W        W31791  24.762  31.990  11.611
59367W        W31792   0.817  11.862   1.746
59368W        W31793   6.403  44.773   2.797
59369W        W31794  24.639  27.336  11.159
59370W        W31795  23.059  27.390   4.302
59371W        W31796   7.895  10.369   5.134
59372W        W31797  26.623   7.284   4.842
59373W        W31798  27.125  17.936   4.122
59374W        W31799  14.309  15.630  13.316
59375W        W31800  10.414  24.598  11.593
59376W        W31801  34.654  14.360   0.286
59377W        W31802  17.490  29.627  10.647
59378W        W31803  40.929   4.649  12.761
59379W        W31804  37.103  35.415   3.774
59380W        W31805  10.149  23.561   0.567
59381W        W31806   6.920  12.259  12.437
59382W        W31807  15.512  25.149   3.718
59383W        W31808   3.234  37.442   1.170
59384W        W31809  36.476  12.886   4.084
59385W        W31810   2.877   8.635   0.748
59386W        W31811   8.147  14.639  13.331
59387W        W31812  22.223  27.594   2.265
59388W        W31813  28.126  31.393   0.950
59389W        W31814   9.678  22.245   3.426
59390W        W31815  36.234  32.953  11.434
59391W        W31816  34.792  16.833  13.857
59392W        W31817  10.605   1.787  10.374
59393W        W31818  33.440  30.970   4.562
59394W        W31819   2.455   0.537   2.663
59395W        W31820  19.259  27.786   3.869
59396W        W31821  19.396  42.529   1.907
59397W        W31822  15.718  34.478   1.208
59398W        W31823  13.542  13.356   4.558
59399W        W31824  22.748  13.713   0.305
59400W        W31825   7.389  15.077  13.745
59401W        W31826  25.647  26.420  11.027
59402W        W31827  20.588  31.149  12.977
59403W        W31828  35.054  21.503  11.447
59404W        W31829  15.627  40.247   0.796
59405W        W31830  35.386  18.284   3.336
59406W        W31831  21.662   8.841   2.786
59407W        W31832   1.805  14.340  12.995
59408W        W31833  26.111  16.328   0.900
59409W        W31834  43.413   0.211   4.271
59410W        W31835  39.404  15.382   2.214
59411W        W31836   3.805  33.565  12.012
59412W        W31837  40.308  31.145   1.690
59413W        W31838  14.710  32.507  12.080
59414W        W31839   9.682  35.283  12.856
59415W        W31840  12.334  18.228  12.049
59416W        W31841   5.582  12.529  11.892
59417W        W31842  18.696  16.170   3.175
59418W        W31843   3.701  19.044   0.129
59419W        W31844  38.105   6.515  14.000
59420W        W31845  13.196  25.666   2.921
59421W        W31846  35.654  31.384   0.159
59422W        W31847  38.212  21.611   4.553
59423W        W31848  32.670  21.551  10.587
59424W        W31849  33.082  21.973   3.334
59425W        W31850  17.918  27.764  10.688
59426W        W31851  13.161   1.804  11.648
59427W        W31852  13.229  24.173   2.136
59428W        W31853  28.572  41.025  11.277
59429W        W31854  34.409  31.879  13.398
59430W        W31855  34.083   9.099   2.718
59431W        W31856  15.149  11.560  14.129
59432W        W31857  35.996   0.074   0.546
59433W        W31858  38.867   3.349   1.912
59434W        W31859  29.582  40.993  13.901
59435W        W31860   6.122  39.368   0.631
59436W        W31861  37.787  33.129  11.571
59437W        W31862  13.024   7.851  10.759
59438W        W31863  26.089  43.390  13.629
59439W        W31864  29.529  40.728  13.456
59440W        W31865   7.230  36.849   3.455
59441W        W31866  19.294  19.477   3.269
59442W        W31867   1.012  15.507  11.898
59443W        W31868  44.468   6.052  13.489
59444W        W31869  22.561  26.224  14.874
59445W        W31870  39.489  38.043  10.780
59446W        W31871  26.008  34.889   2.829
59447W        W31872  19.753  10.598  14.515
59448W        W31873  17.381  25.004  11.551
59449W        W31874  23.467  11.509  12.005
59450W        W31875  44.404  24.979  11.516
59451W        W31876   4.253  25.097   2.931
59452W        W31877   7.446  31.026  12.537
59453W        W31878   4.955  23.961  13.757
59454W        W31879  25.539  13.406   1.715
59455W        W31880  19.204   4.234  13.462
59456W        W31881  13.635  36.023  13.090
59457W        W31882   5.874  35.038  14.042
59458W        W31883  12.716   6.314   4.657
59459W        W31884  43.844  22.113  12.180
59460W        W31885  28.514  31.464   0.389
59461W        W31886   1.969  19.744   3.320
59462W        W31887   7.785  42.598   1.416
59463W        W31888   3.441  35.016   3.654
59464W        W31889  34.261  29.500   3.535
59465W        W31890  22.531  34.952   4.189
59466W        W31891  12.182  19.592   0.758
59467W        W31892  27.610  41.786  14.650
59468W        W31893  40.447  10.725  11.255
59469W        W31894  42.319  10.683   4.935
59470W        W31895  18.639  41.318   3.713
59471W        W31896   5.868  12.711   3.822
59472W        W31897   5.731  21.250   5.065
59473W        W31898  17.473  39.035  13.771
59474W        W31899  23.338   3.157  12.395
59475W        W31900  37.075  24.065   0.906
59476W        W31901  13.397  44.539   0.931
59477W        W31902  26.946   2.408   1.913
59478W        W31903  30.380  10.691   3.105
59479W        W31904  27.068  19.267  14.420
59480W        W31905  20.267  44.370  13.757
59481W        W31906  34.105  21.507  10.397
59482W        W31907  19.825   8.384   0.724
59483W        W31908  26.977  12.798   3.721
59484W        W31909   4.522  16.094   2.920
59485W        W31910  34.596  10.093   4.127
59486W        W31911  18.760  30.833  11.582
59487W        W31912  31.356  14.338   0.414
59488W        W31913  40.602  21.527  13.297
59489W        W31914  23.454  19.129   0.901
59490W        W31915  31.159   1.573  13.792
59491W        W31916  16.721  12.902   0.969
59492W        W31917   2.903  23.490   3.620
59493W        W31918  12.815  27.786   2.896
59494W        W31919   8.792  11.693  14.355
59495W        W31920   1.233  13.363   0.293
59496W        W31921  15.756  28.237   0.865
59497W        W31922  32.004  43.571   1.817
59498W        W31923  23.218  34.945  10.554
59499W        W31924   4.201  39.869   2.865
59500W        W31925   6.062  22.052  10.688
59501W        W31926  22.514  44.800  12.520
59502W        W31927  33.165   1.454   4.770
59503W        W31928  28.421  21.677   5.270
59504W        W31929  19.459   2.886  14.332
59505W        W31930  13.309   5.460  14.963
59506W        W31931  19.510  12.061  14.108
59507W        W31932  41.103  24.738   1.476
59508W        W31933  29.262  40.501   5.117
59509W        W31934  39.336  33.600  11.065
59510W        W31935  24.194  27.477  12.082
59511W        W31936  19.495  41.367   2.414
59512W        W31937  18.254   0.035   0.964
59513W        W31938  16.887  26.538  10.167
59514W        W31939  32.232  27.707  12.515
59515W        W31940  26.078  39.445  11.898
59516W        W31941   2.165   1.731  10.155
59517W        W31942  27.747  43.921  14.832
59518W        W31943  28.201   2.579   4.499
59519W        W31944   6.895   5.439  14.443
59520W        W31945  12.338   6.356  12.658
59521W        W31946  38.584  14.396  13.617
59522W        W31947  34.898  23.605  10.891
59523W        W31948   1.994  37.788  13.102
59524W        W31949  31.479  32.935   4.315
59525W        W31950  40.209  26.088   3.607
59526W        W31951  29.581   4.397   4.162
59527W        W31952   8.059  13.675   2.821
59528W        W31953  29.319   3.911   1.929
59529W        W31954   8.167  44.752  12.108
59530W        W31955   4.907  13.690  14.271
59531W        W31956  17.760  24.082   0.363
59532W        W31957  22.266  34.938   0.368
59533W        W31958   9.426  35.174   2.279
59534W        W31959  10.817  32.964  10.628
59535W        W31960   3.078  11.015   3.717
59536W        W31961   1.434  34.152  11.521
59537W        W31962  25.948   7.943  14.588
59538W        W31963  42.374  20.783  14.336
59539W        W31964  14.143  12.257   3.934
59540W        W31965  14.778  36.151  14.809
59541W        W31966   4.500   2.258   4.604
59542W        W31967  44.278   8.511   3.644
59543W        W31968  30.471  33.403  11.675
59544W        W31969  44.811   9.840   3.596
59545W        W31970  11.927  32.605   1.729
59546W        W31971   5.910  43.715   2.248
59547W        W31972  23.218  33.865  13.309
59548W        W31973  43.889  30.499   1.074
59549W        W31974   1.025  25.039  14.930
59550W        W31975  15.109  12.743  14.954
59551W        W31976  25.042  10.416  11.853
59552W        W31977  14.687  44.414   1.387
59553W        W31978   0.801  21.044  11.611
59554W        W31979  26.813  37.962   4.592
59555W        W31980  12.828  38.646  11.626
59556W        W31981   7.292  18.884   1.239
59557W        W31982  19.801  18.303   4.219
59558W        W31983  15.298  42.659  11.632
59559W        W31984  26.011  42.869   3.719
59560W        W31985  26.578  24.136   1.345
59561W        W31986  13.781   8.875   1.873
59562W        W31987  30.356  15.316   0.316
59563W        W31988  30.551  17.644  14.860
59564W        W31989  40.469  23.999   4.117
59565W        W31990  34.555  36.534  13.891
59566W        W31991  30.190  37.074   2.237
59567W        W31992  36.177   9.276   3.183
59568W        W31993   3.787  24.469   1.859
59569W        W31994   4.326  17.022   3.654
59570W        W31995   9.265  32.166  13.935
59571W        W31996  40.752  10.363   1.691
59572W        W31997  18.169  13.435  12.002
59573W        W31998  27.862  16.703   2.732
59574W        W31999  44.816  38.893   1.945
59575W        W32000  24.246   5.379   3.219
59576W        W32001  36.799  34.913   2.724
59577W        W32002  28.654  44.277   2.211
59578W        W32003  18.447  28.899   2.199
59579W        W32004  37.299  40.941  10.764
59580W        W32005  32.410  40.359  13.000
59581W        W32006  34.459  37.872   4.050
59582W        W32007  41.404   4.249   1.359
59583W        W32008  31.813   0.872   1.144
59584W        W32009  11.325   6.294  11.197
59585W        W32010  16.723  14.178   3.429
59586W        W32011  22.262   2.591   4.107
59587W        W32012  39.286  12.480   0.670
59588W        W32013   0.920  39.101  13.192
59589W        W32014  41.473   2.711  12.456
59590W        W32015   9.482  24.821  14.059
59591W        W32016  21.027   9.060  10.411
59592W        W32017  25.215  20.006  12.547
59593W        W32018   2.814  34.269   0.747
59594W        W32019  25.750   8.248   2.786
59595W        W32020   2.971   6.548  11.521
59596W        W32021  37.776  19.572  14.451
59597W        W32022  26.441  42.372   1.310
59598W        W32023  29.134   5.887  11.569
59599W        W32024  31.987  31.292   4.299
59600W        W32025   7.752  22.881   0.322
59601W        W32026  26.954  10.837   1.420
59602W        W32027  27.015  24.919  10.040
59603W        W32028  39.064  17.342  14.163
59604W        W32029  12.901  25.564   4.828
59605W        W32030  41.459  15.868  14.913
59606W        W32031  35.868  38.990  10.416
59607W        W32032   9.916  40.233  14.482
59608W        W32033  28.159  42.562   2.500
59609W        W32034  44.491  16.007  11.055
59610W        W32035  41.001  26.245   1.318
59611W        W32036  25.576  12.516   2.214
59612W        W32037  27.184   1.511  12.910
59613W        W32038  23.508  28.581   4.119
59614W        W32039  15.166  34.457   4.571
59615W        W32040   0.700   6.433  12.872
59616W        W32041  17.596  29.680  12.964
59617W        W32042  18.513  21.274  11.425
59618W        W32043  17.293   5.450   2.117
59619W        W32044  25.218  37.121   1.882
59620W        W32045  11.869   2.809  14.380
59621W        W32046  33.948  12.738   0.991
59622W        W32047  34.004  12.553  13.440
59623W        W32048  34.552  18.775   2.766
59624W        W32049  40.779   6.432  14.919
59625W        W32050  13.715  13.825  12.499
59626W        W32051  41.005  24.995   1.049
59627W        W32052  27.450   3.847  12.199
59628W        W32053  27.216  12.184  12.406
59629W        W32054  10.055   3.296  14.411
59630W        W32055  17.518  31.919   3.727
59631W        W32056  16.184  41.275   1.324
59632W        W32057  20.166  25.653   2.765
59633W        W32058  13.228  30.241   0.320
59634W        W32059   3.383  44.993   3.640
59635W        W32060  43.971  28.588   3.565
59636W        W32061  40.251  30.106   3.344
59637W        W32062   5.842  38.159   1.278
59638W        W32063   4.207  30.562   4.084
59639W        W32064  13.950  16.409  13.486
59640W        W32065   0.166  24.970  14.822
59641W        W32066  29.464  22.067  12.311
59642W        W32067   8.395  23.757   4.067
59643W        W32068   6.160  23.526   0.971
59644W        W32069  24.207   2.262   0.937
59645W        W32070  16.284  29.969  13.993
59646W        W32071   0.836  44.550  11.195
59647W        W32072   7.672  27.505  11.569
59648W        W32073  29.786   6.889   2.166
59649W        W32074   1.326   7.291   4.656
59650W        W32075  28.122  14.002   3.815
59651W        W32076  44.247  18.247   0.379
59652W        W32077   5.402  31.929  12.069
59653W        W32078  44.729  14.314   0.198
59654W        W32079  27.439   2.319   3.617
59655W        W32080  23.555  39.985  14.052
59656W        W32081  30.065   4.416  13.701
59657W        W32082  44.729  14.228  11.208
59658W        W32083  38.940  10.784   0.276
59659W        W32084  31.814  35.689   3.333
59660W        W32085   0.334  18.906  10.604
59661W        W32086   7.744  30.120  14.989
59662W        W32087  26.952   8.432  14.477
59663W        W32088   6.449  36.378   1.206
59664W        W32089  44.383  41.875   2.915
59665W        W32090  34.089  12.348  11.396
59666W        W32091   9.180  16.119  12.919
59667W        W32092  18.154   3.197  10.320
59668W        W32093  14.325  35.009  10.937
59669W        W32094  18.089  12.108  13.827
59670W        W32095  20.032  19.142   0.462
59671W        W32096  36.559  35.316   1.358
59672W        W32097   6.936   8.688   4.176
59673W        W32098  27.614  10.706   3.141
59674W        W32099  25.494  25.578   4.631
59675W        W32100  14.700  11.195  10.559
59676W        W32101   3.262  33.995   0.891
59677W        W32102  17.405   3.973  10.168
59678W        W32103   2.029  43.998   2.840
59679W        W32104  30.711   1.952  12.358
59680W        W32105  31.122  30.497   4.076
59681W        W32106  11.151   9.207   1.352
59682W        W32107  31.965  28.211   4.032
59683W        W32108   0.334   1.169   3.403
59684W        W32109   9.258   1.175  12.147
59685W        W32110   9.743   9.348   3.874
59686W        W32111   5.881  31.168   3.623
59687W        W32112  14.819  30.370  13.444
59688W        W32113   2.395   9.381   1.001
59689W        W32114   2.068  25.489  10.975
59690W        W32115  24.061  43.565   4.830
59691W        W32116  39.322  44.415  14.562
59692W        W32117  18.100  30.227  14.980
59693W        W32118  32.077  20.988  11.932
59694W        W32119  31.970   5.409   3.634
59695W        W32120   5.853  41.137   2.100
59696W        W32121  31.622  23.780  11.836
59697W        W32122  18.822  38.077   0.919
59698W        W32123  16.360  14.595  11.176
59699W        W32124  19.439   4.003   4.102
59700W        W32125  43.826   2.000   4.545
59701W        W32126   7.606   5.302  13.357
59702W        W32127  12.793   4.690  10.638
59703W        W32128  28.575  34.586  11.120
59704W        W32129  22.218   6.690  13.535
59705W        W32130  44.663  30.996  11.829
59706W        W32131   9.634   7.920   3.279
59707W        W32132  14.505   9.906   3.809
59708W        W32133  32.542  10.646   2.481
59709W        W32134  41.767  37.726  14.984
59710W        W32135  30.147   8.417  11.201
59711W        W32136  28.008  12.677   4.644
59712W        W32137  33.110  15.300  14.226
59713W        W32138  22.484  30.962  14.184
59714W        W32139  37.405  12.031  11.050
59715W        W32140  10.933  24.629   3.422
59716W        W32141   3.917  37.436  13.810
59717W        W32142  26.042   4.929   4.574
59718W        W32143  34.370  40.131   2.886
59719W        W32144  34.968  32.551  11.577
59720W        W32145  23.117  18.178   4.158
59721W        W32146  11.942   9.397   1.789
59722W        W32147  34.602  19.367   0.830
59723W        W32148   8.552  37.084  10.447
59724W        W32149   2.836  20.255  10.583
59725W        W32150  10.260  16.421  14.398
59726W        W32151  19.317  38.563  11.926
59727W        W32152  34.666  44.485   4.197
59728W        W32153  34.856  42.859   2.880
59729W        W32154  36.254  28.193  13.577
59730W        W32155  31.608  16.769   1.460
59731W        W32156   9.722  30.358  12.846
59732W        W32157   2.223   5.895  14.841
59733W        W32158   6.724   9.354   2.791
59734W        W32159  40.553  14.264   1.462
59735W        W32160  24.054   8.162  12.478
59736W        W32161  44.467  40.291  11.129
59737W        W32162  39.907   1.001   0.210
59738W        W32163  23.790   7.827  14.131
59739W        W32164  26.573   5.775  14.956
59740W        W32165   9.187  14.929  11.855
59741W        W32166   3.505   9.939  10.993
59742W        W32167  42.419  15.539   4.718
59743W        W32168  23.809  11.172   3.608
59744W        W32169   3.717  36.885   0.863
59745W        W32170  21.164  38.543   3.846
59746W        W32171  28.969  10.161  14.926
59747W        W32172   0.102   7.130   2.196
59748W        W32173  43.492  29.193  14.703
59749W        W32174  34.130  39.486  11.053
59750W        W32175  17.318  41.365   2.693
59751W        W32176   7.906  42.296  13.085
59752W        W32177  21.130  33.789   4.105
59753W        W32178   8.424  19.062  13.883
59754W        W32179  18.347  26.520   4.235
59755W        W32180  10.845  16.081   1.460
59756W        W32181  43.507  40.625  10.208
59757W        W32182  37.407  17.501   3.209
59758W        W32183  40.898   4.263   1.005
59759W        W32184  16.311  41.460  10.664
59760W        W32185   1.709  37.718   4.269
59761W        W32186   0.796  18.695  10.727
59762W        W32187  26.825  38.901  10.318
59763W        W32188  36.234  14.756  11.361
59764W        W32189   3.464  28.685  10.743
59765W        W32190  22.055  13.298  12.936
59766W        W32191   8.608   4.216  10.989
59767W        W32192  29.690  39.086  10.257
59768W        W32193  20.157   1.007  13.921
59769W        W32194  31.007  27.941   1.795
59770W        W32195   0.733   0.024  12.932
59771W        W32196  32.276   7.153  14.965
59772W        W32197  40.986  42.767  11.419
59773W        W32198  26.682  21.241  10.557
59774W        W32199   5.840   3.386  14.516
59775W        W32200  32.024  17.989  11.926
59776W        W32201  33.382   5.386   1.321
59777W        W32202  20.892   9.619   4.522
59778W        W32203  20.503  37.312   4.099
59779W        W32204  23.152  35.902  12.625
59780W        W32205  26.975  25.022  11.036
59781W        W32206  24.069  18.673   0.478
59782W        W32207  18.059   1.939  12.987
59783W        W32208  15.547   2.825  10.945
59784W        W32209  35.036  10.056  13.295
59785W        W32210  44.692  33.884  11.936
59786W        W32211  33.730   0.306   1.317
59787W        W32212   8.799  33.296  12.741
59788W        W32213  28.136  19.585   2.930
59789W        W32214  25.542  42.272   3.329
59790W        W32215   2.053   4.651   3.820
59791W        W32216  15.340  11.683  11.616
59792W        W32217   6.377  34.459  12.325
59793W        W32218  22.151  36.705   2.615
59794W        W32219  41.892   0.385  13.365
59795W        W32220   2.887  19.284  14.017
59796W        W32221  29.604  31.319   3.783
59797W        W32222  35.106   4.950   3.623
59798W        W32223  28.153  12.046  13.454
59799W        W32224  35.923  27.035   0.442
59800W        W32225  38.943   2.867   2.090
59801W        W32226  22.741  38.701  12.434
59802W        W32227  31.940  16.918  13.888
59803W        W32228  11.750  14.798   1.182
59804W        W32229  24.738  30.450  12.938
59805W        W32230  27.727  39.897   9.722
59806W        W32231   4.402  10.223  14.294
59807W        W32232  29.479  28.432  11.918
59808W        W32233  18.714  14.529  11.036
59809W        W32234  18.137  23.610   3.807
59810W        W32235  38.044  13.040   2.881
59811W        W32236  44.312  42.449  13.194
59812W        W32237  13.711  23.799   4.507
59813W        W32238   9.244  43.381   4.585
59814W        W32239  13.224  28.560  12.395
59815W        W32240  25.168  30.426   1.002
59816W        W32241  14.932  30.763   4.509
59817W        W32242  28.369  38.530   5.056
59818W        W32243  16.483  10.180   2.174
59819W        W32244   2.350  34.587  12.194
59820W        W32245  34.569  22.412   4.499
59821W        W32246   0.286  18.558   3.621
59822W        W32247   7.631   0.769   5.107
59823W        W32248  31.981  18.424  12.470
59824W        W32249  10.378  27.901  12.428
59825W        W32250   2.722  29.407   0.758
59826W        W32251   6.349  22.730  13.763
59827W        W32252  10.340  38.253   3.986
59828W        W32253  33.139   6.419   3.296
59829W        W32254  43.210   0.378  11.142
59830W        W32255   9.855  21.340   1.331
59831W        W32256  35.620   2.822   3.283
59832W        W32257  25.152   8.110   0.202
59833W        W32258  21.354  24.015   1.184
59834W        W32259  36.779  29.545  14.351
59835W        W32260  20.152  18.126  10.670
59836W        W32261  40.853  41.297  11.539
59837W        W32262  43.384  18.473   4.359
59838W        W32263  20.742   3.241   0.484
59839W        W32264  28.954  30.564  13.511
59840W        W32265  27.516  13.841   2.965
59841W        W32266  36.791  20.189  12.029
59842W        W32267  43.392  26.238   2.288
59843W        W32268  22.784  13.065   4.176
59844W        W32269   1.714  32.211  14.067
59845W        W32270   9.476  39.925  13.045
59846W        W32271  43.033  43.234   0.792
59847W        W32272   4.991   6.829  13.572
59848W        W32273  17.306  12.514  11.658
59849W        W32274  26.926  13.196   0.810
59850W        W32275   3.316  37.102  12.016
59851W        W32276  33.986   4.247  13.785
59852W        W32277   8.407  13.371   0.756
59853W        W32278  11.462  27.555  14.321
59854W        W32279  15.745  39.509  14.301
59855W        W32280  12.067  29.045   1.767
59856W        W32281  17.358  17.743   2.298
59857W        W32282  24.568  20.099   2.293
59858W        W32283  36.357   1.430   4.079
59859W        W32284  13.793   5.412   9.573
59860W        W32285  13.248  30.218   1.207
59861W        W32286  12.651  44.599   4.109
59862W        W32287  27.164  18.225   4.624
59863W        W32288   0.252  30.705  13.001
59864W        W32289   3.330  25.748  11.292
59865W        W32290   5.857  12.703  14.389
59866W        W32291   2.937   7.790  13.956
59867W        W32292  35.865  16.516  14.545
59868W        W32293  41.023  40.226  13.036
59869W        W32294  37.461  23.028  10.775
59870W        W32295  12.183   2.133   1.916
59871W        W32296   7.453  14.761  10.717
59872W        W32297  28.262  38.709  10.082
59873W        W32298  20.039   6.156   2.850
59874W        W32299  25.752   1.661  14.516
59875W        W32300  22.191  33.039  14.561
59876W        W32301  40.971  20.328   2.772
59877W        W32302  27.165   9.687  11.075
59878W        W32303  25.047  31.118   4.767
59879W        W32304  20.839  30.596   1.289
59880W        W32305  23.922  44.216   2.341
59881W        W32306  17.337  12.760   1.819
59882W        W32307  40.233  30.418   1.281
59883W        W32308   7.834  28.000  11.565
59884W        W32309  13.216   9.870  14.466
59885W        W32310  29.956   4.241   3.837
59886W        W32311  22.634  42.087  14.420
59887W        W32312  10.056  31.711   0.783
59888W        W32313   2.364  39.758   4.584
59889W        W32314  35.665  26.057   0.932
59890W        W32315  25.454   4.877  12.101
59891W        W32316  16.138  17.330  11.981
59892W        W32317  13.677  34.478  10.366
59893W        W32318  38.772  26.011   1.747
59894W        W32319   4.418  43.448  11.867
59895W        W32320  43.766  35.246  14.843
59896W        W32321   9.918  11.212   0.685
59897W        W32322  19.018  35.337  11.513
59898W        W32323  28.193  42.772   1.728
59899W        W32324  16.790  18.312  11.553
59900W        W32325   6.008  39.255  13.513
59901W        W32326  19.048  26.146   2.989
59902W        W32327  11.814   8.934  12.061
59903W        W32328   2.305  40.913  10.520
59904W        W32329   8.601   7.295  12.066
59905W        W32330  35.343  32.458  11.956
59906W        W32331   2.447  38.001  11.559
59907W        W32332  40.995  21.670  13.905
59908W        W32333   4.817   8.312  10.785
59909W        W32334   9.710  19.114  13.240
59910W        W32335  19.715  17.587   1.940
59911W        W32336  16.314  44.423   3.188
59912W        W32337  26.451  20.152  11.911
59913W        W32338   4.266  33.345  13.558
59914W        W32339  38.322  32.601  10.937
59915W        W32340  34.064   9.644  12.572
59916W        W32341   5.427  34.962   4.104
59917W        W32342  22.657   1.516  10.066
59918W        W32343  33.683   2.235  11.416
59919W        W32344   7.611  30.117  11.940
59920W        W32345  32.006  27.092   1.697
59921W        W32346   8.694  43.378  11.247
59922W        W32347  13.297   5.345   3.739
59923W        W32348   0.323  14.783  13.247
59924W        W32349   6.186  15.318   3.225
59925W        W32350  19.062  12.241   2.263
59926W        W32351  37.436  40.330   0.837
59927W        W32352  34.397  15.930  14.382
59928W        W32353  30.916  31.894   0.453
59929W        W32354  38.660  27.098  12.993
59930W        W32355  38.445  17.339  13.033
59931W        W32356  38.837  39.863  10.164
59932W        W32357   9.023  17.012  12.576
59933W        W32358  22.739   7.517   5.131
59934W        W32359  15.145  19.867  13.021
59935W        W32360  30.647  18.349  14.001
59936W        W32361  22.650   8.847  12.991
59937W        W32362   0.177  30.412   1.694
59938W        W32363  14.739   9.676  14.918
59939W        W32364  12.414  30.468  12.088
59940W        W32365  30.992   3.767  14.970
59941W        W32366   6.722  16.285  14.939
59942W        W32367  29.006   7.284   0.274
59943W        W32368   3.769  41.883   0.248
59944W        W32369   6.172  25.419   5.263
59945W        W32370  28.162  24.984  12.948
59946W        W32371   7.622  44.909  14.893
59947W        W32372  33.932  11.398   2.261
59948W        W32373   7.647  21.759  13.008
59949W        W32374   5.828  33.438  10.446
59950W        W32375  29.053   0.067  14.921
59951W        W32376  30.501  18.149   0.683
59952W        W32377   6.349  29.887   4.647
59953W        W32378  22.701  25.578  13.979
59954W        W32379  13.880  11.163   3.365
59955W        W32380  10.264  18.675  14.423
59956W        W32381   9.553  25.501   3.068
59957W        W32382  41.063  21.304   0.414
59958W        W32383  35.616  28.715   0.830
59959W        W32384  33.100  32.010  11.664
59960W        W32385  20.223  38.093   1.868
59961W        W32386  28.975   5.192  14.537
59962W        W32387  12.984   5.957   3.158
59963W        W32388  19.239  35.596  14.950
59964W        W32389  29.135  42.287  10.238
59965W        W32390  32.354   9.777   4.536
59966W        W32391  32.514  17.644  13.453
59967W        W32392  38.068  28.686   1.749
59968W        W32393  43.766  15.205  11.916
59969W        W32394   7.842  38.946   0.478
59970W        W32395  39.449  31.857   3.607
59971W        W32396   8.241   9.180   1.695
59972W        W32397  26.185   3.305   0.644
59973W        W32398  33.033  14.836   4.724
59974W        W32399  31.600  17.176  10.880
59975W        W32400   0.548  21.516   1.053
59976W        W32401  34.597  17.343  13.047
59977W        W32402  43.946  29.128   4.615
59978W        W32403   9.370  36.051  10.673
59979W        W32404  18.300   2.745   1.467
59980W        W32405  21.563  31.698  11.928
59981W        W32406  29.109  18.727  12.613
59982W        W32407  17.719  16.123  13.522
59983W        W32408  21.749  16.042   0.811
59984W        W32409   9.288   3.933  12.096
59985W        W32410  34.512  20.447   3.249
59986W        W32411  23.694  39.828   1.805
59987W        W32412  32.346  23.481   0.663
59988W        W32413  41.519  26.463  10.658
59989W        W32414  36.529  22.136  14.913
59990W        W32415  28.218  25.625  11.250
59991W        W32416  40.295  22.719  14.829
59992W        W32417  38.957  35.623  14.894
59993W        W32418  28.686   9.857  11.205
59994W        W32419  27.313  31.488  10.179
59995W        W32420  44.966  32.584   0.012
59996W        W32421   5.349  26.956   2.758
59997W        W32422   6.813  32.598   0.283
59998W        W32423   0.426  30.681   1.319
59999W        W32424  25.057   1.138   3.766
60000W        W32425  10.655  12.111   0.472
60001W        W32426  38.905  34.933   0.923
60002W        W32427  12.161   3.954  12.155
60003W        W32428   0.379  19.539  12.679
60004W        W32429  25.194  35.930   2.381
60005W        W32430  41.893  11.843   0.784
60006W        W32431  43.452  26.174   3.169
60007W        W32432  22.020   6.336  12.739
60008W        W32433  28.964  19.190  14.044
60009W        W32434   0.361  15.716   0.955
60010W        W32435  32.689  30.169  13.161
60011W        W32436  25.703  38.813   4.856
60012W        W32437  27.624  33.812  13.914
60013W        W32438  44.838  31.366   4.565
60014W        W32439  40.823  40.724   3.359
60015W        W32440  41.444  11.853   5.022
60016W        W32441  39.872  36.139   2.635
60017W        W32442  39.429  28.242   0.903
60018W        W32443   4.391   8.571   1.659
60019W        W32444  28.581  42.040  12.178
60020W        W32445   5.361   1.660   1.213
60021W        W32446  29.529  15.036  14.231
60022W        W32447  28.665  14.683   2.078
60023W        W32448  14.065  35.907   3.761
60024W        W32449  43.456  37.067   4.715
60025W        W32450  20.027  29.939  13.806
60026W        W32451   8.903  40.101  12.207
60027W        W32452  30.705  10.361  12.886
60028W        W32453  23.247  27.145  14.316
60029W        W32454   9.527  22.287  13.925
60030W        W32455  12.885  42.868   0.770
60031W        W32456   4.448   7.288   0.802
60032W        W32457  14.770  37.709  11.561
60033W        W32458  25.765  12.604  14.053
60034W        W32459  10.842  35.422   2.160
60035W        W32460  16.895   7.454   5.115
60036W        W32461   8.247  39.354  13.458
60037W        W32462  21.298  31.587   2.253
60038W        W32463  33.536  13.521  13.830
60039W        W32464  44.304   0.289   0.555
60040W        W32465  10.338  35.280   0.795
60041W        W32466  14.627  22.175   1.026
60042W        W32467  34.688  32.534   2.855
60043W        W32468   7.110  36.889  10.741
60044W        W32469   0.728  17.371  11.058
60045W        W32470  10.783   3.385  11.924
60046W        W32471  44.124  44.502   0.248
60047W        W32472  27.078  20.156  13.935
60048W        W32473  42.455  38.423   2.617
60049W        W32474  14.175  44.265   1.921
60050W        W32475  42.966  24.927  10.676
60051W        W32476  35.103  24.065  10.745
60052W        W32477  41.982   1.748   2.034
60053W        W32478  42.937   3.071   2.927
60054W        W32479  43.038  41.920   3.623
60055W        W32480  24.989   2.664   2.607
60056W        W32481  41.079  38.150   4.151
60057W        W32482  34.889  25.996  12.436
60058W        W32483  34.368  15.129  12.583
60059W        W32484  41.112  31.593   0.390
60060W        W32485  21.032  42.531   1.384
60061W        W32486  36.522  38.792   1.314
60062W        W32487  15.826  26.876  14.651
60063W        W32488  29.562  15.220  14.708
60064W        W32489   9.310  11.787  12.108
60065W        W32490   7.431   1.921   1.731
60066W        W32491  24.119   1.416   1.204
60067W        W32492  16.794   9.127   4.177
60068W        W32493  11.350  13.632  11.425
60069W        W32494  42.278   0.272   2.207
60070W        W32495  26.996   8.367  10.677
60071W        W32496  20.790   6.169   1.222
60072W        W32497   7.706  35.421   4.217
60073W        W32498  30.885  27.649  13.760
60074W        W32499  33.331  10.800  12.032
60075W        W32500  13.679  41.813  13.000
60076W        W32501  10.139  22.954  10.237
60077W        W32502  22.977  25.621  12.192
60078W        W32503   7.376   8.161  14.384
60079W        W32504  19.842  33.018   4.575
60080W        W32505   0.075  27.914   3.261
60081W        W32506  14.697  18.306   0.449
60082W        W32507  12.828   2.429   4.753
60083W        W32508   7.599   0.494  13.553
60084W        W32509   4.388  35.773  14.991
60085W        W32510  14.880  15.523   4.189
60086W        W32511   2.903   5.206   2.164
60087W        W32512  10.927   4.947   2.274
60088W        W32513   9.402  24.951   3.966
60089W        W32514  40.791  28.398   3.077
60090W        W32515  20.524  14.361  13.026
60091W        W32516  29.913  13.272   1.657
60092W        W32517  34.420  34.608   1.960
60093W        W32518  43.264   5.958  14.411
60094W        W32519  24.593  42.340   3.634
60095W        W32520  18.778  15.307  14.373
60096W        W32521  31.389  14.141   2.182
60097W        W32522  31.522  34.035   0.227
60098W        W32523  10.931  19.535  11.286
60099W        W32524  33.542  10.956  14.877
60100W        W32525  17.510  21.078   2.437
60101W        W32526  13.151  28.652   0.182
60102W        W32527  26.807  17.653  14.781
60103W        W32528  20.296  40.400   4.124
60104W        W32529   0.827  41.662  12.260
60105W        W32530  19.356  37.355  13.819
60106W        W32531   7.967   2.340   1.833
60107W        W32532  39.507  14.093   3.068
60108W        W32533  23.557  23.604   3.658
60109W        W32534  31.415  21.654  12.352
60110W        W32535  28.911   0.654   3.566
60111W        W32536   5.175  36.755  14.048
60112W        W32537  23.140  36.792  11.433
60113W        W32538  37.483  44.294   0.476
60114W        W32539  42.866  39.525   4.158
60115W        W32540  27.749  11.819   1.144
60116W        W32541  27.471  37.373  14.447
60117W        W32542   3.359  39.400   3.367
60118W        W32543  11.880  21.018  14.451
60119W        W32544  39.304  29.574  14.466
60120W        W32545   4.336   5.806   3.449
60121W        W32546   4.358   7.526  13.968
60122W        W32547  36.620  10.600   2.384
60123W        W32548  36.453  20.013  13.832
60124W        W32549  25.710  34.704   0.841
60125W        W32550  42.534  33.503  13.464
60126W        W32551  17.700  15.196  11.289
60127W        W32552  29.945  20.768   2.980
60128W        W32553  23.682  23.729   1.425
60129W        W32554  39.974  26.867   0.639
60130W        W32555  40.837  24.718   2.333
60131W        W32556   6.269  36.546  11.935
60132W        W32557  25.023  20.069  13.474
60133W        W32558   5.246  25.711   0.342
60134W        W32559  34.826  19.426   0.343
60135W        W32560   0.379  44.337   2.768
60136W        W32561  35.034  23.197   3.781
60137W        W32562  35.539  35.543   3.644
60138W        W32563   2.726  17.637  10.718
60139W        W32564  43.412  38.756  14.998
60140W        W32565  19.460  34.448   1.486
60141W        W32566   8.140  15.823  10.802
60142W        W32567  20.150  40.565  10.963
60143W        W32568  30.676  17.689  11.524
60144W        W32569  33.684  16.597  11.229
60145W        W32570  26.463   5.743  10.584
60146W        W32571  19.174   1.739   3.184
60147W        W32572  17.223  42.097  11.403
60148W        W32573  12.780  41.571   0.363
60149W        W32574  10.256  17.771  10.162
60150W        W32575  18.517  18.388   0.876
60151W        W32576  22.943  18.697  11.139
60152W        W32577  34.079  27.730   1.405
60153W        W32578  24.481  33.467  14.792
60154W        W32579  16.046  38.297   4.530
60155W        W32580  21.390  21.404  13.849
60156W        W32581  41.656  13.955   2.311
60157W        W32582   0.286   5.354   3.384
60158W        W32583   5.760   2.840  14.213
60159W        W32584   8.347   7.153  10.753
60160W        W32585  24.019  35.949  14.842
60161W        W32586  16.679  25.787   3.532
60162W        W32587  35.658   0.284   0.878
60163W        W32588   9.179  23.650   0.908
60164W        W32589  13.499  42.164  13.883
60165W        W32590  11.830  15.703   1.452
60166W        W32591  24.228  17.532   3.176
60167W        W32592  23.462  27.018   1.800
60168W        W32593  31.576  29.346  11.238
60169W        W32594  11.912   5.141   1.426
60170W        W32595   8.301  40.398   1.861
60171W        W32596  12.068  12.580   2.889
60172W        W32597  43.934  33.156  13.251
60173W        W32598  43.471   1.895  13.492
60174W        W32599  35.602   5.529  13.608
60175W        W32600  27.676  17.516  13.964
60176W        W32601  22.603  21.639  12.425
60177W        W32602  35.830  17.267   4.119
60178W        W32603  25.606  30.075   2.278
60179W        W32604  18.616  14.517  14.055
60180W        W32605  30.079  33.882   4.258
60181W        W32606   0.900  20.729   1.097
60182W        W32607  42.822  21.551  14.580
60183W        W32608  27.185  12.869  11.927
60184W        W32609  44.205  42.975   2.425
60185W        W32610   9.752  14.966   1.881
60186W        W32611  37.840  34.847  10.528
60187W        W32612   6.842  25.677  12.096
60188W        W32613   4.473  12.907   1.395
60189W        W32614  17.211  12.337  14.729
60190W        W32615  32.369   9.219   1.657
60191W        W32616  37.516   8.944   3.793
60192W        W32617   7.392  40.366   2.894
60193W        W32618   9.393  14.525   2.304
60194W        W32619  31.628  32.404  11.570
60195W        W32620  33.983   8.686  14.864
60196W        W32621  38.976  20.245   2.810
60197W        W32622  19.604   9.085   2.327
60198W        W32623   7.057  11.064  14.888
60199W        W32624  40.103  12.562  11.103
60200W        W32625  13.690  41.333  12.799
60201W        W32626  18.028  27.041  11.966
60202W        W32627   5.680  41.396  14.229
60203W        W32628  38.025  39.293   3.817
60204W        W32629  32.955  28.172   4.185
60205W        W32630  40.334  18.501   0.472
60206W        W32631   2.656  13.913  12.085
60207W        W32632  26.672  20.489  12.451
60208W        W32633  30.759  19.485   1.939
60209W        W32634  22.443  27.902  11.168
60210W        W32635  19.819  12.634  13.427
60211W        W32636  24.602   7.699   3.168
60212W        W32637  44.233   0.358   3.535
60213W        W32638  39.637  33.661  13.412
60214W        W32639  19.966   6.909  11.170
60215W        W32640   8.995  13.597  12.962
60216W        W32641   7.800   4.241   2.026
60217W        W32642   8.930   3.675   4.472
60218W        W32643  22.536  30.358   2.862
60219W        W32644  38.366  23.564   4.063
60220W        W32645  40.298   8.078   0.274
60221W        W32646  37.352  27.415   3.161
60222W        W32647   0.972  22.729   1.253
60223W        W32648  24.516   4.375  12.638
60224W        W32649  40.462  29.208   4.771
60225W        W32650  16.160  20.996  11.415
60226W        W32651  17.475  36.958  12.578
60227W        W32652  37.388  42.945  14.551
60228W        W32653  25.478  25.549  10.761
60229W        W32654  35.624  28.703  14.870
60230W        W32655  18.705   4.793   0.236
60231W        W32656  41.368  43.690  11.900
60232W        W32657  19.732  19.126  13.633
60233W        W32658  31.734   8.758  14.136
60234W        W32659  25.119  31.763   5.066
60235W        W32660  42.046  38.357  13.390
60236W        W32661   5.754  28.919  14.520
60237W        W32662  35.127  23.699   3.701
60238W        W32663  39.601  41.968   0.212
60239W        W32664   4.339  26.187  13.918
60240W        W32665  20.598  31.629   0.372
60241W        W32666  33.815  23.170  14.468
60242W        W32667  13.262   9.226   0.332
60243W        W32668   3.968  19.778   0.767
60244W        W32669  16.834  29.652   2.704
60245W        W32670   1.667  22.563  13.749
60246W        W32671   3.908  28.935   3.900
60247W        W32672  41.814  38.356   1.892
60248W        W32673   4.724  18.212   1.100
60249W        W32674  22.233  37.461   0.878
60250W        W32675   8.463  27.724  14.722
60251W        W32676   2.899  29.573  13.628
60252W        W32677   8.639  11.383   3.406
60253W        W32678  37.274  27.899   0.726
60254W        W32679  36.445   0.272   3.268
60255W        W32680  16.123  18.230  14.376
60256W        W32681  28.229  22.007  12.927
60257W        W32682  17.038  34.998   4.553
60258W        W32683   9.771  31.086   1.317
60259W        W32684   3.058  21.086  11.115
60260W        W32685   3.801  40.479   2.290
60261W        W32686  19.030  10.674  13.315
60262W        W32687  12.159  13.772  10.731
60263W        W32688   2.308  40.855  11.039
60264W        W32689  19.518   0.185   2.392
60265W        W32690   1.383   8.142   0.414
60266W        W32691  44.938  34.338   9.721
60267W        W32692  13.641  17.733  12.394
60268W        W32693  28.429  19.448   1.247
60269W        W32694  23.998  25.910  13.866
60270W        W32695  30.592  28.030  14.489
60271W        W32696  29.201  18.747   2.008
60272W        W32697  40.959  36.570  13.038
60273W        W32698  17.236  43.976   0.298
60274W        W32699  15.330  27.063  11.466
60275W        W32700  19.825   7.253  13.800
60276W        W32701  13.224  17.393  10.460
60277W        W32702  40.447  44.042   3.185
60278W        W32703  41.017  25.681   3.588
60279W        W32704  14.369  43.072   1.963
60280W        W32705  10.966   0.792   1.372
60281W        W32706  36.066  26.003  13.596
60282W        W32707  42.485  35.038   2.893
60283W        W32708  35.700   4.909   0.382
60284W        W32709  31.861  40.392  13.442
60285W        W32710  37.448   1.198   3.178
60286W        W32711  17.713  38.917  14.951
60287W        W32712  21.707   0.431  13.530
60288W        W32713  27.130   5.397  14.837
60289W        W32714  39.327   7.712  14.666
60290W        W32715  18.289   9.422  11.158
60291W        W32716  33.075  14.770   3.097
60292W        W32717  13.186  31.425  11.348
60293W        W32718  14.272  12.681   0.463
60294W        W32719  10.926  21.747  11.745
60295W        W32720   3.306  15.752  14.256
60296W        W32721  44.984  11.585   0.831
60297W        W32722   6.605  11.342  12.130
60298W        W32723  14.281  28.081  14.010
60299W        W32724  10.617  38.020  10.463
60300W        W32725  10.855  23.224  13.972
60301W        W32726  26.679  38.570  12.463
60302W        W32727  13.185  30.558   4.693
60303W        W32728  14.133  23.982  11.896
60304W        W32729  39.965  37.928   4.767
60305W        W32730   5.800  17.416  12.827
60306W        W32731  13.123   9.203  14.723
60307W        W32732  39.967  21.134  10.438
60308W        W32733  32.288  16.110   3.124
60309W        W32734  24.955  26.571  14.326
60310W        W32735  29.695  23.160   4.968
60311W        W32736  11.102   5.685  14.193
60312W        W32737  19.953  28.493  11.649
60313W        W32738  29.246   1.853  12.020
60314W        W32739   0.800   1.992  11.524
60315W        W32740  20.437  22.105  10.643
60316W        W32741  11.379  38.842   1.848
60317W        W32742  11.798  24.534   4.192
60318W        W32743   5.635  18.785   4.934
60319W        W32744  33.954  10.649   3.827
60320W        W32745  42.262  19.983   5.077
60321W        W32746  32.792  13.748   3.144
60322W        W32747  42.876  25.694   2.753
60323W        W32748  14.841  12.605  12.596
60324W        W32749   4.979  25.907  14.507
60325W        W32750  28.599  10.131   1.703
60326W        W32751  22.308  32.141   0.441
60327W        W32752  19.734   8.824   2.786
60328W        W32753  13.224  30.351   4.199
60329W        W32754  37.613   5.864  11.221
60330W        W32755  24.902  42.995   4.385
60331W        W32756  43.766  36.955  14.977
60332W        W32757  13.340  31.069  13.056
60333W        W32758  11.310   4.125  12.335
60334W        W32759   8.788  16.243  14.456
60335W        W32760  44.491  33.092   1.352
60336W        W32761   5.388   7.477   1.796
60337W        W32762  30.169  27.649  14.592
60338W        W32763  39.306   1.516  14.827
60339W        W32764  39.571  16.861   4.714
60340W        W32765  30.700  42.406   3.863
60341W        W32766  33.068  21.157  12.359
60342W        W32767   9.918  24.181  10.912
60343W        W32768  18.086  11.114   3.204
60344W        W32769  40.833  26.735   1.235
60345W        W32770  44.565  37.950  13.745
60346W        W32771  43.787   2.812  12.990
60347W        W32772  22.984   1.976   3.603
60348W        W32773  35.090   7.150   3.218
60349W        W32774  20.320  14.260   1.153
60350W        W32775  34.627  13.754  10.454
60351W        W32776  20.573  17.062   3.359
60352W        W32777  40.935  36.440   0.417
60353W        W32778   6.736  20.196   0.197
60354W        W32779  29.456  35.337   1.239
60355W        W32780  18.414  40.132  13.473
60356W        W32781   5.791  28.443   1.326
60357W        W32782  34.497  28.709   1.440
60358W        W32783  12.641   5.024  14.391
60359W        W32784  37.212  14.395   3.360
60360W        W32785  32.909  21.322   0.706
60361W        W32786   0.892  28.055   3.619
60362W        W32787  26.083  15.226  11.808
60363W        W32788  38.147  31.246  14.369
60364W        W32789  11.224  35.785  10.606
60365W        W32790  33.253  38.633   1.074
60366W        W32791  24.622   3.533  11.663
60367W        W32792  36.629  18.749  12.510
60368W        W32793  17.656  32.482  13.930
60369W        W32794   4.456  38.221  12.520
60370W        W32795  28.962  15.776  11.531
60371W        W32796  41.070  10.366  14.073
60372W        W32797  42.441  34.035   2.743
60373W        W32798  41.366  43.561   2.297
60374W        W32799  14.082  27.232   0.065
60375W        W32800  43.937  43.316  11.673
60376W        W32801  30.618   6.726  12.071
60377W        W32802  17.082  13.214   1.689
60378W        W32803  43.025  26.537  10.080
60379W        W32804  36.569  28.212  11.906
60380W        W32805  40.592  44.333  12.321
60381W        W32806  30.717  21.052   1.728
60382W        W32807  43.689  43.458   2.710
60383W        W32808  42.025  32.539   1.386
60384W        W32809  27.739  24.814   2.586
60385W        W32810  19.288  11.212   3.379
60386W        W32811  23.526  35.233   2.836
60387W        W32812  39.533   1.285   0.797
60388W        W32813  43.688  12.472   1.906
60389W        W32814  20.220  34.913   4.507
60390W        W32815   6.299  30.595  12.680
60391W        W32816  16.225  26.219  11.030
60392W        W32817  11.270  43.164  12.594
60393W        W32818  19.266  43.039   1.859
60394W        W32819  34.228  42.807  10.960
60395W        W32820  39.309  35.999   4.936
60396W        W32821   5.241  16.650   1.743
60397W        W32822  12.280  21.231  12.714
60398W        W32823  32.612  39.147  13.405
60399W        W32824  10.583   9.959   3.074
60400W        W32825  25.730  20.674  12.627
60401W        W32826  37.556   4.578   4.271
60402W        W32827  31.040  33.994   3.410
60403W        W32828  35.694   6.682   1.798
60404W        W32829  10.798  36.006  12.896
60405W        W32830  35.361   8.271  12.893
60406W        W32831   3.886  24.220   0.958
60407W        W32832  42.867   9.834  12.597
60408W        W32833  29.148  14.709   0.144
60409W        W32834  40.805  17.059  14.962
60410W        W32835  10.536  22.438   9.767
60411W        W32836   7.180  13.575  14.093
60412W        W32837  25.437   6.137   2.319
60413W        W32838  12.090  38.506  12.151
60414W        W32839  32.915   0.343  14.940
60415W        W32840   5.973   1.771   0.359
60416W        W32841  18.753  29.213  13.439
60417W        W32842   2.163  31.196  10.746
60418W        W32843  27.357  31.603  12.507
60419W        W32844  29.587  37.316   0.042
60420W        W32845  18.146   2.852  14.308
60421W        W32846   4.735   8.092   2.744
60422W        W32847  41.893  36.828   3.190
60423W        W32848  43.062  32.516  10.692
60424W        W32849   9.998  43.474   0.214
60425W        W32850  29.439  29.051  11.711
60426W        W32851  30.758  29.158   1.780
60427W        W32852  11.416  22.157   3.711
60428W        W32853  33.896   9.429   1.724
60429W        W32854   7.992   1.117   0.142
60430W        W32855   2.232   4.366   1.412
60431W        W32856   9.207  33.223   0.817
60432W        W32857  16.064  42.204  11.322
60433W        W32858  28.657  30.172  14.382
60434W        W32859   1.163  31.056  11.592
60435W        W32860  27.105  42.420   2.819
60436W        W32861  43.189  14.850   1.929
60437W        W32862  43.738  38.311  11.065
60438W        W32863  14.986  30.097   0.816
60439W        W32864  26.637  25.941  11.339
60440W        W32865  35.066  37.282   2.310
60441W        W32866   5.459  12.671   4.144
60442W        W32867  34.949  39.645   1.779
60443W        W32868  29.726  28.008  12.481
60444W        W32869   7.913  25.204   4.156
60445W        W32870   5.553  13.243   1.343
60446W        W32871  38.594  32.581   0.718
60447W        W32872  12.760   9.856   0.973
60448W        W32873  26.436  34.563   2.884
60449W        W32874   7.638  36.756   0.493
60450W        W32875  10.781  27.901  12.108
60451W        W32876   0.838  17.192   3.384
60452W        W32877  36.889  42.841   3.336
60453W        W32878  28.590  15.735  12.590
60454W        W32879  22.541   8.884  10.506
60455W        W32880  27.587   1.370   4.641
60456W        W32881  15.851  14.242   2.302
60457W        W32882  41.697   6.236   1.194
60458W        W32883   4.203  34.912   0.726
60459W        W32884   1.977  22.583  10.891
60460W        W32885  41.975  34.957   2.879
60461W        W32886  32.920  19.777  11.124
60462W        W32887  18.419  12.195   3.909
60463W        W32888   0.391   0.318  10.747
60464W        W32889   4.364  44.932  12.571
60465W        W32890  42.296  15.960  14.533
60466W        W32891  35.616  43.108   4.897
60467W        W32892  33.132  37.074  13.096
60468W        W32893  10.196   9.178  10.688
60469W        W32894   4.286  41.811  14.076
60470W        W32895   0.761  42.579  12.659
60471W        W32896  41.393  25.301  13.605
60472W        W32897  39.015  31.459   2.900
60473W        W32898  18.703   3.422   2.259
60474W        W32899  35.609  32.556   2.676
60475W        W32900   3.316   3.406   4.176
60476W        W32901   1.866  19.730  14.049
60477W        W32902  20.515   7.160   1.252
60478W        W32903   3.308  36.983   3.595
60479W        W32904  16.304  34.375  12.905
60480W        W32905   2.328  37.470  12.383
60481W        W32906  29.102  44.494  11.473
60482W        W32907  17.740  23.269  11.694
60483W        W32908  14.598  26.999  11.079
60484W        W32909  41.796  12.230   3.808
60485W        W32910  41.246  27.195  11.990
60486W        W32911  22.037  42.005  14.895
60487W        W32912  23.642  14.782  13.401
60488W        W32913  14.661   0.402  12.554
60489W        W32914  28.979   4.516  12.499
60490W        W32915  39.024  19.240  10.703
60491W        W32916  24.612   8.268   4.196
60492W        W32917  26.527  11.283  10.654
60493W        W32918  39.672  22.538  13.482
60494W        W32919   5.455  30.620   4.041
60495W        W32920   3.705  29.422   2.866
60496W        W32921  25.804  37.076   4.357
60497W        W32922  29.502  18.783   4.802
60498W        W32923   0.410   4.820  14.424
60499W        W32924  25.616  15.594  14.826
60500W        W32925  25.901  43.917   3.684
60501W        W32926  25.012  32.034   4.656
60502W        W32927  33.485  31.128   2.687
60503W        W32928   9.134  34.641   1.163
60504W        W32929  21.760  25.405  12.961
60505W        W32930  19.063  34.123   1.279
60506W        W32931  19.641  36.986   2.852
60507W        W32932  33.816   5.369  14.876
60508W        W32933  13.632  33.099   1.442
60509W        W32934  30.443  40.097  14.049
60510W        W32935  38.391   2.211   2.305
60511W        W32936  44.584  33.963  11.428
60512W        W32937   0.941  36.140   0.287
60513W        W32938  44.732  24.855  10.389
60514W        W32939  25.972  37.959   4.185
60515W        W32940   2.839  23.031  13.636
60516W        W32941  26.695  31.644  10.758
60517W        W32942   2.300  31.944  10.686
60518W        W32943   4.663  43.649  12.781
60519W        W32944  17.696  44.880   4.157
60520W        W32945  23.631  19.673  13.411
60521W        W32946  30.247   0.260   0.265
60522W        W32947  44.238  35.352   3.426
60523W        W32948  19.451  27.584  10.467
60524W        W32949  10.027   1.058   2.256
60525W        W32950  22.186  41.500  12.468
60526W        W32951  16.540  44.562   1.350
60527W        W32952   1.184  31.532   4.759
60528W        W32953  18.496  20.234  10.705
60529W        W32954  16.308   4.953  11.503
60530W        W32955  41.951  15.895   0.708
60531W        W32956  13.399  26.965   4.270
60532W        W32957  30.558  28.136  13.571
60533W        W32958   3.194  25.175   4.630
60534W        W32959   5.603  23.072  10.966
60535W        W32960  36.803   4.328   3.638
60536W        W32961  33.946  31.518  10.914
60537W        W32962  25.147  14.891  12.470
60538W        W32963  22.704  23.018  10.680
60539W        W32964   0.053  39.008  14.774
60540W        W32965  11.669  30.066  12.935
60541W        W32966  36.607  17.378   4.249
60542W        W32967  29.258  19.655  10.381
60543W        W32968  28.906  37.878   2.332
60544W        W32969  23.122  10.288   2.688
60545W        W32970  11.874  39.905   2.880
60546W        W32971  33.844   9.073  13.712
60547W        W32972  40.714  38.908   2.303
60548W        W32973  39.137  13.731  13.581
60549W        W32974  13.268  17.714  14.411
60550W        W32975  23.924  15.543   1.690
60551W        W32976   1.318  39.542   1.027
60552W        W32977  31.741  15.217   1.906
60553W        W32978   3.953  30.370   1.924
60554W        W32979  25.559  20.210  13.476
60555W        W32980  43.402  39.322  13.378
60556W        W32981  16.178   3.232  14.526
60557W        W32982   5.887  12.414  13.443
60558W        W32983  21.467   9.597  11.474
60559W        W32984  14.832  13.400   0.227
60560W        W32985  27.103  30.018   0.487
60561W        W32986   4.407  35.802  11.708
60562W        W32987  17.640  28.210   4.235
60563W        W32988   6.082  33.868  11.762
60564W        W32989  31.840  15.231   4.798
60565W        W32990  34.942  18.429   2.790
60566W        W32991  39.715   7.352  11.020
60567W        W32992  39.893  37.525   2.750
60568W        W32993  39.240   5.233  11.491
60569W        W32994  18.166  12.263  13.334
60570W        W32995  13.768  33.061   3.762
60571W        W32996  28.139   8.947  10.258
60572W        W32997  19.839  15.763  13.890
60573W        W32998  29.434   3.229   0.479
60574W        W32999  29.094  30.049   1.376
60575W        W33000  32.133  21.667   0.365
60576W        W33001  23.815  19.190  11.088
60577W        W33002  20.263   3.363   1.782
60578W        W33003   0.344  12.349  11.160
60579W        W33004  27.654  24.690  13.859
60580W        W33005  30.526  10.127  10.661
60581W        W33006   7.647  27.969  10.663
60582W        W33007  31.414   2.576   4.534
60583W        W33008  10.776   3.175  10.403
60584W        W33009  25.564  38.218  13.986
60585W        W33010   7.226  26.216   0.904
60586W        W33011  18.821  12.869  12.412
60587W        W33012  38.774  36.739   4.517
60588W        W33013  42.941   1.456   0.196
60589W        W33014  43.786   0.555   4.145
60590W        W33015  36.328  34.430  11.945
60591W        W33016   6.969  20.518  12.485
60592W        W33017  29.070  43.374   0.376
60593W        W33018  28.066  37.168   3.365
60594W        W33019  21.147  11.300  11.291
60595W        W33020  41.047   0.349   4.453
60596W        W33021  20.446   5.292  10.602
60597W        W33022  34.397  29.349  14.777
60598W        W33023  13.772  13.080  12.112
60599W        W33024  10.396  15.183   4.901
60600W        W33025  10.410   5.411  10.775
60601W        W33026  34.595  22.944  13.357
60602W        W33027  22.676   9.335  11.147
60603W        W33028  36.059  23.469   1.823
60604W        W33029  14.728   7.950   2.869
60605W        W33030  36.405  28.543   2.698
60606W        W33031  40.323  29.801  10.677
60607W        W33032   6.228  28.192  11.592
60608W        W33033   6.343  35.699   1.951
60609W        W33034  34.552  17.821   1.384
60610W        W33035  15.253  25.995  11.894
60611W        W33036  41.495  35.155   2.959
60612W        W33037  25.507   0.894   1.234
60613W        W33038  35.510  28.240   2.328
60614W        W33039  31.962  19.129   4.824
60615W        W33040  21.590   7.899  12.890
60616W        W33041  41.950  28.451  14.446
60617W        W33042  25.593  13.756  12.075
60618W        W33043   0.079   3.070  12.375
60619W        W33044  38.560  21.441   3.320
60620W        W33045  39.338  38.458   0.215
60621W        W33046  37.982  18.276  12.072
60622W        W33047  38.068  44.397  10.515
60623W        W33048  23.187   9.827  14.829
60624W        W33049   6.372   4.847   0.482
60625W        W33050   3.736  26.602  14.521
60626W        W33051  26.980  19.212  13.915
60627W        W33052  37.900  15.282   4.642
60628W        W33053  17.104   0.243   0.756
60629W        W33054   7.211  26.008  11.564
60630W        W33055   1.484  43.774   0.351
60631W        W33056  34.452  10.353   3.713
60632W        W33057  43.592  17.715   1.970
60633W        W33058  26.574  31.975  11.736
60634W        W33059  41.237   1.801   1.263
60635W        W33060  27.570  44.224   0.561
60636W        W33061  21.572   4.878   0.349
60637W        W33062  18.672  26.056  11.031
60638W        W33063  17.564  30.159  14.446
60639W        W33064  32.339  21.662  14.484
60640W        W33065  12.198   2.653   1.868
60641W        W33066  27.053  15.152  13.475
60642W        W33067   5.257  38.980   2.858
60643W        W33068  42.060  19.138  11.600
60644W        W33069  16.697  38.931  10.257
60645W        W33070   9.790  29.739   2.348
60646W        W33071  38.783  24.009   3.514
60647W        W33072  37.703   7.319   0.443
60648W        W33073  25.631  18.041  12.879
60649W        W33074   0.899  31.926   1.809
60650W        W33075   5.010  37.920  10.749
60651W        W33076  15.580  10.386  13.121
60652W        W33077  13.777   7.078  11.046
60653W        W33078   0.034  36.898   3.592
60654W        W33079  39.439  26.047   0.299
60655W        W33080  34.461   1.687  12.907
60656W        W33081   9.787  32.590   4.132
60657W        W33082  25.491   2.645   3.222
60658W        W33083  34.390  18.667  11.647
60659W        W33084  42.239   2.405  12.499
60660W        W33085  34.988  31.116  12.465
60661W        W33086  38.983  38.756   4.969
60662W        W33087  29.551  14.066   1.070
60663W        W33088   8.328  33.127  11.546
60664W        W33089  19.870   1.749  14.436
60665W        W33090  13.603  41.396   4.577
60666W        W33091  43.178  20.549  10.416
60667W        W33092  27.961  38.658   2.851
60668W        W33093  14.440  27.516   2.093
60669W        W33094  19.490  39.357   3.559
60670W        W33095   1.192  42.007   4.566
60671W        W33096  10.570  38.778   2.236
60672W        W33097   1.022  44.905  14.337
60673W        W33098   6.259  12.828  12.333
60674W        W33099  15.396   3.366   5.452
60675W        W33100  40.067  35.094  11.077
60676W        W33101  38.534  21.790   2.280
60677W        W33102  10.056  43.868  12.796
60678W        W33103  35.625  12.879  11.155
60679W        W33104  34.516   1.713   0.710
60680W        W33105  33.589  18.536   1.869
60681W        W33106  36.358  10.187  14.766
60682W        W33107   5.739  11.682   2.167
60683W        W33108  19.293  17.373  12.609
60684W        W33109  13.376  42.018   3.712
60685W        W33110  44.768   7.970   3.722
60686W        W33111  13.455  33.932   2.713
60687W        W33112  21.792  16.059   3.233
60688W        W33113  28.745  13.262   2.347
60689W        W33114   5.912  17.386   1.821
60690W        W33115   5.332  31.435  11.891
60691W        W33116  16.638   1.977   0.310
60692W        W33117  19.933  34.358  12.787
60693W        W33118   7.936  38.450   0.712
60694W        W33119  40.913   7.111   1.379
60695W        W33120  11.153  41.760  13.836
60696W        W33121  36.918  23.170   4.722
60697W        W33122  41.745   7.494  11.551
60698W        W33123  38.969  13.711   4.154
60699W        W33124  19.323  29.520  14.972
60700W        W33125  27.472  13.109   0.784
60701W        W33126  13.792  16.657  12.510
60702W        W33127  31.317  43.879   2.894
60703W        W33128  29.623  29.327   5.008
60704W        W33129  29.956  11.223  13.391
60705W        W33130  33.339  16.307   0.835
60706W        W33131   1.564  30.085   4.867
60707W        W33132  21.193  44.936   1.317
60708W        W33133  24.079   0.779   4.563
60709W        W33134  31.682   4.038  11.583
60710W        W33135  14.027  27.402   3.218
60711W        W33136  13.150  21.289  10.122
60712W        W33137   4.037   5.755  12.010
60713W        W33138  27.648  13.097  12.012
60714W        W33139  19.476  15.144   4.623
60715W        W33140  25.341  12.322  11.813
60716W        W33141   5.903  21.505   3.435
60717W        W33142  22.979  42.051  11.969
60718W        W33143  22.563  29.960  13.937
60719W        W33144  41.378  39.816   4.892
60720W        W33145   9.938  35.865   3.172
60721W        W33146  36.766  40.456  11.483
60722W        W33147   8.698  29.065  13.433
60723W        W33148  25.283  17.383   2.398
60724W        W33149   0.231  20.268  10.918
60725W        W33150  34.059   0.641  14.284
60726W        W33151  41.495   5.985  11.491
60727W        W33152  35.629  18.308   0.292
60728W        W33153  18.311  10.406  11.573
60729W        W33154  36.646  15.313   0.676
60730W        W33155  25.543  29.185  10.274
60731W        W33156  40.077  11.048  11.422
60732W        W33157  36.300  41.435   3.779
60733W        W33158  44.678   4.351   1.350
60734W        W33159  23.600  19.619   2.827
60735W        W33160  33.468   3.071   0.282
60736W        W33161  10.216  37.771   3.832
60737W        W33162  40.876  15.050   3.292
60738W        W33163   0.001  36.153  11.809
60739W        W33164  40.505  21.141  10.214
60740W        W33165   1.851  21.048   5.004
60741W        W33166   1.144   3.799  13.922
60742W        W33167  41.266  22.759   0.852
60743W        W33168  12.973   3.717   2.924
60744W        W33169  38.815  28.625  13.605
60745W        W33170   7.319  16.039  13.045
60746W        W33171  34.002  15.407  13.915
60747W        W33172  35.030  19.689   0.762
60748W        W33173  37.991  33.742  12.807
60749W        W33174  42.628  15.605   3.389
60750W        W33175  41.537  19.130   4.400
60751W        W33176  32.652  23.797  11.972
60752W        W33177  35.951  11.179  13.503
60753W        W33178  16.795  28.643   0.345
60754W        W33179  37.230  27.543   4.029
60755W        W33180  28.395   5.802   4.871
60756W        W33181  28.554  29.070   3.394
60757W        W33182   8.811  38.037  14.927
60758W        W33183   1.035  40.964  14.462
60759W        W33184  25.868   9.644   4.544
60760W        W33185  20.126  28.009  12.380
60761W        W33186  10.003   7.888   2.324
60762W        W33187  18.712  19.348  11.008
60763W        W33188   4.773   7.638   5.071
60764W        W33189  39.603  16.158  13.925
60765W        W33190   3.311  25.403   0.543
60766W        W33191   4.185  23.297   3.287
60767W        W33192  17.104  20.591   4.552
60768W        W33193  37.161  41.729   0.386
60769W        W33194  17.707  33.395  13.980
60770W        W33195   8.309   6.428   0.370
60771W        W33196  18.996  40.152  12.056
60772W        W33197   0.261  29.148   1.385
60773W        W33198   6.160  18.662   1.413
60774W        W33199  43.185  20.171  14.464
60775W        W33200  38.436  40.428  13.794
60776W        W33201   5.479  40.545  13.992
60777W        W33202   0.269  10.934  11.170
60778W        W33203   7.892  26.739   3.328
60779W        W33204  22.700  33.224  11.107
60780W        W33205  13.101  27.443   2.589
60781W        W33206  35.557  17.556   3.802
60782W        W33207  41.239  20.715   0.379
60783W        W33208  32.626   0.508  14.011
60784W        W33209  20.935  19.177  13.020
60785W        W33210   3.877  44.500   1.780
60786W        W33211  37.794  39.762   3.760
60787W        W33212  35.059  31.193  12.951
60788W        W33213   8.694  34.840  12.920
60789W        W33214  16.323  18.132  11.646
60790W        W33215   8.706   6.830   2.424
60791W        W33216  24.185  11.128   5.369
60792W        W33217  33.538  36.155  13.811
60793W        W33218  13.173  14.517   4.430
60794W        W33219   5.501   6.306  12.476
60795W        W33220  19.764   4.381   2.861
60796W        W33221  41.015   0.762  11.071
60797W        W33222  18.364  37.907  14.800
60798W        W33223  16.247   4.915   3.620
60799W        W33224  37.824  41.725   2.779
60800W        W33225  21.444  27.596   0.220
60801W        W33226  13.626  34.436  13.035
60802W        W33227   3.292  16.591   1.759
60803W        W33228  41.617  30.974   1.755
60804W        W33229  13.365  42.889  12.581
60805W        W33230  27.164  24.188  11.511
60806W        W33231  21.137  31.809  10.497
60807W        W33232  18.167  37.110  13.296
60808W        W33233   9.838  41.883  11.034
60809W        W33234  36.779   6.055   3.793
60810W        W33235  13.671  36.787   1.432
60811W        W33236  20.242  23.536  13.462
60812W        W33237  32.442  42.845   3.257
60813W        W33238  44.850  19.410   1.669
60814W        W33239  31.478  39.100  14.282
60815W        W33240   4.805   4.784  12.461
60816W        W33241  26.916   5.788   2.795
60817W        W33242  33.740  35.968   1.022
60818W        W33243  33.109  34.908  11.446
60819W        W33244  43.008  39.400   4.704
60820W        W33245  28.989   6.663   0.945
60821W        W33246  35.064  35.470  12.424
60822W        W33247  21.721   8.224   0.299
60823W        W33248  40.018   6.893   0.893
60824W        W33249  35.678  11.248   1.842
60825W        W33250  13.185  14.015   5.136
60826W        W33251  27.090   9.948  14.085
60827W        W33252  16.205  22.973  13.966
60828W        W33253  13.844  31.974  10.361
60829W        W33254  40.498  22.754  10.757
60830W        W33255  29.066  14.127   0.882
60831W        W33256  39.607   7.559  14.236
60832W        W33257  26.229  27.563  11.988
60833W        W33258  33.092  12.319   2.333
60834W        W33259  40.903  37.340  14.306
60835W        W33260   4.912  17.561  13.672
60836W        W33261   7.943  18.780  13.098
60837W        W33262  22.225  24.623   1.552
60838W        W33263   5.199  43.918   0.965
60839W        W33264   3.659  37.388   2.422
60840W        W33265   5.791  14.402   0.787
60841W        W33266  34.563   5.936   3.155
60842W        W33267  20.690  11.436  11.506
60843W        W33268  13.327  20.193   4.566
60844W        W33269  22.643   2.968  11.710
60845W        W33270  43.047  11.157   2.427
60846W        W33271   4.551  31.147  12.522
60847W        W33272  31.702  16.357   3.814
60848W        W33273  34.341  32.113   3.353
60849W        W33274   0.381  17.760   4.027
60850W        W33275  15.684  22.275  11.436
60851W        W33276  40.462  28.830  14.162
60852W        W33277  38.008  43.265  13.379
60853W        W33278  34.357  17.053  10.690
60854W        W33279  39.397   5.878   2.568
60855W        W33280  36.843  41.722   4.187
60856W        W33281   9.263   8.833   4.825
60857W        W33282  13.406  31.936  13.542
60858W        W33283  34.884   4.138  14.913
60859W        W33284  44.400  36.209  14.105
60860W        W33285  38.787   5.638   0.761
60861W        W33286  40.426  11.246  12.061
60862W        W33287  24.791  27.028   4.120
60863W        W33288  32.997   0.526   1.780
60864W        W33289  10.169  19.563  10.763
60865W        W33290  28.345  28.598   0.730
60866W        W33291  19.009  33.714   0.906
60867W        W33292   0.527  38.361   3.890
60868W        W33293  44.214  15.257  12.117
60869W        W33294  40.729  15.488  10.161
60870W        W33295  14.697  19.474  10.743
60871W        W33296   6.206  21.029  12.578
60872W        W33297  43.040  43.319  14.869
60873W        W33298  24.237  40.677  10.065
60874W        W33299  25.598  11.684   3.342
60875W        W33300   0.954   8.436   0.388
60876W        W33301  23.734  11.885  11.538
60877W        W33302  19.774  26.659  14.802
60878W        W33303  20.254  13.305   1.421
60879W        W33304   1.817  37.550   2.125
60880W        W33305  18.260  42.794   0.379
60881W        W33306  40.339  20.028   3.293
60882W        W33307  21.126  44.804   1.842
60883W        W33308  12.695  10.318   5.175
60884W        W33309   0.837  40.039   3.479
60885W        W33310  29.537  24.214   2.568
60886W        W33311  27.120   5.997  13.606
60887W        W33312  24.637  20.503  12.711
60888W        W33313   1.389  14.687  14.017
60889W        W33314  17.540  22.342   2.690
60890W        W33315   2.375   3.019   1.806
60891W        W33316  21.214  12.314  12.551
60892W        W33317  28.901  36.377  11.060
60893W        W33318   8.094   2.520  12.626
60894W        W33319  10.416   8.124   0.289
60895W        W33320   0.337  12.129   1.306
60896W        W33321  11.839  39.269  12.105
60897W        W33322  23.817   8.325  13.122
60898W        W33323  41.957  13.450   0.247
60899W        W33324  34.658  30.162  14.097
60900W        W33325  13.422   2.257  11.666
60901W        W33326   5.635  22.578  14.892
60902W        W33327  19.185  43.517   1.625
60903W        W33328  39.859  31.230  12.081
60904W        W33329  20.507  17.203  13.417
60905W        W33330  26.302  31.519  11.049
60906W        W33331   3.351  41.926  12.537
60907W        W33332   7.432  44.045  11.703
60908W        W33333  43.801  33.591  14.532
60909W        W33334  26.097  24.014   0.311
60910W        W33335  36.932   4.349  14.782
60911W        W33336  32.044  42.582   0.913
60912W        W33337   1.704  42.762   2.274
60913W        W33338  35.103  44.407  13.295
60914W        W33339  34.254  27.492   0.978
60915W        W33340   0.569   3.180  12.137
60916W        W33341  28.152  32.999   2.829
60917W        W33342  17.823  15.363   1.544
60918W        W33343  21.752  28.228  12.442
60919W        W33344  15.667  19.839  11.499
60920W        W33345   6.255  16.723  14.756
60921W        W33346  33.724  43.705   2.614
60922W        W33347  38.566  26.107  12.965
60923W        W33348   8.360  42.076   3.845
60924W        W33349  39.703  31.005  14.507
60925W        W33350  40.890  43.113  12.367
60926W        W33351  34.073  34.843  14.447
60927W        W33352  24.025  34.406  13.371
60928W        W33353  21.161  35.093  13.900
60929W        W33354   4.222  10.778  12.381
60930W        W33355  17.116  30.816   3.040
60931W        W33356  19.846  24.661  14.004
60932W        W33357  14.566  22.183  14.820
60933W        W33358  25.671  35.138  10.756
60934W        W33359  44.247  37.300   3.672
60935W        W33360   3.955  24.754   2.292
60936W        W33361  14.325  31.399   4.372
60937W        W33362  29.536   4.218  11.536
60938W        W33363  34.829  36.159  10.292
60939W        W33364  25.216  34.858  13.998
60940W        W33365  16.351  41.726   2.794
60941W        W33366   4.562  16.468   2.344
60942W        W33367  37.642  19.212  11.063
60943W        W33368  41.113  21.185   5.193
60944W        W33369  11.365  13.805   4.944
60945W        W33370  27.914  19.987  10.188
60946W        W33371  17.812  16.297  12.621
60947W        W33372   3.503  37.332  14.456
60948W        W33373  33.846  42.413  13.860
60949W        W33374  36.033  19.205   2.825
60950W        W33375  30.414  23.690  11.199
60951W        W33376  11.161  33.629   3.161
60952W        W33377  13.745   4.725   2.238
60953W        W33378  28.172  31.455   4.518
60954W        W33379  18.782  18.664   2.717
60955W        W33380  16.853   9.955  12.242
60956W        W33381  27.102   2.377  13.861
60957W        W33382  14.687  43.944   1.123
60958W        W33383  22.041   7.290   3.234
60959W        W33384  29.403   8.646  13.204
60960W        W33385  17.552  41.171  11.375
60961W        W33386  37.580  20.495   0.842
60962W        W33387  24.702  25.235   4.298
60963W        W33388  24.117  21.039  11.963
60964W        W33389   6.499  37.185  12.537
60965W        W33390   3.063  35.628  14.933
60966W        W33391  24.776  37.383   3.605
60967W        W33392  14.191  12.689   4.672
60968W        W33393  29.594  10.558  13.520
60969W        W33394  34.405  41.990  10.826
60970W        W33395  43.468  38.824   3.670
60971W        W33396   5.691  39.782  12.447
60972W        W33397  37.451  26.653   4.583
60973W        W33398   9.861  38.710   0.558
60974W        W33399  20.717  11.397   1.818
60975W        W33400  39.861  38.419  14.296
60976W        W33401  12.294  27.498  14.832
60977W        W33402  22.021  34.066  12.269
60978W        W33403  28.113  26.781  14.390
60979W        W33404  19.685  23.635   0.935
60980W        W33405  27.386  11.699   0.237
60981W        W33406  37.637  38.602  13.779
60982W        W33407  28.448   2.836   1.464
60983W        W33408  16.724  21.498  14.920
60984W        W33409   6.767  38.047   2.474
60985W        W33410   3.296  34.046  13.584
60986W        W33411  13.729   0.080   4.164
60987W        W33412  20.695  22.476  13.978
60988W        W33413   4.014  43.432  11.516
60989W        W33414  36.651  11.113  14.573
60990W        W33415  24.757  34.765  12.108
60991W        W33416  12.070  19.735  12.630
60992W        W33417  14.377   0.370  12.992
60993W        W33418   8.819  38.175  11.128
60994W        W33419  27.963  20.236  12.863
60995W        W33420  19.645  10.197   0.249
60996W        W33421  15.969  25.772  10.430
60997W        W33422  38.735  20.804  13.445
60998W        W33423  15.213   4.042   2.022
60999W        W33424  17.085  11.192  12.764
61000W        W33425  29.413  34.505  10.702
61001W        W33426  18.084  17.143   4.364
61002W        W33427   9.289   0.075   4.243
61003W        W33428  40.358  11.161   1.924
61004W        W33429  30.048  27.551  12.498
61005W        W33430  25.446  28.139  12.981
61006W        W33431  11.590  13.226  12.943
61007W        W33432  31.281  38.141  12.853
61008W        W33433  25.731  11.654   1.810
61009W        W33434  16.993  12.788  14.870
61010W        W33435  26.031  24.676   2.431
61011W        W33436   5.173  17.129   3.558
61012W        W33437   2.391  15.562  11.905
61013W        W33438  32.433  14.013   0.527
61014W        W33439  11.066   5.356  11.072
61015W        W33440  40.084   3.261  14.777
61016W        W33441  36.498  21.075  13.783
61017W        W33442  23.599  17.697  11.156
61018W        W33443   8.299  32.889   1.446
61019W        W33444   5.159  38.847  13.407
61020W        W33445  28.043  24.219   0.313
61021W        W33446  13.040  18.335   0.039
61022W        W33447  31.679  10.121   0.059
61023W        W33448  17.168   4.526   3.847
61024W        W33449  29.348  24.662   2.753
61025W        W33450  36.893  28.944   3.157
61026W        W33451  23.366   5.239  13.977
61027W        W33452  42.882  13.839  10.864
61028W        W33453  31.611   3.348  13.501
61029W        W33454  21.768  29.729  11.974
61030W        W33455  22.644  44.565   0.078
61031W        W33456  35.468  11.197  13.200
61032W        W33457   1.727  40.542   2.423
61033W        W33458   6.859  30.026   2.360
61034W        W33459  10.796   2.829   3.785
61035W        W33460   7.292   6.955   3.203
61036W        W33461  41.985  44.319   5.085
61037W        W33462  33.340  16.471  13.564
61038W        W33463  40.396  14.413   1.928
61039W        W33464  11.189   1.725   1.313
61040W        W33465   7.757  24.030  12.973
61041W        W33466   2.777  29.616   2.226
61042W        W33467  16.804  24.640   2.019
61043W        W33468  43.357   3.769   4.379
61044W        W33469  37.256   6.549   2.504
61045W        W33470  19.812  33.923   4.504
61046W        W33471  34.673  38.773   1.734
61047W        W33472  15.417   3.674   2.884
61048W        W33473  22.093  14.888   2.867
61049W        W33474  33.047  40.570  12.826
61050W        W33475  24.969   4.154  12.451
61051W        W33476  15.283  37.872   0.291
61052W        W33477  44.860  20.508  13.786
61053W        W33478  38.800  44.829   1.343
61054W        W33479  43.474   0.662  14.613
61055W        W33480  33.050  19.576   1.409
61056W        W33481  26.499   4.951  13.452
61057W        W33482  26.941  27.019  12.204
61058W        W33483  11.107  25.045   4.616
61059W        W33484  24.409  28.130  10.958
61060W        W33485  37.986  42.232  12.505
61061W        W33486  41.486  18.870  10.676
61062W        W33487  22.307  14.093  11.559
61063W        W33488  13.976  19.113   3.886
61064W        W33489  36.624  14.293  13.065
61065W        W33490  27.553  19.017  12.587
61066W        W33491  39.873   5.180  11.951
61067W        W33492  39.038  15.379   0.318
61068W        W33493  43.449   2.314  12.660
61069W        W33494   0.030  22.139   2.159
61070W        W33495  33.641   7.830   4.440
61071W        W33496   0.754   6.692   4.195
61072W        W33497  35.056  17.391   3.716
61073W        W33498  30.917  19.156  12.966
61074W        W33499   9.627   1.781   2.734
61075W        W33500   9.274  32.403   1.385
61076W        W33501  28.598  19.780   4.619
61077W        W33502  10.928  31.375   0.378
61078W        W33503  39.382  40.311   2.270
61079W        W33504  20.802  41.058  14.419
61080W        W33505  26.660  33.163   2.205
61081W        W33506  42.396  15.916  14.044
61082W        W33507  14.847  22.203  14.366
61083W        W33508  29.078  34.988  11.725
61084W        W33509   4.698  11.185   4.022
61085W        W33510  32.643   5.317   2.814
61086W        W33511   9.910   1.415  11.633
61087W        W33512   5.698  42.750   4.623
61088W        W33513  31.359  36.450  14.013
61089W        W33514  41.014   0.511  12.438
61090W        W33515  25.487   5.865   2.748
61091W        W33516  37.333  36.400   4.060
61092W        W33517   1.962  37.805  13.621
61093W        W33518  40.529  18.282  13.513
61094W        W33519  39.906  28.704  11.963
61095W        W33520  14.766  29.648  11.242
61096W        W33521  22.242  27.836   2.741
61097W        W33522  10.268  25.132   3.440
61098W        W33523  17.711  12.665   3.790
61099W        W33524  39.121   3.972   4.136
61100W        W33525  23.322  17.414  10.808
61101W        W33526  35.184  40.424  14.991
61102W        W33527  42.782  33.043   4.994
61103W        W33528   7.084  37.637   2.558
61104W        W33529  29.349  13.129   0.360
61105W        W33530  31.099  12.622   0.404
61106W        W33531  19.499  20.461  12.468
61107W        W33532  31.388  15.136   3.387
61108W        W33533  20.518  18.934   4.089
61109W        W33534  18.777  10.123  14.669
61110W        W33535  36.868  15.703   1.578
61111W        W33536  37.060  21.145   2.908
61112W        W33537  33.335  34.056  11.549
61113W        W33538  44.079  28.175   3.237
61114W        W33539  42.836  15.483   0.888
61115W        W33540  28.055  18.375  12.950
61116W        W33541  31.391  29.411   3.611
61117W        W33542   1.466  29.778   3.756
61118W        W33543   8.676  14.251  11.267
61119W        W33544  18.546  26.092   0.784
61120W        W33545  13.261  18.748  13.443
61121W        W33546   8.973  29.885  11.056
61122W        W33547  35.577   0.948  11.893
61123W        W33548   5.937  44.350   4.962
61124W        W33549  35.367  39.888  10.454
61125W        W33550  27.637  34.938  12.954
61126W        W33551  32.097  25.495  11.550
61127W        W33552   9.070   0.018   3.372
61128W        W33553  42.138  11.344  14.470
61129W        W33554  32.441  36.394  12.037
61130W        W33555   4.375  44.818  11.208
61131W        W33556   1.526  25.976  13.486
61132W        W33557   0.321  17.967  14.861
61133W        W33558  34.998   7.386   1.782
61134W        W33559  27.572  20.547  12.436
61135W        W33560  10.339  39.812   4.998
61136W        W33561  17.243  26.938  10.231
61137W        W33562  18.317  27.662  11.553
61138W        W33563  21.712   1.319  13.057
61139W        W33564  18.992   8.044   0.797
61140W        W33565  26.696  37.068  13.407
61141W        W33566  37.413  27.519  13.562
61142W        W33567  24.577   4.850  13.359
61143W        W33568  16.222  21.718  11.608
61144W        W33569  10.279  22.099   0.162
61145W        W33570  43.565   7.723   1.233
61146W        W33571   6.849  37.151   0.276
61147W        W33572  22.753   8.839   1.608
61148W        W33573  21.144   5.926  13.507
61149W        W33574  12.116  23.287   4.046
61150W        W33575  35.597   7.196  14.371
61151W        W33576  10.227  27.094  12.664
61152W        W33577   7.846  22.501  12.919
61153W        W33578   6.338  34.297  11.855
61154W        W33579  30.809   0.394  10.817
61155W        W33580  28.438  40.896  12.699
61156W        W33581  26.739  13.674  14.964
61157W        W33582   9.456  39.566  11.009
61158W        W33583  12.556   7.673  10.928
61159W        W33584  10.847  37.400  14.456
61160W        W33585  20.047  44.035   1.433
61161W        W33586  20.686  12.379   5.014
61162W        W33587  20.771  34.916   0.369
61163W        W33588  19.969   2.390   1.766
61164W        W33589  31.919  31.086  11.378
61165W        W33590  35.880   0.209   0.035
61166W        W33591   9.675  18.879   1.316
61167W        W33592  25.879  20.625  13.513
61168W        W33593  10.889  25.248  14.905
61169W        W33594  29.573   3.306   4.253
61170W        W33595   7.440  25.288  12.591
61171W        W33596  30.819   6.859   3.100
61172W        W33597   7.606  22.563  12.395
61173W        W33598  36.903  43.953   4.914
61174W        W33599   2.728  13.904  10.639
61175W        W33600  26.614   5.958  13.447
61176W        W33601   9.280  10.806  14.530
61177W        W33602  18.121  19.532   2.003
61178W        W33603  11.124   6.416   2.874
61179W        W33604  44.746   5.656   1.496
61180W        W33605  19.571  38.883  11.584
61181W        W33606  41.382  13.689  14.283
61182W        W33607  29.774  27.412  11.921
61183W        W33608  42.350  41.620  12.496
61184W        W33609   2.099  12.613  14.489
61185W        W33610  37.547  33.587  10.982
61186W        W33611  22.960  12.681   1.181
61187W        W33612  21.902   1.365   1.702
61188W        W33613  11.222  24.901   3.743
61189W        W33614  27.250  36.379  12.141
61190W        W33615  30.391  39.512  11.897
61191W        W33616  37.997  40.250   3.622
61192W        W33617   9.238   4.959  13.435
61193W        W33618  27.236  11.838  13.563
61194W        W33619  33.306   3.302   2.175
61195W        W33620  37.408  33.584   2.854
61196W        W33621  24.723  44.045  12.471
61197W        W33622   7.455  23.445   4.229
61198W        W33623  36.549   0.164   0.623
61199W        W33624  18.283  16.697   2.182
61200W        W33625  18.213  31.726  13.757
61201W        W33626  26.566  12.303  12.581
61202W        W33627  30.718  22.090  10.060
61203W        W33628  33.575   7.474   4.816
61204W        W33629  20.150  42.770   4.648
61205W        W33630  16.738  38.090   2.759
61206W        W33631  17.028   1.904   3.278
61207W        W33632   3.447  16.184  14.494
61208W        W33633  11.093   8.677   2.815
61209W        W33634  41.421  30.953   3.363
61210W        W33635  35.156  18.794   4.122
61211W        W33636  11.380  14.560   1.461
61212W        W33637  25.423  20.540   1.458
61213W        W33638   1.876  23.442  14.836
61214W        W33639  11.137  19.549  11.758
61215W        W33640  12.306  25.158  13.408
61216W        W33641  16.270  31.422   0.417
61217W        W33642  31.506  19.959   3.724
61218W        W33643   5.336   5.752   1.970
61219W        W33644   5.911   8.155   3.780
61220W        W33645  21.019  17.560   0.534
61221W        W33646   8.130  22.498   1.725
61222W        W33647  44.764   5.239   1.197
61223W        W33648  25.233  28.400   4.671
61224W        W33649   9.912   9.188  12.466
61225W        W33650  24.897  41.825   2.760
61226W        W33651  10.944  18.600  11.725
61227W        W33652  40.017  22.679   3.667
61228W        W33653   5.252  12.313  13.324
61229W        W33654  29.410   4.280  14.254
61230W        W33655  39.886  18.261  14.515
61231W        W33656  44.164   3.422   4.144
61232W        W33657  37.676  43.636  13.349
61233W        W33658  20.651   1.199   3.661
61234W        W33659   9.707  21.288   0.329
61235W        W33660  31.919  21.013  13.937
61236W        W33661  32.842   1.657  14.512
61237W        W33662  22.734   6.225   1.718
61238W        W33663  33.403  10.232   2.302
61239W        W33664  21.582  27.036   2.688
61240W        W33665  32.081  27.093   2.213
61241W        W33666  36.958  41.920   1.520
61242W        W33667  35.156  25.020  12.455
61243W        W33668   7.793  32.611  11.967
61244W        W33669  41.674  39.853   0.403
61245W        W33670   8.651  12.296   2.224
61246W        W33671  14.040  24.472  13.256
61247W        W33672  25.672  13.730  14.476
61248W        W33673  13.853  39.932   4.541
61249W        W33674  36.293  43.468   2.425
61250W        W33675  21.750  41.668  12.731
61251W        W33676  24.076  23.758   1.753
61252W        W33677  14.422  44.838   2.601
61253W        W33678  19.589  14.130  11.452
61254W        W33679  10.727  18.657  10.723
61255W        W33680  40.389  23.116   0.395
61256W        W33681   1.488  10.339  14.607
61257W        W33682   9.714  13.249   3.670
61258W        W33683  36.849   3.674   1.464
61259W        W33684  40.424  23.306   0.878
61260W        W33685   8.933   0.375   1.617
61261W        W33686   5.117  35.885  12.350
61262W        W33687  21.063   7.573   2.691
61263W        W33688  18.776   4.314   0.469
61264W        W33689  43.911  29.676  12.066
61265W        W33690  34.988  10.820   1.338
61266W        W33691  28.874  37.368   2.415
61267W        W33692  26.085  20.637  11.644
61268W        W33693  22.816  39.103  14.833
61269W        W33694  15.396  11.771   1.521
61270W        W33695  33.682  29.009   4.646
61271W        W33696  33.436  11.986  14.953
61272W        W33697  26.476  36.824   1.181
61273W        W33698  10.773  18.816   2.848
61274W        W33699  40.277   4.198  11.712
61275W        W33700   1.195  33.481  11.065
61276W        W33701  26.209   0.951   4.233
61277W        W33702  38.334  32.400   0.291
61278W        W33703  38.300  35.371   0.253
61279W        W33704  21.230  44.490   3.219
61280W        W33705  13.130  38.549   1.432
61281W        W33706  33.447   8.892  11.201
61282W        W33707  42.406  23.003  14.544
61283W        W33708  29.601   2.505   2.737
61284W        W33709  41.427  18.293  13.466
61285W        W33710  23.561  41.803  11.218
61286W        W33711  44.866  28.685   3.656
61287W        W33712  20.154  21.765   3.827
61288W        W33713  39.923  14.319   2.814
61289W        W33714  16.459  35.598  12.689
61290W        W33715  23.975   5.422  10.679
61291W        W33716  23.362  31.218  13.956
61292W        W33717   0.218  18.272  13.292
61293W        W33718  42.002   8.738   0.749
61294W        W33719  17.585  31.848   0.315
61295W        W33720  40.384  12.379   1.831
61296W        W33721  25.828  31.424  11.177
61297W        W33722  43.294  25.985  13.004
61298W        W33723   4.455  30.545   1.913
61299W        W33724  30.875  30.404   2.685
61300W        W33725   2.024  43.190  12.542
61301W        W33726  28.210  20.630   0.897
61302W        W33727   6.954   5.533  11.494
61303W        W33728   3.620  14.070   2.647
61304W        W33729  26.487  11.590   2.066
61305W        W33730  33.140  12.845  14.561
61306W        W33731  34.619  39.829  12.547
61307W        W33732  22.629  15.833  14.456
61308W        W33733  12.508  17.870  11.055
61309W        W33734  10.268  12.773   2.181
61310W        W33735  12.620  15.234  12.534
61311W        W33736   6.190  41.532  13.370
61312W        W33737  43.196   4.291   1.248
61313W        W33738  15.878  33.881  14.321
61314W        W33739  26.078  16.108  13.839
61315W        W33740  38.417  21.180  14.638
61316W        W33741  44.518  33.597   4.976
61317W        W33742  42.509  20.278   1.972
61318W        W33743  33.002  31.002  10.601
61319W        W33744   1.549  36.393   3.282
61320W        W33745  44.892  15.782  11.311
61321W        W33746   2.015  27.759  12.952
61322W        W33747  39.084   5.313  13.358
61323W        W33748  36.182  29.449  12.408
61324W        W33749  28.688  17.781   4.103
61325W        W33750  20.247   1.664   3.022
61326W        W33751  31.029  36.344  13.591
61327W        W33752  15.000   8.644  10.730
61328W        W33753  21.701  25.073   0.956
61329W        W33754  30.458  41.357   4.036
61330W        W33755  40.949  16.183  12.017
61331W        W33756  40.491  18.628   5.207
61332W        W33757  14.921  23.146   1.287
61333W        W33758  40.757  11.377   2.833
61334W        W33759  35.978  41.590  12.867
61335W        W33760  14.153   9.905  11.079
61336W        W33761  11.258  40.864  13.306
61337W        W33762  34.325  19.611   1.897
61338W        W33763  26.588  39.324  13.036
61339W        W33764  17.593  41.910  13.692
61340W        W33765   1.853  37.136   2.426
61341W        W33766   0.760   0.812  14.728
61342W        W33767  36.914  11.612   3.249
61343W        W33768  16.068  32.038  14.383
61344W        W33769  16.423   6.033   1.247
61345W        W33770   5.758   7.331   0.363
61346W        W33771  15.163  33.887   0.804
61347W        W33772   0.102  21.335   0.835
61348W        W33773  37.822  17.995  14.019
61349W        W33774  44.997  14.761   0.113
61350W        W33775  24.986  30.625   3.593
61351W        W33776  31.308   2.340   1.916
61352W        W33777  40.969  19.492   3.734
61353W        W33778  41.109  40.461  13.486
61354W        W33779  22.500  42.381   2.941
61355W        W33780   7.886  20.163   4.571
61356W        W33781  42.465  14.589  10.646
61357W        W33782  40.887  18.913  11.891
61358W        W33783   7.852  42.299   3.853
61359W        W33784   4.498   1.202  10.129
61360W        W33785   8.183  12.478  11.151
61361W        W33786  15.594   0.722   3.227
61362W        W33787  11.132  10.588  11.620
61363W        W33788   7.881  38.788   1.471
61364W        W33789  13.052  17.140  11.615
61365W        W33790  37.115  31.896   2.867
61366W        W33791  38.105  31.401   0.939
61367W        W33792  41.433  38.857   4.717
61368W        W33793  17.633  23.941   2.360
61369W        W33794  36.388   6.873   2.336
61370W        W33795  23.972   3.907  12.300
61371W        W33796  19.486  33.663  10.972
61372W        W33797  22.458  34.040   3.252
61373W        W33798   2.286   9.016   3.597
61374W        W33799  29.644  42.020  13.891
61375W        W33800  38.852  10.361  13.360
61376W        W33801  25.431  30.919  10.523
61377W        W33802  35.143  41.429   2.097
61378W        W33803  36.895  15.789  11.640
61379W        W33804  24.391  34.382   4.176
61380W        W33805  18.097  34.058   4.635
61381W        W33806   0.311  17.635  12.855
61382W        W33807  44.870  11.631   1.904
61383W        W33808  25.684  19.328  13.956
61384W        W33809  42.487  14.359  14.807
61385W        W33810  10.678  29.608  11.120
61386W        W33811  19.656   1.515  13.382
61387W        W33812  29.723  40.897   1.131
61388W        W33813  43.388  39.830  13.471
61389W        W33814   2.385  20.995   1.968
61390W        W33815  15.114  36.040  12.404
61391W        W33816   4.715  20.558   4.599
61392W        W33817  28.891  34.403  10.753
61393W        W33818  16.097  38.989   1.437
61394W        W33819  38.191  14.105   4.992
61395W        W33820  32.080  37.116   0.197
61396W        W33821  10.958  43.440  10.663
61397W        W33822   5.007  32.949   2.869
61398W        W33823  26.108  20.996  14.860
61399W        W33824   9.771  44.944   0.923
61400W        W33825   6.422   7.294   3.604
61401W        W33826  44.959   8.860   0.431
61402W        W33827  31.968   4.857  14.910
61403W        W33828  32.122  29.229   0.402
61404W        W33829   0.074  36.171  10.828
61405W        W33830   8.580  25.044  14.236
61406W        W33831  13.848  11.240   4.698
61407W        W33832  36.508  39.334  12.241
61408W        W33833  11.317  15.737  13.553
61409W        W33834  22.022  26.180  13.295
61410W        W33835  16.543  32.383  11.119
61411W        W33836   4.923   6.764  14.526
61412W        W33837  12.099  28.041   1.005
61413W        W33838  27.552  43.021  11.405
61414W        W33839  28.442  13.831   3.446
61415W        W33840  28.209   2.012  13.502
61416W        W33841   9.697  25.448   2.255
61417W        W33842   7.470  42.496  11.975
61418W        W33843  22.996  15.219   1.812
61419W        W33844  20.530  43.937  11.141
61420W        W33845   7.416  19.123   2.351
61421W        W33846  19.688  28.442  12.613
61422W        W33847  31.020   9.846   0.825
61423W        W33848  10.062  11.632  11.052
61424W        W33849   7.549  37.605  10.170
61425W        W33850  30.946  26.167   4.103
61426W        W33851  44.838  12.387   4.973
61427W        W33852  32.872   1.740   3.269
61428W        W33853  38.867  19.316  12.155
61429W        W33854  44.821  24.710   1.714
61430W        W33855  42.892   1.302   4.842
61431W        W33856  16.149  24.870  12.330
61432W        W33857  30.608   5.310   4.579
61433W        W33858   9.815  19.853  12.435
61434W        W33859  30.509   9.969   0.843
61435W        W33860  21.735  27.168  10.661
61436W        W33861  44.553  32.125  14.328
61437W        W33862  10.154  33.044  14.033
61438W        W33863   8.812  44.039   4.193
61439W        W33864  17.516  13.848   4.250
61440W        W33865  15.415  33.262  12.124
61441W        W33866   4.305  15.340   1.836
61442W        W33867  26.181  36.959   4.725
61443W        W33868   3.234   5.404   1.233
61444W        W33869  22.347  15.180   0.788
61445W        W33870  28.222  16.549  11.483
61446W        W33871  28.760  33.801   3.798
61447W        W33872  18.161  42.931  12.376
61448W        W33873  23.921  41.524   2.626
61449W        W33874  22.471  33.863  12.483
61450W        W33875   8.601   9.105   0.255
61451W        W33876   2.370   2.888   0.870
61452W        W33877   9.950   9.151  14.166
61453W        W33878   7.451  43.503   3.155
61454W        W33879  16.167   0.336   3.595
61455W        W33880  24.132  35.164  10.092
61456W        W33881   3.979   2.856   4.849
61457W        W33882  21.655  39.992   2.835
61458W        W33883   1.741  42.367  12.048
61459W        W33884  10.316  30.063  14.350
61460W        W33885  11.364  44.713   1.618
61461W        W33886  37.551  20.582   4.407
61462W        W33887   7.792   0.111   3.867
61463W        W33888  36.396  39.952  14.398
61464W        W33889  38.422  30.587  12.062
61465W        W33890  30.147  26.970   2.796
61466W        W33891  27.949   2.695   0.157
61467W        W33892  32.157  13.574   2.219
61468W        W33893  28.926   1.567   1.532
61469W        W33894  18.992  39.556  14.931
61470W        W33895  40.811  15.270  11.916
61471W        W33896   3.308  19.604  13.286
61472W        W33897  26.535  14.680   1.177
61473W        W33898  34.327   3.345   2.302
61474W        W33899  36.464  34.843   3.717
61475W        W33900   0.857  34.698   3.600
61476W        W33901  29.642  38.423  12.334
61477W        W33902  29.863   9.216   1.822
61478W        W33903   1.004  31.660   2.241
61479W        W33904   4.491  17.838   2.244
61480W        W33905  27.827  18.627   9.802
61481W        W33906  44.836  10.691  12.437
61482W        W33907  16.830   2.837   1.284
61483W        W33908   4.181  36.264   3.901
61484W        W33909  38.999   0.017   0.357
61485W        W33910  13.156  26.572  12.229
61486W        W33911  30.134  28.573   1.598
61487W        W33912  42.240  29.510   4.900
61488W        W33913  19.008   8.910   2.497
61489W        W33914  43.718  35.984   2.256
61490W        W33915   2.843  44.012  11.808
61491W        W33916  14.758   4.708   0.794
61492W        W33917  14.574  37.405  12.889
61493W        W33918   8.800  12.463  10.853
61494W        W33919  27.409  13.881  10.841
61495W        W33920  43.435  37.596  12.375
61496W        W33921  44.777  33.901  13.864
61497W        W33922  12.050  23.896   5.334
61498W        W33923  31.311  37.269   3.334
61499W        W33924  39.425  34.615   1.590
61500W        W33925  42.336   8.803   2.104
61501W        W33926   1.388  20.823  11.550
61502W        W33927   0.273  24.288   0.437
61503W        W33928  29.522   7.883  10.668
61504W        W33929   8.364  27.996   2.375
61505W        W33930  13.810  16.255   0.380
61506W        W33931  40.002   0.766  12.009
61507W        W33932  37.318  11.161  11.664
61508W        W33933  26.084  30.189  13.479
61509W        W33934  34.927   4.712   4.050
61510W        W33935  23.104  15.264  12.607
61511W        W33936  23.614  44.970  13.399
61512W        W33937  38.862  13.671  13.996
61513W        W33938  43.929  19.316   3.150
61514W        W33939  21.025   1.497   3.894
61515W        W33940  42.354  11.833   2.657
61516W        W33941  40.821  13.319  13.812
61517W        W33942  32.563  32.123  14.500
61518W        W33943  41.464  12.730  14.254
61519W        W33944  33.051  11.613  13.016
61520W        W33945   1.008   5.361   3.717
61521W        W33946  21.120  34.301   4.102
61522W        W33947  11.332  26.255  14.242
61523W        W33948  10.576  39.267   0.245
61524W        W33949  37.574  33.589  13.082
61525W        W33950  11.829  25.867   2.861
61526W        W33951  32.104  40.070  10.705
61527W        W33952  36.822  38.154   3.762
61528W        W33953  32.619   3.895   1.832
61529W        W33954  20.488  44.496  13.298
61530W        W33955  41.455  29.099   1.721
61531W        W33956  19.958  44.902   0.704
61532W        W33957  19.086  14.270   4.960
61533W        W33958  37.169  20.297   1.336
61534W        W33959  30.509  14.378   0.170
61535W        W33960  39.132  24.285   2.078
61536W        W33961  18.176  44.877   4.587
61537W        W33962  28.893   2.341  12.865
61538W        W33963   7.847  33.958   1.975
61539W        W33964   2.359  25.948   0.388
61540W        W33965  15.383   7.341   0.948
61541W        W33966  39.625  21.334   5.053
61542W        W33967   4.454   5.846   4.486
61543W        W33968  41.435  18.182   3.895
61544W        W33969  44.823  44.978  11.465
61545W        W33970  39.381  14.633  14.520
61546W        W33971  44.300   4.398  11.506
61547W        W33972  44.572  33.060  12.019
61548W        W33973  27.466   0.189  11.922
61549W        W33974  29.632  36.883  12.819
61550W        W33975   1.426   8.762   1.731
61551W        W33976  12.759  10.381   0.924
61552W        W33977  34.452   6.201  12.380
61553W        W33978  38.820  16.616  13.123
61554W        W33979  40.046  33.951  12.415
61555W        W33980  31.910  36.042  14.558
61556W        W33981  21.440   2.525  11.816
61557W        W33982  25.603   9.670   4.070
61558W        W33983   2.013  12.090   1.168
61559W        W33984   4.314  34.091  11.516
61560W        W33985  42.879  39.829   3.635
61561W        W33986   3.246  14.645  10.900
61562W        W33987  12.271  11.098  12.461
61563W        W33988  37.380  29.207  10.115
61564W        W33989  25.244  40.892  13.515
61565W        W33990  41.843  22.581  13.043
61566W        W33991   2.174  33.607  13.162
61567W        W33992  12.745  32.081   2.770
61568W        W33993  35.146  42.966   0.438
61569W        W33994  35.307   2.775  11.413
61570W        W33995  40.504  23.972  11.165
61571W        W33996  17.744  22.021  10.656
61572W        W33997  32.907  30.828  14.304
61573W        W33998  37.576  14.505   2.108
61574W        W33999  24.524   0.576   3.128
61575W        W34000  12.020  27.887  11.579
61576W        W34001  19.568  12.806   4.141
61577W        W34002  29.018   6.144  14.748
61578W        W34003  16.572  43.315  11.935
61579W        W34004  44.925  10.938  13.327
61580W        W34005  31.911   5.757  10.585
61581W        W34006  18.558  36.702   2.159
61582W        W34007  22.860  18.554  13.497
61583W        W34008  37.435  23.514   4.675
61584W        W34009  14.247   9.795   1.022
61585W        W34010  19.047  39.633  14.134
61586W        W34011   4.474  29.674  14.024
61587W        W34012  16.637  24.655  14.113
61588W        W34013  24.012  35.193   4.093
61589W        W34014  16.175  36.745   4.918
61590W        W34015  19.577  17.617  13.037
61591W        W34016   0.368  18.269  11.591
61592W        W34017  21.531  11.229   4.764
61593W        W34018   4.861  14.833   2.750
61594W        W34019  42.603  33.391   3.118
61595W        W34020  19.172  26.115  10.831
61596W        W34021  44.889  29.744   2.867
61597W        W34022  18.389  43.758  12.862
61598W        W34023  20.381  35.188   4.090
61599W        W34024  16.221  36.358   4.589
61600W        W34025  18.086  39.525   1.776
61601W        W34026  35.019  12.731   2.670
61602W        W34027  13.811  10.196  10.630
61603W        W34028  21.720   5.262   0.658
61604W        W34029  34.601  30.540   2.623
61605W        W34030  27.538  16.597  13.969
61606W        W34031  44.064  32.387  12.872
61607W        W34032   0.502  20.507   2.362
61608W        W34033  29.378  35.745   0.548
61609W        W34034  43.505  33.072   2.764
61610W        W34035  39.267   8.325  13.905
61611W        W34036  34.397  17.076   4.095
61612W        W34037  15.155  28.015  10.917
61613W        W34038  28.996  10.787   3.362
61614W        W34039  21.134  23.554  13.357
61615W        W34040  34.036  36.602   2.514
61616W        W34041  13.644  21.107  11.091
61617W        W34042  32.660  44.724   1.695
61618W        W34043  19.540  12.257  13.627
61619W        W34044  28.064  19.108  14.678
61620W        W34045  37.427  25.007   2.759
61621W        W34046   7.738  17.540   0.759
61622W        W34047  36.037  42.199  13.368
61623W        W34048  23.518  26.776   4.712
61624W        W34049  32.010  27.196   2.815
61625W        W34050  42.700  41.295  11.956
61626W        W34051  20.067  10.426  13.384
61627W        W34052   9.662  34.487  11.831
61628W        W34053   8.346   4.250   2.880
61629W        W34054  16.148  23.572   3.682
61630W        W34055  20.185  44.310   1.886
61631W        W34056  41.117  15.497  12.939
61632W        W34057   1.190  13.811  14.369
61633W        W34058  23.708  38.472   2.730
61634W        W34059  37.368  33.199   4.311
61635W        W34060  14.396  31.490   1.967
61636W        W34061   3.526  34.188   3.418
61637W        W34062   7.662  12.797  11.229
61638W        W34063  14.861  33.163  10.321
61639W        W34064   9.647  30.083   0.120
61640W        W34065  14.878  34.847   0.909
61641W        W34066  26.544  42.377   4.288
61642W        W34067  22.370  32.552   2.607
61643W        W34068  17.374  13.011  12.472
61644W        W34069  27.639  33.968   3.053
61645W        W34070   9.129  44.263  10.567
61646W        W34071  11.798  21.848  11.403
61647W        W34072   8.284  11.139   1.463
61648W        W34073  27.346   5.562  13.388
61649W        W34074  39.327  22.747   1.477
61650W        W34075   9.175  36.235   3.571
61651W        W34076   1.837  34.448  11.532
61652W        W34077  43.019   7.106  12.921
61653W        W34078  18.307   9.822   0.850
61654W        W34079  30.937  28.900   4.333
61655W        W34080  40.359  30.941   1.198
61656W        W34081  40.566  19.708   1.795
61657W        W34082   5.971  13.840   1.806
61658W        W34083  32.886  12.218  14.297
61659W        W34084   5.340  24.841  11.197
61660W        W34085  19.556   9.065   4.491
61661W        W34086   9.393   8.735   0.343
61662W        W34087  41.417   1.470   4.908
61663W        W34088  30.990  34.392  13.874
61664W        W34089  41.254  16.318   0.315
61665W        W34090  34.761  18.316   1.474
61666W        W34091  38.440  24.071  11.441
61667W        W34092  29.976  24.696  12.604
61668W        W34093  43.114  10.314  11.963
61669W        W34094   0.469  14.226   3.755
61670W        W34095  44.464  23.601   2.370
61671W        W34096  11.190  22.588   4.484
61672W        W34097  21.333  35.549   4.101
61673W        W34098   0.842  32.827  10.597
61674W        W34099  33.422   6.735   2.598
61675W        W34100  41.479  21.151  11.965
61676W        W34101  20.803  41.036   0.258
61677W        W34102  26.054  18.958   1.374
61678W        W34103  13.032  31.636  13.836
61679W        W34104  40.997   8.225  10.743
61680W        W34105   5.925  11.947   1.749
61681W        W34106  12.013   0.017   0.995
61682W        W34107  28.718  33.463  12.049
61683W        W34108  11.125  21.075  12.881
61684W        W34109  20.557  35.807   4.197
61685W        W34110  21.550  19.087   5.189
61686W        W34111   1.299  37.396   2.361
61687W        W34112   2.446   9.241   0.006
61688W        W34113  12.725  28.409  12.604
61689W        W34114   3.711   5.210   1.320
61690W        W34115  35.503  34.553   0.519
61691W        W34116  38.304  42.891  10.444
61692W        W34117  30.939  33.693   0.716
61693W        W34118   4.368   4.007   2.301
61694W        W34119  40.370  26.320  12.421
61695W        W34120  24.529  27.674   2.380
61696W        W34121   9.868  44.503   3.164
61697W        W34122  16.149  21.066  13.790
61698W        W34123  29.590  30.412  10.257
61699W        W34124  13.426  33.454  11.165
61700W        W34125  21.033  27.941   0.919
61701W        W34126   1.832  36.087   1.233
61702W        W34127   6.924  14.202   4.066
61703W        W34128  34.558  44.708   1.856
61704W        W34129  38.092  20.918  13.468
61705W        W34130   0.877   5.274   2.253
61706W        W34131  11.806  40.507  12.895
61707W        W34132  36.236  33.674  12.430
61708W        W34133  33.026  39.683   2.686
61709W        W34134  22.071  19.016   4.574
61710W        W34135  42.511  19.532   0.818
61711W        W34136   5.329  19.248  14.446
61712W        W34137   2.050  35.626  14.886
61713W        W34138   2.256  44.017  13.782
61714W        W34139  10.191  40.100  13.616
61715W        W34140  24.787   4.759   3.810
61716W        W34141   3.910  10.229  14.106
61717W        W34142  43.242  23.087  14.012
61718W        W34143  14.027  12.694  10.746
61719W        W34144  21.513   8.529  13.392
61720W        W34145  44.458  23.667  10.628
61721W        W34146  23.114  26.376  14.936
61722W        W34147  27.453   7.645   1.718
61723W        W34148   5.181   7.228   1.343
61724W        W34149  29.487  41.082  10.835
61725W        W34150  20.663  35.402   1.340
61726W        W34151  24.322  20.792  12.428
61727W        W34152   3.484   0.125   0.083
61728W        W34153  43.812  25.611  10.655
61729W        W34154  37.092  19.589   3.127
61730W        W34155  23.734  41.118   0.314
61731W        W34156  32.965  39.281   0.381
61732W        W34157  29.208  19.746  10.889
61733W        W34158  16.755   6.449  13.083
61734W        W34159  30.773  33.006   3.652
61735W        W34160  19.750  38.503   1.173
61736W        W34161  22.129  27.994   0.004
61737W        W34162  27.153   7.389   5.003
61738W        W34163  31.457   0.366  12.673
61739W        W34164  10.638  17.176  11.624
61740W        W34165  20.488   9.120   1.663
61741W        W34166  27.989  13.641   4.629
61742W        W34167  41.069  35.399   4.586
61743W        W34168  22.953  10.258  13.516
61744W        W34169  24.792  19.146   2.226
61745W        W34170  31.443  38.198   3.671
61746W        W34171   0.145  35.693  13.653
61747W        W34172   3.684  11.110   0.287
61748W        W34173  44.246   9.861  14.865
61749W        W34174  21.590   7.429  13.127
61750W        W34175   2.353  17.656   0.495
61751W        W34176  40.967  27.119  14.292
61752W        W34177  31.483   3.373   1.961
61753W        W34178  36.130  10.324   0.269
61754W        W34179   2.214  13.561  11.891
61755W        W34180   9.648  15.161  11.324
61756W        W34181  21.238  39.019  10.936
61757W        W34182  36.065  24.650   0.308
61758W        W34183  13.364  10.142  13.235
61759W        W34184  40.720  30.408  11.479
61760W        W34185  21.669  33.515   1.568
61761W        W34186  35.483   9.204   3.775
61762W        W34187  18.435  18.562  11.127
61763W        W34188  20.034   1.703  11.493
61764W        W34189  39.565  11.060   3.721
61765W        W34190  43.463  26.203  12.532
61766W        W34191  42.427  16.914  13.864
61767W        W34192  15.238  24.462  12.120
61768W        W34193  13.353  31.574   2.316
61769W        W34194  27.456  37.450  10.505
61770W        W34195  44.146   9.435   2.482
61771W        W34196  19.264  12.181  12.406
61772W        W34197  41.141  28.082  11.999
61773W        W34198  44.804   0.307  11.078
61774W        W34199  15.619  28.675  13.837
61775W        W34200  33.694  12.661   1.870
61776W        W34201  38.353  37.238   0.475
61777W        W34202  28.452  35.054  10.893
61778W        W34203   0.141   0.892  12.834
61779W        W34204  39.861  16.515  11.637
61780W        W34205  37.344  16.352   0.344
61781W        W34206  20.707  29.906   1.926
61782W        W34207  28.263  12.247   4.231
61783W        W34208  35.569  30.326  12.422
61784W        W34209  21.162  34.093   0.004
61785W        W34210   5.787   2.466   1.411
61786W        W34211  28.556  43.229  13.028
61787W        W34212  24.003  29.401   1.687
61788W        W34213   2.276  43.318   0.690
61789W        W34214   3.352  19.734  10.679
61790W        W34215  19.281  43.449  14.091
61791W        W34216   4.431   2.785  12.516
61792W        W34217   5.885  31.336  14.084
61793W        W34218  30.958   3.005   3.893
61794W        W34219  35.111   0.569  11.513
61795W        W34220  23.307   9.864  13.338
61796W        W34221  38.295  44.468   0.909
61797W        W34222  23.476  23.420  12.920
61798W        W34223  14.105  32.671  14.342
61799W        W34224  16.969  26.111  14.681
61800W        W34225  25.731  10.902   2.711
61801W        W34226   9.749   5.873  14.407
61802W        W34227  41.497  14.840   3.315
61803W        W34228  12.707   4.256  10.918
61804W        W34229  17.350  11.861  14.910
61805W        W34230  31.989  42.301  13.413
61806W        W34231  44.995  29.876  11.870
61807W        W34232  33.999  20.122   2.024
61808W        W34233  36.600   9.178   2.233
61809W        W34234  31.348   7.441  11.168
61810W        W34235  43.897  29.721  14.341
61811W        W34236  17.986   1.977  14.985
61812W        W34237   3.439  26.982  10.522
61813W        W34238  38.178  30.684  13.376
61814W        W34239  39.762  28.503  10.369
61815W        W34240   0.563   2.669   1.394
61816W        W34241  15.428  18.816  14.314
61817W        W34242  40.485  43.842  12.123
61818W        W34243  27.241  42.468   2.336
61819W        W34244  32.991  24.504  11.613
61820W        W34245  20.279  12.875  13.537
61821W        W34246  32.982   5.688  14.079
61822W        W34247  44.703  37.378  10.214
61823W        W34248  38.591  40.055  14.926
61824W        W34249  12.221  22.957  11.689
61825W        W34250  43.792  35.706   1.764
61826W        W34251   2.670  42.713   1.496
61827W        W34252  21.110  42.329   4.182
61828W        W34253  10.222  20.559   1.310
61829W        W34254  19.223  12.774  11.545
61830W        W34255  25.961  23.254  12.294
61831W        W34256   3.613  34.898   4.980
61832W        W34257  40.642  41.076  11.083
61833W        W34258  24.468  24.236  13.329
61834W        W34259  30.836  19.774  12.492
61835W        W34260  17.283  41.011  13.995
61836W        W34261   8.231  32.156   4.209
61837W        W34262  18.341  43.888  10.673
61838W        W34263  42.332  42.216   1.392
61839W        W34264  27.722  36.369  14.330
61840W        W34265  28.653  31.314   3.770
61841W        W34266  34.039   4.323  12.756
61842W        W34267  17.350  33.122   3.609
61843W        W34268   3.754  44.130   0.845
61844W        W34269  39.982   8.635  12.631
61845W        W34270  16.507  32.197  14.948
61846W        W34271  12.649  15.813  12.488
61847W        W34272  12.297  21.147   3.526
61848W        W34273  44.840   5.173   3.191
61849W        W34274  22.043   3.462  12.905
61850W        W34275  16.742  19.113  12.064
61851W        W34276  42.866   2.440  11.830
61852W        W34277  24.713  17.488  12.768
61853W        W34278  15.668  17.521   3.852
61854W        W34279  17.069  41.816  14.402
61855W        W34280   1.193  44.547  13.700
61856W        W34281  29.179  11.807  10.897
61857W        W34282  40.625  15.681  14.407
61858W        W34283  11.849  22.788  14.807
61859W        W34284  29.488   1.992   2.400
61860W        W34285  41.385   1.962  11.611
61861W        W34286  29.979  35.940  12.291
61862W        W34287  22.495  29.320  11.516
61863W        W34288  25.229  27.122  10.714
61864W        W34289  12.564  18.959   4.350
61865W        W34290  15.711  39.303  14.795
61866W        W34291  17.700  13.377  12.812
61867W        W34292   5.194  11.036  14.894
61868W        W34293  28.255  31.971   2.697
61869W        W34294  21.095  22.080   1.687
61870W        W34295  13.505  39.003  13.282
61871W        W34296  21.134   1.877   0.804
61872W        W34297  26.378  41.314   3.305
61873W        W34298  11.213  11.410   0.269
61874W        W34299  13.314  32.316  10.144
61875W        W34300   5.658  35.838  12.407
61876W        W34301   2.385  28.684  11.990
61877W        W34302   2.895  21.593  14.250
61878W        W34303  10.587   4.738   1.394
61879W        W34304   1.911  39.605   0.347
61880W        W34305  34.087   5.643   4.672
61881W        W34306   9.207   1.802   5.124
61882W        W34307  10.788   2.675   4.304
61883W        W34308  41.540   5.461   1.036
61884W        W34309  11.128  30.890  13.138
61885W        W34310  41.236  34.568  13.853
61886W        W34311  33.889   3.511  14.288
61887W        W34312  26.133  34.083   4.633
61888W        W34313  12.110  39.228   1.424
61889W        W34314  44.528   0.544   1.810
61890W        W34315   1.930  20.250   3.208
61891W        W34316   6.281   6.274   0.480
61892W        W34317  24.962  30.487  12.433
61893W        W34318  18.065  25.625  14.207
61894W        W34319  23.470  41.910  12.082
61895W        W34320   7.280   2.887  14.583
61896W        W34321  23.667   9.350   2.593
61897W        W34322  23.766  11.871  13.790
61898W        W34323  23.192   2.308   1.379
61899W        W34324  30.794  21.771  13.599
61900W        W34325  42.557  23.924  14.868
61901W        W34326  29.322   1.846   1.329
61902W        W34327  12.291  27.275   1.255
61903W        W34328  11.954  35.944   1.992
61904W        W34329  15.205  32.653   3.222
61905W        W34330   0.504   1.331   4.895
61906W        W34331  21.581  12.682  12.593
61907W        W34332  44.761  21.692   2.275
61908W        W34333   6.457  28.604  14.409
61909W        W34334  31.094  13.726  11.043
61910W        W34335   7.968  29.241  11.086
61911W        W34336  14.777  22.009  13.410
61912W        W34337  38.467  12.368  14.900
61913W        W34338  26.875   8.343   1.255
61914W        W34339  20.345  43.463   4.116
61915W        W34340  20.635   4.414   4.436
61916W        W34341   3.982  20.830  11.061
61917W        W34342  30.566  36.379   0.812
61918W        W34343  35.019  39.135   1.857
61919W        W34344  29.897   7.793   3.284
61920W        W34345  35.947  11.402   3.426
61921W        W34346  42.045  31.695  13.319
61922W        W34347  22.255   3.949  13.018
61923W        W34348  20.305  17.244  11.936
61924W        W34349  18.715  19.332   3.247
61925W        W34350   3.326  42.147   1.947
61926W        W34351  25.191  43.025   1.594
61927W        W34352  35.668  31.927   0.866
61928W        W34353  22.809  29.989  13.429
61929W        W34354   4.265  24.120  10.764
61930W        W34355   4.784  22.124   2.861
61931W        W34356  31.544   9.892  11.074
61932W        W34357  20.972  32.953   0.870
61933W        W34358  36.899   1.473   4.211
61934W        W34359  24.515  40.404  12.488
61935W        W34360  24.192   0.978   2.227
61936W        W34361  28.520  33.505  10.945
61937W        W34362  38.979  35.548  14.020
61938W        W34363  41.287  36.583  13.848
61939W        W34364  13.180  19.059  11.481
61940W        W34365  31.853  22.655   3.060
61941W        W34366  10.833  26.581  14.724
61942W        W34367  32.864  12.705   3.329
61943W        W34368   7.012  11.000  12.353
61944W        W34369   7.300  34.433  13.357
61945W        W34370   3.957   9.138  12.507
61946W        W34371  34.564  27.633  10.600
61947W        W34372  42.378  15.798  13.110
61948W        W34373   7.746  30.146   4.792
61949W        W34374  25.761   5.678  10.925
61950W        W34375   9.719  44.294   4.142
61951W        W34376  12.361  32.173  14.863
61952W        W34377  43.028   1.926   0.413
61953W        W34378  19.338  13.304   4.908
61954W        W34379  17.308   4.534  12.147
61955W        W34380  41.000   4.893   3.431
61956W        W34381  11.283   3.456  12.072
61957W        W34382   6.908  27.538  14.811
61958W        W34383  38.916  16.140   3.365
61959W        W34384  20.078  19.661  14.891
61960W        W34385  29.387  34.676  12.570
61961W        W34386  38.891  32.468  12.124
61962W        W34387  43.268  26.570  13.300
61963W        W34388  38.009   9.766   4.109
61964W        W34389  29.938  43.943  13.849
61965W        W34390  14.335  17.080  14.999
61966W        W34391  17.356  27.975   3.873
61967W        W34392   5.450  12.142   2.842
61968W        W34393   8.132  28.113  14.852
61969W        W34394  29.080  34.595   0.319
61970W        W34395  32.409  13.721  12.886
61971W        W34396  15.479   7.348  10.568
61972W        W34397   2.342  18.558  12.004
61973W        W34398  27.068  12.392  14.459
61974W        W34399  18.159  32.497  14.729
61975W        W34400   5.823  39.899  12.923
61976W        W34401   5.356  12.712  12.681
61977W        W34402  13.836  36.343   4.756
61978W        W34403  12.357  37.930   3.297
61979W        W34404  23.977  22.945  11.197
61980W        W34405  18.763  38.896  13.033
61981W        W34406  31.583  17.790   4.163
61982W        W34407   1.993   5.980  11.096
61983W        W34408  36.980  25.776  10.815
61984W        W34409  22.210   9.813   5.217
61985W        W34410  28.967  17.801   0.474
61986W        W34411  39.293  30.503   0.269
61987W        W34412  10.759  10.179  12.023
61988W        W34413  28.505  35.821   1.427
61989W        W34414  21.742  34.972  10.699
61990W        W34415   0.381   6.846   1.861
61991W        W34416  39.458  38.871   3.604
61992W        W34417   4.723  22.902  12.461
61993W        W34418  36.120  21.223  13.313
61994W        W34419  17.514  37.973   1.433
61995W        W34420  23.512  39.081  11.563
61996W        W34421   2.300  32.015   4.590
61997W        W34422   8.675   0.360  14.771
61998W        W34423  31.062   2.263   0.298
61999W        W34424  18.551  44.248  14.751
62000W        W34425  14.234  17.535   3.203
62001W        W34426  39.478   3.748  12.958
62002W        W34427  22.932   7.022  12.004
62003W        W34428  38.616  42.405   2.737
62004W        W34429  29.963   9.384  11.682
62005W        W34430   7.179  11.499   2.578
62006W        W34431  20.163  22.330   3.167
62007W        W34432  14.751  30.870  13.446
62008W        W34433   7.511  44.012   3.259
62009W        W34434  11.389  11.023   2.589
62010W        W34435   5.742  29.482   1.357
62011W        W34436  13.722   3.269  12.030
62012W        W34437  35.478  23.651   1.902
62013W        W34438  19.446  29.400   2.362
62014W        W34439  31.429   6.287   0.351
62015W        W34440  22.500  35.656   2.691
62016W        W34441   1.824  31.676   3.825
62017W        W34442  19.002  36.832   4.390
62018W        W34443  29.508  26.331  11.055
62019W        W34444  34.364   9.954  14.579
62020W        W34445   0.899  42.239   4.165
62021W        W34446  43.980  40.504   3.920
62022W        W34447   6.860   8.263  13.428
62023W        W34448  43.544  24.971   3.607
62024W        W34449  11.564  26.416   0.381
62025W        W34450  24.885  15.145   0.419
62026W        W34451  43.001  28.206  10.394
62027W        W34452  44.996  30.645  14.391
62028W        W34453  44.834  28.440   0.921
62029W        W34454  41.552  39.528   3.235
62030W        W34455   5.670  26.214   1.302
62031W        W34456  19.736   9.745   0.995
62032W        W34457  44.754  26.636   3.815
62033W        W34458  29.645  29.930  14.219
62034W        W34459  15.250  40.983   3.315
62035W        W34460  40.786  27.245  12.555
62036W        W34461  19.731  17.813   3.432
62037W        W34462  25.623  14.546  13.957
62038W        W34463  33.990   7.009  14.025
62039W        W34464  39.556  38.964  10.641
62040W        W34465  11.875   9.216  11.087
62041W        W34466  44.594   7.343  12.955
62042W        W34467   2.933   0.954  12.461
62043W        W34468  29.674  19.065   0.338
62044W        W34469  37.073  16.997   5.014
62045W        W34470   8.393  13.298  11.402
62046W        W34471  16.068  35.899   3.618
62047W        W34472  28.956  29.706   0.932
62048W        W34473  22.127   5.343   1.902
62049W        W34474   9.301  25.675  11.425
62050W        W34475  32.169   7.929   1.302
62051W        W34476  25.099  28.546   0.982
62052W        W34477  12.959  38.932   5.274
62053W        W34478  19.965  39.833  14.880
62054W        W34479  14.871   6.381   3.707
62055W        W34480  29.372  12.696  12.117
62056W        W34481  21.573  12.993  13.052
62057W        W34482   0.444  23.993   3.296
62058W        W34483  16.802  33.123   3.707
62059W        W34484  13.694   1.580   3.934
62060W        W34485  18.061  19.934   0.634
62061W        W34486  24.017  40.921   1.272
62062W        W34487  30.909  31.977   3.202
62063W        W34488   6.724  31.478   1.810
62064W        W34489  30.442  25.962  14.393
62065W        W34490  31.900  39.917  11.572
62066W        W34491  21.461  39.817   1.441
62067W        W34492  11.847   0.885  14.556
62068W        W34493  18.286   4.453  12.950
62069W        W34494  28.198  30.387   3.360
62070W        W34495  25.631  33.691  11.935
62071W        W34496  19.638  35.834   1.705
62072W        W34497  14.622  29.946   2.648
62073W        W34498  41.029  42.191  14.534
62074W        W34499  18.817   7.111   2.355
62075W        W34500  36.574   1.930  13.342
62076W        W34501   8.115  25.597  13.036
62077W        W34502  35.424  29.881   0.447
62078W        W34503  14.828  21.667  12.083
62079W        W34504  21.632  12.055  11.857
62080W        W34505  33.385  30.709   3.720
62081W        W34506  23.702  19.830   4.780
62082W        W34507  44.956  33.880   4.946
62083W        W34508  37.248   7.170   4.263
62084W        W34509  43.385   8.090  10.449
62085W        W34510   6.736   9.145   3.925
62086W        W34511  15.703   7.349   3.763
62087W        W34512  22.052   0.297   3.336
62088W        W34513  26.523  11.632   3.573
62089W        W34514  29.180  36.285  11.907
62090W        W34515  33.721  10.742   2.729
62091W        W34516  23.658  41.078   4.293
62092W        W34517  42.508  28.058  10.510
62093W        W34518   1.442  15.750   4.133
62094W        W34519  38.690  41.976  10.146
62095W        W34520   5.367   2.162   1.345
62096W        W34521  10.261  39.757   1.693
62097W        W34522  41.080  15.804   1.637
62098W        W34523   2.447  37.047   3.586
62099W        W34524  24.495  23.634  10.408
62100W        W34525  14.626  38.005  14.214
62101W        W34526   7.672  22.317   4.099
62102W        W34527  41.878  30.893  13.025
62103W        W34528  40.952   9.612   2.163
62104W        W34529   6.105  43.038   3.293
62105W        W34530  34.113  28.056  14.398
62106W        W34531   3.779   0.007   0.494
62107W        W34532   9.211  29.662  12.020
62108W        W34533   8.680  43.837  13.962
62109W        W34534  14.066  40.642   1.038
62110W        W34535  40.836  36.911   4.638
62111W        W34536  22.996  40.877  14.808
62112W        W34537  13.432   9.882   2.593
62113W        W34538  12.258  44.421  10.370
62114W        W34539  39.019  41.562  11.433
62115W        W34540  11.660  44.368   2.265
62116W        W34541   5.141  44.909   3.739
62117W        W34542  39.521  29.146  13.338
62118W        W34543   6.078  12.332  12.080
62119W        W34544  17.116  10.858   4.181
62120W        W34545  38.142  12.309   3.790
62121W        W34546  39.788  11.254  12.799
62122W        W34547  36.557   4.741  12.078
62123W        W34548  18.293  35.050   1.467
62124W        W34549   0.783  26.916   1.238
62125W        W34550  14.359  36.410  11.078
62126W        W34551  31.070  25.700   2.227
62127W        W34552   8.142  19.715   4.648
62128W        W34553  36.947  20.659  10.995
62129W        W34554   3.919  43.019   4.883
62130W        W34555  33.836  29.592  13.469
62131W        W34556  21.420   4.341  13.754
62132W        W34557   1.690   7.792   2.585
62133W        W34558   7.975  33.943   3.203
62134W        W34559   2.423  23.921  14.183
62135W        W34560  17.280  33.488  12.519
62136W        W34561  36.850   4.905   3.744
62137W        W34562   5.921  44.438  12.106
62138W        W34563   4.285  22.644   4.470
62139W        W34564  18.164  40.229   0.544
62140W        W34565  28.266  24.535   0.698
62141W        W34566   4.256  29.889   1.804
62142W        W34567  38.910  15.903   0.053
62143W        W34568  16.395  36.022   0.712
62144W        W34569  15.326   3.726  13.072
62145W        W34570  12.521  11.307   3.102
62146W        W34571  44.491   6.154  14.852
62147W        W34572  18.661  40.883  13.056
62148W        W34573  18.338   7.153  12.074
62149W        W34574   1.391   7.909  13.660
62150W        W34575  38.086  29.973  14.022
62151W        W34576  33.067  29.626  13.938
62152W        W34577  43.883   7.184   0.304
62153W        W34578  14.591  20.723  13.000
62154W        W34579  35.551  10.863   2.656
62155W        W34580   9.359   4.346  11.498
62156W        W34581  14.756  32.635   5.278
62157W        W34582  24.477  13.132   0.289
62158W        W34583  15.203   0.531   1.763
62159W        W34584  42.868  44.019  12.941
62160W        W34585   8.339  25.229  13.319
62161W        W34586  24.086  34.485  12.009
62162W        W34587  10.636  13.153  11.153
62163W        W34588  38.502  42.762   2.124
62164W        W34589  34.264  29.694  12.134
62165W        W34590  19.340   0.762  10.752
62166W        W34591  11.288  31.080   2.578
62167W        W34592  29.058  25.006   3.782
62168W        W34593  39.569  35.408  14.813
62169W        W34594  11.265   2.048  11.066
62170W        W34595  31.846  21.710   1.288
62171W        W34596  30.023  21.398   0.421
62172W        W34597  29.823  17.327   1.457
62173W        W34598  34.010  42.008   2.927
62174W        W34599  26.908  30.742  13.574
62175W        W34600  34.722  25.121  11.214
62176W        W34601  29.049  44.019  10.686
62177W        W34602   7.825  26.768   4.154
62178W        W34603   7.166  10.275  14.741
62179W        W34604   0.031  22.101  14.923
62180W        W34605   2.326  20.502   3.433
62181W        W34606  10.105  27.910  11.589
62182W        W34607   3.312   6.822   3.870
62183W        W34608  14.880  31.428   1.704
62184W        W34609  30.860   3.706  10.535
62185W        W34610  40.786  14.926  12.302
62186W        W34611   1.911  15.803   4.899
62187W        W34612  18.846  12.732  10.549
62188W        W34613  16.851  43.938  14.913
62189W        W34614   5.147  17.129  10.735
62190W        W34615   6.545  21.415   4.679
62191W        W34616   3.006  15.682   0.687
62192W        W34617  39.405  20.297  12.880
62193W        W34618  29.896  25.135   0.873
62194W        W34619  23.994   7.229   3.786
62195W        W34620  37.578  25.557  14.268
62196W        W34621  23.992  34.112  13.800
62197W        W34622  32.380   0.374  14.910
62198W        W34623   9.326  36.492  11.488
62199W        W34624  35.905   7.613  12.545
62200W        W34625  12.648   6.146  11.577
62201W        W34626  32.939  11.845  14.956
62202W        W34627   3.494  39.976  11.131
62203W        W34628  28.940  43.578   4.556
62204W        W34629  44.817  11.328   4.933
62205W        W34630  17.601   6.710  14.795
62206W        W34631  32.847  14.418   0.478
62207W        W34632   6.405  37.989   1.703
62208W        W34633  23.191  15.016  13.550
62209W        W34634   3.633  20.624  12.617
62210W        W34635  18.634  20.552  14.021
62211W        W34636   8.819  10.223   2.162
62212W        W34637  31.301  13.444   2.013
62213W        W34638  30.490  21.589  10.771
62214W        W34639  38.880  41.275  10.784
62215W        W34640  42.369  11.637   1.321
62216W        W34641  15.184  40.520  14.954
62217W        W34642   0.917  44.921   3.990
62218W        W34643  25.472  36.048   3.123
62219W        W34644  44.848  19.294   2.155
62220W        W34645  23.553  10.407   3.397
62221W        W34646  10.176  19.264  13.004
62222W        W34647  39.819  41.563   3.563
62223W        W34648   0.608  43.814   4.073
62224W        W34649  42.842  22.230   5.557
62225W        W34650   4.937  10.893   3.086
62226W        W34651  13.327  39.527   3.726
62227W        W34652  41.610   1.661   0.451
62228W        W34653  19.312  37.334  12.441
62229W        W34654  23.547  42.073  12.606
62230W        W34655  29.732  42.380  11.000
62231W        W34656   1.251  28.610  12.579
62232W        W34657  18.780  41.868  12.445
62233W        W34658  30.152  34.475   3.657
62234W        W34659  37.435   7.890   2.557
62235W        W34660  24.467  15.246  10.664
62236W        W34661  23.107  11.139  12.174
62237W        W34662  38.424   1.240  14.303
62238W        W34663  31.539  16.878   2.373
62239W        W34664   6.662  42.888   1.807
62240W        W34665  43.058  20.869   3.221
62241W        W34666  33.005  23.443   4.281
62242W        W34667  33.326  11.140  13.043
62243W        W34668   7.344  28.993  13.877
62244W        W34669  30.010   9.817   0.737
62245W        W34670  14.654  22.773   4.115
62246W        W34671  21.354  25.520  14.269
62247W        W34672  43.532  26.587  12.849
62248W        W34673  19.036  18.368   0.727
62249W        W34674  11.830  32.060  12.224
62250W        W34675  10.112  37.564  13.760
62251W        W34676  16.585  27.440  13.082
62252W        W34677  13.880  13.379   4.103
62253W        W34678  19.868   5.616   1.727
62254W        W34679   7.405   3.714  12.598
62255W        W34680  20.644  28.729   2.268
62256W        W34681  32.941  27.943  13.054
62257W        W34682  44.794  21.702   4.849
62258W        W34683  17.104  24.976  10.287
62259W        W34684  36.593  36.723   3.212
62260W        W34685   7.711   1.186  14.320
62261W        W34686  16.165  11.427   4.429
62262W        W34687   2.533  26.203  13.569
62263W        W34688  20.799  22.619   1.160
62264W        W34689  36.697   7.361   0.828
62265W        W34690  31.276  42.261   3.765
62266W        W34691  16.651  35.398  14.479
62267W        W34692   3.458  16.794   0.816
62268W        W34693  31.507  20.472   2.671
62269W        W34694   8.949   9.269  13.466
62270W        W34695  18.984  19.318  13.997
62271W        W34696  34.472   6.488   4.518
62272W        W34697   3.901  21.631   2.560
62273W        W34698  26.521  24.538  14.411
62274W        W34699   9.406   1.853   3.668
62275W        W34700  15.668   2.248  11.521
62276W        W34701  30.385  23.442   3.173
62277W        W34702  16.222  13.849   3.525
62278W        W34703   2.897   2.184  14.916
62279W        W34704  17.796  21.089  14.852
62280W        W34705  26.208  11.317   3.307
62281W        W34706  35.853   3.281   3.501
62282W        W34707  14.092  29.169   0.333
62283W        W34708  44.943  30.003   1.922
62284W        W34709   7.362  30.177   0.663
62285W        W34710  26.423  16.247   0.141
62286W        W34711  18.857  12.158  14.431
62287W        W34712   1.948  31.060   1.132
62288W        W34713  27.882   2.974   4.505
62289W        W34714   2.558  18.675   1.990
62290W        W34715  24.114  29.393  11.273
62291W        W34716  29.710  15.216  10.787
62292W        W34717  39.388   8.765  12.010
62293W        W34718  40.364   4.832   0.723
62294W        W34719   2.844  33.772   0.708
62295W        W34720  26.236   1.259   0.094
62296W        W34721   9.715  39.570  14.895
62297W        W34722  42.913  21.915   0.322
62298W        W34723  23.631  34.384   3.845
62299W        W34724  12.640  29.090   0.908
62300W        W34725   3.230  29.634  11.570
62301W        W34726   5.255  25.018  12.591
62302W        W34727  28.425  33.388  13.931
62303W        W34728  14.229  34.101  12.086
62304W        W34729  25.956  44.472  12.163
62305W        W34730  35.862   0.766   4.625
62306W        W34731  26.880  34.584   4.644
62307W        W34732  26.399  40.291  13.439
62308W        W34733  42.771  30.593  13.815
62309W        W34734  32.065   4.531   5.145
62310W        W34735  35.981  35.027   3.648
62311W        W34736  38.611  41.418   0.869
62312W        W34737  35.239  15.766   3.322
62313W        W34738  12.342   8.716  12.245
62314W        W34739   0.576  10.488  11.333
62315W        W34740  27.554   9.341  12.537
62316W        W34741  16.528  25.239   2.843
62317W        W34742  23.781  16.823   0.048
62318W        W34743   9.916  21.252   4.241
62319W        W34744  44.077   0.776  11.084
62320W        W34745  19.028  35.422   0.406
62321W        W34746   0.225   1.814   1.131
62322W        W34747   1.008  29.418  11.215
62323W        W34748  42.358  16.026   3.260
62324W        W34749  22.659  22.459  14.865
62325W        W34750   2.398  13.529  14.827
62326W        W34751  32.450  11.426  11.994
62327W        W34752  15.323  38.019   2.738
62328W        W34753  37.298   9.075  13.230
62329W        W34754  29.091  35.972  12.282
62330W        W34755  27.256  40.895   4.136
62331W        W34756   2.280  12.441   4.165
62332W        W34757  38.826  37.000   3.126
62333W        W34758  11.594  13.945  13.629
62334W        W34759  29.181  38.273  14.105
62335W        W34760   9.358  34.518  14.069
62336W        W34761   9.932  12.706   3.634
62337W        W34762  16.822  12.622  13.895
62338W        W34763   6.414  13.272   1.826
62339W        W34764  10.228   8.683  10.556
62340W        W34765  29.088  11.280  12.927
62341W        W34766  16.011  17.000  12.800
62342W        W34767   2.278  20.148  13.313
62343W        W34768   1.769  15.367  14.850
62344W        W34769  18.025  27.506   3.220
62345W        W34770  14.299  21.506  12.944
62346W        W34771  29.768   1.030  13.785
62347W        W34772   9.931  32.209  10.568
62348W        W34773   1.465  42.360  10.983
62349W        W34774   1.186  17.156  11.122
62350W        W34775  23.650  27.289   1.380
62351W        W34776  10.289   4.420   1.651
62352W        W34777  41.991  28.248   0.421
62353W        W34778  15.706  20.219  14.055
62354W        W34779  15.069  35.965  11.880
62355W        W34780  44.006   4.726   3.111
62356W        W34781  17.745   2.518  14.348
62357W        W34782  24.181   1.236   4.271
62358W        W34783  11.047  15.845   0.366
62359W        W34784  24.688   6.827  12.846
62360W        W34785  18.857  42.117  14.824
62361W        W34786  12.588  23.591  12.417
62362W        W34787  26.170  20.275  12.375
62363W        W34788  16.929  14.482  13.515
62364W        W34789  44.496  22.267  10.625
62365W        W34790  21.648  36.104   3.265
62366W        W34791   3.761   7.049   0.516
62367W        W34792  11.290  37.659   2.458
62368W        W34793   2.821   6.588   4.606
62369W        W34794  18.004  43.989   2.023
62370W        W34795  40.326  29.361   1.877
62371W        W34796   6.641  13.639   3.227
62372W        W34797  17.165  27.678   0.631
62373W        W34798  28.605  13.823   3.943
62374W        W34799  18.583  28.797  14.862
62375W        W34800  34.418  38.520  10.697
62376W        W34801  32.414  30.749   3.786
62377W        W34802  43.869  12.437  10.462
62378W        W34803  42.006  18.623   3.356
62379W        W34804  35.634  18.117  10.479
62380W        W34805  16.305   5.831   2.130
62381W        W34806   1.024  11.828   2.652
62382W        W34807  34.073   0.909  12.017
62383W        W34808   6.285  28.701  11.588
62384W        W34809  17.739   4.351  12.364
62385W        W34810  30.002  15.161   4.186
62386W        W34811   1.275  41.385  14.234
62387W        W34812  42.023  34.416  13.490
62388W        W34813   2.471  38.338   3.070
62389W        W34814  18.308   5.842  11.223
62390W        W34815  28.101  24.443  13.810
62391W        W34816  33.867  37.284  11.581
62392W        W34817  20.642  13.946   5.003
62393W        W34818   9.409  38.805   4.918
62394W        W34819  27.613  38.826  12.506
62395W        W34820   1.393  35.273   2.316
62396W        W34821  21.697  26.000   4.724
62397W        W34822  18.927   3.868   3.179
62398W        W34823  40.292  17.650  14.276
62399W        W34824  16.577  19.323  11.636
62400W        W34825  30.539  41.844   5.368
62401W        W34826  10.732  12.219  10.304
62402W        W34827  35.011  39.578   0.829
62403W        W34828  23.404  14.298  10.697
62404W        W34829  34.681  29.069   1.845
62405W        W34830  39.992  38.247  10.687
62406W        W34831  36.566  34.514   0.976
62407W        W34832  39.379  32.621   1.373
62408W        W34833  14.103  20.004  12.530
62409W        W34834  16.537   1.788   3.145
62410W        W34835  33.059   8.107  11.663
62411W        W34836  33.380  15.108  12.454
62412W        W34837  36.556   2.455  11.467
62413W        W34838  23.433   3.260  13.803
62414W        W34839  28.220   9.692   3.571
62415W        W34840  44.400  29.125  14.793
62416W        W34841  34.625  10.806  14.467
62417W        W34842  34.538  29.454  11.046
62418W        W34843  26.658   0.540  11.105
62419W        W34844  37.611  42.788   4.112
62420W        W34845  37.542  17.377  11.143
62421W        W34846   9.165   9.823   3.286
62422W        W34847  11.551   5.761  12.968
62423W        W34848  33.560   8.985   1.705
62424W        W34849  14.199  19.592   1.230
62425W        W34850  39.866  13.399  14.903
62426W        W34851  22.079   5.698   3.233
62427W        W34852   5.625   4.315  11.070
62428W        W34853   2.497  25.201  10.962
62429W        W34854  14.749  10.138  12.247
62430W        W34855  28.579  23.915  13.435
62431W        W34856  19.480  30.515  10.933
62432W        W34857   0.491  15.845   3.324
62433W        W34858  16.712   4.556   4.253
62434W        W34859  26.115   9.671  13.543
62435W        W34860   4.616   6.137   1.718
62436W        W34861  15.197  21.801  14.445
62437W        W34862  42.647  44.424  12.716
62438W        W34863  19.499  17.064  13.010
62439W        W34864   9.740  15.795   2.372
62440W        W34865   8.586  42.478   3.163
62441W        W34866  32.412   2.239  13.440
62442W        W34867  28.221   6.712  11.046
62443W        W34868  10.872   1.729   0.882
62444W        W34869  31.734  23.931   3.546
62445W        W34870  29.039  44.145  14.888
62446W        W34871  10.014  25.536  14.382
62447W        W34872   3.916  21.243   0.717
62448W        W34873  34.507  21.171   3.781
62449W        W34874  27.981  14.730   1.203
62450W        W34875  41.230  14.125   4.250
62451W        W34876  15.633   9.818   5.033
62452W        W34877  33.456  15.038   4.503
62453W        W34878  31.537  10.617   4.235
62454W        W34879  35.137   2.594  12.346
62455W        W34880  13.457  19.221   2.333
62456W        W34881  11.295   1.762   3.124
62457W        W34882  24.019  13.398  13.085
62458W        W34883  41.912  35.919  13.470
62459W        W34884  20.657  37.373  10.701
62460W        W34885  38.012  32.763  11.318
62461W        W34886  42.455  12.400  12.433
62462W        W34887  15.018  23.143   3.223
62463W        W34888  11.622  29.474   4.148
62464W        W34889   2.602  30.616  12.902
62465W        W34890  24.455  22.210  13.368
62466W        W34891  19.195  39.060  10.679
62467W        W34892  39.891   6.413  14.701
62468W        W34893  16.036  10.430   2.257
62469W        W34894  29.390  19.152   1.703
62470W        W34895  17.612  22.177   4.772
62471W        W34896  34.482  12.815   0.291
62472W        W34897  14.282   9.274   3.237
62473W        W34898  35.875  20.217  10.860
62474W        W34899  14.182  43.823  14.761
62475W        W34900  34.512   7.030   0.802
62476W        W34901  37.187  10.710  12.394
62477W        W34902  23.361  11.976  12.504
62478W        W34903  23.856  36.084   4.573
62479W        W34904  15.615  31.919  13.436
62480W        W34905  36.360   3.639   4.205
62481W        W34906  42.354  36.384  11.118
62482W        W34907   3.794   9.364   0.201
62483W        W34908  24.861  32.250   1.394
62484W        W34909  35.382  27.566  11.850
62485W        W34910  42.815  35.293   3.223
62486W        W34911  24.466  15.190   1.987
62487W        W34912  11.315  20.740   3.055
62488W        W34913  43.908   4.723   4.323
62489W        W34914  30.132   7.171  10.728
62490W        W34915  28.786  26.046   5.023
62491W        W34916  42.803  25.593  14.243
62492W        W34917   6.641  43.765  12.074
62493W        W34918   0.392  11.607   1.197
62494W        W34919  13.149   5.851   2.660
62495W        W34920   1.273  10.415  11.863
62496W        W34921   9.370  25.323  13.999
62497W        W34922   8.536  38.437  11.499
62498W        W34923  22.771  34.166  14.776
62499W        W34924  27.157  29.342  14.794
62500W        W34925  42.442  15.660  13.614
62501W        W34926  27.694   4.276  13.841
62502W        W34927  25.652  23.705   2.621
62503W        W34928  38.516   9.839  14.759
62504W        W34929  38.808  18.523  12.581
62505W        W34930   4.252  13.324  14.962
62506W        W34931  32.159  20.706  10.600
62507W        W34932   7.351  29.946   1.726
62508W        W34933  13.673  32.483  11.014
62509W        W34934   8.270   5.427   4.055
62510W        W34935  39.468  10.126  12.598
62511W        W34936   2.473  14.334   3.255
62512W        W34937  18.987   0.632  12.966
62513W        W34938   1.724   2.966  13.554
62514W        W34939  29.562  43.552   3.201
62515W        W34940   5.529   6.073  14.528
62516W        W34941  24.046  26.268  11.631
62517W        W34942   3.434  14.079   0.578
62518W        W34943  12.784   3.432   1.816
62519W        W34944   7.460  42.962  10.762
62520W        W34945  39.918  40.323   4.037
62521W        W34946  40.848   0.489   0.539
62522W        W34947  19.733   7.847  13.947
62523W        W34948   0.969  43.002  12.170
62524W        W34949  31.578  23.266   5.146
62525W        W34950   9.229   7.658   4.533
62526W        W34951  37.745  33.911  10.592
62527W        W34952  21.638   6.972   3.176
62528W        W34953  43.998  23.959  12.030
62529W        W34954  33.908  10.169  14.731
62530W        W34955  16.208  20.444   0.231
62531W        W34956  32.965  24.888  12.991
62532W        W34957   6.846   7.804  14.025
62533W        W34958  25.625  34.707  14.329
62534W        W34959  40.651  21.561   1.315
62535W        W34960  16.151  22.962  14.514
62536W        W34961   8.597   9.192  11.009
62537W        W34962   3.468  22.557  11.901
62538W        W34963  10.286  41.254   0.970
62539W        W34964   7.806  13.190   2.930
62540W        W34965  38.301  17.740  12.126
62541W        W34966  10.638   1.494   2.878
62542W        W34967  38.595  15.196  13.969
62543W        W34968   2.847   1.772   1.128
62544W        W34969  16.195   5.232  14.220
62545W        W34970   8.792  22.723   1.340
62546W        W34971  15.976  32.236  14.908
62547W        W34972  19.010  29.652  13.465
62548W        W34973   2.249   2.510   4.184
62549W        W34974   6.957  30.538   4.113
62550W        W34975  23.118  12.253   0.919
62551W        W34976  32.192  44.510   1.591
62552W        W34977   7.149   5.452   0.886
62553W        W34978  21.726   0.005   3.057
62554W        W34979  29.711   7.714   0.197
62555W        W34980  24.301   4.783   3.591
62556W        W34981  25.140   2.727  10.655
62557W        W34982  23.864   7.076  11.882
62558W        W34983   7.378  24.798  12.426
62559W        W34984   0.801   9.187   0.852
62560W        W34985  33.485   0.180  10.724
62561W        W34986  33.852  28.899   3.724
62562W        W34987   3.874  34.881  12.547
62563W        W34988  14.363  21.688  11.386
62564W        W34989  42.546  21.174   1.970
62565W        W34990  30.516  22.412   4.228
62566W        W34991  21.697  17.331   0.802
62567W        W34992  28.008   4.895   1.903
62568W        W34993  41.610   6.255  13.974
62569W        W34994  13.377  35.334   0.245
62570W        W34995  37.535   7.154  12.044
62571W        W34996  10.714  41.533   0.844
62572W        W34997  21.524  14.289   0.283
62573W        W34998  44.357  15.554  12.951
62574W        W34999  29.360  18.910  14.953
62575W        W35000  11.604  16.737   4.931
62576W        W35001   5.215  22.304  10.910
62577W        W35002   3.311   6.647   4.986
62578W        W35003  35.333   8.643  12.017
62579W        W35004  43.303  16.277   3.665
62580W        W35005   8.764  17.696   3.521
62581W        W35006   3.283  10.868  14.742
62582W        W35007  14.289  13.124  10.662
62583W        W35008  37.514  29.191  14.971
62584W        W35009  33.777  13.416   0.457
62585W        W35010   9.553   2.348   2.617
62586W        W35011  40.398  34.391   1.852
62587W        W35012  42.803  31.311  12.097
62588W        W35013   1.974  20.774  10.671
62589W        W35014  11.238  10.621   4.142
62590W        W35015  31.187  38.850  11.564
62591W        W35016  22.037  25.712  12.646
62592W        W35017  13.028  37.961  12.311
62593W        W35018  30.370  31.996   3.185
62594W        W35019   2.990  31.325  11.090
62595W        W35020  39.313  25.589   1.307
62596W        W35021  30.572  22.011  14.638
62597W        W35022  39.886  23.759   3.843
62598W        W35023  23.528  30.226  12.213
62599W        W35024  30.479  37.114  14.256
62600W        W35025  14.551  43.921   2.128
62601W        W35026  23.224   9.749   0.347
62602W        W35027  25.581  42.228   4.282
62603W        W35028  29.518  15.871   2.408
62604W        W35029  22.590   9.487   5.050
62605W        W35030  35.809  26.069   1.772
62606W        W35031   4.406   7.977  10.661
62607W        W35032  12.202  43.951   2.856
62608W        W35033  31.054  18.294  10.411
62609W        W35034  10.139  25.515   1.407
62610W        W35035  22.407  18.783   0.466
62611W        W35036  22.816  43.612  14.459
62612W        W35037  32.017  10.398   4.316
62613W        W35038  37.914   7.987  14.487
62614W        W35039  31.721  26.719  13.419
62615W        W35040  25.160  40.398   4.092
62616W        W35041  15.879  37.574  12.555
62617W        W35042  40.537   3.917  13.055
62618W        W35043  18.598  40.510  12.116
62619W        W35044   2.679   2.519   1.045
62620W        W35045  42.319  28.318   2.589
62621W        W35046  11.352  25.586   2.049
62622W        W35047  16.046  41.841  14.382
62623W        W35048   5.976  13.217  12.487
62624W        W35049  15.174  17.586  11.034
62625W        W35050   3.221   6.379  14.012
62626W        W35051   4.388  32.536  12.375
62627W        W35052   8.632  25.007  11.721
62628W        W35053  38.054   1.453  12.508
62629W        W35054  36.556  15.774   4.509
62630W        W35055  26.933  17.192  14.981
62631W        W35056   4.407  22.615  10.735
62632W        W35057  39.988  40.492  13.265
62633W        W35058  42.874   5.260  14.901
62634W        W35059  34.371  30.570  14.816
62635W        W35060   8.599  36.536   2.355
62636W        W35061  25.191  28.952  12.432
62637W        W35062  28.879  18.305   2.737
62638W        W35063  20.105   4.184   2.139
62639W        W35064   1.262  30.107  12.873
62640W        W35065  16.051   1.494   1.001
62641W        W35066   7.497  18.544   2.666
62642W        W35067  31.373  23.065  12.511
62643W        W35068   4.057   1.484  13.763
62644W        W35069  29.091  21.061   4.731
62645W        W35070   0.923   5.915   3.587
62646W        W35071  18.291   9.841  10.835
62647W        W35072  41.890  30.020   4.230
62648W        W35073  43.245  43.458   4.420
62649W        W35074   5.502  43.520   0.787
62650W        W35075  24.434   5.889  14.800
62651W        W35076   6.192  31.088   1.876
62652W        W35077  36.849  14.793   3.355
62653W        W35078  21.011  23.793  12.398
62654W        W35079  38.390  21.557  10.888
62655W        W35080   7.743  16.762   2.622
62656W        W35081   7.891  27.745   2.448
62657W        W35082   6.154  42.727   0.903
62658W        W35083   6.733  10.208   2.412
62659W        W35084  43.086  37.358   4.432
62660W        W35085  32.081  17.382  13.671
62661W        W35086  27.229   2.805   3.681
62662W        W35087  21.668  39.467   0.217
62663W        W35088  14.119  42.889   1.176
62664W        W35089  25.537  24.654   1.716
62665W        W35090  41.239  32.398  11.145
62666W        W35091  16.377  23.494   2.291
62667W        W35092  35.564  24.773  11.223
62668W        W35093  13.686  39.136  11.584
62669W        W35094  33.411  28.738  12.106
62670W        W35095   3.856  40.246  13.406
62671W        W35096  15.033   6.999   3.313
62672W        W35097  33.267  22.293  13.479
62673W        W35098  37.917  31.669  13.353
62674W        W35099  34.265   6.881   0.369
62675W        W35100  26.064  22.082  12.509
62676W        W35101  39.106  37.190   2.599
62677W        W35102  33.983  43.435  12.006
62678W        W35103  21.766   2.231   2.392
62679W        W35104   4.940  29.988   5.040
62680W        W35105  14.653  11.896   0.287
62681W        W35106   5.968  42.286   4.624
62682W        W35107  32.563   8.195  14.927
62683W        W35108  18.303  10.698  10.948
62684W        W35109  25.141   5.493  12.924
62685W        W35110  37.490  17.907  12.956
62686W        W35111  44.380  27.149  10.968
62687W        W35112  29.624  42.993   4.107
62688W        W35113   4.698  12.827   2.253
62689W        W35114  27.159  20.567  10.906
62690W        W35115   5.222   1.823  13.071
62691W        W35116   2.981  32.097  12.519
62692W        W35117  13.095  41.556   5.342
62693W        W35118  17.079   6.186   2.777
62694W        W35119  33.755  39.905   0.716
62695W        W35120  37.597  44.285  10.689
62696W        W35121  30.576  34.444  10.553
62697W        W35122  11.707   4.876  13.188
62698W        W35123  39.967   0.248   0.941
62699W        W35124  24.776   8.574   1.936
62700W        W35125  17.736   2.435  14.860
62701W        W35126  38.944  24.883   3.604
62702W        W35127   2.446  14.275   1.421
62703W        W35128   9.666   6.925   2.388
62704W        W35129  31.151  20.043  13.984
62705W        W35130  43.165  14.625   0.836
62706W        W35131  39.877  19.718   3.645
62707W        W35132  20.099  22.922  10.730
62708W        W35133   8.199  32.158  14.859
62709W        W35134  32.543   7.299   4.830
62710W        W35135  28.616  34.797   0.708
62711W        W35136  31.683  39.415  13.355
62712W        W35137  28.389  43.538  13.411
62713W        W35138  44.734  32.301  12.433
62714W        W35139  26.311  39.221   2.794
62715W        W35140  14.036  22.239  14.812
62716W        W35141   2.220  44.303  14.210
62717W        W35142  20.887  39.427  13.963
62718W        W35143   0.764  40.475  12.733
62719W        W35144  18.825  44.196  13.953
62720W        W35145  39.346   9.795  10.604
62721W        W35146  31.110  32.675   4.605
62722W        W35147  13.398  38.485   0.697
62723W        W35148  22.229  14.209   4.345
62724W        W35149  20.139   4.339   4.649
62725W        W35150  42.013   9.784   3.125
62726W        W35151  38.732  27.467  11.748
62727W        W35152  40.925  12.721   0.002
62728W        W35153   7.157  40.925  13.253
62729W        W35154  33.919  40.143  12.022
62730W        W35155  14.302  19.105   0.833
62731W        W35156  19.122  38.085  11.929
62732W        W35157   9.877   2.466  11.114
62733W        W35158  29.830  10.971  13.829
62734W        W35159  41.366  20.194   4.568
62735W        W35160  13.621  37.122  13.875
62736W        W35161  29.902  42.822   3.677
62737W        W35162  29.086  21.177   0.282
62738W        W35163   9.362  41.420   4.917
62739W        W35164  43.487  21.934   0.328
62740W        W35165  14.922   7.949  11.127
62741W        W35166  17.192   1.565   2.909
62742W        W35167  11.809  15.778  14.982
62743W        W35168  10.621  14.817  11.521
62744W        W35169  13.108  17.041   2.640
62745W        W35170  26.163  33.016  13.452
62746W        W35171  17.610   8.440  13.421
62747W        W35172   0.805   1.893  10.765
62748W        W35173  15.335  13.066  11.893
62749W        W35174  29.176  30.085  13.427
62750W        W35175  37.964  33.114   3.518
62751W        W35176  11.746  11.977   2.772
62752W        W35177  28.168   4.764  14.576
62753W        W35178  26.368  16.999  11.623
62754W        W35179  14.682  11.997   2.020
62755W        W35180  12.659  11.293  10.695
62756W        W35181  41.742   7.866  13.386
62757W        W35182  34.054  31.463  13.275
62758W        W35183  25.836  39.643   1.323
62759W        W35184   8.789  24.564  11.478
62760W        W35185   4.411   3.919  14.007
62761W        W35186   1.854  13.861  13.921
62762W        W35187  35.390  32.031  14.542
62763W        W35188  36.468  26.506  13.023
62764W        W35189  29.300   0.116   0.362
62765W        W35190   6.332  39.211  11.037
62766W        W35191  29.497  35.511   5.095
62767W        W35192   8.927  30.413  11.024
62768W        W35193  29.124  26.096  12.016
62769W        W35194  10.256  24.985   0.291
62770W        W35195  28.383  29.033  12.928
62771W        W35196  19.620  29.464   4.145
62772W        W35197   9.846  10.299   2.241
62773W        W35198   6.327  32.307  12.129
62774W        W35199  10.638  44.973   4.217
62775W        W35200  28.975  34.840   3.623
62776W        W35201  35.786  22.992  12.159
62777W        W35202  18.427  27.647  10.667
62778W        W35203  27.108   2.779  11.652
62779W        W35204  37.801  27.105  12.675
62780W        W35205  33.157  12.167   1.224
62781W        W35206   1.463  33.340  11.898
62782W        W35207  44.050  35.395   2.956
62783W        W35208  38.185  19.540   2.397
62784W        W35209   0.734  24.377   3.128
62785W        W35210  34.142  30.600  13.611
62786W        W35211  14.998  13.252   1.234
62787W        W35212   2.287  30.919  12.593
62788W        W35213  35.024  28.672  11.154
62789W        W35214  10.899  37.881   3.287
62790W        W35215  41.789   3.911   1.207
62791W        W35216  18.281  13.912  12.123
62792W        W35217  20.544  37.174  12.037
62793W        W35218  41.346  16.165  11.117
62794W        W35219  16.319  18.707   2.159
62795W        W35220   9.320  34.309  10.977
62796W        W35221  23.774  21.787   4.525
62797W        W35222  27.129  35.018  14.440
62798W        W35223  15.809   6.404  12.902
62799W        W35224   1.859   1.649   2.408
62800W        W35225  27.062  24.422   2.048
62801W        W35226  37.073  15.188  13.924
62802W        W35227  28.198  36.668  14.341
62803W        W35228  27.896  20.644  13.638
62804W        W35229  30.916   4.259   3.139
62805W        W35230  17.991  41.802   0.199
62806W        W35231  33.505  43.645  10.693
62807W        W35232  17.837  39.576  14.108
62808W        W35233  30.281  13.079  11.700
62809W        W35234   3.761  14.615   0.373
62810W        W35235  13.058  29.123  13.479
62811W        W35236  10.929  38.128   0.952
62812W        W35237  16.826  11.751  11.367
62813W        W35238  33.954  41.960   0.825
62814W        W35239  38.070  21.201   3.841
62815W        W35240  32.690  17.020   3.424
62816W        W35241  13.033  26.517   3.038
62817W        W35242  20.511   9.247   2.151
62818W        W35243  10.573  32.026   3.596
62819W        W35244  28.975  14.266   0.349
62820W        W35245  14.724  23.772  13.795
62821W        W35246   7.372  11.362   4.087
62822W        W35247  24.231  20.791   2.346
62823W        W35248  21.112   4.918  10.151
62824W        W35249   9.111   5.847  13.021
62825W        W35250  22.277  19.055   4.097
62826W        W35251  12.039  37.483  12.032
62827W        W35252   4.367  15.676  11.865
62828W        W35253  20.586   1.261   4.159
62829W        W35254  26.666  26.174  12.529
62830W        W35255  18.190  41.016   0.818
62831W        W35256  34.041  35.630  12.093
62832W        W35257  43.277  37.198  13.880
62833W        W35258  34.443  41.365   0.750
62834W        W35259   1.387  23.221  11.177
62835W        W35260  31.038  41.605  12.601
62836W        W35261  21.710  33.051  11.492
62837W        W35262  33.583  16.782   0.053
62838W        W35263   1.925  22.486  13.310
62839W        W35264  23.185   3.208   4.756
62840W        W35265   4.406  31.933   0.298
62841W        W35266  31.289  22.548  13.844
62842W        W35267   2.339  44.777   1.179
62843W        W35268   1.348  43.887   1.367
62844W        W35269  30.874   7.617  13.130
62845W        W35270  29.549  23.639  13.920
62846W        W35271  43.838  41.822  14.244
62847W        W35272   8.134   2.378   1.329
62848W        W35273  30.591  27.931   0.836
62849W        W35274  43.875   6.753   3.621
62850W        W35275   3.363  14.684   3.163
62851W        W35276   1.482  28.072   3.269
62852W        W35277  25.954  26.754  12.896
62853W        W35278  23.516  28.121   0.280
62854W        W35279   4.205  35.557   2.261
62855W        W35280   0.297   2.844   0.817
62856W        W35281   4.455   6.283   3.634
62857W        W35282  17.537  19.952  12.095
62858W        W35283  32.209   7.767  10.372
62859W        W35284  25.014  27.544  12.582
62860W        W35285  30.159  13.572  14.778
62861W        W35286  16.545  35.921  14.335
62862W        W35287  38.295  20.804   2.520
62863W        W35288   6.653  23.728  12.493
62864W        W35289  17.786  30.612   4.421
62865W        W35290  20.088  15.276  13.272
62866W        W35291  37.179  34.542   0.536
62867W        W35292  28.975  40.195  12.822
62868W        W35293  24.122  26.288   4.887
62869W        W35294  37.340  31.642  12.957
62870W        W35295  18.291  13.085  10.709
62871W        W35296  20.424  39.829  11.188
62872W        W35297  40.111  21.957  14.312
62873W        W35298  23.507  38.481  13.740
62874W        W35299  26.032  20.736   4.851
62875W        W35300  12.783  15.252   1.309
62876W        W35301  21.817  12.925   0.958
62877W        W35302  22.214  25.168   0.823
62878W        W35303   9.603  18.095  12.526
62879W        W35304  34.542  12.342   1.301
62880W        W35305   0.035  17.035   4.918
62881W        W35306  32.925  19.585   0.194
62882W        W35307  41.549  34.522   1.231
62883W        W35308  35.548   3.533  12.381
62884W        W35309  11.319  41.401  10.688
62885W        W35310  17.804  19.075  13.442
62886W        W35311  37.528  15.042   1.253
62887W        W35312   5.348  21.674   1.203
62888W        W35313  23.421   4.822  11.005
62889W        W35314  38.485  44.115  12.554
62890W        W35315   7.993  10.852  13.853
62891W        W35316  16.042  35.615   1.728
62892W        W35317  15.333   0.844  11.285
62893W        W35318  39.748  16.841  14.376
62894W        W35319   1.824  32.123   2.856
62895W        W35320  27.874   9.775   3.113
62896W        W35321   7.907  29.414   3.308
62897W        W35322  21.095  38.516   1.651
62898W        W35323  12.667  19.231  11.588
62899W        W35324  17.057  42.090   0.311
62900W        W35325   9.614  32.941   0.029
62901W        W35326   0.190  33.324  14.495
62902W        W35327  31.878  31.563  11.011
62903W        W35328  13.703  44.416  13.632
62904W        W35329  13.560   5.718  12.102
62905W        W35330  14.736  17.800  10.810
62906W        W35331  13.746  23.109   0.952
62907W        W35332   6.369   1.613   0.044
62908W        W35333   8.077  42.628   3.073
62909W        W35334   1.379   2.851  12.170
62910W        W35335   1.320  16.638   3.780
62911W        W35336  25.647  11.523  10.608
62912W        W35337  18.345  22.638  12.541
62913W        W35338  44.473  12.256   2.465
62914W        W35339  42.039  18.734   1.896
62915W        W35340  36.473   6.727   1.838
62916W        W35341   7.778  31.144   0.787
62917W        W35342  29.428  35.579  13.825
62918W        W35343  23.496   6.745  11.988
62919W        W35344  38.301  30.059   3.151
62920W        W35345  11.285  35.360  13.573
62921W        W35346   7.533  24.793  12.952
62922W        W35347  17.565  10.719  11.880
62923W        W35348  36.882  11.575  14.444
62924W        W35349   2.452   3.902  14.378
62925W        W35350  38.359  13.601  11.201
62926W        W35351  12.826  22.800  13.497
62927W        W35352  17.059  31.936  11.274
62928W        W35353  17.305  16.221   2.255
62929W        W35354  36.039  37.890  14.091
62930W        W35355  44.004  18.788   3.187
62931W        W35356  28.118  22.023  11.301
62932W        W35357   8.446  13.803  11.330
62933W        W35358   9.624  26.792  13.091
62934W        W35359   5.965  22.763  14.401
62935W        W35360  40.998  41.028  12.125
62936W        W35361   3.134  19.564   3.781
62937W        W35362   4.004  26.014   1.722
62938W        W35363  31.376  22.675   4.323
62939W        W35364  32.385  31.709  11.003
62940W        W35365  10.748  14.241   1.633
62941W        W35366   3.859  30.891  14.824
62942W        W35367  35.676  39.914   0.056
62943W        W35368  31.517   3.752   3.273
62944W        W35369  27.548   9.837  12.390
62945W        W35370  39.806  16.196   0.251
62946W        W35371   8.228   9.878   4.302
62947W        W35372  36.460  44.935   1.665
62948W        W35373  18.586  41.848   3.666
62949W        W35374   2.973  37.703   3.845
62950W        W35375  36.606  36.932  12.005
62951W        W35376   9.701   1.984  13.475
62952W        W35377  35.495  13.594  12.944
62953W        W35378  37.629  23.062   0.891
62954W        W35379  27.653  28.069  11.165
62955W        W35380  16.068  14.723   2.321
62956W        W35381  21.677  32.596  14.207
62957W        W35382  25.753   4.330  14.008
62958W        W35383  44.973  22.485  13.599
62959W        W35384  23.283  32.966   2.945
62960W        W35385  15.179  20.609   1.387
62961W        W35386  20.508  11.878   9.821
62962W        W35387  28.573   8.990  13.252
62963W        W35388  31.309  24.140  12.033
62964W        W35389  35.486  13.162   3.340
62965W        W35390  43.029  27.053  13.560
62966W        W35391  13.680  37.447  14.306
62967W        W35392  15.475   1.376  14.902
62968W        W35393   6.275  39.327  11.905
62969W        W35394  22.204  42.186   0.436
62970W        W35395  38.552  43.196  10.114
62971W        W35396  35.936   7.072  12.564
62972W        W35397  35.269  37.951   4.543
62973W        W35398  41.999   7.326   3.589
62974W        W35399  39.482   3.812  12.061
62975W        W35400  36.120  24.140  12.111
62976W        W35401  34.913   6.315  12.794
62977W        W35402  10.592  32.234   0.220
62978W        W35403   8.536  11.443   1.037
62979W        W35404  11.815  24.741  11.224
62980W        W35405   7.342   1.885   1.211
62981W        W35406  20.491  25.673   2.305
62982W        W35407  28.427  19.019  10.689
62983W        W35408  14.461  33.137  11.165
62984W        W35409  31.051  26.907   3.681
62985W        W35410  43.693  16.653   4.743
62986W        W35411   3.813  40.053  14.884
62987W        W35412  14.685  24.709  13.829
62988W        W35413   4.242  39.805   0.025
62989W        W35414   5.899  44.676  10.954
62990W        W35415   6.155   2.487  11.970
62991W        W35416  35.538   9.326   1.893
62992W        W35417  15.707  22.451   1.140
62993W        W35418   3.868  43.420   3.202
62994W        W35419  22.642  25.130   1.358
62995W        W35420  34.968  29.426   2.206
62996W        W35421  37.500  32.041  13.410
62997W        W35422  15.520   9.399   4.177
62998W        W35423  28.806  23.580  14.446
62999W        W35424  17.746  23.220   0.660
63000W        W35425  11.765  29.079   2.198
63001W        W35426  44.367  24.484  12.421
63002W        W35427   5.031  20.698  14.641
63003W        W35428  11.623   8.376   1.659
63004W        W35429  11.106  12.363  10.658
63005W        W35430  15.999  31.499   3.316
63006W        W35431  11.857  26.142  12.962
63007W        W35432   1.363  43.299   0.160
63008W        W35433  39.048  12.308  10.427
63009W        W35434  33.815  23.630   4.076
63010W        W35435  36.018   2.027  12.504
63011W        W35436   7.383  14.406  14.364
63012W        W35437  18.514  33.088  13.026
63013W        W35438  39.237   2.343   3.706
63014W        W35439  40.088  31.991  10.867
63015W        W35440  16.828   3.250  13.948
63016W        W35441  31.188  23.908   3.627
63017W        W35442  44.289   7.492   0.407
63018W        W35443  36.020  42.536   3.184
63019W        W35444  19.750   8.865   0.923
63020W        W35445  17.191  26.186   0.217
63021W        W35446  18.609  22.338   3.327
63022W        W35447  25.675   8.777  13.809
63023W        W35448  20.707  15.381   3.651
63024W        W35449  12.180  10.732   3.045
63025W        W35450  40.859  33.670   2.159
63026W        W35451   5.934  23.071   3.091
63027W        W35452  21.254  36.453  12.900
63028W        W35453  12.488  35.469  12.655
63029W        W35454  27.498  27.577  10.373
63030W        W35455  18.014  36.819   1.408
63031W        W35456  22.522  41.842  14.854
63032W        W35457  37.832  24.046  12.804
63033W        W35458  43.855  30.909   2.075
63034W        W35459  18.592   7.381  14.778
63035W        W35460  28.806   9.192   2.800
63036W        W35461  21.715   6.112   4.630
63037W        W35462  43.721  28.762  13.629
63038W        W35463   1.430  13.111  14.869
63039W        W35464  31.851  36.132   1.410
63040W        W35465  22.231   0.918   0.747
63041W        W35466  36.678  18.249   1.609
63042W        W35467  19.847  35.520   3.667
63043W        W35468  34.921  15.244  14.759
63044W        W35469   9.206  33.687   2.100
63045W        W35470  27.210  15.484   2.710
63046W        W35471  32.549  24.714   4.800
63047W        W35472  29.941  31.964  12.809
63048W        W35473  21.089   8.492  12.529
63049W        W35474  38.746  29.086   2.155
63050W        W35475  32.696  33.045   3.114
63051W        W35476  28.497  31.793   3.916
63052W        W35477  24.012  40.681   4.230
63053W        W35478  36.091   9.265  11.192
63054W        W35479  30.618   1.023   4.062
63055W        W35480  34.183   1.749   2.705
63056W        W35481  41.107  15.690  10.985
63057W        W35482  36.398   7.634   5.107
63058W        W35483   0.900   3.361   4.669
63059W        W35484  31.989  14.304  14.529
63060W        W35485  29.077  34.150   1.395
63061W        W35486  30.956  29.679   3.760
63062W        W35487  28.179  43.587   3.308
63063W        W35488   5.386  11.601  14.554
63064W        W35489  28.081  14.085   4.343
63065W        W35490  24.970   9.143   4.782
63066W        W35491   6.704  30.193  12.095
63067W        W35492  42.766  21.659  11.407
63068W        W35493   9.859  17.613  12.453
63069W        W35494  11.557   5.682  14.946
63070W        W35495  30.010  19.292   4.731
63071W        W35496  20.499  29.556  12.521
63072W        W35497  31.251  21.023   1.505
63073W        W35498  38.388  43.239   2.303
63074W        W35499   0.441   0.808  14.276
63075W        W35500  43.115   3.290   0.307
63076W        W35501  44.166   8.647  12.925
63077W        W35502  35.408   5.402  11.190
63078W        W35503  31.405  23.519  11.459
63079W        W35504  22.574  16.731  12.049
63080W        W35505  18.662  14.882  12.858
63081W        W35506   2.365  13.578   4.505
63082W        W35507  21.175  12.263  10.160
63083W        W35508  42.915  22.630   3.155
63084W        W35509  31.168  31.570  14.130
63085W        W35510  32.543  29.739  12.225
63086W        W35511   4.427  41.472   2.365
63087W        W35512   1.955  31.154   0.622
63088W        W35513  17.297  11.421  14.234
63089W        W35514   4.493  16.178  14.418
63090W        W35515  37.087   0.940   0.280
63091W        W35516   8.808  40.478  13.370
63092W        W35517  39.788  21.233  12.783
63093W        W35518  30.713  22.024   3.350
63094W        W35519  28.559   1.664  11.582
63095W        W35520  10.079   6.831  11.181
63096W        W35521  13.140   1.450  12.567
63097W        W35522  19.312   6.886   4.968
63098W        W35523   4.388   8.740   3.206
63099W        W35524   7.863   2.338  10.732
63100W        W35525  19.628  30.888   3.206
63101W        W35526  40.601  39.335   0.932
63102W        W35527  10.001  18.758  12.989
63103W        W35528  16.165  40.423  11.742
63104W        W35529  40.498  13.364   4.120
63105W        W35530   9.658   9.824  11.831
63106W        W35531  15.572  31.545  13.892
63107W        W35532  41.897  13.871  12.019
63108W        W35533  12.820  26.349   9.947
63109W        W35534  14.112  12.732   0.980
63110W        W35535  31.519  29.040  10.821
63111W        W35536  37.941  26.148   4.336
63112W        W35537   3.806   3.641  13.790
63113W        W35538   0.459  34.776   1.284
63114W        W35539  26.201  42.061   3.187
63115W        W35540  41.285   0.930  14.504
63116W        W35541   1.669  17.652  14.883
63117W        W35542  22.685   9.219   1.222
63118W        W35543  18.684  17.246   1.167
63119W        W35544  44.405  28.525   1.235
63120W        W35545  25.643  35.618   2.722
63121W        W35546  10.757  33.683   2.184
63122W        W35547  23.514  15.641   2.938
63123W        W35548  31.482   9.796  13.799
63124W        W35549  33.072  18.727  13.255
63125W        W35550  38.897  41.047  12.599
63126W        W35551  22.381   6.229  14.131
63127W        W35552  30.165   7.091   1.844
63128W        W35553   5.520  29.495   1.822
63129W        W35554  26.902   3.251   3.613
63130W        W35555   4.981   6.675   0.595
63131W        W35556   3.829  11.399  14.847
63132W        W35557  28.460  20.053  10.898
63133W        W35558  29.138   4.454  12.032
63134W        W35559  40.070   2.362  12.480
63135W        W35560   7.832  22.260   2.838
63136W        W35561  40.241  21.406  12.966
63137W        W35562  33.583  31.079  12.634
63138W        W35563  41.326   1.697  10.735
63139W        W35564  43.818   8.359   1.415
63140W        W35565  32.418  16.532   2.834
63141W        W35566  28.548  11.090  11.853
63142W        W35567   6.465  39.051  14.784
63143W        W35568  20.032  19.493  11.189
63144W        W35569  22.654  39.992  11.670
63145W        W35570  26.694  22.315   0.776
63146W        W35571  43.700  16.993  13.392
63147W        W35572  35.089   7.154   2.294
63148W        W35573  18.079   1.910   2.083
63149W        W35574  11.503  40.309   2.112
63150W        W35575   0.900  33.069  11.037
63151W        W35576  36.013  21.919  12.263
63152W        W35577  26.047   4.240  12.145
63153W        W35578  21.313  43.711  11.483
63154W        W35579  38.829  20.672   0.359
63155W        W35580  22.415  30.297  13.565
63156W        W35581  16.332  10.491  12.508
63157W        W35582  39.878  10.406   1.872
63158W        W35583  38.902  11.356  10.790
63159W        W35584   6.465  39.524   4.532
63160W        W35585  15.864   1.140  11.911
63161W        W35586  14.540   8.997  11.589
63162W        W35587  30.743  18.626   0.820
63163W        W35588  18.987  12.599  12.974
63164W        W35589  26.809   0.212   2.994
63165W        W35590   4.350  11.866   1.375
63166W        W35591  35.154  15.682  14.923
63167W        W35592  26.506  39.085  11.149
63168W        W35593   6.648  42.971  13.967
63169W        W35594  37.117  13.704   2.587
63170W        W35595  20.416  18.097   1.744
63171W        W35596   4.732  22.427   2.453
63172W        W35597   5.519  10.735   0.160
63173W        W35598  26.163  12.200  11.397
63174W        W35599  30.930  25.769   3.169
63175W        W35600  26.739  30.298   1.751
63176W        W35601  33.463   3.672  13.956
63177W        W35602   0.209  29.986   3.726
63178W        W35603  26.769   0.833  14.989
63179W        W35604  38.975  19.110   0.101
63180W        W35605  10.729  19.641  14.497
63181W        W35606   8.334  34.598   2.864
63182W        W35607  17.264   9.636  12.339
63183W        W35608  21.195   5.232   2.989
63184W        W35609  34.629  38.385  14.830
63185W        W35610  28.147   4.999   2.409
63186W        W35611  11.600  20.675  11.966
63187W        W35612  26.019  20.081   3.052
63188W        W35613  18.730  20.638   0.465
63189W        W35614  39.633  34.644  11.973
63190W        W35615   1.737   0.350   1.282
63191W        W35616   5.451  22.048   3.589
63192W        W35617  38.406  34.531   1.316
63193W        W35618  39.934   0.772   4.334
63194W        W35619  39.569  35.418  12.529
63195W        W35620  33.558   8.139  11.441
63196W        W35621  25.644  32.101   2.068
63197W        W35622   1.861  24.166   0.255
63198W        W35623  23.205  34.390  14.596
63199W        W35624  18.129  33.669  11.476
63200W        W35625   8.625  18.641   3.672
63201W        W35626  12.815   5.132   3.532
63202W        W35627  40.478  15.723   1.368
63203W        W35628  10.651  23.717  13.900
63204W        W35629   8.154  34.540  11.969
63205W        W35630  27.624  14.341   3.196
63206W        W35631  28.218  31.546   3.540
63207W        W35632  43.048  21.383  11.080
63208W        W35633  32.063  18.480  11.172
63209W        W35634   0.956   3.283  13.940
63210W        W35635  41.220   2.334   4.523
63211W        W35636   1.305  43.557   2.730
63212W        W35637  17.143  40.914   0.994
63213W        W35638  34.948  43.701  11.143
63214W        W35639   5.499  28.220  13.187
63215W        W35640  17.323  44.486   0.323
63216W        W35641  24.115  10.642   0.212
63217W        W35642   6.177  12.289  12.963
63218W        W35643  14.122  14.053  13.408
63219W        W35644  17.417  21.302  10.829
63220W        W35645  35.006  24.734   4.663
63221W        W35646  11.304  33.166   1.420
63222W        W35647   1.420  18.179   0.474
63223W        W35648   2.107   9.089  12.069
63224W        W35649  17.032  32.538  14.274
63225W        W35650   2.847  21.578   0.320
63226W        W35651   1.070   6.034  12.855
63227W        W35652  15.631  16.577   2.328
63228W        W35653  43.576   0.712  11.070
63229W        W35654  28.031  14.019   2.838
63230W        W35655  33.223   5.876  13.244
63231W        W35656  34.462  35.305   0.728
63232W        W35657   8.432   6.705   2.838
63233W        W35658  36.856  43.825  14.336
63234W        W35659   8.419  16.332   1.300
63235W        W35660  27.509  17.121  13.089
63236W        W35661  37.170   1.195   3.856
63237W        W35662  42.627  26.769   3.633
63238W        W35663   3.181   2.417   0.856
63239W        W35664  28.945  38.557   3.675
63240W        W35665  43.729  11.271   1.633
63241W        W35666  13.676  21.163   3.117
63242W        W35667  36.055  28.558  10.938
63243W        W35668  38.070  29.368   2.903
63244W        W35669  43.545  26.292   3.655
63245W        W35670  18.667  10.887   0.972
63246W        W35671  27.590  17.700  11.568
63247W        W35672   5.920  13.655   3.805
63248W        W35673  44.422  38.796   3.044
63249W        W35674  37.771  11.664   2.239
63250W        W35675  28.950  19.068   3.916
63251W        W35676  40.874  22.253   1.304
63252W        W35677  38.449  40.973  14.431
63253W        W35678   7.469   7.393  10.671
63254W        W35679  14.706  28.059  13.113
63255W        W35680  22.667  28.938  14.854
63256W        W35681  10.751  32.614  12.773
63257W        W35682  30.443  40.254  10.627
63258W        W35683  35.022   3.035  12.096
63259W        W35684  18.188  26.551  14.234
63260W        W35685   0.282  35.158  12.861
63261W        W35686   9.926   4.563  12.322
63262W        W35687  34.963  28.212   1.795
63263W        W35688  14.356  35.284   5.135
63264W        W35689  38.076  44.183  10.992
63265W        W35690  29.790   6.283   5.104
63266W        W35691  10.112   8.407   2.288
63267W        W35692  12.562  25.644   9.541
63268W        W35693  19.842  44.529   4.572
63269W        W35694  16.781  28.891   3.783
63270W        W35695   5.922  14.715  12.848
63271W        W35696  41.233   7.657   0.392
63272W        W35697  43.836  10.291   0.458
63273W        W35698  38.454   8.696   1.714
63274W        W35699  11.782  32.019   2.475
63275W        W35700   7.796   8.139  12.155
63276W        W35701  34.422  25.566   3.415
63277W        W35702  40.522   6.527  12.970
63278W        W35703  17.066  28.452   3.780
63279W        W35704  44.500  31.350  13.276
63280W        W35705  24.694  17.527   4.084
63281W        W35706  36.384  13.701  13.384
63282W        W35707   3.206   1.719   1.994
63283W        W35708  26.157  19.028  12.831
63284W        W35709  15.788  28.579  14.476
63285W        W35710  14.078  17.934  12.608
63286W        W35711   4.258  39.925  13.524
63287W        W35712  13.558  39.334   3.301
63288W        W35713  20.179  27.067   0.091
63289W        W35714  41.803  41.985  11.089
63290W        W35715  21.647  42.406  14.275
63291W        W35716  43.528   7.773  13.419
63292W        W35717  33.621   9.886   1.720
63293W        W35718   5.284  20.079   0.167
63294W        W35719  21.638  41.056  14.718
63295W        W35720  34.929  37.629   4.173
63296W        W35721  38.601  17.631   4.274
63297W        W35722  44.543  42.513  11.447
63298W        W35723   8.787   2.924  12.444
63299W        W35724  44.239   4.705  13.999
63300W        W35725  14.650  36.658  13.904
63301W        W35726   1.359   4.479  11.405
63302W        W35727  25.472  17.119   0.823
63303W        W35728  11.831  22.112  10.436
63304W        W35729  41.832   3.000  13.409
63305W        W35730  20.498  20.516   0.004
63306W        W35731   6.586  24.746  12.526
63307W        W35732  10.205  37.460   2.211
63308W        W35733  14.586  41.812   4.271
63309W        W35734  32.587   7.291   0.891
63310W        W35735  16.642  35.400  11.423
63311W        W35736  31.936  35.494   2.435
63312W        W35737  26.178  14.344  12.717
63313W        W35738  32.912  34.323  13.865
63314W        W35739  13.863  21.170  11.565
63315W        W35740  14.673  19.787   1.415
63316W        W35741  43.010  27.026   1.390
63317W        W35742   7.262   9.857   4.898
63318W        W35743  19.720  42.072   4.270
63319W        W35744   9.163  39.923  11.245
63320W        W35745   6.869  30.150  13.866
63321W        W35746  30.855  13.770   3.808
63322W        W35747  43.730   1.954   0.643
63323W        W35748  19.522  21.561   0.691
63324W        W35749  31.109  43.842   4.250
63325W        W35750  35.308  32.593  13.285
63326W        W35751  40.081  35.090  14.466
63327W        W35752  14.795  13.886   0.408
63328W        W35753  37.879  20.226   4.594
63329W        W35754  15.478  43.427   0.260
63330W        W35755   1.079  43.290  11.623
63331W        W35756  34.565  30.397  13.397
63332W        W35757  22.775  15.592   1.276
63333W        W35758  31.166  12.471  12.512
63334W        W35759  39.678  27.640  11.494
63335W        W35760  10.795   1.393  12.981
63336W        W35761   4.491  42.710  14.354
63337W        W35762   2.869   8.431  14.473
63338W        W35763  24.611   9.837   0.359
63339W        W35764   5.749   0.972  10.646
63340W        W35765   4.435   9.752   3.156
63341W        W35766  34.405   9.089   0.804
63342W        W35767  30.636  39.962  12.018
63343W        W35768  27.680  18.558  11.687
63344W        W35769   5.993  21.516  11.903
63345W        W35770  29.882  16.593   0.710
63346W        W35771   6.980  37.428  11.529
63347W        W35772  12.625  17.258   4.118
63348W        W35773   4.423  11.025  13.246
63349W        W35774  29.366   0.037   4.162
63350W        W35775  40.492  32.532   2.292
63351W        W35776  27.704  34.327   0.441
63352W        W35777  18.042  42.792   1.361
63353W        W35778  38.461  17.122   0.755
63354W        W35779   8.710  10.623  13.274
63355W        W35780  26.248   3.486  12.865
63356W        W35781   1.020  22.978   2.501
63357W        W35782  33.585  18.919  14.438
63358W        W35783  41.774  37.555  10.235
63359W        W35784  19.453  24.086  12.492
63360W        W35785   0.216  26.380   0.792
63361W        W35786   0.299   4.172  12.005
63362W        W35787  38.855   6.934  12.023
63363W        W35788   4.180  26.997  11.997
63364W        W35789  39.751  14.763  11.564
63365W        W35790  18.618  40.236  11.688
63366W        W35791  10.818  38.381  10.753
63367W        W35792  20.116  37.466   3.717
63368W        W35793   0.594  19.774   1.843
63369W        W35794  39.010  41.966   3.605
63370W        W35795  30.476   1.055   1.778
63371W        W35796  21.841  12.902   2.210
63372W        W35797   5.919   4.823  12.948
63373W        W35798  31.594  36.269   0.949
63374W        W35799  26.527   1.488  13.007
63375W        W35800  18.263  14.089  14.854
63376W        W35801  43.355  28.714  12.838
63377W        W35802  37.534  43.917   3.640
63378W        W35803  26.461  27.095  13.660
63379W        W35804  29.752   8.263  12.533
63380W        W35805  26.152  23.407  13.916
63381W        W35806  14.736  36.358  12.569
63382W        W35807  12.778  36.149   3.530
63383W        W35808  19.271  36.447   4.555
63384W        W35809  23.381  20.803  12.654
63385W        W35810   5.953  44.297  13.534
63386W        W35811  20.542   1.744  11.599
63387W        W35812  21.729   3.138   1.710
63388W        W35813   9.158  42.697   1.801
63389W        W35814   1.415   4.112  11.068
63390W        W35815  13.193  29.987   4.611
63391W        W35816  35.128  18.107  13.161
63392W        W35817  41.139  42.781   4.076
63393W        W35818  16.166  23.953   2.396
63394W        W35819  27.051  17.269   4.756
63395W        W35820  40.465  32.860   4.525
63396W        W35821  17.572   7.683  11.526
63397W        W35822  23.802  16.147   1.769
63398W        W35823  43.002  38.592  11.633
63399W        W35824  21.694  44.028  13.112
63400W        W35825  34.904  30.586   1.557
63401W        W35826  36.323  32.339  14.357
63402W        W35827  27.427  17.229   0.031
63403W        W35828  33.812   7.432   2.259
63404W        W35829   1.175  36.054   2.233
63405W        W35830  20.360  31.695  13.022
63406W        W35831  16.025  25.434  11.533
63407W        W35832  33.840  19.029   3.690
63408W        W35833  26.870  19.286   2.570
63409W        W35834  22.930   8.258   4.618
63410W        W35835  39.774  33.939   2.226
63411W        W35836  22.631  10.680   2.953
63412W        W35837  35.447  16.828   2.925
63413W        W35838  17.718  40.348   0.075
63414W        W35839  38.827  23.895   0.042
63415W        W35840   5.698   6.328  13.464
63416W        W35841  41.070  30.595   4.162
63417W        W35842  17.476  34.474  13.285
63418W        W35843  39.619  25.106  11.925
63419W        W35844  27.966  12.401   0.435
63420W        W35845  43.105  20.568   0.014
63421W        W35846   1.662   0.925   2.931
63422W        W35847  32.391  16.716  13.588
63423W        W35848  44.490  33.142   4.099
63424W        W35849   5.871  39.619  13.917
63425W        W35850  19.784   0.342   1.571
63426W        W35851  43.381   3.750   4.901
63427W        W35852   4.290  20.206  14.754
63428W        W35853  13.134  11.730   3.680
63429W        W35854  41.311  11.093  14.875
63430W        W35855  13.619   9.782  10.368
63431W        W35856  39.432  44.143  12.691
63432W        W35857  42.597  27.539  12.740
63433W        W35858  14.809  41.797  14.085
63434W        W35859  41.582  13.765   1.317
63435W        W35860  39.886  44.520  12.138
63436W        W35861  10.661  41.873  12.401
63437W        W35862  24.225  41.042  14.124
63438W        W35863  12.237  31.524  11.234
63439W        W35864   3.482  20.024   4.847
63440W        W35865  25.177  23.654  13.945
63441W        W35866  43.066  13.150   4.073
63442W        W35867  33.976   6.162   0.118
63443W        W35868  25.935   8.163  12.037
63444W        W35869   1.772  36.370  10.530
63445W        W35870   9.162   2.831   4.335
63446W        W35871  12.703  14.358  12.108
63447W        W35872  22.821  12.503   5.133
63448W        W35873   4.377  29.664  11.143
63449W        W35874  42.884  21.826   4.808
63450W        W35875  36.998  43.545  12.061
63451W        W35876  17.535  16.299  13.069
63452W        W35877  14.564  35.322  11.256
63453W        W35878  27.988  44.520  14.339
63454W        W35879  43.894   8.403  11.570
63455W        W35880   1.419  25.519  14.976
63456W        W35881   2.854  37.806  11.961
63457W        W35882   8.865  24.066   0.977
63458W        W35883  15.682  24.898   4.134
63459W        W35884  39.780  26.556   4.657
63460W        W35885   7.650  41.362   0.474
63461W        W35886  33.862   7.220   4.456
63462W        W35887   9.932   3.021   3.251
63463W        W35888  22.523   6.752   2.279
63464W        W35889  13.651  27.568  11.699
63465W        W35890  36.987  21.983  14.407
63466W        W35891  16.194  37.727   0.279
63467W        W35892  33.388  32.433   4.128
63468W        W35893  13.541  33.670   2.268
63469W        W35894  39.301  39.346   2.176
63470W        W35895  35.525  15.762   4.668
63471W        W35896  11.911  35.524   4.260
63472W        W35897  38.855  31.724  13.310
63473W        W35898  27.172  20.201  10.544
63474W        W35899   9.738   8.174  11.765
63475W        W35900  43.841   0.055   3.220
63476W        W35901   4.818   0.014   3.319
63477W        W35902  15.657   7.858   3.698
63478W        W35903  28.552   3.385   0.740
63479W        W35904   9.709  11.616  11.455
63480W        W35905  41.113   0.027   2.734
63481W        W35906   4.208  37.128   2.317
63482W        W35907   5.515  19.132   3.773
63483W        W35908   5.921  15.112   4.645
63484W        W35909  25.743  27.112   3.126
63485W        W35910  14.843   3.387  13.920
63486W        W35911  18.093  10.939   1.501
63487W        W35912   5.577  29.678   0.460
63488W        W35913  23.102  15.774   0.736
63489W        W35914  17.129  33.459  13.878
63490W        W35915  42.283  41.534   3.274
63491W        W35916  34.579  24.737   1.718
63492W        W35917  41.524  14.274   1.358
63493W        W35918   6.306  33.730   0.001
63494W        W35919  21.410  28.920  11.547
63495W        W35920  30.958  26.139   0.238
63496W        W35921  44.490   1.385   4.909
63497W        W35922  31.006  43.351  10.596
63498W        W35923  32.069  25.674  13.091
63499W        W35924  33.561  29.927  12.496
63500W        W35925  12.570  21.974   2.968
63501W        W35926  43.334  42.506  12.052
63502W        W35927   6.364  25.644   4.829
63503W        W35928  30.449  24.209   3.591
63504W        W35929   8.717  14.344   3.323
63505W        W35930  43.503   7.852  10.931
63506W        W35931  32.711  36.101  13.819
63507W        W35932  30.866  36.590  14.031
63508W        W35933   3.816  30.085  13.306
63509W        W35934  32.867  40.935  10.259
63510W        W35935   1.472   0.327  13.840
63511W        W35936  29.722  22.464  10.722
63512W        W35937  41.786  42.233   3.202
63513W        W35938  33.661  25.575   4.591
63514W        W35939  26.452  42.312  14.271
63515W        W35940  16.696   3.123  11.629
63516W        W35941  12.902   9.116  11.134
63517W        W35942  38.428  42.457  13.497
63518W        W35943   2.522  14.329   0.058
63519W        W35944  39.850   2.405  13.774
63520W        W35945  24.738   8.139  11.127
63521W        W35946  14.366  19.758  11.140
63522W        W35947  20.945  16.643   0.037
63523W        W35948  11.645  10.631   2.267
63524W        W35949   9.072   7.618  11.230
63525W        W35950  32.336   1.485  10.510
63526W        W35951   9.072  15.552   3.013
63527W        W35952   4.764  23.421  12.453
63528W        W35953   4.256  26.692  13.807
63529W        W35954  42.229  35.830  14.379
63530W        W35955   6.811  44.849  14.486
63531W        W35956  26.990  38.661  14.658
63532W        W35957  26.387   7.678   3.394
63533W        W35958  19.660  27.389  12.581
63534W        W35959  17.799   3.105   4.935
63535W        W35960   5.415  16.048   0.282
63536W        W35961  19.670  21.439   1.722
63537W        W35962   2.676   1.706  13.892
63538W        W35963  31.579   1.332   0.391
63539W        W35964  28.961  14.920  11.159
63540W        W35965  10.574  36.538   4.128
63541W        W35966  41.697  19.767  11.074
63542W        W35967  40.792  22.298   0.238
63543W        W35968  20.538  36.847   0.930
63544W        W35969  24.111   6.942   0.932
63545W        W35970  33.123  17.605   0.908
63546W        W35971   4.360  29.561   4.507
63547W        W35972  28.151  44.155   1.695
63548W        W35973  10.168   1.315   0.766
63549W        W35974   1.996  30.075   1.778
63550W        W35975  29.919  41.472   3.787
63551W        W35976  30.336  30.558  12.014
63552W        W35977  43.323  19.671  14.508
63553W        W35978  31.952  39.414   1.741
63554W        W35979  37.266  19.820  13.257
63555W        W35980  41.738   0.676   1.732
63556W        W35981  22.378  43.876   1.771
63557W        W35982  22.620  13.080  10.620
63558W        W35983   4.840  14.128  10.876
63559W        W35984   5.565   0.355  12.703
63560W        W35985  10.631   6.730   2.153
63561W        W35986  19.091  40.861  13.352
63562W        W35987  31.118  33.524   4.950
63563W        W35988  17.754  10.611   1.260
63564W        W35989  44.866   6.358   3.872
63565W        W35990  44.349  34.364  14.990
63566W        W35991   4.736  27.968  11.835
63567W        W35992  14.020  33.447   2.188
63568W        W35993  44.495  21.605  13.565
63569W        W35994  18.412   1.417   1.274
63570W        W35995  39.006  40.016  11.679
63571W        W35996   1.547  24.545  13.318
63572W        W35997  41.077  32.854  14.049
63573W        W35998  32.106  32.982  13.918
63574W        W35999  36.045  43.830  14.731
63575W        W36000  33.991  41.553   3.614
63576W        W36001   7.579  33.975  13.377
63577W        W36002  36.333  26.759   2.514
63578W        W36003  21.737  22.114  13.505
63579W        W36004  20.969  37.600   2.170
63580W        W36005  14.623  30.138   3.726
63581W        W36006  25.160  38.581   0.730
63582W        W36007  15.456  37.980  12.583
63583W        W36008   7.273  28.879   1.719
63584W        W36009  40.205  20.502   5.299
63585W        W36010  28.662  32.946  11.806
63586W        W36011  39.399  27.657  14.783
63587W        W36012  23.258  28.317  14.276
63588W        W36013  35.453  15.593   1.823
63589W        W36014  32.204   5.344  11.494
63590W        W36015  18.299  36.333  10.932
63591W        W36016   2.280   5.161  10.677
63592W        W36017  12.205   9.419  12.951
63593W        W36018  31.521  32.633  10.744
63594W        W36019  27.472  27.115   2.450
63595W        W36020  38.959   8.232  13.495
63596W        W36021  22.692   1.779   3.173
63597W        W36022  15.090  38.817  14.371
63598W        W36023  35.065  33.541   3.296
63599W        W36024  32.407  21.179  13.769
63600W        W36025  25.459  43.022   1.108
63601W        W36026  23.023   9.862  11.545
63602W        W36027   9.203  17.049   0.339
63603W        W36028  26.485   5.833   1.760
63604W        W36029  21.172  41.734  14.940
63605W        W36030  10.354   7.674  10.703
63606W        W36031   3.186  32.572  13.433
63607W        W36032  21.704  42.927   0.061
63608W        W36033  22.448  19.939   3.627
63609W        W36034  31.044  40.602   3.296
63610W        W36035  41.934  20.859  13.504
63611W        W36036  29.575  28.936  12.667
63612W        W36037  32.894  36.539  10.659
63613W        W36038  12.644  30.061  13.291
63614W        W36039   8.147  26.162   2.593
63615W        W36040  25.748  42.835  14.321
63616W        W36041  42.327  22.521   5.109
63617W        W36042  17.284  39.893  11.927
63618W        W36043  35.835  34.484  13.939
63619W        W36044  28.679   5.710  13.447
63620W        W36045  41.772  37.919   0.849
63621W        W36046  32.087  36.590   1.310
63622W        W36047  26.930  26.937   3.866
63623W        W36048  40.350  17.791  11.491
63624W        W36049   7.867  15.302  13.017
63625W        W36050   4.796  30.915   1.250
63626W        W36051  28.033  30.168  12.435
63627W        W36052   8.666  13.280   5.453
63628W        W36053  27.040  37.724   2.287
63629W        W36054   2.959  34.064   1.726
63630W        W36055  33.002  37.208   4.168
63631W        W36056   9.282  39.459  14.653
63632W        W36057   6.915  26.434  13.139
63633W        W36058  28.703  12.688   1.664
63634W        W36059  25.678  35.931   2.174
63635W        W36060   5.925  26.392   3.791
63636W        W36061   3.150  13.821  14.280
63637W        W36062  23.785   6.246   3.095
63638W        W36063   8.934  24.819   1.271
63639W        W36064  12.818  21.002  14.318
63640W        W36065  18.295  13.107   2.326
63641W        W36066  16.298   9.431  13.449
63642W        W36067  25.511   7.154   2.310
63643W        W36068  21.554   0.906   3.933
63644W        W36069  10.964  29.484  13.311
63645W        W36070  38.834   4.210   1.809
63646W        W36071  27.178  40.977   3.302
63647W        W36072  28.642  11.154  11.365
63648W        W36073  20.512  28.430  12.438
63649W        W36074  41.675  35.002  14.505
63650W        W36075  24.006  30.655  14.334
63651W        W36076  12.804  23.922   5.102
63652W        W36077   9.999  33.525  10.773
63653W        W36078  26.114  14.091   2.714
63654W        W36079  29.460  21.730  10.176
63655W        W36080   7.185   2.419  11.386
63656W        W36081  27.082  29.501  11.360
63657W        W36082  26.571  11.732  10.900
63658W        W36083  17.188  10.096   4.506
63659W        W36084  36.024  16.271  10.723
63660W        W36085  43.818  42.632   2.346
63661W        W36086  34.081  29.436  11.760
63662W        W36087  17.342  35.296   4.819
63663W        W36088  15.113  40.486  14.019
63664W        W36089  18.198  11.737  10.764
63665W        W36090  34.916  28.352   4.748
63666W        W36091   9.847  12.638   0.428
63667W        W36092  11.486  19.649   2.206
63668W        W36093  21.006  30.542   0.724
63669W        W36094  27.031  18.525  14.797
63670W        W36095  38.586  34.108   1.562
63671W        W36096  21.966  33.227   1.903
63672W        W36097  27.985  38.895   1.223
63673W        W36098  20.685  42.427   1.783
63674W        W36099  44.545  14.411   3.605
63675W        W36100  20.263  32.134   3.225
63676W        W36101   3.967   2.549  11.597
63677W        W36102  17.908  32.433  10.198
63678W        W36103  35.575  30.117   4.982
63679W        W36104  31.683  43.501  11.074
63680W        W36105  22.735  39.521  11.257
63681W        W36106  24.167  15.576   5.010
63682W        W36107  30.816  36.667   0.003
63683W        W36108  26.074   5.204  13.670
63684W        W36109   6.722  17.858   4.170
63685W        W36110  38.763  44.023  14.017
63686W        W36111  35.946  14.331   4.197
63687W        W36112  42.967  37.466   2.339
63688W        W36113  41.377   9.162   1.935
63689W        W36114   9.634  29.573   1.450
63690W        W36115  35.632   8.901   9.737
63691W        W36116  36.268  18.361  11.600
63692W        W36117  30.951  22.745   2.604
63693W        W36118  31.981  44.802   2.421
63694W        W36119  14.018  31.656   1.639
63695W        W36120   2.500  40.319   2.732
63696W        W36121   6.171  22.875   4.106
63697W        W36122  20.187  32.039   1.317
63698W        W36123  11.651   2.260  10.307
63699W        W36124  23.919  39.915  12.909
63700W        W36125  27.610   8.999  13.931
63701W        W36126  30.966  12.702   4.566
63702W        W36127  38.839  37.317   0.349
63703W        W36128   2.944  30.285  14.889
63704W        W36129   7.304  36.903  14.555
63705W        W36130  33.454  26.524  13.473
63706W        W36131   7.433  19.123   4.081
63707W        W36132  28.491  16.592   1.762
63708W        W36133  15.829  21.026   4.531
63709W        W36134  42.451  36.498   2.305
63710W        W36135  15.717  16.076   2.331
63711W        W36136  16.019  10.610  11.924
63712W        W36137  30.714  21.002   3.147
63713W        W36138  13.243  23.891  12.954
63714W        W36139  41.876  34.715  14.903
63715W        W36140  22.638  38.013   2.463
63716W        W36141  31.953   0.883   3.556
63717W        W36142  12.247  25.768  10.414
63718W        W36143   7.677  22.551  10.902
63719W        W36144  34.531   4.194   3.758
63720W        W36145  37.400  44.808   0.661
63721W        W36146   7.817  42.260   2.821
63722W        W36147  39.759   4.654   2.779
63723W        W36148  40.583  25.732   0.673
63724W        W36149   0.963  22.262   3.132
63725W        W36150  33.546  18.582   3.698
63726W        W36151  19.107   3.263  12.632
63727W        W36152  25.921   3.837  11.167
63728W        W36153  35.999  15.749   3.741
63729W        W36154  28.709  32.103   1.210
63730W        W36155  29.012  15.412   2.709
63731W        W36156  31.113   4.387  11.576
63732W        W36157  28.397  29.994  11.526
63733W        W36158   9.722  14.673   4.040
63734W        W36159  42.848  21.676   4.317
63735W        W36160  15.670  35.030   3.905
63736W        W36161  14.404   0.562  12.133
63737W        W36162  15.785  44.876  12.084
63738W        W36163   0.523  34.089  14.818
63739W        W36164  29.096   0.877  12.294
63740W        W36165  24.741  39.413   4.206
63741W        W36166  18.784  30.873  10.721
63742W        W36167  38.012  14.868  11.855
63743W        W36168  18.593  21.011  14.259
63744W        W36169   3.382  27.432   1.925
63745W        W36170   7.809   4.330  13.394
63746W        W36171   3.892   1.327  10.535
63747W        W36172  24.730  31.012  11.096
63748W        W36173  27.446  22.049   0.384
63749W        W36174  37.831  38.135  13.386
63750W        W36175  22.023  21.515   3.273
63751W        W36176  26.119  28.421  11.703
63752W        W36177   9.765   5.676  11.616
63753W        W36178  19.753  16.406   1.243
63754W        W36179  37.465  34.106   2.037
63755W        W36180  30.459  44.271   0.472
63756W        W36181  42.832  33.022  13.434
63757W        W36182  37.320  42.139  11.125
63758W        W36183  42.335  13.863   1.060
63759W        W36184  25.092  42.318   2.702
63760W        W36185  19.901  27.837  14.319
63761W        W36186  37.039  23.261  10.548
63762W        W36187   7.342  14.096  10.601
63763W        W36188   9.797  22.686   3.117
63764W        W36189   8.714  41.378  14.485
63765W        W36190  16.193   8.228   1.753
63766W        W36191   1.390  22.783   3.756
63767W        W36192   8.434  23.445  11.563
63768W        W36193   7.157   4.807   3.849
63769W        W36194   3.358   8.389   0.872
63770W        W36195  21.616  33.207  11.975
63771W        W36196  14.778  42.960   2.244
63772W        W36197  24.467  23.769  13.009
63773W        W36198  37.975  41.348  11.926
63774W        W36199  19.133  42.053  13.440
63775W        W36200  39.335  36.769   2.420
63776W        W36201  29.032  28.254   4.086
63777W        W36202  33.425  40.336   0.667
63778W        W36203  27.253  10.497   3.604
63779W        W36204  38.486   0.576  12.492
63780W        W36205   3.531   2.218   3.714
63781W        W36206  43.749   8.306   3.643
63782W        W36207   4.891  18.868  12.432
63783W        W36208  12.938  31.367   0.536
63784W        W36209   1.067  30.928  12.102
63785W        W36210  19.339  38.024   2.712
63786W        W36211  38.176  35.117   1.510
63787W        W36212   2.332  26.892   1.507
63788W        W36213  32.427   1.834   1.881
63789W        W36214  21.508  17.594   1.386
63790W        W36215   6.647   6.781   0.969
63791W        W36216   3.945  22.050   3.425
63792W        W36217   4.769  37.637   1.024
63793W        W36218  12.659  38.817  12.103
63794W        W36219  33.798  39.796  10.770
63795W        W36220   3.142  34.983  13.058
63796W        W36221   3.939  15.754   0.368
63797W        W36222  28.093  20.638  13.154
63798W        W36223  11.243  21.694   1.871
63799W        W36224   9.028  41.856   1.204
63800W        W36225  20.470  13.031   4.745
63801W        W36226  11.680  19.534   0.714
63802W        W36227  22.555  26.624   0.229
63803W        W36228  12.659  27.379  12.550
63804W        W36229  17.424   1.839  14.158
63805W        W36230   3.212  15.683  10.483
63806W        W36231   6.750  10.859  13.878
63807W        W36232  38.517  43.054  10.973
63808W        W36233  28.919  32.688  12.467
63809W        W36234  29.956  36.637  11.955
63810W        W36235  32.992  38.266  12.466
63811W        W36236  36.945  38.379  10.234
63812W        W36237  31.365  37.453  11.488
63813W        W36238  18.345  43.965  13.883
63814W        W36239  18.175   0.700   2.811
63815W        W36240  25.018  14.397  11.565
63816W        W36241  19.031  30.480   1.615
63817W        W36242  38.983  42.806  12.014
63818W        W36243   8.889  35.502   1.817
63819W        W36244  12.115  29.509   2.954
63820W        W36245   7.184  42.814  13.232
63821W        W36246  18.560  16.237  14.785
63822W        W36247  40.578  43.279   3.630
63823W        W36248  25.495  10.883  11.993
63824W        W36249  37.950  22.298   1.730
63825W        W36250  21.552   4.766  10.378
63826W        W36251  11.564  40.465   4.750
63827W        W36252  30.799  43.982  13.538
63828W        W36253  20.566  25.961   1.838
63829W        W36254  25.102   1.820  12.810
63830W        W36255  15.458  27.638   4.243
63831W        W36256  22.153   5.374   2.834
63832W        W36257   4.110  17.132  10.794
63833W        W36258  30.810  19.143  14.308
63834W        W36259  23.290  16.733  11.475
63835W        W36260  18.811   6.335   0.449
63836W        W36261   9.926  10.674   3.382
63837W        W36262  33.280  20.620   1.328
63838W        W36263  10.349  29.000   2.281
63839W        W36264  28.020  24.751  11.474
63840W        W36265  33.100  44.957  10.472
63841W        W36266  25.989  17.120   1.270
63842W        W36267  28.829  27.276   0.383
63843W        W36268  23.080   1.466  13.095
63844W        W36269  28.686  24.956   1.288
63845W        W36270  17.692  17.976   4.226
63846W        W36271  35.169  18.841  13.451
63847W        W36272  20.469   7.098  11.105
63848W        W36273  30.849  29.212  14.900
63849W        W36274  24.962  13.742   0.468
63850W        W36275  22.308  29.083   1.469
63851W        W36276  34.969   6.696   1.418
63852W        W36277  20.673  27.951  12.470
63853W        W36278  34.881  33.546   4.137
63854W        W36279   0.278  34.355  14.389
63855W        W36280   3.018  28.769   1.745
63856W        W36281  33.383  16.118   0.347
63857W        W36282  39.411  12.612   1.621
63858W        W36283  28.862  39.886  11.477
63859W        W36284  19.061  22.985  14.877
63860W        W36285  42.093  24.796   5.017
63861W        W36286  40.969  29.707   2.345
63862W        W36287  10.107  11.265   2.928
63863W        W36288  41.472  20.892  12.437
63864W        W36289  44.932   3.419  10.950
63865W        W36290  12.127  30.178   0.906
63866W        W36291  42.533  19.017   2.315
63867W        W36292  14.987  34.107  14.677
63868W        W36293  27.103  10.852   3.203
63869W        W36294   1.847  28.648   4.074
63870W        W36295  29.576  14.514  11.206
63871W        W36296  41.285  41.423   2.959
63872W        W36297  21.056  12.034  13.886
63873W        W36298  21.455  10.382  13.505
63874W        W36299  40.544   2.719  11.991
63875W        W36300  12.315  30.801   4.253
63876W        W36301  12.224   8.870  11.255
63877W        W36302   8.505  22.033   3.756
63878W        W36303   3.872  15.181  13.421
63879W        W36304   7.719  12.905   2.104
63880W        W36305  29.019  13.793   2.305
63881W        W36306  43.343  17.996   2.660
63882W        W36307   4.874  23.933  11.155
63883W        W36308  25.592  40.160  14.498
63884W        W36309  43.268  15.590  12.374
63885W        W36310  12.835  44.916  10.651
63886W        W36311   4.850  12.902  14.745
63887W        W36312  14.344   1.845  11.605
63888W        W36313  29.961  28.430  11.147
63889W        W36314  13.360  23.686   3.706
63890W        W36315  16.737  44.392   2.914
63891W        W36316  41.233  24.546  10.692
63892W        W36317  16.546  15.866  11.542
63893W        W36318  14.785  15.692  14.172
63894W        W36319  28.579  16.726  11.144
63895W        W36320  13.354  37.970  11.921
63896W        W36321  23.825  20.990   4.016
63897W        W36322  19.778  19.541   2.208
63898W        W36323  22.458   9.886   3.347
63899W        W36324  17.899  41.722   3.167
63900W        W36325   2.895  40.482   4.616
63901W        W36326  32.216  16.217   4.693
63902W        W36327  33.831  13.316   3.570
63903W        W36328   1.213   5.702  14.808
63904W        W36329  36.964  16.154   0.935
63905W        W36330  17.799  36.366  10.681
63906W        W36331  27.905  32.136   2.307
63907W        W36332  33.887  12.202   4.547
63908W        W36333   6.381  34.981   4.042
63909W        W36334  41.267  35.507   0.220
63910W        W36335  32.765  25.221  10.143
63911W        W36336  41.313   7.323   1.717
63912W        W36337  42.555  16.255   1.436
63913W        W36338  40.814   1.236  11.146
63914W        W36339   2.546  23.455  12.029
63915W        W36340  11.037  41.008  11.446
63916W        W36341  14.802  39.058  12.272
63917W        W36342  19.688  28.621   2.658
63918W        W36343  30.656  14.231  10.441
63919W        W36344  36.475  19.030   1.113
63920W        W36345  30.074   9.852   4.781
63921W        W36346  24.858   4.393  10.699
63922W        W36347  26.117  10.378   1.339
63923W        W36348   9.745  38.418  14.200
63924W        W36349  15.208   8.564   0.313
63925W        W36350   3.780  30.360   0.670
63926W        W36351  29.039  41.945   1.482
63927W        W36352  35.480  10.895   0.736
63928W        W36353  15.241  16.580   3.579
63929W        W36354   2.482  23.222   2.322
63930W        W36355  17.616  10.719  14.743
63931W        W36356  18.701  13.049  12.878
63932W        W36357   0.400   5.537  13.802
63933W        W36358  13.331  36.346   0.471
63934W        W36359  28.197  29.315  10.229
63935W        W36360  25.680  13.188  14.533
63936W        W36361  41.258   7.877  11.588
63937W        W36362  24.835   7.839  10.682
63938W        W36363   5.349  34.841   2.163
63939W        W36364  34.839  31.977   3.075
63940W        W36365  38.273   0.795  13.314
63941W        W36366  34.023   2.470   4.502
63942W        W36367  17.817  22.692   0.411
63943W        W36368   4.008  39.360   2.806
63944W        W36369  27.998  37.968   4.431
63945W        W36370  25.912  15.505   0.423
63946W        W36371  23.547  38.484   2.219
63947W        W36372   8.381  35.583   1.777
63948W        W36373  31.091  40.578  11.349
63949W        W36374  15.866  34.019   4.204
63950W        W36375  16.794  32.000   4.667
63951W        W36376  42.041  33.626  10.673
63952W        W36377  34.880  35.905  14.379
63953W        W36378  39.025  11.937  14.325
63954W        W36379  41.407  25.197  11.986
63955W        W36380  16.851  30.879  12.949
63956W        W36381  35.831   2.229  12.047
63957W        W36382   2.429  16.380   1.376
63958W        W36383  17.210   4.213  13.095
63959W        W36384  42.101  11.813  11.620
63960W        W36385  27.657  44.418   4.037
63961W        W36386  24.557   1.923  12.600
63962W        W36387  41.096  12.903  10.728
63963W        W36388  36.345  28.571   4.524
63964W        W36389  21.098   7.167  13.049
63965W        W36390  24.226   0.328   3.837
63966W        W36391  42.340  36.395   0.418
63967W        W36392  33.921  36.800  11.405
63968W        W36393   9.452   7.622  12.932
63969W        W36394  11.675  42.478  13.385
63970W        W36395  28.476  35.859   2.881
63971W        W36396  10.475   9.297  13.311
63972W        W36397  27.414  35.157  10.783
63973W        W36398  10.119  22.169  12.881
63974W        W36399  11.938   7.539   2.764
63975W        W36400  38.476  28.474   0.762
63976W        W36401  37.588  40.205   2.349
63977W        W36402   1.889  10.051  10.650
63978W        W36403  23.700  16.839   2.852
63979W        W36404  34.900   5.728   4.132
63980W        W36405  25.978  38.924   4.213
63981W        W36406  42.343  34.583   0.970
63982W        W36407  16.592   0.932  13.231
63983W        W36408   0.863  11.264  13.186
63984W        W36409  27.955  35.691  14.233
63985W        W36410   4.384   3.377   3.237
63986W        W36411  28.405  43.884   3.716
63987W        W36412  21.048  33.047   2.768
63988W        W36413  19.202  39.091   0.878
63989W        W36414   3.474  40.995  13.844
63990W        W36415  24.471  41.762  11.919
63991W        W36416  24.780  30.702   4.495
63992W        W36417  23.254  40.308   0.645
63993W        W36418  20.094  14.121  12.162
63994W        W36419  32.042  26.899  10.038
63995W        W36420  34.703  36.571  10.708
63996W        W36421  12.670  41.102  10.586
63997W        W36422  36.471  11.154  11.910
63998W        W36423  10.376  37.179  10.696
63999W        W36424  16.810   2.822  11.219
64000W        W36425  42.427   8.208   3.274
64001W        W36426  11.736  34.566  10.336
64002W        W36427  11.860  27.631   0.678
64003W        W36428   1.048  42.909  10.769
64004W        W36429  11.228  20.251   0.962
64005W        W36430   8.239  26.023   4.612
64006W        W36431  23.611  40.492  11.647
64007W        W36432  28.559  39.310   2.846
64008W        W36433  31.772  20.980   4.221
64009W        W36434  20.236  14.862   3.195
64010W        W36435   8.657  17.957   4.734
64011W        W36436  26.130  10.345  10.965
64012W        W36437  20.649   6.663   1.381
64013W        W36438  23.148   0.770   1.723
64014W        W36439   7.363  38.934  12.322
64015W        W36440  24.973   9.839   2.766
64016W        W36441  27.059  19.521  11.898
64017W        W36442  16.833  20.497  12.456
64018W        W36443  14.357  13.694  13.100
64019W        W36444   3.751  25.090   0.354
64020W        W36445  10.384  18.098  14.009
64021W        W36446  37.162  13.045  14.274
64022W        W36447   5.980  38.430  13.557
64023W        W36448  33.957  18.245   3.298
64024W        W36449  22.757  11.124  14.370
64025W        W36450   0.775  25.300  11.652
64026W        W36451  34.581  28.683   3.290
64027W        W36452  12.508  21.497  11.000
64028W        W36453  10.672  30.155  10.352
64029W        W36454   9.393  37.407   2.755
64030W        W36455   0.852  41.894  10.907
64031W        W36456   2.428  40.400  10.710
64032W        W36457  38.018   7.453   0.849
64033W        W36458  18.777  19.650   2.297
64034W        W36459  32.958  17.265  12.008
64035W        W36460  32.172  41.530   1.643
64036W        W36461   1.413   0.251  12.979
64037W        W36462  26.807  14.929   3.309
64038W        W36463  25.143   6.338   2.910
64039W        W36464  43.441   0.116   0.392
64040W        W36465  14.636   6.305  10.378
64041W        W36466  25.018  15.632   0.552
64042W        W36467  12.579  39.856  12.529
64043W        W36468  19.280  31.185  14.875
64044W        W36469  31.047  41.926   0.461
64045W        W36470   9.731  17.178   0.339
64046W        W36471  10.219  15.815  12.420
64047W        W36472  13.665  34.528   3.874
64048W        W36473  12.888   3.434   0.938
64049W        W36474  10.176  35.178   3.324
64050W        W36475  14.012  12.855  14.915
64051W        W36476  20.046  41.628   3.774
64052W        W36477  29.433  20.938   2.199
64053W        W36478  16.700  20.751  12.886
64054W        W36479   0.355  41.307   0.249
64055W        W36480  32.825  42.948   1.062
64056W        W36481  25.206  34.587  10.903
64057W        W36482  15.831  21.576   9.745
64058W        W36483   0.344   8.054   1.182
64059W        W36484  20.725   3.500   1.491
64060W        W36485  21.359  41.342   3.202
64061W        W36486   6.407  21.407  13.419
64062W        W36487   5.167  31.070   2.771
64063W        W36488  16.664   0.546   3.641
64064W        W36489  16.821  41.521  10.680
64065W        W36490  14.297  28.747   0.564
64066W        W36491  12.908  10.365   3.376
64067W        W36492  37.091  41.269   4.274
64068W        W36493  23.994  25.033  12.884
64069W        W36494  25.387  22.006   3.325
64070W        W36495  22.889  38.991  12.024
64071W        W36496  25.283   6.959  14.320
64072W        W36497  13.546  17.489   0.958
64073W        W36498  34.927   2.475  12.801
64074W        W36499  44.280   6.763   2.256
64075W        W36500  13.550  41.996  14.846
64076W        W36501  16.505  10.608   2.986
64077W        W36502  14.132   8.750   1.473
64078W        W36503  15.195   9.387   3.157
64079W        W36504  38.486   9.594   4.087
64080W        W36505  24.747   8.757   3.216
64081W        W36506   4.272  33.429   4.919
64082W        W36507  40.754  42.456   1.266
64083W        W36508  37.865   6.228  12.866
64084W        W36509  31.570  22.113  13.789
64085W        W36510  26.067  18.291  11.831
64086W        W36511  11.324  38.993   3.217
64087W        W36512  17.737  40.341  10.729
64088W        W36513   0.508  14.632  12.351
64089W        W36514  11.313  33.485  13.477
64090W        W36515   2.438  34.701  12.680
64091W        W36516   4.227  44.222   3.295
64092W        W36517  37.986  22.628  12.600
64093W        W36518  19.494   5.190  10.652
64094W        W36519  21.815  12.116   1.877
64095W        W36520   1.647  18.092   2.700
64096W        W36521  42.563  38.035   4.033
64097W        W36522   3.949  14.472  13.874
64098W        W36523   7.775  40.342   4.146
64099W        W36524  17.274  14.750  13.812
64100W        W36525  36.684  40.950  14.895
64101W        W36526   7.834   4.848  11.065
64102W        W36527  28.131  14.854   0.300
64103W        W36528   6.763   7.746   4.690
64104W        W36529  35.398  16.245   2.310
64105W        W36530  31.758   5.735  13.596
64106W        W36531  42.687  42.072  12.655
64107W        W36532  41.279  43.207  11.779
64108W        W36533  18.038  31.348  13.446
64109W        W36534   8.958  32.421   1.808
64110W        W36535   9.125  43.416   2.759
64111W        W36536  27.697  21.720  11.115
64112W        W36537  34.968  25.220  12.888
64113W        W36538  42.734  13.771  12.286
64114W        W36539  28.380   5.791  12.052
64115W        W36540  37.343  33.561   3.927
64116W        W36541  40.449  16.036  11.976
64117W        W36542   8.593  33.909   2.678
64118W        W36543  41.344  33.579   1.949
64119W        W36544   7.121  19.108   1.679
64120W        W36545  29.083  15.090   3.854
64121W        W36546  14.377  25.652   0.403
64122W        W36547  32.707  11.611  12.484
64123W        W36548  24.715  14.538   3.097
64124W        W36549  30.858  11.123  14.428
64125W        W36550   0.459  41.825  13.918
64126W        W36551  28.169  13.231   0.988
64127W        W36552  15.229  18.797  10.683
64128W        W36553  40.370  38.105   3.288
64129W        W36554  22.088   4.750   0.497
64130W        W36555  17.438   6.212  12.061
64131W        W36556  31.171  18.864  12.452
64132W        W36557  41.861   6.701   1.424
64133W        W36558   6.713  16.814   0.722
64134W        W36559  36.754  40.018   2.657
64135W        W36560  33.482  21.613   0.988
64136W        W36561  15.898  29.152   0.842
64137W        W36562  15.129  21.498   4.901
64138W        W36563  15.051  10.911   2.753
64139W        W36564   8.871  19.201  13.597
64140W        W36565   7.252  20.250   3.336
64141W        W36566   6.888  10.818  12.839
64142W        W36567   9.790  37.998  12.086
64143W        W36568   3.802  15.847  13.131
64144W        W36569  25.490   3.056  10.798
64145W        W36570  16.230  33.402   2.833
64146W        W36571  41.847  14.310  14.161
64147W        W36572  30.046  18.455   2.578
64148W        W36573   4.237  17.694  11.613
64149W        W36574  23.590   4.263  13.080
64150W        W36575  19.609  14.586  11.200
64151W        W36576   9.017   1.932  14.820
64152W        W36577  10.321   8.783   4.700
64153W        W36578   0.936  17.465   0.444
64154W        W36579  25.508  17.921   3.626
64155W        W36580  43.897  38.467   4.651
64156W        W36581   8.150  28.715  10.608
64157W        W36582  37.008  30.734  12.783
64158W        W36583  21.351  26.156   2.568
64159W        W36584  29.486   2.014  12.838
64160W        W36585  17.243  10.478   1.891
64161W        W36586   9.043   3.531   0.442
64162W        W36587   9.332  23.965   3.627
64163W        W36588  17.725  38.600  10.989
64164W        W36589  21.568  43.039   4.625
64165W        W36590  35.968   6.802  14.924
64166W        W36591  31.959  20.087  14.279
64167W        W36592  43.487  43.499   0.719
64168W        W36593  21.426   5.997   3.385
64169W        W36594   2.922  40.193   5.075
64170W        W36595  21.976  26.113   3.296
64171W        W36596  33.155  35.527  10.201
64172W        W36597   4.241  11.764  14.018
64173W        W36598   2.487  27.920  13.040
64174W        W36599  39.100  29.638   4.804
64175W        W36600  18.194  40.605  11.556
64176W        W36601  16.062  11.845  12.829
64177W        W36602  34.075   7.800   0.953
64178W        W36603  22.922  40.565   4.103
64179W        W36604  25.476   9.331  12.860
64180W        W36605  18.251   3.794   0.414
64181W        W36606   2.052  29.383  13.500
64182W        W36607  38.571   9.745   2.128
64183W        W36608  15.488   9.311   3.664
64184W        W36609  28.916  29.708  14.359
64185W        W36610  34.228  40.933  11.211
64186W        W36611  29.645  14.962  12.098
64187W        W36612  24.205  20.474  14.457
64188W        W36613   0.776  36.425   3.727
64189W        W36614  14.091  28.355   2.388
64190W        W36615   4.118   7.231  11.055
64191W        W36616  19.138  33.448   0.097
64192W        W36617  17.823  40.047   0.925
64193W        W36618  23.709  22.211   1.001
64194W        W36619  44.204  10.150   4.472
64195W        W36620  21.604  35.825   3.716
64196W        W36621  31.967   5.990   2.968
64197W        W36622  10.741  23.216   1.465
64198W        W36623   0.284  29.550  10.731
64199W        W36624  29.943  14.627   4.150
64200W        W36625  13.033  33.928  12.163
64201W        W36626  10.700  19.235   0.511
64202W        W36627   6.665   0.940  14.867
64203W        W36628   8.205  14.992  11.746
64204W        W36629  44.906   7.651  10.757
64205W        W36630  40.946  32.607  11.562
64206W        W36631  37.817  18.678   4.590
64207W        W36632  36.129  17.085  14.041
64208W        W36633   1.476  38.275   0.369
64209W        W36634  40.513   7.072  11.159
64210W        W36635  15.138  16.762  10.713
64211W        W36636  43.230  13.595   1.406
64212W        W36637  31.939  20.205   3.548
64213W        W36638  10.408  13.240  12.513
64214W        W36639  17.876   5.382  13.294
64215W        W36640   8.507  18.178  11.064
64216W        W36641   0.279  38.586  12.021
64217W        W36642  36.398  12.285  14.972
64218W        W36643  26.011  23.103   3.810
64219W        W36644  42.738  26.140  11.605
64220W        W36645  11.607  21.132   1.325
64221W        W36646  31.285  14.176  12.553
64222W        W36647  24.028  25.956  14.932
64223W        W36648  23.910   2.788  14.684
64224W        W36649   4.004  42.934   0.248
64225W        W36650  18.546  17.677  12.018
64226W        W36651  40.037  16.717   3.442
64227W        W36652  31.831  38.141  12.870
64228W        W36653   1.483  24.188   0.850
64229W        W36654  13.677  44.561   4.244
64230W        W36655  44.418   9.308  14.872
64231W        W36656  19.219  41.045  10.656
64232W        W36657  14.417  37.612   5.127
64233W        W36658  39.847  14.389   3.588
64234W        W36659  18.679   7.618  13.066
64235W        W36660  25.622  35.862  10.933
64236W        W36661  15.624  16.816  13.099
64237W        W36662  26.681  31.185  13.455
64238W        W36663  34.917  33.791   4.605
64239W        W36664  10.703   7.304   4.903
64240W        W36665   4.840  40.265  10.575
64241W        W36666   8.159  11.050   0.295
64242W        W36667  26.429  34.960   1.919
64243W        W36668  27.122   6.454   4.072
64244W        W36669  37.824  22.021   3.205
64245W        W36670  40.547  13.225   3.262
64246W        W36671  33.063  30.094   4.568
64247W        W36672  14.307  40.739   2.921
64248W        W36673  18.693  30.920  14.235
64249W        W36674  25.620  43.961  14.554
64250W        W36675   3.678  33.559   1.712
64251W        W36676  14.018  19.653  12.916
64252W        W36677  15.089  19.098   1.458
64253W        W36678  41.434  35.500  14.264
64254W        W36679  11.909  31.786   4.206
64255W        W36680   1.492  39.483   2.904
64256W        W36681  41.024  14.099   1.346
64257W        W36682   5.556  38.801   3.820
64258W        W36683   9.684   1.808   1.383
64259W        W36684  31.880  32.222  14.831
64260W        W36685  29.638  10.613  14.474
64261W        W36686   8.723  15.949  14.874
64262W        W36687  24.091   9.881   0.921
64263W        W36688  13.892   6.704   0.363
64264W        W36689  31.155   7.515  12.010
64265W        W36690  35.443  21.972   2.083
64266W        W36691  32.202  26.768  14.658
64267W        W36692  33.001   1.870  11.036
64268W        W36693  24.106  25.945   2.321
64269W        W36694   4.976   7.653  13.136
64270W        W36695   2.014  42.881   0.260
64271W        W36696  26.185  42.980  12.459
64272W        W36697  17.475   7.490   0.890
64273W        W36698  13.297  21.699   4.175
64274W        W36699  16.565  16.995   2.295
64275W        W36700   3.244  31.601  12.554
64276W        W36701   6.230  40.813  12.864
64277W        W36702  18.157  21.157  12.563
64278W        W36703  26.745  20.712   0.538
64279W        W36704   3.843  28.735  13.043
64280W        W36705  39.109  16.633   4.573
64281W        W36706   4.973  23.778   2.211
64282W        W36707  19.403   6.733  13.467
64283W        W36708   8.311  16.083   4.361
64284W        W36709  15.936  15.630   0.929
64285W        W36710  11.209  13.151   2.821
64286W        W36711  13.620  22.575   1.821
64287W        W36712  43.971  37.826  10.493
64288W        W36713  36.774  11.782   0.659
64289W        W36714  40.037  32.524   0.422
64290W        W36715   0.758  12.208   2.872
64291W        W36716  33.915   2.972   2.770
64292W        W36717  43.527  13.209   0.424
64293W        W36718  40.239  38.322   0.235
64294W        W36719  44.963  25.666  11.908
64295W        W36720  15.362   3.354  13.867
64296W        W36721   1.389  10.160   2.220
64297W        W36722   1.410  23.562   4.897
64298W        W36723  23.674  33.288  12.830
64299W        W36724  20.899  42.866  14.942
64300W        W36725  21.145  31.831   0.334
64301W        W36726   9.606  36.117  14.301
64302W        W36727  44.838   6.263  12.199
64303W        W36728  32.072  36.526   4.767
64304W        W36729  35.403  41.571  10.445
64305W        W36730  10.312   1.000  13.121
64306W        W36731   4.350  31.691  14.826
64307W        W36732   1.846  13.076   1.199
64308W        W36733  35.057  44.260   3.418
64309W        W36734  18.215   3.755   0.954
64310W        W36735  44.508  11.822  12.584
64311W        W36736   5.331   3.791   2.517
64312W        W36737   3.193  11.911  11.109
64313W        W36738  43.504  37.586   0.915
64314W        W36739  42.734  12.754  13.865
64315W        W36740   7.651  37.825   0.335
64316W        W36741  29.380  39.430  13.844
64317W        W36742   4.447  24.183  12.880
64318W        W36743  20.198  28.812   3.730
64319W        W36744  12.802  19.746  14.753
64320W        W36745  40.288  38.683   2.072
64321W        W36746  16.611  29.686  13.540
64322W        W36747  44.557  35.479  11.288
64323W        W36748  21.631  24.927  13.063
64324W        W36749  43.059  39.083  12.472
64325W        W36750  31.533  39.797  14.883
64326W        W36751   3.793  37.474   1.198
64327W        W36752  19.638   0.401   3.165
64328W        W36753  23.506  36.638   2.720
64329W        W36754   6.988  31.009  12.308
64330W        W36755   3.910  22.280  13.929
64331W        W36756  38.082  40.853  13.328
64332W        W36757  26.743  25.290  10.667
64333W        W36758  42.559  19.882  12.578
64334W        W36759  41.521  22.533  13.573
64335W        W36760  34.905  43.862   3.136
64336W        W36761   4.201  33.583  11.352
64337W        W36762   7.804  13.863   2.344
64338W        W36763  13.300  12.182   4.444
64339W        W36764  27.870  23.064   1.790
64340W        W36765   5.943  14.233   2.142
64341W        W36766   7.152  11.642  10.888
64342W        W36767  28.699  33.818  11.649
64343W        W36768   6.021  38.447   2.905
64344W        W36769  15.593  18.278   4.498
64345W        W36770  26.416  15.438   3.896
64346W        W36771  31.044  27.460  11.418
64347W        W36772   4.010  18.173  13.446
64348W        W36773  42.327  39.427   1.744
64349W        W36774   7.746  37.101   0.880
64350W        W36775  24.058  18.556   3.160
64351W        W36776  15.054  39.427  10.612
64352W        W36777  17.523  12.588   1.309
64353W        W36778  32.000  41.448   2.641
64354W        W36779  11.293  35.423   2.413
64355W        W36780  30.355  33.557  14.861
64356W        W36781  28.752  41.975  13.925
64357W        W36782  11.850   8.414   1.170
64358W        W36783  34.083  35.907   0.004
64359W        W36784  15.143  35.384   3.254
64360W        W36785   9.358   8.175  11.024
64361W        W36786  29.430   0.436  13.331
64362W        W36787  30.231  36.583   2.446
64363W        W36788  18.324  33.718   3.751
64364W        W36789  25.664  23.777  11.384
64365W        W36790  37.447   4.696   0.318
64366W        W36791  36.099   9.176   2.142
64367W        W36792  26.503  24.335  13.017
64368W        W36793   6.305  31.489  13.217
64369W        W36794  25.078  35.340  11.416
64370W        W36795   5.428   8.802  12.418
64371W        W36796   0.542  34.073   1.803
64372W        W36797   7.288  39.587  11.617
64373W        W36798  33.600  16.599   1.805
64374W        W36799   0.766  12.149   3.393
64375W        W36800  19.337  38.277   1.359
64376W        W36801  43.522   4.262  11.982
64377W        W36802  29.429  32.444   1.108
64378W        W36803  22.787  19.440  10.399
64379W        W36804   7.907  31.984  10.614
64380W        W36805  12.524   4.236   5.040
64381W        W36806  15.387  36.481   1.950
64382W        W36807   0.204  13.823   1.440
64383W        W36808  44.759  26.611   1.029
64384W        W36809  40.864  44.312   3.251
64385W        W36810  10.238  31.819  11.104
64386W        W36811  34.445  18.048   3.242
64387W        W36812   7.089  19.073  13.872
64388W        W36813  14.006  30.735   1.409
64389W        W36814  25.935   4.846  12.335
64390W        W36815  15.244  23.005   0.882
64391W        W36816   2.899   7.594   0.965
64392W        W36817  44.435  44.906  12.883
64393W        W36818  31.890  24.938   0.263
64394W        W36819  12.770  34.665  13.386
64395W        W36820   4.543  26.696  14.713
64396W        W36821  42.375  20.258   0.933
64397W        W36822   5.866  17.844  12.514
64398W        W36823  33.057   4.932  13.526
64399W        W36824  44.326  42.356   0.774
64400W        W36825  41.038  33.388  11.024
64401W        W36826  16.936  22.763  14.014
64402W        W36827  16.266  38.857  14.426
64403W        W36828  23.598   1.758  13.877
64404W        W36829  43.240  21.451  11.563
64405W        W36830   0.367   8.314  10.817
64406W        W36831   7.934  11.858   3.237
64407W        W36832  18.649   9.162  10.721
64408W        W36833  35.805  28.488  10.494
64409W        W36834  33.869   9.194  11.461
64410W        W36835  17.044  20.983   4.916
64411W        W36836  15.725   7.441   1.333
64412W        W36837  24.933  20.660   1.496
64413W        W36838   4.973  13.055  12.522
64414W        W36839   3.470  10.393   2.329
64415W        W36840  25.444  36.086   1.365
64416W        W36841  12.693   5.367   1.957
64417W        W36842  28.247  30.444  10.028
64418W        W36843  44.417  29.105   1.946
64419W        W36844  38.596  29.487   4.704
64420W        W36845   8.651  31.017  11.080
64421W        W36846   9.120   2.072  12.467
64422W        W36847  19.222  12.758   2.340
64423W        W36848  36.032  14.204  14.934
64424W        W36849  36.877  29.045   0.796
64425W        W36850  15.110   3.645   0.061
64426W        W36851  23.204  44.319  12.204
64427W        W36852  31.885  35.240  10.959
64428W        W36853  42.365  20.797  13.775
64429W        W36854  35.883  30.385  10.544
64430W        W36855  19.754   5.339   1.244
64431W        W36856  24.608  35.588  13.558
64432W        W36857  15.016  40.573   1.384
64433W        W36858  17.770  21.649   0.405
64434W        W36859  31.995  17.503  12.099
64435W        W36860  25.796  18.199   1.703
64436W        W36861  21.948   4.131   2.335
64437W        W36862   1.189  10.086  14.253
64438W        W36863  40.085  35.043  13.628
64439W        W36864  41.844   4.002   0.231
64440W        W36865  20.182  23.815  10.374
64441W        W36866  33.404  23.148   2.729
64442W        W36867  27.132   5.481  13.873
64443W        W36868  33.407  33.099  11.601
64444W        W36869  29.915  43.174  12.598
64445W        W36870  40.180   5.978  11.520
64446W        W36871  36.111  34.929   2.277
64447W        W36872  21.210  40.242  12.024
64448W        W36873  36.049  18.181   4.402
64449W        W36874  34.404  43.837   3.352
64450W        W36875  18.991  36.005   4.593
64451W        W36876  26.286   6.833  14.372
64452W        W36877  18.636  35.642   4.648
64453W        W36878  24.257  28.520   1.686
64454W        W36879   0.719  43.488  14.775
64455W        W36880  38.712  19.542   2.357
64456W        W36881  16.520  35.573   1.519
64457W        W36882   1.002  22.723  10.207
64458W        W36883  20.643  42.557   4.083
64459W        W36884   7.982   9.326   2.719
64460W        W36885  18.503  15.243  14.814
64461W        W36886   2.297  19.370   0.844
64462W        W36887   0.428  23.777   0.454
64463W        W36888  30.541  30.148  11.117
64464W        W36889  30.942  40.792   0.293
64465W        W36890   3.464  38.494  12.472
64466W        W36891   2.275  14.610  12.018
64467W        W36892  15.033  42.735   0.737
64468W        W36893  26.103  24.731  12.920
64469W        W36894  42.252  21.660   3.587
64470W        W36895  14.826  23.032   9.686
64471W        W36896  43.805  30.225  11.996
64472W        W36897   9.731   1.387  12.111
64473W        W36898  24.997  15.244  13.901
64474W        W36899  14.600   3.625   4.129
64475W        W36900  38.530  26.191   3.861
64476W        W36901  17.230  10.085  10.493
64477W        W36902  22.284  26.867   4.996
64478W        W36903  24.175   7.336  14.841
64479W        W36904  42.457  11.644  12.888
64480W        W36905  10.480   7.087   4.144
64481W        W36906  24.510  29.105   1.467
64482W        W36907   2.111  28.076  11.732
64483W        W36908  20.296  31.430  14.766
64484W        W36909  37.743   4.865  14.420
64485W        W36910  22.972  31.071  14.403
64486W        W36911  23.275  30.440  13.687
64487W        W36912  42.747  14.178   5.141
64488W        W36913  28.111  16.989   1.894
64489W        W36914  20.653  15.524  13.999
64490W        W36915  18.194  28.872   0.984
64491W        W36916  43.323   9.171   1.534
64492W        W36917  15.810  10.893   2.280
64493W        W36918  41.772  33.464   3.825
64494W        W36919  33.516  32.554   2.323
64495W        W36920  31.666   8.076   1.272
64496W        W36921  30.943  15.105   2.441
64497W        W36922  35.393  31.509   4.727
64498W        W36923  13.869  29.715   2.215
64499W        W36924   4.147  29.041   1.765
64500W        W36925  14.634  44.848   1.965
64501W        W36926  18.564  40.294   2.121
64502W        W36927  43.967   6.680  10.627
64503W        W36928   0.412  10.322  10.441
64504W        W36929  26.495   9.375   2.038
64505W        W36930  29.938  33.081   2.321
64506W        W36931  12.644   6.782  11.442
64507W        W36932  32.566  41.251  14.837
64508W        W36933  10.722  11.365   4.049
64509W        W36934  18.151  10.644  12.321
64510W        W36935   7.511   8.176  13.004
64511W        W36936  15.536  31.130  12.065
64512W        W36937  11.278  34.213  12.619
64513W        W36938   9.825  30.866   2.672
64514W        W36939  23.431  13.200   1.839
64515W        W36940  27.164   7.212   3.620
64516W        W36941  21.965   5.527   4.114
64517W        W36942  13.179   8.932   3.680
64518W        W36943  17.822  38.021   3.660
64519W        W36944  29.618  23.522  12.855
64520W        W36945  16.010  31.346   4.681
64521W        W36946  14.335   1.235  12.927
64522W        W36947  30.977  42.098  11.293
64523W        W36948  24.525  44.251   0.760
64524W        W36949  35.109   9.368   0.320
64525W        W36950  10.311   1.593  11.947
64526W        W36951  35.311  25.717   4.420
64527W        W36952  22.977  11.834   3.626
64528W        W36953   6.805  41.806  13.601
64529W        W36954   7.395   9.178   0.675
64530W        W36955   2.939  27.030   4.159
64531W        W36956   7.902  28.527  12.457
64532W        W36957   0.626  21.689  12.963
64533W        W36958  42.053   4.254  11.961
64534W        W36959  43.982  25.172   3.289
64535W        W36960  11.636  34.915  13.734
64536W        W36961   6.606  24.672  11.200
64537W        W36962  36.854  25.982  11.674
64538W        W36963  19.466  43.340  12.975
64539W        W36964  31.429  38.836   0.679
64540W        W36965   0.967  22.056   4.075
64541W        W36966  40.808  18.276  10.637
64542W        W36967  28.153  24.159  14.772
64543W        W36968   1.275  28.954  11.185
64544W        W36969  20.072   3.589  12.035
64545W        W36970   8.206  34.045  10.670
64546W        W36971  27.913  21.783   0.356
64547W        W36972  29.212  27.546   2.648
64548W        W36973   8.076  30.994  11.401
64549W        W36974  10.199  33.015   0.814
64550W        W36975  36.989  24.937  13.392
64551W        W36976   8.094  42.025   1.486
64552W        W36977  21.242  12.776  13.820
64553W        W36978  42.019  29.773   1.777
64554W        W36979  17.112  29.894  14.435
64555W        W36980  20.141  33.202   2.649
64556W        W36981  22.199  42.313   4.491
64557W        W36982  44.219  31.869   2.301
64558W        W36983  33.446   6.902   4.575
64559W        W36984  21.148  44.329  14.151
64560W        W36985   0.989  16.148  14.793
64561W        W36986   2.845  41.904   3.135
64562W        W36987  27.851   4.911  12.178
64563W        W36988   0.017  31.998   5.012
64564W        W36989  27.680  20.666   0.028
64565W        W36990  22.096  24.658  11.335
64566W        W36991  21.299  30.835   9.821
64567W        W36992  11.233  38.907  12.490
64568W        W36993  39.803  30.678   1.927
64569W        W36994  22.588  16.734   4.234
64570W        W36995  34.641  32.427  14.912
64571W        W36996  30.487  20.975  14.586
64572W        W36997  44.995   1.751  14.378
64573W        W36998   3.669  14.836  11.102
64574W        W36999  11.300   3.885   5.057
64575W        W37000  42.422  18.804  11.476
64576W        W37001  31.434   1.660   3.573
64577W        W37002  35.222  36.451  14.472
64578W        W37003  35.088  39.428  11.488
64579W        W37004  19.269  16.869   2.273
64580W        W37005   0.294  41.099  13.449
64581W        W37006  27.376  27.606   1.383
64582W        W37007   8.019  40.490   2.279
64583W        W37008  10.711  31.224  12.979
64584W        W37009  34.535   5.246  12.348
64585W        W37010  28.018  29.454   0.263
64586W        W37011  11.872   3.036  12.373
64587W        W37012  18.526  30.508  14.506
64588W        W37013  40.611  23.019  13.449
64589W        W37014  29.909   6.885   0.512
64590W        W37015   8.629  32.544   3.645
64591W        W37016  25.184  44.131  11.634
64592W        W37017  43.091  33.020   1.928
64593W        W37018  21.298  11.581  13.966
64594W        W37019  14.821  39.947  12.800
64595W        W37020   8.848   3.832  12.369
64596W        W37021  35.748   5.718   4.632
64597W        W37022  34.189  36.450  14.268
64598W        W37023  34.688  42.813   3.792
64599W        W37024  41.497  28.046  13.526
64600W        W37025  17.105   9.353   3.208
64601W        W37026  37.043  19.527  12.610
64602W        W37027  39.227  12.176   1.967
64603W        W37028  20.152  15.581  14.246
64604W        W37029  39.827  14.259   4.083
64605W        W37030  18.040  30.535  10.909
64606W        W37031   0.112  30.582  12.135
64607W        W37032  30.051  34.186   0.461
64608W        W37033  24.492  44.752  14.950
64609W        W37034  42.673  27.255  11.505
64610W        W37035  18.390  38.357  11.553
64611W        W37036  29.543  40.530  12.953
64612W        W37037  33.618   3.834  11.428
64613W        W37038  23.041  10.668  13.845
64614W        W37039  32.841   2.516   3.731
64615W        W37040  41.472  37.902   3.830
64616W        W37041  14.659   8.819   5.013
64617W        W37042   7.315  24.203  10.668
64618W        W37043  25.147  11.177  14.596
64619W        W37044  11.253  12.149   2.705
64620W        W37045   6.201  17.193  14.461
64621W        W37046   1.867   8.658  12.202
64622W        W37047  22.428  40.701  14.026
64623W        W37048  27.661  33.014  13.550
64624W        W37049  24.067  24.446   1.229
64625W        W37050  15.094  37.589   2.209
64626W        W37051   9.228   7.156   4.608
64627W        W37052   8.914  22.605  11.430
64628W        W37053  40.939  44.866  10.987
64629W        W37054  28.077  21.318   1.442
64630W        W37055  35.508  21.782  11.441
64631W        W37056  17.113  35.887   0.229
64632W        W37057  35.566  19.981   3.144
64633W        W37058  42.840   7.654   0.918
64634W        W37059  36.408  22.126  11.054
64635W        W37060  20.242  26.205  14.499
64636W        W37061  23.627   6.455  14.404
64637W        W37062   4.626  15.369  11.519
64638W        W37063  28.403  33.247   2.180
64639W        W37064  11.752  37.907   1.686
64640W        W37065   0.417  29.517   3.660
64641W        W37066  25.141  36.303   2.844
64642W        W37067   0.848   4.190  12.093
64643W        W37068  25.543   6.632   4.140
64644W        W37069  10.572  27.403   4.431
64645W        W37070  14.415  11.766   0.932
64646W        W37071  37.360   0.034  13.854
64647W        W37072  21.740   0.329   0.704
64648W        W37073  34.999  31.477  11.199
64649W        W37074  42.902   4.300  13.870
64650W        W37075  39.112  17.074   4.867
64651W        W37076  24.075  35.078   3.046
64652W        W37077   1.997  15.548  12.262
64653W        W37078  39.901  32.146   2.860
64654W        W37079  40.567  27.148   1.367
64655W        W37080  10.902  28.245  12.477
64656W        W37081  25.673  41.828   0.471
64657W        W37082  19.568  34.568  14.451
64658W        W37083  19.502  16.033  13.024
64659W        W37084  40.551   8.207   0.819
64660W        W37085  10.734  21.066   3.794
64661W        W37086  13.750  31.646  12.108
64662W        W37087   2.995  33.099  13.356
64663W        W37088  41.237  11.594  11.948
64664W        W37089  12.689   3.357   5.340
64665W        W37090  36.619  23.212   4.169
64666W        W37091  33.956  27.010   0.209
64667W        W37092  19.290  33.485  12.659
64668W        W37093  10.379   3.258  14.835
64669W        W37094  11.341  37.456   4.322
64670W        W37095  36.776  18.624  14.503
64671W        W37096  18.166  18.169   0.572
64672W        W37097  19.045  29.573   4.985
64673W        W37098  42.348  40.926   1.719
64674W        W37099  43.601  26.891  14.817
64675W        W37100  19.681  34.054  13.119
64676W        W37101  18.579   3.436  13.496
64677W        W37102  28.575  20.197  11.388
64678W        W37103  21.662   5.331   1.160
64679W        W37104  14.268   9.920  12.898
64680W        W37105  10.305   5.686  11.657
64681W        W37106  13.084  27.374   4.098
64682W        W37107  27.378  19.748  14.350
64683W        W37108  10.426   9.675  12.978
64684W        W37109  38.452   0.289   4.869
64685W        W37110   6.047   4.960   5.172
64686W        W37111  12.772   5.766  10.667
64687W        W37112   0.459  20.268   1.872
64688W        W37113   5.929  19.080   2.576
64689W        W37114  30.019  16.562   1.710
64690W        W37115   4.362  12.639   3.474
64691W        W37116   2.318  28.913  11.539
64692W        W37117  21.715  41.203   2.220
64693W        W37118  25.640  16.865   0.382
64694W        W37119   8.839  35.038   4.771
64695W        W37120  36.554  17.156  14.599
64696W        W37121  13.205  27.544  10.466
64697W        W37122  13.569  32.910  14.330
64698W        W37123   1.022  28.708  14.224
64699W        W37124   2.344  32.004   2.616
64700W        W37125  17.951   4.931   4.150
64701W        W37126   5.943  36.898  13.543
64702W        W37127  35.391   0.243   0.210
64703W        W37128  16.539  43.208  14.407
64704W        W37129  12.410   9.277   3.114
64705W        W37130  25.517  17.710   1.819
64706W        W37131  29.909  30.896   4.668
64707W        W37132  36.049  36.046  12.884
64708W        W37133   3.175   4.919  14.641
64709W        W37134  44.278  39.854   0.484
64710W        W37135  43.584   8.579  13.833
64711W        W37136  16.618   9.258  14.810
64712W        W37137  42.018  23.696  14.254
64713W        W37138  30.838  19.435   4.144
64714W        W37139  38.838  14.684  14.538
64715W        W37140  32.329   0.021   1.442
64716W        W37141  34.909  37.120  14.985
64717W        W37142   7.196  32.137   1.382
64718W        W37143  20.258  17.894  14.449
64719W        W37144  38.641  32.116  10.671
64720W        W37145  17.555   2.355  13.478
64721W        W37146  20.864  18.889   3.702
64722W        W37147   9.216  19.132  12.851
64723W        W37148   7.988  31.428   1.234
64724W        W37149  24.070  31.869   3.143
64725W        W37150   1.719  27.355   2.387
64726W        W37151  43.300  34.918   1.906
64727W        W37152   6.388  38.850  12.865
64728W        W37153  28.149  21.713   3.554
64729W        W37154   3.475  21.957   3.178
64730W        W37155  21.458  17.744   2.672
64731W        W37156  25.686  37.462  14.747
64732W        W37157   9.774   0.723   0.491
64733W        W37158  10.724  40.837  12.468
64734W        W37159   1.229  19.294  11.597
64735W        W37160  13.013  26.880   5.075
64736W        W37161  16.964  17.041  12.588
64737W        W37162  20.071  26.605   2.320
64738W        W37163  28.676  40.393   0.332
64739W        W37164  32.670  31.931   4.380
64740W        W37165  14.006  35.978   2.421
64741W        W37166  35.081  29.373   1.697
64742W        W37167   5.224  22.474  14.580
64743W        W37168   0.893   9.140  12.407
64744W        W37169  18.639  43.945  12.441
64745W        W37170  32.172  37.118   1.208
64746W        W37171  44.859  20.769   4.446
64747W        W37172   2.390  40.068   0.954
64748W        W37173  11.605  29.077  14.377
64749W        W37174   0.342  20.625   2.911
64750W        W37175  28.413  18.147  14.468
64751W        W37176  11.392   6.124   4.895
64752W        W37177   4.301  26.983  10.464
64753W        W37178  33.529  43.259   0.877
64754W        W37179   6.852  29.681  10.373
64755W        W37180  18.715  12.520   3.597
64756W        W37181   3.290   6.960   2.400
64757W        W37182  35.471  16.244   1.449
64758W        W37183  28.072  20.877  14.072
64759W        W37184  37.508  16.187  13.936
64760W        W37185  38.933  41.738  13.419
64761W        W37186  20.512  33.626  14.629
64762W        W37187  30.836  25.009  11.682
64763W        W37188  20.696  32.346   3.411
64764W        W37189  44.966  34.965   1.274
64765W        W37190  17.456  35.338   1.268
64766W        W37191  12.896  20.543   3.698
64767W        W37192  31.442  22.088  11.151
64768W        W37193  14.384  29.914   2.193
64769W        W37194  32.512  23.682   4.209
64770W        W37195  23.963  33.450   4.207
64771W        W37196  26.298  33.101  11.146
64772W        W37197  24.250  21.626  11.248
64773W        W37198  38.370  19.661  10.770
64774W        W37199  40.986  26.636  12.042
64775W        W37200   6.457  25.237  12.544
64776W        W37201  10.691  35.052   3.825
64777W        W37202  30.963  22.834  10.957
64778W        W37203   6.402  21.933  13.346
64779W        W37204  31.849   1.385  14.846
64780W        W37205  11.196  11.247   1.640
64781W        W37206  12.224  15.665  13.531
64782W        W37207  19.242   7.664   4.533
64783W        W37208  16.213  24.349  14.026
64784W        W37209  39.029  10.940   1.955
64785W        W37210  25.032  22.046   0.293
64786W        W37211  14.838   9.401  11.502
64787W        W37212  37.907  36.026   3.684
64788W        W37213  43.797   6.056   0.379
64789W        W37214   0.513  30.441   0.365
64790W        W37215  12.810  10.594   0.430
64791W        W37216  26.111   7.305  10.638
64792W        W37217  19.804  40.576  12.313
64793W        W37218  19.696  44.830  14.670
64794W        W37219  44.000  44.870  13.143
64795W        W37220  25.522  35.329  11.673
64796W        W37221  13.075   6.949   4.477
64797W        W37222  24.536  26.087   1.335
64798W        W37223   9.642   5.807   3.331
64799W        W37224  15.279  22.090  12.933
64800W        W37225   3.819  17.522  10.606
64801W        W37226  14.310   8.817   0.709
64802W        W37227  17.113  12.176   0.716
64803W        W37228  15.602   5.884  14.422
64804W        W37229  18.326  21.657  11.870
64805W        W37230   2.033   2.188  12.999
64806W        W37231   4.579  18.545  10.332
64807W        W37232  40.038  13.128   4.135
64808W        W37233  44.951   2.271   4.385
64809W        W37234   8.557  30.505   1.150
64810W        W37235  40.189  32.374   1.642
64811W        W37236  43.415   1.963   4.869
64812W        W37237  20.054  10.460  14.969
64813W        W37238  22.637  33.659   2.876
64814W        W37239  15.601   8.618  14.890
64815W        W37240  24.641  22.343   0.467
64816W        W37241  27.437  14.172  14.278
64817W        W37242  44.337  28.440   2.734
64818W        W37243  43.588  30.996  13.348
64819W        W37244  33.939  12.763   2.945
64820W        W37245  28.208   3.226  12.462
64821W        W37246  21.806  27.550  14.824
64822W        W37247  21.497  11.086  13.925
64823W        W37248   9.635  20.872   3.690
64824W        W37249  24.483  34.019  13.881
64825W        W37250  25.430  19.524  12.517
64826W        W37251  42.753  32.249  12.857
64827W        W37252   7.102  22.010   4.057
64828W        W37253   4.909  29.513  11.400
64829W        W37254  22.761  40.360   0.936
64830W        W37255   7.338  34.192   4.557
64831W        W37256  42.509  22.147  10.540
64832W        W37257  33.105  18.182   2.888
64833W        W37258  25.145  21.230  14.428
64834W        W37259  36.795  15.248   1.867
64835W        W37260   0.163   5.737   1.786
64836W        W37261   3.361   6.722  12.229
64837W        W37262  30.414  25.262  11.123
64838W        W37263  14.444   3.771   5.753
64839W        W37264   6.721  22.361   4.052
64840W        W37265  31.361  21.649   2.204
64841W        W37266  23.766   0.462   4.137
64842W        W37267  19.193  37.909  14.179
64843W        W37268  26.906  22.014  14.478
64844W        W37269   1.999  41.963   0.816
64845W        W37270  35.057  35.330   3.677
64846W        W37271  37.114  26.009   3.229
64847W        W37272  36.566  14.773   3.778
64848W        W37273  28.558  38.183  12.970
64849W        W37274  29.420  10.875   2.818
64850W        W37275  27.473  27.625   0.247
64851W        W37276  36.045  26.447   0.400
64852W        W37277  28.580  25.006  14.402
64853W        W37278   9.630  42.399   3.241
64854W        W37279  15.559  13.025   4.956
64855W        W37280  10.709  14.224   3.438
64856W        W37281  19.731  13.032  13.069
64857W        W37282   8.746  33.898  13.548
64858W        W37283   1.792  41.920  11.793
64859W        W37284  37.915  36.947  12.399
64860W        W37285  16.116  41.542  13.740
64861W        W37286  13.768   5.702   3.546
64862W        W37287  33.935  38.469   2.339
64863W        W37288  37.018  38.271   4.237
64864W        W37289  15.158  21.497   2.385
64865W        W37290  41.938  42.543  13.959
64866W        W37291  35.182  37.636  13.824
64867W        W37292  43.968  20.715   3.902
64868W        W37293  37.133  15.522  10.626
64869W        W37294  26.188  31.946   2.853
64870W        W37295  39.971  16.303   0.738
64871W        W37296  11.877  33.930  11.495
64872W        W37297  34.709  44.759  14.726
64873W        W37298  22.122  41.283   1.222
64874W        W37299  39.408   2.898  14.336
64875W        W37300  15.016   0.013   3.418
64876W        W37301  16.780  22.306  12.776
64877W        W37302  32.020   1.891  10.675
64878W        W37303   5.631  30.896   1.284
64879W        W37304  33.797  29.924   1.402
64880W        W37305  35.437   7.867  12.576
64881W        W37306  32.528  38.514  11.616
64882W        W37307  33.200  42.255   0.316
64883W        W37308  18.779  41.368  14.432
64884W        W37309  33.625   3.234  12.791
64885W        W37310  14.758   3.811  10.287
64886W        W37311  25.865  19.763   3.683
64887W        W37312  28.165  11.138   2.711
64888W        W37313  44.861   0.767   2.431
64889W        W37314  30.328  32.059  14.955
64890W        W37315  28.157  36.992   2.856
64891W        W37316  20.965   3.935  13.594
64892W        W37317   6.651  21.232   2.709
64893W        W37318  12.726  31.832   2.322
64894W        W37319  31.388   4.897   0.816
64895W        W37320  14.111  20.724  14.490
64896W        W37321  40.449  21.660   9.512
64897W        W37322  37.486   0.982   1.205
64898W        W37323  40.055  35.893   2.215
64899W        W37324  17.694  26.184   4.505
64900W        W37325   4.990  35.121  13.414
64901W        W37326  15.994   3.638  14.811
64902W        W37327  34.696   6.722  10.029
64903W        W37328  29.943  27.159  13.495
64904W        W37329  43.046  26.449   3.670
64905W        W37330  26.185  38.445  10.709
64906W        W37331  28.734   4.669  13.121
64907W        W37332   3.331  22.913  10.179
64908W        W37333  16.142  12.471  12.064
64909W        W37334   7.751  38.799  14.013
64910W        W37335  23.611  19.938  10.911
64911W        W37336  11.746  19.563  13.011
64912W        W37337   5.469  38.381  13.567
64913W        W37338  42.700   2.929  13.947
64914W        W37339  10.261  30.935  14.912
64915W        W37340  19.996   7.782  10.708
64916W        W37341  36.815  32.972  14.877
64917W        W37342  23.961  33.400  11.555
64918W        W37343  41.882  42.904   0.743
64919W        W37344   2.614  22.579   0.294
64920W        W37345  36.479  28.162   9.766
64921W        W37346  17.147  26.464   0.785
64922W        W37347   5.417  30.122   4.177
64923W        W37348  21.138  37.192   1.862
64924W        W37349  21.122   9.127   4.614
64925W        W37350  28.444   9.317  13.989
64926W        W37351  27.060   0.199  11.381
64927W        W37352  37.674   1.371  10.338
64928W        W37353  37.727  14.526   3.300
64929W        W37354  32.402  33.577   2.728
64930W        W37355   3.374  23.085   0.431
64931W        W37356  23.463  21.589  10.336
64932W        W37357   0.471   1.764  10.389
64933W        W37358  13.005  20.859   2.244
64934W        W37359  21.333  19.705  13.006
64935W        W37360  25.608  40.118   1.396
64936W        W37361  31.373  13.616   0.676
64937W        W37362  25.868  29.717  14.361
64938W        W37363   3.352  16.717  11.312
64939W        W37364   7.057  27.785  13.511
64940W        W37365  30.649   0.950  11.072
64941W        W37366  36.692  42.426   4.565
64942W        W37367  16.344  22.192   0.322
64943W        W37368   3.865  27.749  14.272
64944W        W37369  19.511  14.196   4.662
64945W        W37370  35.982  29.503  11.144
64946W        W37371  29.346  14.753  10.800
64947W        W37372  32.375  35.772  12.863
64948W        W37373  37.343  31.256   4.590
64949W        W37374  39.414  24.728  12.211
64950W        W37375  28.194  15.253   4.244
64951W        W37376  21.163  21.522   3.096
64952W        W37377  18.839   3.193   1.302
64953W        W37378  36.342   4.950   2.216
64954W        W37379  35.796   7.363   1.064
64955W        W37380  27.634  17.499   0.443
64956W        W37381  17.766  37.328  14.362
64957W        W37382  25.982  27.235  13.794
64958W        W37383  36.112  36.085   3.796
64959W        W37384   0.009  13.849  14.996
64960W        W37385  16.196  23.470  14.122
64961W        W37386   5.933   7.468   0.845
64962W        W37387  36.548  27.702   2.805
64963W        W37388   4.252  23.024   1.961
64964W        W37389   0.873  40.314   1.597
64965W        W37390  17.272   2.330  14.034
64966W        W37391  18.004  42.445   0.685
64967W        W37392  36.966  41.974   4.618
64968W        W37393  14.104  17.093   0.467
64969W        W37394  18.652  44.852   2.327
64970W        W37395   2.514  29.973   2.662
64971W        W37396  21.465  22.561  13.416
64972W        W37397   1.178  38.805   4.127
64973W        W37398  39.527  44.759   3.704
64974W        W37399  39.537  26.817   2.862
64975W        W37400  25.722  36.167  12.131
64976W        W37401  43.492  34.448  13.465
64977W        W37402  30.513  15.875  10.881
64978W        W37403   3.335  25.463  11.711
64979W        W37404  15.706  32.671   3.480
64980W        W37405  17.376  11.363   0.720
64981W        W37406   4.484  34.110  12.900
64982W        W37407  17.169  21.837   4.068
64983W        W37408  28.959  27.573  10.652
64984W        W37409  19.786  13.231   2.657
64985W        W37410  26.183  30.531   3.230
64986W        W37411   5.284  31.366   3.175
64987W        W37412  24.918   9.725  14.395
64988W        W37413  37.666  27.875  13.831
64989W        W37414  21.264   1.332   0.956
64990W        W37415  36.633  28.280  12.992
64991W        W37416  38.344  21.638   3.778
64992W        W37417  36.795  29.452   1.147
64993W        W37418  37.435  36.311  11.044
64994W        W37419   7.720  40.874  11.332
64995W        W37420  16.040  33.459  10.609
64996W        W37421  34.554  25.719  11.859
64997W        W37422  15.274  14.772   4.894
64998W        W37423  38.894  10.887   4.190
64999W        W37424   7.810  43.245  11.231
65000W        W37425   7.657  32.861  12.593
65001W        W37426  28.630  30.896  12.429
65002W        W37427  37.947  32.485  14.010
65003W        W37428  33.591  23.474   4.927
65004W        W37429   9.294  42.849   4.658
65005W        W37430  16.876  43.590   3.612
65006W        W37431  31.605  42.832   0.964
65007W        W37432   9.890   7.141  11.620
65008W        W37433  35.889  22.290  12.616
65009W        W37434  37.503   3.247   3.676
65010W        W37435  43.479  41.792   1.898
65011W        W37436  40.578  36.874   2.966
65012W        W37437  40.081  35.205   1.569
65013W        W37438  19.772  32.868   2.359
65014W        W37439  33.600  16.807   1.329
65015W        W37440  38.329   8.419  11.571
65016W        W37441  40.757   1.385   2.369
65017W        W37442  40.812   8.889   0.313
65018W        W37443  43.959   7.713   1.982
65019W        W37444  43.057   7.766   1.376
65020W        W37445  28.982   0.766   0.937
65021W        W37446  44.330  34.318  11.715
65022W        W37447  25.094  19.269   0.394
65023W        W37448  38.008  16.213  14.880
65024W        W37449  36.292  35.159  12.958
65025W        W37450  24.684   4.272   0.338
65026W        W37451  16.616   5.962  13.844
65027W        W37452  10.786  42.727  13.944
65028W        W37453   0.527  40.627   4.503
65029W        W37454  40.620  34.100  14.537
65030W        W37455  14.467  22.955   1.463
65031W        W37456  19.384  28.625   1.623
65032W        W37457  10.865  34.122   1.949
65033W        W37458  31.236   4.446   4.471
65034W        W37459   7.456  43.269  12.339
65035W        W37460  13.749  33.613  11.548
65036W        W37461  32.397  11.175   0.256
65037W        W37462  37.797  33.552   3.693
65038W        W37463  19.855  21.503  14.391
65039W        W37464  12.836  18.072   4.571
65040W        W37465  13.482  37.419  11.178
65041W        W37466   0.992  25.045   4.171
65042W        W37467  37.189  42.166   0.694
65043W        W37468  20.048  26.078  14.939
65044W        W37469   3.399   0.693   1.629
65045W        W37470  30.883  34.974  13.546
65046W        W37471  16.267  38.694   3.412
65047W        W37472  13.468  11.239  14.335
65048W        W37473  37.815  26.847   0.045
65049W        W37474  23.003  25.859   0.758
65050W        W37475  10.300  38.754  11.494
65051W        W37476  34.391  44.642   3.425
65052W        W37477  14.708  16.760   1.780
65053W        W37478  41.597   2.399  13.399
65054W        W37479  39.927  23.726  14.586
65055W        W37480   7.647   4.174   3.212
65056W        W37481  30.622  34.688   3.867
65057W        W37482  44.228   7.439   4.577
65058W        W37483  13.194  28.716   2.679
65059W        W37484  30.008   9.183  12.172
65060W        W37485  25.731   0.443   0.362
65061W        W37486  37.865   5.715   2.805
65062W        W37487  44.803  16.543  10.555
65063W        W37488   9.194   6.654   3.701
65064W        W37489   7.652  14.111  14.946
65065W        W37490  31.988   8.257  12.237
65066W        W37491  26.042  11.704  11.645
65067W        W37492  13.229  39.471  13.287
65068W        W37493  31.725  34.593   3.781
65069W        W37494  11.625   8.480  11.920
65070W        W37495  39.082  19.915   0.042
65071W        W37496   9.398   9.581   1.356
65072W        W37497  39.997  10.425   3.986
65073W        W37498  11.125   0.750   4.877
65074W        W37499  22.530   0.782  13.463
65075W        W37500  28.600  36.665   1.680
65076W        W37501   5.771  28.449   3.886
65077W        W37502  15.060  25.659  12.845
65078W        W37503  15.815  43.229  14.779
65079W        W37504   0.919  34.511   9.970
65080W        W37505  41.031   3.043   3.101
65081W        W37506  32.638  11.600   2.584
65082W        W37507  31.911  36.435  12.092
65083W        W37508  15.938   0.213   1.252
65084W        W37509  32.478  30.348   1.429
65085W        W37510  41.266   4.985   4.160
65086W        W37511   8.176  14.732  12.510
65087W        W37512   0.736  41.422   4.138
65088W        W37513   7.982  41.100   1.457
65089W        W37514   2.995  31.553  13.433
65090W        W37515  38.803  31.116   5.105
65091W        W37516  20.078  12.059   2.320
65092W        W37517  12.004  28.906  10.791
65093W        W37518  11.354  13.605   1.216
65094W        W37519  25.537   1.616   1.831
65095W        W37520  29.068  32.488   2.344
65096W        W37521  26.203  37.921   0.360
65097W        W37522  27.715  42.962   4.187
65098W        W37523  24.423  39.044  11.391
65099W        W37524   6.411  23.076   1.288
65100W        W37525   5.603  34.373   4.034
65101W        W37526  20.486   3.873   3.287
65102W        W37527  16.715  16.283  10.730
65103W        W37528   3.999  37.882  10.855
65104W        W37529  35.950  29.145   0.523
65105W        W37530  20.105  43.423  11.965
65106W        W37531  32.414   2.306   0.433
65107W        W37532  31.855  25.646   2.734
65108W        W37533  31.478  30.457   4.770
65109W        W37534  17.567  37.461  14.844
65110W        W37535  21.139  34.687   1.862
65111W        W37536  39.904   3.437   4.518
65112W        W37537  43.326   1.646  14.415
65113W        W37538  14.204   6.446  10.641
65114W        W37539  11.917   2.239  11.241
65115W        W37540   3.297   8.745  12.389
65116W        W37541   6.724  23.613   3.684
65117W        W37542  18.023   0.974   3.811
65118W        W37543   5.461  33.117  14.756
65119W        W37544  35.142  32.469   3.846
65120W        W37545  42.323  42.583   0.016
65121W        W37546  26.887  41.373   3.242
65122W        W37547   8.709  39.971  13.528
65123W        W37548  35.459  35.390   0.912
65124W        W37549  31.914  33.072   0.262
65125W        W37550   7.039  13.876  11.224
65126W        W37551  23.607  36.095   1.797
65127W        W37552  28.509  32.952   4.384
65128W        W37553  44.872  22.689   4.884
65129W        W37554  27.546  12.315   3.907
65130W        W37555  37.887   4.443   0.370
65131W        W37556  37.858  44.489   3.280
65132W        W37557  26.669  26.011  10.453
65133W        W37558   8.632  12.629  14.583
65134W        W37559  19.231  13.070  10.678
65135W        W37560  30.687  24.449  13.081
65136W        W37561  43.716   1.810   3.109
65137W        W37562  23.885  39.852   5.006
65138W        W37563  40.581   2.821   3.738
65139W        W37564  42.336   3.943  11.643
65140W        W37565  12.066  32.437   1.224
65141W        W37566   0.250  13.267   3.709
65142W        W37567   0.151  33.515  13.044
65143W        W37568  38.414  26.721   3.684
65144W        W37569  37.512  22.119  13.720
65145W        W37570  41.188  35.138   4.149
65146W        W37571   5.723  35.082  11.135
65147W        W37572   4.361   4.757   0.841
65148W        W37573  44.235  35.011   0.294
65149W        W37574  11.834   4.359   0.949
65150W        W37575   6.821  15.540  12.036
65151W        W37576  33.512  17.354  12.923
65152W        W37577   6.806   0.010  11.008
65153W        W37578   9.194  40.520  13.033
65154W        W37579   7.899  16.204   0.392
65155W        W37580  37.444  24.420   0.864
65156W        W37581   8.813  27.118   1.781
65157W        W37582  24.089  43.225  14.836
65158W        W37583  33.346  44.975   2.177
65159W        W37584  15.719  11.622  12.499
65160W        W37585   7.964  44.109  14.427
65161W        W37586  22.198  30.663  11.401
65162W        W37587  22.591   9.019   4.171
65163W        W37588  10.428  37.896  11.345
65164W        W37589   2.227  31.038   4.979
65165W        W37590  21.697  38.924   1.490
65166W        W37591  20.752   3.385   2.005
65167W        W37592   7.017  10.664   2.372
65168W        W37593  44.945  43.855   3.176
65169W        W37594  36.032  12.026  12.480
65170W        W37595  37.601   9.176  11.899
65171W        W37596  18.800   9.323  13.877
65172W        W37597  14.160   6.853   3.108
65173W        W37598  11.133  37.777  12.989
65174W        W37599  31.552  36.575   4.049
65175W        W37600  10.238  30.094  13.835
65176W        W37601  29.757  16.316   2.224
65177W        W37602  38.607  15.805   4.565
65178W        W37603  27.139  39.951   4.767
65179W        W37604   9.457  17.578   4.117
65180W        W37605  40.394   5.193   2.582
65181W        W37606  43.831  15.397  12.848
65182W        W37607  29.088  22.618   3.773
65183W        W37608  40.044  44.415   2.356
65184W        W37609  36.488  37.138  12.470
65185W        W37610  11.665  40.532  11.608
65186W        W37611  11.277  32.033   1.713
65187W        W37612  40.415  38.202   1.944
65188W        W37613   2.862  42.447   1.904
65189W        W37614  40.809  33.383  12.883
65190W        W37615   5.251  32.034   3.658
65191W        W37616  19.687  29.591   2.837
65192W        W37617  10.213  37.050   0.980
65193W        W37618  11.534  20.961   2.641
65194W        W37619  39.705  28.945   2.421
65195W        W37620  23.610  26.537   4.264
65196W        W37621  22.251  11.595  11.892
65197W        W37622  21.133  21.768   4.243
65198W        W37623  23.471  17.936   3.724
65199W        W37624  37.118  44.265   3.695
65200W        W37625  13.839   7.411  12.811
65201W        W37626  38.449  37.928   3.637
65202W        W37627  19.670  34.840   4.555
65203W        W37628   2.869  10.770   4.563
65204W        W37629  28.656  15.219  13.876
65205W        W37630  36.294   5.447   3.385
65206W        W37631  33.594  39.934   4.740
65207W        W37632  24.051  18.092  11.612
65208W        W37633  32.971  40.832  11.560
65209W        W37634  26.510  34.328  12.902
65210W        W37635  41.245  36.781   0.662
65211W        W37636   1.975   3.260  13.889
65212W        W37637   0.211  31.887   3.773
65213W        W37638  28.871  12.343   2.348
65214W        W37639  10.254  19.118   4.463
65215W        W37640  36.058  38.407   4.647
65216W        W37641  34.329   9.205  11.215
65217W        W37642  31.156   6.276  11.638
65218W        W37643  14.632  39.756   2.712
65219W        W37644  38.509   4.036  10.960
65220W        W37645  14.218   9.854  14.709
65221W        W37646  30.090   1.904   2.210
65222W        W37647  15.693  28.421  12.563
65223W        W37648  10.803  10.168  14.109
65224W        W37649   8.109  33.495  14.980
65225W        W37650   9.461  25.520  12.814
65226W        W37651  24.203  15.481  13.515
65227W        W37652  21.120  18.499   3.502
65228W        W37653  36.480  12.102   1.381
65229W        W37654   3.707   3.863   0.007
65230W        W37655  17.656  20.599  12.823
65231W        W37656  16.462   1.279   0.763
65232W        W37657  18.315  16.375   0.238
65233W        W37658  30.620   6.155  12.909
65234W        W37659  27.522  43.918   4.169
65235W        W37660  33.556  28.937  14.107
65236W        W37661   0.539  32.355   4.590
65237W        W37662  22.546  19.809  11.174
65238W        W37663  23.912  35.878  12.373
65239W        W37664  44.809   9.276   1.910
65240W        W37665  29.936   3.015  10.867
65241W        W37666  29.196  17.811  10.498
65242W        W37667  18.841  23.118   1.868
65243W        W37668   6.852  30.521  12.916
65244W        W37669   4.202   9.203  10.382
65245W        W37670  38.003  19.552  13.608
65246W        W37671  44.841   3.658   3.334
65247W        W37672   7.676  19.480   3.774
65248W        W37673  22.971  20.336   2.799
65249W        W37674   1.081  30.037  10.570
65250W        W37675  36.965  25.961   2.387
65251W        W37676   6.308  18.783   3.792
65252W        W37677  22.991   6.361   0.305
65253W        W37678  19.672   8.756   4.093
65254W        W37679  40.012   7.661  13.894
65255W        W37680  38.285  23.744   2.276
65256W        W37681  41.158  10.683  12.917
65257W        W37682  24.300  40.777   0.413
65258W        W37683  38.323  42.062   4.366
65259W        W37684  25.642   7.418   1.872
65260W        W37685  35.769   9.622   3.828
65261W        W37686  43.812  36.951   2.380
65262W        W37687  11.063  34.957   2.366
65263W        W37688   1.980  29.912  13.382
65264W        W37689  28.566  15.578   0.350
65265W        W37690  19.527   5.492  11.085
65266W        W37691  22.057  20.276  13.057
65267W        W37692  33.746  44.316   4.179
65268W        W37693  27.981  30.097   3.869
65269W        W37694  16.823  37.591   4.239
65270W        W37695  32.777   5.253  13.871
65271W        W37696  34.487   5.444   4.329
65272W        W37697  21.526  36.356   3.720
65273W        W37698  33.026  42.307   1.753
65274W        W37699  17.221  17.837  13.777
65275W        W37700  34.955  42.042   0.668
65276W        W37701  10.307   3.906   1.530
65277W        W37702  40.777  23.599  11.441
65278W        W37703  35.372  34.570  11.146
65279W        W37704  17.156  15.585   4.825
65280W        W37705  14.659  22.501   3.678
65281W        W37706   2.959   0.786   0.505
65282W        W37707  19.370  36.528  12.504
65283W        W37708  41.836  12.072  12.066
65284W        W37709  11.494  44.875   2.420
65285W        W37710   7.682   7.207  13.142
65286W        W37711  32.388  21.739   2.256
65287W        W37712  36.893  19.584   3.646
65288W        W37713   9.625   3.208   3.613
65289W        W37714   9.814  42.895   4.776
65290W        W37715  39.797  13.666   0.779
65291W        W37716  38.640  17.069  12.622
65292W        W37717  38.285  18.602  13.496
65293W        W37718  29.511  14.737   0.508
65294W        W37719   0.226  43.510   2.918
65295W        W37720  16.651  10.549  14.111
65296W        W37721   9.812  13.688  10.394
65297W        W37722  42.432   9.258  14.585
65298W        W37723  11.363  37.546  13.395
65299W        W37724  26.577   6.939  12.539
65300W        W37725  41.769  17.538   3.211
65301W        W37726  41.541  40.966   4.114
65302W        W37727  32.389  41.099  12.436
65303W        W37728  35.657  44.738   4.502
65304W        W37729  33.207  20.209  11.130
65305W        W37730   3.958   1.832   0.278
65306W        W37731  37.131  43.401  14.418
65307W        W37732   7.037  31.034   1.669
65308W        W37733  26.738  32.895  14.011
65309W        W37734  27.166  12.326  13.402
65310W        W37735  22.301  37.048  13.137
65311W        W37736  29.664  27.187  12.403
65312W        W37737  34.525   6.504  13.095
65313W        W37738   5.785  42.518   0.019
65314W        W37739  37.007   7.362   2.313
65315W        W37740  16.260  16.368  11.973
65316W        W37741  40.248   0.309  12.065
65317W        W37742  19.589  29.315  11.631
65318W        W37743  28.137   6.356   0.482
65319W        W37744   2.012  18.823   4.230
65320W        W37745  12.802  30.637   4.357
65321W        W37746  37.197  42.541  14.838
65322W        W37747  30.928  38.323   2.049
65323W        W37748  32.109  11.311  14.840
65324W        W37749  23.120   6.006   2.573
65325W        W37750  12.199   1.818  11.360
65326W        W37751   3.859  31.389   4.752
65327W        W37752  40.431   8.614  14.280
65328W        W37753  39.415  44.009   4.953
65329W        W37754  33.554  15.843   1.368
65330W        W37755  12.230  30.372  13.923
65331W        W37756  35.665  18.005  11.009
65332W        W37757   2.788  10.906   0.284
65333W        W37758   3.327   1.912   0.972
65334W        W37759  20.562  24.048  12.538
65335W        W37760   1.773  31.259   2.432
65336W        W37761  36.429  28.999  12.399
65337W        W37762  11.326   0.253  11.467
65338W        W37763  23.027  29.839   3.319
65339W        W37764  18.614  11.687   2.784
65340W        W37765  17.401  24.994   3.691
65341W        W37766  35.122  31.498  14.006
65342W        W37767  25.703  23.921  13.206
65343W        W37768  10.334  15.078  14.891
65344W        W37769  10.316  38.796  12.982
65345W        W37770   2.671  22.405   3.622
65346W        W37771  14.638  37.665   3.139
65347W        W37772  34.604  38.919   0.452
65348W        W37773   5.260  13.099  13.913
65349W        W37774  20.038   9.910  14.979
65350W        W37775  17.686   5.317  10.662
65351W        W37776  30.752  40.525  10.933
65352W        W37777  12.896  14.639   0.815
65353W        W37778   8.525   4.814   2.191
65354W        W37779  27.451  38.264   4.703
65355W        W37780  39.462   2.759   0.718
65356W        W37781  11.738  29.250   0.820
65357W        W37782  16.587  32.062   2.950
65358W        W37783  20.829  29.192   2.333
65359W        W37784  33.437  34.334   4.306
65360W        W37785  25.646  34.335   2.254
65361W        W37786   9.313  40.367   1.974
65362W        W37787  40.350  22.165  14.982
65363W        W37788  41.039  34.597   0.132
65364W        W37789  32.102  23.589  13.804
65365W        W37790   9.175  44.761  12.309
65366W        W37791  10.335  25.029   1.405
65367W        W37792  23.788  12.384   5.033
65368W        W37793  14.136  13.629   2.224
65369W        W37794  33.609  36.068  12.797
65370W        W37795  23.540  13.848   4.272
65371W        W37796   4.352  16.542   1.237
65372W        W37797   1.764  22.030   2.744
65373W        W37798  16.066  36.577  13.894
65374W        W37799  39.905  36.038  11.158
65375W        W37800  13.287  30.653   1.885
65376W        W37801  44.526  44.316  10.328
65377W        W37802  11.993  16.938  12.137
65378W        W37803   1.782  41.728   1.404
65379W        W37804  12.815   2.455   0.549
65380W        W37805  18.484  12.291   4.433
65381W        W37806   2.200  25.183  13.495
65382W        W37807  16.424  30.075   3.369
65383W        W37808  28.974  35.956   4.596
65384W        W37809  36.515   9.191  14.959
65385W        W37810   4.899   6.606  11.684
65386W        W37811   9.443   0.942  10.864
65387W        W37812  33.157  27.560  14.999
65388W        W37813  23.569  36.513  11.542
65389W        W37814  22.954  43.763   3.152
65390W        W37815   4.642  18.368   1.585
65391W        W37816  35.135  15.414   2.196
65392W        W37817  12.907  22.578  10.294
65393W        W37818  14.549  14.840  13.291
65394W        W37819  22.479  38.955  14.428
65395W        W37820  20.939  36.738  14.115
65396W        W37821  19.897  23.555  14.079
65397W        W37822  21.591  32.431  13.317
65398W        W37823  15.525  10.889  13.056
65399W        W37824  42.925   8.685   1.254
65400W        W37825  16.113   8.664   4.665
65401W        W37826  30.503  27.897  14.964
65402W        W37827  15.807  19.514  13.392
65403W        W37828  43.856  42.717  13.233
65404W        W37829   0.698  15.093   4.575
65405W        W37830  22.671  29.296   2.787
65406W        W37831  22.470  43.845  14.764
65407W        W37832  41.757   3.305  11.105
65408W        W37833  20.163  17.500   1.648
65409W        W37834  20.659   2.324  14.860
65410W        W37835  17.049  22.636  13.517
65411W        W37836  35.175  39.834   4.188
65412W        W37837  33.750   0.260  14.525
65413W        W37838  16.764   2.365  13.996
65414W        W37839  36.411   1.769   1.427
65415W        W37840  28.906  39.826   1.329
65416W        W37841  22.958   5.789  11.176
65417W        W37842  40.056  15.890   1.639
65418W        W37843  24.605  14.852  13.942
65419W        W37844  28.977  39.423   1.655
65420W        W37845  40.479   6.484  12.145
65421W        W37846  43.389   6.359   1.126
65422W        W37847  26.176  29.352  11.019
65423W        W37848  31.033  25.969   2.701
65424W        W37849   5.733  36.511   0.264
65425W        W37850  21.825   8.692  12.135
65426W        W37851  14.583  16.862   3.724
65427W        W37852   7.713  28.985   1.021
65428W        W37853  38.325   6.657   4.330
65429W        W37854  30.906  24.233  14.933
65430W        W37855  36.521  33.386   3.923
65431W        W37856  34.941   2.280  10.795
65432W        W37857  23.939  38.303  10.501
65433W        W37858  17.780  13.935  12.103
65434W        W37859   8.806   9.154   1.649
65435W        W37860   5.691  38.554   4.342
65436W        W37861  33.385   1.782   5.122
65437W        W37862  35.059  11.903   3.140
65438W        W37863   2.085  35.407  13.091
65439W        W37864   1.840   4.389  11.574
65440W        W37865   2.222   0.198   1.464
65441W        W37866  40.499  31.706  10.733
65442W        W37867   0.195   3.904  13.303
65443W        W37868  22.186   3.299   1.962
65444W        W37869  13.267   7.167  11.121
65445W        W37870  30.153  31.073   1.310
65446W        W37871  30.857  21.705   2.273
65447W        W37872  34.366   0.826  14.892
65448W        W37873  31.861  32.002  14.057
65449W        W37874  30.709   9.311   2.255
65450W        W37875   7.459  27.025   3.254
65451W        W37876  28.417  18.725   4.127
65452W        W37877   7.314  21.829   1.389
65453W        W37878  37.179   8.266   5.229
65454W        W37879  25.348  39.761   5.115
65455W        W37880  29.459  31.365  10.684
65456W        W37881   0.430  17.012  14.468
65457W        W37882  12.688  44.258  14.731
65458W        W37883   7.155  30.976  12.980
65459W        W37884   8.285  17.303  13.803
65460W        W37885  37.436  32.937   0.330
65461W        W37886  22.351   2.190   0.296
65462W        W37887  33.732  40.622   0.375
65463W        W37888  25.124  40.281   1.480
65464W        W37889  36.106  12.624  11.168
65465W        W37890  31.995  40.435  11.643
65466W        W37891   3.422  14.103  11.493
65467W        W37892  35.896  11.788   4.158
65468W        W37893   4.289   0.334  14.429
65469W        W37894  39.658  15.495  14.221
65470W        W37895  14.543  13.525   3.185
65471W        W37896  22.164  38.322  12.876
65472W        W37897  36.928   8.639   0.334
65473W        W37898   5.658  19.151   2.110
65474W        W37899   7.729  19.802  12.241
65475W        W37900   6.925  16.303  12.492
65476W        W37901  42.843  42.905   3.371
65477W        W37902   3.192  38.870   2.632
65478W        W37903  17.576  37.072  11.192
65479W        W37904  21.191   6.731  14.798
65480W        W37905  32.659   4.894   0.217
65481W        W37906  21.190   0.805  12.043
65482W        W37907   2.219  33.369   3.697
65483W        W37908  39.650  42.988  13.865
65484W        W37909  13.513  23.214   2.337
65485W        W37910  41.381   6.071  11.968
65486W        W37911  24.242   7.472   2.362
65487W        W37912  11.590   2.024  12.564
65488W        W37913  19.856  20.700   1.464
65489W        W37914   2.845   5.126  11.922
65490W        W37915   2.371   7.924  12.447
65491W        W37916  13.367  25.035   2.235
65492W        W37917  24.070  31.602  14.741
65493W        W37918  43.577  37.567   2.972
65494W        W37919   9.482  22.611   2.222
65495W        W37920   4.139  14.702  11.236
65496W        W37921  18.790  25.490   2.825
65497W        W37922   6.176  33.511   4.502
65498W        W37923  35.151   8.864  14.709
65499W        W37924   1.553   0.290  14.887
65500W        W37925  28.176  18.109   4.872
65501W        W37926  18.956  27.050  12.127
65502W        W37927  18.604  36.058   4.990
65503W        W37928  40.019  13.179   3.246
65504W        W37929   2.251  14.368   0.927
65505W        W37930   1.263  20.046   0.495
65506W        W37931  39.485  34.002   1.783
65507W        W37932  27.028  35.499  14.283
65508W        W37933   1.986  21.674  14.136
65509W        W37934  27.949  37.736   2.214
65510W        W37935  11.536   0.369   0.398
65511W        W37936  34.796   8.671  11.132
65512W        W37937  13.322   8.694   4.125
65513W        W37938  34.569  34.158   1.624
65514W        W37939  31.925   6.754  11.620
65515W        W37940  12.053  41.028   3.622
65516W        W37941  29.146   5.419  11.833
65517W        W37942  19.216  13.816   0.540
65518W        W37943  33.264   3.297  10.671
65519W        W37944  32.426  33.830   2.272
65520W        W37945  10.951  22.912  14.870
65521W        W37946   6.367  21.730   3.382
65522W        W37947  27.434  31.968  11.350
65523W        W37948  42.949  20.161  14.010
65524W        W37949  23.002  38.889   0.718
65525W        W37950  23.156  36.013  13.547
65526W        W37951  31.699   5.326  11.537
65527W        W37952  25.102   6.151   1.448
65528W        W37953  32.672  25.627   4.696
65529W        W37954  41.835  19.546   4.220
65530W        W37955  40.781  14.255   2.419
65531W        W37956  34.708  13.017  11.143
65532W        W37957  31.729  34.218  12.854
65533W        W37958   9.383  15.076  10.519
65534W        W37959  38.889  11.077  12.022
65535W        W37960  10.894  28.529  12.987
65536W        W37961  40.294  16.775  11.489
65537W        W37962   7.231  40.191  13.560
65538W        W37963  32.378  26.279  11.207
65539W        W37964  41.382  12.581   2.729
65540W        W37965  44.826  13.109   0.794
65541W        W37966  36.373  34.346  10.986
65542W        W37967  25.469  10.663   3.837
65543W        W37968  11.615  32.514  12.036
65544W        W37969   9.779  37.400  11.237
65545W        W37970  20.187  41.804   4.907
65546W        W37971  28.350  44.797  10.725
65547W        W37972  34.675  43.396   4.666
65548W        W37973  18.322  27.816   2.065
65549W        W37974  19.909  31.798   3.364
65550W        W37975  13.283  12.524   2.394
65551W        W37976  32.123  23.713   0.018
65552W        W37977  16.148  24.978  12.853
65553W        W37978  40.071   8.230  11.568
65554W        W37979   9.347  13.590  13.356
65555W        W37980  13.775  19.323   0.495
65556W        W37981  30.497  16.617   0.062
65557W        W37982  28.688  15.846   2.640
65558W        W37983  33.882  40.539  11.156
65559W        W37984   4.278   4.160  13.202
65560W        W37985   2.321  25.067   2.683
65561W        W37986  26.509  16.157   1.217
65562W        W37987  43.728  32.504   0.442
65563W        W37988  27.153  44.988   0.532
65564W        W37989  22.646  10.585  13.246
65565W        W37990   4.183   6.720   3.612
65566W        W37991  36.351  30.864  11.671
65567W        W37992  43.006  22.940   2.757
65568W        W37993  40.578   1.454  13.311
65569W        W37994  42.267  26.951  11.437
65570W        W37995  41.107  19.747   4.602
65571W        W37996  20.077  29.028  13.873
65572W        W37997  38.054  13.864   4.563
65573W        W37998  36.693   0.300   0.089
65574W        W37999  33.677  15.847   2.313
65575W        W38000  14.094  10.516   1.191
65576W        W38001  23.970  32.500  13.477
65577W        W38002   2.707  41.302   1.291
65578W        W38003  29.592   0.007   0.784
65579W        W38004  32.762  32.219  14.998
65580W        W38005  13.128   3.977   1.506
65581W        W38006  34.887  10.670   3.745
65582W        W38007  38.750   0.322  12.136
65583W        W38008  36.363  25.945  10.751
65584W        W38009  15.786  38.595   2.220
65585W        W38010   0.976  29.476   0.360
65586W        W38011  26.455  22.795   3.696
65587W        W38012  36.095  19.763   2.889
65588W        W38013   4.695   1.816  10.734
65589W        W38014  14.170  27.913  13.529
65590W        W38015   9.671  28.692   3.224
65591W        W38016   4.749  25.768   2.134
65592W        W38017  20.311  18.253   4.167
65593W        W38018  20.717  21.250   1.291
65594W        W38019  23.210  14.868  10.759
65595W        W38020  39.622  21.607   1.332
65596W        W38021  27.701  11.752  13.335
65597W        W38022   0.680  30.549  12.154
65598W        W38023  33.696  10.354   1.886
65599W        W38024  41.203   7.709   4.624
65600W        W38025  29.340  10.809  10.769
65601W        W38026  24.228  23.019  13.463
65602W        W38027   5.638   8.704  13.936
65603W        W38028  10.127  44.406  14.392
65604W        W38029   2.913   8.258   3.683
65605W        W38030  23.493  18.515   1.331
65606W        W38031  43.356  11.507  12.819
65607W        W38032  32.868  23.504   0.686
65608W        W38033  41.187  16.696  14.948
65609W        W38034  43.019  42.515   0.243
65610W        W38035  40.397  24.469  13.419
65611W        W38036  14.273  44.796  14.357
65612W        W38037  24.616  30.237   3.077
65613W        W38038   6.327  11.101   3.065
65614W        W38039  19.950  15.892   4.713
65615W        W38040  10.628  43.787   2.317
65616W        W38041  33.930  11.224   2.756
65617W        W38042  41.008  33.819  13.955
65618W        W38043   8.624   9.843  11.711
65619W        W38044   1.754  28.767  14.023
65620W        W38045   0.946  43.421  10.738
65621W        W38046   3.290  33.223  14.439
65622W        W38047   5.506  11.810   4.268
65623W        W38048  10.378  12.046  11.143
65624W        W38049  24.778  27.451   3.292
65625W        W38050  42.243  29.634   0.350
65626W        W38051   8.219  14.342  13.808
65627W        W38052  42.452  22.242   3.294
65628W        W38053   4.059  33.370  10.216
65629W        W38054  22.737  28.905   0.770
65630W        W38055  27.734  42.635   2.174
65631W        W38056  35.644  31.212   3.561
65632W        W38057   8.129  15.637  12.368
65633W        W38058  38.870  29.209   0.368
65634W        W38059   9.230  36.595   3.145
65635W        W38060  28.907  24.657  12.479
65636W        W38061   5.106  33.031   3.900
65637W        W38062  39.844  35.524   0.263
65638W        W38063  17.624  43.981   1.660
65639W        W38064   8.989  35.012  14.598
65640W        W38065   4.479  38.015   0.851
65641W        W38066   7.472  41.852   0.325
65642W        W38067  37.030  41.573   1.934
65643W        W38068  21.059  16.597   1.837
65644W        W38069  14.350   7.412   0.637
65645W        W38070  18.741  25.738   1.388
65646W        W38071  36.478  33.603   0.856
65647W        W38072  16.433  22.992   4.133
65648W        W38073  38.492  19.146   0.389
65649W        W38074  14.259  12.130  12.623
65650W        W38075  40.079   2.916  12.927
65651W        W38076  25.981  35.920  13.945
65652W        W38077  20.691  14.387   3.842
65653W        W38078   5.446  38.943   0.989
65654W        W38079  24.007   7.668   1.510
65655W        W38080  25.241  44.264  13.155
65656W        W38081  43.833  29.076  11.196
65657W        W38082  18.632  18.032   3.612
65658W        W38083   9.852  39.401  11.938
65659W        W38084  37.084   1.736   1.204
65660W        W38085  38.440  22.032  11.098
65661W        W38086  28.520  12.578  13.965
65662W        W38087  12.902  26.518  10.977
65663W        W38088  33.372   7.130   2.193
65664W        W38089  32.992  23.622  14.848
65665W        W38090  39.001  10.920  14.385
65666W        W38091  11.580   8.380   2.219
65667W        W38092  35.259  15.009   1.368
65668W        W38093   8.265  21.233   3.918
65669W        W38094  38.942   3.481   4.139
65670W        W38095  44.523   2.252   4.699
65671W        W38096  21.619  38.459  10.505
65672W        W38097  28.584  32.921   0.682
65673W        W38098  26.695   0.323  10.126
65674W        W38099  37.944   4.725  13.141
65675W        W38100  14.855  10.290   3.957
65676W        W38101  14.243  25.025  14.896
65677W        W38102  23.713  26.654  13.919
65678W        W38103  22.324  15.430  10.845
65679W        W38104  34.529  34.051  14.347
65680W        W38105  22.480  11.671   3.553
65681W        W38106   9.310  17.242   3.194
65682W        W38107  15.083  37.858   4.557
65683W        W38108  37.451   6.785  11.703
65684W        W38109  41.086  22.404   1.757
65685W        W38110  43.710   5.486   3.340
65686W        W38111  42.321   7.244   4.002
65687W        W38112  17.267  18.610   2.728
65688W        W38113  28.373  31.346  12.423
65689W        W38114  39.322  27.538  13.732
65690W        W38115  40.035  44.560   4.575
65691W        W38116  26.026  17.792   3.669
65692W        W38117  28.530  37.057  11.961
65693W        W38118  12.296  30.936   2.236
65694W        W38119   2.297  15.794  11.442
65695W        W38120  18.859  22.707  10.412
65696W        W38121  17.510  23.777   2.853
65697W        W38122   6.464  22.040   3.757
65698W        W38123  43.293  25.617   4.230
65699W        W38124   9.914   8.698  14.686
65700W        W38125  35.650  22.156   3.134
65701W        W38126  15.261  31.993  13.882
65702W        W38127  32.150   4.957  11.147
65703W        W38128   5.662  10.398   3.512
65704W        W38129  38.966  20.709   1.811
65705W        W38130  18.720  27.369  12.520
65706W        W38131   5.874  34.838  14.522
65707W        W38132  38.035  15.010   3.351
65708W        W38133  13.752  12.433   2.584
65709W        W38134  44.790  26.179   4.773
65710W        W38135  27.166  31.727  10.610
65711W        W38136  41.401  10.488   4.257
65712W        W38137   4.551  24.587   1.434
65713W        W38138  29.968   1.231  12.399
65714W        W38139   0.644  40.921  14.997
65715W        W38140  40.962  19.407  12.049
65716W        W38141  42.833   8.888   4.499
65717W        W38142  19.580  36.294   3.647
65718W        W38143  25.137   8.878   2.205
65719W        W38144  19.133  43.883  13.332
65720W        W38145   5.699  44.865  11.386
65721W        W38146  36.135   3.345  13.958
65722W        W38147  28.020  36.991  13.913
65723W        W38148  35.043  11.369   3.154
65724W        W38149  10.906  19.251   3.783
65725W        W38150  33.629  32.030   0.743
65726W        W38151  34.096  27.764   0.249
65727W        W38152  43.777  26.869  10.171
65728W        W38153  38.318  31.842  11.592
65729W        W38154  11.293   3.923   4.170
65730W        W38155  44.463  13.569   3.254
65731W        W38156  44.294  10.041  14.078
65732W        W38157  15.646  11.370   2.315
65733W        W38158  30.294  18.963  12.051
65734W        W38159   6.267  23.637  11.974
65735W        W38160  19.114  32.993   0.514
65736W        W38161  43.396  35.325   0.273
65737W        W38162  15.762  13.859   2.638
65738W        W38163  23.458   5.690   2.271
65739W        W38164   3.711  25.099   3.744
65740W        W38165  21.688  43.288   2.364
65741W        W38166  42.990  12.815   2.332
65742W        W38167  28.550  43.488  13.896
65743W        W38168  27.045  14.670  12.527
65744W        W38169  35.593  31.164  10.965
65745W        W38170   7.837  30.415   2.316
65746W        W38171  25.958  23.758  10.970
65747W        W38172  37.184  20.189  11.154
65748W        W38173  22.838  18.574   2.464
65749W        W38174  36.810  34.548  14.048
65750W        W38175   0.816  36.501  10.500
65751W        W38176  16.640  26.513  14.886
65752W        W38177  27.628  34.587  14.988
65753W        W38178   9.153   6.255   1.159
65754W        W38179  31.411  44.800  11.456
65755W        W38180  25.097  37.019   0.771
65756W        W38181  25.157  15.458  14.479
65757W        W38182  38.515  11.896   0.117
65758W        W38183  37.467  11.339   1.492
65759W        W38184  42.786  19.068  14.701
65760W        W38185   9.166  30.077  14.447
65761W        W38186  43.373  17.705   0.971
65762W        W38187  13.847  40.507   3.700
65763W        W38188  14.866  20.297  14.032
65764W        W38189  40.650  25.494   0.209
65765W        W38190  22.122  25.471  10.591
65766W        W38191  22.228  13.815   3.617
65767W        W38192  10.871  15.495   4.203
65768W        W38193  21.216  41.352   2.354
65769W        W38194   5.442  37.399   3.793
65770W        W38195  22.474   0.371  10.743
65771W        W38196   5.902  20.389   1.298
65772W        W38197  34.204   1.167   3.365
65773W        W38198  25.002  43.442  10.753
65774W        W38199   6.326  41.195   0.710
65775W        W38200   6.380  39.756   2.699
65776W        W38201   3.361   7.314   3.642
65777W        W38202  39.994   3.871  10.749
65778W        W38203  37.483  33.172  14.346
65779W        W38204   9.087  30.136   2.780
65780W        W38205   2.848  19.993   2.661
65781W        W38206   4.665  41.940   1.867
65782W        W38207  23.049  11.205  13.927
65783W        W38208  12.107   9.298  11.556
65784W        W38209  44.764  44.793  14.500
65785W        W38210   6.021  15.023   3.652
65786W        W38211  16.970  19.178   3.671
65787W        W38212  19.284  18.383   2.206
65788W        W38213  10.973  25.627  11.920
65789W        W38214   8.213  28.039  11.244
65790W        W38215  28.041   4.135   0.737
65791W        W38216  39.060  31.649  14.305
65792W        W38217   3.966   1.874  11.216
65793W        W38218  26.696   8.173   0.811
65794W        W38219  27.743  17.708  12.110
65795W        W38220  29.205  10.306   4.614
65796W        W38221  36.822  21.698   4.861
65797W        W38222   6.704  38.531  14.002
65798W        W38223  12.442  44.449   4.559
65799W        W38224   6.293  43.894   1.052
65800W        W38225  44.458  20.052   2.352
65801W        W38226  10.733  25.856  12.717
65802W        W38227  26.472   3.921  13.461
65803W        W38228  11.853   8.719  13.477
65804W        W38229   1.290  27.667   1.458
65805W        W38230  23.710  34.586  13.747
65806W        W38231  16.803  30.538   2.711
65807W        W38232  25.017  17.669  14.027
65808W        W38233  40.777  16.565  12.877
65809W        W38234   0.499  11.829   4.585
65810W        W38235  27.113   6.216   0.316
65811W        W38236   0.307  29.683   2.149
65812W        W38237   9.615  16.599  14.008
65813W        W38238   1.715  24.437  13.818
65814W        W38239  40.641  40.076  12.700
65815W        W38240  22.252  34.086   3.732
65816W        W38241  41.580  11.659   2.962
65817W        W38242  11.079  12.328   0.699
65818W        W38243  41.340  10.177  14.847
65819W        W38244   9.378  32.424  10.910
65820W        W38245  10.772  18.726   2.280
65821W        W38246  17.675  21.124  12.749
65822W        W38247  15.186  23.681  11.511
65823W        W38248   1.041  44.914   2.420
65824W        W38249  43.663  32.905   1.000
65825W        W38250   4.980  30.364  10.260
65826W        W38251  20.311  25.456  12.005
65827W        W38252  38.074   9.165   2.323
65828W        W38253   8.188  17.815   2.272
65829W        W38254  31.909  42.581  11.957
65830W        W38255   6.191   8.331   4.205
65831W        W38256  23.022  11.731  10.613
65832W        W38257  42.041  33.041   1.715
65833W        W38258  41.593  18.384   2.881
65834W        W38259   9.225   5.386   2.617
65835W        W38260  13.376  26.550   2.122
65836W        W38261  31.973  41.885  12.450
65837W        W38262  21.255  30.393  14.772
65838W        W38263  26.252  13.631   3.653
65839W        W38264  30.203  15.059  10.723
65840W        W38265   9.219  12.147  13.470
65841W        W38266  36.195  36.942  11.666
65842W        W38267  21.014  29.196   1.489
65843W        W38268  40.956  40.984   4.169
65844W        W38269  25.158  32.204  12.550
65845W        W38270   3.143  13.864   0.229
65846W        W38271  23.471   8.537  10.703
65847W        W38272  44.178   1.378  14.437
65848W        W38273   0.720  19.989   3.172
65849W        W38274  36.844  17.209  13.331
65850W        W38275  19.136  29.184  14.290
65851W        W38276  36.792  27.800  13.029
65852W        W38277  14.391   0.687   1.558
65853W        W38278   3.980  36.104   0.021
65854W        W38279   6.410  44.451   1.782
65855W        W38280  18.594   8.417   0.960
65856W        W38281  15.248  44.569   3.280
65857W        W38282  35.568  38.801   4.026
65858W        W38283  23.541  18.128  13.823
65859W        W38284  29.973  23.051  12.009
65860W        W38285  30.143  13.107  14.051
65861W        W38286  38.937  18.186  12.954
65862W        W38287  39.118  30.429   2.489
65863W        W38288  37.212   0.850  13.374
65864W        W38289   8.924  44.220  14.205
65865W        W38290   0.525   8.344  14.307
65866W        W38291  18.851  34.880  10.136
65867W        W38292  11.264  31.682  11.589
65868W        W38293   2.325  34.219  12.545
65869W        W38294   8.172  25.958   1.353
65870W        W38295  38.564  11.950  14.600
65871W        W38296   8.867  43.225  12.610
65872W        W38297  20.257   9.619   1.898
65873W        W38298  30.116  22.760   3.067
65874W        W38299  35.525   9.845   2.355
65875W        W38300   3.737  41.542   1.382
65876W        W38301  21.195   2.882   0.492
65877W        W38302  15.796  45.000   4.867
65878W        W38303  27.152  16.892  11.374
65879W        W38304  36.136  37.392  13.981
65880W        W38305  20.688  18.819   4.963
65881W        W38306  31.137  34.045  12.201
65882W        W38307  41.050  30.689   2.121
65883W        W38308   8.678  18.732  14.866
65884W        W38309  10.577  21.273   0.313
65885W        W38310  15.767   2.665   0.949
65886W        W38311  32.635  37.000  11.718
65887W        W38312   9.390  39.965   4.630
65888W        W38313  24.604  35.278   3.649
65889W        W38314  12.398   4.035  13.227
65890W        W38315  20.751  30.038  12.528
65891W        W38316  22.039  15.320  12.713
65892W        W38317  10.328  39.611  11.143
65893W        W38318  38.212  42.481   4.732
65894W        W38319  42.533  34.091   0.692
65895W        W38320   3.484   2.758   4.711
65896W        W38321   8.380  29.536  11.112
65897W        W38322  20.243  42.069  10.629
65898W        W38323  41.430  13.681  13.799
65899W        W38324  22.665  39.531   1.227
65900W        W38325  35.852  35.398  14.337
65901W        W38326  27.949  36.442   3.922
65902W        W38327  43.923  15.322  11.025
65903W        W38328  14.346  16.265   0.471
65904W        W38329  12.798  15.258  11.223
65905W        W38330   8.668  26.435  13.902
65906W        W38331  27.099  28.394  14.256
65907W        W38332  20.176  29.942   3.791
65908W        W38333  34.149   8.119  14.884
65909W        W38334  18.750  21.289  14.841
65910W        W38335   4.078  40.835  14.989
65911W        W38336   4.023   9.981  14.547
65912W        W38337  25.403  32.527  13.594
65913W        W38338  10.677   4.802  12.973
65914W        W38339  23.223  27.297   2.207
65915W        W38340  29.521  43.310   4.640
65916W        W38341  28.584   3.487  14.204
65917W        W38342   6.697  29.264  14.599
65918W        W38343  20.077  21.480  11.172
65919W        W38344  43.751   4.497   2.725
65920W        W38345  21.681  27.201   0.522
65921W        W38346  14.899  20.233   0.354
65922W        W38347   1.757   5.685  13.946
65923W        W38348   7.629  36.149  10.659
65924W        W38349  18.782  35.897  14.292
65925W        W38350  44.849  17.924   4.067
65926W        W38351  40.892  43.268   3.203
65927W        W38352  40.354  38.568  14.407
65928W        W38353  37.931  42.513   0.275
65929W        W38354  24.348  31.673  11.744
65930W        W38355  21.436  18.280  12.530
65931W        W38356  16.334  43.208  14.881
65932W        W38357  15.889  34.118  13.040
65933W        W38358  18.184  44.349   4.569
65934W        W38359   7.131   7.885   3.725
65935W        W38360  23.508  32.500   2.326
65936W        W38361  13.861  37.953  11.965
65937W        W38362  43.532   9.950  11.085
65938W        W38363  12.571  19.948   4.090
65939W        W38364  37.500  23.329   4.201
65940W        W38365  15.665   6.847  10.592
65941W        W38366  26.574  30.009   4.582
65942W        W38367   0.743  37.833   0.978
65943W        W38368   4.411  43.348   1.921
65944W        W38369  43.967  41.264   0.079
65945W        W38370  43.375  22.541  10.508
65946W        W38371  22.441   6.238  11.434
65947W        W38372  19.122  37.434   4.007
65948W        W38373  10.050  29.014  13.044
65949W        W38374  34.356   2.756  11.171
65950W        W38375  33.139  19.556   3.544
65951W        W38376  11.660  24.230  13.630
65952W        W38377  30.879  21.231  14.301
65953W        W38378   7.367  11.313  14.398
65954W        W38379  25.591  25.169   1.961
65955W        W38380  38.439  35.118   4.112
65956W        W38381   3.807  29.095   1.316
65957W        W38382  24.537   0.848  11.221
65958W        W38383   1.856  14.986   2.480
65959W        W38384   4.972  31.447  13.236
65960W        W38385   2.285  28.448   2.865
65961W        W38386  27.712  38.185  11.668
65962W        W38387  18.934  27.597   1.452
65963W        W38388  29.680  29.490   1.461
65964W        W38389  13.133  41.213   2.666
65965W        W38390  22.241  38.364   3.666
65966W        W38391  30.578  22.822   5.111
65967W        W38392  35.808  26.679   3.483
65968W        W38393  37.293  15.693  11.111
65969W        W38394   0.997  44.013  14.428
65970W        W38395  31.066   4.894   4.300
65971W        W38396   7.675  19.610   2.700
65972W        W38397   9.809  14.666  14.054
65973W        W38398  36.517  18.650   2.906
65974W        W38399  23.467  23.179   2.902
65975W        W38400  34.151  15.645   2.327
65976W        W38401   5.988  33.499   1.709
65977W        W38402   2.765   0.811   0.983
65978W        W38403  18.790  40.318   1.663
65979W        W38404   6.722   2.764  11.182
65980W        W38405  21.184  34.052  12.917
65981W        W38406  27.347  31.676   1.300
65982W        W38407  11.029   9.750   2.442
65983W        W38408  20.597  43.869   2.890
65984W        W38409  33.466  14.296   2.275
65985W        W38410  13.253  22.444  12.356
65986W        W38411  31.688   6.376   2.263
65987W        W38412  23.917  29.655   0.820
65988W        W38413  13.674  11.102   0.154
65989W        W38414  21.362   8.703  11.224
65990W        W38415  17.696  34.521   9.717
65991W        W38416  13.040  39.425   2.343
65992W        W38417  36.104  38.945   2.798
65993W        W38418  16.059  41.955  12.017
65994W        W38419  27.333  10.238   2.486
65995W        W38420  29.111  24.177   3.313
65996W        W38421  18.425  41.837  13.899
65997W        W38422  19.971  42.739   3.713
65998W        W38423  29.937   6.667  11.553
65999W        W38424  40.024   8.598  10.788
66000W        W38425   1.699  41.640  12.548
66001W        W38426  10.374  22.050   2.675
66002W        W38427   3.299  44.106  13.368
66003W        W38428   9.758  41.937   1.003
66004W        W38429  20.054  22.798   4.962
66005W        W38430  12.622  12.766  14.345
66006W        W38431  27.972  15.210  12.507
66007W        W38432  17.550  33.454  10.720
66008W        W38433   4.234   4.801  11.865
66009W        W38434  12.873  25.077   4.033
66010W        W38435  11.531  27.423  12.377
66011W        W38436  38.050  21.511   3.047
66012W        W38437  17.726   6.594  11.457
66013W        W38438  39.113  43.962  11.247
66014W        W38439  41.438  14.271  12.539
66015W        W38440  27.881  28.651  11.186
66016W        W38441  16.085   6.455  13.872
66017W        W38442  32.066  24.778   1.806
66018W        W38443  23.825  20.618  12.436
66019W        W38444  10.301  37.637  11.933
66020W        W38445  21.149   2.092  13.950
66021W        W38446  39.018  27.054  14.074
66022W        W38447   6.335  30.003  14.900
66023W        W38448  32.071   0.719   4.536
66024W        W38449  39.746   0.421  10.664
66025W        W38450  12.047   2.511   1.022
66026W        W38451   1.995  16.839  13.322
66027W        W38452  24.816  34.484  13.868
66028W        W38453   0.885  44.480   3.573
66029W        W38454  38.062   2.764  12.079
66030W        W38455  11.695   0.626   1.920
66031W        W38456  27.735  36.693   0.189
66032W        W38457  38.134  32.315  11.503
66033W        W38458  21.537  30.570  13.494
66034W        W38459  40.253  13.633   3.196
66035W        W38460  31.685   6.204   0.798
66036W        W38461  30.137  21.222   0.891
66037W        W38462   2.757   6.110   4.853
66038W        W38463   9.702   2.347   3.388
66039W        W38464   0.655  11.692  13.405
66040W        W38465  16.542   5.262   3.313
66041W        W38466  39.623  17.771   1.810
66042W        W38467  38.180  23.218   0.777
66043W        W38468   9.578  13.615   1.897
66044W        W38469  23.235  41.250  12.497
66045W        W38470  22.495   6.246   2.179
66046W        W38471  16.761  36.875   4.694
66047W        W38472  31.002  35.098   0.883
66048W        W38473  40.264  43.600  10.876
66049W        W38474  30.368  43.430   2.654
66050W        W38475  21.146  17.691  12.894
66051W        W38476  38.438  11.236   1.943
66052W        W38477   4.864   8.548   0.807
66053W        W38478  44.183  32.922   0.961
66054W        W38479  41.033  26.452   4.218
66055W        W38480  39.811   6.204  13.366
66056W        W38481  13.880  24.504   0.910
66057W        W38482  27.973  10.583   1.927
66058W        W38483  25.778  17.580  12.181
66059W        W38484  25.332   7.908  10.788
66060W        W38485  26.519  41.046   4.720
66061W        W38486  35.189  11.836   4.922
66062W        W38487  25.690  20.119  10.514
66063W        W38488   6.475   8.357   2.572
66064W        W38489   5.308   3.556   0.909
66065W        W38490  17.153   6.227  13.354
66066W        W38491  33.602   5.744   3.912
66067W        W38492  36.626  16.086  13.029
66068W        W38493   5.764  12.973  14.822
66069W        W38494  30.609  44.683   3.141
66070W        W38495  24.526  20.592   1.192
66071W        W38496  38.466  30.037   0.449
66072W        W38497  31.527  22.681  11.831
66073W        W38498  16.313  40.504   1.937
66074W        W38499  42.134  19.031  14.550
66075W        W38500  25.935  27.971  11.904
66076W        W38501  12.334  12.397   1.178
66077W        W38502  24.689   4.723   2.254
66078W        W38503   8.182  37.207   2.577
66079W        W38504  40.979  18.770  10.615
66080W        W38505  15.278  30.589  13.425
66081W        W38506  42.502  41.256  14.966
66082W        W38507  36.583  12.222   0.886
66083W        W38508  36.035   6.769   4.095
66084W        W38509  25.087   6.906   2.149
66085W        W38510  36.795   9.741   3.747
66086W        W38511  18.515  23.622  10.981
66087W        W38512  29.742  31.396  12.469
66088W        W38513  44.360  44.267  14.835
66089W        W38514   9.698  16.857   1.907
66090W        W38515  26.824   1.767   2.225
66091W        W38516   3.634  25.190  10.686
66092W        W38517  30.622  17.166   2.762
66093W        W38518  31.556  40.732  11.661
66094W        W38519   3.538  32.123   3.091
66095W        W38520  22.302  13.817   2.939
66096W        W38521  23.545  42.875   0.464
66097W        W38522   9.848  18.098   0.223
66098W        W38523  31.168  44.331  10.226
66099W        W38524  40.710  38.899  14.860
66100W        W38525  19.172  43.339   2.740
66101W        W38526   3.301  39.820  11.606
66102W        W38527  31.870   1.231   1.752
66103W        W38528   7.730  13.788  12.060
66104W        W38529  31.659   1.923  13.849
66105W        W38530  37.880   9.454  13.797
66106W        W38531  29.145  39.406   4.080
66107W        W38532  40.595  36.523  11.578
66108W        W38533  43.798  14.260  11.175
66109W        W38534  23.459   7.183  13.729
66110W        W38535  41.496  30.467   3.522
66111W        W38536   5.259  35.106  13.832
66112W        W38537  20.398  33.113  11.526
66113W        W38538  13.724   0.402  14.080
66114W        W38539   6.216  42.777  12.920
66115W        W38540  26.006  43.122  12.940
66116W        W38541   4.914  26.156   0.886
66117W        W38542  14.057  30.958   0.739
66118W        W38543  26.153  23.619  13.449
66119W        W38544  14.655  37.903   0.962
66120W        W38545  29.008  39.989   2.932
66121W        W38546  12.122   4.726   2.768
66122W        W38547  27.402   4.403  13.352
66123W        W38548  41.565  38.097   4.310
66124W        W38549   4.435  29.425   2.552
66125W        W38550  29.466   0.598   5.265
66126W        W38551  28.438  36.566  11.064
66127W        W38552  30.652  23.116   4.694
66128W        W38553  42.930  18.241   1.762
66129W        W38554  14.114  13.820  14.688
66130W        W38555  11.722  17.066   1.190
66131W        W38556   7.817  44.368   4.980
66132W        W38557  10.546  33.501   0.846
66133W        W38558  16.804  10.519   0.540
66134W        W38559  26.206   3.584   4.192
66135W        W38560  42.348  18.697  10.564
66136W        W38561   5.350  10.824  11.403
66137W        W38562  40.614  26.593   3.382
66138W        W38563  43.917  28.545   1.419
66139W        W38564  42.911  10.664   2.600
66140W        W38565   2.045  19.429   1.801
66141W        W38566  12.516  10.622   1.309
66142W        W38567  44.836  11.080  12.836
66143W        W38568  21.072   1.304  13.498
66144W        W38569  11.173  41.302   0.957
66145W        W38570  35.763  13.206  14.459
66146W        W38571  37.835  25.313  10.623
66147W        W38572   5.931  38.994  13.031
66148W        W38573  14.676  33.427   0.442
66149W        W38574  36.796  14.332  14.461
66150W        W38575   7.809   0.339  10.560
66151W        W38576  44.715   0.483   0.889
66152W        W38577   9.904  36.127   2.302
66153W        W38578  22.728  25.140   0.832
66154W        W38579  18.064  43.034   1.864
66155W        W38580  12.284   3.416  14.955
66156W        W38581  23.523  27.274   4.506
66157W        W38582   4.454  26.203  12.324
66158W        W38583  19.284  40.074  13.924
66159W        W38584  40.346  22.039  12.401
66160W        W38585   4.952   9.154  14.947
66161W        W38586  36.669  21.579   0.038
66162W        W38587   3.442  17.327   1.222
66163W        W38588  44.342  11.252  14.931
66164W        W38589  40.514   4.197   2.815
66165W        W38590  40.728  29.046   1.137
66166W        W38591  17.128   8.391   1.510
66167W        W38592  28.497  34.902   1.195
66168W        W38593  35.106  34.868   0.329
66169W        W38594  35.503   2.999  12.300
66170W        W38595  44.827  36.371   2.642
66171W        W38596  25.227  18.391  12.009
66172W        W38597   3.235  28.687  13.492
66173W        W38598  44.407  19.516   1.428
66174W        W38599  38.588  30.935  14.325
66175W        W38600  29.504  27.806  13.761
66176W        W38601  25.525   8.188  12.968
66177W        W38602  43.257  36.670  14.928
66178W        W38603  37.362   5.772   1.862
66179W        W38604   7.826  26.910  10.755
66180W        W38605  16.238  12.550  11.108
66181W        W38606  29.209  18.086   1.409
66182W        W38607  26.500  19.204   1.223
66183W        W38608  26.655  12.816   0.283
66184W        W38609   2.021  20.355   4.064
66185W        W38610  21.991  34.866  14.916
66186W        W38611  14.793  33.329  12.320
66187W        W38612  18.342   5.333  11.907
66188W        W38613  30.000  43.480  11.760
66189W        W38614  14.750  12.758  14.429
66190W        W38615  36.296  25.630   0.845
66191W        W38616  43.710  19.181   0.252
66192W        W38617  44.902  38.259  12.148
66193W        W38618  32.952  14.253   3.141
66194W        W38619  38.391  36.900   3.620
66195W        W38620  41.373  43.305   2.744
66196W        W38621  38.308  26.684   0.062
66197W        W38622  43.771  13.354   3.597
66198W        W38623  13.323  26.116   3.178
66199W        W38624  39.819   7.690   3.248
66200W        W38625  31.828  20.729   2.288
66201W        W38626  12.772   1.332   3.405
66202W        W38627   2.954   9.063  14.764
66203W        W38628  25.936  38.040  12.544
66204W        W38629  37.945   5.923  12.427
66205W        W38630  31.872  23.564   0.452
66206W        W38631  22.657  14.347  14.713
66207W        W38632  38.319   8.916   2.717
66208W        W38633  43.911  18.280   3.316
66209W        W38634  31.067  39.209   1.832
66210W        W38635  16.245   4.738   3.112
66211W        W38636  16.140  25.253   4.995
66212W        W38637  15.739   2.264   4.282
66213W        W38638  26.660   0.929  14.223
66214W        W38639  20.482  12.860   0.312
66215W        W38640  21.751  11.903   0.391
66216W        W38641   8.315  10.734   1.833
66217W        W38642  17.892   2.375   4.247
66218W        W38643  31.860  18.371  11.633
66219W        W38644  16.863  14.743   4.639
66220W        W38645  17.246  35.416  14.950
66221W        W38646  39.817  10.185  14.801
66222W        W38647  15.052  10.429  14.941
66223W        W38648  16.685  32.969   2.807
66224W        W38649  42.155   6.882   1.831
66225W        W38650  17.700  21.217   0.738
66226W        W38651  11.168   3.175   1.238
66227W        W38652   6.398  15.663   0.705
66228W        W38653  22.841  25.428   1.892
66229W        W38654  36.575   0.946   4.633
66230W        W38655  25.532  15.070  14.869
66231W        W38656  17.122  10.864  14.928
66232W        W38657  30.384  25.883   0.900
66233W        W38658  42.062  34.103  11.454
66234W        W38659  16.318  35.130   3.234
66235W        W38660   3.883  19.324  12.187
66236W        W38661  20.113  19.677   0.794
66237W        W38662  11.351  24.198   5.461
66238W        W38663  20.395  26.122   4.093
66239W        W38664  41.008  24.500   0.975
66240W        W38665   8.454  10.923  14.045
66241W        W38666  16.809   4.370  12.360
66242W        W38667  16.538  42.242  14.058
66243W        W38668   1.985  17.762  13.170
66244W        W38669  31.497  18.019   3.318
66245W        W38670  24.637  14.246  10.767
66246W        W38671  25.978  16.182  12.812
66247W        W38672  30.975  26.361   1.523
66248W        W38673  41.222  27.500   3.258
66249W        W38674  25.192  36.476   0.284
66250W        W38675  26.224  22.069   3.743
66251W        W38676   4.730  42.930  13.560
66252W        W38677   2.736  29.977   4.110
66253W        W38678  33.311  39.183   3.208
66254W        W38679  33.282   3.578   0.370
66255W        W38680  44.012  26.425  11.014
66256W        W38681  15.360  41.850   3.595
66257W        W38682  39.128   2.472   1.393
66258W        W38683   0.582  13.267   4.145
66259W        W38684   5.091  22.004   2.363
66260W        W38685  28.775  44.982  14.506
66261W        W38686  12.116  38.318   1.741
66262W        W38687  39.783   5.311  12.795
66263W        W38688   6.708  32.438  10.578
66264W        W38689  14.730   3.947   1.273
66265W        W38690  35.675   9.339   2.387
66266W        W38691   2.426  41.858  14.008
66267W        W38692   7.251  43.889   0.730
66268W        W38693  40.886  17.744  12.927
66269W        W38694  35.823  35.544  13.827
66270W        W38695  13.152  17.666   4.658
66271W        W38696  20.748  44.625  13.750
66272W        W38697  21.758  15.487   1.427
66273W        W38698  29.971  20.779  12.109
66274W        W38699  43.007  21.398   0.465
66275W        W38700  22.525  28.091  14.702
66276W        W38701  35.399   4.317   1.751
66277W        W38702  16.683   9.804   2.476
66278W        W38703  16.498  28.052   0.339
66279W        W38704   6.647   5.340  11.887
66280W        W38705  44.926  12.772   0.369
66281W        W38706   6.771  36.327  12.469
66282W        W38707   9.611  28.551  14.793
66283W        W38708  17.839  12.070  14.952
66284W        W38709  16.872   9.768   3.386
66285W        W38710  25.564  34.856   2.193
66286W        W38711  27.028   9.041   3.326
66287W        W38712  24.817  12.784   1.968
66288W        W38713  18.059   8.160  10.639
66289W        W38714  22.137  21.175  14.481
66290W        W38715  25.699  40.258   0.420
66291W        W38716  19.636  11.971   3.737
66292W        W38717  21.971   3.489  13.834
66293W        W38718  28.588  27.286   1.475
66294W        W38719  34.146  39.806  11.588
66295W        W38720  37.077  15.819  13.618
66296W        W38721  39.298  33.853  10.625
66297W        W38722  32.217  18.989   2.698
66298W        W38723   3.217  31.732   4.177
66299W        W38724   8.704   5.374   1.910
66300W        W38725  18.096  36.045   4.064
66301W        W38726   4.938  44.351  13.420
66302W        W38727  14.665  39.780   1.867
66303W        W38728   2.233  10.919  12.419
66304W        W38729  38.364  29.524  14.727
66305W        W38730  21.213  28.090   2.051
66306W        W38731  34.180  22.112   4.616
66307W        W38732  36.584  43.953  14.781
66308W        W38733  35.237  19.374  13.488
66309W        W38734  13.331  17.699   2.231
66310W        W38735  35.440  26.091   1.393
66311W        W38736   8.321  36.355   3.347
66312W        W38737  11.404  12.897   1.904
66313W        W38738   5.190  31.672   1.164
66314W        W38739  17.690  19.804  13.908
66315W        W38740  10.026   8.333   1.319
66316W        W38741  37.037  12.895  14.777
66317W        W38742  21.145  30.457   4.674
66318W        W38743  44.408  32.039   9.802
66319W        W38744  42.025  40.824   2.643
66320W        W38745  26.945  37.384   5.030
66321W        W38746  28.971   2.636   0.828
66322W        W38747  33.085  31.912   4.713
66323W        W38748  13.215  12.057  12.430
66324W        W38749   3.423  21.610   2.774
66325W        W38750  34.872   3.752  10.702
66326W        W38751  34.015  12.411  10.890
66327W        W38752  12.396  13.687   3.464
66328W        W38753  44.893  12.537  10.620
66329W        W38754  29.432  44.135  13.978
66330W        W38755   1.444  22.973   2.225
66331W        W38756  16.024  33.029  13.046
66332W        W38757   4.521  13.727   1.829
66333W        W38758  33.563   9.968  11.003
66334W        W38759  25.965  43.126  11.624
66335W        W38760   6.309  26.241  14.818
66336W        W38761   9.884  35.540   3.576
66337W        W38762   1.426  22.755  13.294
66338W        W38763  13.213  25.133   3.652
66339W        W38764   4.721  42.441   0.717
66340W        W38765  29.640  30.415  14.411
66341W        W38766  18.689  16.650  11.180
66342W        W38767   8.896  13.055  14.302
66343W        W38768   5.504  16.779  10.883
66344W        W38769  16.175   3.706  12.101
66345W        W38770  38.363  13.401   2.726
66346W        W38771  19.323  21.761   4.055
66347W        W38772   4.168   4.363  14.200
66348W        W38773  26.210  38.471   0.408
66349W        W38774  37.009  27.972  11.717
66350W        W38775  23.481  29.111  11.630
66351W        W38776  31.378  11.615   0.852
66352W        W38777  12.702  37.768   2.734
66353W        W38778  11.846  12.551   3.380
66354W        W38779  33.892  43.469  10.988
66355W        W38780  41.770  26.660   3.299
66356W        W38781   5.590  27.030  12.210
66357W        W38782  33.396   9.371  11.449
66358W        W38783  18.282   0.212   2.922
66359W        W38784  27.182   5.936  14.731
66360W        W38785  19.783  14.313   1.887
66361W        W38786  44.364  15.251   2.733
66362W        W38787  38.370  26.150   1.444
66363W        W38788  29.414  19.183   0.777
66364W        W38789   8.639  11.163   2.915
66365W        W38790   2.980  34.929   1.753
66366W        W38791  17.233  10.856   0.472
66367W        W38792  32.384  28.199  11.754
66368W        W38793   5.741   3.456  11.209
66369W        W38794  31.668  42.715   3.684
66370W        W38795  23.673  23.504   4.157
66371W        W38796  32.407  37.610  13.429
66372W        W38797   0.037  42.799  14.293
66373W        W38798  21.735  27.710   2.392
66374W        W38799  16.269  20.384  10.859
66375W        W38800  35.313  24.429  14.849
66376W        W38801  22.582  22.773   1.040
66377W        W38802   7.324  37.382   2.192
66378W        W38803  19.681  15.092   0.870
66379W        W38804  10.312   3.735  14.465
66380W        W38805  11.152  41.083  14.590
66381W        W38806   6.869  34.099  11.111
66382W        W38807   1.526  33.555   5.181
66383W        W38808  21.391  26.330  10.007
66384W        W38809   7.740  33.460  13.405
66385W        W38810  27.174  42.768  13.342
66386W        W38811  39.858   9.399   2.745
66387W        W38812  24.748  12.565  10.725
66388W        W38813  10.128  22.472   3.465
66389W        W38814  25.701  14.189  13.528
66390W        W38815  29.399  35.428  11.592
66391W        W38816  43.876  15.327   0.238
66392W        W38817  13.205  22.311  10.625
66393W        W38818  36.610  43.346  14.353
66394W        W38819  17.255  22.155  11.970
66395W        W38820   6.104  12.888   3.053
66396W        W38821   5.381   7.361  13.756
66397W        W38822   8.844  21.520  11.533
66398W        W38823   3.371  39.090   0.906
66399W        W38824  20.105   2.210  10.750
66400W        W38825  15.219  39.755  11.530
66401W        W38826  31.344  25.580   2.900
66402W        W38827  24.053  30.887   0.453
66403W        W38828  38.329  19.286   4.348
66404W        W38829  24.643   5.893   1.336
66405W        W38830  35.112  26.041   2.360
66406W        W38831  27.287  10.676   2.739
66407W        W38832  16.084  21.114   1.348
66408W        W38833  41.470  19.053   0.352
66409W        W38834   6.907   9.116   0.488
66410W        W38835  29.593  37.016  13.841
66411W        W38836   8.813  40.498   1.845
66412W        W38837  13.612   5.110   0.264
66413W        W38838   0.919  41.084  13.963
66414W        W38839  18.827  27.647  13.491
66415W        W38840   2.519  27.406  14.393
66416W        W38841  32.398   7.228  12.471
66417W        W38842  31.429   0.791  12.959
66418W        W38843  18.531  13.559  10.789
66419W        W38844  40.745  29.559  13.430
66420W        W38845  13.416  20.692  10.607
66421W        W38846  40.247  33.324   4.429
66422W        W38847  22.145   7.334   1.758
66423W        W38848  33.485  12.315  14.491
66424W        W38849  40.543  20.949   5.339
66425W        W38850   0.516  15.786   2.407
66426W        W38851   0.468  27.972  13.455
66427W        W38852  39.088  23.613   3.335
66428W        W38853   5.939  34.141   0.884
66429W        W38854  18.854  22.416  13.889
66430W        W38855   2.785  35.981  11.513
66431W        W38856  17.857  39.044  14.114
66432W        W38857  31.563  36.938  14.018
66433W        W38858   3.187  20.593  14.347
66434W        W38859  15.300  27.552   4.747
66435W        W38860  20.834  20.126  14.959
66436W        W38861  20.114   5.595  11.882
66437W        W38862  26.578  37.250   1.450
66438W        W38863  26.958  27.433  14.283
66439W        W38864  36.790  41.396   0.213
66440W        W38865  21.754  15.692  13.001
66441W        W38866  31.760  17.253  10.379
66442W        W38867  30.902  40.335  13.123
66443W        W38868  40.142   8.695   4.531
66444W        W38869  33.587  36.835   1.250
66445W        W38870  20.381   1.921  14.418
66446W        W38871  23.741   1.262  11.463
66447W        W38872  33.689   1.897  14.214
66448W        W38873  41.609  18.859   3.060
66449W        W38874  41.994   6.285  10.668
66450W        W38875  23.569  31.770   3.211
66451W        W38876   6.782  28.184   2.368
66452W        W38877  26.014  19.373   1.023
66453W        W38878  19.247  24.538   0.906
66454W        W38879   1.837   2.704  14.836
66455W        W38880  38.375  28.202  11.544
66456W        W38881  23.963  38.289   4.319
66457W        W38882   7.515  28.533   0.278
66458W        W38883  10.792   5.091  13.412
66459W        W38884  34.067  38.823   4.071
66460W        W38885  16.571  25.100   1.961
66461W        W38886  20.846  43.325   4.156
66462W        W38887   3.328  37.622  12.066
66463W        W38888   8.915   4.438   1.739
66464W        W38889  19.149   0.983   4.219
66465W        W38890  29.046  19.001  14.551
66466W        W38891  10.816  40.992   4.306
66467W        W38892  38.852   1.984  12.413
66468W        W38893  35.409  44.771   4.057
66469W        W38894  11.581  29.071  10.542
66470W        W38895   6.163  18.681   3.309
66471W        W38896   6.313  39.833  12.028
66472W        W38897  15.256   7.946  11.953
66473W        W38898  42.619   3.859  10.802
66474W        W38899  26.547  18.512  12.570
66475W        W38900  19.645  10.924   3.617
66476W        W38901   4.738  34.170  10.805
66477W        W38902  19.065  34.579   4.170
66478W        W38903  42.388  30.648   2.460
66479W        W38904  32.042  27.196   0.613
66480W        W38905  38.930  44.233  10.442
66481W        W38906  26.279  37.822   2.702
66482W        W38907  24.706  26.572  12.042
66483W        W38908  37.014   7.673  10.180
66484W        W38909  40.389  35.892  11.266
66485W        W38910  12.821   5.242   0.742
66486W        W38911  25.796  39.270   2.679
66487W        W38912  23.116  39.050  11.153
66488W        W38913   2.399   3.925   1.899
66489W        W38914  37.122  38.980   1.923
66490W        W38915  40.359  24.670   4.771
66491W        W38916   7.225  35.566   4.160
66492W        W38917   5.360  22.691  12.168
66493W        W38918  29.673  35.031   5.141
66494W        W38919  17.694  34.004   2.850
66495W        W38920  13.532  21.142   2.614
66496W        W38921  18.211  13.621  12.951
66497W        W38922  26.831  38.855   3.553
66498W        W38923  34.661  39.589  14.400
66499W        W38924  27.084   1.805  12.492
66500W        W38925  12.795  11.737   3.252
66501W        W38926  15.597  38.113   2.295
66502W        W38927  44.466  44.931  13.859
66503W        W38928   6.659  13.421   3.723
66504W        W38929  42.314  16.509  12.040
66505W        W38930   9.347  43.928   4.106
66506W        W38931  33.540  41.530   5.077
66507W        W38932  17.201  44.782   3.282
66508W        W38933  44.861  33.525  10.089
66509W        W38934  15.417  23.290  12.961
66510W        W38935   4.673  21.580   3.661
66511W        W38936  13.330  36.429   4.558
66512W        W38937  16.266  30.214  14.983
66513W        W38938  27.726   6.444  10.444
66514W        W38939   5.379  13.622   0.876
66515W        W38940  20.499  16.750  14.813
66516W        W38941  25.478  33.008   1.836
66517W        W38942   6.934  22.710   3.094
66518W        W38943  22.113  10.578  11.077
66519W        W38944   9.844  18.493   4.325
66520W        W38945  26.482   0.702   3.843
66521W        W38946  43.030  37.497  13.053
66522W        W38947  31.459   5.226  11.017
66523W        W38948  43.623   4.834   3.891
66524W        W38949  33.955   3.705   0.702
66525W        W38950   5.155  34.896  12.958
66526W        W38951  27.079  13.831   4.533
66527W        W38952  43.014   7.153  12.111
66528W        W38953   1.778  28.304   0.263
66529W        W38954   7.287  42.277  12.438
66530W        W38955  39.534  39.903  10.629
66531W        W38956  18.304  18.220  13.351
66532W        W38957  39.453  41.030   0.358
66533W        W38958   5.935  27.603  14.254
66534W        W38959   1.441  17.485  12.092
66535W        W38960  25.181   7.984   2.365
66536W        W38961  36.808  30.607   0.190
66537W        W38962  29.412  21.481  10.626
66538W        W38963   3.735   4.854   4.827
66539W        W38964  30.021  39.582   1.840
66540W        W38965  10.368  44.312  14.893
66541W        W38966  41.343  27.100   0.493
66542W        W38967  38.747  14.851  12.590
66543W        W38968  30.787  20.145  13.121
66544W        W38969  34.423  18.691   0.099
66545W        W38970  42.340  12.967   0.143
66546W        W38971   3.188  20.097  12.399
66547W        W38972  42.515  33.657   4.271
66548W        W38973  11.785  21.417   1.727
66549W        W38974  13.122  24.406  11.571
66550W        W38975  30.854   1.918   2.968
66551W        W38976   4.287  32.611   2.855
66552W        W38977   7.727   0.822   3.621
66553W        W38978   4.190   3.436  10.757
66554W        W38979  36.168  30.367  10.993
66555W        W38980  36.029  25.002  13.408
66556W        W38981  10.937  21.641  10.755
66557W        W38982  14.338  17.266   4.151
66558W        W38983   9.846   3.070   4.092
66559W        W38984  44.733   8.239  13.478
66560W        W38985  30.936  44.054   0.900
66561W        W38986  43.451   5.343  11.766
66562W        W38987  37.791  30.441   2.069
66563W        W38988  16.244   2.896  12.514
66564W        W38989  10.325   2.832   4.018
66565W        W38990  13.347  31.371   0.882
66566W        W38991  33.365  35.468   0.405
66567W        W38992  17.707  40.110   4.520
66568W        W38993  24.036  33.599   1.936
66569W        W38994  37.477  24.615  13.982
66570W        W38995  12.481   4.721  10.197
66571W        W38996  19.312  18.389  12.488
66572W        W38997   7.371  38.545   2.938
66573W        W38998   4.518  37.642   0.178
66574W        W38999  10.905  37.944  14.149
66575W        W39000  22.137   7.799  14.918
66576W        W39001  23.156  14.157  14.020
66577W        W39002  26.560  32.712   1.330
66578W        W39003  34.036  18.199   1.876
66579W        W39004   1.640   2.002   3.717
66580W        W39005  26.128  29.539  12.448
66581W        W39006  35.273  35.045   2.396
66582W        W39007  43.495   8.897  12.151
66583W        W39008   1.315  29.764  11.405
66584W        W39009  28.572  29.619   2.127
66585W        W39010   5.981  36.065  13.340
66586W        W39011  23.715  37.000   4.730
66587W        W39012  12.900   5.655   3.857
66588W        W39013   8.771  17.351   1.746
66589W        W39014  32.407  31.445   0.922
66590W        W39015  42.841  24.723   0.930
66591W        W39016  35.743  29.200   0.022
66592W        W39017   8.645  16.822  12.053
66593W        W39018  36.954  36.305   3.691
66594W        W39019  13.067  11.205  11.440
66595W        W39020  22.577  37.972  11.510
66596W        W39021   0.120  15.902  11.760
66597W        W39022  23.713  26.791   3.308
66598W        W39023  16.150  34.583  12.454
66599W        W39024  18.473   3.259   2.703
66600W        W39025  25.229  27.553  11.962
66601W        W39026  35.012  44.324  14.764
66602W        W39027  40.590  41.420  14.008
66603W        W39028   7.756  30.601  12.616
66604W        W39029  10.323   1.773  14.651
66605W        W39030  43.902   7.302   3.465
66606W        W39031  35.156  10.096   4.681
66607W        W39032   3.763  18.957   2.911
66608W        W39033  21.149  14.220  10.710
66609W        W39034   6.710  11.672  13.429
66610W        W39035   5.608  38.363   4.861
66611W        W39036   8.455   0.507   1.686
66612W        W39037  14.653  12.775   0.853
66613W        W39038  31.567   1.742  10.875
66614W        W39039   2.333   4.391  11.743
66615W        W39040  22.078  21.717  11.045
66616W        W39041  40.886  28.112  13.398
66617W        W39042  23.398  20.093   2.642
66618W        W39043  32.569  43.361  11.861
66619W        W39044  11.826   0.344   4.522
66620W        W39045  18.094   2.224   3.213
66621W        W39046  10.192   3.910  10.560
66622W        W39047  10.066  12.275  14.494
66623W        W39048  15.057  43.450   4.119
66624W        W39049   8.308  26.056  14.491
66625W        W39050  28.495  31.216   1.262
66626W        W39051  11.244  22.047   4.581
66627W        W39052  32.679  14.643   2.205
66628W        W39053   5.186   8.530   4.564
66629W        W39054  41.490  24.099   1.259
66630W        W39055  12.181  26.502  11.490
66631W        W39056  28.055  38.122   2.857
66632W        W39057  38.549  30.496  14.759
66633W        W39058  16.549   5.803  11.913
66634W        W39059  21.561  30.532  14.370
66635W        W39060  35.006  10.606  12.474
66636W        W39061  31.666  34.996  12.515
66637W        W39062  23.154  33.049   3.456
66638W        W39063  42.302  26.182   4.728
66639W        W39064   3.199   3.944  12.562
66640W        W39065  39.859   4.829  13.010
66641W        W39066  37.093  21.506  12.505
66642W        W39067  13.583  26.102  10.605
66643W        W39068  39.795  21.775  11.166
66644W        W39069  36.349   0.303  12.062
66645W        W39070  31.029  21.587   5.143
66646W        W39071  33.578  41.060  13.561
66647W        W39072  41.549  42.052  12.030
66648W        W39073  35.563  11.729  14.029
66649W        W39074  14.629   6.814   2.263
66650W        W39075   1.706   3.803  13.922
66651W        W39076  14.354  14.148  13.881
66652W        W39077  13.979  13.874   5.207
66653W        W39078  19.031  15.951   4.779
66654W        W39079  43.797  21.601   3.344
66655W        W39080  28.554  37.119   4.210
66656W        W39081  18.156  28.161  11.568
66657W        W39082  44.890  31.191   0.301
66658W        W39083  28.911  33.998  12.096
66659W        W39084  14.232  36.704   2.046
66660W        W39085  12.885   6.349  14.278
66661W        W39086  17.469   4.736  10.053
66662W        W39087  38.935  25.399  11.605
66663W        W39088  20.813  40.261  10.449
66664W        W39089  31.104   8.963   2.266
66665W        W39090  28.712  25.250  10.499
66666W        W39091   5.237  39.723   0.516
66667W        W39092  33.872  37.322   0.467
66668W        W39093  22.585  24.043  12.003
66669W        W39094  18.735   6.967   3.227
66670W        W39095  12.161  14.650   4.201
66671W        W39096   4.056  44.350  12.289
66672W        W39097  20.078   0.263   2.366
66673W        W39098  33.040  44.560   3.370
66674W        W39099  18.550  16.778  14.497
66675W        W39100  17.777   8.173   0.321
66676W        W39101  26.819  37.070   2.805
66677W        W39102  41.415  20.645   1.994
66678W        W39103  18.265  26.616   0.791
66679W        W39104  36.004  38.936  15.000
66680W        W39105  42.430  35.866  13.359
66681W        W39106  42.951   2.798   3.356
66682W        W39107   6.252   8.760   1.533
66683W        W39108  44.845   9.121  12.554
66684W        W39109  13.094  44.956   0.827
66685W        W39110  26.181  15.573   2.650
66686W        W39111  20.657  26.712  13.552
66687W        W39112  37.845  41.901  14.387
66688W        W39113   8.362  44.324   1.853
66689W        W39114  29.124  36.379  13.867
66690W        W39115   5.064  29.857   2.943
66691W        W39116  18.066  10.797  14.413
66692W        W39117  33.319  37.105   2.563
66693W        W39118   6.277   8.417   1.114
66694W        W39119  38.027  13.842   4.057
66695W        W39120   2.860  12.922   0.486
66696W        W39121   8.410  42.578  13.882
66697W        W39122   9.725  12.159  12.144
66698W        W39123  37.313  17.175  13.938
66699W        W39124  26.973   8.775  11.267
66700W        W39125  30.836   8.687  10.287
66701W        W39126   4.011  16.166  11.603
66702W        W39127  37.988   0.235   1.315
66703W        W39128  37.401  19.520   4.543
66704W        W39129  41.409  36.444   2.278
66705W        W39130  30.476  38.901   0.892
66706W        W39131  24.180   7.488  11.759
66707W        W39132  21.184  26.165   3.529
66708W        W39133  23.111  21.157   3.760
66709W        W39134  21.496  21.108   3.782
66710W        W39135  36.158  34.560  12.439
66711W        W39136  39.888  27.156   3.268
66712W        W39137   1.987  10.565  14.210
66713W        W39138  28.596   3.928   2.926
66714W        W39139   7.242   6.979  14.862
66715W        W39140  13.486   4.601   0.273
66716W        W39141  12.706  33.060   1.505
66717W        W39142  44.486  29.116   1.070
66718W        W39143  36.808  42.601   2.628
66719W        W39144  25.750  28.644   3.826
66720W        W39145  11.537   2.350   3.709
66721W        W39146   7.629  33.479  14.760
66722W        W39147  34.832  23.749   4.144
66723W        W39148   6.333  41.503   0.256
66724W        W39149  17.145  17.610   3.751
66725W        W39150  39.311   6.198  12.431
66726W        W39151  21.235  15.088   1.731
66727W        W39152  30.490  37.882  11.068
66728W        W39153  31.145  12.721   4.062
66729W        W39154  13.308   3.524  10.709
66730W        W39155  35.374   3.330   3.253
66731W        W39156   8.634   0.801   4.624
66732W        W39157  33.521  13.845   1.330
66733W        W39158  28.242  11.305  12.644
66734W        W39159  42.742  30.599  11.684
66735W        W39160   5.633  12.338   3.527
66736W        W39161  14.267  31.938   4.373
66737W        W39162  30.489   5.659  12.980
66738W        W39163  44.996   4.251  14.973
66739W        W39164  24.427  12.836  14.357
66740W        W39165  21.067  22.159  11.856
66741W        W39166   6.489  38.336  13.526
66742W        W39167  34.780  22.542   3.092
66743W        W39168  22.682  27.439  12.416
66744W        W39169  41.247   1.518   2.433
66745W        W39170  35.330  19.348   0.360
66746W        W39171  42.916  44.341   1.542
66747W        W39172  18.219  17.515   2.657
66748W        W39173  19.748  11.334   3.156
66749W        W39174  21.026  11.636   1.441
66750W        W39175  37.156  11.870   2.875
66751W        W39176  15.322   3.795   3.693
66752W        W39177  22.044  38.543   2.150
66753W        W39178  35.483  14.054   2.841
66754W        W39179  38.610   1.763  11.985
66755W        W39180  42.910  15.159   3.144
66756W        W39181  40.506  35.375  11.208
66757W        W39182  20.518  28.930   2.752
66758W        W39183  34.329  22.769  11.523
66759W        W39184  17.209  44.601  13.823
66760W        W39185  31.121   2.698   0.854
66761W        W39186  20.611  39.744   4.310
66762W        W39187  13.864  31.155   0.244
66763W        W39188  19.168  19.989  11.358
66764W        W39189  10.290  38.963   1.854
66765W        W39190   3.996  17.650   3.254
66766W        W39191  40.802  34.600   0.894
66767W        W39192  42.776  32.045  11.508
66768W        W39193  36.844  28.509  13.533
66769W        W39194  38.084  11.710   3.046
66770W        W39195  24.001  18.468   1.389
66771W        W39196   8.723   4.413  13.383
66772W        W39197  38.910   7.782  10.568
66773W        W39198  43.789   2.443   0.474
66774W        W39199  25.161  35.740   2.857
66775W        W39200  28.500   1.550   2.478
66776W        W39201  35.026  36.333  11.995
66777W        W39202  36.384  43.319   4.085
66778W        W39203  28.257  30.886   0.894
66779W        W39204  22.263  18.205  14.294
66780W        W39205  19.860  22.686   1.403
66781W        W39206  25.073   0.670  12.118
66782W        W39207  37.060  27.126  13.978
66783W        W39208  10.922   4.096  13.473
66784W        W39209  25.967  37.583  11.532
66785W        W39210   6.808  39.993  12.981
66786W        W39211  29.496  41.237   2.889
66787W        W39212  26.491   9.086  14.237
66788W        W39213  19.163  23.252  12.951
66789W        W39214  43.422  30.879   3.003
66790W        W39215  22.311   0.443   4.631
66791W        W39216  42.541   0.309  11.591
66792W        W39217   5.314  37.762   0.490
66793W        W39218   8.641  34.384  12.038
66794W        W39219  22.277  26.048   2.393
66795W        W39220  33.483   2.734  10.031
66796W        W39221  11.464  11.786  11.969
66797W        W39222  27.037  28.641  13.800
66798W        W39223   1.899  37.981  11.537
66799W        W39224  24.045  20.513   2.763
66800W        W39225  28.172  17.592   4.263
66801W        W39226  42.872  27.654  13.520
66802W        W39227  17.057  19.239   1.273
66803W        W39228  33.983   4.271  14.846
66804W        W39229  21.450  42.962  10.376
66805W        W39230  19.285  17.139  12.020
66806W        W39231  20.195  19.825   5.185
66807W        W39232  11.738  28.883   2.887
66808W        W39233  20.102   0.758  12.936
66809W        W39234   2.367   5.606  11.246
66810W        W39235  23.384  23.146  13.359
66811W        W39236  37.706   3.252  14.799
66812W        W39237   5.484   5.155  11.682
66813W        W39238  43.521  30.456  13.411
66814W        W39239  41.000  32.421   1.299
66815W        W39240   6.749  38.569  12.591
66816W        W39241  31.341  40.783  13.906
66817W        W39242  23.832  40.367  11.183
66818W        W39243  36.018  20.715   4.645
66819W        W39244   2.280   8.844  12.499
66820W        W39245  37.050  23.463  11.254
66821W        W39246  14.164  13.211   4.504
66822W        W39247  10.395  13.782  12.542
66823W        W39248   6.192  42.761   4.878
66824W        W39249   6.291  42.537  12.445
66825W        W39250  13.704  36.358   1.748
66826W        W39251  43.001  31.686   1.904
66827W        W39252  19.988  13.800   1.386
66828W        W39253  37.552   6.297  11.513
66829W        W39254  16.746  35.444   0.057
66830W        W39255  32.024   6.345   1.206
66831W        W39256   1.753  28.025  12.543
66832W        W39257  41.924  16.151   1.684
66833W        W39258  34.150   2.445  11.539
66834W        W39259  29.171  35.383   1.880
66835W        W39260  14.053  44.694   0.756
66836W        W39261  15.321  42.674   2.688
66837W        W39262   7.152  18.245  10.619
66838W        W39263  25.739  40.536   2.739
66839W        W39264  27.167   0.693  13.514
66840W        W39265  39.363  36.754   3.728
66841W        W39266   0.941  40.363   1.102
66842W        W39267  35.504  38.841   3.506
66843W        W39268  15.774  38.517   3.142
66844W        W39269  17.066  13.656   0.747
66845W        W39270   5.389  36.068   2.481
66846W        W39271  22.105  41.372   4.885
66847W        W39272  31.770  22.389   4.881
66848W        W39273  22.258  39.006   2.313
66849W        W39274  20.255   0.129  11.692
66850W        W39275  14.350  18.294   4.197
66851W        W39276  22.612  25.802   3.659
66852W        W39277  26.921   7.298  13.877
66853W        W39278  20.553  12.086   0.716
66854W        W39279  28.430  43.578   2.803
66855W        W39280  37.365  33.121   3.106
66856W        W39281  10.379  34.114   1.199
66857W        W39282   0.453  13.954  13.942
66858W        W39283  24.893  37.961  11.538
66859W        W39284  22.243  29.968   3.787
66860W        W39285  13.203  20.828  11.098
66861W        W39286   6.802   8.350   1.828
66862W        W39287  37.437  34.496   0.101
66863W        W39288   5.912   5.449  11.372
66864W        W39289  19.045  31.415  13.468
66865W        W39290  11.203  13.387  12.017
66866W        W39291   0.808  35.027   3.167
66867W        W39292  43.892  15.566  10.529
66868W        W39293  22.080  10.879   1.441
66869W        W39294  36.826   5.549  13.836
66870W        W39295  29.010   4.248  14.932
66871W        W39296  34.961  11.944   0.136
66872W        W39297  10.202  26.996   2.465
66873W        W39298  22.519  23.262   1.194
66874W        W39299  10.226  36.394  12.366
66875W        W39300  28.501  20.755   1.755
66876W        W39301   5.467   3.833  11.001
66877W        W39302  44.462  19.539   2.394
66878W        W39303  10.010  15.977  14.581
66879W        W39304  15.068  26.241   0.914
66880W        W39305  43.842  24.433   2.233
66881W        W39306  36.903  22.036  11.155
66882W        W39307  29.233  12.640   4.068
66883W        W39308   9.380  28.646   0.259
66884W        W39309  36.122   0.439  10.735
66885W        W39310  21.800  33.401   4.108
66886W        W39311  35.174  44.733   1.560
66887W        W39312  40.943  19.818   2.711
66888W        W39313  37.923  35.492   2.475
66889W        W39314   3.784  41.389  13.985
66890W        W39315   1.476  33.965   0.166
66891W        W39316  13.608  27.292   2.903
66892W        W39317  19.974  41.113  14.923
66893W        W39318  17.176   4.405   0.762
66894W        W39319  29.124  32.342  11.539
66895W        W39320  14.206   8.968  12.001
66896W        W39321   0.529  43.542  13.330
66897W        W39322  42.611  37.664   0.875
66898W        W39323  20.565  17.312   3.822
66899W        W39324  14.555   8.315  13.919
66900W        W39325  40.334   2.690  13.851
66901W        W39326  37.385  35.758   2.755
66902W        W39327  26.980   5.337   3.054
66903W        W39328   2.692   3.057   4.805
66904W        W39329  21.739  38.383   0.860
66905W        W39330  34.291  43.370  13.966
66906W        W39331  43.943   1.242   3.342
66907W        W39332  27.985  21.014  11.971
66908W        W39333  23.066  39.303   3.387
66909W        W39334  25.516  10.024   2.564
66910W        W39335  22.683  15.996  13.131
66911W        W39336   3.029   5.380   0.743
66912W        W39337  23.645  34.458   4.704
66913W        W39338  27.791  15.761  10.382
66914W        W39339  15.728  16.669   3.752
66915W        W39340  30.016   7.317   2.404
66916W        W39341   2.099   9.570  13.382
66917W        W39342  12.452  23.490  14.729
66918W        W39343  34.255  24.476  14.716
66919W        W39344  36.317  42.032   2.215
66920W        W39345  13.852  35.626   0.217
66921W        W39346   6.981  40.981   4.324
66922W        W39347  34.491   7.696  12.463
66923W        W39348  36.174  42.066   3.087
66924W        W39349  21.747  10.808  13.577
66925W        W39350  35.510   6.230  10.902
66926W        W39351   9.857  32.178   0.780
66927W        W39352  34.756  35.739   5.286
66928W        W39353   4.708  13.847   1.365
66929W        W39354  32.339  18.018   0.658
66930W        W39355   5.007   1.045   2.682
66931W        W39356  22.477  30.784  13.713
66932W        W39357  16.562  21.142   5.041
66933W        W39358  39.035  21.145   0.400
66934W        W39359   2.625  22.668  14.004
66935W        W39360   5.795  44.785   3.292
66936W        W39361   1.527  21.165   2.253
66937W        W39362  10.051  26.385   2.709
66938W        W39363  30.854  16.085  11.699
66939W        W39364  34.426   3.527  10.819
66940W        W39365  17.098  34.378   1.389
66941W        W39366  11.232  38.390   1.647
66942W        W39367  28.016  37.894  13.837
66943W        W39368   4.464  18.591  12.673
66944W        W39369  21.225  27.476   0.682
66945W        W39370  23.096  27.426  13.891
66946W        W39371  37.182  40.812   2.516
66947W        W39372  10.093   7.437  12.878
66948W        W39373  16.699  44.777  13.846
66949W        W39374  44.029   2.285   0.933
66950W        W39375  40.522  10.452   4.620
66951W        W39376   9.906  14.572   2.236
66952W        W39377  32.851  12.289  12.063
66953W        W39378  24.460   3.348  13.733
66954W        W39379  38.383  41.373   2.564
66955W        W39380  25.542  18.202   2.150
66956W        W39381   5.997  28.021  11.128
66957W        W39382  32.188  37.144   4.893
66958W        W39383  31.618  13.362   2.780
66959W        W39384  30.201   4.964   1.427
66960W        W39385  38.779  27.471   4.107
66961W        W39386  21.290  25.583  10.713
66962W        W39387  33.857  25.586   0.894
66963W        W39388  38.007  38.285   0.476
66964W        W39389  34.262  35.676  13.773
66965W        W39390  32.167  18.604  12.037
66966W        W39391  10.256   8.373   1.775
66967W        W39392   4.972  30.618  11.542
66968W        W39393  38.423   4.151   0.763
66969W        W39394  22.784  38.441   0.945
66970W        W39395   9.113  37.905  13.324
66971W        W39396   5.285  13.157  14.468
66972W        W39397  13.340  20.634  14.951
66973W        W39398  35.308  39.197   1.047
66974W        W39399  28.605  29.390  14.592
66975W        W39400  28.695  41.384   9.966
66976W        W39401  26.210   4.793   1.399
66977W        W39402  18.172  35.060   3.658
66978W        W39403  26.989   7.360  13.264
66979W        W39404  33.147  39.846  13.445
66980W        W39405  15.896   1.777  14.319
66981W        W39406   5.392  16.106   2.627
66982W        W39407  13.275  34.531   4.209
66983W        W39408  38.529   6.518   0.665
66984W        W39409  25.765  42.921  12.083
66985W        W39410  33.790  25.474   2.237
66986W        W39411  10.192  44.629   5.094
66987W        W39412  37.495   0.145   0.277
66988W        W39413   9.869  21.488   0.803
66989W        W39414  16.082  32.490   5.446
66990W        W39415  25.206   7.493  14.167
66991W        W39416  37.437  41.643  11.089
66992W        W39417  39.952   3.915   4.338
66993W        W39418  12.164  38.391   1.212
66994W        W39419  15.180  29.874  11.518
66995W        W39420  20.767  37.493  13.760
66996W        W39421  34.596  43.439  14.377
66997W        W39422  38.112  19.755   4.095
66998W        W39423  32.082  19.094   1.828
66999W        W39424  19.114   2.993   4.108
67000W        W39425  39.501  43.367  11.578
67001W        W39426  41.750  22.102  13.816
67002W        W39427  24.787  28.654  11.440
67003W        W39428  38.960  21.508   2.260
67004W        W39429  26.483   6.445   3.334
67005W        W39430   1.381  43.049  12.557
67006W        W39431   7.964   3.523  12.404
67007W        W39432  35.883  31.562   2.625
67008W        W39433  22.752  16.817  11.548
67009W        W39434   1.574  31.091  12.973
67010W        W39435  40.824  25.691   3.077
67011W        W39436  39.677  28.961   4.358
67012W        W39437  24.604  29.853  13.905
67013W        W39438  38.397   7.862   4.570
67014W        W39439  20.709  14.318   1.953
67015W        W39440  39.812  30.978  11.627
67016W        W39441   7.667  16.659  12.232
67017W        W39442  36.314   6.498   9.945
67018W        W39443  35.881  34.758   4.108
67019W        W39444   3.427   0.892   3.036
67020W        W39445  15.833  21.157   1.835
67021W        W39446  41.336  35.610  11.279
67022W        W39447  10.424   4.244  12.807
67023W        W39448  33.367  24.619   1.296
67024W        W39449  32.482  30.954   2.834
67025W        W39450  17.778  11.559  14.797
67026W        W39451  39.594  26.078   1.297
67027W        W39452  39.001   4.191  12.162
67028W        W39453  17.254   1.571   0.586
67029W        W39454  41.821  20.966   3.865
67030W        W39455  44.413  38.389  11.999
67031W        W39456  31.092  41.353  10.632
67032W        W39457  22.048  29.893  13.055
67033W        W39458  10.851  32.355   3.986
67034W        W39459   2.583  25.505   2.622
67035W        W39460  12.431  14.753   0.604
67036W        W39461  32.634  19.722  10.696
67037W        W39462  10.418   2.222  10.607
67038W        W39463  32.614  32.613   3.673
67039W        W39464  39.108  15.256  13.917
67040W        W39465  33.626  23.241  10.639
67041W        W39466  26.773   5.271   4.706
67042W        W39467   3.971  33.358   0.861
67043W        W39468   6.239  12.726  14.736
67044W        W39469  30.641  10.741  12.529
67045W        W39470  44.855  15.861   1.398
67046W        W39471   4.941  24.543   1.777
67047W        W39472  32.603  36.966  10.685
67048W        W39473  37.392  32.362  14.403
67049W        W39474  44.048  17.828   1.742
67050W        W39475  11.143  20.485  14.350
67051W        W39476   9.301   9.127  11.211
67052W        W39477  30.017  15.575   4.594
67053W        W39478   2.673  40.841  12.096
67054W        W39479   3.660  16.242  13.590
67055W        W39480  40.342  17.245  10.666
67056W        W39481  21.963  35.121   2.400
67057W        W39482  27.580   2.000  12.539
67058W        W39483   4.420  25.132  13.748
67059W        W39484  35.078  34.305   3.690
67060W        W39485  11.991  28.074  10.311
67061W        W39486  20.078  13.228  14.038
67062W        W39487  23.165  44.313   1.349
67063W        W39488  23.655  32.513   0.762
67064W        W39489   5.794  10.318   0.486
67065W        W39490  32.598   2.858  14.200
67066W        W39491  18.180  32.879  11.108
67067W        W39492  37.107  10.792   0.473
67068W        W39493  21.123  42.722   1.884
67069W        W39494  44.825  34.540   2.605
67070W        W39495  37.563  34.696   0.876
67071W        W39496   8.296  22.987   0.359
67072W        W39497   1.012  21.073   2.369
67073W        W39498  22.586  28.941   3.275
67074W        W39499  22.979   5.532   3.386
67075W        W39500  13.622  41.723   0.778
67076W        W39501  33.664  22.642   2.770
67077W        W39502  15.084  18.517  14.522
67078W        W39503   5.327  33.392  10.262
67079W        W39504  40.975  23.053   4.149
67080W        W39505  16.384  36.057   3.245
67081W        W39506   5.941   2.372  13.569
67082W        W39507  44.222  23.999  12.528
67083W        W39508  26.053  44.236   0.710
67084W        W39509  37.650  15.274   0.801
67085W        W39510  11.066  16.320  14.511
67086W        W39511  22.778  26.622   4.326
67087W        W39512   4.500  15.834   3.367
67088W        W39513  44.886  31.104   5.012
67089W        W39514  16.927   4.897   4.585
67090W        W39515  12.850  25.510  12.503
67091W        W39516   3.324  33.729  14.553
67092W        W39517  34.526   0.435  14.061
67093W        W39518  41.904   6.638  11.175
67094W        W39519  24.745  32.268   0.468
67095W        W39520  18.120   3.865   1.985
67096W        W39521  11.220  42.767   2.713
67097W        W39522   3.136   9.688  11.855
67098W        W39523  29.405  25.829  10.995
67099W        W39524  36.270   4.135   3.997
67100W        W39525  14.835  38.097   0.485
67101W        W39526   8.630  31.632   2.913
67102W        W39527   9.713  26.901  12.427
67103W        W39528  41.955   8.720  13.076
67104W        W39529   1.862  36.699   4.211
67105W        W39530  19.783  12.334  11.403
67106W        W39531  24.508  35.739   5.161
67107W        W39532  35.780  21.648  11.862
67108W        W39533   9.719  19.652  10.999
67109W        W39534  33.278  38.445   2.999
67110W        W39535  14.653  14.338   4.790
67111W        W39536  17.068  25.688  10.813
67112W        W39537   9.728   6.863   4.209
67113W        W39538  22.672  30.540  14.400
67114W        W39539  35.554  31.303  12.361
67115W        W39540   8.249   2.344  14.963
67116W        W39541  11.116  28.695   1.477
67117W        W39542  12.639  15.690   0.466
67118W        W39543  30.071  22.079  13.937
67119W        W39544  26.426  36.452  14.766
67120W        W39545   3.790  23.539   3.860
67121W        W39546  38.115  10.413   1.798
67122W        W39547   2.022  37.092  11.543
67123W        W39548  44.748  30.925  14.883
67124W        W39549   5.867  25.803   4.669
67125W        W39550  34.264   6.401  11.064
67126W        W39551  28.911  31.946  11.263
67127W        W39552   8.758  24.394  12.424
67128W        W39553  18.922  31.444   0.871
67129W        W39554  13.058  11.307   4.398
67130W        W39555  17.766  35.588   4.070
67131W        W39556  43.856  30.145   1.463
67132W        W39557  30.007  40.713  12.762
67133W        W39558  35.963  20.729  10.918
67134W        W39559  44.554  32.958  10.682
67135W        W39560   6.836   8.757  13.984
67136W        W39561  30.073  30.121  14.445
67137W        W39562   5.584  44.425  10.638
67138W        W39563   2.400  29.184  13.865
67139W        W39564  22.555  12.176   3.578
67140W        W39565  33.449  26.274  14.015
67141W        W39566   0.735  22.584  14.727
67142W        W39567  16.518  24.162  12.573
67143W        W39568   8.665  27.184  12.694
67144W        W39569  20.270  26.857   0.536
67145W        W39570   5.753  38.182  13.124
67146W        W39571  44.235  18.023   4.695
67147W        W39572  26.693  26.780   1.711
67148W        W39573  11.790  26.994   2.812
67149W        W39574  12.501   1.459   0.894
67150W        W39575   1.201  19.179   2.184
67151W        W39576  10.604  16.930  13.297
67152W        W39577  24.645  10.236   2.860
67153W        W39578   3.268  44.447  12.431
67154W        W39579  15.105   1.803   1.191
67155W        W39580  38.951  16.717   4.092
67156W        W39581  23.039  23.161   3.708
67157W        W39582  17.976  32.946  11.998
67158W        W39583  38.608  40.314  12.889
67159W        W39584  29.595  41.831   3.137
67160W        W39585   6.339  32.107   2.036
67161W        W39586  12.120  33.470   0.831
67162W        W39587  33.409   2.685  11.532
67163W        W39588  30.584  17.317   1.761
67164W        W39589  30.539  44.066  10.660
67165W        W39590  11.176   5.423   4.406
67166W        W39591  19.628  42.058   1.811
67167W        W39592  40.550   1.926   2.758
67168W        W39593  20.658  37.871  10.842
67169W        W39594  24.680  15.545   2.309
67170W        W39595   5.170  19.832  13.328
67171W        W39596  21.986  22.061   1.843
67172W        W39597  22.185  34.029   2.249
67173W        W39598  37.082  43.859   3.375
67174W        W39599  28.000  20.356  14.055
67175W        W39600  37.567  13.303  12.377
67176W        W39601  11.857  25.109  12.000
67177W        W39602  32.990   8.833  10.759
67178W        W39603  28.574  29.272  13.516
67179W        W39604  33.419  39.350  12.864
67180W        W39605  40.441  44.810  13.572
67181W        W39606  38.812  42.922  10.554
67182W        W39607  15.035  40.108   2.329
67183W        W39608  29.868  43.431   4.264
67184W        W39609   5.751  26.722   1.321
67185W        W39610  32.610  43.576   2.869
67186W        W39611   6.708  39.475  12.817
67187W        W39612  30.296  25.812  11.791
67188W        W39613   7.083  13.781   2.580
67189W        W39614  41.875  38.858  13.441
67190W        W39615  27.957  13.080  12.604
67191W        W39616  32.878   0.899   1.408
67192W        W39617  35.697  19.212  12.651
67193W        W39618   1.968   1.377  14.376
67194W        W39619  29.120   0.726  11.044
67195W        W39620   1.293  44.529  11.440
67196W        W39621  31.746  33.147   2.572
67197W        W39622  17.699  34.973  10.443
67198W        W39623  33.033  23.115   3.100
67199W        W39624  14.220  14.766  11.517
67200W        W39625  33.407  40.721  10.915
67201W        W39626   3.509   3.371  14.781
67202W        W39627  12.403   7.931   3.640
67203W        W39628  18.424  31.475   0.996
67204W        W39629   3.841  22.938   2.761
67205W        W39630  15.257  18.702   2.773
67206W        W39631  33.622   2.628   4.179
67207W        W39632  17.165   8.074   4.335
67208W        W39633  19.402  29.081   1.946
67209W        W39634  28.050   3.751   4.201
67210W        W39635  19.242  13.796   2.600
67211W        W39636  37.542  31.690  13.803
67212W        W39637   4.513  19.313  13.805
67213W        W39638  40.948  24.185   2.357
67214W        W39639  43.876  21.561   1.810
67215W        W39640   9.641   7.346  12.021
67216W        W39641   9.772  20.480  11.246
67217W        W39642   4.927   4.659  10.695
67218W        W39643  33.544   5.824   2.043
67219W        W39644  20.108  24.306   2.161
67220W        W39645  26.766  36.984  10.639
67221W        W39646  27.735  33.049   1.306
67222W        W39647  19.564   6.934   1.449
67223W        W39648   1.220  19.693   1.456
67224W        W39649  10.411  22.548   1.439
67225W        W39650  22.951  15.893  10.454
67226W        W39651  27.055  29.113  12.453
67227W        W39652  39.461   0.404   1.689
67228W        W39653  30.624   9.186   0.391
67229W        W39654  41.383  42.406  13.322
67230W        W39655  40.796  32.979   1.902
67231W        W39656  29.693  41.157   4.648
67232W        W39657   7.390  16.879  10.517
67233W        W39658  32.934  13.930   4.081
67234W        W39659  42.620  14.641   2.555
67235W        W39660  28.082  39.928  14.921
67236W        W39661  28.998  23.951  12.112
67237W        W39662   4.243  37.636  14.738
67238W        W39663   1.839  20.093  13.005
67239W        W39664   5.684  20.037  13.482
67240W        W39665  12.954  28.023   3.773
67241W        W39666  15.815  20.458  14.896
67242W        W39667  26.058  15.997  11.591
67243W        W39668  19.047   7.370   0.007
67244W        W39669  24.084  14.106  12.512
67245W        W39670  40.076  20.533   0.647
67246W        W39671  20.598  28.127  12.969
67247W        W39672   8.708  22.723   2.403
67248W        W39673  34.560  35.816   0.703
67249W        W39674  23.312  43.737  14.352
67250W        W39675  40.837  30.849   2.804
67251W        W39676  12.900  25.497  14.938
67252W        W39677  35.876  34.838   0.806
67253W        W39678  27.481  28.989   1.960
67254W        W39679  35.705  36.406  10.612
67255W        W39680   2.214   2.813   3.767
67256W        W39681  42.446  32.404  11.670
67257W        W39682  36.591  13.623   1.814
67258W        W39683   8.912   8.343  10.811
67259W        W39684  15.561  26.592  11.511
67260W        W39685  35.538  34.116   3.882
67261W        W39686  13.045  14.448  12.683
67262W        W39687  26.190  42.395   2.646
67263W        W39688  22.210   1.828   1.830
67264W        W39689  12.798  40.626   1.937
67265W        W39690  25.554  17.521   4.542
67266W        W39691  40.982  16.143   0.722
67267W        W39692  18.224  33.631   1.283
67268W        W39693  34.168  21.650  10.936
67269W        W39694  41.069   8.117   1.412
67270W        W39695   8.098  12.351  12.939
67271W        W39696  33.579  24.376   3.246
67272W        W39697   4.453   0.321  14.988
67273W        W39698   3.892  38.523  12.061
67274W        W39699  34.961   1.061  11.501
67275W        W39700  43.271   4.641   0.408
67276W        W39701   0.408  42.875   3.719
67277W        W39702  20.764  32.893  13.450
67278W        W39703   9.137  12.270   1.979
67279W        W39704  16.786  32.841   1.889
67280W        W39705  32.896  44.981  14.416
67281W        W39706   0.622  16.551  14.469
67282W        W39707  13.673  34.889  12.818
67283W        W39708  44.455  40.541  10.672
67284W        W39709   6.398  42.899   3.862
67285W        W39710  30.524  33.514   2.787
67286W        W39711  39.971  36.008  12.140
67287W        W39712  32.095   9.624  11.048
67288W        W39713  18.982   8.715   4.677
67289W        W39714  39.379  29.210  14.895
67290W        W39715  26.602  16.309   4.272
67291W        W39716  18.733  31.430   3.460
67292W        W39717   7.868  38.458  14.683
67293W        W39718  27.235  26.776  11.736
67294W        W39719  10.591  38.899  11.928
67295W        W39720  28.229  15.594  10.590
67296W        W39721  37.639   5.712  12.047
67297W        W39722  40.788   8.995  14.333
67298W        W39723  25.794  42.336   0.663
67299W        W39724  11.369  25.656  11.568
67300W        W39725  22.492  30.973   4.493
67301W        W39726  36.527  18.072  14.849
67302W        W39727  44.462  42.840  14.406
67303W        W39728  23.206  13.063   2.277
67304W        W39729  41.875  40.829  10.657
67305W        W39730  22.032  17.750  12.745
67306W        W39731  28.701   2.511  11.199
67307W        W39732  20.726  13.135  14.862
67308W        W39733   4.476  25.467   4.890
67309W        W39734  13.095   2.274   0.937
67310W        W39735  34.070  30.644  14.369
67311W        W39736  42.360  27.732  14.930
67312W        W39737  26.993  35.480  10.693
67313W        W39738  24.353  18.575  11.685
67314W        W39739  35.056  13.958  12.950
67315W        W39740  39.808  40.048  11.383
67316W        W39741  27.894  13.624  14.183
67317W        W39742   0.202  35.576  14.176
67318W        W39743  19.025   4.907   1.270
67319W        W39744  22.858  10.575  11.037
67320W        W39745   8.882   7.307  11.592
67321W        W39746  21.196   6.816  12.466
67322W        W39747  22.260   3.451  12.387
67323W        W39748  44.753  10.129   3.163
67324W        W39749  10.659  10.454   2.879
67325W        W39750  20.003  15.119   4.498
67326W        W39751  16.681  32.663  14.664
67327W        W39752  22.528  37.073  13.996
67328W        W39753   4.746  29.763  13.086
67329W        W39754  13.748   3.930   4.626
67330W        W39755  20.172  10.585  11.999
67331W        W39756  40.404  30.189  13.844
67332W        W39757  43.991  11.996  11.442
67333W        W39758   4.260  44.270   0.781
67334W        W39759  17.249  34.324  13.855
67335W        W39760   8.708  25.510  11.512
67336W        W39761  44.026  13.331  10.693
67337W        W39762  44.327  25.934   2.650
67338W        W39763  15.774   6.720   4.640
67339W        W39764   6.048   7.282   4.918
67340W        W39765   5.895  42.406   2.697
67341W        W39766  39.234  16.580  12.044
67342W        W39767  41.743  27.212  11.864
67343W        W39768  13.161   4.519   4.304
67344W        W39769   7.023   0.562  12.339
67345W        W39770  31.693   5.802  12.714
67346W        W39771  14.945  33.904  14.189
67347W        W39772  29.031  25.494  13.872
67348W        W39773   2.858   3.744  11.558
67349W        W39774  29.992  41.009  11.033
67350W        W39775  21.224  29.003   4.479
67351W        W39776  29.680  26.680   2.757
67352W        W39777  21.684   8.280  11.384
67353W        W39778  32.101  43.382   0.540
67354W        W39779  22.708   2.885   3.400
67355W        W39780   9.172  11.216   4.693
67356W        W39781  43.281  31.006   1.671
67357W        W39782  19.759  28.873   3.175
67358W        W39783  19.312  32.165  11.614
67359W        W39784   7.346  32.533   2.880
67360W        W39785  11.364  28.520  13.182
67361W        W39786  22.924  40.962  10.611
67362W        W39787  41.340  17.000   4.434
67363W        W39788  34.455   0.084   3.184
67364W        W39789  27.006   4.801   4.607
67365W        W39790  27.623  39.757  14.712
67366W        W39791  39.989  21.622   3.636
67367W        W39792  27.054  16.095   4.105
67368W        W39793   7.209  13.691  13.602
67369W        W39794   9.430  26.220   0.509
67370W        W39795   6.108  16.854   2.367
67371W        W39796  41.327  32.145  14.355
67372W        W39797  44.783  42.387  14.465
67373W        W39798   0.237  17.493  11.110
67374W        W39799   9.766  27.560  10.709
67375W        W39800  44.971  30.086  12.361
67376W        W39801   4.024  21.344  11.040
67377W        W39802   1.705  38.610  13.074
67378W        W39803   1.933   5.183   4.129
67379W        W39804  29.503  36.937   3.068
67380W        W39805   2.995  29.591   0.372
67381W        W39806  13.075  18.729   3.401
67382W        W39807  39.824  19.640  10.558
67383W        W39808   7.117   2.342  12.388
67384W        W39809  29.860  34.455   0.061
67385W        W39810  18.486  43.966  11.545
67386W        W39811  27.088  14.519   3.035
67387W        W39812   5.645   6.865   3.802
67388W        W39813  13.707  38.819  10.707
67389W        W39814  35.964   9.659   2.696
67390W        W39815   6.903  36.407  10.536
67391W        W39816  32.667  23.936  11.180
67392W        W39817   1.477  19.160   2.615
67393W        W39818  23.022   4.859   0.415
67394W        W39819   5.011   1.791   4.427
67395W        W39820  33.237  35.684  12.978
67396W        W39821  10.749  34.492   0.196
67397W        W39822   9.946   4.598   2.353
67398W        W39823  44.596   2.142   0.372
67399W        W39824  13.708  19.742   0.871
67400W        W39825  22.958  28.881   0.290
67401W        W39826  44.512  31.007  12.861
67402W        W39827  11.315  37.218   3.384
67403W        W39828  11.436  12.055  14.492
67404W        W39829  12.316  20.726   3.817
67405W        W39830  22.760  32.544  10.440
67406W        W39831  30.934  19.594  14.081
67407W        W39832  17.015  30.686  11.132
67408W        W39833  40.398  15.294   3.230
67409W        W39834  38.340  32.692  14.763
67410W        W39835  21.298  11.679   0.472
67411W        W39836  16.644  24.002  11.245
67412W        W39837  39.901   6.399  11.612
67413W        W39838  14.501  11.273  11.527
67414W        W39839  31.944  27.530  11.032
67415W        W39840  42.419   5.913   1.795
67416W        W39841  11.794  35.676  10.008
67417W        W39842  31.116  44.226  11.109
67418W        W39843  18.994  24.161   1.714
67419W        W39844   9.192  21.915   4.548
67420W        W39845  24.033   5.223   0.260
67421W        W39846  42.821  12.783  12.431
67422W        W39847   3.441  12.402  14.802
67423W        W39848   3.971  24.705   3.135
67424W        W39849  42.054   6.202   0.751
67425W        W39850  37.961  36.128   4.624
67426W        W39851  35.109  43.990  10.726
67427W        W39852  33.313   9.278  13.050
67428W        W39853  39.346   4.734  14.373
67429W        W39854  33.831  13.667   0.018
67430W        W39855   4.295  22.804   3.172
67431W        W39856  34.639  22.532   2.585
67432W        W39857   4.683  12.147  14.419
67433W        W39858   1.996  32.818  12.051
67434W        W39859  38.582  22.404  11.990
67435W        W39860  31.124  31.050  14.461
67436W        W39861   5.747  25.719   0.469
67437W        W39862  44.275  37.534   1.397
67438W        W39863  17.780  26.088   1.285
67439W        W39864  27.676  40.554   1.220
67440W        W39865  41.561  16.559   1.307
67441W        W39866  31.004  30.458   5.099
67442W        W39867  32.938   4.487   2.809
67443W        W39868   6.248   5.731   1.866
67444W        W39869  20.707  24.571  12.698
67445W        W39870  24.507   8.933   5.054
67446W        W39871   1.454  33.405  10.189
67447W        W39872  32.359  22.606  12.388
67448W        W39873  13.549  15.620   1.859
67449W        W39874  27.670  15.138   0.275
67450W        W39875  22.606   0.512  14.753
67451W        W39876  14.619   0.690   0.879
67452W        W39877   7.416   4.330  10.408
67453W        W39878  42.717  32.355  11.059
67454W        W39879  23.240  35.040   3.676
67455W        W39880   3.869   6.386  10.602
67456W        W39881  17.613   7.680   1.855
67457W        W39882  36.659  16.749   3.812
67458W        W39883  43.282  38.446   1.447
67459W        W39884  33.741  27.079  14.402
67460W        W39885  39.521   9.137  14.270
67461W        W39886  32.907  21.264  13.502
67462W        W39887  31.976  37.328   2.294
67463W        W39888  22.825   9.740   1.956
67464W        W39889   6.174  40.286  12.906
67465W        W39890  35.952   9.728  11.022
67466W        W39891  25.000  15.123   2.345
67467W        W39892  38.953   8.681   0.942
67468W        W39893  28.168  42.469  11.462
67469W        W39894  25.029  13.631   3.343
67470W        W39895   8.808  23.166   4.436
67471W        W39896   8.174   0.072   1.838
67472W        W39897  33.422  38.194   4.908
67473W        W39898  34.086  31.589   4.209
67474W        W39899  16.571  41.412   5.034
67475W        W39900   6.670   0.487   0.719
67476W        W39901  30.022   8.131   0.901
67477W        W39902  30.560  19.565   0.280
67478W        W39903   9.815   4.006  13.797
67479W        W39904  26.472  25.666  13.297
67480W        W39905  24.388  22.926   1.958
67481W        W39906  30.028   6.350   2.345
67482W        W39907  10.423  44.802  10.589
67483W        W39908   2.672   6.172  14.864
67484W        W39909   2.455  22.675   4.352
67485W        W39910  28.083  30.872   4.619
67486W        W39911  27.966   7.744   0.854
67487W        W39912   1.212  23.220  13.078
67488W        W39913   9.463  11.637  13.568
67489W        W39914   3.255  44.557   4.573
67490W        W39915  44.605   7.197   2.155
67491W        W39916  23.526  20.494   4.015
67492W        W39917  34.510   7.750   3.814
67493W        W39918  24.209  10.938   3.892
67494W        W39919  20.573  44.995  13.398
67495W        W39920  36.449  36.827   1.179
67496W        W39921  14.839  44.173   0.668
67497W        W39922  24.176  32.852   2.628
67498W        W39923  44.577  18.345   4.979
67499W        W39924   0.780  29.481  12.830
67500W        W39925   8.379  10.907   4.087
67501W        W39926   8.142  21.570  10.898
67502W        W39927  22.069   7.107   2.204
67503W        W39928  21.484  32.772   2.779
67504W        W39929  29.842  20.017   1.279
67505W        W39930  21.174   0.814  11.510
67506W        W39931  14.755  44.920   2.979
67507W        W39932  33.972  15.672   2.826
67508W        W39933  21.529  20.015   1.337
67509W        W39934  16.853   9.746   4.743
67510W        W39935   8.982  26.854  13.891
67511W        W39936   6.732  27.445   3.949
67512W        W39937   0.774  14.016  10.681
67513W        W39938  39.497  33.079  11.018
67514W        W39939  44.694   1.356  14.414
67515W        W39940  35.925  16.419   4.824
67516W        W39941  15.268   1.682  11.868
67517W        W39942  10.323  24.359  14.255
67518W        W39943   0.756  14.294   0.246
67519W        W39944  21.030  38.516   1.044
67520W        W39945  29.867   7.803  12.845
67521W        W39946  25.265  21.281  11.629
67522W        W39947  40.061  19.599   3.177
67523W        W39948  12.069   9.652  13.819
67524W        W39949  41.321  42.031  14.126
67525W        W39950  31.013  36.046  13.162
67526W        W39951  16.849   8.822   1.362
67527W        W39952  42.948  41.228  14.359
67528W        W39953  17.581  24.173  14.360
67529W        W39954  30.681  42.509  13.396
67530W        W39955  31.828  31.500   0.982
67531W        W39956  42.761   0.319   4.922
67532W        W39957  38.183  30.151  13.512
67533W        W39958   8.367  19.094   3.665
67534W        W39959  42.773  34.491   9.816
67535W        W39960   9.209  13.700   0.991
67536W        W39961  42.502  11.189  13.118
67537W        W39962  34.069   2.314  11.051
67538W        W39963  40.968   5.470  12.586
67539W        W39964  30.195  38.665  14.748
67540W        W39965   7.721  27.957   4.970
67541W        W39966   7.230  13.736  12.174
67542W        W39967  20.666   3.303  14.946
67543W        W39968   6.791  15.646   1.459
67544W        W39969   4.256  37.890  12.899
67545W        W39970  39.315  12.762  13.616
67546W        W39971  23.460   2.639   1.680
67547W        W39972  32.642  11.334   3.029
67548W        W39973  32.861  17.001  13.476
67549W        W39974   5.133  39.595  14.543
67550W        W39975   1.078  26.973   3.199
67551W        W39976   8.880  35.529   3.592
67552W        W39977  37.629   0.090  14.299
67553W        W39978  42.880  26.777  11.565
67554W        W39979   3.284  13.347   2.209
67555W        W39980  39.562   3.231  13.409
67556W        W39981   8.901  25.700  11.952
67557W        W39982  41.556  29.058  11.075
67558W        W39983  34.138  37.562   2.850
67559W        W39984  29.927  35.277  11.548
67560W        W39985  11.140  44.457  11.145
67561W        W39986  43.007  36.315   3.160
67562W        W39987   6.953  33.003  14.319
67563W        W39988  40.986  15.864   2.885
67564W        W39989  41.279  43.951   4.104
67565W        W39990  42.804   9.901  13.163
67566W        W39991  24.100  37.576  11.241
67567W        W39992  24.301  23.679   2.208
67568W        W39993  19.784  15.659  14.878
67569W        W39994  30.610  34.252   3.102
67570W        W39995  40.517   3.519   1.784
67571W        W39996  20.256  25.515   1.803
67572W        W39997  39.870  26.553   1.445
67573W        W39998  36.298  11.055  10.899
67574W        W39999  22.108   9.701  10.182
67575W        W40000   3.001  21.574  13.295
67576W        W40001  37.128  34.588   2.434
67577W        W40002  26.920  29.264  12.968
67578W        W40003   4.484  13.722   4.728
67579W        W40004  26.725  42.772   0.056
67580W        W40005  27.993  33.040   4.606
67581W        W40006  31.685  29.586  12.561
67582W        W40007  21.474  32.125   0.018
67583W        W40008  36.575  12.860  11.154
67584W        W40009  18.817  13.126   1.028
67585W        W40010   1.290  44.941   4.415
67586W        W40011  27.165   0.933  12.035
67587W        W40012  28.747  43.693  14.890
67588W        W40013  35.441  28.138   0.896
67589W        W40014   3.112   8.654  13.314
67590W        W40015  25.438  38.456   2.192
67591W        W40016  23.674  26.259   2.290
67592W        W40017  36.557   3.274   4.999
67593W        W40018   0.482  14.146  12.520
67594W        W40019  38.470   5.645  14.361
67595W        W40020  29.352   2.412  12.021
67596W        W40021  34.651  34.569   0.421
67597W        W40022   3.677   9.257  10.349
67598W        W40023  35.774  31.099  10.484
67599W        W40024  30.605  22.740   3.831
67600W        W40025   9.338   8.098   0.989
67601W        W40026  27.547  14.791   2.894
67602W        W40027  16.121  42.964  13.573
67603W        W40028  39.823  33.457  11.151
67604W        W40029  21.789  35.865  10.600
67605W        W40030  44.014  25.260  12.832
67606W        W40031  27.043   5.692  10.609
67607W        W40032   6.668  38.174   0.229
67608W        W40033  36.440  18.171   0.776
67609W        W40034  14.208   3.407   2.229
67610W        W40035   3.357  32.289  13.854
67611W        W40036   6.609  26.930   1.309
67612W        W40037  43.505  36.948  14.328
67613W        W40038  39.893  23.268  13.014
67614W        W40039  41.840   4.606  11.613
67615W        W40040  44.900  12.698   2.711
67616W        W40041  43.973  21.699   0.380
67617W        W40042  14.615   2.144   4.637
67618W        W40043  22.543  16.328   4.576
67619W        W40044  31.978  27.829  12.089
67620W        W40045  35.530  35.050  14.542
67621W        W40046  19.112  19.630   4.246
67622W        W40047   8.689   4.902  10.493
67623W        W40048  21.289  11.725   4.682
67624W        W40049   7.216  12.813  14.493
67625W        W40050   1.780  30.596  13.940
67626W        W40051  38.288   0.933   3.039
67627W        W40052   5.602  26.637   0.319
67628W        W40053  10.029   6.462   4.070
67629W        W40054   9.933  42.383   2.730
67630W        W40055   4.739  27.012   0.091
67631W        W40056  35.102  37.633  10.080
67632W        W40057  24.391  25.842   1.788
67633W        W40058  42.218  10.159   1.298
67634W        W40059   1.050  33.080   5.055
67635W        W40060  42.555   7.763  11.160
67636W        W40061  38.268  19.964  13.510
67637W        W40062   2.038  22.115   2.291
67638W        W40063  43.916  44.861   3.705
67639W        W40064  25.556  37.942   0.996
67640W        W40065  13.765  36.479  14.355
67641W        W40066  17.113  35.639   0.987
67642W        W40067  26.161   5.188   1.041
67643W        W40068  15.196   2.173  12.043
67644W        W40069  30.156   5.579   4.498
67645W        W40070  19.794  39.493   1.306
67646W        W40071  28.382  14.952  12.632
67647W        W40072   2.837  10.394   0.293
67648W        W40073   3.189  32.610  10.796
67649W        W40074  24.145  13.453   3.193
67650W        W40075  34.032  31.150   2.431
67651W        W40076  20.618  24.162  10.747
67652W        W40077  34.325   2.390   2.223
67653W        W40078  19.727   0.681   0.274
67654W        W40079   1.845  28.646  14.865
67655W        W40080   2.723  15.720   4.353
67656W        W40081   1.938  33.882   0.380
67657W        W40082  20.345  42.338   2.246
67658W        W40083  44.878  38.876  11.336
67659W        W40084  29.882  37.865   2.677
67660W        W40085  20.133   6.876  11.661
67661W        W40086  41.783  27.467  14.204
67662W        W40087  24.136  17.419  13.850
67663W        W40088  14.921   7.620   4.145
67664W        W40089  20.302   7.333  11.541
67665W        W40090   6.597  27.059  12.926
67666W        W40091   0.544  35.896   1.504
67667W        W40092  12.027  38.004  12.066
67668W        W40093   3.054  34.035   3.303
67669W        W40094  44.483   7.717  11.138
67670W        W40095  38.459  38.842  14.533
67671W        W40096   0.417  13.291   2.656
67672W        W40097   4.721  33.531   1.882
67673W        W40098  15.416  37.980  14.794
67674W        W40099  24.747   9.386   2.598
67675W        W40100  28.498  19.944  10.381
67676W        W40101   1.400  13.304  12.896
67677W        W40102  23.729  23.300   0.524
67678W        W40103  17.162  20.178   0.233
67679W        W40104  14.795  17.517   4.184
67680W        W40105  38.542  14.291   0.478
67681W        W40106  29.957  20.774   1.780
67682W        W40107  33.276   9.127   3.234
67683W        W40108  11.748  10.383  14.065
67684W        W40109  28.693  40.535  13.502
67685W        W40110   2.735  31.049  13.536
67686W        W40111   4.336  10.880  11.866
67687W        W40112  28.496  32.624   2.335
67688W        W40113  23.123  43.090   2.647
67689W        W40114   9.298  38.574   3.272
67690W        W40115   5.812  31.622  11.941
67691W        W40116  20.764  14.330  14.359
67692W        W40117   1.619  26.907  14.912
67693W        W40118  12.387  38.367   4.044
67694W        W40119  43.021   3.297  13.775
67695W        W40120  24.279  32.373   9.981
67696W        W40121  16.591  15.264  13.167
67697W        W40122  36.461  34.703   4.741
67698W        W40123  29.993  29.675   3.449
67699W        W40124  35.024   1.966   2.213
67700W        W40125  11.600  37.026   1.291
67701W        W40126  40.865  19.847   1.370
67702W        W40127  21.003  40.943  13.906
67703W        W40128   4.204  20.541  14.351
67704W        W40129   5.825  13.904   0.904
67705W        W40130  34.500  25.096   3.153
67706W        W40131   1.481  30.070  13.348
67707W        W40132  16.025   8.241   1.202
67708W        W40133  41.557  33.505   0.579
67709W        W40134  38.800  22.636   1.339
67710W        W40135  19.303   4.368   2.627
67711W        W40136  30.413  18.471  10.466
67712W        W40137  10.424  20.470   2.179
67713W        W40138  27.067   3.953   4.127
67714W        W40139   4.358   0.302   4.580
67715W        W40140  44.591   8.208  12.008
67716W        W40141  32.060  42.779  14.754
67717W        W40142  44.878   0.438   3.636
67718W        W40143  16.702  37.135   3.192
67719W        W40144   1.636   2.965  14.238
67720W        W40145  14.085  33.313   1.246
67721W        W40146  39.539  12.341  13.032
67722W        W40147  22.724  20.774   1.078
67723W        W40148  21.073   3.146  11.606
67724W        W40149  16.715   9.326   2.235
67725W        W40150  37.017  41.775  10.803
67726W        W40151   1.783  42.863  11.869
67727W        W40152  31.225  33.751  10.701
67728W        W40153  38.215  42.274  11.174
67729W        W40154  12.146  40.479   4.123
67730W        W40155  43.811  19.962  11.402
67731W        W40156  31.841  31.176   0.362
67732W        W40157  18.250   4.246  11.137
67733W        W40158  34.849  12.587  13.274
67734W        W40159   2.935   8.161  13.582
67735W        W40160  40.094  29.465  13.043
67736W        W40161  38.613  29.484  12.857
67737W        W40162   7.904  39.596  11.016
67738W        W40163  40.424  23.231  13.883
67739W        W40164  32.641  29.130   3.132
67740W        W40165  26.747  18.875   4.203
67741W        W40166  12.794  25.029  14.749
67742W        W40167  37.611   9.439   0.987
67743W        W40168  28.946  33.630  11.212
67744W        W40169  29.895  20.478   2.197
67745W        W40170  42.393  32.013  11.971
67746W        W40171  18.810  16.646  12.525
67747W        W40172  12.307   1.991   0.919
67748W        W40173  17.190  30.065  10.720
67749W        W40174   6.798  28.629   1.673
67750W        W40175  28.678  11.702   2.365
67751W        W40176  19.318   7.166   2.347
67752W        W40177  25.774  14.937  11.191
67753W        W40178  32.786  42.647  14.461
67754W        W40179   1.307  19.253   1.694
67755W        W40180  27.877  28.657  13.409
67756W        W40181  27.479  22.490   3.713
67757W        W40182  27.062   7.476  12.759
67758W        W40183   0.885  32.695   2.168
67759W        W40184  30.074  25.020   0.378
67760W        W40185  27.812   7.918  10.571
67761W        W40186  36.676  11.316  11.126
67762W        W40187  44.702  32.955   0.847
67763W        W40188  13.280   0.836   2.607
67764W        W40189  41.692   1.796  14.923
67765W        W40190  32.531   5.242   4.636
67766W        W40191  12.919  10.784   3.690
67767W        W40192  36.802  36.903  12.833
67768W        W40193  26.982   4.669  13.457
67769W        W40194  18.564  28.272   2.237
67770W        W40195  24.097   8.662   3.778
67771W        W40196  19.694  17.873  13.515
67772W        W40197  26.789  24.545  14.868
67773W        W40198   6.021   1.933  14.793
67774W        W40199  12.880  33.959  14.053
67775W        W40200   0.451  24.634  13.878
67776W        W40201  27.918  26.227  13.418
67777W        W40202  42.810   9.193   0.520
67778W        W40203   5.473  33.476   4.159
67779W        W40204  14.742  38.028   2.788
67780W        W40205  20.048   9.907   1.406
67781W        W40206  41.776  32.134   3.983
67782W        W40207  17.298  28.127  11.195
67783W        W40208  14.965   0.192  14.896
67784W        W40209  26.677  38.576   0.621
67785W        W40210  38.131  14.881   3.849
67786W        W40211   6.407  24.459   0.523
67787W        W40212  10.375   7.078  14.292
67788W        W40213   8.208   6.974  13.915
67789W        W40214  10.320   0.392  14.363
67790W        W40215  43.289   7.402  10.709
67791W        W40216   1.482  39.729   1.805
67792W        W40217  26.726  41.765  10.800
67793W        W40218   3.462   9.101   1.397
67794W        W40219   3.029  36.306   4.703
67795W        W40220   7.787  35.745   4.993
67796W        W40221  19.718   7.940   3.799
67797W        W40222  28.898   5.710   0.016
67798W        W40223   7.436  22.157  11.127
67799W        W40224  10.275  13.671   3.779
67800W        W40225  14.608   1.271   0.872
67801W        W40226  36.431  19.872   3.645
67802W        W40227  28.059  35.284  12.480
67803W        W40228  15.305  25.437   0.525
67804W        W40229   1.622  26.447   3.925
67805W        W40230  29.136   8.790   2.734
67806W        W40231   2.307  15.916  12.918
67807W        W40232  19.503  26.702   2.273
67808W        W40233  13.394  21.114   0.215
67809W        W40234   1.831  31.740  10.821
67810W        W40235  21.460  42.427  11.149
67811W        W40236  34.559  32.194   4.228
67812W        W40237  20.177  14.067   2.646
67813W        W40238  36.583  29.433   3.108
67814W        W40239  24.200  32.585  10.899
67815W        W40240  38.777  28.589   3.724
67816W        W40241  43.055  26.974  11.128
67817W        W40242  12.142   3.408  11.491
67818W        W40243  36.833  34.097  11.078
67819W        W40244  15.178  37.120   2.430
67820W        W40245   5.400   8.181   3.716
67821W        W40246  41.121  32.855  11.986
67822W        W40247  11.912  38.922   0.594
67823W        W40248  22.724  15.323  14.377
67824W        W40249   8.915   8.895  13.926
67825W        W40250  42.851  24.472   0.458
67826W        W40251  44.634  14.709   1.780
67827W        W40252  15.554  15.288  10.314
67828W        W40253  23.992  14.224   5.018
67829W        W40254   6.241  43.100   0.566
67830W        W40255  35.822  27.552  13.802
67831W        W40256  37.404  44.494   4.206
67832W        W40257  27.169   4.906  13.023
67833W        W40258   7.450  23.013  10.828
67834W        W40259  30.213  31.064  13.333
67835W        W40260  11.359  20.114   1.953
67836W        W40261   8.819   6.163  13.904
67837W        W40262  39.549   4.980   0.696
67838W        W40263  28.221   4.988  12.561
67839W        W40264  41.487   1.872   4.167
67840W        W40265  17.594  15.041  14.852
67841W        W40266  40.629  15.006  13.936
67842W        W40267  20.467   1.534   1.853
67843W        W40268  32.044  30.500  12.090
67844W        W40269  33.325  31.626   3.865
67845W        W40270  40.963   4.843   0.104
67846W        W40271  20.101  23.510   3.757
67847W        W40272   1.882  25.276   4.599
67848W        W40273   5.731  22.414  10.902
67849W        W40274   8.777   4.642  14.261
67850W        W40275  41.305  41.083  11.384
67851W        W40276  17.733   8.457  13.913
67852W        W40277  11.233  13.889  12.766
67853W        W40278   8.214  14.612   4.229
67854W        W40279  17.062  28.028  14.447
67855W        W40280  11.360  14.226   0.372
67856W        W40281  24.158  26.385  13.887
67857W        W40282  25.133  10.001   0.355
67858W        W40283  33.237  20.733   2.749
67859W        W40284  13.708   1.834   0.137
67860W        W40285  32.337  14.718   3.747
67861W        W40286  18.531  40.990  11.193
67862W        W40287  35.793  29.651  14.736
67863W        W40288  40.378  40.769  11.592
67864W        W40289  43.436  15.154   3.200
67865W        W40290  42.691  15.493  14.053
67866W        W40291   2.967   5.775  13.596
67867W        W40292  19.008  30.994  12.534
67868W        W40293   3.286  10.079  13.107
67869W        W40294   1.302  29.028  12.919
67870W        W40295   9.118  21.224  14.699
67871W        W40296   7.965  31.649  14.814
67872W        W40297  31.602   9.163  14.458
67873W        W40298   0.881  13.528   3.780
67874W        W40299   6.289  10.281   2.148
67875W        W40300  33.902   4.449   1.344
67876W        W40301   5.893   4.214   3.679
67877W        W40302  41.393  25.705   4.533
67878W        W40303  20.564  24.051  13.062
67879W        W40304  18.756  42.815   0.422
67880W        W40305  29.128  28.449   1.731
67881W        W40306  22.833   3.059  12.300
67882W        W40307  33.160  36.023   1.886
67883W        W40308  32.578  26.588   0.646
67884W        W40309  18.726  23.994   3.344
67885W        W40310  44.466   3.667  11.081
67886W        W40311  25.223  20.932   1.165
67887W        W40312  42.550  34.576   0.474
67888W        W40313  21.347  41.949  12.590
67889W        W40314  34.083  16.209  12.952
67890W        W40315  15.587  44.415  13.331
67891W        W40316  19.306   6.178  12.129
67892W        W40317  33.519  16.542   3.573
67893W        W40318  16.628  28.367  14.933
67894W        W40319  25.367  40.379  13.741
67895W        W40320  26.993  11.308  12.970
67896W        W40321   4.249  23.750  11.116
67897W        W40322  34.203  19.031  12.522
67898W        W40323  40.428  18.065  13.038
67899W        W40324   6.079  32.238   2.528
67900W        W40325  33.826  40.807   2.309
67901W        W40326  35.847  25.371  14.571
67902W        W40327  31.589  39.268  14.839
67903W        W40328   5.152  27.511  10.277
67904W        W40329  33.927  27.160  10.852
67905W        W40330  15.640  13.138   4.450
67906W        W40331  10.099  43.954  14.064
67907W        W40332   7.327  30.485  13.152
67908W        W40333   9.686  43.736   2.303
67909W        W40334  41.564  30.139  12.526
67910W        W40335  30.297   4.636   3.751
67911W        W40336   0.769  37.819  12.628
67912W        W40337  10.811  28.151  13.411
67913W        W40338  17.304   2.987  11.145
67914W        W40339   3.032   8.220  10.756
67915W        W40340   0.422  26.895   2.682
67916W        W40341  24.947  34.930   3.861
67917W        W40342  19.060  19.330  11.450
67918W        W40343  21.453  25.416   0.099
67919W        W40344  16.122   7.739  11.785
67920W        W40345  35.498  26.467  13.032
67921W        W40346  43.364  39.066  12.922
67922W        W40347  44.872  38.042   1.473
67923W        W40348   2.832  37.845   3.112
67924W        W40349  40.919  18.971  14.925
67925W        W40350  14.934  39.937   3.630
67926W        W40351  13.718  16.702  10.870
67927W        W40352  15.831  26.441   0.352
67928W        W40353  10.026  17.269   0.771
67929W        W40354   5.737   4.165   4.194
67930W        W40355  30.652  23.365   9.736
67931W        W40356  43.020  26.200   2.714
67932W        W40357  35.117  28.486  12.019
67933W        W40358  15.243  13.248  13.566
67934W        W40359  20.321  37.554  10.127
67935W        W40360  12.150  25.092  10.949
67936W        W40361  24.492  37.196  14.723
67937W        W40362  35.894   0.350  11.184
67938W        W40363   7.208  25.991   0.370
67939W        W40364  32.943  30.376   2.606
67940W        W40365  35.412   5.341   0.343
67941W        W40366  38.599  38.030   4.163
67942W        W40367  30.115  30.075  12.001
67943W        W40368  38.763  14.359  10.291
67944W        W40369   8.857   2.844   0.981
67945W        W40370  11.279  33.563   4.492
67946W        W40371  13.874  42.084  14.431
67947W        W40372   4.324  30.733  14.073
67948W        W40373  34.630  24.271  13.807
67949W        W40374  29.507   3.739   3.361
67950W        W40375  10.247  24.649  11.045
67951W        W40376  16.444  19.162   3.760
67952W        W40377  12.870  34.071   1.873
67953W        W40378  15.502  18.097   2.213
67954W        W40379  35.527  15.207   4.484
67955W        W40380  17.547  40.015   2.682
67956W        W40381  28.746  30.707   0.832
67957W        W40382   6.630  42.976   0.934
67958W        W40383  10.060  19.699   1.847
67959W        W40384   9.767  29.100  12.350
67960W        W40385  12.764   7.863   1.976
67961W        W40386  28.445  13.091  11.901
67962W        W40387   1.839  32.675  14.977
67963W        W40388   3.918  25.913  13.747
67964W        W40389  16.155   8.216  12.134
67965W        W40390  38.938  25.649   3.161
67966W        W40391  26.039  21.980  14.453
67967W        W40392  26.543   9.228  12.463
67968W        W40393  14.277  27.801   0.807
67969W        W40394  33.801  33.128   0.050
67970W        W40395  35.884  35.549  11.625
67971W        W40396  12.195  27.627  12.574
67972W        W40397  19.091  22.106  13.466
67973W        W40398  43.725  11.969   3.739
67974W        W40399   0.876   7.914   0.359
67975W        W40400  10.221  25.578   4.628
67976W        W40401  22.097  27.222   1.350
67977W        W40402  31.412  34.780   0.837
67978W        W40403  15.061  18.177  14.137
67979W        W40404  27.070   6.498   2.221
67980W        W40405  20.004  31.918  14.865
67981W        W40406  21.013  41.040  10.714
67982W        W40407   3.888  39.398   0.125
67983W        W40408   6.382  44.530  12.293
67984W        W40409  36.785  34.924   1.887
67985W        W40410  28.902  41.518   1.916
67986W        W40411   3.196  38.687  14.191
67987W        W40412  25.920  30.959  13.887
67988W        W40413  12.370  16.911  14.721
67989W        W40414  15.380   2.920   3.617
67990W        W40415  41.849  10.858   4.164
67991W        W40416  38.919  25.229   0.609
67992W        W40417  17.233   1.015  12.871
67993W        W40418  23.705  19.927  13.848
67994W        W40419  20.771  17.072   1.880
67995W        W40420  23.652  13.609   3.376
67996W        W40421  38.800  17.667   3.144
67997W        W40422  29.921   2.980  14.791
67998W        W40423  16.871  40.829  11.935
67999W        W40424  14.820   6.227   1.957
68000W        W40425  10.889   6.845   0.290
68001W        W40426  10.335  11.813  10.656
68002W        W40427   4.881  41.432  11.194
68003W        W40428  44.246   6.179  13.006
68004W        W40429  12.298   0.779  14.315
68005W        W40430  10.204  19.854  14.361
68006W        W40431  40.489  18.064   3.715
68007W        W40432  16.837   0.264  14.465
68008W        W40433  35.388   8.772   4.559
68009W        W40434   5.284  28.729   2.165
68010W        W40435  23.427  35.887   3.154
68011W        W40436  10.794  23.310   2.368
68012W        W40437  30.160   8.462   4.269
68013W        W40438  18.208  15.473  10.679
68014W        W40439  23.502  38.439   3.208
68015W        W40440  44.979  29.413  12.110
68016W        W40441  12.464  35.836   1.805
68017W        W40442  19.723  34.462   1.041
68018W        W40443  27.464  40.757  14.860
68019W        W40444   7.419  42.400   4.133
68020W        W40445  42.656   0.357  14.772
68021W        W40446  18.230  44.441   2.223
68022W        W40447  13.410  16.979  11.221
68023W        W40448  40.346  27.931   4.591
68024W        W40449   0.539  35.638  11.285
68025W        W40450  33.962  22.277   0.754
68026W        W40451  17.853   8.219  14.338
68027W        W40452  24.713  14.772  10.707
68028W        W40453   6.288   3.473   2.804
68029W        W40454  42.420   5.151   1.357
68030W        W40455  25.729   7.136   3.277
68031W        W40456  13.844  23.032   2.718
68032W        W40457  20.782   2.815  10.248
68033W        W40458   5.849  11.208   2.906
68034W        W40459  33.033  23.958  11.627
68035W        W40460   5.601  13.173   3.879
68036W        W40461  32.634  34.989   2.755
68037W        W40462  20.808   8.228   3.184
68038W        W40463  18.784  29.307   3.821
68039W        W40464  38.483  15.378  10.856
68040W        W40465   6.101  40.560   4.776
68041W        W40466  30.052  33.101  11.710
68042W        W40467  44.931   9.820   2.641
68043W        W40468  26.006   0.314  14.864
68044W        W40469  17.130  17.200   5.135
68045W        W40470  19.176   8.171   4.716
68046W        W40471  21.112  10.227  13.054
68047W        W40472  26.022   2.025  11.961
68048W        W40473  27.811  24.285   1.264
68049W        W40474  23.468  37.175  13.802
68050W        W40475  20.919   1.395   4.914
68051W        W40476  23.982   3.066  12.122
68052W        W40477  10.457   3.359  12.379
68053W        W40478  21.201  18.596  11.610
68054W        W40479  34.882  44.743   3.210
68055W        W40480   9.423  30.137  11.040
68056W        W40481  15.863  11.742  10.943
68057W        W40482  32.878  31.391  13.139
68058W        W40483  14.368  17.692  13.449
68059W        W40484  35.594  29.545   3.867
68060W        W40485  34.078  12.622   1.498
68061W        W40486   1.592  19.095   4.460
68062W        W40487  10.278  39.910   4.252
68063W        W40488  23.053  34.284  11.408
68064W        W40489  23.685  20.880   2.269
68065W        W40490  14.389  40.955   0.765
68066W        W40491  22.112   5.114   2.375
68067W        W40492  29.710  37.836  11.635
68068W        W40493  41.081  14.964  11.611
68069W        W40494  39.987  17.268   3.649
68070W        W40495  39.424  23.632   0.330
68071W        W40496  36.018  27.987  13.984
68072W        W40497  18.108  24.062  14.359
68073W        W40498  39.486  31.875   2.692
68074W        W40499  25.190  25.016   4.650
68075W        W40500  44.983  16.290  11.403
68076W        W40501  30.171  35.623   4.592
68077W        W40502  14.783  15.280  10.528
68078W        W40503  34.378  40.893   4.627
68079W        W40504  36.158  43.152  10.664
68080W        W40505  30.973   5.801  11.590
68081W        W40506  40.728  37.466  10.826
68082W        W40507  29.090  33.046  12.077
68083W        W40508  29.926  44.909   1.654
68084W        W40509   1.154   2.207   3.738
68085W        W40510  23.172   0.427   1.323
68086W        W40511  24.887  23.350  14.879
68087W        W40512  44.950  43.281   1.995
68088W        W40513   0.785  13.810   3.341
68089W        W40514  35.889  37.062  14.491
68090W        W40515  42.020  34.214  14.837
68091W        W40516  22.521  34.448   4.960
68092W        W40517  32.961  18.783  12.760
68093W        W40518  27.250  39.986  12.399
68094W        W40519  43.948  31.626  14.881
68095W        W40520  26.304  17.654  14.812
68096W        W40521  40.214  42.272   1.222
68097W        W40522   8.536   9.224   4.093
68098W        W40523  27.933  27.840   1.477
68099W        W40524  39.826   6.463   1.152
68100W        W40525  39.386   7.839   1.222
68101W        W40526  16.330   3.547   3.331
68102W        W40527  31.784   4.312  13.830
68103W        W40528  33.192  33.165   3.256
68104W        W40529  34.570  35.683  10.356
68105W        W40530   3.421  19.171   4.394
68106W        W40531  15.154   4.413   3.214
68107W        W40532  16.712   3.956   1.731
68108W        W40533  19.673  19.737  10.894
68109W        W40534  42.007  32.663  11.634
68110W        W40535  14.826   7.924  12.564
68111W        W40536  21.726  11.160   0.979
68112W        W40537  23.510  34.006   2.409
68113W        W40538  34.677   6.737  10.987
68114W        W40539   2.160  10.343   0.924
68115W        W40540  40.358   5.660   3.533
68116W        W40541  31.720   3.850   1.895
68117W        W40542  36.125  36.502  12.527
68118W        W40543  32.852  19.410   2.301
68119W        W40544  31.464  17.679   3.684
68120W        W40545   4.067  39.358  12.483
68121W        W40546  37.910  32.161  12.545
68122W        W40547  23.832  20.352   4.812
68123W        W40548  40.787   1.836   0.946
68124W        W40549  12.736  29.697  10.698
68125W        W40550  12.302   6.795  12.948
68126W        W40551  38.500  23.830  12.893
68127W        W40552  41.567  40.914   0.261
68128W        W40553  13.361  32.854  13.070
68129W        W40554  23.402  16.156   2.798
68130W        W40555  34.916  33.573   2.323
68131W        W40556   3.189  22.503  11.445
68132W        W40557  37.528   2.277  14.892
68133W        W40558  24.811  14.694   2.122
68134W        W40559  22.905  34.944   2.205
68135W        W40560  35.154  10.882   4.125
68136W        W40561  43.035   9.476  12.954
68137W        W40562   4.732  11.012  12.541
68138W        W40563  25.842  41.170   2.453
68139W        W40564  10.899  22.723   4.087
68140W        W40565  44.451  42.794   2.848
68141W        W40566   3.013  35.831   3.663
68142W        W40567  42.422  29.037   4.953
68143W        W40568  25.804  21.604   4.536
68144W        W40569  43.843   1.470   2.349
68145W        W40570  41.958   9.782   4.773
68146W        W40571  29.677  28.652  13.876
68147W        W40572  20.116  23.177   2.897
68148W        W40573  35.666  17.493  11.113
68149W        W40574  39.943  12.082  12.837
68150W        W40575  34.950   1.855  12.989
68151W        W40576   8.838   8.653   0.317
68152W        W40577  31.095  34.442   3.126
68153W        W40578  26.529  44.429  14.907
68154W        W40579  12.572   1.741   3.692
68155W        W40580   3.894   4.877  10.363
68156W        W40581  44.210  36.476   3.590
68157W        W40582   5.706  10.758   2.705
68158W        W40583  44.284  21.534   2.144
68159W        W40584   4.041  24.007  14.857
68160W        W40585   9.732  38.097   4.118
68161W        W40586  29.391  17.990  14.334
68162W        W40587  27.928  32.602   1.503
68163W        W40588  17.617   3.944   2.879
68164W        W40589  41.851  31.789   0.871
68165W        W40590  36.991  40.001  11.558
68166W        W40591  44.970  34.376   4.836
68167W        W40592  38.359  18.698  11.368
68168W        W40593  33.014  17.653   1.433
68169W        W40594  18.966  27.557  10.712
68170W        W40595   2.383  21.994  14.009
68171W        W40596  43.304  44.912  10.946
68172W        W40597   4.375  13.059  14.519
68173W        W40598  28.097  19.518   3.854
68174W        W40599  38.071   3.222   1.425
68175W        W40600  37.467  19.654  11.932
68176W        W40601  20.631  11.927   1.672
68177W        W40602  37.184   5.862  13.519
68178W        W40603  33.943  19.723  11.821
68179W        W40604  41.190   3.950  12.056
68180W        W40605  35.272  23.563  12.196
68181W        W40606  12.838  42.463  13.182
68182W        W40607  27.632   5.661   2.406
68183W        W40608   9.797  23.119  11.199
68184W        W40609  14.624  34.245   5.201
68185W        W40610  29.961  43.761  12.573
68186W        W40611  16.260  28.103   0.818
68187W        W40612  27.009  38.223   2.343
68188W        W40613  21.015  21.731   1.232
68189W        W40614  11.858   3.370  11.081
68190W        W40615  18.140   5.866   1.680
68191W        W40616  24.721  28.091  10.561
68192W        W40617  16.729  41.412   3.611
68193W        W40618   2.930  36.379   0.373
68194W        W40619  25.158   8.817  14.260
68195W        W40620  42.264  38.034   0.904
68196W        W40621   8.786   3.994  11.423
68197W        W40622  12.768  39.942   1.197
68198W        W40623  18.526  24.369   1.701
68199W        W40624  42.849  15.315  12.587
68200W        W40625  37.694  30.226  13.811
68201W        W40626  17.098  22.680   2.277
68202W        W40627   8.454  31.000  12.456
68203W        W40628   5.282  18.131   2.763
68204W        W40629  31.137  33.859   3.946
68205W        W40630  18.532  31.600   4.380
68206W        W40631  18.818  40.425  13.304
68207W        W40632  22.161  43.653  11.618
68208W        W40633  12.174  15.583  14.507
68209W        W40634  32.846  37.418  10.788
68210W        W40635  15.017   4.694  14.360
68211W        W40636  24.021  15.908  14.417
68212W        W40637  44.728  24.526   3.290
68213W        W40638  25.470  34.017   0.402
68214W        W40639  42.009  33.970  11.943
68215W        W40640  20.362  31.932  12.522
68216W        W40641  25.625  11.119  14.947
68217W        W40642  23.011   7.980   5.077
68218W        W40643  11.953  25.555   3.269
68219W        W40644  22.957  28.045  11.218
68220W        W40645  20.318  37.799   4.043
68221W        W40646   8.152   1.921  14.447
68222W        W40647  10.432  42.796  13.287
68223W        W40648  44.021   0.579   1.749
68224W        W40649  36.427  24.555   4.727
68225W        W40650  13.182  12.210  10.626
68226W        W40651  28.419  17.881  13.525
68227W        W40652  35.865   2.956  12.674
68228W        W40653   9.923  18.856   3.152
68229W        W40654  13.390  43.811  14.493
68230W        W40655   2.492  33.161  11.088
68231W        W40656   7.711  14.244  12.957
68232W        W40657  17.164   9.226  10.989
68233W        W40658  29.032  29.133  10.762
68234W        W40659  33.395  35.448  12.537
68235W        W40660  31.387  16.141   1.784
68236W        W40661  44.215  43.435  12.120
68237W        W40662  37.601  19.828   4.166
68238W        W40663  11.738  26.063   4.281
68239W        W40664  44.079  13.414   0.354
68240W        W40665  20.088   9.866  13.422
68241W        W40666  15.834   0.256  10.598
68242W        W40667  42.052  34.545   0.373
68243W        W40668   8.868  31.602   3.776
68244W        W40669  22.011  17.160  11.085
68245W        W40670  28.485  43.870   4.601
68246W        W40671  40.204  22.610   5.068
68247W        W40672  26.730  24.610  12.640
68248W        W40673  28.051  43.967  11.909
68249W        W40674  37.998  33.518  11.821
68250W        W40675  30.831   1.868  14.047
68251W        W40676  13.195   5.365  13.434
68252W        W40677  29.000  13.125  10.609
68253W        W40678  44.047   8.982   3.822
68254W        W40679  26.361  38.792  11.610
68255W        W40680  43.832   0.312   1.268
68256W        W40681  15.235  14.412  14.063
68257W        W40682   8.194  40.034   0.267
68258W        W40683  23.721  32.615   1.849
68259W        W40684  20.552  29.058  11.828
68260W        W40685   1.474  37.150  12.556
68261W        W40686  41.770  41.881  14.571
68262W        W40687  24.860  18.488   4.137
68263W        W40688  14.152  36.456  11.537
68264W        W40689   8.761  33.928  14.762
68265W        W40690   5.324   5.061   3.626
68266W        W40691   7.371  31.154  10.518
68267W        W40692  22.057   6.221  14.994
68268W        W40693  39.625   6.832  10.975
68269W        W40694  11.296  33.833  12.958
68270W        W40695  31.264  20.660  14.793
68271W        W40696  22.235  11.914   5.506
68272W        W40697  16.387  44.560  12.918
68273W        W40698  28.554  20.139  13.627
68274W        W40699  25.380  20.397   2.482
68275W        W40700  35.865  28.970   3.335
68276W        W40701  40.370  29.116   0.142
68277W        W40702  44.824   7.620   1.942
68278W        W40703  31.672   0.236  10.534
68279W        W40704  26.243  14.743  11.902
68280W        W40705  15.079   5.935   0.842
68281W        W40706  31.586  19.332   1.062
68282W        W40707  26.864  10.340   2.745
68283W        W40708  32.547  43.478  10.847
68284W        W40709  40.920  17.719   3.804
68285W        W40710  37.926   8.411   1.823
68286W        W40711  10.635  19.781   2.764
68287W        W40712  35.240  18.378  14.985
68288W        W40713  12.739  30.241  10.508
68289W        W40714  15.038  12.659  10.648
68290W        W40715  19.035  40.581  12.860
68291W        W40716  18.649  14.239  11.982
68292W        W40717  15.621  35.501   1.447
68293W        W40718  31.363  15.843  11.856
68294W        W40719  12.877  25.390   9.910
68295W        W40720  18.275   9.682   0.359
68296W        W40721  31.580  31.617   0.463
68297W        W40722  43.918  16.242   2.743
68298W        W40723   1.409  24.185   3.633
68299W        W40724  41.321  27.848  12.431
68300W        W40725  16.877  26.039   0.587
68301W        W40726  37.828   0.220  13.837
68302W        W40727  34.719  41.773  13.096
68303W        W40728  34.607  13.639   3.601
68304W        W40729  19.224  36.960   3.171
68305W        W40730  27.774  10.462   3.777
68306W        W40731  27.569   3.135   3.376
68307W        W40732  36.753   9.392  14.051
68308W        W40733  17.124  19.495  13.073
68309W        W40734   2.780  42.126  10.598
68310W        W40735  28.685  26.604   1.913
68311W        W40736   9.013  13.573  14.302
68312W        W40737  16.495  24.390  10.901
68313W        W40738   3.416  35.500  11.905
68314W        W40739  40.407  40.462   4.058
68315W        W40740  13.283  37.110  12.153
68316W        W40741  20.627  23.256  11.643
68317W        W40742  17.968  13.058  14.914
68318W        W40743  11.579  38.527   3.156
68319W        W40744  20.538  39.986   1.436
68320W        W40745  38.503   4.963   2.773
68321W        W40746  35.277  12.630  14.006
68322W        W40747  22.264   1.444   3.756
68323W        W40748  17.344  15.096   3.258
68324W        W40749  36.919  12.727   0.339
68325W        W40750   1.929  22.882  14.794
68326W        W40751   2.336  26.449   0.476
68327W        W40752  16.223  14.840   1.280
68328W        W40753   9.859  20.126   3.868
68329W        W40754  18.292  38.100  13.352
68330W        W40755  25.616   0.623   4.108
68331W        W40756  27.438  27.228  11.631
68332W        W40757   5.176  13.814  10.631
68333W        W40758   7.654  29.144   4.655
68334W        W40759  15.339  14.095   4.100
68335W        W40760  25.436  37.537  13.339
68336W        W40761  16.879  21.296   3.206
68337W        W40762  19.787  20.514  12.019
68338W        W40763  42.848   7.304  10.401
68339W        W40764  26.592  38.070   4.121
68340W        W40765  12.219  37.076   4.798
68341W        W40766  16.783   4.757  14.802
68342W        W40767  39.600  17.606   0.261
68343W        W40768  33.127  30.604   2.141
68344W        W40769  42.782  23.225  14.253
68345W        W40770   9.324   1.308   4.956
68346W        W40771   2.689  44.786  13.599
68347W        W40772  21.613  30.913  13.104
68348W        W40773  18.990   0.893  12.481
68349W        W40774  36.070   3.642   2.708
68350W        W40775  20.564  39.328  13.561
68351W        W40776  39.157  40.434  13.041
68352W        W40777   6.149  14.638   3.986
68353W        W40778  16.256  19.778  13.388
68354W        W40779  32.420  32.063   0.449
68355W        W40780  15.943   7.430  11.367
68356W        W40781  29.707  12.745  14.467
68357W        W40782   6.838  36.392   3.201
68358W        W40783  24.650  24.024   1.026
68359W        W40784  12.189   1.801   3.305
68360W        W40785  26.457  24.105   4.501
68361W        W40786  39.064  12.578   2.683
68362W        W40787  29.749  44.543   3.318
68363W        W40788  19.275  22.044   0.988
68364W        W40789  25.971  35.050  12.845
68365W        W40790  34.086  42.530  12.058
68366W        W40791   9.805  19.736   4.212
68367W        W40792  22.456   0.798  13.977
68368W        W40793  22.280  10.733   4.596
68369W        W40794   2.839  15.704   3.170
68370W        W40795  26.209   8.758  10.634
68371W        W40796  17.992   5.934   2.706
68372W        W40797  30.211  17.476  11.559
68373W        W40798  20.625   4.878  14.143
68374W        W40799  34.463  20.692  13.302
68375W        W40800  29.331   9.997   1.236
68376W        W40801  36.085  38.011   2.819
68377W        W40802  40.009   4.196   2.761
68378W        W40803   3.457   0.907   0.638
68379W        W40804  18.546  22.965  10.731
68380W        W40805  22.289  15.889  10.627
68381W        W40806  44.756  31.435   1.376
68382W        W40807   1.998  20.039   2.712
68383W        W40808  10.262  14.790   4.577
68384W        W40809   0.616  41.965  13.452
68385W        W40810  27.727  22.190  13.828
68386W        W40811  22.185  23.042   4.162
68387W        W40812  11.916  22.646   3.115
68388W        W40813  17.105  36.755  10.647
68389W        W40814  32.367  36.495   3.644
68390W        W40815  21.300   0.560   0.484
68391W        W40816   4.252  25.140  14.240
68392W        W40817   6.312   4.580   3.759
68393W        W40818  22.745  44.242  12.486
68394W        W40819  44.856   8.313  10.709
68395W        W40820  41.832   1.022  13.552
68396W        W40821  42.259  39.888  11.354
68397W        W40822   9.951  20.947  14.526
68398W        W40823  25.074   2.452  11.090
68399W        W40824  17.283  24.152  13.914
68400W        W40825  30.948  31.314   2.741
68401W        W40826  23.035  30.919   2.412
68402W        W40827  42.858  31.429  12.602
68403W        W40828  38.438   6.009   0.685
68404W        W40829   4.844  37.932   1.747
68405W        W40830  43.023   3.022   1.267
68406W        W40831   0.299  43.492   4.357
68407W        W40832   2.400  29.230  11.991
68408W        W40833   4.524  32.076  12.810
68409W        W40834   6.348  23.151  14.043
68410W        W40835  19.505   4.668  10.662
68411W        W40836  24.117  41.868   2.238
68412W        W40837   9.438  41.083  10.628
68413W        W40838  11.650  10.303  14.637
68414W        W40839  30.772  40.856  13.064
68415W        W40840  40.415   0.049   4.074
68416W        W40841   9.629  26.695  10.546
68417W        W40842  39.833  29.933   1.011
68418W        W40843  29.563  25.155  13.043
68419W        W40844  43.553  12.742   2.343
68420W        W40845   7.444   4.194  14.307
68421W        W40846  32.858  44.734   2.195
68422W        W40847   1.887  43.559  10.666
68423W        W40848  35.158  23.121   0.218
68424W        W40849  11.550   1.515  12.507
68425W        W40850  12.317  40.528   1.751
68426W        W40851  36.124  24.960  10.526
68427W        W40852  21.546   8.871   0.447
68428W        W40853  38.815   3.590  12.954
68429W        W40854  20.275   8.268  12.969
68430W        W40855   7.326  17.888  14.671
68431W        W40856  30.929  22.248   2.747
68432W        W40857  25.184   8.746   0.632
68433W        W40858  39.033  15.289  12.549
68434W        W40859  38.468  13.696  13.053
68435W        W40860  41.737   7.769   4.469
68436W        W40861  14.144   0.406  12.540
68437W        W40862  29.935  24.986  12.184
68438W        W40863  11.450  21.682  10.107
68439W        W40864  43.368  12.885  11.029
68440W        W40865  12.972   4.826  10.149
68441W        W40866   8.690  27.259  14.506
68442W        W40867   7.705  25.286  13.026
68443W        W40868  36.590   5.859  11.064
68444W        W40869  23.116  32.877  11.585
68445W        W40870  15.595  30.109  13.775
68446W        W40871  16.066  20.044   2.742
68447W        W40872  32.079  17.813   1.443
68448W        W40873  20.797  12.603  12.445
68449W        W40874   7.569  37.048   1.901
68450W        W40875  16.082  21.748   2.194
68451W        W40876  38.376  27.182  11.517
68452W        W40877   8.005   2.762   3.030
68453W        W40878  17.079  34.094   3.658
68454W        W40879  19.149  14.324  11.713
68455W        W40880  28.997  12.770  12.491
68456W        W40881  37.869  26.525   0.948
68457W        W40882  14.078   6.123  12.489
68458W        W40883  14.740  37.765   4.148
68459W        W40884  44.692  22.256  11.452
68460W        W40885  17.452  25.655   2.729
68461W        W40886  17.980  12.728   2.244
68462W        W40887  17.739   5.352   1.295
68463W        W40888  43.025  43.733  14.342
68464W        W40889   0.040  30.481   3.675
68465W        W40890   6.717  10.966  10.752
68466W        W40891  13.254  21.812  14.499
68467W        W40892  38.716   1.736   3.166
68468W        W40893  17.034   8.661   3.621
68469W        W40894  40.025   9.103   2.333
68470W        W40895  16.300   0.396   4.629
68471W        W40896  31.109  32.701  12.803
68472W        W40897   2.347   6.349  13.559
68473W        W40898  27.006  21.298   1.687
68474W        W40899  24.193   9.872  12.090
68475W        W40900  25.232   2.788  13.345
68476W        W40901   3.311  36.888   3.069
68477W        W40902   5.467   0.796  13.807
68478W        W40903   4.874  22.045  13.030
68479W        W40904  42.818  15.216   4.566
68480W        W40905   4.900  38.068   1.244
68481W        W40906  31.696  32.006  11.172
68482W        W40907  42.354   4.860   0.908
68483W        W40908  37.954  24.040   5.289
68484W        W40909   1.969  19.210   2.479
68485W        W40910  44.256  14.212  10.692
68486W        W40911  40.860   0.024   0.295
68487W        W40912  20.679   2.222   0.839
68488W        W40913  29.837   9.953  12.846
68489W        W40914   7.821  16.049  11.529
68490W        W40915  16.512  16.436   2.608
68491W        W40916  10.717  23.562  13.263
68492W        W40917  25.743  34.811  13.840
68493W        W40918  27.111  28.334   5.074
68494W        W40919  22.688  33.584  11.987
68495W        W40920  19.716  35.729  13.622
68496W        W40921  23.002  15.870   2.612
68497W        W40922  32.281  23.572  14.310
68498W        W40923  32.330  11.483   2.173
68499W        W40924  23.090  24.766   3.134
68500W        W40925   7.662  40.073  11.019
68501W        W40926   2.677  38.885   2.673
68502W        W40927   4.226  18.151   2.563
68503W        W40928  31.086   3.386  11.326
68504W        W40929  25.207  34.582  12.332
68505W        W40930  36.664   5.026  14.989
68506W        W40931   9.692  10.326   1.192
68507W        W40932  28.813  32.589   0.345
68508W        W40933   7.818  26.246   4.178
68509W        W40934  26.740  41.511   2.753
68510W        W40935  11.262  14.066  14.861
68511W        W40936  17.916  17.222   0.322
68512W        W40937  15.976  18.156  11.299
68513W        W40938  15.712  36.291   4.531
68514W        W40939  38.563   1.732  10.184
68515W        W40940  17.575  31.778  11.911
68516W        W40941  40.956  21.638   3.602
68517W        W40942  10.209  23.722  12.120
68518W        W40943  30.557   0.438   0.694
68519W        W40944   5.401  14.744   0.870
68520W        W40945   6.307  29.876   0.405
68521W        W40946  31.818  13.697  13.795
68522W        W40947   4.286   3.657  13.017
68523W        W40948  44.347  42.373  14.746
68524W        W40949  20.646  16.803   4.796
68525W        W40950   6.920  17.298  14.025
68526W        W40951   3.842   5.878  13.346
68527W        W40952  21.040  42.320   2.799
68528W        W40953  31.920   2.782  12.399
68529W        W40954  15.235  25.533   1.391
68530W        W40955  17.083  38.128   0.705
68531W        W40956  30.459  21.587   1.470
68532W        W40957  15.297   6.258  12.929
68533W        W40958  36.244   8.251  13.135
68534W        W40959  39.029   9.914   1.893
68535W        W40960  21.031  15.543   0.745
68536W        W40961  27.142  13.194  13.925
68537W        W40962  13.431   9.453   2.230
68538W        W40963  43.166   7.407  14.484
68539W        W40964  14.140   0.399  11.187
68540W        W40965  36.172  32.056   1.749
68541W        W40966  12.265  25.988   2.651
68542W        W40967  19.305  40.064   2.542
68543W        W40968  14.174  21.191  11.075
68544W        W40969  18.231   2.992   3.704
68545W        W40970  35.894   8.943   4.527
68546W        W40971  42.305   2.668  11.155
68547W        W40972  19.102  10.135  13.347
68548W        W40973  18.897  31.032  13.784
68549W        W40974  33.908  19.968  13.446
68550W        W40975  39.873  23.205  14.231
68551W        W40976  24.582  42.267  11.901
68552W        W40977  25.061   2.410  12.152
68553W        W40978  31.034   5.707   3.319
68554W        W40979  44.052  16.129  13.590
68555W        W40980  13.982  31.189  11.793
68556W        W40981  35.549  19.118   3.327
68557W        W40982  13.336  33.444   0.481
68558W        W40983  39.135   3.511  13.378
68559W        W40984  23.067  21.275  12.005
68560W        W40985   2.483  13.156  11.704
68561W        W40986  11.292  10.686  14.564
68562W        W40987  26.869  39.907   3.805
68563W        W40988  42.063  23.657  11.896
68564W        W40989  27.177  38.343  10.985
68565W        W40990  19.712   9.731  11.028
68566W        W40991  20.608  39.365   0.723
68567W        W40992  15.809  10.264   2.720
68568W        W40993  10.688  36.163   1.782
68569W        W40994  32.628  22.287  12.688
68570W        W40995  17.803  34.678   4.325
68571W        W40996  17.249  13.295  11.124
68572W        W40997   7.903  40.962  14.197
68573W        W40998  40.823  31.954   4.567
68574W        W40999  19.309   3.775  10.420
68575W        W41000  28.863  23.564  12.426
68576W        W41001   4.382  26.052  11.029
68577W        W41002  40.245  15.254   4.143
68578W        W41003  34.122  37.539   2.318
68579W        W41004  18.114  41.495  11.214
68580W        W41005  12.841  32.903   4.061
68581W        W41006  21.392  12.314  14.783
68582W        W41007   5.962   0.649   4.346
68583W        W41008  34.901  27.697  14.455
68584W        W41009  17.707  39.370   3.146
68585W        W41010  20.628   9.868   3.579
68586W        W41011  28.646   1.454  12.995
68587W        W41012   4.043   2.476   4.478
68588W        W41013  32.322  39.541   2.267
68589W        W41014  43.838  14.971  14.268
68590W        W41015  13.595  30.009  10.812
68591W        W41016  39.108  27.140   4.956
68592W        W41017   9.738  32.011   3.708
68593W        W41018   2.689  35.373  12.373
68594W        W41019  30.384  14.166   4.647
68595W        W41020  27.776  26.002   2.870
68596W        W41021  42.432  29.992   4.375
68597W        W41022  44.878  36.769   0.705
68598W        W41023  24.590  24.746  13.372
68599W        W41024  32.917  29.601   4.484
68600W        W41025  42.852  14.176   2.690
68601W        W41026  42.106  33.813  13.627
68602W        W41027  12.348   5.964  11.209
68603W        W41028  29.073  13.630   4.182
68604W        W41029  41.776  23.640   4.114
68605W        W41030   1.459  14.084   1.337
68606W        W41031  40.851  20.238   4.593
68607W        W41032   7.404  19.484  12.003
68608W        W41033  38.912   8.451   4.139
68609W        W41034  21.335  26.480  10.956
68610W        W41035  19.518  10.452  13.448
68611W        W41036  21.646  24.580   4.968
68612W        W41037  44.334  41.496   0.362
68613W        W41038  41.251   5.878   3.386
68614W        W41039  14.264  36.048  12.500
68615W        W41040   6.023   6.861   0.303
68616W        W41041   7.131  20.159  10.651
68617W        W41042   6.843  34.340   0.720
68618W        W41043   8.782  23.289   0.272
68619W        W41044  18.256   2.894   0.973
68620W        W41045  30.419  42.331  13.810
68621W        W41046  10.697  25.831   2.411
68622W        W41047  38.064   3.177   4.225
68623W        W41048   8.674  35.126   3.341
68624W        W41049  39.587  37.616   0.961
68625W        W41050  15.312  24.438   1.898
68626W        W41051   4.919  38.059   2.265
68627W        W41052   2.755   9.923  13.843
68628W        W41053  30.438  19.073   0.907
68629W        W41054   6.744  34.859  14.913
68630W        W41055   6.780   8.798  11.110
68631W        W41056  28.533  31.510  10.658
68632W        W41057   1.631  19.625  13.056
68633W        W41058  17.345   2.934   4.734
68634W        W41059   4.217  44.766  11.667
68635W        W41060  37.887  10.560   4.487
68636W        W41061  40.459  39.587   1.700
68637W        W41062  25.986  35.104   1.245
68638W        W41063  24.451  40.474  13.447
68639W        W41064  19.348   4.338  12.984
68640W        W41065   3.885  30.479   3.277
68641W        W41066  20.263  25.473  13.713
68642W        W41067  37.789  40.548  14.905
68643W        W41068  21.445  17.906   5.097
68644W        W41069  41.516   4.977  11.655
68645W        W41070  13.321  11.694   0.769
68646W        W41071  12.262  23.739   0.174
68647W        W41072  25.385  19.739  13.386
68648W        W41073  32.872  16.201   0.522
68649W        W41074   8.316  25.795   0.812
68650W        W41075   0.985  37.062   4.493
68651W        W41076  16.225  40.278  10.388
68652W        W41077  23.111  28.870   1.318
68653W        W41078  40.642  22.734  11.705
68654W        W41079  19.888   8.653  14.246
68655W        W41080  23.794  29.107   4.535
68656W        W41081  33.324   2.703  13.825
68657W        W41082  32.510   2.100   3.735
68658W        W41083  27.640  11.399   2.416
68659W        W41084  13.423  11.004  11.138
68660W        W41085  11.687   5.827  10.698
68661W        W41086  18.542  20.494   2.782
68662W        W41087  32.096  37.929  10.663
68663W        W41088  26.936  33.551  10.958
68664W        W41089   4.709  30.425   1.414
68665W        W41090   3.020   5.368  13.898
68666W        W41091  10.884   4.596  10.665
68667W        W41092   5.249  39.510   1.725
68668W        W41093   8.219  27.923   2.856
68669W        W41094   0.250  22.590  14.960
68670W        W41095   9.815  30.716  11.553
68671W        W41096  25.544   9.282  11.449
68672W        W41097   1.041   2.323   0.659
68673W        W41098   7.864  12.616   4.696
68674W        W41099  10.497   9.357   0.613
68675W        W41100  21.458   3.807  13.449
68676W        W41101  42.148   5.457   1.857
68677W        W41102  35.418  18.609  10.630
68678W        W41103  27.436   3.058  12.958
68679W        W41104   4.348  25.965  10.518
68680W        W41105  27.170  30.375   1.437
68681W        W41106  24.507  26.577   4.645
68682W        W41107  42.468  23.679   3.461
68683W        W41108  34.640  18.888   4.204
68684W        W41109   5.113  31.487  10.201
68685W        W41110   7.754  31.419   4.253
68686W        W41111  25.496  36.630  14.376
68687W        W41112  29.007   3.614   1.655
68688W        W41113  40.349   2.427  12.915
68689W        W41114  35.398  41.526   1.186
68690W        W41115  38.592  19.497   0.794
68691W        W41116   3.341   7.837   0.937
68692W        W41117  34.368  13.905  14.400
68693W        W41118   4.491  29.447   1.648
68694W        W41119  21.614  27.925   3.315
68695W        W41120  36.702  21.934  10.681
68696W        W41121  18.831  19.341   0.833
68697W        W41122  22.017  29.413   1.749
68698W        W41123  24.029  11.847   3.542
68699W        W41124  34.108  38.386  14.834
68700W        W41125  17.326  36.867  14.878
68701W        W41126  33.410  41.685   4.076
68702W        W41127   4.950  17.382   2.393
68703W        W41128  20.155   5.891   4.597
68704W        W41129  26.511  21.035   2.819
68705W        W41130  14.359   2.985  11.218
68706W        W41131  26.135  22.982   0.309
68707W        W41132   6.776  43.975   4.396
68708W        W41133  33.562  33.681   4.440
68709W        W41134  14.591  23.970   1.470
68710W        W41135  18.864  21.294  12.754
68711W        W41136  21.076  12.273   9.643
68712W        W41137  17.012  34.930  14.968
68713W        W41138  33.460  28.083   0.794
68714W        W41139  14.375  36.382   2.426
68715W        W41140  26.105  41.074   0.251
68716W        W41141  22.143  30.492   3.662
68717W        W41142   3.569  24.972  13.441
68718W        W41143  33.817  26.769   1.323
68719W        W41144  26.792  20.565  10.505
68720W        W41145  41.541  36.723  12.918
68721W        W41146  28.658  39.901   4.640
68722W        W41147  12.611  27.081  13.442
68723W        W41148  16.207  12.072   1.842
68724W        W41149   1.860  30.442  12.101
68725W        W41150  30.191   6.452  12.863
68726W        W41151  32.651   1.212   4.146
68727W        W41152  10.316   4.924   4.149
68728W        W41153  36.844   7.088  12.385
68729W        W41154  43.368  29.080   2.828
68730W        W41155  14.285  44.470  10.692
68731W        W41156   4.707  35.525  11.407
68732W        W41157  41.648   6.447  11.646
68733W        W41158  25.089  28.511   2.009
68734W        W41159   6.274  43.456  12.458
68735W        W41160  14.585  31.124   0.812
68736W        W41161  34.049  32.817  13.909
68737W        W41162  25.953   2.775  12.041
68738W        W41163  32.097   1.826  12.545
68739W        W41164  23.344  38.719  13.028
68740W        W41165  13.525  24.482  13.258
68741W        W41166   1.789  43.983  10.937
68742W        W41167   2.511  19.032   4.306
68743W        W41168   5.674  38.900  11.965
68744W        W41169   7.936  29.605  14.271
68745W        W41170   6.348  41.326   2.185
68746W        W41171  17.620   2.883   0.841
68747W        W41172  39.058  29.644  14.931
68748W        W41173   3.993  34.030  14.344
68749W        W41174  14.051  28.691   0.098
68750W        W41175  43.542  20.282   5.028
68751W        W41176  35.949  33.053   1.438
68752W        W41177  21.998  44.749  12.496
68753W        W41178   6.044  26.543   2.113
68754W        W41179  19.668  17.302  10.664
68755W        W41180  32.684  12.334   3.674
68756W        W41181  23.631   9.414   0.327
68757W        W41182   8.775  13.599   0.332
68758W        W41183   6.585  20.563   3.797
68759W        W41184  21.349  30.509   2.231
68760W        W41185   8.438   3.303  12.480
68761W        W41186  41.790   9.269   3.266
68762W        W41187   9.586  39.832  14.445
68763W        W41188  40.249  37.021   0.843
68764W        W41189   7.212  29.207  12.407
68765W        W41190  23.467  41.486   1.378
68766W        W41191  15.786   9.338   2.694
68767W        W41192  27.210  43.230   3.290
68768W        W41193  37.315  43.328  14.898
68769W        W41194   5.173  43.028  13.842
68770W        W41195  20.388  41.814   2.428
68771W        W41196   2.229  12.130  10.421
68772W        W41197  22.001  18.144  11.447
68773W        W41198  27.899   2.122  12.997
68774W        W41199  14.632   8.695  12.972
68775W        W41200  34.447   0.191   0.583
68776W        W41201  38.884  43.629  14.789
68777W        W41202  20.288  20.895   3.635
68778W        W41203  29.752  23.643   1.816
68779W        W41204   6.257   4.329   0.512
68780W        W41205  32.482  18.678   1.359
68781W        W41206  33.651  19.558  10.578
68782W        W41207  22.731  44.330   1.047
68783W        W41208  38.124  41.535  12.841
68784W        W41209  36.549   9.781   4.270
68785W        W41210  20.298   3.530   1.225
68786W        W41211  20.516  42.168  13.182
68787W        W41212   2.690  32.396  11.691
68788W        W41213   7.372  32.969   0.483
68789W        W41214   6.763  31.901  10.559
68790W        W41215  44.245  35.006   5.066
68791W        W41216  44.101   2.623   0.092
68792W        W41217  15.020  21.468   3.084
68793W        W41218  28.061   2.234  12.513
68794W        W41219  25.508  14.325   0.464
68795W        W41220  33.573  35.308   4.997
68796W        W41221   5.945  28.507  13.314
68797W        W41222  41.731  40.318   1.758
68798W        W41223  26.573  23.232   3.439
68799W        W41224   1.375  26.874   2.791
68800W        W41225  23.529   9.462  13.003
68801W        W41226  15.876  18.331   3.202
68802W        W41227  44.729  28.947  10.733
68803W        W41228  41.124   8.723  11.901
68804W        W41229  12.692  39.628  11.622
68805W        W41230  15.746  36.639   2.786
68806W        W41231  37.111   0.508   2.637
68807W        W41232  11.523  14.729   3.157
68808W        W41233   8.632  22.105  14.936
68809W        W41234  27.384  44.003  12.532
68810W        W41235  29.537  21.075   0.007
68811W        W41236   5.449  17.213  11.997
68812W        W41237  34.394  16.900  12.887
68813W        W41238  43.045   9.922  11.627
68814W        W41239  34.577   0.769   3.653
68815W        W41240  13.839  29.665  13.503
68816W        W41241  41.003  27.944   1.137
68817W        W41242  28.943  21.810   4.127
68818W        W41243  42.893  22.738  12.472
68819W        W41244  21.023   1.049   3.198
68820W        W41245  16.812  33.522   0.255
68821W        W41246  25.214  14.030   3.621
68822W        W41247  43.514  12.282  14.988
68823W        W41248  11.252   1.934  12.992
68824W        W41249  19.745   8.453   3.673
68825W        W41250  27.971  21.723  14.369
68826W        W41251  36.782  26.460   3.280
68827W        W41252  26.041  25.751  12.937
68828W        W41253  37.400  33.168  12.837
68829W        W41254  13.688  32.449  10.497
68830W        W41255  37.626  25.243   0.696
68831W        W41256   1.052   4.864  11.203
68832W        W41257  42.099  36.468   4.248
68833W        W41258  17.159   3.944   3.146
68834W        W41259  44.776  36.544   1.745
68835W        W41260  34.084  18.207  12.349
68836W        W41261  13.354  22.729   2.266
68837W        W41262  40.576  33.126   1.445
68838W        W41263  31.862  36.472   1.810
68839W        W41264  21.796  23.875  14.842
68840W        W41265  39.419   4.309  11.401
68841W        W41266  30.750   0.991   2.676
68842W        W41267  21.708  42.885  14.011
68843W        W41268   0.453   2.054  13.495
68844W        W41269  15.078   6.736  12.927
68845W        W41270  25.606  30.444   0.310
68846W        W41271  36.604  27.232  11.541
68847W        W41272  31.161  22.678  14.715
68848W        W41273  41.739  17.721  14.584
68849W        W41274   8.352  27.525   0.341
68850W        W41275  43.884   5.042   3.500
68851W        W41276  21.478  18.813  12.494
68852W        W41277  10.214  36.492   4.544
68853W        W41278  18.723   0.927   1.305
68854W        W41279  28.099   0.230  11.528
68855W        W41280  42.129  39.472   4.991
68856W        W41281  31.480   2.462   0.502
68857W        W41282   9.204   8.641  12.136
68858W        W41283  27.105   4.184   2.354
68859W        W41284  19.066  13.153  13.761
68860W        W41285  14.243  38.793  14.647
68861W        W41286  42.281   5.861  10.472
68862W        W41287  15.395  24.175  11.464
68863W        W41288  44.326   7.892   0.791
68864W        W41289  14.379   6.520  14.474
68865W        W41290  24.621  44.062  13.376
68866W        W41291  35.869  13.228   3.687
68867W        W41292  14.135  10.285   0.730
68868W        W41293  28.073   3.232  11.568
68869W        W41294  29.974   3.329  10.437
68870W        W41295   7.148  39.800   1.854
68871W        W41296  22.605   7.833   0.224
68872W        W41297  29.498  32.137  13.040
68873W        W41298  18.582  25.165   9.933
68874W        W41299  13.902  23.987   2.577
68875W        W41300  15.993  39.404   0.819
68876W        W41301   8.735   0.687   1.258
68877W        W41302  17.857  21.436   2.316
68878W        W41303  40.870  18.291  12.864
68879W        W41304  30.388  35.406  10.737
68880W        W41305  11.688  22.661  13.441
68881W        W41306   7.109   8.248  13.906
68882W        W41307  32.535  42.966  14.794
68883W        W41308  23.084  23.576  14.808
68884W        W41309   2.880  33.113  14.718
68885W        W41310   8.381  20.147   2.212
68886W        W41311   0.462  40.039   4.284
68887W        W41312  22.537  29.060  13.021
68888W        W41313   6.176  26.194   1.271
68889W        W41314  43.624  22.797  10.086
68890W        W41315   1.770  12.286  14.219
68891W        W41316  30.970   6.416  11.176
68892W        W41317  44.456  38.664  11.539
68893W        W41318   7.318   6.917  10.784
68894W        W41319   5.955   4.973  11.551
68895W        W41320   0.383  29.411  14.537
68896W        W41321   1.009  15.644   2.255
68897W        W41322  13.752  19.456  14.994
68898W        W41323  13.704  16.881  14.784
68899W        W41324  10.053   7.298   5.012
68900W        W41325   8.935   7.193   0.725
68901W        W41326  10.772  35.590   3.731
68902W        W41327  16.032   0.374  14.119
68903W        W41328  26.246  22.911   3.207
68904W        W41329  24.660  30.800   0.989
68905W        W41330  20.276  43.725  11.547
68906W        W41331  22.707  14.633  10.637
68907W        W41332  27.365  42.971   2.354
68908W        W41333  11.777  13.610   4.656
68909W        W41334  38.072   8.216   2.311
68910W        W41335   4.675  19.714   2.791
68911W        W41336  26.386   6.694   0.751
68912W        W41337  25.970  44.613  13.156
68913W        W41338   7.176  13.029  11.112
68914W        W41339  15.592  38.958  11.188
68915W        W41340  11.705  43.410   1.821
68916W        W41341  26.525  26.953   2.175
68917W        W41342  11.240  33.938   4.127
68918W        W41343  38.993  37.910   1.402
68919W        W41344   4.407  20.460  11.409
68920W        W41345  13.741  41.859  10.767
68921W        W41346  30.170  24.694   3.312
68922W        W41347  40.549   8.406   3.462
68923W        W41348   8.388  16.871   1.241
68924W        W41349  14.829  36.862   4.611
68925W        W41350   3.064  14.047  12.363
68926W        W41351  26.979  25.118  12.579
68927W        W41352  19.196  32.057  10.754
68928W        W41353  32.664  19.506  12.080
68929W        W41354   1.005  20.440  13.484
68930W        W41355   6.902   8.405   2.876
68931W        W41356  22.054   3.981   3.578
68932W        W41357  38.066  37.355  14.792
68933W        W41358  27.213  38.938  12.126
68934W        W41359  42.377  29.075  10.715
68935W        W41360  27.587  33.768   1.887
68936W        W41361   7.072  12.707  12.203
68937W        W41362  38.858  28.917   1.276
68938W        W41363  15.272  41.416  12.254
68939W        W41364  14.139  15.825   0.336
68940W        W41365   9.893  17.992  11.865
68941W        W41366  22.335  12.392  10.230
68942W        W41367  23.974   4.744  14.406
68943W        W41368  31.955  39.520  12.889
68944W        W41369  28.641  13.062  11.047
68945W        W41370   3.278  31.278   1.784
68946W        W41371  27.947  10.107  13.343
68947W        W41372   3.892   0.007   1.871
68948W        W41373  31.394  26.147   4.392
68949W        W41374  34.012  36.420  13.773
68950W        W41375  25.226  10.568  11.111
68951W        W41376  37.890  29.891   2.893
68952W        W41377  38.338  21.849  12.061
68953W        W41378  19.359  22.652   0.295
68954W        W41379  40.310  28.624  13.161
68955W        W41380  13.327  42.895   2.259
68956W        W41381  41.048  34.004   1.727
68957W        W41382  17.417  14.252  11.224
68958W        W41383  12.035   1.348  14.417
68959W        W41384  41.314  20.042  14.297
68960W        W41385  35.365  29.316  14.046
68961W        W41386  12.202   2.802  10.153
68962W        W41387   5.311   1.204  12.572
68963W        W41388  36.259  29.927   1.875
68964W        W41389  24.501   4.153  13.963
68965W        W41390  26.040  31.557   3.194
68966W        W41391  37.423  26.312   2.639
68967W        W41392   7.359  40.096  11.764
68968W        W41393   9.742  41.217  12.971
68969W        W41394  23.555  24.919   3.785
68970W        W41395   2.730  29.239  11.591
68971W        W41396   5.341  18.583  12.593
68972W        W41397  27.322   6.502  10.124
68973W        W41398  19.688  10.708   1.723
68974W        W41399   6.766  41.514  14.856
68975W        W41400   7.574  41.819   1.843
68976W        W41401   6.653  30.638  13.874
68977W        W41402  13.588   9.916   3.314
68978W        W41403  29.884   2.737   4.697
68979W        W41404   1.424  10.708   1.976
68980W        W41405  44.993  28.168   4.171
68981W        W41406  10.854  33.413   1.284
68982W        W41407  16.178  12.876  11.717
68983W        W41408  33.273   5.929  13.745
68984W        W41409  36.226   2.269   0.891
68985W        W41410   4.721  32.340   2.289
68986W        W41411  24.600  35.528   4.654
68987W        W41412   3.361  11.203   2.860
68988W        W41413  29.693  24.466   0.750
68989W        W41414  32.843  28.738   0.833
68990W        W41415  44.908   2.945  13.835
68991W        W41416  31.628   4.210  12.424
68992W        W41417   7.895  19.462  14.792
68993W        W41418   0.338  28.110   4.678
68994W        W41419   5.800   2.717   4.165
68995W        W41420  20.000  44.704  11.546
68996W        W41421  39.077   3.323  14.212
68997W        W41422   8.568  11.789   2.381
68998W        W41423  44.319  22.323  12.538
68999W        W41424  37.336  12.273   1.950
69000W        W41425  15.677  18.793   4.528
69001W        W41426  37.372  12.381  11.982
69002W        W41427  16.189  38.557  12.584
69003W        W41428  32.902  29.101  14.914
69004W        W41429  26.417  23.920  13.842
69005W        W41430  11.642  15.854   2.978
69006W        W41431  10.754  31.352  12.442
69007W        W41432  22.682   6.344   0.793
69008W        W41433  29.132  22.810   3.252
69009W        W41434  31.860  33.511   2.941
69010W        W41435   7.123   9.823  11.635
69011W        W41436  15.311   6.129   3.661
69012W        W41437  15.101   8.983   1.671
69013W        W41438   4.401  41.537  11.134
69014W        W41439  38.050  17.798   1.779
69015W        W41440  14.458  39.663  14.783
69016W        W41441  23.518  12.463  12.243
69017W        W41442   1.882  39.035  11.587
69018W        W41443  26.771  32.588   0.352
69019W        W41444  29.970  11.179   1.194
69020W        W41445  30.418  15.895   3.344
69021W        W41446  34.685  30.211   3.333
69022W        W41447  21.686  23.056   0.886
69023W        W41448   1.038  29.018   4.052
69024W        W41449  28.034   9.643  12.476
69025W        W41450   2.325   8.750   4.065
69026W        W41451  41.759  23.766  10.029
69027W        W41452  40.049  39.921   0.007
69028W        W41453  42.424  27.739   4.573
69029W        W41454  39.061  25.605  14.615
69030W        W41455  26.623  32.565  10.429
69031W        W41456  38.960   9.421   4.013
69032W        W41457  11.277  35.961   4.340
69033W        W41458  12.388  22.483  11.806
69034W        W41459   0.235  26.621  13.466
69035W        W41460  12.501  16.310  12.487
69036W        W41461  19.885   5.811  14.935
69037W        W41462   8.283  14.909  13.763
69038W        W41463  33.424  36.434  12.478
69039W        W41464   5.272  29.692   1.376
69040W        W41465  12.306  15.886   3.326
69041W        W41466  33.896  14.780  11.157
69042W        W41467   7.028  32.635   1.421
69043W        W41468  10.833  16.572  12.416
69044W        W41469  17.106  39.277  14.642
69045W        W41470  24.589  40.094  13.822
69046W        W41471   0.951  33.580  12.656
69047W        W41472  30.149  15.137  11.571
69048W        W41473  28.455   6.855  11.466
69049W        W41474  26.509  13.354  12.512
69050W        W41475  14.111  27.822   2.430
69051W        W41476  39.342  42.477  12.396
69052W        W41477  17.397  37.695  14.394
69053W        W41478  13.089   5.710   0.888
69054W        W41479  37.563  34.505   1.678
69055W        W41480   7.806   3.356  13.243
69056W        W41481   6.698  24.959   1.812
69057W        W41482  26.921  29.109   0.879
69058W        W41483   6.443  17.191  14.921
69059W        W41484  24.080   9.574  14.016
69060W        W41485  18.502  12.260   1.067
69061W        W41486   3.367  41.783   4.722
69062W        W41487   2.492  17.815  13.275
69063W        W41488   0.691  22.814   0.194
69064W        W41489  37.793  17.087   3.968
69065W        W41490  30.855   9.881   4.050
69066W        W41491   3.218  34.223  14.587
69067W        W41492  17.812   9.866   0.859
69068W        W41493   6.747  18.556   3.654
69069W        W41494  24.103  44.806  13.307
69070W        W41495   3.395  42.570  13.918
69071W        W41496  17.098   9.432   0.876
69072W        W41497  11.811  43.351  13.284
69073W        W41498  33.286   2.537   0.975
69074W        W41499  26.572  29.528  13.288
69075W        W41500  27.964  14.352  11.531
69076W        W41501  10.615  38.032  11.820
69077W        W41502  31.925  19.473  11.087
69078W        W41503   7.080  19.116  12.553
69079W        W41504  17.252  18.716  14.268
69080W        W41505  38.045  42.990   1.959
69081W        W41506  39.138   0.973   0.703
69082W        W41507  15.030  36.967  11.216
69083W        W41508  16.277  34.542  14.804
69084W        W41509  38.789   5.102  11.699
69085W        W41510  18.164  32.479   2.694
69086W        W41511   7.822   5.476   1.260
69087W        W41512   5.599   3.026  13.203
69088W        W41513  24.579  23.208   1.331
69089W        W41514  29.569   8.410   0.724
69090W        W41515  22.007  43.719   0.350
69091W        W41516  30.447  22.138  11.068
69092W        W41517  20.265  39.673   2.433
69093W        W41518  31.497  15.368   2.381
69094W        W41519   5.293  21.751   0.685
69095W        W41520   3.182   7.573  12.386
69096W        W41521  42.369  13.621  12.951
69097W        W41522  15.274  12.675  12.850
69098W        W41523  41.966  31.973  12.308
69099W        W41524  22.441  19.186   0.774
69100W        W41525  24.641  40.455   0.765
69101W        W41526  41.290  39.481   2.802
69102W        W41527   9.654   4.664   2.772
69103W        W41528  41.471  15.294   0.462
69104W        W41529  40.303  19.799  10.720
69105W        W41530   6.164   7.083   2.266
69106W        W41531  34.034   4.748  11.040
69107W        W41532   5.396  36.033  14.806
69108W        W41533  35.011  35.921   4.523
69109W        W41534  27.192  38.582  10.528
69110W        W41535   7.663   6.642   3.484
69111W        W41536   4.900  35.806  14.874
69112W        W41537  41.928   1.389  12.851
69113W        W41538   5.346  37.824   2.487
69114W        W41539   8.333  30.942  14.534
69115W        W41540  21.752  34.264  11.160
69116W        W41541  26.031   3.244   2.441
69117W        W41542  36.367   8.298  12.616
69118W        W41543  30.807  27.427   2.174
69119W        W41544  20.311  44.908   3.215
69120W        W41545  27.350  16.783  10.549
69121W        W41546   9.010  34.872  10.860
69122W        W41547  33.078  26.066   0.833
69123W        W41548  20.774  15.240  14.912
69124W        W41549  36.340   5.696   2.898
69125W        W41550  35.982  30.052   2.750
69126W        W41551  43.503  30.378   2.867
69127W        W41552  14.400  34.276   4.247
69128W        W41553  38.388  27.416  12.095
69129W        W41554  43.278  36.997   2.196
69130W        W41555  42.827  21.139  11.508
69131W        W41556  40.497  33.899   2.745
69132W        W41557   6.244  42.296  14.849
69133W        W41558   9.247  10.285   3.098
69134W        W41559   5.644  22.050   0.930
69135W        W41560  17.250  19.193   2.207
69136W        W41561  22.583  28.433   3.118
69137W        W41562   4.735  23.012   1.788
69138W        W41563   0.215   8.399   4.638
69139W        W41564  31.560   9.622   0.743
69140W        W41565  20.562  15.647   0.180
69141W        W41566  40.564  41.355   4.146
69142W        W41567  20.281  16.139   1.972
69143W        W41568  33.328  11.639   1.804
69144W        W41569  43.360   0.078   2.870
69145W        W41570  18.543  32.869   1.133
69146W        W41571  21.562  43.266  11.594
69147W        W41572   1.858  12.812  14.934
69148W        W41573  27.758   5.241  13.530
69149W        W41574   4.252  28.551  11.881
69150W        W41575  32.004   2.260   1.194
69151W        W41576  43.367  17.831  14.566
69152W        W41577   6.192   6.254   4.132
69153W        W41578  28.730  31.080   2.448
69154W        W41579  19.409  31.707  12.908
69155W        W41580  28.389  10.243  14.067
69156W        W41581  10.838  34.951   1.921
69157W        W41582   8.906  37.889   1.342
69158W        W41583  33.905  19.134   0.409
69159W        W41584  23.629  20.154  14.317
69160W        W41585  13.141  19.250  12.570
69161W        W41586  24.241  11.412   3.714
69162W        W41587  38.303  44.726   0.233
69163W        W41588  19.613  17.538  12.038
69164W        W41589   6.454  32.589   3.957
69165W        W41590  10.130   0.308   3.623
69166W        W41591  18.479   6.892  14.858
69167W        W41592  11.818  24.732  12.746
69168W        W41593  28.535  18.694   2.724
69169W        W41594  12.290  43.612   0.859
69170W        W41595  26.958  13.137  14.984
69171W        W41596  23.258  42.962   3.671
69172W        W41597  33.379  32.204  10.229
69173W        W41598   9.212  23.666  14.709
69174W        W41599   2.352  16.282   3.656
69175W        W41600  36.796   5.466   3.607
69176W        W41601  14.231   9.159   1.146
69177W        W41602  17.690  12.112  13.469
69178W        W41603  11.767  37.176  14.307
69179W        W41604  11.131   2.627   1.189
69180W        W41605   1.643   6.518  14.774
69181W        W41606  15.857   0.499   4.883
69182W        W41607  37.484  11.984   4.201
69183W        W41608  27.252  36.487   1.221
69184W        W41609  30.013  37.651  11.110
69185W        W41610   8.648  28.561   2.365
69186W        W41611  11.861   0.975   3.175
69187W        W41612  24.510   5.401   1.364
69188W        W41613  31.972   7.820   3.421
69189W        W41614  39.884  19.811   0.236
69190W        W41615   2.400  20.270  14.727
69191W        W41616   5.403  32.405  13.471
69192W        W41617  10.481  40.903  13.993
69193W        W41618  19.709   6.257   1.179
69194W        W41619  12.429  25.483   4.557
69195W        W41620   8.329   5.657   2.232
69196W        W41621  20.808  41.406  13.784
69197W        W41622  19.283   0.497  14.478
69198W        W41623  36.835  34.383  11.918
69199W        W41624  22.960  32.083  11.100
69200W        W41625  41.254   4.714   2.319
69201W        W41626  41.112  22.023  12.091
69202W        W41627  20.385  15.349   3.237
69203W        W41628  32.880  43.285   2.130
69204W        W41629  23.537  10.375   1.454
69205W        W41630  10.685  22.024  14.821
69206W        W41631  17.057  40.461   0.748
69207W        W41632  18.143  11.719  12.527
69208W        W41633  18.269  22.660   4.309
69209W        W41634   0.307  22.749  12.086
69210W        W41635   5.426  24.706   2.502
69211W        W41636  44.486  12.720  11.437
69212W        W41637  28.082  18.326  11.036
69213W        W41638  15.525  37.435   0.593
69214W        W41639   9.375  21.238   0.705
69215W        W41640   4.732  40.937   0.387
69216W        W41641  37.945  12.248   3.310
69217W        W41642  14.266  39.430  12.408
69218W        W41643  19.656  39.408  11.556
69219W        W41644   0.053  38.845  13.284
69220W        W41645  10.176  35.543  12.000
69221W        W41646  37.820  13.419   2.606
69222W        W41647  25.491   6.415  13.089
69223W        W41648  19.746   6.626   4.039
69224W        W41649  40.495  36.490  12.408
69225W        W41650  28.944  27.602  12.119
69226W        W41651  36.268  39.638   0.545
69227W        W41652  32.559  31.620   0.229
69228W        W41653  40.509   4.775  13.890
69229W        W41654  11.102  30.457   3.205
69230W        W41655  31.639   6.693  14.022
69231W        W41656   2.279  12.878  12.371
69232W        W41657   4.293  21.149  14.885
69233W        W41658  18.801  28.181  13.474
69234W        W41659  24.094  34.418   0.283
69235W        W41660   9.871  25.205  13.945
69236W        W41661  22.657  43.278   2.458
69237W        W41662  30.879  21.753  14.306
69238W        W41663  26.988  14.349  14.840
69239W        W41664  11.579  19.306  14.836
69240W        W41665   2.930  11.445  11.923
69241W        W41666  42.419  36.602  11.575
69242W        W41667  32.595  10.953   0.740
69243W        W41668  31.512  19.703   0.236
69244W        W41669   8.229  18.217  13.634
69245W        W41670  19.266   2.718   0.208
69246W        W41671   7.288  23.192   0.445
69247W        W41672  35.979  16.937   4.936
69248W        W41673  44.711  21.963   0.306
69249W        W41674   2.261   8.324  11.018
69250W        W41675  15.703  34.941  12.525
69251W        W41676  26.315  22.782   2.692
69252W        W41677  17.563   9.665   1.603
69253W        W41678  11.266  17.814   0.376
69254W        W41679  25.429  12.983  14.946
69255W        W41680   6.175  43.561   3.153
69256W        W41681  33.893  43.272  13.558
69257W        W41682   2.957  35.317   3.699
69258W        W41683  33.000  39.255   1.697
69259W        W41684   6.035  11.444   1.775
69260W        W41685  29.065   6.606  14.496
69261W        W41686  23.075  14.829   2.703
69262W        W41687   2.500  41.808  12.024
69263W        W41688   8.495  14.254  13.383
69264W        W41689  40.036   3.803  12.967
69265W        W41690   4.128  41.369  10.693
69266W        W41691   8.001  33.547  11.561
69267W        W41692   3.753   8.742  14.602
69268W        W41693  41.358  19.530   2.758
69269W        W41694  44.884  22.991  11.936
69270W        W41695  28.124  35.600   4.576
69271W        W41696   3.684  42.665  14.883
69272W        W41697  10.775   6.083  13.428
69273W        W41698  32.995   8.357   2.603
69274W        W41699  37.981  32.419   0.911
69275W        W41700  43.602  16.694   3.840
69276W        W41701   1.707   5.125   1.340
69277W        W41702  11.173  23.508  11.415
69278W        W41703  17.191  21.317   4.041
69279W        W41704  34.315  30.028   1.179
69280W        W41705  40.861   0.472   3.983
69281W        W41706  43.222   4.049  11.556
69282W        W41707  15.355  39.755  12.448
69283W        W41708  24.525  18.158   0.792
69284W        W41709  20.785   5.323   2.214
69285W        W41710  25.401  41.911   2.719
69286W        W41711  23.664  20.622  11.922
69287W        W41712  10.919   9.601   0.429
69288W        W41713  41.077  11.680  12.853
69289W        W41714  18.758  18.109   4.110
69290W        W41715  36.400  19.499  11.999
69291W        W41716  31.009  43.282  14.564
69292W        W41717  35.038   1.859   3.701
69293W        W41718  22.092  19.785   0.323
69294W        W41719  29.590   9.584   3.023
69295W        W41720  32.476  25.432  13.912
69296W        W41721  19.724  11.753  13.718
69297W        W41722  40.785  15.299   1.842
69298W        W41723   1.958   7.879   4.569
69299W        W41724  27.262  14.036   5.029
69300W        W41725  42.318  44.258   0.449
69301W        W41726  18.206  24.513   3.626
69302W        W41727  39.908  30.043  13.830
69303W        W41728  28.885  14.715   3.281
69304W        W41729  24.144  35.988  12.851
69305W        W41730  23.637  10.732   3.853
69306W        W41731  30.701  25.243  10.680
69307W        W41732  26.938   7.427   0.405
69308W        W41733   9.345  34.071   0.701
69309W        W41734  22.894  20.632   0.014
69310W        W41735  10.976  28.095   4.208
69311W        W41736   7.125  17.105   0.911
69312W        W41737  41.153  35.144  14.508
69313W        W41738  12.872  33.664   2.756
69314W        W41739  10.358  12.144  13.825
69315W        W41740  15.701  17.088  12.394
69316W        W41741  26.989   1.479  12.044
69317W        W41742   6.674  36.006  14.228
69318W        W41743   3.488  17.025   2.767
69319W        W41744  16.295   6.834   1.730
69320W        W41745  17.788  25.942  11.455
69321W        W41746   8.092   7.285   1.703
69322W        W41747   7.380  34.672   1.836
69323W        W41748  26.195   2.186   0.300
69324W        W41749  27.238  11.324  12.412
69325W        W41750   0.409  20.665  11.670
69326W        W41751   1.728  18.622   1.802
69327W        W41752   5.243   7.545   4.786
69328W        W41753  15.026  24.622  11.557
69329W        W41754  38.980  13.094   3.338
69330W        W41755   7.232   1.011  12.119
69331W        W41756  11.753  41.240   4.221
69332W        W41757  42.858  16.872  13.452
69333W        W41758  27.132  17.007   0.417
69334W        W41759   7.562  21.913   3.797
69335W        W41760  27.545  34.572  12.198
69336W        W41761   4.757   1.100  13.374
69337W        W41762  41.890   2.342   3.353
69338W        W41763  17.758  10.977   4.497
69339W        W41764  25.476  44.307  12.029
69340W        W41765  16.556  38.859   1.210
69341W        W41766  43.746  36.998   1.300
69342W        W41767  34.041  25.531  13.092
69343W        W41768   2.797  13.241   1.937
69344W        W41769  19.604   2.249   4.616
69345W        W41770  38.062  20.970  14.325
69346W        W41771  39.546  36.836   1.432
69347W        W41772  38.435  27.689  13.846
69348W        W41773  14.314  44.349   4.551
69349W        W41774  21.170   6.678   3.240
69350W        W41775  24.792  31.720   2.132
69351W        W41776  31.996  28.853  10.697
69352W        W41777  43.836   2.206  11.616
69353W        W41778   9.746  32.261  13.424
69354W        W41779   9.781   6.970  13.446
69355W        W41780   8.438  10.313  11.619
69356W        W41781  28.601  17.237   0.810
69357W        W41782  24.133   3.778   3.189
69358W        W41783  39.981  28.551   2.148
69359W        W41784   5.390  29.317  11.581
69360W        W41785  29.008  24.539  10.021
69361W        W41786  13.355  10.673   0.285
69362W        W41787   6.420  36.100   4.139
69363W        W41788  36.111  27.162  13.557
69364W        W41789  32.971   9.939   2.315
69365W        W41790   2.980  22.459  14.948
69366W        W41791  28.211  32.419   1.929
69367W        W41792  25.571   2.622   2.128
69368W        W41793  17.994  40.964  11.198
69369W        W41794  39.272  14.835  11.730
69370W        W41795  39.017  43.475  11.406
69371W        W41796  33.382  13.615   0.754
69372W        W41797   4.463  21.243  10.757
69373W        W41798  19.543  31.479  13.367
69374W        W41799  27.957   3.708   3.686
69375W        W41800  25.126  14.716  13.852
69376W        W41801   9.709  42.703   2.373
69377W        W41802  10.705  23.831   3.282
69378W        W41803  40.041  44.120  14.401
69379W        W41804   9.622  40.374   4.371
69380W        W41805  22.225  23.071   0.814
69381W        W41806  30.608  30.448   1.930
69382W        W41807   3.919  26.100  10.763
69383W        W41808  11.677  40.740   2.903
69384W        W41809  17.333  15.185   1.671
69385W        W41810  23.704   6.618   0.899
69386W        W41811  10.111  27.709   0.391
69387W        W41812  12.283  33.951   1.025
69388W        W41813  24.104  12.690   1.284
69389W        W41814  17.582   2.846   1.738
69390W        W41815  32.935   6.420   2.470
69391W        W41816  43.153   2.377   1.841
69392W        W41817  12.115  10.738   2.041
69393W        W41818  42.751   9.743   4.133
69394W        W41819   2.225  33.021   2.419
69395W        W41820  15.706  10.693  10.545
69396W        W41821  12.225  42.184  13.969
69397W        W41822  36.366  35.433   0.065
69398W        W41823  33.706  34.831   5.196
69399W        W41824  18.848   6.414  12.117
69400W        W41825  37.017  24.524  14.337
69401W        W41826  12.332  38.532  11.582
69402W        W41827  15.825   0.739  11.225
69403W        W41828  24.294  16.612  11.640
69404W        W41829   7.226   8.344  11.478
69405W        W41830  25.307  31.993   3.801
69406W        W41831  43.130   0.402  10.274
69407W        W41832  33.847   8.814   1.162
69408W        W41833  14.592  40.390  13.967
69409W        W41834  20.132  16.275   0.928
69410W        W41835   1.865   6.280   2.166
69411W        W41836  22.685  37.327   0.234
69412W        W41837  15.584  11.845  12.056
69413W        W41838  37.106   6.746  11.039
69414W        W41839   7.720   6.928   0.122
69415W        W41840  39.577  32.758   4.580
69416W        W41841  41.160   1.717  12.967
69417W        W41842   3.591  24.496   2.820
69418W        W41843  30.971  42.788   2.338
69419W        W41844   3.313  44.451  14.986
69420W        W41845  14.690  11.659  13.811
69421W        W41846   0.748  32.139   2.386
69422W        W41847  23.295  22.164   2.387
69423W        W41848   4.437  12.488   3.971
69424W        W41849  25.267   2.224  11.529
69425W        W41850   3.032   8.758   1.245
69426W        W41851  42.769  10.500  10.730
69427W        W41852  12.412  17.189   1.579
69428W        W41853  29.571  21.091   4.947
69429W        W41854  34.272   7.742  11.062
69430W        W41855  27.522  40.078  14.275
69431W        W41856   7.434  23.711  14.578
69432W        W41857  44.783  15.613   0.554
69433W        W41858  17.041  39.068  12.863
69434W        W41859  41.517  14.648  11.984
69435W        W41860  40.098  19.823   4.744
69436W        W41861  26.131   0.536   1.205
69437W        W41862  38.530  38.090   3.146
69438W        W41863  15.998   1.911  13.840
69439W        W41864  36.990  19.964  14.458
69440W        W41865  35.964  13.647   0.849
69441W        W41866  37.522  25.468   2.230
69442W        W41867  29.069  26.218  14.383
69443W        W41868  22.455   5.507   0.265
69444W        W41869  14.320   8.096   5.084
69445W        W41870  16.713  30.382   2.200
69446W        W41871  31.568  42.984  11.200
69447W        W41872  14.027  29.166  12.017
69448W        W41873  33.872  20.288  11.825
69449W        W41874  34.398  22.806   2.179
69450W        W41875   9.805  27.908   2.800
69451W        W41876  12.828  39.750  12.994
69452W        W41877  41.371  17.511  12.983
69453W        W41878   5.425   2.393   4.936
69454W        W41879   1.235  24.433   3.203
69455W        W41880  18.324  19.822  11.617
69456W        W41881  19.251  15.505   3.352
69457W        W41882  20.760  31.690  14.866
69458W        W41883  25.468  11.578  14.782
69459W        W41884  26.144   8.868  12.447
69460W        W41885   9.752  15.621  11.103
69461W        W41886  23.065   1.196  14.530
69462W        W41887  38.088  15.787   4.349
69463W        W41888  32.889  34.290   4.226
69464W        W41889   8.627  19.544   3.759
69465W        W41890  29.622  36.296  12.640
69466W        W41891  23.770  11.646  12.486
69467W        W41892  36.817  35.090  12.958
69468W        W41893   4.217  16.294   3.287
69469W        W41894   8.351  26.642  11.158
69470W        W41895  42.244  44.876   3.861
69471W        W41896  35.548  30.879   0.068
69472W        W41897   7.860   3.276   2.691
69473W        W41898  36.303  20.212   0.655
69474W        W41899  28.106   7.831  12.967
69475W        W41900  19.239  13.582  12.967
69476W        W41901  33.513  16.066   1.847
69477W        W41902  17.967  25.519  13.287
69478W        W41903  38.335   6.883   1.460
69479W        W41904  23.778  11.687   1.507
69480W        W41905   4.909  29.679   4.616
69481W        W41906  33.754  21.170   0.966
69482W        W41907  22.694   7.798   4.682
69483W        W41908  30.560  37.382  12.843
69484W        W41909  37.011  39.038  14.922
69485W        W41910   0.029  31.025   0.762
69486W        W41911  40.324  32.533  14.540
69487W        W41912   3.255  31.085   0.917
69488W        W41913  35.611   6.006   4.225
69489W        W41914  23.649  15.266  12.637
69490W        W41915  14.925  23.665   4.700
69491W        W41916  15.803   1.262  13.157
69492W        W41917   0.224  20.513  12.185
69493W        W41918  26.387  15.490   4.605
69494W        W41919   0.333  15.890  10.973
69495W        W41920  15.578  32.731  12.899
69496W        W41921   6.143  30.166   0.812
69497W        W41922  40.112   3.355  11.638
69498W        W41923   5.984   5.917   4.463
69499W        W41924  27.736  11.268  12.537
69500W        W41925  19.052  22.185   4.182
69501W        W41926  18.581  22.161   4.782
69502W        W41927  43.951  19.881   0.172
69503W        W41928   0.332   9.775  14.659
69504W        W41929  40.898  15.203  11.020
69505W        W41930  41.450  34.370   3.291
69506W        W41931  35.065  33.282   1.340
69507W        W41932   4.986   0.997  10.109
69508W        W41933   7.259  25.611   1.155
69509W        W41934  40.187  26.463   0.374
69510W        W41935  10.164  15.188  13.418
69511W        W41936  16.649  30.676  14.349
69512W        W41937  44.408  37.478  13.530
69513W        W41938   2.682  24.339  12.013
69514W        W41939  10.900  13.261  13.432
69515W        W41940  21.652   6.627   4.610
69516W        W41941  23.555  37.050   2.379
69517W        W41942  37.501  18.104   2.319
69518W        W41943  33.548  15.719  10.650
69519W        W41944  25.580  44.455  13.470
69520W        W41945  38.896  10.178  11.467
69521W        W41946  24.444  26.012   3.915
69522W        W41947  12.557  12.159   2.268
69523W        W41948  22.604   3.968   1.256
69524W        W41949  11.377  24.064  13.208
69525W        W41950  21.214  27.504   4.854
69526W        W41951   2.533  16.600   4.800
69527W        W41952  18.686  39.513   4.232
69528W        W41953  20.759  25.472   1.926
69529W        W41954  11.887  31.738  12.613
69530W        W41955   3.291   0.705  11.942
69531W        W41956  40.471  13.392  12.902
69532W        W41957  19.019  11.188  13.598
69533W        W41958  39.446   5.473  10.668
69534W        W41959  15.129  12.772  13.444
69535W        W41960   4.383  29.445  10.682
69536W        W41961  28.849  10.269   5.025
69537W        W41962   3.454  26.435  11.909
69538W        W41963  33.209  12.134  12.930
69539W        W41964  35.999  41.797  14.831
69540W        W41965   0.646  11.930  11.088
69541W        W41966  40.555  40.025   2.339
69542W        W41967  27.477  18.519   2.367
69543W        W41968  26.709  32.819  12.039
69544W        W41969  44.108   2.900   2.213
69545W        W41970  24.919   7.861   2.791
69546W        W41971  33.636  36.843   2.243
69547W        W41972  38.303   4.216   1.730
69548W        W41973  36.970  16.146   3.180
69549W        W41974  24.527  10.282   2.320
69550W        W41975  30.449  11.802   4.669
69551W        W41976  16.233  20.300  13.398
69552W        W41977  38.869  40.708   2.191
69553W        W41978  31.826  24.374  12.517
69554W        W41979  35.324  28.064  14.741
69555W        W41980  33.630   9.085   4.059
69556W        W41981  23.010   2.247  10.641
69557W        W41982  25.803  13.195   2.921
69558W        W41983  18.505  33.385  10.562
69559W        W41984  44.968  23.082   3.538
69560W        W41985  20.107  19.701   1.333
69561W        W41986  10.956  16.709   2.753
69562W        W41987  39.173  31.898  12.286
69563W        W41988  16.788  31.630   5.057
69564W        W41989  14.458   7.704   3.333
69565W        W41990   5.145   2.312  11.049
69566W        W41991  17.726  36.481  12.680
69567W        W41992   4.639  12.728  11.121
69568W        W41993  28.396  39.561   4.940
69569W        W41994   7.069   7.176  11.150
69570W        W41995  38.965  30.664  12.110
69571W        W41996  28.432  40.517  14.888
69572W        W41997   2.290  17.275   4.566
69573W        W41998  31.621   9.142  14.976
69574W        W41999  33.979  14.106   4.053
69575W        W42000  17.517  39.835   1.346
69576W        W42001  25.386  22.793  10.263
69577W        W42002  43.403  44.008   0.706
69578W        W42003  23.779  34.506   0.872
69579W        W42004  35.305   7.967  13.975
69580W        W42005   6.812  42.339   3.442
69581W        W42006  41.003  15.551   3.325
69582W        W42007  44.162  35.104  11.972
69583W        W42008  20.913  11.190  12.555
69584W        W42009  28.739  13.857  13.950
69585W        W42010   8.699  42.761   4.019
69586W        W42011   8.418   2.241  12.177
69587W        W42012  33.102  23.561   3.347
69588W        W42013  42.806  13.644   0.844
69589W        W42014  14.527  25.251  13.761
69590W        W42015  35.661   5.663   2.311
69591W        W42016  39.306  20.708   1.394
69592W        W42017   5.839   6.387   0.221
69593W        W42018  33.794  42.824   0.781
69594W        W42019  32.268  21.683  11.485
69595W        W42020  21.925   4.660   3.213
69596W        W42021  14.723   5.452   2.799
69597W        W42022  17.042  39.427  11.087
69598W        W42023   8.086  34.161   2.730
69599W        W42024  35.334  43.831   0.945
69600W        W42025  43.919  26.941  11.145
69601W        W42026  25.640  29.260  14.297
69602W        W42027  39.403   3.829  11.567
69603W        W42028  20.529  41.472   0.221
69604W        W42029  25.421  22.045   1.280
69605W        W42030  10.824  10.173  11.499
69606W        W42031  13.997   4.041   5.074
69607W        W42032   1.697  44.261   0.439
69608W        W42033  30.280  33.049   2.739
69609W        W42034  22.735   8.852  10.986
69610W        W42035   0.769  22.996  12.142
69611W        W42036  30.405  16.574   0.597
69612W        W42037  21.441  13.290   3.803
69613W        W42038  39.996   2.214  11.104
69614W        W42039   7.502  39.445   1.950
69615W        W42040   6.332  15.264  11.974
69616W        W42041  21.689  16.235  13.778
69617W        W42042  21.211  11.915   2.842
69618W        W42043  39.898  35.066   0.519
69619W        W42044  35.107  26.411   0.375
69620W        W42045  19.191   0.006   0.794
69621W        W42046  11.861  15.591   3.359
69622W        W42047  26.555   2.047   1.850
69623W        W42048  34.742  42.717  11.127
69624W        W42049  17.432  23.044   0.284
69625W        W42050  20.634  28.903  13.718
69626W        W42051  39.810   2.182  12.077
69627W        W42052  33.476   6.218   0.227
69628W        W42053  19.156  37.867  10.681
69629W        W42054   3.488   5.919   3.425
69630W        W42055  11.661  23.796  11.105
69631W        W42056  41.403  44.326   1.840
69632W        W42057  25.502   9.658  14.797
69633W        W42058  43.876  23.131   1.733
69634W        W42059  42.248   6.159   1.239
69635W        W42060  33.001  20.017   3.326
69636W        W42061  21.750   1.148   0.734
69637W        W42062   5.726  17.782  14.008
69638W        W42063  18.615  36.328  13.965
69639W        W42064   8.128  31.463  11.639
69640W        W42065  18.093  18.333   2.379
69641W        W42066   4.349  38.605   0.458
69642W        W42067   6.711  39.810  14.395
69643W        W42068  18.702  44.674  10.943
69644W        W42069  30.597  41.857  11.626
69645W        W42070  38.368  16.571  12.510
69646W        W42071  10.690  24.149  11.096
69647W        W42072  25.062   3.526  11.097
69648W        W42073  18.245  33.663   0.376
69649W        W42074  36.394  44.512   1.331
69650W        W42075  22.552  32.633  12.018
69651W        W42076  10.868  18.720   1.393
69652W        W42077  41.884  26.975  12.297
69653W        W42078  41.457   9.170  11.084
69654W        W42079  25.205  14.979  14.303
69655W        W42080  31.664  27.413   2.227
69656W        W42081  11.658  40.529  13.405
69657W        W42082   9.054   1.507   2.111
69658W        W42083   2.021  29.117   4.985
69659W        W42084  30.600  16.165   0.338
69660W        W42085  16.792   4.958  11.702
69661W        W42086  12.122  16.799   1.344
69662W        W42087  17.675   4.015   4.641
69663W        W42088   6.091   1.666   3.380
69664W        W42089  41.175  20.128  10.734
69665W        W42090  22.780  25.972   2.759
69666W        W42091  40.076  37.365  11.636
69667W        W42092  31.586  40.287  12.315
69668W        W42093   8.877  10.270  11.883
69669W        W42094  11.630  25.982   0.052
69670W        W42095  21.491  40.241   2.422
69671W        W42096   1.058  42.081   1.914
69672W        W42097  14.260   7.228   2.763
69673W        W42098  35.621  10.680   0.302
69674W        W42099  21.489   0.313   2.132
69675W        W42100   4.368   8.146   1.944
69676W        W42101   0.393   5.229  12.945
69677W        W42102  38.340   7.946  14.747
69678W        W42103  42.625  22.628   4.280
69679W        W42104   8.132  38.645  11.703
69680W        W42105  15.895  37.488   0.971
69681W        W42106  18.621  43.090  12.195
69682W        W42107   9.800  28.895  11.070
69683W        W42108  10.355  17.201  10.721
69684W        W42109   4.500   4.536  12.826
69685W        W42110  34.978  37.530   4.684
69686W        W42111  37.915  20.249   4.068
69687W        W42112   0.908  37.895  10.609
69688W        W42113   8.443  16.228   2.733
69689W        W42114  41.908   8.474   1.174
69690W        W42115  20.023  36.486   3.815
69691W        W42116  32.617   5.398  14.403
69692W        W42117  23.176  29.492  14.073
69693W        W42118  10.602  39.419   0.745
69694W        W42119  33.352  39.941  11.586
69695W        W42120  27.870  34.557   4.524
69696W        W42121   3.893   8.406   0.971
69697W        W42122  24.257  15.183   1.493
69698W        W42123  30.668   2.524  13.999
69699W        W42124   0.178  31.121   1.301
69700W        W42125  27.243  23.103   5.042
69701W        W42126  38.030  23.520  11.653
69702W        W42127  27.575  29.999   3.037
69703W        W42128  34.430  13.141  14.880
69704W        W42129  18.505  30.089  11.985
69705W        W42130  13.352  19.651   2.612
69706W        W42131   7.709  20.684   0.692
69707W        W42132  27.525   3.799   3.935
69708W        W42133  11.301  17.247  13.420
69709W        W42134  40.463  35.428  12.565
69710W        W42135  27.546  24.954  11.644
69711W        W42136   0.850  12.607   0.341
69712W        W42137  44.892  43.628   0.897
69713W        W42138   9.207  12.156  10.921
69714W        W42139   0.901  20.611   3.834
69715W        W42140  33.618  39.001   4.283
69716W        W42141  20.256  43.837  10.703
69717W        W42142  35.932  16.683   1.753
69718W        W42143  18.475  20.975  13.289
69719W        W42144   2.726  44.513  10.792
69720W        W42145  21.712  11.535  11.849
69721W        W42146  11.700  39.265  11.607
69722W        W42147  16.170  26.791   2.874
69723W        W42148  28.055  16.011  11.393
69724W        W42149  20.754  10.604   4.520
69725W        W42150  27.513  17.885  14.306
69726W        W42151  40.076  23.551   3.377
69727W        W42152  29.855  18.106  12.632
69728W        W42153  16.599  36.800  11.128
69729W        W42154   9.810  27.090  11.402
69730W        W42155  41.109  18.485  14.914
69731W        W42156  29.113   3.910   1.250
69732W        W42157  38.928  26.147  11.234
69733W        W42158  20.564  14.694   2.288
69734W        W42159  10.777  33.648  11.105
69735W        W42160  41.207  30.232  12.881
69736W        W42161  18.104  31.087  12.653
69737W        W42162   3.440  34.906   2.160
69738W        W42163  27.576  12.065  11.152
69739W        W42164   8.137  23.579   2.996
69740W        W42165   5.757  23.208   1.844
69741W        W42166   1.403  24.612   0.550
69742W        W42167  22.873   7.837  12.453
69743W        W42168  34.094   6.081  13.281
69744W        W42169  35.978  22.119  11.812
69745W        W42170  15.430   1.271  12.144
69746W        W42171  34.113  12.669   4.817
69747W        W42172  26.114  14.523  14.458
69748W        W42173  23.800   2.143   0.344
69749W        W42174  43.353  14.500  13.303
69750W        W42175   2.122  19.103   4.657
69751W        W42176   6.864  13.895   3.650
69752W        W42177  12.227  34.177   3.234
69753W        W42178  14.707  42.850  12.843
69754W        W42179  12.635  34.440  14.237
69755W        W42180  27.085  18.976   1.627
69756W        W42181  42.844  36.952   4.749
69757W        W42182  17.782  13.219   2.396
69758W        W42183  17.354  14.376  14.533
69759W        W42184  30.233  25.929   2.875
69760W        W42185  27.066  12.208   4.053
69761W        W42186  24.673  26.452   3.201
69762W        W42187  23.408  12.285  11.455
69763W        W42188  26.518  19.391   2.213
69764W        W42189  21.567  30.825   1.731
69765W        W42190  10.654  37.896   1.347
69766W        W42191  19.577   9.181   3.238
69767W        W42192  34.465  19.050   3.668
69768W        W42193  39.343   1.905  12.494
69769W        W42194  25.904  16.627   3.212
69770W        W42195  22.559   2.776   2.901
69771W        W42196  44.770  14.342  10.336
69772W        W42197  29.538  19.658   4.237
69773W        W42198   9.720   3.717  12.883
69774W        W42199   9.125  19.783  14.271
69775W        W42200  11.255  33.578   0.304
69776W        W42201  31.114  22.936   1.888
69777W        W42202  33.034  37.859   1.726
69778W        W42203  13.909   9.342  11.079
69779W        W42204  17.351  27.505   2.296
69780W        W42205  18.664   2.892   4.366
69781W        W42206  18.847  21.626   0.263
69782W        W42207   6.159   8.479  14.762
69783W        W42208   0.966  14.903  12.470
69784W        W42209  20.843  15.942   0.489
69785W        W42210   7.940  39.955   2.277
69786W        W42211   9.080  25.187  12.653
69787W        W42212  30.679  22.484  14.805
69788W        W42213  22.765  40.081  13.400
69789W        W42214  41.452  44.389  10.677
69790W        W42215  30.257   4.111  14.518
69791W        W42216  31.051  29.991   2.378
69792W        W42217  35.897   9.855   1.354
69793W        W42218  14.867  41.480  13.444
69794W        W42219  24.478   8.200   0.741
69795W        W42220  16.792  29.471   1.209
69796W        W42221  42.005  27.943   5.135
69797W        W42222   1.919  41.190  14.556
69798W        W42223  26.462  38.277   4.906
69799W        W42224   1.668  35.540  10.644
69800W        W42225  35.111  28.130  14.262
69801W        W42226  22.754   6.035  14.487
69802W        W42227  28.668  38.093  14.026
69803W        W42228   1.358  17.750  11.617
69804W        W42229  28.412   2.275  10.794
69805W        W42230  12.313  19.649   2.661
69806W        W42231  44.457   6.641  12.061
69807W        W42232  15.533  27.177   3.241
69808W        W42233  28.658  17.598   1.735
69809W        W42234  13.334   0.780   0.304
69810W        W42235  31.526  23.202  13.085
69811W        W42236  10.798   2.203   4.092
69812W        W42237  11.185  22.198   0.002
69813W        W42238   1.195  26.030  14.800
69814W        W42239   6.431   5.027  10.954
69815W        W42240  44.875  37.120   3.150
69816W        W42241  27.953  11.092   3.242
69817W        W42242  38.034  43.265  12.475
69818W        W42243  18.631  35.588  13.876
69819W        W42244  13.349  12.263  13.516
69820W        W42245  30.343  20.175   1.316
69821W        W42246  28.710  13.912  11.979
69822W        W42247  12.295  44.275  10.859
69823W        W42248   1.921  12.394  13.742
69824W        W42249  18.363  41.251   4.167
69825W        W42250  32.537   2.867   1.175
69826W        W42251   3.742  34.639   1.319
69827W        W42252  14.857  35.197   2.887
69828W        W42253  15.770  14.103   4.351
69829W        W42254  21.599  33.634  11.607
69830W        W42255  12.987  23.137   2.289
69831W        W42256  35.187  11.803   3.638
69832W        W42257   8.774  38.273  14.481
69833W        W42258  31.846  22.120  12.141
69834W        W42259  42.509  20.684   4.075
69835W        W42260  41.258  10.430  11.563
69836W        W42261  26.151  31.731   0.306
69837W        W42262  18.823  41.552   4.132
69838W        W42263  38.837  23.437   4.307
69839W        W42264   3.617  32.910   3.624
69840W        W42265  25.523   1.881   4.699
69841W        W42266  44.414  43.721   3.149
69842W        W42267  42.571  38.920  14.910
69843W        W42268  27.533  16.079  14.030
69844W        W42269  11.358  36.412   0.071
69845W        W42270  23.020  14.141  12.177
69846W        W42271   7.114  40.375   4.707
69847W        W42272  10.062   2.799  11.476
69848W        W42273  18.899  28.518   1.409
69849W        W42274  18.149  14.013   3.766
69850W        W42275  18.192  19.327  14.388
69851W        W42276   5.884  42.315  13.648
69852W        W42277  27.448  16.345   4.311
69853W        W42278  12.167  39.311   0.335
69854W        W42279  36.966   0.212   1.357
69855W        W42280  28.848   0.335   0.700
69856W        W42281  31.570  26.937  10.428
69857W        W42282  31.725   0.385  12.240
69858W        W42283  20.540  35.413   1.854
69859W        W42284   7.546  37.126   3.755
69860W        W42285  42.958   0.961   4.044
69861W        W42286  37.377  29.672   2.645
69862W        W42287  36.492  30.467  14.450
69863W        W42288   8.964  11.806   3.337
69864W        W42289  42.868   4.656   1.815
69865W        W42290   1.302  26.869   1.840
69866W        W42291   5.500   5.338  12.467
69867W        W42292  31.150   7.196   4.526
69868W        W42293  33.608  19.047   1.933
69869W        W42294   6.178  29.381   4.649
69870W        W42295   8.680   4.729   4.565
69871W        W42296   9.907  25.914  13.584
69872W        W42297  11.891   4.342   1.475
69873W        W42298  30.467   6.340  10.973
69874W        W42299  40.368  34.332  13.966
69875W        W42300   2.909  19.649   1.689
69876W        W42301  22.324  42.370  12.952
69877W        W42302   3.955  43.938   1.267
69878W        W42303  19.121  25.170  11.009
69879W        W42304   8.168   8.320  13.976
69880W        W42305  33.002   7.140   1.813
69881W        W42306  41.312   7.220   3.664
69882W        W42307  22.449   0.048  14.962
69883W        W42308  44.524  21.098  13.423
69884W        W42309  36.199  44.267   0.917
69885W        W42310   2.711   5.779   1.923
69886W        W42311   6.988  34.909  10.692
69887W        W42312  20.093  35.600   4.112
69888W        W42313  40.796  42.967   1.447
69889W        W42314  11.202  26.151   4.208
69890W        W42315  35.475  38.546  12.975
69891W        W42316  10.698  19.123  12.482
69892W        W42317  30.515  36.119   0.348
69893W        W42318  32.733  44.711  11.654
69894W        W42319  29.872  30.450   2.434
69895W        W42320  36.308  25.962   0.337
69896W        W42321  33.233   8.543  11.498
69897W        W42322   4.452  38.518  12.087
69898W        W42323  39.271  16.784  13.369
69899W        W42324  35.630  21.884  10.732
69900W        W42325  11.246  18.021  13.786
69901W        W42326  20.646   8.247  12.561
69902W        W42327  39.261   3.199  12.053
69903W        W42328  30.992  17.130   3.984
69904W        W42329   0.737  25.448   4.045
69905W        W42330  24.849  37.678   0.687
69906W        W42331  40.625  22.037  11.938
69907W        W42332   5.316   1.291  10.724
69908W        W42333  10.470  22.626   1.962
69909W        W42334  23.547  18.099  13.319
69910W        W42335  35.122   7.358  13.094
69911W        W42336  33.371   5.428  13.013
69912W        W42337  25.103  14.618   3.609
69913W        W42338  17.611  25.614   2.233
69914W        W42339  33.010  33.994  14.281
69915W        W42340  34.632  15.194   4.812
69916W        W42341  19.990   7.918   2.406
69917W        W42342   5.208  19.147   0.295
69918W        W42343   1.007   5.667  12.504
69919W        W42344  33.988  43.464   4.378
69920W        W42345  24.015  26.268  13.030
69921W        W42346  19.525  41.062   4.557
69922W        W42347  17.310  42.118  12.415
69923W        W42348  19.360   9.409  12.133
69924W        W42349  28.416  13.009  14.389
69925W        W42350  29.182  44.301  12.300
69926W        W42351  32.160   9.051  11.694
69927W        W42352  38.641  25.721   3.656
69928W        W42353  19.570  31.002  11.169
69929W        W42354   3.000  10.395  11.924
69930W        W42355  30.815   1.447  11.904
69931W        W42356  27.053  23.219  11.793
69932W        W42357  11.571  44.880   4.712
69933W        W42358  32.154  12.658  14.371
69934W        W42359  42.923   1.448  13.727
69935W        W42360  16.598  14.720   2.240
69936W        W42361  37.542   0.937  13.787
69937W        W42362  17.539   2.870  12.929
69938W        W42363  19.945  35.582  11.489
69939W        W42364  35.912   5.934  11.073
69940W        W42365  14.931   7.554   3.199
69941W        W42366  24.231   3.232  14.757
69942W        W42367  42.703  41.725  13.448
69943W        W42368  25.180  39.879  14.340
69944W        W42369  10.808  22.798   1.182
69945W        W42370  29.660  38.877   0.284
69946W        W42371  34.986  34.764   2.766
69947W        W42372   8.226   0.900   1.976
69948W        W42373  30.949  20.344   2.265
69949W        W42374  40.848  40.331  14.472
69950W        W42375  14.205  32.819   1.316
69951W        W42376  42.469  27.596  13.962
69952W        W42377  15.786  44.533   4.135
69953W        W42378   9.659  21.799   0.421
69954W        W42379   5.227  26.420   1.507
69955W        W42380  33.023   4.222  11.899
69956W        W42381  25.508  15.940   3.762
69957W        W42382  24.456   9.867   1.319
69958W        W42383  17.090  22.586   2.821
69959W        W42384  41.822  38.027   2.693
69960W        W42385  16.377  26.580  13.040
69961W        W42386  18.873  21.049  11.114
69962W        W42387  43.910  12.120   0.788
69963W        W42388  44.771  25.734   1.973
69964W        W42389   8.812  39.639   0.810
69965W        W42390  25.006  11.179  13.561
69966W        W42391  19.211  31.074  14.253
69967W        W42392   4.193  15.758  10.510
69968W        W42393  14.300  20.294  11.665
69969W        W42394   2.086  31.581  10.391
69970W        W42395   4.174  41.512   3.601
69971W        W42396   0.932  33.158  11.889
69972W        W42397  26.936  13.593  13.589
69973W        W42398  24.017  37.841  13.307
69974W        W42399  15.949  32.007   4.095
69975W        W42400   9.389  38.898   0.435
69976W        W42401  37.084   8.800   5.175
69977W        W42402  33.380  39.556  13.840
69978W        W42403  13.117  44.700  11.195
69979W        W42404  41.265  28.213   3.655
69980W        W42405  34.181  34.322   0.383
69981W        W42406  26.122   7.917   2.278
69982W        W42407  31.887  24.079  11.520
69983W        W42408  40.744   1.812  13.843
69984W        W42409  41.588   7.295   2.161
69985W        W42410  35.701  19.183  10.868
69986W        W42411  40.252  36.149  14.363
69987W        W42412  15.264   4.127  10.794
69988W        W42413  25.087  13.634  11.968
69989W        W42414  22.000   0.392  10.531
69990W        W42415  25.950  42.522  12.354
69991W        W42416  42.330  14.237   2.649
69992W        W42417  32.962  43.475   1.651
69993W        W42418  22.530   3.506   1.622
69994W        W42419   3.942  11.593   5.121
69995W        W42420  13.204  19.453   0.361
69996W        W42421  22.362  21.566   0.974
69997W        W42422  27.334  21.516   0.696
69998W        W42423  37.600   4.584   0.805
69999W        W42424  24.973  10.705   3.785
70000W        W42425  37.729   7.347   4.179
70001W        W42426   7.506  19.794   3.370
70002W        W42427  18.559  21.755   0.783
70003W        W42428  39.497  29.952  13.506
70004W        W42429  15.679  19.524   0.335
70005W        W42430  23.813  16.762  11.510
70006W        W42431  40.557   5.739  14.020
70007W        W42432   7.653  43.882   1.922
70008W        W42433  14.040  39.350  11.907
70009W        W42434   4.114  43.506  13.388
70010W        W42435   9.787  17.205  12.772
70011W        W42436  15.687   2.302   1.854
70012W        W42437  10.618  20.597   3.583
70013W        W42438  29.206  16.031   3.549
70014W        W42439  34.845   2.978  12.587
70015W        W42440   8.915  19.725   4.162
70016W        W42441  33.611  36.089   0.118
70017W        W42442  29.530  33.259   1.436
70018W        W42443  26.592   9.168   3.045
70019W        W42444  26.039  21.194   3.861
70020W        W42445  24.034  39.923   1.411
70021W        W42446   5.839  33.360  12.576
70022W        W42447   8.919   4.644   0.754
70023W        W42448   1.638  36.869   2.817
70024W        W42449  39.315   4.411  12.500
70025W        W42450  30.538  40.960  12.101
70026W        W42451  11.238  14.233   0.900
70027W        W42452  41.802  42.418   4.556
70028W        W42453  40.771  14.329   3.912
70029W        W42454  17.868  37.952   0.038
70030W        W42455  40.293   4.322   0.341
70031W        W42456  18.522  25.909  12.470
70032W        W42457  39.527   2.806   3.759
70033W        W42458   6.259  26.962  11.069
70034W        W42459  18.191  14.618  12.888
70035W        W42460  19.867  32.726   5.006
70036W        W42461   8.229  29.867   0.383
70037W        W42462  21.488  22.583  14.393
70038W        W42463  22.751  28.857   1.721
70039W        W42464  13.604  30.901   4.677
70040W        W42465  11.517  30.856  10.963
70041W        W42466  10.837   2.262  10.310
70042W        W42467   9.132  39.623   5.309
70043W        W42468   4.473   8.823   4.163
70044W        W42469  10.609  11.360  14.865
70045W        W42470  27.125  13.874  12.959
70046W        W42471   6.226  23.632  11.310
70047W        W42472  26.931  31.030  13.012
70048W        W42473  43.499  41.199   3.625
70049W        W42474  34.889  24.463   2.842
70050W        W42475  16.330  41.090   1.985
70051W        W42476  41.821  29.040  14.496
70052W        W42477  28.135  33.944  13.857
70053W        W42478  24.153   3.333  11.167
70054W        W42479  12.925   9.622   1.391
70055W        W42480  14.217  34.341   0.344
70056W        W42481   8.819  20.566  11.559
70057W        W42482  30.671  21.032  12.079
70058W        W42483   8.977  40.974   1.129
70059W        W42484   5.855  17.784   4.618
70060W        W42485   9.982  17.721   4.207
70061W        W42486  26.363  21.122  13.842
70062W        W42487  32.558  43.345   0.794
70063W        W42488  31.449   3.862   0.313
70064W        W42489  25.420  10.235  13.465
70065W        W42490   7.178  27.242   3.642
70066W        W42491  27.148  41.912  12.877
70067W        W42492  24.963  11.597  13.866
70068W        W42493   2.224  28.754   1.899
70069W        W42494  33.407  27.684  12.979
70070W        W42495  15.305  15.668  12.028
70071W        W42496  26.252  39.528  14.313
70072W        W42497  43.440  31.616  13.114
70073W        W42498   1.786   3.931  12.382
70074W        W42499   4.402  35.505  10.990
70075W        W42500  30.073  28.092  10.739
70076W        W42501  17.603  22.924   2.362
70077W        W42502  25.067  16.297  14.872
70078W        W42503  41.040  15.222   2.303
70079W        W42504  17.658  10.221  10.759
70080W        W42505  25.717  16.549   2.732
70081W        W42506  33.329  31.437  11.935
70082W        W42507  16.519  34.092   4.625
70083W        W42508   1.831   5.524  14.916
70084W        W42509  26.535  14.136  14.917
70085W        W42510  23.213  28.153  12.533
70086W        W42511  26.159  35.572  13.605
70087W        W42512  13.591  20.681   0.419
70088W        W42513  35.364   2.431  14.485
70089W        W42514  22.138   9.772   3.744
70090W        W42515  22.339  17.546   3.338
70091W        W42516  36.388   0.920  11.169
70092W        W42517   1.439  13.074  13.868
70093W        W42518  29.605  25.901   3.217
70094W        W42519  16.498  41.332  14.009
70095W        W42520  24.535  21.276  12.395
70096W        W42521  10.307  17.549   2.474
70097W        W42522  10.632  10.740   2.295
70098W        W42523  10.120  14.223  14.060
70099W        W42524   5.667  20.068  10.676
70100W        W42525  43.693  17.181  10.427
70101W        W42526  32.679  40.976   3.834
70102W        W42527  17.120  27.715   3.488
70103W        W42528   8.917  21.686  14.834
70104W        W42529  43.613  42.537   4.169
70105W        W42530   4.734  34.573  12.940
70106W        W42531  23.835  42.460   0.556
70107W        W42532  21.664   7.408   5.192
70108W        W42533   0.712  31.556  10.118
70109W        W42534   3.354  42.242  11.038
70110W        W42535  44.778  10.841   2.727
70111W        W42536   7.916  28.685   4.571
70112W        W42537  30.930   1.264  13.444
70113W        W42538  19.588  11.742  12.457
70114W        W42539  23.533  15.086  11.132
70115W        W42540  23.135   8.809   0.788
70116W        W42541  29.377  14.546   0.971
70117W        W42542  40.468   2.833  10.663
70118W        W42543  31.999  44.909   0.428
70119W        W42544  23.959   0.333  13.048
70120W        W42545  14.987  13.385  12.107
70121W        W42546  21.305  22.801   0.352
70122W        W42547  12.369  25.785   5.417
70123W        W42548  37.965  25.222   2.299
70124W        W42549  38.011  37.817  13.822
70125W        W42550  16.967  25.153  13.540
70126W        W42551   7.392  42.426   4.651
70127W        W42552  24.071  38.921  14.953
70128W        W42553  28.523  11.199  13.598
70129W        W42554  26.772  40.347   4.084
70130W        W42555  27.741  29.413   3.256
70131W        W42556  11.277   2.943   0.790
70132W        W42557   3.292  33.515  13.457
70133W        W42558  17.575  42.793   2.196
70134W        W42559  13.678  37.789   3.650
70135W        W42560   0.386  20.115  14.070
70136W        W42561   8.191  40.400  12.672
70137W        W42562  44.964  10.617   3.153
70138W        W42563  15.413   8.193  11.427
70139W        W42564  32.574  18.654  13.058
70140W        W42565  34.621  42.408   0.869
70141W        W42566  31.101  19.128  13.862
70142W        W42567  44.851   1.389   1.793
70143W        W42568  33.383  30.176   3.686
70144W        W42569  21.771  26.542  13.579
70145W        W42570  11.902  44.041   4.160
70146W        W42571  12.735   7.796   2.503
70147W        W42572  28.550   7.369  14.418
70148W        W42573  28.359  36.155   3.344
70149W        W42574  11.170   4.897   0.365
70150W        W42575  32.206   7.166   5.206
70151W        W42576   6.548  23.663   0.670
70152W        W42577   4.729  15.556  14.945
70153W        W42578   3.319  32.905   2.354
70154W        W42579  36.943  44.912   0.910
70155W        W42580  29.657  42.356  10.074
70156W        W42581   9.974  31.193  11.464
70157W        W42582  33.680  17.017   3.622
70158W        W42583  19.587  35.521   0.402
70159W        W42584   2.178  37.749   0.361
70160W        W42585  25.694  32.769  11.113
70161W        W42586  40.013  41.251  12.121
70162W        W42587  12.200   7.704   3.202
70163W        W42588   2.210   2.945   4.659
70164W        W42589   8.475  30.036  12.458
70165W        W42590  11.871  19.916   1.968
70166W        W42591  28.181   8.140  12.563
70167W        W42592  13.712  38.057  10.674
70168W        W42593  27.900   4.808  11.660
70169W        W42594  19.743  31.693   4.649
70170W        W42595   6.959  43.246   3.199
70171W        W42596  42.545  25.252   3.016
70172W        W42597  24.220   2.823  11.101
70173W        W42598  40.122  44.733   0.959
70174W        W42599  18.167   9.182   2.174
70175W        W42600  11.678  41.235   3.362
70176W        W42601  20.357  38.536  11.902
70177W        W42602   1.305  44.996  13.451
70178W        W42603  30.663  18.861  13.911
70179W        W42604  26.647   5.246  13.870
70180W        W42605  19.677  36.238  11.225
70181W        W42606  12.744  38.285   2.702
70182W        W42607  10.710  22.467   2.794
70183W        W42608  27.607  22.304  14.340
70184W        W42609  19.353  41.844   2.217
70185W        W42610   3.496  38.328   4.346
70186W        W42611  35.161   1.281   0.342
70187W        W42612   5.370   8.410   0.887
70188W        W42613  11.826  34.879   0.453
70189W        W42614  20.238  35.997  11.511
70190W        W42615  42.019  33.920   0.704
70191W        W42616  19.590  19.562   1.728
70192W        W42617   9.313  20.316  11.580
70193W        W42618  22.979  22.261   1.966
70194W        W42619   7.650  21.733  14.290
70195W        W42620  27.121  16.071   4.621
70196W        W42621  11.818  21.059  10.661
70197W        W42622  16.635   7.197  10.731
70198W        W42623  35.552  22.547   1.023
70199W        W42624   0.368  26.387   2.670
70200W        W42625  36.767   3.437   4.459
70201W        W42626  35.855  41.066   2.267
70202W        W42627  21.710   2.318  13.869
70203W        W42628  20.577  37.331   0.722
70204W        W42629  28.598   3.414  14.718
70205W        W42630  22.805  21.310   0.778
70206W        W42631   0.511  43.048  11.918
70207W        W42632  34.573  40.865   4.131
70208W        W42633  36.406  18.767  13.481
70209W        W42634  18.292  25.002  14.504
70210W        W42635  38.565  23.089  13.004
70211W        W42636   6.231   7.058   4.487
70212W        W42637  28.148  23.952  13.884
70213W        W42638  16.896  32.991  14.030
70214W        W42639   8.931  44.486   0.695
70215W        W42640   2.766  15.999  14.859
70216W        W42641  26.304  44.885   1.742
70217W        W42642  24.240  42.867  10.719
70218W        W42643  21.031  21.072   1.686
70219W        W42644  39.340  25.952  13.438
70220W        W42645  21.687  22.072  14.378
70221W        W42646  29.399  20.650  12.905
70222W        W42647  24.361   8.155   3.748
70223W        W42648  16.213  38.788   4.592
70224W        W42649  39.321  42.774   1.286
70225W        W42650  34.374  12.599  13.091
70226W        W42651  39.322  30.446   1.988
70227W        W42652  27.614  20.041  12.536
70228W        W42653  40.343  31.184  13.864
70229W        W42654  28.374  37.718  14.857
70230W        W42655   4.293  38.561   2.226
70231W        W42656   6.687  41.044  12.596
70232W        W42657   3.138  42.300  14.286
70233W        W42658  37.658   6.330   1.636
70234W        W42659  16.494   3.223  13.524
70235W        W42660   9.272  19.302   1.798
70236W        W42661  42.102   1.230   2.169
70237W        W42662  43.353  33.791   4.062
70238W        W42663  10.858   6.927  12.188
70239W        W42664  35.547  11.855  12.361
70240W        W42665  15.167  18.524   1.261
70241W        W42666  27.654  18.588  11.178
70242W        W42667  43.336  17.908  13.992
70243W        W42668   3.174  11.207   0.483
70244W        W42669  24.295  32.274   1.406
70245W        W42670  28.501   9.240  11.213
70246W        W42671  44.831  13.760  12.927
70247W        W42672  31.509   5.735   4.042
70248W        W42673  16.612  15.585   3.587
70249W        W42674  19.573   7.291   2.788
70250W        W42675  36.769  26.009   3.614
70251W        W42676  34.169  21.144   2.283
70252W        W42677  36.976  38.291  13.020
70253W        W42678  20.671  33.833   2.792
70254W        W42679   7.160  16.632  12.056
70255W        W42680   8.149  32.553   0.233
70256W        W42681  29.375  14.907  13.049
70257W        W42682  40.127  33.575  13.616
70258W        W42683  27.169  40.948  10.910
70259W        W42684  24.392  24.001  11.202
70260W        W42685  32.479  40.320  12.095
70261W        W42686  21.998  39.845   0.025
70262W        W42687  41.866   9.623   4.226
70263W        W42688  30.851  11.863  14.044
70264W        W42689  30.337  22.572   2.196
70265W        W42690   7.219  38.539   2.443
70266W        W42691  28.218  39.264   0.917
70267W        W42692  40.193  21.957   2.288
70268W        W42693  23.155   0.199  13.580
70269W        W42694   7.490  37.267  14.855
70270W        W42695   2.022  18.752   2.222
70271W        W42696   5.323  42.282   0.100
70272W        W42697  12.741   9.593  10.420
70273W        W42698  43.498  30.623   0.716
70274W        W42699   2.752  35.906   0.273
70275W        W42700  35.942  12.919   3.288
70276W        W42701  18.645  19.080  14.423
70277W        W42702  22.466   6.412   4.141
70278W        W42703  15.040  29.016  12.062
70279W        W42704   8.381  34.547  12.456
70280W        W42705  28.776  15.473  11.919
70281W        W42706  34.851  25.172   3.706
70282W        W42707   3.860   4.520   3.713
70283W        W42708  38.798  30.617  10.804
70284W        W42709  43.800  12.870   4.839
70285W        W42710  31.661  10.824  12.941
70286W        W42711   9.214  44.932   0.382
70287W        W42712  44.781  21.080   0.461
70288W        W42713  18.379  35.161   2.695
70289W        W42714  29.584   8.535   2.716
70290W        W42715  12.295   5.181   0.966
70291W        W42716  35.752  36.322  13.370
70292W        W42717  41.734   1.280  11.125
70293W        W42718  27.776  40.253  13.333
70294W        W42719  21.065  44.030   3.077
70295W        W42720  39.035  12.387  12.442
70296W        W42721  38.139  34.341   3.650
70297W        W42722  12.575  24.076  11.116
70298W        W42723   4.846  25.487   3.149
70299W        W42724  17.575   6.299  10.259
70300W        W42725   4.924  35.567   1.716
70301W        W42726  37.451  34.506  13.095
70302W        W42727  31.168   0.843   2.402
70303W        W42728  12.610  42.761  13.552
70304W        W42729  11.908  33.350  12.007
70305W        W42730  42.925  10.659  14.358
70306W        W42731   7.407   6.798   1.173
70307W        W42732  33.632  30.796   0.384
70308W        W42733  27.591  19.280  14.489
70309W        W42734   4.678  22.433  12.736
70310W        W42735  44.439  11.566   1.487
70311W        W42736   7.934  36.981  11.092
70312W        W42737  10.817   0.861   0.884
70313W        W42738  36.404   8.570   5.598
70314W        W42739   6.878   4.782  12.001
70315W        W42740   8.925  44.176   5.167
70316W        W42741  44.871  22.895  13.288
70317W        W42742   9.633  43.963  11.780
70318W        W42743  21.609   0.218  12.663
70319W        W42744   8.174   3.220   5.035
70320W        W42745  27.611  38.519  14.030
70321W        W42746  12.286  44.451  11.320
70322W        W42747  22.767  12.640   3.425
70323W        W42748  13.621  39.443   0.386
70324W        W42749  24.628  39.668   2.296
70325W        W42750   7.683   6.802   4.372
70326W        W42751  24.200  36.134   3.533
70327W        W42752  44.725   9.396  12.079
70328W        W42753  41.071  36.230   3.305
70329W        W42754   7.830  20.259   0.963
70330W        W42755  34.993  28.948  13.922
70331W        W42756  15.504   8.922   2.883
70332W        W42757  12.606  27.069  14.914
70333W        W42758  30.310  22.174   5.093
70334W        W42759  11.689   1.768  11.228
70335W        W42760  43.792  37.486   0.070
70336W        W42761  14.286   4.270   1.124
70337W        W42762  42.931   1.759   2.436
70338W        W42763  19.428   7.602   3.216
70339W        W42764   2.465  19.251  14.365
70340W        W42765  40.958   8.203   4.039
70341W        W42766  16.135  23.616   0.374
70342W        W42767  14.534  17.661  12.639
70343W        W42768  21.067  24.160  13.502
70344W        W42769  24.213  21.647   1.874
70345W        W42770  31.947  32.171   0.754
70346W        W42771  24.499  12.732  12.379
70347W        W42772  26.506  11.734  11.894
70348W        W42773  17.149   2.870  11.628
70349W        W42774  27.154  15.359   1.322
70350W        W42775  36.600  19.118  11.015
70351W        W42776   6.153  27.692  11.637
70352W        W42777  15.264  43.656  14.802
70353W        W42778  16.893  10.222  11.807
70354W        W42779  12.571  20.697   4.675
70355W        W42780  27.032   9.611   0.902
70356W        W42781  23.453  23.132   3.402
70357W        W42782   6.992  16.943  13.114
70358W        W42783  22.057  44.968   1.619
70359W        W42784  21.510  35.428  10.511
70360W        W42785  44.315  33.536   2.741
70361W        W42786  32.282  35.234  14.072
70362W        W42787  26.021  24.274  14.319
70363W        W42788  10.480  40.987   1.425
70364W        W42789  16.651  26.568   2.895
70365W        W42790  28.504  40.309  11.591
70366W        W42791  18.192   6.511  14.042
70367W        W42792  17.572  43.814   4.076
70368W        W42793  13.685  12.324  10.718
70369W        W42794  12.376  17.879  13.326
70370W        W42795  34.257   3.906  14.253
70371W        W42796  40.572  26.139   1.667
70372W        W42797  31.605  29.540  13.989
70373W        W42798  25.119  13.931  10.676
70374W        W42799  36.794   2.829   2.808
70375W        W42800  20.239  43.262   1.823
70376W        W42801   1.230   7.431   1.349
70377W        W42802  27.455   1.024  13.751
70378W        W42803  20.606  14.118   2.978
70379W        W42804  35.712  17.412   0.728
70380W        W42805  29.412  27.775   0.524
70381W        W42806  39.460  39.333   3.909
70382W        W42807  17.028  28.884  14.069
70383W        W42808   5.407  17.546   1.226
70384W        W42809  23.629  42.522   2.826
70385W        W42810  27.676  37.177  11.653
70386W        W42811  15.700  20.796  10.544
70387W        W42812  16.696  41.406  14.948
70388W        W42813  33.122  10.928   2.131
70389W        W42814  15.271  38.761   4.980
70390W        W42815  21.173  30.265   3.740
70391W        W42816   0.062  16.967   4.400
70392W        W42817  34.356  27.039   2.868
70393W        W42818  14.908  11.726   1.652
70394W        W42819  39.688  35.093   4.027
70395W        W42820  44.951  26.165  13.492
70396W        W42821  18.684  21.485  10.944
70397W        W42822  30.111  11.405   4.675
70398W        W42823  16.602   4.282  10.927
70399W        W42824   8.388  30.388  11.706
70400W        W42825  28.672  15.560  13.427
70401W        W42826   0.162  39.657  11.258
70402W        W42827  21.197  10.456  10.720
70403W        W42828   8.422  42.054  10.697
70404W        W42829  15.887  41.251   4.521
70405W        W42830   2.779  21.157  11.992
70406W        W42831  41.986  37.547  12.525
70407W        W42832  23.546  16.179   2.231
70408W        W42833  35.669  32.022  14.995
70409W        W42834  31.392  17.644  11.153
70410W        W42835  44.318  27.942   4.552
70411W        W42836  33.005   8.204   3.563
70412W        W42837  37.141  39.380  10.784
70413W        W42838  22.246   8.713  13.946
70414W        W42839   6.235  17.638   0.658
70415W        W42840   8.228   7.730   2.792
70416W        W42841   6.819  19.084   3.698
70417W        W42842   8.649  29.442  13.857
70418W        W42843  36.404   2.284   3.089
70419W        W42844   2.960  24.436  12.485
70420W        W42845  28.037  12.304  12.045
70421W        W42846  19.195  30.527  12.376
70422W        W42847  35.158  20.664   3.835
70423W        W42848   5.253  29.921  10.348
70424W        W42849  13.662  36.523  11.361
70425W        W42850  37.766   0.596  14.209
70426W        W42851  27.730  30.429   4.198
70427W        W42852   7.846  17.058   4.222
70428W        W42853  37.166   3.804   5.263
70429W        W42854  40.265  35.410   2.438
70430W        W42855  12.815   1.387   1.782
70431W        W42856  19.325  22.554  11.727
70432W        W42857  11.569  30.146  11.151
70433W        W42858   6.267  32.371  11.276
70434W        W42859  18.446   0.957   0.857
70435W        W42860  38.111  43.530  11.548
70436W        W42861   9.170  43.957  12.004
70437W        W42862  29.214  39.800  12.551
70438W        W42863  14.906  42.034   1.390
70439W        W42864   6.434  26.256   1.944
70440W        W42865  16.772  16.088  12.603
70441W        W42866   7.285   8.664  10.971
70442W        W42867  26.779   4.682   3.658
70443W        W42868   2.375   6.666   4.266
70444W        W42869  43.537  10.913   4.820
70445W        W42870   8.961  34.515  14.401
70446W        W42871   3.716   0.928  13.107
70447W        W42872  16.146  40.918  13.976
70448W        W42873  32.409  14.093   1.388
70449W        W42874  17.382  28.936   3.713
70450W        W42875  25.071  44.756  11.865
70451W        W42876   3.304  17.661  14.490
70452W        W42877  34.422  41.557  14.364
70453W        W42878  24.979  21.807   4.144
70454W        W42879  21.840  20.616  13.858
70455W        W42880   9.086  17.519   4.518
70456W        W42881   5.351  12.484   0.100
70457W        W42882  22.359  21.037   0.829
70458W        W42883   7.626  35.540   1.436
70459W        W42884  22.515   3.390  13.906
70460W        W42885  16.973  35.601   1.859
70461W        W42886  30.033  29.945  13.428
70462W        W42887   6.945  27.142   1.838
70463W        W42888   1.084  13.185   4.113
70464W        W42889  18.295  41.501  14.337
70465W        W42890  28.846  44.918  10.740
70466W        W42891  44.477   4.875   2.985
70467W        W42892  15.148  13.836  12.287
70468W        W42893  20.992  24.991   3.584
70469W        W42894  35.715  33.280  14.644
70470W        W42895   7.486  17.875   0.401
70471W        W42896  40.957  30.392   3.676
70472W        W42897  35.032  23.242  13.303
70473W        W42898  43.290  19.128  14.954
70474W        W42899   3.551  16.381   2.163
70475W        W42900   7.779  35.882  11.561
70476W        W42901   9.603  33.586   1.796
70477W        W42902  43.093  16.612   2.413
70478W        W42903  39.386  11.215  10.677
70479W        W42904  24.580  43.591  13.580
70480W        W42905  28.164  29.044  10.654
70481W        W42906   7.731  17.650  11.175
70482W        W42907  15.610  37.310   3.753
70483W        W42908  15.931  30.045   3.124
70484W        W42909   3.865  21.003  12.884
70485W        W42910  43.854   5.353   3.937
70486W        W42911  36.619  32.533   3.845
70487W        W42912  27.787  40.855   4.119
70488W        W42913   7.487  35.702  12.441
70489W        W42914  24.941  44.556   1.413
70490W        W42915  30.588  21.288   2.166
70491W        W42916  15.617  37.037   2.155
70492W        W42917  18.978  25.617   2.360
70493W        W42918  35.822   8.182   1.218
70494W        W42919   9.096  21.309   5.084
70495W        W42920   9.983  22.265  13.652
70496W        W42921  28.575  28.169   0.451
70497W        W42922  21.486  23.686  12.662
70498W        W42923  44.846   7.462   3.870
70499W        W42924  14.091  34.143  14.655
70500W        W42925  36.619  23.217  14.513
70501W        W42926  29.523   4.515  12.515
70502W        W42927  44.652   6.340   0.315
70503W        W42928  26.431  26.604  12.801
70504W        W42929  25.628  16.766   1.278
70505W        W42930   5.690  33.839  13.516
70506W        W42931   1.194  36.420  12.979
70507W        W42932  14.763   2.243  14.001
70508W        W42933  30.881  35.088   3.662
70509W        W42934  24.234   5.228   0.913
70510W        W42935  39.602  15.571   0.991
70511W        W42936  30.176  41.830  11.343
70512W        W42937  36.490  23.894  10.667
70513W        W42938  36.507  38.052  12.365
70514W        W42939  42.352  40.160   4.947
70515W        W42940   6.330   0.285  10.357
70516W        W42941   3.011  29.047   1.046
70517W        W42942  24.024  33.097   3.652
70518W        W42943  14.175  32.558  11.998
70519W        W42944  11.225  22.322  14.081
70520W        W42945  42.257  26.543   3.274
70521W        W42946   5.737  23.762   1.653
70522W        W42947   8.176   2.285  13.988
70523W        W42948  37.949  28.277  12.107
70524W        W42949   7.625  36.613   3.800
70525W        W42950  11.225   1.674  14.389
70526W        W42951  13.358   9.907   4.700
70527W        W42952   8.476  39.128  11.032
70528W        W42953  29.400  39.736   1.590
70529W        W42954  18.230  26.213  11.224
70530W        W42955  13.327  19.192  13.143
70531W        W42956  18.683  27.898  13.942
70532W        W42957  29.882   0.455  14.886
70533W        W42958  19.001  14.612  13.110
70534W        W42959  24.738  12.843   3.082
70535W        W42960  12.229  33.656  14.812
70536W        W42961  17.062  31.626   3.688
70537W        W42962  35.121  19.704   3.800
70538W        W42963   3.385  24.443   0.890
70539W        W42964   5.948  37.983   0.802
70540W        W42965   6.638  15.614   2.411
70541W        W42966  37.842   0.736   1.577
70542W        W42967  26.141  44.390   3.627
70543W        W42968  42.350  27.381  10.577
70544W        W42969  13.592  39.996  12.521
70545W        W42970  35.000  38.525  10.539
70546W        W42971  32.857  33.934   1.441
70547W        W42972  14.328  42.517  11.635
70548W        W42973   1.767  43.703   2.172
70549W        W42974  29.886  35.029   3.239
70550W        W42975   9.292   1.974   4.658
70551W        W42976  24.654   7.966   0.289
70552W        W42977  29.188  40.796   3.035
70553W        W42978  39.025  40.222   4.063
70554W        W42979   1.924  10.691  14.727
70555W        W42980   7.109  43.505  12.024
70556W        W42981  37.782  41.103   0.719
70557W        W42982  38.841  12.890  13.443
70558W        W42983   3.450  27.493  10.668
70559W        W42984   6.283  10.176  13.364
70560W        W42985  16.806   8.840   3.181
70561W        W42986  16.023  38.578   1.765
70562W        W42987  35.599  35.411  10.649
70563W        W42988  28.532  21.817   1.877
70564W        W42989   5.492   3.061   3.142
70565W        W42990   2.779  28.548   3.635
70566W        W42991  36.922  31.820   4.140
70567W        W42992  18.478  17.177  11.383
70568W        W42993  31.985  38.546   3.346
70569W        W42994  41.721  20.141   3.327
70570W        W42995  35.067  12.170   4.160
70571W        W42996  34.670  31.200   0.361
70572W        W42997  41.843  12.043   1.259
70573W        W42998  32.556  44.859  11.200
70574W        W42999   0.049   7.837  13.378
70575W        W43000  35.713  15.006  14.827
70576W        W43001  35.383  25.232  14.401
70577W        W43002  14.008  24.758   4.597
70578W        W43003  31.519  22.839  10.880
70579W        W43004  35.516  16.282   3.218
70580W        W43005  18.020  39.778   2.234
70581W        W43006   7.826  14.675  13.815
70582W        W43007  22.689  33.264   4.790
70583W        W43008  38.072  12.586  12.455
70584W        W43009  26.022  26.757  10.854
70585W        W43010  39.512  15.260  11.613
70586W        W43011  37.741   4.312   2.394
70587W        W43012  24.538  29.962  12.876
70588W        W43013   9.920  15.671  13.396
70589W        W43014  20.851  31.659  13.947
70590W        W43015   5.163  43.404   4.606
70591W        W43016  29.099  19.195   0.311
70592W        W43017  17.249   7.159  12.857
70593W        W43018  37.838  39.263  12.454
70594W        W43019   5.940  30.843   4.040
70595W        W43020   3.182   8.458  14.892
70596W        W43021  14.667  30.393  12.004
70597W        W43022  16.811  14.766  11.369
70598W        W43023  23.697   9.947   0.328
70599W        W43024  28.065  20.502   1.834
70600W        W43025  27.610  44.012   1.993
70601W        W43026   5.104  25.152  13.081
70602W        W43027  26.513   9.410   1.272
70603W        W43028  18.029  42.038   3.568
70604W        W43029  36.911  39.153  13.809
70605W        W43030   8.002  33.182  13.792
70606W        W43031  39.512  41.801  10.705
70607W        W43032  33.514  42.747   1.263
70608W        W43033  42.425  40.219  13.888
70609W        W43034  23.876  41.425   1.088
70610W        W43035  34.191  15.604  13.475
70611W        W43036  31.201  25.274  10.765
70612W        W43037  35.007  11.208   3.687
70613W        W43038   6.686  32.889   1.735
70614W        W43039  40.414  41.045  12.490
70615W        W43040  40.448   6.955   1.205
70616W        W43041  12.877  41.306   3.337
70617W        W43042  31.106  41.014   0.795
70618W        W43043   7.107  17.223  13.549
70619W        W43044   6.503  43.482   0.809
70620W        W43045  22.522  32.236   2.201
70621W        W43046  12.880   1.439   2.898
70622W        W43047  23.579  10.944   0.393
70623W        W43048  30.387  16.777   3.682
70624W        W43049  37.445  21.111   4.251
70625W        W43050   9.310  35.602  13.010
70626W        W43051  31.593  11.168  12.567
70627W        W43052  22.177  10.177  12.992
70628W        W43053  11.436  37.960   2.856
70629W        W43054  10.326  27.444  13.331
70630W        W43055   9.910  14.213  13.583
70631W        W43056  24.726   4.830  11.428
70632W        W43057   2.165  39.913  10.714
70633W        W43058  20.166  16.113  11.788
70634W        W43059   9.343  12.166   3.285
70635W        W43060  27.030   6.771  12.086
70636W        W43061  30.630  22.955  13.856
70637W        W43062  31.796  40.465   4.678
70638W        W43063  26.280  15.555  14.476
70639W        W43064  40.835  28.982   0.353
70640W        W43065  27.893  11.402  13.016
70641W        W43066  44.203   1.014  10.292
70642W        W43067  29.584  34.025   1.293
70643W        W43068  44.216  40.946  11.962
70644W        W43069   7.516  18.880  12.792
70645W        W43070   1.864   6.283  10.686
70646W        W43071  28.193  15.259  14.139
70647W        W43072  39.360   0.736  10.462
70648W        W43073  30.824   2.414   1.699
70649W        W43074  32.041  16.775   4.616
70650W        W43075  19.848  11.741   4.759
70651W        W43076  10.360  22.001   3.632
70652W        W43077  44.866   0.361   2.744
70653W        W43078  37.921  38.403   4.307
70654W        W43079  36.056   5.241  14.341
70655W        W43080  39.515  21.153   1.662
70656W        W43081  39.995   4.337  13.035
70657W        W43082  24.430  33.949   0.716
70658W        W43083   6.418  44.763   4.148
70659W        W43084   2.619  13.698  14.355
70660W        W43085  27.204  29.835  11.774
70661W        W43086  35.191   2.873  13.593
70662W        W43087  36.272   8.801   3.448
70663W        W43088  36.755  15.718  12.656
70664W        W43089  33.198  32.899  14.251
70665W        W43090  21.048  38.966   2.289
70666W        W43091  10.299  29.173   3.684
70667W        W43092  38.906  29.025  10.519
70668W        W43093  36.062  24.773   2.188
70669W        W43094  11.409  40.837  10.481
70670W        W43095   3.697  24.565   0.476
70671W        W43096  30.379  16.008  13.865
70672W        W43097  44.802  10.133  13.961
70673W        W43098  20.695  36.487  13.745
70674W        W43099   5.780   9.248   2.098
70675W        W43100  44.247  26.566  10.198
70676W        W43101  16.605   2.456   1.853
70677W        W43102   1.659  36.348  12.077
70678W        W43103  12.215   3.935  12.694
70679W        W43104  18.362   7.301   2.162
70680W        W43105   9.886   3.889   4.647
70681W        W43106  14.129  25.016  12.596
70682W        W43107  11.299  11.093  12.474
70683W        W43108  31.543   2.406  14.011
70684W        W43109   9.452   4.777   0.261
70685W        W43110  24.620  27.161   0.294
70686W        W43111   7.785  16.150   1.340
70687W        W43112   6.928  10.382   2.872
70688W        W43113  26.436   7.273  11.054
70689W        W43114  14.739  15.315  13.347
70690W        W43115  22.241  35.809   2.000
70691W        W43116   8.970   4.042   0.449
70692W        W43117   4.500   5.927  12.125
70693W        W43118  24.767  27.609   0.494
70694W        W43119  14.909  23.013   1.801
70695W        W43120  19.370  11.394  11.128
70696W        W43121  43.902   3.886  14.398
70697W        W43122   4.142   9.588   1.737
70698W        W43123   9.553   6.788  14.806
70699W        W43124  36.184  30.205   0.923
70700W        W43125  26.201   2.701  10.716
70701W        W43126  25.205  18.564   1.939
70702W        W43127  33.824  32.639   0.976
70703W        W43128  18.630   6.083   0.886
70704W        W43129  31.983  38.857   0.544
70705W        W43130  44.360   3.765  13.617
70706W        W43131  22.284  31.681  11.588
70707W        W43132  27.657  10.754  13.846
70708W        W43133  36.391  13.429   4.718
70709W        W43134  28.244  17.053  10.676
70710W        W43135  23.787  30.022   0.207
70711W        W43136  23.979  26.749  10.657
70712W        W43137   1.417  34.198   3.816
70713W        W43138  40.485  41.870   1.374
70714W        W43139  14.684  30.454   4.140
70715W        W43140  26.291  25.406   0.882
70716W        W43141  15.805  10.379   1.799
70717W        W43142  39.472  35.009   0.194
70718W        W43143  35.273  27.477  13.915
70719W        W43144  39.800  42.782   4.852
70720W        W43145  26.246  26.157   2.863
70721W        W43146  30.426  38.076  10.596
70722W        W43147  21.784  41.707   2.364
70723W        W43148  28.846  35.332  10.699
70724W        W43149  44.914   9.737  10.588
70725W        W43150  40.399  29.473   3.272
70726W        W43151  20.081  36.946   1.164
70727W        W43152  42.222  30.949   3.540
70728W        W43153  14.899   2.347   0.341
70729W        W43154  42.161   9.112  12.740
70730W        W43155  12.824  19.560   1.239
70731W        W43156   7.489  19.177   0.427
70732W        W43157   6.673  11.492  10.669
70733W        W43158  24.479  13.898  13.852
70734W        W43159  13.190  23.742   0.444
70735W        W43160  44.273  32.981   3.219
70736W        W43161  39.800  42.814   0.708
70737W        W43162  16.115  23.880  13.789
70738W        W43163  18.779  18.555  11.629
70739W        W43164  12.199  28.165   3.136
70740W        W43165  11.795  32.136  11.732
70741W        W43166  16.794   6.881  12.797
70742W        W43167  14.644  24.556   2.372
70743W        W43168   4.228  27.546   1.172
70744W        W43169  33.395  23.565  12.851
70745W        W43170  10.872  40.819  11.923
70746W        W43171   6.528   0.436  12.329
70747W        W43172   6.763  25.977   1.008
70748W        W43173   4.421  21.748   1.376
70749W        W43174   2.852  32.953  12.863
70750W        W43175  40.356  22.468  14.378
70751W        W43176  42.841   5.286  14.050
70752W        W43177  24.233  20.259  12.449
70753W        W43178  26.575  10.860  10.338
70754W        W43179  28.869   0.794  12.764
70755W        W43180  44.634  29.856   4.724
70756W        W43181  24.631  38.066  14.501
70757W        W43182  13.202   4.401  10.959
70758W        W43183  44.303  10.290  14.541
70759W        W43184  17.176   2.487  11.075
70760W        W43185  40.396  18.148  14.465
70761W        W43186  41.631  29.074   3.330
70762W        W43187  11.769  44.905   4.248
70763W        W43188  26.479  14.635  14.797
70764W        W43189  36.848  37.048  11.007
70765W        W43190  21.725  11.359  12.321
70766W        W43191  29.436  30.046   4.035
70767W        W43192   0.527  40.387   3.231
70768W        W43193  33.590   0.675   2.886
70769W        W43194  14.970  12.667  13.958
70770W        W43195  38.987   3.733   4.585
70771W        W43196  20.210   1.726   2.520
70772W        W43197  10.382  40.945  12.069
70773W        W43198  40.101   6.826  14.038
70774W        W43199  38.190   5.644   2.123
70775W        W43200  24.480  18.208  14.837
70776W        W43201  33.772   0.255   2.210
70777W        W43202   2.175  26.239   2.209
70778W        W43203  22.039  21.399  10.658
70779W        W43204  10.089   7.206   0.226
70780W        W43205  36.953  42.719  11.626
70781W        W43206  26.282  43.331  10.749
70782W        W43207  34.051  10.888   2.339
70783W        W43208   0.792  32.228   1.389
70784W        W43209   5.329  39.861  11.053
70785W        W43210   3.289   5.199   3.785
70786W        W43211  17.736  40.286  12.645
70787W        W43212  24.689  25.179   2.855
70788W        W43213  21.274   1.446   3.438
70789W        W43214  23.487  37.049  11.164
70790W        W43215  31.069  33.106  13.124
70791W        W43216  18.135  14.058   4.842
70792W        W43217  44.413   4.457   3.813
70793W        W43218   4.484  35.071  10.682
70794W        W43219  13.266  37.789  11.468
70795W        W43220   4.609   0.328   4.123
70796W        W43221  24.982  14.736  13.356
70797W        W43222  43.763  34.206   2.186
70798W        W43223   8.959  29.529  10.305
70799W        W43224  33.998   9.989   0.744
70800W        W43225  24.619   0.811  13.913
70801W        W43226  39.516  43.758   2.263
70802W        W43227  26.687  23.690  12.157
70803W        W43228   9.738   1.806  11.012
70804W        W43229  32.491   8.661   2.321
70805W        W43230  34.040  42.803   0.317
70806W        W43231  17.184  38.540   4.194
70807W        W43232   4.435  14.431   3.579
70808W        W43233  15.729  38.816  12.685
70809W        W43234  35.320  17.757  11.975
70810W        W43235   9.123  37.394   0.349
70811W        W43236  18.345  17.302  12.348
70812W        W43237  44.349  15.604   0.259
70813W        W43238   7.422   4.614  11.261
70814W        W43239  19.739  35.833  13.075
70815W        W43240  37.076   0.079   4.875
70816W        W43241  43.321  34.065   9.387
70817W        W43242   0.080  31.942  13.902
70818W        W43243  15.092  23.067  12.629
70819W        W43244   5.321   9.800   2.704
70820W        W43245   0.089  25.465   3.175
70821W        W43246  34.578  39.911  13.550
70822W        W43247  15.646  13.204   1.952
70823W        W43248  22.295  16.821  12.951
70824W        W43249  26.611  27.933   4.814
70825W        W43250  39.508  13.796   0.327
70826W        W43251  18.190  27.641  12.554
70827W        W43252  31.507  19.454  14.783
70828W        W43253  23.721  35.543  14.918
70829W        W43254  14.092  17.494   1.708
70830W        W43255  12.125  36.911  14.781
70831W        W43256  11.191  36.313   2.901
70832W        W43257  14.214  44.666   0.235
70833W        W43258   8.702  23.625  10.420
70834W        W43259  36.421  36.906   3.765
70835W        W43260   7.415   9.777   3.440
70836W        W43261  43.327   5.293   3.982
70837W        W43262  16.408   3.809  10.753
70838W        W43263  36.470   0.196  13.326
70839W        W43264   3.874  13.493   0.906
70840W        W43265  11.129   8.654  14.139
70841W        W43266  31.138  36.403   4.318
70842W        W43267  13.388  22.500  10.152
70843W        W43268  39.007   0.403   1.990
70844W        W43269  25.389  37.532  14.291
70845W        W43270   6.401  10.312   0.178
70846W        W43271  41.818  33.204  13.414
70847W        W43272  15.709  43.234  12.029
70848W        W43273  39.066  12.168  12.904
70849W        W43274  37.338  22.303   3.957
70850W        W43275  23.214  10.649   5.088
70851W        W43276  14.651  17.261   4.612
70852W        W43277  25.374  35.905   4.103
70853W        W43278  13.806  21.153   0.528
70854W        W43279  41.536   6.636  13.104
70855W        W43280  17.823   6.100  14.036
70856W        W43281  15.873  30.642   0.075
70857W        W43282  36.634   6.765  11.291
70858W        W43283  40.759   4.206  12.571
70859W        W43284  41.580  28.582   1.831
70860W        W43285  43.360  22.524   1.153
70861W        W43286   9.774   4.851  14.379
70862W        W43287  28.263  35.005   2.164
70863W        W43288  29.878  12.130  12.872
70864W        W43289  22.573  24.620  12.988
70865W        W43290   5.858  27.066  13.501
70866W        W43291   0.978  16.710   1.546
70867W        W43292   5.766  34.321  11.751
70868W        W43293  21.121  37.281   4.262
70869W        W43294  34.094   4.986  11.526
70870W        W43295  43.036  29.387  11.121
70871W        W43296  37.896  21.801  11.050
70872W        W43297  16.154  40.131   0.295
70873W        W43298  24.719  35.188   2.283
70874W        W43299   9.962  29.054  13.982
70875W        W43300  42.651  17.365   1.842
70876W        W43301   3.682   3.439  14.295
70877W        W43302   1.858  34.338   4.069
70878W        W43303  12.076  34.891  14.993
70879W        W43304  38.935  35.790  10.774
70880W        W43305  19.794  10.789  10.192
70881W        W43306  13.102  32.593   0.852
70882W        W43307   3.453  24.554  10.736
70883W        W43308   8.788  16.763  14.455
70884W        W43309  29.740  32.898   3.650
70885W        W43310  13.231  20.399  11.447
70886W        W43311  12.321  10.862  12.014
70887W        W43312  29.611   1.025  12.081
70888W        W43313  29.111   5.882   1.332
70889W        W43314  10.303   5.735   4.540
70890W        W43315  22.101  35.906   2.943
70891W        W43316   6.715   0.307   1.577
70892W        W43317  16.316   8.286   4.334
70893W        W43318  13.062  12.083   2.226
70894W        W43319  35.106  43.207   2.558
70895W        W43320  14.276  43.319   2.780
70896W        W43321  32.021  14.408   3.237
70897W        W43322  38.302  31.059  13.908
70898W        W43323  35.066  29.964  10.923
70899W        W43324  19.643  33.555   3.863
70900W        W43325  42.920   0.007  12.605
70901W        W43326  18.499   4.088  14.664
70902W        W43327   0.808   9.660  14.848
70903W        W43328  31.019  19.991   0.822
70904W        W43329  19.075   7.144   4.589
70905W        W43330  23.025  37.833   4.655
70906W        W43331  36.489  32.505   0.857
70907W        W43332  23.062  30.210  14.315
70908W        W43333  32.972  16.191   0.009
70909W        W43334  31.767  21.794  11.401
70910W        W43335  24.620  23.706   4.266
70911W        W43336  12.358  33.625   0.328
70912W        W43337  35.069  32.141  10.665
70913W        W43338   4.691   3.379  11.002
70914W        W43339  13.491  44.098   5.006
70915W        W43340  11.198   2.621   4.633
70916W        W43341   6.149  12.231   4.886
70917W        W43342  22.634  28.050  11.609
70918W        W43343  28.591   0.756   4.537
70919W        W43344  34.103  32.814  11.122
70920W        W43345  24.754  35.995   2.675
70921W        W43346  19.682  24.468   2.447
70922W        W43347  40.754   0.969  12.455
70923W        W43348  25.689   2.206  13.139
70924W        W43349   9.351  11.144  13.369
70925W        W43350  32.729  37.508   0.811
70926W        W43351   8.911  22.525   0.022
70927W        W43352  43.287   9.412   0.644
70928W        W43353  20.733  15.667  12.457
70929W        W43354  19.923   2.281   3.650
70930W        W43355  10.188   0.531  11.084
70931W        W43356  23.487  12.377   4.550
70932W        W43357   5.281  10.487  13.641
70933W        W43358  29.750  13.649   2.863
70934W        W43359  41.101   2.365  13.434
70935W        W43360   0.331   0.150  12.470
70936W        W43361  32.973   6.146   3.786
70937W        W43362  44.420  37.389   4.174
70938W        W43363  44.928  33.322  12.323
70939W        W43364  19.537  30.225   0.550
70940W        W43365   6.923  23.018  12.979
70941W        W43366  10.832  31.022   4.515
70942W        W43367  31.913   2.000  13.376
70943W        W43368  17.527  37.354  11.630
70944W        W43369  20.289  14.691  11.487
70945W        W43370  35.393  39.600   1.489
70946W        W43371  40.610  42.375   0.765
70947W        W43372  43.489   8.187  11.347
70948W        W43373  23.870  37.463  14.002
70949W        W43374   4.253   6.963   3.170
70950W        W43375  28.993  29.822   1.896
70951W        W43376  31.934  37.999   3.662
70952W        W43377  24.046   2.650  13.637
70953W        W43378  38.469   7.766  10.309
70954W        W43379  21.736  10.222  11.515
70955W        W43380  44.459  30.448   0.363
70956W        W43381  20.754  37.144   2.360
70957W        W43382  19.026  44.870   3.705
70958W        W43383  24.004  28.931  11.518
70959W        W43384  21.263  16.674  11.167
70960W        W43385  39.780  36.931  13.321
70961W        W43386   7.817  43.767  10.442
70962W        W43387   6.689  16.858   1.680
70963W        W43388  26.538  15.741   3.020
70964W        W43389  29.473  18.783  13.002
70965W        W43390  29.005  39.361  12.200
70966W        W43391  10.810  38.705  10.059
70967W        W43392  12.754  24.978   1.283
70968W        W43393  11.811   5.578   2.796
70969W        W43394  20.782  43.146  13.580
70970W        W43395   3.182  21.121  11.610
70971W        W43396  43.092  14.097  12.550
70972W        W43397  11.224   9.141  12.909
70973W        W43398  10.884  24.601   0.880
70974W        W43399  34.130  19.736  10.501
70975W        W43400  25.651  40.749   3.250
70976W        W43401  32.205  10.832   1.499
70977W        W43402   4.406  32.549   0.999
70978W        W43403  25.252  18.268   1.141
70979W        W43404  22.242  43.262   2.875
70980W        W43405  38.276   2.400   1.767
70981W        W43406  19.561  10.642  14.989
70982W        W43407  16.102  27.092  14.250
70983W        W43408  20.185   0.310  14.395
70984W        W43409  44.396  21.037  10.592
70985W        W43410   9.406  21.119   1.696
70986W        W43411  39.292  14.934   0.482
70987W        W43412  25.578   3.989  12.568
70988W        W43413  34.937  32.809   4.872
70989W        W43414  20.750  20.133   1.920
70990W        W43415  11.549  36.845  13.949
70991W        W43416  30.966  41.582  12.099
70992W        W43417  39.340  25.531  11.949
70993W        W43418  30.179  29.085   2.828
70994W        W43419  38.065  43.383   1.618
70995W        W43420  20.763  15.728   1.172
70996W        W43421   8.871  10.824  13.737
70997W        W43422  31.415  42.513   2.400
70998W        W43423   2.725  43.035   0.003
70999W        W43424  41.403  19.910   9.873
71000W        W43425  10.728  16.729  14.397
71001W        W43426  19.042   2.062  12.099
71002W        W43427  21.112  36.140   0.849
71003W        W43428  39.397   4.994   2.635
71004W        W43429   5.788  35.581  11.933
71005W        W43430  44.401  24.969  13.852
71006W        W43431   9.650  11.018  14.200
71007W        W43432  22.633  26.229  10.542
71008W        W43433  30.120  34.112   3.308
71009W        W43434  41.263  28.534   4.561
71010W        W43435   5.615  37.492   0.154
71011W        W43436  21.605  12.148  11.350
71012W        W43437   5.221   3.704   1.401
71013W        W43438  38.244  12.591   3.036
71014W        W43439  24.393  19.194   4.792
71015W        W43440  21.262  26.134  12.473
71016W        W43441  39.546  25.788   0.843
71017W        W43442   4.380  28.131   4.005
71018W        W43443   2.755   9.420  12.065
71019W        W43444  29.277  44.601  14.930
71020W        W43445  19.512   0.857   0.781
71021W        W43446  31.563  38.908   2.351
71022W        W43447  40.265   5.738  14.466
71023W        W43448  38.386  23.762  13.442
71024W        W43449   2.730  15.769  13.716
71025W        W43450  29.675   5.789   4.597
71026W        W43451  41.368  38.950  13.036
71027W        W43452  11.850  32.078   2.982
71028W        W43453  43.046  20.389  13.292
71029W        W43454  39.836  13.790   2.809
71030W        W43455  13.353  28.944   4.508
71031W        W43456  37.037  15.278  14.836
71032W        W43457   4.129  22.487   0.332
71033W        W43458  39.080  22.479   4.285
71034W        W43459  16.666   1.032  14.528
71035W        W43460  13.310   8.925  12.555
71036W        W43461  16.717  32.556   3.164
71037W        W43462  44.718  38.711   0.767
71038W        W43463  19.954  24.319  11.211
71039W        W43464  18.133  36.342  13.779
71040W        W43465  27.636  39.090  11.195
71041W        W43466  32.635  33.923  10.622
71042W        W43467  19.463  13.816   1.411
71043W        W43468  32.151  22.670  12.839
71044W        W43469   0.660  19.804  10.258
71045W        W43470   5.407  28.214   3.571
71046W        W43471  37.112  44.343   4.619
71047W        W43472  41.009  10.731   0.981
71048W        W43473  23.031  10.732  10.581
71049W        W43474  28.664  39.541   4.212
71050W        W43475  10.222   9.606  13.716
71051W        W43476  14.892   3.383  12.493
71052W        W43477   5.229  13.097   2.594
71053W        W43478   7.410   7.864   0.763
71054W        W43479  30.865  44.811   4.176
71055W        W43480  30.574  28.262   1.847
71056W        W43481   0.347  12.265   4.850
71057W        W43482  41.094  37.269   0.736
71058W        W43483  21.788  32.021   3.033
71059W        W43484  32.042  22.581  11.968
71060W        W43485  15.354  32.112  12.454
71061W        W43486  32.754  26.072   3.285
71062W        W43487   3.439  42.538   4.025
71063W        W43488  43.010  17.141   5.108
71064W        W43489  36.875  30.753   3.530
71065W        W43490   6.080  28.500  14.784
71066W        W43491  21.280  10.652   0.364
71067W        W43492  25.148  15.959   4.159
71068W        W43493  36.154  20.568   3.811
71069W        W43494  17.562  39.545  13.598
71070W        W43495  13.323  44.415  12.988
71071W        W43496  16.384  23.125   4.672
71072W        W43497  21.024  36.482   3.700
71073W        W43498   3.441  10.973   1.677
71074W        W43499  34.357  27.672   3.608
71075W        W43500   9.270  10.597  13.463
71076W        W43501  10.257  25.206   2.920
71077W        W43502  10.933  42.926   0.991
71078W        W43503  43.324  30.039   4.908
71079W        W43504  27.540  14.228   2.186
71080W        W43505   0.972  23.712  14.410
71081W        W43506   7.186  34.852  11.158
71082W        W43507  21.330  37.416   0.265
71083W        W43508  36.478  37.883   0.995
71084W        W43509  33.852   0.322  11.093
71085W        W43510  25.677   1.245   0.882
71086W        W43511   7.850  33.144  11.264
71087W        W43512   0.957  29.728   1.788
71088W        W43513  27.520  35.505  12.063
71089W        W43514  34.087  16.755   3.828
71090W        W43515  19.419  19.228  13.214
71091W        W43516  35.957  27.685   3.970
71092W        W43517  26.396  33.154   0.448
71093W        W43518  28.870  31.596   1.182
71094W        W43519  18.254   9.352  14.400
71095W        W43520  18.479  40.847   1.262
71096W        W43521  33.112   9.594  14.959
71097W        W43522  16.187  22.883  13.414
71098W        W43523  18.671   9.705  12.946
71099W        W43524  33.508  23.294   4.413
71100W        W43525   6.345   4.500   2.814
71101W        W43526   1.450   1.384  11.240
71102W        W43527  16.102  25.230  13.292
71103W        W43528  26.575  34.075   2.952
71104W        W43529   0.997  10.346   4.945
71105W        W43530  41.865  32.448   2.637
71106W        W43531  17.245  27.644  13.824
71107W        W43532  25.038   2.374   3.299
71108W        W43533   8.606  31.854  12.954
71109W        W43534  28.031  16.673  11.968
71110W        W43535  31.208  39.670   9.691
71111W        W43536  11.841  44.378  13.988
71112W        W43537  24.952  26.157   4.028
71113W        W43538   5.379  14.742  12.851
71114W        W43539  10.353  21.882  10.124
71115W        W43540   8.993  18.274  11.306
71116W        W43541  44.914   5.181   4.374
71117W        W43542  41.306  22.049  13.592
71118W        W43543  10.721  37.551  10.619
71119W        W43544  41.825  41.390   0.411
71120W        W43545  42.007  32.960  12.058
71121W        W43546  12.263  24.538  11.538
71122W        W43547   2.668  38.484   3.958
71123W        W43548  17.294  21.655  12.135
71124W        W43549  39.244  19.252   3.675
71125W        W43550  13.313  44.172  12.062
71126W        W43551  43.138  34.873  11.994
71127W        W43552  28.660  22.319   1.882
71128W        W43553   4.851  24.166   3.693
71129W        W43554   1.425   6.882  13.869
71130W        W43555  25.147  21.058   4.485
71131W        W43556  34.099   0.329   4.142
71132W        W43557  19.641   5.381  11.900
71133W        W43558  39.254  19.482  11.719
71134W        W43559   2.425  35.194   3.605
71135W        W43560   5.317  15.604   2.753
71136W        W43561  33.172  24.454  13.267
71137W        W43562  23.273  36.767   3.236
71138W        W43563  26.221  36.455  12.915
71139W        W43564  27.409   2.531  12.964
71140W        W43565  42.980  38.514  14.411
71141W        W43566  10.212  13.071   1.304
71142W        W43567  21.164   3.284   0.149
71143W        W43568   8.851  20.623   2.748
71144W        W43569  29.684  36.936   2.204
71145W        W43570  26.162  19.538  12.954
71146W        W43571  14.384  30.726   1.088
71147W        W43572  44.717  29.690  13.436
71148W        W43573   3.586  11.171  13.833
71149W        W43574  18.739   8.274  13.782
71150W        W43575  10.244  23.309  14.458
71151W        W43576   2.903  21.483   2.162
71152W        W43577  13.308   2.650   4.703
71153W        W43578  30.481  41.818   3.116
71154W        W43579  27.641  19.985  13.975
71155W        W43580   7.194   7.442   4.542
71156W        W43581   0.310  28.086  12.954
71157W        W43582  29.019   7.960   4.617
71158W        W43583  33.397  10.745   1.726
71159W        W43584  37.804  12.337  11.099
71160W        W43585   0.207   6.781   0.912
71161W        W43586  12.147  43.473  12.437
71162W        W43587  10.818  36.869  14.441
71163W        W43588  24.916  41.683   4.100
71164W        W43589  17.394   7.886   2.271
71165W        W43590  42.277  27.417   0.345
71166W        W43591   4.874  44.878  11.054
71167W        W43592   7.637  42.051  14.842
71168W        W43593  30.117   6.939  14.009
71169W        W43594  34.926  14.089   4.986
71170W        W43595  36.218  25.523   1.750
71171W        W43596  43.971  38.480  13.527
71172W        W43597  23.292  19.170   0.374
71173W        W43598  37.947   0.911   3.851
71174W        W43599  18.031   8.395  12.172
71175W        W43600  25.723  12.221  13.209
71176W        W43601  14.894  20.176   3.621
71177W        W43602  30.942  17.612   3.713
71178W        W43603  34.579  27.764  13.044
71179W        W43604   6.382  43.945  13.731
71180W        W43605  28.166  29.829  10.233
71181W        W43606  14.699   5.483  13.475
71182W        W43607  43.499  29.671   0.912
71183W        W43608  14.541   4.955   4.346
71184W        W43609  32.042  34.758   3.165
71185W        W43610   2.517   1.360  10.313
71186W        W43611   6.888  15.970  11.202
71187W        W43612  25.050   7.904   3.319
71188W        W43613  20.108  20.294   4.228
71189W        W43614  19.253  25.165  10.508
71190W        W43615   2.258  26.433   1.727
71191W        W43616  13.171  31.055   3.808
71192W        W43617  16.771   5.361  13.487
71193W        W43618  42.542  25.453   0.340
71194W        W43619  17.702  32.688   4.238
71195W        W43620  19.756  19.033   1.750
71196W        W43621   0.774   2.791  10.943
71197W        W43622   4.814  36.428  10.628
71198W        W43623   3.682  25.937  12.702
71199W        W43624  38.614  30.663  13.856
71200W        W43625  44.981  19.974  12.885
71201W        W43626  27.551  35.057  14.774
71202W        W43627  13.730  13.259  13.954
71203W        W43628   0.969   8.222  11.843
71204W        W43629  42.918  28.210   5.101
71205W        W43630   8.997  27.822  11.141
71206W        W43631   6.733  29.699   3.358
71207W        W43632  23.222  24.674   0.276
71208W        W43633  35.618  20.501  13.889
71209W        W43634  18.332  20.993  14.835
71210W        W43635  12.192  39.882   4.410
71211W        W43636  40.463   1.683  10.861
71212W        W43637  34.769   8.843   1.742
71213W        W43638  15.144  17.592  14.901
71214W        W43639  33.042  10.416   0.291
71215W        W43640  13.257  22.202   4.015
71216W        W43641  20.227  20.287   2.340
71217W        W43642  23.996  28.439   4.113
71218W        W43643   3.736  25.552   1.871
71219W        W43644   8.766   7.940  13.529
71220W        W43645  26.265  29.659  11.949
71221W        W43646  31.352  38.643   3.918
71222W        W43647  15.839   0.473  13.257
71223W        W43648  25.175  28.905   4.654
71224W        W43649  12.886  18.764   2.924
71225W        W43650  11.364  41.465   1.408
71226W        W43651  20.118  15.778   3.318
71227W        W43652  39.693   1.437  10.444
71228W        W43653   4.174   5.099   0.400
71229W        W43654   1.864  21.402  12.613
71230W        W43655  35.360  20.543   2.269
71231W        W43656   4.657   9.677  12.006
71232W        W43657   6.325   8.215  14.346
71233W        W43658  20.823  42.006   0.646
71234W        W43659  38.374  16.828  12.985
71235W        W43660  34.514  26.937  14.962
71236W        W43661  26.013  29.949   4.193
71237W        W43662  38.378  27.390  13.438
71238W        W43663  25.991  22.204   1.896
71239W        W43664   2.871  20.695   4.410
71240W        W43665   0.864  30.987   5.268
71241W        W43666  11.108   1.289   0.965
71242W        W43667  24.030  38.353  13.732
71243W        W43668   6.784   6.244  12.797
71244W        W43669  30.475   6.434   4.775
71245W        W43670  35.121  40.667  13.640
71246W        W43671  33.564  12.829  12.450
71247W        W43672  24.340  30.979   2.433
71248W        W43673   8.180  43.439   4.625
71249W        W43674  19.035   8.385   4.262
71250W        W43675  40.533  13.664   0.384
71251W        W43676  44.064  12.986  11.637
71252W        W43677  43.340  21.755   4.133
71253W        W43678  44.671  39.322   4.078
71254W        W43679   9.103  12.642  12.157
71255W        W43680  41.187  27.493   4.180
71256W        W43681  23.466  11.096   2.723
71257W        W43682   2.468  33.688  10.200
71258W        W43683  44.934  19.579   0.664
71259W        W43684  42.095  31.989   3.056
71260W        W43685   7.296  10.771  14.424
71261W        W43686   0.315  25.946  11.078
71262W        W43687  24.646  24.209   4.487
71263W        W43688  33.973  37.576   1.294
71264W        W43689   6.846  32.402  11.480
71265W        W43690  26.935  32.405   1.208
71266W        W43691  19.624  13.329  14.512
71267W        W43692  33.694  21.807  11.124
71268W        W43693  44.495  38.385  13.480
71269W        W43694   2.857  15.220  13.031
71270W        W43695  31.444  16.881   0.447
71271W        W43696  29.546  29.130   4.530
71272W        W43697  39.607   3.234   0.970
71273W        W43698  18.445  21.128   3.647
71274W        W43699  19.672  35.235  13.715
71275W        W43700  19.800  15.238  14.062
71276W        W43701  15.745   2.307   3.753
71277W        W43702  37.911  42.232   1.677
71278W        W43703  11.831   9.992  10.633
71279W        W43704  36.575  18.667  10.701
71280W        W43705  17.876   9.913   0.027
71281W        W43706  12.088  14.749  12.638
71282W        W43707   6.828   5.620   2.314
71283W        W43708   9.398   2.840   2.233
71284W        W43709  29.542  34.401   0.478
71285W        W43710  11.071  18.768   1.870
71286W        W43711  23.612  37.350  14.819
71287W        W43712  36.901  39.921  14.267
71288W        W43713  37.040  43.312   1.902
71289W        W43714  25.988  38.243   3.755
71290W        W43715  13.720   9.434   0.858
71291W        W43716  35.464  12.136   0.181
71292W        W43717  15.730  15.031  10.742
71293W        W43718  17.806   0.023   1.684
71294W        W43719  41.176  37.422   3.779
71295W        W43720  23.727  42.310   2.327
71296W        W43721  35.252  37.070   3.087
71297W        W43722   8.335  12.294  13.824
71298W        W43723  38.072   0.796   4.345
71299W        W43724  12.733  20.086   1.293
71300W        W43725  21.034  44.854  11.512
71301W        W43726  15.160  40.149  11.115
71302W        W43727  30.795   9.235  10.409
71303W        W43728   8.125   8.228   1.628
71304W        W43729  11.574  12.947  10.777
71305W        W43730  10.317  19.959   2.343
71306W        W43731  24.669  30.035   9.669
71307W        W43732  29.806  24.212  12.535
71308W        W43733  42.939  19.234  10.242
71309W        W43734  38.155  28.111   4.671
71310W        W43735  42.383  37.115  11.718
71311W        W43736  34.515   1.341   1.947
71312W        W43737  20.290  13.292   0.888
71313W        W43738   6.467   9.151   0.217
71314W        W43739  14.129  36.920  13.763
71315W        W43740  18.905  24.390  13.872
71316W        W43741  21.637  44.949   0.288
71317W        W43742  41.813  23.420   3.585
71318W        W43743  15.539  40.292  12.322
71319W        W43744  44.368   0.039   3.125
71320W        W43745   1.308  23.655   3.277
71321W        W43746   3.804  39.640   3.202
71322W        W43747  31.459  39.087  10.928
71323W        W43748  35.348  41.043  13.346
71324W        W43749  16.687  28.454  13.065
71325W        W43750  41.573  26.159  11.892
71326W        W43751  30.542  29.779   1.002
71327W        W43752  21.276  44.375  12.657
71328W        W43753   4.830  30.085   0.063
71329W        W43754   4.390  19.864   4.866
71330W        W43755  18.747  32.182  13.364
71331W        W43756   8.875   1.265   4.608
71332W        W43757  41.458  44.839  10.911
71333W        W43758  21.589  17.823  13.484
71334W        W43759  14.672  24.160  12.928
71335W        W43760  36.675  42.247   0.752
71336W        W43761  39.754  40.039   2.650
71337W        W43762  41.481   4.953   3.246
71338W        W43763  43.523  27.422   1.776
71339W        W43764   9.863  19.657  14.691
71340W        W43765  16.697  27.655  11.674
71341W        W43766   5.976   1.863  14.280
71342W        W43767   3.506  11.307   2.357
71343W        W43768  27.233  23.479  13.373
71344W        W43769   0.370  43.818  10.888
71345W        W43770  41.981   9.250   0.785
71346W        W43771  10.223   4.327  13.777
71347W        W43772  21.102  14.208   4.129
71348W        W43773  38.462   5.026  11.258
71349W        W43774  28.845   9.858   1.355
71350W        W43775   6.185  32.585   0.781
71351W        W43776  43.315  29.605   0.406
71352W        W43777  21.546   0.985  12.686
71353W        W43778  12.158  38.995   2.822
71354W        W43779  10.252   6.155   1.303
71355W        W43780   9.294  21.524   0.144
71356W        W43781   3.218  38.053  11.070
71357W        W43782   8.292  27.280  10.537
71358W        W43783  27.197  12.563   1.865
71359W        W43784   0.052  12.040  14.040
71360W        W43785  20.620  24.966  11.166
71361W        W43786  18.784   0.548  13.598
71362W        W43787   1.201  26.695   0.688
71363W        W43788  32.631  30.321  12.249
71364W        W43789  19.055  42.810  10.945
71365W        W43790  17.658  27.665  12.559
71366W        W43791  41.968  24.796   1.848
71367W        W43792  16.659  29.625  14.424
71368W        W43793  15.870   1.838  12.635
71369W        W43794   3.261  36.110   2.306
71370W        W43795  37.591   7.259   4.671
71371W        W43796  40.473  40.695   2.940
71372W        W43797  19.327  39.560  10.683
71373W        W43798  27.088  32.413   9.764
71374W        W43799  21.113   3.870   1.314
71375W        W43800  33.612  27.276   4.104
71376W        W43801  31.458  21.003  11.704
71377W        W43802  41.545   8.780  14.896
71378W        W43803   6.383  13.498   4.479
71379W        W43804  23.014   3.969  11.958
71380W        W43805  22.580  27.373  13.843
71381W        W43806  33.172   2.303  11.281
71382W        W43807  14.260  22.900   4.434
71383W        W43808  34.381  25.213  11.641
71384W        W43809  20.313   3.028  10.253
71385W        W43810  20.344  17.491  11.235
71386W        W43811   0.339  36.630  10.723
71387W        W43812  24.516   6.214   3.665
71388W        W43813   3.956   6.418  14.404
71389W        W43814  15.000  18.262   2.112
71390W        W43815  30.986  37.531   1.916
71391W        W43816   0.361  15.104   1.701
71392W        W43817   9.201  41.333  14.706
71393W        W43818  29.636   6.743  14.835
71394W        W43819   7.008  25.073   3.190
71395W        W43820  28.056  41.595   4.157
71396W        W43821  24.567  44.969  11.836
71397W        W43822  33.562  39.911   1.366
71398W        W43823   2.980  28.087   3.473
71399W        W43824  44.030   7.559   1.020
71400W        W43825  41.474  15.507  10.682
71401W        W43826  10.899  23.467   3.632
71402W        W43827  35.444  42.796  12.177
71403W        W43828   7.427   3.195  13.525
71404W        W43829  21.390  36.449  14.279
71405W        W43830  32.542  11.606   1.380
71406W        W43831   7.294   2.005  14.263
71407W        W43832  38.598   3.978  11.946
71408W        W43833  34.459  44.023   1.449
71409W        W43834  18.851   5.300  12.042
71410W        W43835   6.439  42.645  14.335
71411W        W43836  32.602   2.805   0.666
71412W        W43837  43.055  21.951   2.495
71413W        W43838   1.970  24.886   2.170
71414W        W43839   0.382  31.477  11.852
71415W        W43840  41.091  20.853  12.804
71416W        W43841   6.798  30.623   1.351
71417W        W43842  23.017   4.989  14.300
71418W        W43843  42.402  24.195  12.647
71419W        W43844  25.131   5.440   3.607
71420W        W43845   8.758  18.869   1.315
71421W        W43846  17.796   8.748   4.013
71422W        W43847  10.278  37.433   4.595
71423W        W43848   4.438   3.762   1.349
71424W        W43849   2.446   6.716   3.763
71425W        W43850  28.777  12.927   0.254
71426W        W43851  30.411  14.208  12.332
71427W        W43852   1.212  21.561   2.207
71428W        W43853  19.617  23.627   3.680
71429W        W43854  35.028   2.249  14.828
71430W        W43855  19.053  44.460  11.722
71431W        W43856  25.064  10.626   2.301
71432W        W43857  25.202  31.167   2.928
71433W        W43858  31.873  33.025  10.751
71434W        W43859  29.008  42.367  10.747
71435W        W43860  33.967  36.426  13.255
71436W        W43861  35.078  30.652  14.078
71437W        W43862  35.345   1.473   4.290
71438W        W43863  18.349   7.832   1.569
71439W        W43864  37.051  44.290  14.224
71440W        W43865  35.444   4.327   3.378
71441W        W43866  12.206  38.382   3.553
71442W        W43867  11.655  36.363   4.347
71443W        W43868  21.047  20.137  13.079
71444W        W43869  19.675   2.794  11.966
71445W        W43870  44.450  33.204  10.241
71446W        W43871  36.130  17.569   0.485
71447W        W43872  31.928  34.294   3.363
71448W        W43873  22.743  36.435   4.000
71449W        W43874  15.048  16.559   4.331
71450W        W43875   1.852  18.587   4.659
71451W        W43876  43.004  24.394  10.569
71452W        W43877  28.468  17.313   4.628
71453W        W43878  14.780   3.857  13.654
71454W        W43879  37.758  37.600   2.864
71455W        W43880  32.434  14.157   2.268
71456W        W43881  35.021  35.810  10.638
71457W        W43882   2.849   1.962  10.929
71458W        W43883  28.429  32.948   0.172
71459W        W43884  32.533  33.131  11.189
71460W        W43885  32.926  34.946   3.602
71461W        W43886  22.957  23.215  11.126
71462W        W43887  22.979  29.510  11.531
71463W        W43888   9.162   7.727   3.167
71464W        W43889  13.446   7.082  10.207
71465W        W43890  29.256  21.502  14.198
71466W        W43891  23.288   3.734   4.624
71467W        W43892   7.644  11.924   3.676
71468W        W43893  23.253  21.257  11.515
71469W        W43894  34.395  24.038   3.065
71470W        W43895   1.647   6.609  12.040
71471W        W43896  37.572   8.861   0.088
71472W        W43897  14.832  40.791  12.929
71473W        W43898  33.442  17.770  10.932
71474W        W43899  36.135  24.193   0.978
71475W        W43900  25.129  44.279   1.873
71476W        W43901   1.184  17.612   2.672
71477W        W43902   3.114  40.753  14.773
71478W        W43903  31.228  15.978   2.274
71479W        W43904  12.138  35.071  13.608
71480W        W43905  38.748  29.385  13.480
71481W        W43906  15.584  11.295  12.105
71482W        W43907  30.487  30.673  11.173
71483W        W43908  13.393  11.199   1.489
71484W        W43909   1.179  33.223  10.612
71485W        W43910  13.800  36.846  14.785
71486W        W43911  22.525  14.271  10.302
71487W        W43912   5.897  29.078   3.156
71488W        W43913   6.865   4.335   1.646
71489W        W43914  18.978   1.378   1.341
71490W        W43915  40.132  40.947  11.148
71491W        W43916  16.385   6.257   2.440
71492W        W43917  13.025  30.657   1.437
71493W        W43918  11.668  17.558  14.004
71494W        W43919  31.673  25.168  13.438
71495W        W43920  12.297  43.825   0.373
71496W        W43921   7.187  24.858   2.708
71497W        W43922  17.673  23.435  10.961
71498W        W43923   9.346  27.443  14.900
71499W        W43924  38.076  29.836   3.898
71500W        W43925  36.647  14.574  11.109
71501W        W43926   7.723  23.032   2.172
71502W        W43927  17.167  12.066  10.518
71503W        W43928  14.690  24.828   3.323
71504W        W43929  42.084  23.810   0.807
71505W        W43930  14.996  14.639  13.483
71506W        W43931  27.305  33.581   2.857
71507W        W43932   3.015  11.667   1.245
71508W        W43933  23.804  19.118   0.518
71509W        W43934  18.479  17.613  11.095
71510W        W43935  16.549  40.480   2.926
71511W        W43936  42.772  12.529  14.982
71512W        W43937   3.846   8.476  11.034
71513W        W43938  34.855  19.263  13.808
71514W        W43939  27.418  27.986   4.163
71515W        W43940  27.799  43.281  10.781
71516W        W43941  24.185  14.215  11.025
71517W        W43942  14.365   0.237   1.335
71518W        W43943   3.851  39.968  13.884
71519W        W43944   0.923  21.624  11.512
71520W        W43945  28.018  40.268   0.889
71521W        W43946  16.799  10.262   1.785
71522W        W43947  15.228   8.636  11.191
71523W        W43948  24.335  12.235  14.922
71524W        W43949  38.894  16.139  12.829
71525W        W43950   9.604  29.723   4.081
71526W        W43951  29.948  12.100  13.885
71527W        W43952  40.919  12.568  13.115
71528W        W43953   8.753  10.190   1.172
71529W        W43954  25.587  19.137  10.928
71530W        W43955   7.323  40.559   3.396
71531W        W43956  35.174  31.030   3.740
71532W        W43957  26.183   2.695   1.324
71533W        W43958  35.900  25.859   5.104
71534W        W43959  38.333  10.349   0.957
71535W        W43960   5.800  25.623  14.065
71536W        W43961  26.300  30.132  12.168
71537W        W43962  43.974  22.629  13.894
71538W        W43963  30.669  25.466  12.104
71539W        W43964  22.923  34.130  14.253
71540W        W43965  34.523  15.173  13.938
71541W        W43966   4.359  28.923   0.475
71542W        W43967  36.436   0.907  11.989
71543W        W43968  23.511   7.049  12.412
71544W        W43969  10.129  27.972  11.078
71545W        W43970   2.409  15.357  12.804
71546W        W43971  12.674  22.760   0.908
71547W        W43972  41.692  41.753   1.975
71548W        W43973  16.770  18.941   2.134
71549W        W43974  23.173  26.176   3.050
71550W        W43975  21.630  37.831  13.421
71551W        W43976   0.337   3.524  11.223
71552W        W43977  44.349  25.628  14.660
71553W        W43978   1.050  26.223  13.537
71554W        W43979  28.126  36.116   4.658
71555W        W43980  19.012  37.372  11.604
71556W        W43981   0.904  20.200   1.173
71557W        W43982  38.017  19.031  12.560
71558W        W43983  23.197  29.427  11.972
71559W        W43984  30.662  15.458  12.394
71560W        W43985  34.013   7.693   1.841
71561W        W43986  27.494  37.787   4.501
71562W        W43987  18.056  39.378  13.681
71563W        W43988   3.759  35.850   2.374
71564W        W43989  21.002  23.603  10.015
71565W        W43990   6.022  16.119  12.948
71566W        W43991   6.194  20.721  13.987
71567W        W43992   9.211  39.419   2.170
71568W        W43993  36.140  17.058   0.410
71569W        W43994  11.221  32.916   2.429
71570W        W43995  33.852  41.948   1.348
71571W        W43996  20.289  32.828   2.314
71572W        W43997  26.362  17.474  12.389
71573W        W43998  39.452   5.966  10.925
71574W        W43999   9.705  39.904  13.518
71575W        W44000  15.874  14.314  13.547
71576W        W44001  13.772   7.577   3.638
71577W        W44002  28.448  24.212   3.815
71578W        W44003  44.285  41.876  10.430
71579W        W44004  24.267  27.060  12.716
71580W        W44005  37.655  44.199   5.325
71581W        W44006  12.868  27.636   0.772
71582W        W44007   9.927  18.552  11.672
71583W        W44008   0.946  28.983   3.183
71584W        W44009  19.755  34.074   0.366
71585W        W44010  44.054  18.829  11.967
71586W        W44011  21.854  17.120  13.946
71587W        W44012  12.318  16.565  13.049
71588W        W44013   2.902  32.107  14.731
71589W        W44014  10.616  26.085   0.459
71590W        W44015   4.621  15.564   2.198
71591W        W44016   3.231  25.181   3.589
71592W        W44017  29.416  17.800  11.916
71593W        W44018   6.321  28.736  13.923
71594W        W44019  44.837  16.536  12.400
71595W        W44020  34.614  29.778  14.981
71596W        W44021   7.279   8.751   0.964
71597W        W44022  40.213  39.984  11.102
71598W        W44023  31.614   8.306  14.981
71599W        W44024  34.303   6.019   1.729
71600W        W44025  43.100  14.699  12.112
71601W        W44026  30.921  37.517   0.248
71602W        W44027   5.796   5.292  13.468
71603W        W44028  39.835  12.845   3.673
71604W        W44029  22.672  40.526  11.517
71605W        W44030  14.723  32.642   4.764
71606W        W44031  10.614  17.427   3.533
71607W        W44032   7.468  34.048   0.309
71608W        W44033  24.931   4.024  14.826
71609W        W44034  21.066   9.480  12.554
71610W        W44035  38.767  13.166  10.440
71611W        W44036  15.580  10.686  13.580
71612W        W44037  16.409  11.600   1.755
71613W        W44038  11.569  26.987  14.892
71614W        W44039  40.828   7.242  13.922
71615W        W44040  30.046  10.750  10.637
71616W        W44041  23.949  36.460  13.567
71617W        W44042   6.723  34.614  11.117
71618W        W44043  42.946  18.768   4.594
71619W        W44044  30.730  38.673  11.407
71620W        W44045  24.697  30.049   5.017
71621W        W44046   6.877  33.104   0.365
71622W        W44047  27.502   1.711  14.772
71623W        W44048  41.766  44.923  11.661
71624W        W44049  43.308  12.826   1.888
71625W        W44050  30.479  31.364   3.743
71626W        W44051   7.818  29.734  11.150
71627W        W44052  37.606  29.922   2.159
71628W        W44053  29.249   0.757   2.282
71629W        W44054  25.955  38.600   3.246
71630W        W44055  13.413   0.262  11.957
71631W        W44056   1.949  15.161   1.132
71632W        W44057  21.221  20.754   2.148
71633W        W44058  11.588  19.840  14.853
71634W        W44059   9.506  37.404   4.972
71635W        W44060  30.497  44.256  13.860
71636W        W44061  37.598  15.279  13.947
71637W        W44062  32.624   3.044  12.874
71638W        W44063  35.065  36.099  14.811
71639W        W44064   8.647  13.556  13.881
71640W        W44065  38.490   3.916  10.449
71641W        W44066  18.209  40.541   2.416
71642W        W44067   5.835  40.356  10.421
71643W        W44068  13.069   1.422   9.747
71644W        W44069   1.417  41.688  12.086
71645W        W44070  14.737  18.980  10.627
71646W        W44071  38.407  34.045   1.018
71647W        W44072  19.489  11.786   3.261
71648W        W44073  14.465  14.257  11.864
71649W        W44074  10.866  30.643   0.904
71650W        W44075  23.823   3.749   1.850
71651W        W44076  35.125  34.470  12.557
71652W        W44077  33.005  13.124   3.699
71653W        W44078  33.381   2.302  14.335
71654W        W44079  32.044  26.947  11.756
71655W        W44080  28.651  34.044  14.610
71656W        W44081  29.943  18.611   1.239
71657W        W44082  19.966   6.955   0.595
71658W        W44083  34.642  36.950   3.763
71659W        W44084  33.512   2.265   2.656
71660W        W44085   6.331  25.468  10.878
71661W        W44086  28.806  34.127  11.202
71662W        W44087  18.293   8.213   0.209
71663W        W44088  19.643  10.088   4.637
71664W        W44089  41.065  37.515   2.025
71665W        W44090  13.511  38.076   2.265
71666W        W44091  37.176  37.565  10.561
71667W        W44092  42.982   9.427   2.838
71668W        W44093   2.315  22.386  14.368
71669W        W44094  23.961  38.322  11.746
71670W        W44095  24.702  26.868  12.503
71671W        W44096  29.993  11.871   3.833
71672W        W44097  17.102   3.439  14.948
71673W        W44098  14.269  25.487   0.884
71674W        W44099  38.286  40.377  13.295
71675W        W44100  27.689   0.028  12.990
71676W        W44101  29.774   0.672   2.417
71677W        W44102  11.130  34.590   3.188
71678W        W44103  24.645  44.743   2.818
71679W        W44104  16.839  29.689   0.288
71680W        W44105  25.058  14.207   0.257
71681W        W44106  36.664  28.126  11.367
71682W        W44107   0.560   5.985  12.670
71683W        W44108  14.560  31.505  14.010
71684W        W44109  28.942  11.832  12.043
71685W        W44110   4.715  43.908   4.118
71686W        W44111   3.995  35.287  14.318
71687W        W44112  29.265  18.608  12.112
71688W        W44113  37.537  13.830   3.820
71689W        W44114  12.605  17.061   0.374
71690W        W44115   8.321  35.029   1.236
71691W        W44116  25.217  19.313   2.475
71692W        W44117  15.879  16.289   0.276
71693W        W44118  13.595   7.191   3.203
71694W        W44119  44.996   6.785  13.887
71695W        W44120  24.792  30.434   1.340
71696W        W44121  30.437  30.933  10.446
71697W        W44122  23.577  16.627   1.972
71698W        W44123  17.171  11.943  11.020
71699W        W44124  44.231  40.563  11.613
71700W        W44125  24.550  27.682   3.709
71701W        W44126  27.631   7.144  14.988
71702W        W44127  23.482  21.082  10.185
71703W        W44128   4.539  39.001   2.111
71704W        W44129   6.022   9.938   0.205
71705W        W44130   9.631  10.612  12.912
71706W        W44131   8.311  44.980  14.484
71707W        W44132  42.127  39.512  12.021
71708W        W44133  28.950  33.328  11.619
71709W        W44134   9.307  13.959   1.462
71710W        W44135  10.286  23.480   4.209
71711W        W44136   6.868   7.615   2.459
71712W        W44137  22.030  30.056   1.721
71713W        W44138   2.816  27.005  12.119
71714W        W44139  42.096  43.427  13.073
71715W        W44140  14.000  11.697   4.959
71716W        W44141  18.986  34.401  13.134
71717W        W44142   7.133  40.036   0.341
71718W        W44143  38.451  25.180   0.391
71719W        W44144  18.010  28.593  12.450
71720W        W44145  30.879  44.788  12.334
71721W        W44146  43.573  23.076  13.586
71722W        W44147  35.478   8.757   0.804
71723W        W44148   1.337  17.170   4.670
71724W        W44149  32.344  22.514   2.667
71725W        W44150  38.648  24.106   2.147
71726W        W44151  41.855  32.696  13.393
71727W        W44152  20.019  24.083   1.698
71728W        W44153  36.590  12.363  11.188
71729W        W44154  31.560   7.821   4.406
71730W        W44155  22.413  42.099   4.075
71731W        W44156  15.206  26.668  10.717
71732W        W44157  22.029  25.019   1.833
71733W        W44158  15.271  35.258   4.193
71734W        W44159   2.194  43.938   1.908
71735W        W44160  29.996  26.150   2.330
71736W        W44161  28.662   9.095   0.337
71737W        W44162  41.329  39.558  11.607
71738W        W44163  32.676  22.621   1.289
71739W        W44164   4.801  43.011  10.059
71740W        W44165  27.462  22.529  11.505
71741W        W44166  24.285  32.907  13.444
71742W        W44167  35.833  19.019  14.484
71743W        W44168   4.152  36.789  12.436
71744W        W44169  31.413  26.881  12.955
71745W        W44170   6.266  38.941   5.059
71746W        W44171  38.929  40.801   0.422
71747W        W44172  29.906  24.065   2.222
71748W        W44173  14.201   5.881  13.729
71749W        W44174  38.773  11.936  10.714
71750W        W44175  44.216   9.859  13.573
71751W        W44176  11.539  24.979   9.954
71752W        W44177  38.889  37.475   2.197
71753W        W44178   1.383  20.549   0.476
71754W        W44179  33.910  23.713   3.077
71755W        W44180  32.359  12.362  12.010
71756W        W44181  19.098  32.582   1.672
71757W        W44182  42.004  17.590   2.750
71758W        W44183   5.431  37.677   3.335
71759W        W44184  32.592  41.919  14.071
71760W        W44185  15.680  27.262   4.559
71761W        W44186  11.275  23.293   1.809
71762W        W44187  38.714  31.959  12.049
71763W        W44188  37.823  23.702  13.549
71764W        W44189  40.790  21.222   3.300
71765W        W44190  19.337  30.057   2.839
71766W        W44191  11.469  17.092  14.835
71767W        W44192  18.759  20.009   0.002
71768W        W44193   6.412   9.359  11.971
71769W        W44194  37.569  34.797  11.818
71770W        W44195  12.294  44.323   1.608
71771W        W44196   0.517  41.245  12.308
71772W        W44197  29.842  11.647   3.158
71773W        W44198  42.026  23.500  10.393
71774W        W44199  14.618  31.006   1.949
71775W        W44200  19.636  22.624   4.666
71776W        W44201  21.057  30.553   2.653
71777W        W44202  11.699   6.217  13.313
71778W        W44203  20.474  29.639   2.327
71779W        W44204  26.029  27.690   0.914
71780W        W44205  27.466  37.955  10.666
71781W        W44206  15.129  27.063   4.602
71782W        W44207  14.991  23.155  10.161
71783W        W44208  41.379  42.790   4.986
71784W        W44209  24.038  37.397   3.271
71785W        W44210  33.139  12.917  11.624
71786W        W44211  43.732  24.609   1.737
71787W        W44212   5.787  36.195  12.790
71788W        W44213   8.868   0.796   0.321
71789W        W44214  13.226  16.154  11.502
71790W        W44215  40.792  21.585   0.800
71791W        W44216  33.971  26.476   4.468
71792W        W44217  33.742   1.305   3.151
71793W        W44218  10.129  31.482   4.887
71794W        W44219  41.051  10.363   0.260
71795W        W44220  23.043  38.336   1.372
71796W        W44221  17.188   1.054   4.571
71797W        W44222  30.425  18.587   3.762
71798W        W44223  37.866   8.671  11.918
71799W        W44224  22.185  44.414   1.834
71800W        W44225  12.585  10.456  12.157
71801W        W44226   2.768  26.663  10.697
71802W        W44227  43.749  31.654   1.438
71803W        W44228   2.245   3.940  12.001
71804W        W44229  36.546  28.657   0.949
71805W        W44230  10.108   9.710   4.261
71806W        W44231  18.983  13.214   3.916
71807W        W44232   3.906  20.077  14.436
71808W        W44233  16.743   3.263   2.128
71809W        W44234  18.386  41.494  13.423
71810W        W44235  38.568  34.898   4.564
71811W        W44236  28.147  21.777   2.381
71812W        W44237  15.861  40.862   1.341
71813W        W44238  17.205   5.959  11.088
71814W        W44239  13.008  11.059   1.789
71815W        W44240  32.624   3.810   1.278
71816W        W44241  41.008   9.788   4.602
71817W        W44242  43.241  10.690  10.639
71818W        W44243  21.314   3.864  13.962
71819W        W44244   9.176  29.390  11.573
71820W        W44245   8.627  37.946  13.122
71821W        W44246  43.348   8.889   0.931
71822W        W44247  30.539  11.422   3.298
71823W        W44248  43.721  30.047   3.228
71824W        W44249  44.670  17.741   4.534
71825W        W44250  28.869  20.635   4.555
71826W        W44251  33.978   8.407   0.297
71827W        W44252  30.236  14.228  12.841
71828W        W44253  26.524  16.353  10.404
71829W        W44254  20.099  17.324   4.079
71830W        W44255  17.637  40.519   1.835
71831W        W44256  12.475  23.046   2.383
71832W        W44257  28.073  17.758   0.345
71833W        W44258  43.624  12.787  13.090
71834W        W44259  24.140  22.019  14.302
71835W        W44260  38.412   2.930  10.690
71836W        W44261  24.076  17.072  13.459
71837W        W44262  33.999  25.565  13.608
71838W        W44263  26.002  30.092  10.099
71839W        W44264  24.160  38.764   3.640
71840W        W44265   6.947  42.522   4.361
71841W        W44266  29.911  26.565   0.450
71842W        W44267  35.418   4.655  10.726
71843W        W44268   8.607   5.297   0.256
71844W        W44269  34.379  28.947   3.688
71845W        W44270   0.340  14.177   2.175
71846W        W44271  16.820   1.285   0.376
71847W        W44272  43.803   8.621   0.957
71848W        W44273  41.453   6.372  10.720
71849W        W44274  31.095  35.484   3.328
71850W        W44275  12.775  40.113   2.009
71851W        W44276  29.814  34.432   4.070
71852W        W44277  39.258  31.915  11.361
71853W        W44278  23.738  17.666  11.646
71854W        W44279  26.657  23.217   1.074
71855W        W44280   4.148  40.716  11.213
71856W        W44281  43.476  42.993   0.634
71857W        W44282  27.055  22.944   2.543
71858W        W44283  36.528   2.782  13.264
71859W        W44284  32.474   1.745  10.946
71860W        W44285   2.932  43.001   1.814
71861W        W44286  32.864  36.554   1.957
71862W        W44287   6.519  11.003   4.139
71863W        W44288   3.309   2.789   0.003
71864W        W44289  22.009  38.816  12.165
71865W        W44290  40.246  10.374   1.509
71866W        W44291  29.031  29.641   0.398
71867W        W44292  27.900   6.023   2.721
71868W        W44293  14.649  26.729  13.442
71869W        W44294   9.704   7.494   0.415
71870W        W44295  44.064  34.696   3.568
71871W        W44296  17.808  11.195   0.969
71872W        W44297  18.816  29.967   2.723
71873W        W44298  12.996  24.858  13.926
71874W        W44299   9.902  43.590   3.196
71875W        W44300  19.732  17.781  14.320
71876W        W44301  33.616   8.620  13.550
71877W        W44302  36.133   9.754  12.614
71878W        W44303  25.562  35.316  13.053
71879W        W44304   5.386  22.409   2.192
71880W        W44305  32.301  44.012   0.749
71881W        W44306  37.141  35.442   4.313
71882W        W44307  24.111  10.910  10.611
71883W        W44308   5.981  36.588   1.211
71884W        W44309  43.016  19.643  13.896
71885W        W44310   3.480   9.797   0.248
71886W        W44311   7.819   0.980  13.812
71887W        W44312  43.074  33.672   4.502
71888W        W44313  28.889   9.137   0.937
71889W        W44314   1.234  17.661   3.542
71890W        W44315  44.510   8.452   1.693
71891W        W44316   6.059  20.250  12.636
71892W        W44317   9.355   7.903  11.544
71893W        W44318  41.008  11.656  14.024
71894W        W44319   4.974  23.527  13.393
71895W        W44320  42.686  36.288  13.108
71896W        W44321  42.849   8.192  11.977
71897W        W44322  39.040  10.739   2.863
71898W        W44323  24.971  32.639   2.654
71899W        W44324   3.865  10.615   4.183
71900W        W44325  28.129  10.842   0.859
71901W        W44326   1.297  17.355   2.241
71902W        W44327  20.898  10.054  10.113
71903W        W44328  38.547  21.707  13.421
71904W        W44329  40.711   1.471   4.210
71905W        W44330   0.481  29.400  11.174
71906W        W44331  30.951   1.429  12.395
71907W        W44332  39.494  22.191  11.135
71908W        W44333  17.603  21.824   2.866
71909W        W44334  33.046  17.539  12.630
71910W        W44335  30.690  25.223  14.404
71911W        W44336  36.810  42.842   1.893
71912W        W44337   3.244  28.486  14.755
71913W        W44338  13.641  31.154   2.170
71914W        W44339  40.558  35.770   2.202
71915W        W44340  10.650  24.164   9.608
71916W        W44341  32.133   0.989  12.353
71917W        W44342  22.152  42.715   4.850
71918W        W44343  13.167  24.390  12.857
71919W        W44344  31.540  33.569  14.899
71920W        W44345   3.811  42.921   2.459
71921W        W44346  30.737   3.729   2.924
71922W        W44347  27.805  27.888  13.653
71923W        W44348   9.576   0.723  14.299
71924W        W44349  22.245  25.121   2.301
71925W        W44350   3.287  28.617   3.822
71926W        W44351  35.874  24.144   4.089
71927W        W44352  20.194  41.824   4.262
71928W        W44353   6.843  11.881  14.041
71929W        W44354   2.932  41.720  13.263
71930W        W44355  24.501  26.550  10.784
71931W        W44356  32.182  25.933  13.537
71932W        W44357  24.130  13.105  12.410
71933W        W44358  37.230  31.140   2.854
71934W        W44359  12.103  27.359   0.305
71935W        W44360  31.951  25.038   1.358
71936W        W44361   8.177  36.531   2.039
71937W        W44362  19.237  25.564   4.619
71938W        W44363  35.379  29.709   1.973
71939W        W44364   9.372  14.304   2.809
71940W        W44365   5.059  32.757  13.389
71941W        W44366  12.243  10.620   3.539
71942W        W44367  18.338   6.141   0.339
71943W        W44368  30.595   6.861   1.181
71944W        W44369  11.687   4.207  10.983
71945W        W44370  27.727  30.364   5.056
71946W        W44371  42.912  26.626  10.709
71947W        W44372   3.394  35.996  11.646
71948W        W44373  33.061  24.510   1.777
71949W        W44374  16.162  27.577  10.719
71950W        W44375   4.734  38.358   3.123
71951W        W44376  34.392  23.783   1.707
71952W        W44377  24.331  43.835   4.433
71953W        W44378  43.523  43.264  14.684
71954W        W44379  16.199  40.277   3.269
71955W        W44380  40.992   5.615  11.309
71956W        W44381  23.991  14.081  14.579
71957W        W44382   3.171  36.089  12.441
71958W        W44383  41.477   5.796   1.424
71959W        W44384  21.005  15.827   4.688
71960W        W44385  38.797  28.997  12.773
71961W        W44386  37.263  39.427  13.456
71962W        W44387   5.717  43.015  12.935
71963W        W44388  17.829  26.467  11.451
71964W        W44389  29.781   0.218   2.729
71965W        W44390  26.671  12.354   0.012
71966W        W44391  17.053  26.080  12.050
71967W        W44392   4.866  31.789   0.750
71968W        W44393  11.852   4.540   4.980
71969W        W44394   0.767   0.394  14.397
71970W        W44395  38.765  10.335   3.650
71971W        W44396  31.994  28.090  12.812
71972W        W44397  31.832  23.468   2.114
71973W        W44398  35.102  20.606  14.966
71974W        W44399  32.640  33.598  14.304
71975W        W44400   1.890  38.777  13.558
71976W        W44401  12.061  14.848  11.488
71977W        W44402  24.813  25.745  11.313
71978W        W44403  31.504   0.101   0.846
71979W        W44404  21.062  17.330   2.249
71980W        W44405  28.606  12.317  13.529
71981W        W44406  33.974   6.437   3.579
71982W        W44407  13.847  28.641   0.810
71983W        W44408   8.741  17.339  12.895
71984W        W44409  44.892  12.340  13.349
71985W        W44410  19.093  11.595   0.381
71986W        W44411  16.665  33.255  11.533
71987W        W44412  12.629  37.115   3.590
71988W        W44413  31.930  32.055   3.755
71989W        W44414  16.652  30.392   1.185
71990W        W44415  27.775   8.125   2.672
71991W        W44416  40.402  41.524   3.252
71992W        W44417  29.921  11.253  11.279
71993W        W44418  33.146  16.824   3.830
71994W        W44419   8.568  44.963   3.256
71995W        W44420  32.009  31.559   0.041
71996W        W44421   6.590   1.977  13.468
71997W        W44422  37.307  40.930  13.472
71998W        W44423  13.877  10.885  14.289
71999W        W44424   9.440  23.809  14.264
72000W        W44425  12.195  43.790  11.050
72001W        W44426  17.216  36.391   2.140
72002W        W44427  16.385   6.257  11.145
72003W        W44428  17.139  21.503  13.098
72004W        W44429  21.458   7.102  11.048
72005W        W44430  42.611  24.530  13.388
72006W        W44431  21.314  24.586   1.703
72007W        W44432  24.718  33.982   3.333
72008W        W44433  13.685   1.490   4.571
72009W        W44434  15.028  33.952   4.489
72010W        W44435  35.095  43.402   1.216
72011W        W44436   7.087  39.264   1.701
72012W        W44437  42.368  21.478  12.753
72013W        W44438  30.240  26.642   1.874
72014W        W44439  43.622  10.383  12.021
72015W        W44440  31.866  28.454   0.692
72016W        W44441  10.723   7.994   3.245
72017W        W44442  12.024  37.534  10.993
72018W        W44443  16.555  23.629   4.647
72019W        W44444  26.547   1.892   4.470
72020W        W44445   5.495  31.577   3.622
72021W        W44446  23.106  31.232  10.923
72022W        W44447  16.746  34.905   9.339
72023W        W44448  22.303  11.819   9.820
72024W        W44449   4.387   6.692  14.522
72025W        W44450  13.850  38.575  13.368
72026W        W44451   5.189  44.535   1.195
72027W        W44452  44.247   1.907   0.679
72028W        W44453  43.942   1.552  12.207
72029W        W44454  21.557  13.662  12.638
72030W        W44455  29.592  23.995  14.814
72031W        W44456  41.949  15.735  10.687
72032W        W44457  42.833  31.076  14.561
72033W        W44458  12.049   6.423  14.014
72034W        W44459  38.901   2.171   4.528
72035W        W44460  22.919  12.190  11.594
72036W        W44461   5.690  34.944  12.934
72037W        W44462  41.542  17.733   1.852
72038W        W44463  10.896  23.125  10.411
72039W        W44464  13.589  40.804  11.624
72040W        W44465  26.667  10.074  14.362
72041W        W44466  36.532  21.740  14.566
72042W        W44467  22.149  42.748   2.751
72043W        W44468  22.438   0.501  10.254
72044W        W44469  41.604   1.391  12.414
72045W        W44470  21.750  20.032  11.602
72046W        W44471   3.913  31.765  14.490
72047W        W44472  27.063  18.060   0.021
72048W        W44473   0.804  17.708   3.203
72049W        W44474  17.589   7.140  11.576
72050W        W44475  37.353  31.755   4.664
72051W        W44476  18.601   1.374  13.585
72052W        W44477   8.784  38.912   5.259
72053W        W44478  22.129  39.498   4.158
72054W        W44479  29.080  33.611   1.449
72055W        W44480  36.331  31.238   3.336
72056W        W44481   0.548  31.990   4.951
72057W        W44482   8.304   0.002  11.676
72058W        W44483  21.772  44.360  12.746
72059W        W44484  40.780   3.347  14.423
72060W        W44485   3.965  34.452   0.878
72061W        W44486  24.160   5.840   1.096
72062W        W44487   3.129  22.345   2.314
72063W        W44488  27.830  11.854   3.195
72064W        W44489  25.499  22.657  13.930
72065W        W44490  21.975   8.355   4.523
72066W        W44491  15.422  34.866   4.832
72067W        W44492  36.435  26.014  13.972
72068W        W44493   0.989  21.270  12.455
72069W        W44494   2.960  23.619   2.599
72070W        W44495   0.994  13.886  12.448
72071W        W44496  35.887  11.177   2.317
72072W        W44497  33.990  34.139  12.010
72073W        W44498  12.183   7.569  10.573
72074W        W44499  40.290  38.209  14.034
72075W        W44500  27.188  12.378  11.000
72076W        W44501  44.943  11.904  11.883
72077W        W44502  19.701   4.655  14.066
72078W        W44503  37.565  13.771   2.862
72079W        W44504   5.604  35.793  13.051
72080W        W44505   4.908   8.855   3.269
72081W        W44506  32.439  37.576  12.584
72082W        W44507  28.988  14.430  11.017
72083W        W44508  11.192  39.773  10.803
72084W        W44509  43.516  13.826  11.299
72085W        W44510   1.281  35.203  14.490
72086W        W44511  16.105   0.718   2.815
72087W        W44512  32.159  37.435  14.496
72088W        W44513  11.125   1.534   1.859
72089W        W44514  22.477  26.547   2.460
72090W        W44515   7.832  15.329   2.868
72091W        W44516   4.199  23.105  12.405
72092W        W44517  10.204   5.605  14.390
72093W        W44518   8.650  35.849   2.155
72094W        W44519  41.982  27.149   3.385
72095W        W44520  38.987  27.904   4.306
72096W        W44521  28.667  38.733   4.624
72097W        W44522  13.399   3.865   5.015
72098W        W44523  29.921  25.009  11.171
72099W        W44524   0.306  20.933   3.708
72100W        W44525   3.712  37.648   2.980
72101W        W44526  39.164  15.607  14.307
72102W        W44527   7.370  28.502  13.997
72103W        W44528  25.142   0.205   1.869
72104W        W44529  18.590  35.431  11.208
72105W        W44530  31.798  38.633   1.917
72106W        W44531  13.856  11.649   4.086
72107W        W44532  39.874  16.999  14.890
72108W        W44533   7.225  17.181   1.881
72109W        W44534  32.578   1.638  12.888
72110W        W44535  35.453  12.986   4.585
72111W        W44536  32.012  33.845   1.034
72112W        W44537   0.829   3.001   3.028
72113W        W44538  40.949  26.948   4.761
72114W        W44539  22.700  17.707   0.958
72115W        W44540  33.952  38.533  10.964
72116W        W44541   6.117  43.651  12.018
72117W        W44542  34.424  25.011  14.210
72118W        W44543  43.747  24.560  13.988
72119W        W44544  44.385  19.779  14.900
72120W        W44545  37.633   3.739   0.733
72121W        W44546  10.061  41.156  14.527
72122W        W44547  36.864  10.876   0.002
72123W        W44548  26.134  33.363   0.880
72124W        W44549  20.002  25.141   5.051
72125W        W44550  34.343  43.219   0.418
72126W        W44551  28.581  23.062  10.595
72127W        W44552   2.641   3.349  11.252
72128W        W44553  20.991  42.299  10.932
72129W        W44554  10.947  19.268  10.542
72130W        W44555  31.455  32.035  10.735
72131W        W44556  34.619  35.874  13.055
72132W        W44557  25.237  13.130  11.970
72133W        W44558  38.026  10.292  12.447
72134W        W44559  38.025  18.744  13.029
72135W        W44560  43.287  41.797   0.344
72136W        W44561   7.162  43.997   3.656
72137W        W44562   3.035   1.390  14.847
72138W        W44563  13.732  11.879   4.545
72139W        W44564   7.415   0.883   0.829
72140W        W44565  38.080  38.346   4.811
72141W        W44566  19.594  19.676  14.332
72142W        W44567  40.521   0.803  11.173
72143W        W44568  15.473  18.718  13.799
72144W        W44569  13.430  11.767  12.052
72145W        W44570  36.632   2.963  11.508
72146W        W44571  43.666   5.294  12.785
72147W        W44572  22.783   8.088  11.597
72148W        W44573  42.126   1.641  12.044
72149W        W44574   1.174   3.466   3.287
72150W        W44575   4.898   9.371   2.410
72151W        W44576  44.641  27.867  12.953
72152W        W44577  17.788  42.932  11.699
72153W        W44578  20.326  21.232  10.222
72154W        W44579  24.263  13.832   1.822
72155W        W44580  12.864  44.947   2.850
72156W        W44581  40.070  10.416   2.770
72157W        W44582  31.588  34.208  11.378
72158W        W44583  24.686  26.369   0.114
72159W        W44584  19.942  32.838   0.453
72160W        W44585   2.435   3.979   4.597
72161W        W44586   9.014  33.936  12.143
72162W        W44587  13.294  35.200   1.898
72163W        W44588  35.968  10.878   3.343
72164W        W44589  34.931  29.011   3.782
72165W        W44590   1.963   5.799   2.370
72166W        W44591   9.388   9.876   1.775
72167W        W44592  34.807  18.066   2.338
72168W        W44593  24.794  44.972  11.388
72169W        W44594  44.359  32.007   1.738
72170W        W44595   2.270   6.875  12.397
72171W        W44596   6.943  10.789  11.172
72172W        W44597  30.211  39.075   1.870
72173W        W44598  22.367   7.782  12.516
72174W        W44599  41.375  37.975  12.924
72175W        W44600  35.567  26.551   1.156
72176W        W44601  11.640  21.018  12.979
72177W        W44602  31.448  32.129   0.496
72178W        W44603  16.379  23.245  11.361
72179W        W44604   7.925  31.043  12.365
72180W        W44605   5.872   9.178  13.236
72181W        W44606  43.915   0.215   4.512
72182W        W44607  41.361  12.344  13.312
72183W        W44608  31.641  21.738   5.021
72184W        W44609  11.890   1.508  10.464
72185W        W44610  13.266  24.240   2.647
72186W        W44611  34.909  16.760   2.704
72187W        W44612  11.245  24.458   2.700
72188W        W44613  43.049   8.386  11.542
72189W        W44614  13.155  22.604  11.045
72190W        W44615   2.314  12.776   0.492
72191W        W44616  12.588   9.480   3.758
72192W        W44617  26.923   4.897   5.091
72193W        W44618  14.169  15.028  14.953
72194W        W44619  34.581  37.477   5.013
72195W        W44620  18.670  33.826   1.491
72196W        W44621   0.737  40.859   3.231
72197W        W44622  31.009   3.974  13.421
72198W        W44623  27.153  27.443   0.632
72199W        W44624  25.021  41.519  11.208
72200W        W44625   8.815   1.261  12.947
72201W        W44626  23.525   8.367   1.797
72202W        W44627  14.246  18.515  14.281
72203W        W44628  41.643  34.056  13.621
72204W        W44629  36.917  25.754  12.125
72205W        W44630  32.102  10.204   0.915
72206W        W44631  26.020   0.307   2.264
72207W        W44632  30.636  38.170  11.565
72208W        W44633   2.527  18.753   1.435
72209W        W44634  32.392   1.430  12.424
72210W        W44635  33.187  32.988   2.250
72211W        W44636  16.307  40.915  11.917
72212W        W44637  35.085  25.956  14.040
72213W        W44638  16.775  43.359   1.722
72214W        W44639  25.290  42.938   3.471
72215W        W44640  36.567  32.544  11.401
72216W        W44641  14.696  28.484   0.385
72217W        W44642  13.309  24.752  10.531
72218W        W44643   7.391  38.481   4.788
72219W        W44644  41.071  39.964   3.620
72220W        W44645  22.883  31.917   2.447
72221W        W44646  10.542  19.740   4.676
72222W        W44647  44.464  29.014  12.984
72223W        W44648  43.053  15.344   0.420
72224W        W44649  29.494  32.996   3.179
72225W        W44650   7.251   6.765  14.316
72226W        W44651  21.180   7.867   3.103
72227W        W44652  35.897  42.535  13.873
72228W        W44653  33.372  21.523   2.353
72229W        W44654   1.811  22.633   3.471
72230W        W44655  14.667  11.779  14.310
72231W        W44656  20.091  29.453  10.665
72232W        W44657  39.985  43.367   2.560
72233W        W44658  15.092  44.514  13.398
72234W        W44659   0.803  25.398  10.689
72235W        W44660  44.757   4.715   4.117
72236W        W44661  18.280  37.907  10.647
72237W        W44662  15.299  15.811  14.951
72238W        W44663  40.248  18.782  12.212
72239W        W44664  38.370   6.797  11.934
72240W        W44665   0.692  40.347  11.832
72241W        W44666  17.010  29.786   1.655
72242W        W44667  44.649  15.058   0.827
72243W        W44668  37.559  28.951   4.219
72244W        W44669  19.675  36.556  13.849
72245W        W44670  35.642  20.610   3.692
72246W        W44671  28.503  15.019   0.635
72247W        W44672  17.381   2.791   2.195
72248W        W44673  23.134   1.321   2.404
72249W        W44674   5.887  37.023  10.966
72250W        W44675  27.644  30.099  11.039
72251W        W44676  11.216  42.983  12.095
72252W        W44677   1.815   6.632  14.063
72253W        W44678  32.880  28.233  11.451
72254W        W44679  24.241  11.007   3.370
72255W        W44680  37.780  11.715  13.994
72256W        W44681  40.408  14.258  11.689
72257W        W44682   1.222  24.924  13.582
72258W        W44683  29.038  29.145   4.436
72259W        W44684   8.668  10.292   3.194
72260W        W44685  12.063  44.380  12.281
72261W        W44686   2.848  33.544  12.800
72262W        W44687  39.736  27.757   3.909
72263W        W44688   2.416  32.019  12.515
72264W        W44689  39.289   4.354   4.459
72265W        W44690  25.327  35.313   3.107
72266W        W44691  21.671  10.285  10.735
72267W        W44692  24.450  16.385   1.030
72268W        W44693   4.967  19.577   1.708
72269W        W44694   1.189  24.070  12.558
72270W        W44695  41.001  16.080  12.888
72271W        W44696  15.704   1.079   1.262
72272W        W44697  13.163  38.002   3.749
72273W        W44698  26.393   7.204  13.996
72274W        W44699  35.311  16.126   4.125
72275W        W44700   3.195  13.623  11.516
72276W        W44701   1.687  43.988   1.753
72277W        W44702  34.958  20.042  14.368
72278W        W44703  36.395  21.262  11.422
72279W        W44704  31.736  40.773  10.187
72280W        W44705   0.319  37.409  13.243
72281W        W44706  21.787  25.490   1.867
72282W        W44707  24.163  23.596   0.447
72283W        W44708   5.073   4.872   5.114
72284W        W44709  38.031   7.788   0.430
72285W        W44710   0.039   5.968   2.754
72286W        W44711  16.751  32.485   1.173
72287W        W44712   1.459  10.641  11.426
72288W        W44713  36.164  14.729   1.990
72289W        W44714  35.568   3.608  14.768
72290W        W44715  23.420   2.710   4.646
72291W        W44716  11.316   1.032  13.784
72292W        W44717   2.972  34.117   2.250
72293W        W44718  10.887  16.063  12.318
72294W        W44719  10.836  44.047   2.738
72295W        W44720  14.877   4.354  10.382
72296W        W44721  25.465  24.270   1.022
72297W        W44722  15.157  22.614   3.798
72298W        W44723  34.098  25.128   2.474
72299W        W44724  43.528  13.598   3.178
72300W        W44725  34.472  26.424  13.535
72301W        W44726  34.854  13.502  14.892
72302W        W44727  14.230  27.723  14.408
72303W        W44728  35.842  15.904  12.528
72304W        W44729  15.221  21.475   1.452
72305W        W44730   8.681  17.230  10.716
72306W        W44731  38.527  20.567  10.713
72307W        W44732  25.057  17.301   2.871
72308W        W44733  20.663  16.266   4.743
72309W        W44734  36.402  22.543   1.940
72310W        W44735   2.751  20.601   0.391
72311W        W44736  40.760  15.742  13.233
72312W        W44737  14.633  11.654  14.814
72313W        W44738   7.863  21.125   1.797
72314W        W44739  38.747  43.248  12.286
72315W        W44740  42.488  26.016  14.457
72316W        W44741  43.250  34.119   1.179
72317W        W44742  30.366   2.321   1.944
72318W        W44743  28.597  22.368   0.866
72319W        W44744  44.564  21.161  14.761
72320W        W44745  29.130  15.036   4.394
72321W        W44746  36.338  15.267   0.236
72322W        W44747   5.482  16.054  14.385
72323W        W44748  41.355  14.029  10.465
72324W        W44749   9.699  26.242  13.973
72325W        W44750  27.107  38.374  13.379
72326W        W44751  37.004  19.969  11.594
72327W        W44752  37.836  24.281  11.942
72328W        W44753  22.171  33.618   0.382
72329W        W44754  22.442  36.505   2.994
72330W        W44755  34.578   2.032  14.338
72331W        W44756  21.954  19.034   0.610
72332W        W44757   5.966   0.973   0.758
72333W        W44758  25.654  40.672  14.476
72334W        W44759  38.438   7.388   2.468
72335W        W44760  44.095  36.286   0.027
72336W        W44761   4.917  38.857  10.692
72337W        W44762  33.824   9.904   0.279
72338W        W44763  17.885  44.296   1.347
72339W        W44764  17.887  28.022   3.819
72340W        W44765  25.153  25.662  13.781
72341W        W44766  31.460  43.383  11.521
72342W        W44767  20.531  21.997  13.824
72343W        W44768  11.102   6.076  13.837
72344W        W44769  16.507  29.506   2.336
72345W        W44770  34.015  18.706   2.118
72346W        W44771  35.341  23.597  10.624
72347W        W44772  33.479  30.692  12.998
72348W        W44773  22.556  20.960   3.710
72349W        W44774  16.359  35.424   4.766
72350W        W44775  41.831  34.460   2.935
72351W        W44776  43.846  20.205   5.512
72352W        W44777  40.725  20.763  11.047
72353W        W44778  19.207  13.829   3.131
72354W        W44779  35.062  29.014  14.443
72355W        W44780  16.781  44.381   4.386
72356W        W44781  13.158  10.835  14.814
72357W        W44782   6.149  13.578  10.420
72358W        W44783  29.893  17.862  11.263
72359W        W44784  21.628  13.983   4.279
72360W        W44785  34.891  40.390   5.011
72361W        W44786  26.610  27.043   0.863
72362W        W44787  28.421   2.481  11.999
72363W        W44788  26.051  12.836   3.425
72364W        W44789  40.426  12.910   1.821
72365W        W44790  14.654  32.859   3.312
72366W        W44791   8.192   2.375   2.721
72367W        W44792  34.951   2.817   4.099
72368W        W44793   9.930  31.142   3.542
72369W        W44794   6.378   8.579   2.011
72370W        W44795   3.723  16.750  10.919
72371W        W44796   2.504  25.018  13.899
72372W        W44797   1.289  40.040  10.589
72373W        W44798  16.677   8.834  12.589
72374W        W44799  37.580  38.924  11.994
72375W        W44800  10.219   0.283   1.875
72376W        W44801   3.854  37.080  14.186
72377W        W44802  37.279   5.237   3.780
72378W        W44803  30.924  25.204   2.278
72379W        W44804   9.163  21.558   3.676
72380W        W44805  35.236  31.504   3.348
72381W        W44806  18.770  24.969   4.984
72382W        W44807   2.283   3.161  10.921
72383W        W44808  41.866   5.714  11.736
72384W        W44809  32.888  36.365   2.823
72385W        W44810   4.745  16.241  12.319
72386W        W44811  41.358  44.067   3.217
72387W        W44812  20.165  30.140   0.287
72388W        W44813  42.363  13.650  10.994
72389W        W44814  30.039  10.618  12.010
72390W        W44815  27.565   6.249  13.810
72391W        W44816  13.259  18.549  11.390
72392W        W44817  18.444  11.410  14.840
72393W        W44818   5.473   5.689  10.776
72394W        W44819  16.685  21.491  14.039
72395W        W44820  42.057  18.821  11.111
72396W        W44821  14.688  36.414   0.790
72397W        W44822   5.770  23.564   3.046
72398W        W44823  30.001   9.964  13.888
72399W        W44824   0.709  11.221  11.289
72400W        W44825   6.749  15.044   4.420
72401W        W44826  42.537  19.377  13.964
72402W        W44827  41.768  11.659  14.693
72403W        W44828   1.792  33.782   4.727
72404W        W44829  20.725  34.014  13.284
72405W        W44830  10.279  10.343  11.929
72406W        W44831   0.030  24.966   4.369
72407W        W44832   8.420  23.621   2.583
72408W        W44833   0.469   5.181  14.800
72409W        W44834  21.589  32.289  12.813
72410W        W44835   1.533   8.915   1.237
72411W        W44836   6.796  26.997   2.640
72412W        W44837  19.211  34.543   1.913
72413W        W44838   2.890  26.071  12.213
72414W        W44839  32.837   9.714   2.765
72415W        W44840  43.071  12.211   4.213
72416W        W44841  23.943  21.139  12.446
72417W        W44842  33.627  30.977   0.869
72418W        W44843   0.835  34.058  11.929
72419W        W44844  35.667  18.606  11.591
72420W        W44845  37.383  14.670   4.231
72421W        W44846  37.942   0.861   0.580
72422W        W44847  12.396  16.174   0.292
72423W        W44848  27.685  20.276   4.186
72424W        W44849  24.298  22.527  14.487
72425W        W44850  44.737  28.936  12.159
72426W        W44851  33.533  14.193  10.664
72427W        W44852   5.670   6.203  11.602
72428W        W44853  32.594  42.880   4.675
72429W        W44854  22.399  38.487  13.813
72430W        W44855  29.410  15.762  12.993
72431W        W44856   3.800  18.537  11.523
72432W        W44857   4.136  25.847  14.878
72433W        W44858  29.062  37.882  13.743
72434W        W44859  30.415  11.470  10.966
72435W        W44860   9.271  31.618  13.981
72436W        W44861  10.736  27.808   2.992
72437W        W44862  38.439   3.562   3.478
72438W        W44863   1.853  31.174  12.489
72439W        W44864  30.446  44.543  11.553
72440W        W44865  29.702  24.175   1.169
72441W        W44866  26.009  10.173   3.701
72442W        W44867  20.314  43.425   2.691
72443W        W44868  32.859  13.613   3.629
72444W        W44869  36.627  24.617   0.323
72445W        W44870  13.099  31.440   4.162
72446W        W44871  13.816   8.380  10.719
72447W        W44872  11.842  18.677   0.341
72448W        W44873  11.716  16.599  12.450
72449W        W44874  28.681  13.827   1.083
72450W        W44875   8.064  21.638  10.395
72451W        W44876   0.291  24.542  12.442
72452W        W44877  27.399   3.951  13.593
72453W        W44878  21.431   3.908  12.019
72454W        W44879  31.615  34.930   1.707
72455W        W44880   6.733  12.853  12.540
72456W        W44881   4.217  29.937  14.369
72457W        W44882  22.206  24.945  10.513
72458W        W44883  14.367  21.581   4.138
72459W        W44884  15.846  16.923  11.912
72460W        W44885  39.456  24.724   3.302
72461W        W44886  12.425   5.179  13.904
72462W        W44887  27.330  44.934   3.728
72463W        W44888   6.360  28.420  11.134
72464W        W44889  14.389  41.721   0.528
72465W        W44890  33.348   3.204  11.546
72466W        W44891  36.879   8.834  13.413
72467W        W44892   2.937   5.942   1.470
72468W        W44893  35.355   8.424   4.188
72469W        W44894  10.657  11.750   3.696
72470W        W44895  43.252   0.888   2.200
72471W        W44896  22.541  38.406   2.144
72472W        W44897  38.012  34.885  12.028
72473W        W44898  33.845  43.947  14.614
72474W        W44899  38.091  30.497   3.474
72475W        W44900  29.302  43.850   0.894
72476W        W44901  22.592  40.381   3.711
72477W        W44902  27.891  42.042  11.526
72478W        W44903  37.455  30.590  11.561
72479W        W44904  32.613  20.857  14.945
72480W        W44905  28.241  30.482   4.165
72481W        W44906  32.420  12.324  12.939
72482W        W44907  20.451   3.700  11.644
72483W        W44908  27.333  34.557  14.496
72484W        W44909  44.800  17.318  11.344
72485W        W44910   4.686  28.144  11.347
72486W        W44911  36.155  17.627  12.451
72487W        W44912  10.288  32.624  11.956
72488W        W44913  12.234  28.693   3.756
72489W        W44914  31.130  16.533   2.301
72490W        W44915   5.748   4.236  12.360
72491W        W44916  22.687  20.961   2.425
72492W        W44917  15.639  44.207  10.648
72493W        W44918  35.008  34.884  11.285
72494W        W44919  40.554  36.986  10.514
72495W        W44920  21.517  28.169  11.100
72496W        W44921  41.859   7.494   3.105
72497W        W44922  42.825   4.789   1.301
72498W        W44923  40.876   2.851  11.610
72499W        W44924  32.048  42.090  11.974
72500W        W44925  42.375   9.170  12.277
72501W        W44926  16.077  40.309   2.764
72502W        W44927   2.428  20.949  13.790
72503W        W44928  23.228   0.400   4.178
72504W        W44929  43.504  36.219   3.167
72505W        W44930  12.225  38.881  14.393
72506W        W44931  30.055  42.392   2.561
72507W        W44932   5.440   1.454  12.103
72508W        W44933   0.876  30.818  14.242
72509W        W44934   2.800  38.022   4.208
72510W        W44935  42.778  19.709  10.380
72511W        W44936   4.496  38.471  14.553
72512W        W44937  32.610   1.280   0.352
72513W        W44938  24.766  44.079  14.316
72514W        W44939  13.644   8.441  14.140
72515W        W44940  16.552  21.517   2.243
72516W        W44941  21.447  19.692   3.447
72517W        W44942   1.501   5.302   3.565
72518W        W44943   5.295  39.857   4.594
72519W        W44944  43.005  28.850   3.701
72520W        W44945  36.543  29.025   2.792
72521W        W44946  33.742   6.907   1.458
72522W        W44947  43.391  41.110   2.723
72523W        W44948  26.250  19.810   0.850
72524W        W44949  10.747  11.845   2.815
72525W        W44950  15.612  32.146   4.821
72526W        W44951  31.417  33.057   1.876
72527W        W44952   7.362  32.503   4.337
72528W        W44953  12.323   1.179   2.255
72529W        W44954  28.138  10.331  11.106
72530W        W44955  23.222  42.418   4.200
72531W        W44956  31.538   7.247  14.319
72532W        W44957   0.451  16.751   3.160
72533W        W44958  32.535  40.063   3.673
72534W        W44959   8.874   1.505   4.131
72535W        W44960  44.316  21.263   1.682
72536W        W44961  13.345  42.393  12.459
72537W        W44962  27.048  26.619   1.387
72538W        W44963  26.462  33.922   3.801
72539W        W44964   2.709  38.064  11.023
72540W        W44965  41.897  42.864  13.468
72541W        W44966  14.221  29.529   2.936
72542W        W44967  24.595  17.789  13.742
72543W        W44968   0.785  13.031   3.708
72544W        W44969  38.271  12.840  14.857
72545W        W44970  12.043  15.349  11.384
72546W        W44971  10.864  11.090   0.771
72547W        W44972  39.146  10.048  11.906
72548W        W44973   3.460  25.733   0.943
72549W        W44974  44.579  44.156   3.385
72550W        W44975  39.363  31.369   0.845
72551W        W44976  21.284  14.329  12.411
72552W        W44977   2.941  30.826  11.065
72553W        W44978  41.625  40.938   2.272
72554W        W44979  44.883  40.848  13.312
72555W        W44980  43.697  27.586   3.981
72556W        W44981   9.974  34.437   2.875
72557W        W44982  41.340  25.201   4.460
72558W        W44983  41.793  14.219  10.730
72559W        W44984   6.377  23.635  14.551
72560W        W44985   9.237  30.497  13.280
72561W        W44986  22.179  34.085  10.946
72562W        W44987  28.229  24.099  10.092
72563W        W44988  34.920   8.059  14.357
72564W        W44989  43.241  43.078  12.911
72565W        W44990  20.490  14.138  10.896
72566W        W44991  18.773  28.241  14.911
72567W        W44992   5.354  42.316  11.072
72568W        W44993  37.352  16.098  14.422
72569W        W44994  34.608  38.684  13.986
72570W        W44995  34.792  23.174  12.378
72571W        W44996  15.199  15.475   2.732
72572W        W44997   3.761  24.247   3.257
72573W        W44998  32.025  21.205   2.482
72574W        W44999  42.008   7.672  11.959
72575W        W45000  42.415  22.591  13.721
72576W        W45001  23.660  39.342  14.956
72577W        W45002  14.301  28.087  11.124
72578W        W45003  11.868  31.450   1.277
72579W        W45004  36.844  19.576  11.243
72580W        W45005  21.276  33.759  13.748
72581W        W45006  37.625  36.571   4.672
72582W        W45007   3.691  43.790   4.055
72583W        W45008  20.050  30.492  10.769
72584W        W45009  33.182   6.461   4.176
72585W        W45010   1.712  14.070  14.365
72586W        W45011  43.261  31.857  13.577
72587W        W45012  36.932  35.281  11.560
72588W        W45013  13.661  14.298   3.656
72589W        W45014  40.302  23.030  12.031
72590W        W45015  24.568  23.045  12.009
72591W        W45016  24.555  12.384  11.221
72592W        W45017  30.091   8.345  12.180
72593W        W45018  22.019  40.791   1.975
72594W        W45019  15.216  20.608   2.777
72595W        W45020   8.942  23.977  13.654
72596W        W45021   1.458  39.789  12.377
72597W        W45022  10.251  25.375   0.934
72598W        W45023  26.071  31.365   1.257
72599W        W45024  26.047  11.068   4.408
72600W        W45025  41.072  10.056  11.195
72601W        W45026  20.562   0.403   2.565
72602W        W45027  23.510   2.700  11.618
72603W        W45028  37.873  21.977  11.555
72604W        W45029  28.073  36.919  10.216
72605W        W45030  43.608  34.528  12.955
72606W        W45031  22.215  29.987  12.074
72607W        W45032  35.883  32.576  13.927
72608W        W45033  18.484  22.745   3.601
72609W        W45034   8.365   9.694   3.769
72610W        W45035  32.197  43.719   3.184
72611W        W45036  35.641  40.593   2.241
72612W        W45037  41.797  25.392  10.827
72613W        W45038  31.139  36.476   3.207
72614W        W45039  23.716  41.971  13.571
72615W        W45040  13.779  36.059   3.337
72616W        W45041  40.954   2.738   4.084
72617W        W45042  42.763  21.185   2.432
72618W        W45043  40.421  26.008   0.262
72619W        W45044  31.280   0.513  13.831
72620W        W45045  18.298  26.580  11.931
72621W        W45046   6.479  38.829  10.683
72622W        W45047   2.819  29.712   3.670
72623W        W45048  37.948  40.325  11.578
72624W        W45049  25.525   6.644   2.348
72625W        W45050  10.112   0.029   2.307
72626W        W45051  43.828   6.886  12.603
72627W        W45052   4.577  34.834  14.816
72628W        W45053  11.457  30.349   4.159
72629W        W45054  44.536   8.285  12.863
72630W        W45055   7.214   8.697   0.417
72631W        W45056  27.723  41.966  11.028
72632W        W45057   8.315   0.876  13.575
72633W        W45058  19.294  34.197   2.269
72634W        W45059  35.491  41.971  10.785
72635W        W45060  39.086   8.136  14.977
72636W        W45061   3.689  40.724  12.110
72637W        W45062  21.424  17.385   4.414
72638W        W45063  18.683   5.203   4.644
72639W        W45064  24.986   0.975  14.434
72640W        W45065  25.163  21.630  13.499
72641W        W45066  16.630  40.864  14.721
72642W        W45067  15.152  41.295  14.418
72643W        W45068  29.372   0.760  12.878
72644W        W45069  32.814  31.819   3.879
72645W        W45070  20.098  37.055  12.287
72646W        W45071  41.290  21.266   3.430
72647W        W45072  23.203  13.338   3.625
72648W        W45073   7.995  40.120  13.848
72649W        W45074  12.798   6.361  12.005
72650W        W45075  27.209   2.032  14.516
72651W        W45076  18.673  22.662  14.741
72652W        W45077  12.354  18.638   0.181
72653W        W45078   2.216  44.664  13.838
72654W        W45079  28.686  19.588   3.626
72655W        W45080  25.678  43.509   0.313
72656W        W45081  42.584  44.832   4.802
72657W        W45082  41.824  35.696  12.515
72658W        W45083  10.873  16.223  12.812
72659W        W45084  14.058  39.309   3.202
72660W        W45085  11.205  34.102   0.290
72661W        W45086   3.217  41.406  12.542
72662W        W45087  12.289  39.339  13.323
72663W        W45088  10.388  15.616  11.958
72664W        W45089  37.747  22.768  11.123
72665W        W45090  28.535  38.652  10.960
72666W        W45091   6.347   1.936  11.155
72667W        W45092  21.287  30.564  10.298
72668W        W45093   7.845  37.552  14.272
72669W        W45094  26.743  10.890  11.920
72670W        W45095  11.721  32.450  12.977
72671W        W45096   8.376  21.687   2.361
72672W        W45097  13.614   5.874  14.854
72673W        W45098  28.584  44.916   4.451
72674W        W45099  29.448   3.233  14.077
72675W        W45100  22.451   6.619  10.180
72676W        W45101  13.812   5.448   2.877
72677W        W45102   9.817  27.025   0.577
72678W        W45103  15.682  13.663   3.723
72679W        W45104  30.901  28.899  14.044
72680W        W45105  28.629  42.136   0.696
72681W        W45106  39.901  41.101  11.608
72682W        W45107   7.945  41.346   2.682
72683W        W45108  40.031  16.349  10.649
72684W        W45109  15.524  26.265   3.258
72685W        W45110  15.611  16.656  13.989
72686W        W45111  18.610  34.520  12.762
72687W        W45112   0.294  42.920  10.405
72688W        W45113  26.986  40.863   4.563
72689W        W45114  31.125  39.775   4.587
72690W        W45115  23.147   9.841   0.889
72691W        W45116  41.343  35.933  12.494
72692W        W45117  30.281   6.104   2.752
72693W        W45118  33.926  28.017  11.982
72694W        W45119  37.287   2.745  14.043
72695W        W45120  27.259  42.029  10.658
72696W        W45121  44.383  44.402  13.846
72697W        W45122  21.740  15.046  11.408
72698W        W45123  18.546  12.281  14.028
72699W        W45124  27.639   2.696   0.851
72700W        W45125  23.299   9.342  11.627
72701W        W45126  19.660  21.052   4.081
72702W        W45127   1.395  40.322  12.534
72703W        W45128  19.304  16.677   1.214
72704W        W45129  37.084  12.526  11.221
72705W        W45130  31.641  17.575  13.497
72706W        W45131   3.477  32.396  11.173
72707W        W45132  39.592  10.811  13.135
72708W        W45133  31.139  20.080   1.845
72709W        W45134  16.096  25.675  14.401
72710W        W45135   6.705  26.164  11.363
72711W        W45136  20.040  20.437   1.879
72712W        W45137  19.311  14.614   3.660
72713W        W45138  21.935  11.812  12.244
72714W        W45139  20.236   8.161   2.817
72715W        W45140   9.431  25.550  10.926
72716W        W45141  34.058   0.942   3.787
72717W        W45142  26.578  35.895   2.352
72718W        W45143  25.423   0.312  11.943
72719W        W45144  31.882  12.149  14.392
72720W        W45145  27.931   2.856   3.134
72721W        W45146  15.544   2.493   1.368
72722W        W45147  40.243  21.217   3.221
72723W        W45148  34.350  31.425   3.755
72724W        W45149   8.904  23.751   1.393
72725W        W45150  18.683  34.483  11.856
72726W        W45151  11.290  26.982  10.797
72727W        W45152  26.848  23.383  10.186
72728W        W45153  32.512   0.831   2.741
72729W        W45154  16.014   5.822  11.888
72730W        W45155  33.898  39.778   4.326
72731W        W45156  42.304  30.583  10.727
72732W        W45157  33.406  25.258   0.916
72733W        W45158  20.672  32.459  11.466
72734W        W45159  34.071  24.898   2.931
72735W        W45160  20.008   0.937  12.451
72736W        W45161  16.437  17.026  14.287
72737W        W45162  39.383  19.115  12.083
72738W        W45163  22.290  13.972  13.502
72739W        W45164   5.449  44.334  11.142
72740W        W45165  20.209   7.921  11.174
72741W        W45166  38.090  12.048  12.381
72742W        W45167  41.702  37.894   1.696
72743W        W45168  13.316   1.360   4.236
72744W        W45169  14.283  34.484  10.241
72745W        W45170   4.947  29.442   2.660
72746W        W45171  41.586  30.302   0.050
72747W        W45172  39.375   0.330   2.661
72748W        W45173  27.220  32.409   1.656
72749W        W45174  16.146  31.993   2.193
72750W        W45175  23.245   2.498  14.854
72751W        W45176  42.390  27.773   2.405
72752W        W45177  26.552  21.648   0.226
72753W        W45178   7.947   5.555  12.642
72754W        W45179  31.020  44.322   4.122
72755W        W45180  27.077   4.973  11.584
72756W        W45181   9.824  30.150   1.455
72757W        W45182   8.799  44.684   1.185
72758W        W45183  42.683  14.845   3.913
72759W        W45184  29.960  31.308   2.679
72760W        W45185   0.402  15.602  11.398
72761W        W45186  12.209  29.335   1.093
72762W        W45187  23.959   0.964  14.480
72763W        W45188  33.977  11.740   4.268
72764W        W45189  12.965   8.784  10.597
72765W        W45190  20.896  28.457   1.890
72766W        W45191  30.501  15.259   4.007
72767W        W45192  29.699  23.023  11.555
72768W        W45193   2.805  36.029  13.076
72769W        W45194   5.319  18.997   4.232
72770W        W45195   1.984  43.876   3.854
72771W        W45196   5.869  25.974   4.129
72772W        W45197  41.752  35.357  13.830
72773W        W45198   2.787  34.348   3.626
72774W        W45199  11.522  41.435   3.814
72775W        W45200  43.247  41.304   0.431
72776W        W45201  24.640  26.211   2.745
72777W        W45202  33.866   6.509   0.484
72778W        W45203  13.141  11.824  13.328
72779W        W45204  19.548   3.657   0.492
72780W        W45205   5.937  35.898   1.706
72781W        W45206  35.168  30.443   3.283
72782W        W45207   0.154  32.657   4.209
72783W        W45208  27.971   4.616   4.101
72784W        W45209  44.007  22.457   4.386
72785W        W45210  30.259  36.352  14.968
72786W        W45211   5.208   2.759   2.439
72787W        W45212  42.793  28.505   2.707
72788W        W45213  16.596  43.438   4.062
72789W        W45214  20.133  40.104   0.673
72790W        W45215  12.331  24.216   5.041
72791W        W45216  17.125  18.095  12.950
72792W        W45217  25.344  22.727  12.930
72793W        W45218  32.132  25.801   0.698
72794W        W45219  31.541  30.921  14.962
72795W        W45220  31.580  16.962  14.888
72796W        W45221  42.799  40.789  12.071
72797W        W45222  12.843  39.919   2.507
72798W        W45223  35.792  32.991   1.940
72799W        W45224  25.170  33.921  14.485
72800W        W45225   8.954   7.874   4.931
72801W        W45226  44.049   8.204   1.855
72802W        W45227  44.553  41.182   0.720
72803W        W45228  16.704  16.099  12.077
72804W        W45229  14.138  32.562  12.932
72805W        W45230  20.146   2.502  11.169
72806W        W45231  18.286  25.205   2.263
72807W        W45232  14.872  20.944  11.652
72808W        W45233  23.274  17.104   0.416
72809W        W45234  35.382   3.137   3.769
72810W        W45235  16.070  34.889   2.808
72811W        W45236  12.908  37.298   2.695
72812W        W45237  13.808  21.456  10.736
72813W        W45238  44.401  28.760  12.537
72814W        W45239  12.652  27.167   0.840
72815W        W45240  19.995  13.245  12.676
72816W        W45241  17.594  38.592  13.466
72817W        W45242  33.849  30.455   3.667
72818W        W45243  20.189  31.226  14.289
72819W        W45244  11.220  42.842  11.204
72820W        W45245  12.811  17.125  10.639
72821W        W45246  41.182   1.746  14.816
72822W        W45247  23.038  33.414  13.514
72823W        W45248   7.799  26.758  14.440
72824W        W45249  32.967  16.968   2.008
72825W        W45250   0.260   6.004   1.348
72826W        W45251   5.908  26.867   3.506
72827W        W45252   6.213  43.966   0.543
72828W        W45253  26.286  41.494  14.418
72829W        W45254  36.383  37.052   0.682
72830W        W45255  17.507  23.854  14.914
72831W        W45256  22.339  43.714  11.099
72832W        W45257  26.893  15.605   4.667
72833W        W45258  34.583   6.341  10.660
72834W        W45259  34.568  35.887   4.228
72835W        W45260  33.533  27.960  10.987
72836W        W45261  39.362  33.035   0.069
72837W        W45262  42.284  17.589  12.189
72838W        W45263  27.561   4.604  14.690
72839W        W45264  14.664  33.985  10.995
72840W        W45265  40.412  20.729   4.896
72841W        W45266  31.544  32.777   2.288
72842W        W45267  11.760   0.771  12.076
72843W        W45268  10.709  13.950   3.882
72844W        W45269  17.305  32.400  11.085
72845W        W45270  40.132   8.827  11.800
72846W        W45271  43.025  30.343  10.979
72847W        W45272  33.630  17.231  14.559
72848W        W45273   5.658  27.582  12.930
72849W        W45274  20.877  14.691  13.496
72850W        W45275  20.001  32.385  11.162
72851W        W45276   1.033   4.402   2.765
72852W        W45277  13.598  39.348  14.067
72853W        W45278  34.359   6.660  11.659
72854W        W45279  41.438  38.413   2.224
72855W        W45280  23.210  41.346  14.929
72856W        W45281   7.806  40.487  14.968
72857W        W45282  25.625  23.038   1.074
72858W        W45283  24.176  29.056  10.414
72859W        W45284  30.981   0.972  12.077
72860W        W45285  11.352  24.397   3.656
72861W        W45286  38.790  17.813  10.724
72862W        W45287  14.361  34.995  12.132
72863W        W45288   0.002  20.677   3.378
72864W        W45289  39.679  13.290   2.865
72865W        W45290  14.038  43.770   0.298
72866W        W45291  40.332  15.059   3.676
72867W        W45292  12.625  34.098   2.337
72868W        W45293  16.076  41.798  12.884
72869W        W45294   7.750  16.647  14.186
72870W        W45295  28.503  28.595   4.743
72871W        W45296  26.023  31.448   3.927
72872W        W45297   8.672  18.491   4.659
72873W        W45298  31.158  18.874  11.107
72874W        W45299  20.808  27.696  14.574
72875W        W45300  28.694  44.005  14.484
72876W        W45301  14.993  39.381   0.483
72877W        W45302  12.419   9.701  11.513
72878W        W45303  44.050  38.023  13.806
72879W        W45304  41.597   7.512  12.219
72880W        W45305  37.484   1.989   2.002
72881W        W45306  43.283   2.695  12.064
72882W        W45307  37.875   2.280  13.433
72883W        W45308  10.294  25.516  11.597
72884W        W45309  21.810  26.366  11.659
72885W        W45310  28.096  22.703   5.084
72886W        W45311  22.942  11.583   0.693
72887W        W45312  32.458  33.539   4.765
72888W        W45313  31.495  37.592  12.406
72889W        W45314   3.968  20.986   0.266
72890W        W45315  15.649  22.805   3.646
72891W        W45316  11.430   6.875  10.801
72892W        W45317  23.100  42.435   4.706
72893W        W45318  30.174  36.923   1.330
72894W        W45319  43.345  31.171  11.345
72895W        W45320  24.368   2.191  11.760
72896W        W45321  41.665  13.311  14.832
72897W        W45322  20.053  28.977  12.017
72898W        W45323   4.681  40.449  11.877
72899W        W45324  30.163  38.457  12.404
72900W        W45325  43.109  31.942  14.063
72901W        W45326   8.206  35.462  12.967
72902W        W45327  36.039   4.788  12.121
72903W        W45328  19.552  37.610  12.959
72904W        W45329  43.212  32.389   4.323
72905W        W45330   7.495  34.051  13.973
72906W        W45331  13.044  10.793   2.605
72907W        W45332  10.983  40.212  14.696
72908W        W45333  22.211  11.737   4.494
72909W        W45334  35.192  33.548  11.497
72910W        W45335   0.504  31.665   2.385
72911W        W45336  18.922  14.242   0.508
72912W        W45337  44.332   8.806  10.060
72913W        W45338  44.429  28.719   0.730
72914W        W45339  22.280  33.444  14.892
72915W        W45340  31.539  18.307  14.030
72916W        W45341  14.320  26.674  10.582
72917W        W45342  31.976  27.032   1.129
72918W        W45343  34.327  42.762  12.920
72919W        W45344  36.439  33.350  11.141
72920W        W45345  41.894  41.040  11.168
72921W        W45346  24.550  10.238  10.271
72922W        W45347  39.323  14.553  10.754
72923W        W45348  42.961  33.465   4.050
72924W        W45349  25.261  16.078  11.171
72925W        W45350  21.322  10.910  12.454
72926W        W45351  23.160  19.030  14.854
72927W        W45352  34.835  21.675  14.563
72928W        W45353  37.537   8.723   1.379
72929W        W45354  43.724  37.244  11.048
72930W        W45355  20.680  34.202  10.932
72931W        W45356  28.677  18.701  11.154
72932W        W45357  18.169  15.620  12.863
72933W        W45358  13.844  12.872   2.293
72934W        W45359  15.181  28.513   0.661
72935W        W45360  40.857   2.364   3.685
72936W        W45361  26.935  34.978   0.327
72937W        W45362  40.620  42.765   3.666
72938W        W45363  26.275  23.171   1.453
72939W        W45364  23.076   0.479  14.970
72940W        W45365  29.890  35.107  13.356
72941W        W45366  38.336  17.433   1.341
72942W        W45367  43.987  18.163  10.704
72943W        W45368   5.304  12.706   4.640
72944W        W45369   6.224   1.283  12.350
72945W        W45370  19.440  18.061   0.862
72946W        W45371   6.318   0.243  13.850
72947W        W45372   4.942  36.901   0.719
72948W        W45373   1.359  11.711  11.596
72949W        W45374  20.992  13.541   3.633
72950W        W45375  22.423  23.133  11.984
72951W        W45376  31.370  22.613   2.308
72952W        W45377   0.901  28.246  13.966
72953W        W45378  38.850  39.768   0.279
72954W        W45379  15.246  12.371  12.407
72955W        W45380  26.984  21.605   3.283
72956W        W45381  17.552   8.357   3.282
72957W        W45382  41.330  13.111   1.287
72958W        W45383  15.725  32.669   2.709
72959W        W45384   8.457  18.635  12.986
72960W        W45385  30.150   9.318   4.228
72961W        W45386   1.861  19.096   1.013
72962W        W45387   2.263  14.105   0.468
72963W        W45388  32.078  44.390   3.709
72964W        W45389  34.978  20.636  13.123
72965W        W45390  32.867  19.185  13.087
72966W        W45391  28.963   6.378   1.367
72967W        W45392  13.384  35.264  12.595
72968W        W45393  22.119  20.163  14.045
72969W        W45394  44.794  21.744  11.411
72970W        W45395  43.865  15.018  11.455
72971W        W45396   9.439  34.359   0.251
72972W        W45397  17.042   6.495  12.538
72973W        W45398  37.124  11.624   5.069
72974W        W45399  15.967  14.541   1.850
72975W        W45400  23.710   6.011  14.650
72976W        W45401   0.382  21.928  14.083
72977W        W45402   2.691  24.739   1.157
72978W        W45403  35.638  19.644   2.087
72979W        W45404  31.421  15.894   3.821
72980W        W45405  21.237  27.187  11.464
72981W        W45406  23.619  30.134   9.825
72982W        W45407  42.825   1.253   2.219
72983W        W45408  32.850   5.272   3.373
72984W        W45409  24.155  32.613  13.015
72985W        W45410  17.798  36.016  13.972
72986W        W45411  32.912  35.286   1.019
72987W        W45412  35.463  40.051  10.934
72988W        W45413   2.331  22.622   1.190
72989W        W45414  31.606  34.982   4.161
72990W        W45415  40.915  40.311   2.111
72991W        W45416  29.512   5.480  10.746
72992W        W45417   3.229   0.407  13.376
72993W        W45418  27.999  18.781  13.934
72994W        W45419  35.047  11.150  14.451
72995W        W45420  17.658  30.415   3.073
72996W        W45421   3.319   5.004   1.601
72997W        W45422   5.456  20.532   3.802
72998W        W45423  27.921   3.949  12.021
72999W        W45424   7.903  41.092  14.700
73000W        W45425   6.802  19.833   1.949
73001W        W45426   7.126  40.752   2.299
73002W        W45427  38.088  23.799   3.214
73003W        W45428  10.751   3.147  13.330
73004W        W45429  10.837   0.798  12.042
73005W        W45430  23.002   1.533  14.932
73006W        W45431   8.044  18.852  11.991
73007W        W45432  39.700  36.761   3.217
73008W        W45433  15.637  12.384  12.068
73009W        W45434  25.423  36.346   4.721
73010W        W45435  28.937   6.063   1.784
73011W        W45436   9.351  36.761  11.929
73012W        W45437  15.629  22.747  10.868
73013W        W45438  34.557  22.337  11.388
73014W        W45439   3.262  44.231   3.117
73015W        W45440  36.451   5.441   1.580
73016W        W45441  11.716  10.343  12.643
73017W        W45442   3.069  41.410   0.908
73018W        W45443  13.685  40.766  10.711
73019W        W45444  19.834   1.235  14.431
73020W        W45445  29.712  38.102   0.348
73021W        W45446  30.419  17.008  10.751
73022W        W45447   0.282   0.736  11.614
73023W        W45448  34.607  16.801   3.142
73024W        W45449  16.556   6.845  13.332
73025W        W45450  12.305  21.286  14.409
73026W        W45451  17.726  15.616  10.509
73027W        W45452   3.818   0.737   4.550
73028W        W45453  21.162   2.826   3.405
73029W        W45454  21.644  30.323   4.557
73030W        W45455   7.685   8.749   2.298
73031W        W45456   3.392  13.922  13.283
73032W        W45457  36.501  10.485   4.265
73033W        W45458  30.021  27.587   1.895
73034W        W45459  31.087   1.011  14.579
73035W        W45460  42.724  34.506   2.761
73036W        W45461  21.179   4.412   0.978
73037W        W45462   0.684  30.660   4.674
73038W        W45463  13.049   0.489  14.306
73039W        W45464  11.641  14.326  13.967
73040W        W45465  40.483  10.598   0.234
73041W        W45466   0.745  23.182   2.111
73042W        W45467  35.946  28.644  11.446
73043W        W45468   0.349   7.861  13.829
73044W        W45469   3.189   0.239   2.299
73045W        W45470  12.555  18.646   3.369
73046W        W45471  23.391   2.802   2.626
73047W        W45472  23.246  20.795   0.381
73048W        W45473   5.909  19.539   2.360
73049W        W45474  42.894  33.264  12.022
73050W        W45475  44.998  24.297  11.207
73051W        W45476  19.602  26.915  12.813
73052W        W45477  29.839  44.832   4.118
73053W        W45478  39.468  30.958   0.480
73054W        W45479   6.176  19.284  13.089
73055W        W45480  36.195  34.379   2.326
73056W        W45481  27.530  18.724   2.877
73057W        W45482  23.000  37.934  12.214
73058W        W45483  20.093  16.722   2.699
73059W        W45484  25.293  11.393   1.711
73060W        W45485  10.825  18.064  11.219
73061W        W45486  20.766  35.111  10.650
73062W        W45487   0.896  41.519   0.170
73063W        W45488   3.267  14.519  12.403
73064W        W45489   6.646  43.249  12.007
73065W        W45490   0.814  29.894   4.178
73066W        W45491  24.593   4.045   1.459
73067W        W45492  36.687  38.348   3.068
73068W        W45493  36.438  36.080   4.425
73069W        W45494  23.093   8.111   3.371
73070W        W45495  21.696  22.495  11.022
73071W        W45496  29.450  43.955   1.731
73072W        W45497  18.570  31.412   0.493
73073W        W45498  26.456  21.740  11.460
73074W        W45499  24.773   5.753  10.558
73075W        W45500  29.445  23.141   3.486
73076W        W45501  19.787  20.026   1.676
73077W        W45502   4.617  16.724  13.125
73078W        W45503   3.183  28.401   0.283
73079W        W45504   1.256  37.512  11.067
73080W        W45505  13.293  11.987   0.304
73081W        W45506  10.414  18.856  11.108
73082W        W45507   6.874  13.638   1.301
73083W        W45508   4.554   0.453  10.639
73084W        W45509  43.544  27.089   1.361
73085W        W45510  11.485   2.744   0.359
73086W        W45511  15.779  15.467   2.247
73087W        W45512  19.512   3.040  14.838
73088W        W45513   0.130  34.925  10.914
73089W        W45514   9.462  34.845  14.468
73090W        W45515  39.862  14.551  12.851
73091W        W45516   2.952  36.822   4.832
73092W        W45517  27.590  10.586  12.934
73093W        W45518   5.255   8.726  14.270
73094W        W45519   9.901  16.648   3.694
73095W        W45520  27.680  14.351  10.740
73096W        W45521  34.375   3.438  11.619
73097W        W45522  36.446  43.859   0.689
73098W        W45523  21.112  39.455   2.478
73099W        W45524  34.320  41.037  14.295
73100W        W45525  27.470   7.713   2.604
73101W        W45526  24.737  22.532   2.262
73102W        W45527  35.946  37.016   2.515
73103W        W45528  10.167  42.513   0.459
73104W        W45529   9.008  18.717  12.150
73105W        W45530  33.851  28.864  10.635
73106W        W45531  12.973  32.581  13.856
73107W        W45532   6.412   8.173   3.608
73108W        W45533  27.159  19.755   0.760
73109W        W45534  21.546  23.252  11.660
73110W        W45535  36.069  42.825   2.690
73111W        W45536  22.779   3.756  10.697
73112W        W45537  37.348  34.001  10.276
73113W        W45538  24.244  39.426   1.383
73114W        W45539  42.361  19.232  14.985
73115W        W45540  13.187  19.909  11.347
73116W        W45541  41.246  15.778   0.383
73117W        W45542  36.040   0.435   2.222
73118W        W45543   3.629  10.708   2.855
73119W        W45544  10.711  10.642  11.333
73120W        W45545   3.752  43.410   1.357
73121W        W45546   0.002  24.488  14.115
73122W        W45547   9.281   5.475  13.350
73123W        W45548  15.072   6.208   0.205
73124W        W45549  25.635  20.739   2.782
73125W        W45550  28.956  44.435   0.338
73126W        W45551  26.468  14.117   2.182
73127W        W45552   9.749  32.173   2.292
73128W        W45553   6.403  30.864   3.320
73129W        W45554  13.156   3.915   0.972
73130W        W45555   5.208   4.375   4.950
73131W        W45556   8.273  18.275   3.878
73132W        W45557  32.954  41.658  12.081
73133W        W45558   8.981  18.588  12.997
73134W        W45559  43.715  14.246  10.681
73135W        W45560  37.480  39.310   0.841
73136W        W45561   9.623  21.232   4.649
73137W        W45562  40.702   9.098  10.229
73138W        W45563   3.088  26.586   2.457
73139W        W45564  37.498  22.666  14.076
73140W        W45565  40.297  30.296  12.930
73141W        W45566  40.524  19.314  10.681
73142W        W45567   9.753  25.872  12.189
73143W        W45568  44.700   0.302   2.246
73144W        W45569   3.736  44.724   2.295
73145W        W45570  34.162  15.108   3.861
73146W        W45571  42.541   8.260  14.426
73147W        W45572  18.460  34.941  11.082
73148W        W45573  12.220  38.990   4.317
73149W        W45574  10.791  44.034   1.884
73150W        W45575  23.216  12.736   0.744
73151W        W45576  34.162  20.020  13.909
73152W        W45577  26.674  38.287   1.653
73153W        W45578  42.320  39.501   4.127
73154W        W45579  30.027   2.220  11.426
73155W        W45580  41.930  43.318  14.461
73156W        W45581   2.024  41.956   1.978
73157W        W45582  38.337  23.478  10.905
73158W        W45583  37.629  14.021   1.444
73159W        W45584  13.812  38.124   4.005
73160W        W45585  14.984  23.180   4.153
73161W        W45586  42.072  33.011  13.821
73162W        W45587  27.917  22.533   2.850
73163W        W45588  33.330  32.360  11.990
73164W        W45589  31.669   2.916   0.675
73165W        W45590  27.468  26.236   0.534
73166W        W45591  34.571  32.209  11.532
73167W        W45592  43.374  36.907  13.451
73168W        W45593  19.710   0.018   2.840
73169W        W45594   1.350   8.890  14.802
73170W        W45595  29.865   6.389   2.848
73171W        W45596  32.700  38.836   1.836
73172W        W45597  38.305  22.549   3.727
73173W        W45598   1.216  15.659   2.731
73174W        W45599  12.746  41.508   2.880
73175W        W45600   7.485  34.415  10.474
73176W        W45601  13.465   4.021  12.578
73177W        W45602  11.416  26.210  13.375
73178W        W45603  30.115  17.239   3.776
73179W        W45604  41.947  31.155   0.036
73180W        W45605   5.213  16.502   1.219
73181W        W45606  19.803  20.546  14.580
73182W        W45607  28.452  12.744  14.869
73183W        W45608  13.693  26.241  13.023
73184W        W45609   2.816  32.705   1.472
73185W        W45610  10.161  14.327   0.342
73186W        W45611  41.304  12.143  11.923
73187W        W45612  15.776  12.306  10.994
73188W        W45613   8.613  23.673  11.971
73189W        W45614  31.104  26.583  12.631
73190W        W45615  40.583  11.307  10.619
73191W        W45616  12.868  10.711  14.381
73192W        W45617  11.823  15.563   4.241
73193W        W45618  40.378   5.739   2.612
73194W        W45619  13.630   9.210  14.462
73195W        W45620  13.910  41.755  12.523
73196W        W45621  35.917  34.059  14.991
73197W        W45622  25.034  26.171   0.425
73198W        W45623  38.393  27.688  10.623
73199W        W45624   3.354  41.489   3.123
73200W        W45625  32.850  30.122   1.085
73201W        W45626  15.221  13.838  11.463
73202W        W45627  13.846  31.418   0.818
73203W        W45628   6.714  36.555  12.979
73204W        W45629  31.699  33.331  11.223
73205W        W45630  13.341  39.849   3.136
73206W        W45631  31.456  25.148   4.613
73207W        W45632  10.198  14.898   3.130
73208W        W45633  21.532  13.518  13.976
73209W        W45634  36.474   5.271  13.530
73210W        W45635   0.403   9.821  13.940
73211W        W45636   0.465  27.866  12.486
73212W        W45637   3.432  41.734  11.088
73213W        W45638  17.609   6.283   2.777
73214W        W45639  33.971  43.993   4.515
73215W        W45640   5.968  34.010   1.810
73216W        W45641   1.166   8.919  10.740
73217W        W45642  29.912  23.202   3.246
73218W        W45643  10.187  11.399   4.881
73219W        W45644  24.594  29.477  14.751
73220W        W45645   9.168   3.902   2.945
73221W        W45646   1.511  17.167   4.150
73222W        W45647  43.356  18.465   0.276
73223W        W45648  10.099  24.720  13.937
73224W        W45649   9.913   6.509   2.240
73225W        W45650  10.889  23.302   0.973
73226W        W45651  37.077  14.007  12.879
73227W        W45652   1.801  13.772  12.172
73228W        W45653  11.417  19.679  11.226
73229W        W45654  19.161  42.323   2.387
73230W        W45655  11.856   9.215   3.180
73231W        W45656  14.311  17.046   0.937
73232W        W45657  26.257   1.116   3.117
73233W        W45658   5.016  12.799  10.760
73234W        W45659  10.438  16.685   2.640
73235W        W45660   6.189  20.623  12.990
73236W        W45661  27.220   5.247   4.475
73237W        W45662   4.395  22.408  11.928
73238W        W45663  26.156  19.336   4.589
73239W        W45664   5.207  23.557  11.194
73240W        W45665  19.285  44.911   3.225
73241W        W45666  44.437  15.098   4.508
73242W        W45667  36.067  15.130  12.955
73243W        W45668  12.518  19.808  12.346
73244W        W45669  16.225   3.920  11.650
73245W        W45670  43.736  35.934   0.239
73246W        W45671  12.295  23.608  11.119
73247W        W45672   5.980  16.932  14.066
73248W        W45673  14.021  17.503   0.754
73249W        W45674  36.090  42.650  10.609
73250W        W45675  34.030   0.078   0.283
73251W        W45676  37.906  23.569  12.539
73252W        W45677  43.876  14.860   3.162
73253W        W45678   0.816  39.751   2.286
73254W        W45679  43.459   4.764  12.127
73255W        W45680   1.995  43.245   3.618
73256W        W45681  25.034   5.848  12.032
73257W        W45682  44.403  13.159   2.862
73258W        W45683   8.772  36.418  12.137
73259W        W45684  19.709  25.213  14.869
73260W        W45685  20.063  10.727  11.491
73261W        W45686  29.302  11.631   3.157
73262W        W45687  36.688  32.038   0.788
73263W        W45688  36.888  37.583  11.424
73264W        W45689  37.424  28.899  13.076
73265W        W45690  13.642  16.914  13.449
73266W        W45691  12.170  12.176  11.587
73267W        W45692  38.601   8.293  10.202
73268W        W45693  18.093  41.028  14.443
73269W        W45694   5.903  18.259   1.215
73270W        W45695  13.569  44.972  11.141
73271W        W45696  14.657  22.422   5.041
73272W        W45697  16.142  16.348   2.258
73273W        W45698  14.223  11.834  14.017
73274W        W45699  23.536  23.519   4.656
73275W        W45700  33.881  33.409   0.472
73276W        W45701   7.870  30.376  13.057
73277W        W45702  38.012  13.092  12.518
73278W        W45703  20.177  21.762   3.307
73279W        W45704  10.614  22.504   0.781
73280W        W45705  20.520   2.177  12.018
73281W        W45706  40.623  33.084  11.053
73282W        W45707   3.081  36.459  10.954
73283W        W45708  24.279  19.080   3.135
73284W        W45709  10.379   6.102   0.798
73285W        W45710  11.212  43.257   1.836
73286W        W45711  34.725  24.708  14.532
73287W        W45712  15.610   5.315   0.952
73288W        W45713  38.065  14.379   4.565
73289W        W45714  23.076  17.571   0.302
73290W        W45715  18.109  25.695   2.084
73291W        W45716  14.745  24.756  11.133
73292W        W45717  29.466  41.620   0.317
73293W        W45718  24.738   2.937   3.793
73294W        W45719  30.180   1.765  13.415
73295W        W45720  30.055  36.431   0.465
73296W        W45721  27.443   0.399  13.824
73297W        W45722  31.439   4.235   1.714
73298W        W45723  28.696  43.357  10.677
73299W        W45724  30.101  41.159  14.483
73300W        W45725  22.174  31.663  14.691
73301W        W45726   5.523  35.866   4.021
73302W        W45727   1.704  10.095   0.860
73303W        W45728  43.363  44.232   0.238
73304W        W45729   2.235  19.604   2.924
73305W        W45730  26.585  18.845  14.085
73306W        W45731  15.022  18.276  12.295
73307W        W45732  40.785  12.248   1.415
73308W        W45733  26.803  10.374  13.944
73309W        W45734  32.607  40.878   0.864
73310W        W45735  13.066  30.920  11.175
73311W        W45736  33.500  20.935   3.649
73312W        W45737  31.625  37.495   2.616
73313W        W45738   9.699  31.055  11.063
73314W        W45739  12.402  32.017   4.223
73315W        W45740  11.536  32.434   2.800
73316W        W45741  36.023  33.421   4.657
73317W        W45742  36.436  30.460   4.493
73318W        W45743  23.312   4.432  13.518
73319W        W45744  18.151  23.677  10.635
73320W        W45745  36.059  13.702  14.390
73321W        W45746  38.390  25.733  13.868
73322W        W45747  36.471   1.662  14.626
73323W        W45748  18.553   9.655  12.103
73324W        W45749  34.591  28.232  12.900
73325W        W45750  44.747  40.098   0.554
73326W        W45751   0.875  10.013  12.128
73327W        W45752   6.249  32.681  13.860
73328W        W45753  17.356   4.932   0.462
73329W        W45754  25.157  43.504  12.987
73330W        W45755   6.846  38.735  11.518
73331W        W45756  25.443  40.656  11.948
73332W        W45757  16.986  29.377  13.375
73333W        W45758  22.533  17.309  14.219
73334W        W45759  25.174  39.422  10.386
73335W        W45760  20.620  18.164  13.156
73336W        W45761  27.406   5.098  10.094
73337W        W45762  43.904  27.828  14.816
73338W        W45763  11.248  10.617  12.726
73339W        W45764  19.288  43.242  11.058
73340W        W45765   9.943   2.362  12.089
73341W        W45766  36.455   2.760   4.888
73342W        W45767  14.322   4.864  14.775
73343W        W45768  18.379  32.380   0.912
73344W        W45769  34.030  22.700  12.427
73345W        W45770  22.731   5.926   0.402
73346W        W45771  10.170  37.033  11.141
73347W        W45772   7.767   4.959   1.289
73348W        W45773   5.578  40.897  11.131
73349W        W45774  35.500  40.693  11.943
73350W        W45775  12.285   4.233  13.700
73351W        W45776  28.122  32.919  13.796
73352W        W45777  39.115  24.175  14.001
73353W        W45778  19.565  12.098  10.480
73354W        W45779  29.430  43.827   2.239
73355W        W45780  15.655   4.040  12.850
73356W        W45781   4.543  29.762   0.324
73357W        W45782  24.664  16.160   4.616
73358W        W45783  25.549  19.564   1.165
73359W        W45784  35.390   5.226   2.362
73360W        W45785  28.216  27.627  14.767
73361W        W45786  34.209  38.105  11.125
73362W        W45787  33.636  21.902  13.536
73363W        W45788   4.082  20.646  12.367
73364W        W45789  21.104  13.732   2.124
73365W        W45790  18.628  31.188   4.051
73366W        W45791  23.564  37.329  13.286
73367W        W45792  21.529  15.644   2.313
73368W        W45793   0.839  20.021  13.258
73369W        W45794   7.955   9.077  14.276
73370W        W45795  12.713  28.719   4.929
73371W        W45796  14.591  25.067   3.983
73372W        W45797  35.583  19.964  13.827
73373W        W45798  36.992  18.707  11.041
73374W        W45799  26.466   3.935  14.392
73375W        W45800  19.816   0.189  11.432
73376W        W45801   8.521  28.896  12.958
73377W        W45802   9.809  28.357  11.110
73378W        W45803  38.623  12.247   1.302
73379W        W45804   6.136  28.997  13.459
73380W        W45805  38.455  42.589   0.337
73381W        W45806  35.880  29.648   0.639
73382W        W45807  13.383  33.338  12.547
73383W        W45808  43.158  44.492  11.542
73384W        W45809  36.054  34.840  13.314
73385W        W45810   7.831  15.734   0.200
73386W        W45811  22.428  15.591  12.487
73387W        W45812   2.008  18.229   3.616
73388W        W45813   4.826  37.154   1.154
73389W        W45814  39.370  32.818  11.449
73390W        W45815   2.359  34.044   4.648
73391W        W45816  33.101   7.270  11.737
73392W        W45817  16.579   6.245   2.933
73393W        W45818  41.662  35.607   2.757
73394W        W45819  26.010  27.675  10.628
73395W        W45820  22.343  10.178   0.442
73396W        W45821  43.433   7.813  14.868
73397W        W45822  30.719  29.118  13.575
73398W        W45823   3.286  42.895   2.382
73399W        W45824   2.960  41.448   3.873
73400W        W45825  28.068  43.134  13.409
73401W        W45826  20.544  16.569   1.835
73402W        W45827  28.099   8.085  11.493
73403W        W45828   2.846   4.909   0.540
73404W        W45829  16.813  19.820   0.483
73405W        W45830  42.125  29.582   4.384
73406W        W45831  16.636  13.445  13.169
73407W        W45832  33.522  38.818  11.084
73408W        W45833  21.052  18.013  10.837
73409W        W45834  18.999  25.682  11.132
73410W        W45835  33.455  16.726  14.551
73411W        W45836  29.899  35.302   3.723
73412W        W45837  33.608  14.229   4.903
73413W        W45838  21.455  39.971  11.139
73414W        W45839  13.156   3.028   1.179
73415W        W45840   3.419  20.496   3.772
73416W        W45841   8.675  34.543   0.909
73417W        W45842  18.243  38.430  12.335
73418W        W45843  11.587  28.079   0.707
73419W        W45844  18.764  17.026   3.710
73420W        W45845  16.389  28.298  13.479
73421W        W45846  32.909   7.262  12.382
73422W        W45847  21.049  24.155  14.422
73423W        W45848  25.887  17.861  13.590
73424W        W45849  38.037   2.255   1.299
73425W        W45850   4.294  20.148   3.185
73426W        W45851   4.025   1.351  14.657
73427W        W45852  22.279  38.918   4.739
73428W        W45853  28.715   2.699   3.356
73429W        W45854  15.255  34.044  10.684
73430W        W45855  10.144  11.723   3.702
73431W        W45856  27.942  35.372  14.969
73432W        W45857   8.981  19.168  11.027
73433W        W45858   6.646  27.610   0.954
73434W        W45859  43.268  33.416   0.238
73435W        W45860  24.900   6.611  12.394
73436W        W45861  28.537  31.188   4.781
73437W        W45862  44.199   1.979  13.955
73438W        W45863  29.070  14.586  12.815
73439W        W45864  13.569   4.864  11.790
73440W        W45865  12.330  20.559  13.248
73441W        W45866  39.844   7.033   2.142
73442W        W45867   7.570  26.251  12.081
73443W        W45868  24.176   0.952   0.872
73444W        W45869  24.278  43.543  14.487
73445W        W45870  29.075  21.116  14.754
73446W        W45871  10.043  30.107   1.944
73447W        W45872  37.722  21.800  12.896
73448W        W45873  24.718  33.643   2.612
73449W        W45874  27.536  32.040  10.855
73450W        W45875  32.042  19.058  13.336
73451W        W45876   5.967  39.875   4.477
73452W        W45877  44.255  42.392  13.707
73453W        W45878   0.327  33.597  14.921
73454W        W45879  16.594  34.554   3.095
73455W        W45880  39.114  17.098  12.835
73456W        W45881  34.113   9.474   0.366
73457W        W45882   9.078  39.838  14.331
73458W        W45883  12.294  22.715   2.735
73459W        W45884  34.500   2.487  12.510
73460W        W45885  19.474  21.500  13.034
73461W        W45886  30.525  29.081  12.567
73462W        W45887  41.829   7.474   1.246
73463W        W45888  22.845   9.835  11.034
73464W        W45889  28.162  44.879  12.826
73465W        W45890  41.350  33.850  11.282
73466W        W45891  31.970  42.028  10.753
73467W        W45892  39.756  16.603  13.088
73468W        W45893   1.174  35.173   0.842
73469W        W45894   1.908   8.788  14.000
73470W        W45895  10.748  21.945   9.784
73471W        W45896  35.408  10.857   3.686
73472W        W45897  29.477  18.588  11.579
73473W        W45898  25.054  17.167  13.827
73474W        W45899  17.039  10.814  13.582
73475W        W45900  41.972  22.222  12.190
73476W        W45901   0.545   4.668  13.929
73477W        W45902   0.871   7.177   2.843
73478W        W45903  38.065  20.959  11.934
73479W        W45904  41.244   9.883  13.983
73480W        W45905  32.285  21.322   3.329
73481W        W45906   7.889  33.028  14.779
73482W        W45907  40.046  21.342  11.359
73483W        W45908   5.155  43.226  14.336
73484W        W45909  13.820  33.781  14.358
73485W        W45910  23.091  24.941   1.135
73486W        W45911   4.413   8.066  13.757
73487W        W45912  29.140  11.637   4.362
73488W        W45913  36.050  38.512  10.539
73489W        W45914  16.553  22.586   0.872
73490W        W45915   9.991  18.562  11.179
73491W        W45916  23.293  18.319  11.055
73492W        W45917  39.591  12.833   4.195
73493W        W45918   0.872  19.282  11.129
73494W        W45919  14.255  24.301   1.199
73495W        W45920   2.769   4.293  11.398
73496W        W45921  31.047  32.610   2.160
73497W        W45922   3.706  31.859  12.104
73498W        W45923  30.674  33.612   0.262
73499W        W45924  35.350  44.819  10.705
73500W        W45925  16.115  25.447   0.786
73501W        W45926   8.991   0.705  10.697
73502W        W45927   0.555  33.927  10.557
73503W        W45928  35.243  38.639  11.027
73504W        W45929  20.665   8.150   1.315
73505W        W45930  27.574  20.291  14.397
73506W        W45931  15.569   1.634  13.919
73507W        W45932   3.304   7.446  14.874
73508W        W45933  17.077   2.847  10.712
73509W        W45934  28.367  15.129  13.445
73510W        W45935  12.697  13.240   0.728
73511W        W45936  23.722   3.017  13.350
73512W        W45937   9.429  40.533  14.982
73513W        W45938   3.229  19.056   0.386
73514W        W45939  10.178  30.416   0.516
73515W        W45940  42.558  11.877  12.427
73516W        W45941   9.967  34.626  14.265
73517W        W45942  23.289   9.421  12.494
73518W        W45943  14.151   1.795  10.197
73519W        W45944   4.753   7.220  13.336
73520W        W45945  39.030  21.464   0.830
73521W        W45946  38.281  44.787   1.356
73522W        W45947  29.404  33.695  14.791
73523W        W45948  24.652  29.457   4.164
73524W        W45949   9.872   6.413   3.209
73525W        W45950  23.742  44.528   4.173
73526W        W45951  25.730  14.881  11.974
73527W        W45952   2.323  34.391   3.825
73528W        W45953  20.206   2.210  11.591
73529W        W45954   2.228   7.831  10.715
73530W        W45955   2.124  11.915  11.845
73531W        W45956  37.015  12.895   0.910
73532W        W45957  20.164  17.749  13.318
73533W        W45958  39.645   9.253   4.574
73534W        W45959  35.997  25.782   1.271
73535W        W45960  16.826  22.209   3.933
73536W        W45961  27.167  40.489  14.446
73537W        W45962  12.739  42.439  11.288
73538W        W45963  27.635  36.232   2.473
73539W        W45964  10.847  15.568   1.430
73540W        W45965  10.693  25.978   4.201
73541W        W45966   2.246  32.664  11.145
73542W        W45967  18.037  40.308   3.245
73543W        W45968  32.409  29.547   0.755
73544W        W45969  35.543  33.217   1.182
73545W        W45970  44.504  32.117   1.264
73546W        W45971  38.466  12.068   4.135
73547W        W45972  42.309   0.925  13.952
73548W        W45973  21.297  13.920  11.585
73549W        W45974  12.306  15.499   1.403
73550W        W45975  39.869  23.843  13.590
73551W        W45976  32.552  23.942   2.483
73552W        W45977   4.293   7.233   2.651
73553W        W45978  37.883  23.689  14.734
73554W        W45979   7.800  17.120  13.881
73555W        W45980  43.514  27.598   4.467
73556W        W45981  30.142  39.532   2.714
73557W        W45982  18.900  28.443  10.635
73558W        W45983  10.810   3.663   4.151
73559W        W45984   2.471  42.195  11.085
73560W        W45985  18.860   8.612   3.836
73561W        W45986  35.498   0.517  14.739
73562W        W45987  28.664  12.696  11.522
73563W        W45988  16.271   4.629  14.882
73564W        W45989  30.605  32.075  10.932
73565W        W45990  16.946  25.057   4.683
73566W        W45991  39.915  26.232  11.562
73567W        W45992  28.981  22.715  12.692
73568W        W45993   0.986  29.228   0.809
73569W        W45994  30.301  20.756   4.951
73570W        W45995  31.830   4.336  13.295
73571W        W45996  24.048   6.202  11.673
73572W        W45997  39.401  38.614  12.565
73573W        W45998   0.583  31.007  11.929
73574W        W45999  16.309  32.384   0.415
73575W        W46000  11.358  17.165  10.532
73576W        W46001  19.957  11.323  11.408
73577W        W46002  15.705  35.997   1.606
73578W        W46003  25.024  29.524   1.999
73579W        W46004  25.111  12.631   2.353
73580W        W46005  37.436   6.625  12.201
73581W        W46006  42.921  26.624   0.451
73582W        W46007   3.034  10.819  13.312
73583W        W46008  27.098  32.210   3.868
73584W        W46009   4.497  24.130   2.748
73585W        W46010  32.066  17.408  12.608
73586W        W46011  14.112   3.837   1.344
73587W        W46012  15.252  22.704   2.910
73588W        W46013  29.010  12.075  10.463
73589W        W46014  34.833  43.068   0.059
73590W        W46015  11.146  21.744   3.908
73591W        W46016  33.936   0.491  14.952
73592W        W46017  41.725   9.773  13.836
73593W        W46018  42.056  18.788   0.799
73594W        W46019  13.806  25.510  14.700
73595W        W46020  32.880  13.533   0.939
73596W        W46021   8.126   6.218   0.832
73597W        W46022  12.306  42.967  12.590
73598W        W46023  27.076  34.035  12.831
73599W        W46024   5.761  40.426   1.763
73600W        W46025   1.877   7.452   2.939
73601W        W46026   8.923  44.240  14.741
73602W        W46027  32.029  34.118   2.433
73603W        W46028  41.875   3.070  11.586
73604W        W46029  22.755  16.827   4.720
73605W        W46030  39.583  40.408   0.884
73606W        W46031   6.640  36.052  12.888
73607W        W46032  42.078   6.180  11.515
73608W        W46033  22.464  11.740  12.957
73609W        W46034  29.545  14.248  13.999
73610W        W46035  40.621  41.764  11.523
73611W        W46036  10.184  18.233   4.066
73612W        W46037  18.678   4.408   4.404
73613W        W46038  38.046  32.571   4.743
73614W        W46039  28.048  36.284   2.166
73615W        W46040   9.043   1.765   3.327
73616W        W46041  16.261  43.139   0.545
73617W        W46042  38.705  28.995  11.338
73618W        W46043  43.492  10.164  11.559
73619W        W46044  18.208   6.793   3.455
73620W        W46045  37.672  31.375  14.236
73621W        W46046  35.113  40.004  13.834
73622W        W46047   9.618  20.644   1.909
73623W        W46048  28.916  22.223   1.410
73624W        W46049  16.256  20.734  14.759
73625W        W46050  41.922  35.439  14.348
73626W        W46051  23.078  43.538   2.244
73627W        W46052   0.334  34.148   3.223
73628W        W46053  21.924  31.852   4.662
73629W        W46054   6.660   5.383   1.848
73630W        W46055  28.096  43.019  12.897
73631W        W46056   9.654  17.809   3.281
73632W        W46057   4.510  31.372  13.461
73633W        W46058  34.286   8.647  11.082
73634W        W46059   6.667  42.420  11.606
73635W        W46060  30.570   0.205   3.154
73636W        W46061  17.883  25.691  14.753
73637W        W46062   0.459  35.481  12.133
73638W        W46063  31.302  12.725  10.753
73639W        W46064  23.430  12.876   4.411
73640W        W46065  16.990   9.632  10.670
73641W        W46066  34.960  14.160   1.251
73642W        W46067   9.288  35.314   4.549
73643W        W46068  10.330  11.644  12.881
73644W        W46069  43.125  22.611   4.133
73645W        W46070  38.159  11.734   0.494
73646W        W46071  35.404  15.010  14.015
73647W        W46072   9.749  39.017  11.587
73648W        W46073  34.898  24.016  11.209
73649W        W46074  26.025   8.111   1.780
73650W        W46075   2.481   5.837  13.415
73651W        W46076  41.543  24.272   3.627
73652W        W46077   4.213  36.093   2.297
73653W        W46078  22.265  42.648  11.587
73654W        W46079  17.791  23.183   1.691
73655W        W46080  35.088   9.113  12.056
73656W        W46081   6.080  41.725  12.907
73657W        W46082  35.229  18.121   1.328
73658W        W46083  15.639  35.085   3.316
73659W        W46084  11.926  31.410   3.541
73660W        W46085  18.637  22.181  14.544
73661W        W46086  40.082  13.666   4.108
73662W        W46087  40.242  16.500   0.301
73663W        W46088  44.433  14.058   4.628
73664W        W46089  26.093  27.068  13.297
73665W        W46090  32.180  29.706   4.280
73666W        W46091  16.204  14.339   4.118
73667W        W46092  17.843  19.994  11.691
73668W        W46093  21.674  35.613   3.171
73669W        W46094  22.733  35.413   4.063
73670W        W46095  10.194  27.869   9.832
73671W        W46096   3.308   0.895  10.404
73672W        W46097  37.359  20.778   1.246
73673W        W46098  28.125  38.329  13.580
73674W        W46099  38.693  10.111  13.958
73675W        W46100  25.717  18.097  14.181
73676W        W46101  43.315  36.443  11.348
73677W        W46102  36.521   4.441   3.094
73678W        W46103  17.087  14.170   4.039
73679W        W46104   7.830   2.304  13.004
73680W        W46105  19.293  25.919  14.510
73681W        W46106   9.355   7.284  13.477
73682W        W46107  36.108  38.001  14.961
73683W        W46108  19.493  24.995   1.692
73684W        W46109  35.112  23.208  12.786
73685W        W46110  43.357  32.700  12.479
73686W        W46111  40.419  29.943  11.521
73687W        W46112  11.167  29.274  11.753
73688W        W46113  30.688  41.859   0.087
73689W        W46114  28.278  13.098   3.977
73690W        W46115  13.730   4.784   3.177
73691W        W46116   2.921   0.267  12.002
73692W        W46117   7.647   2.406  11.724
73693W        W46118  12.397   7.223  14.845
73694W        W46119  42.762   0.512  14.299
73695W        W46120   3.416  24.142   5.109
73696W        W46121  26.103  33.646  12.983
73697W        W46122  32.695  41.735   4.527
73698W        W46123  17.742  23.554   4.133
73699W        W46124  32.861  29.628  14.824
73700W        W46125  19.817  40.886  11.449
73701W        W46126  23.968  10.320  13.483
73702W        W46127  23.482  42.294  11.097
73703W        W46128  21.476  40.460   0.555
73704W        W46129  33.988  42.951   1.293
73705W        W46130  34.666  22.124  14.371
73706W        W46131   4.303  11.678   4.711
73707W        W46132  40.547  34.880  11.063
73708W        W46133  21.794  24.541   1.870
73709W        W46134  30.503  27.106   3.393
73710W        W46135  15.217  15.571   1.845
73711W        W46136   7.408   0.530   1.778
73712W        W46137   2.345  21.017   3.371
73713W        W46138  44.268  29.870  10.756
73714W        W46139   6.142   3.668  11.531
73715W        W46140  39.922  38.886   1.310
73716W        W46141  17.518  30.673  13.768
73717W        W46142  38.397  43.183   3.178
73718W        W46143  43.465  42.031  13.050
73719W        W46144  29.515  11.575  11.240
73720W        W46145  22.008  33.566  10.871
73721W        W46146  24.234  44.225  12.391
73722W        W46147  44.509  18.732   2.788
73723W        W46148  30.593  18.210  14.818
73724W        W46149  34.950  31.576   0.834
73725W        W46150  16.334  10.868   2.236
73726W        W46151  30.950  12.145  14.462
73727W        W46152   9.567  29.970   2.769
73728W        W46153  44.389  19.582   4.557
73729W        W46154  28.090  24.419  10.504
73730W        W46155  14.311   1.299  11.616
73731W        W46156  11.156  22.384   0.822
73732W        W46157  11.073  26.552  11.832
73733W        W46158  23.724  17.116  10.913
73734W        W46159  14.134   3.190  14.477
73735W        W46160  16.829  40.100  12.083
73736W        W46161   6.243  30.514  11.205
73737W        W46162  33.692  44.833  14.902
73738W        W46163   8.646  39.382   1.245
73739W        W46164   6.733  33.640   1.239
73740W        W46165  36.878  44.723   1.465
73741W        W46166  18.591  20.159  14.536
73742W        W46167  43.260  42.615   3.259
73743W        W46168  44.402  38.490   2.007
73744W        W46169  41.931   2.359  12.979
73745W        W46170  20.627   7.662   1.050
73746W        W46171  44.928  26.638   1.536
73747W        W46172  34.033  29.888  13.066
73748W        W46173  23.495  37.486  12.785
73749W        W46174  30.225  17.268  12.574
73750W        W46175   7.744  41.279   4.675
73751W        W46176  30.933  30.007  11.724
73752W        W46177  10.741  24.658  11.220
73753W        W46178  36.476  32.085   4.112
73754W        W46179  33.874  17.278   3.212
73755W        W46180  27.786  34.656  13.370
73756W        W46181  38.312   5.244  12.400
73757W        W46182  27.743  18.789  14.402
73758W        W46183  32.076  10.216  13.338
73759W        W46184   0.478  21.325   3.975
73760W        W46185  18.122  16.431   0.769
73761W        W46186  26.919  21.127  13.938
73762W        W46187  25.022  29.133  11.961
73763W        W46188  42.021  26.087   3.162
73764W        W46189  30.368  43.854  11.098
73765W        W46190  41.273  17.528   3.366
73766W        W46191   7.922  32.142   0.936
73767W        W46192  37.491   0.906  11.883
73768W        W46193  24.538   7.818  11.491
73769W        W46194  19.134  36.550  12.027
73770W        W46195  41.408  22.242   3.315
73771W        W46196  31.366  40.881   9.784
73772W        W46197  27.557  27.156   3.312
73773W        W46198  38.457   3.440   3.988
73774W        W46199   5.761  12.717  12.336
73775W        W46200  25.620  28.166   1.339
73776W        W46201  37.160   9.024   9.857
73777W        W46202  17.090   7.943   0.775
73778W        W46203  12.861  36.106   0.466
73779W        W46204  11.375  18.666   1.465
73780W        W46205  19.209  18.895   0.781
73781W        W46206  22.642   1.713   0.836
73782W        W46207  31.640  25.575  14.965
73783W        W46208  12.164  23.282  10.705
73784W        W46209  16.457  39.041   4.191
73785W        W46210  16.999  30.559  10.641
73786W        W46211  12.781  24.616   9.823
73787W        W46212  33.922   0.937  14.675
73788W        W46213  12.603  14.790   1.206
73789W        W46214  38.787  24.265   0.795
73790W        W46215  36.816  35.920   0.696
73791W        W46216   2.041   8.227  11.562
73792W        W46217  23.154   7.666  10.726
73793W        W46218  44.265  13.133  14.889
73794W        W46219  28.768  19.720  11.188
73795W        W46220  27.521  23.432   5.364
73796W        W46221  23.040  20.843   2.818
73797W        W46222  34.770  33.447  10.125
73798W        W46223  34.346  27.144   1.892
73799W        W46224  31.066  31.330  10.714
73800W        W46225  32.747  32.693   2.715
73801W        W46226   5.351   2.910  11.002
73802W        W46227  40.065   7.348   1.159
73803W        W46228  25.512  25.970   2.391
73804W        W46229  32.572   3.759  13.356
73805W        W46230  26.413  11.410  13.982
73806W        W46231   7.587  24.483  11.109
73807W        W46232  11.946  13.300  10.668
73808W        W46233  10.384  35.926  11.069
73809W        W46234  15.799  34.977   5.205
73810W        W46235  38.450   9.746   3.118
73811W        W46236   6.878  37.025  11.228
73812W        W46237  20.959  25.891  11.529
73813W        W46238   8.897  18.891  14.003
73814W        W46239  27.583  43.431  13.899
73815W        W46240  38.948  42.939   3.732
73816W        W46241  11.321  43.507   0.008
73817W        W46242  40.931  18.522   0.827
73818W        W46243  14.648   7.864   3.783
73819W        W46244  28.075  19.989   1.824
73820W        W46245  13.510  23.342  10.688
73821W        W46246   0.022  38.342  13.464
73822W        W46247  31.613   0.701   4.806
73823W        W46248   6.179  19.460  12.576
73824W        W46249  25.962  33.128   3.727
73825W        W46250  22.450  24.197   0.297
73826W        W46251  41.371  39.377   1.675
73827W        W46252  33.821  35.803  14.539
73828W        W46253  35.446  18.227  11.828
73829W        W46254  41.772  16.674   1.769
73830W        W46255  37.079   9.432   0.879
73831W        W46256  36.787  12.778  13.930
73832W        W46257  10.752  16.684  11.527
73833W        W46258  35.628  17.152  12.952
73834W        W46259  18.132  19.608  12.847
73835W        W46260  40.373  36.784  13.898
73836W        W46261   6.898  30.042  11.150
73837W        W46262  20.255  37.649   0.419
73838W        W46263   2.492   0.278  12.932
73839W        W46264   5.390   1.401   2.395
73840W        W46265   7.665  35.097   4.994
73841W        W46266  30.173  37.432  12.459
73842W        W46267   1.310   1.834  11.591
73843W        W46268  31.746   3.310  12.097
73844W        W46269  33.201   7.066  12.762
73845W        W46270  21.033  14.071   3.595
73846W        W46271  32.537  40.429  14.056
73847W        W46272  15.359   4.026  11.359
73848W        W46273  13.625  19.808  12.593
73849W        W46274  27.020  38.832  14.145
73850W        W46275   3.363   9.012  10.731
73851W        W46276  30.518   7.752  11.185
73852W        W46277  41.568   9.710  14.335
73853W        W46278  41.738  44.415  11.617
73854W        W46279  22.764  15.146  10.773
73855W        W46280  13.168   8.758  13.485
73856W        W46281  14.786   1.193  11.486
73857W        W46282  29.067  30.705   3.264
73858W        W46283  32.466  33.958  14.995
73859W        W46284  39.390  33.547  10.210
73860W        W46285  35.178   6.900   1.832
73861W        W46286  35.114  37.430  11.050
73862W        W46287  28.673   2.971  14.501
73863W        W46288  42.518  25.082   1.501
73864W        W46289  41.399  21.277   3.943
73865W        W46290  31.665  13.657   1.132
73866W        W46291  28.264  37.921  14.317
73867W        W46292  20.981  34.961   2.254
73868W        W46293  10.406   8.166   3.619
73869W        W46294  27.555  26.821   0.692
73870W        W46295  11.192  16.322  13.585
73871W        W46296  41.979  26.045  14.657
73872W        W46297  35.060  15.477   1.294
73873W        W46298  41.993   5.281  10.981
73874W        W46299  24.230  15.975   4.039
73875W        W46300  26.636   5.704  11.469
73876W        W46301  13.360  16.035   2.680
73877W        W46302   1.963   1.934  14.370
73878W        W46303   0.484  14.176   1.161
73879W        W46304  14.756  22.996  14.208
73880W        W46305   0.110  10.448  11.143
73881W        W46306  27.665  44.109  14.331
73882W        W46307  35.651  15.525  14.885
73883W        W46308   8.905  18.150  14.741
73884W        W46309  38.080  41.338   2.151
73885W        W46310  33.522   3.207  10.228
73886W        W46311   8.734  40.573   1.326
73887W        W46312  12.364  21.576   3.234
73888W        W46313  28.026  43.223   1.954
73889W        W46314   7.875  43.671   3.405
73890W        W46315  14.265   3.280   0.864
73891W        W46316  10.557  14.107  11.125
73892W        W46317   6.227   3.652  13.383
73893W        W46318  23.239  43.525   4.429
73894W        W46319  29.639   7.367  10.712
73895W        W46320  24.890  39.759  12.835
73896W        W46321  29.905  29.110  13.987
73897W        W46322  14.871  28.737  11.545
73898W        W46323  13.757  25.685  11.381
73899W        W46324  41.379  33.134  10.636
73900W        W46325  10.710   1.807  11.401
73901W        W46326  38.038  10.209   0.546
73902W        W46327  11.288   3.414   4.248
73903W        W46328  41.651  13.787   2.916
73904W        W46329  16.352  19.069   3.161
73905W        W46330  17.669  39.300  14.560
73906W        W46331   2.095  26.763   3.233
73907W        W46332  20.062  44.756  13.514
73908W        W46333  39.974  39.032  11.626
73909W        W46334  13.102  14.203   1.853
73910W        W46335   7.995  30.248  12.295
73911W        W46336  12.114  34.361  12.022
73912W        W46337  23.974  24.957  11.162
73913W        W46338   2.657  11.938   0.231
73914W        W46339  29.230   3.462  11.145
73915W        W46340   8.873  24.452   2.072
73916W        W46341  43.326  29.153  13.796
73917W        W46342  12.673  31.212  10.943
73918W        W46343   4.406  14.737   4.363
73919W        W46344  11.283  41.980   1.374
73920W        W46345  18.225  18.286  14.542
73921W        W46346  40.517   5.296  14.244
73922W        W46347   4.238   1.938  13.922
73923W        W46348  37.452  32.648  14.869
73924W        W46349  20.441  28.633  11.540
73925W        W46350  43.600   3.875   3.933
73926W        W46351  38.060   9.323  14.262
73927W        W46352  29.916  38.144  11.052
73928W        W46353   0.035  39.374   4.458
73929W        W46354  32.898  16.815  11.583
73930W        W46355  43.848  39.581  13.501
73931W        W46356  32.573   9.667  14.341
73932W        W46357  30.045  18.333  14.966
73933W        W46358  32.409  18.314  12.720
73934W        W46359  19.630   3.339  10.393
73935W        W46360  36.893  24.255  10.786
73936W        W46361  28.228   5.913  14.047
73937W        W46362  22.231  36.680  10.439
73938W        W46363  18.757   0.398  11.659
73939W        W46364  44.784   5.479   3.607
73940W        W46365  26.683  31.164   2.724
73941W        W46366  17.042   9.968  11.391
73942W        W46367  12.587  28.938  11.034
73943W        W46368  10.169  36.962   4.769
73944W        W46369   9.277   5.531  12.054
73945W        W46370  31.189  39.530   4.073
73946W        W46371   3.939  11.670  14.413
73947W        W46372  38.159   5.393   0.438
73948W        W46373   0.806  21.704  14.307
73949W        W46374  20.555  14.678  11.053
73950W        W46375  11.537  10.240   5.134
73951W        W46376  43.282  23.059   3.906
73952W        W46377  41.309  24.183  11.945
73953W        W46378  23.505  17.229  11.354
73954W        W46379  14.796   1.416   2.572
73955W        W46380  25.971   8.495  14.510
73956W        W46381  44.017  28.455  12.381
73957W        W46382  42.719  30.902   3.732
73958W        W46383  20.027   5.400  10.899
73959W        W46384  31.992  29.994   3.881
73960W        W46385   7.786   1.008   1.640
73961W        W46386  20.533  20.665   0.860
73962W        W46387  14.800   3.879   1.780
73963W        W46388  35.849  20.647   1.368
73964W        W46389  34.816  20.792   0.473
73965W        W46390  17.329   0.931  13.848
73966W        W46391   3.755  26.007   1.273
73967W        W46392  42.406  16.654  13.427
73968W        W46393  36.283   7.110   5.150
73969W        W46394  29.453  11.090  14.563
73970W        W46395  37.644   8.760  10.604
73971W        W46396  21.537  44.893  13.514
73972W        W46397  25.304  10.104  10.929
73973W        W46398   1.231  17.371   3.130
73974W        W46399   7.672  34.628   1.231
73975W        W46400   7.708   6.834  14.619
73976W        W46401  34.553  40.809  13.872
73977W        W46402  44.231  17.675  11.949
73978W        W46403  17.515   3.705   2.097
73979W        W46404  31.102   7.210   2.265
73980W        W46405   5.059  38.331   2.703
73981W        W46406   1.762  38.471  14.755
73982W        W46407  19.486  12.449   4.703
73983W        W46408  29.567  30.873   2.745
73984W        W46409  16.644  32.983   0.986
73985W        W46410  42.296  26.539   1.677
73986W        W46411  27.270   7.487   3.180
73987W        W46412  15.988  28.987   0.351
73988W        W46413  23.123  22.201  11.893
73989W        W46414  20.070  37.405  14.902
73990W        W46415  41.575  44.478  14.820
73991W        W46416   7.720   7.514   1.954
73992W        W46417  41.660   5.432   3.332
73993W        W46418  40.851  42.878   4.517
73994W        W46419  28.717  31.811   2.841
73995W        W46420  18.658  17.651  13.400
73996W        W46421  15.732  20.632   0.411
73997W        W46422  25.528  16.421   3.497
73998W        W46423   1.256  26.654   1.199
73999W        W46424  28.315  14.647   2.442
74000W        W46425   5.992   6.263   2.253
74001W        W46426  14.150  11.901  11.402
74002W        W46427  11.171   5.725   1.692
74003W        W46428  37.057  12.683   1.700
74004W        W46429  36.103   2.844   2.245
74005W        W46430  33.625  13.698  13.030
74006W        W46431  35.945  33.354   2.795
74007W        W46432  35.890  36.134  14.334
74008W        W46433  41.006  24.468   1.905
74009W        W46434  20.755  15.519  10.698
74010W        W46435   6.305  14.744   4.479
74011W        W46436  35.053   3.291  13.936
74012W        W46437  26.501  26.233  13.535
74013W        W46438   1.426  39.344   0.370
74014W        W46439  29.706   2.790   0.442
74015W        W46440  25.629  16.325  10.904
74016W        W46441   7.398   0.658  13.998
74017W        W46442  37.412   7.735  12.845
74018W        W46443  24.734   5.248  13.664
74019W        W46444  12.621  38.793   2.813
74020W        W46445  34.820  34.257   2.860
74021W        W46446  27.922  22.275   0.266
74022W        W46447  44.951  35.003   2.834
74023W        W46448   2.362  23.017   0.399
74024W        W46449  14.229  17.388  11.366
74025W        W46450  15.044  10.162  14.512
74026W        W46451  20.195  37.605  10.666
74027W        W46452  14.114  43.291   0.487
74028W        W46453   2.270  22.962   2.748
74029W        W46454  30.493  24.238   0.243
74030W        W46455  37.028   1.495   2.907
74031W        W46456  38.420  14.577   4.905
74032W        W46457  14.970  37.815  11.108
74033W        W46458  19.925  36.915   4.083
74034W        W46459  39.022  31.719   0.606
74035W        W46460  32.977  23.978   3.628
74036W        W46461  20.787  26.697  11.596
74037W        W46462  24.207  24.019   0.749
74038W        W46463  29.550  27.947   3.332
74039W        W46464  36.102  22.032   1.440
74040W        W46465  13.709  37.038   3.214
74041W        W46466   5.885  33.437  14.856
74042W        W46467  27.869  26.141  10.058
74043W        W46468   8.302   2.840  14.204
74044W        W46469  22.336  43.922  12.048
74045W        W46470  23.560   4.653   0.769
74046W        W46471   3.661  44.459  14.605
74047W        W46472  40.778  38.385   1.598
74048W        W46473   0.951  41.065  11.551
74049W        W46474   2.637   6.291   2.876
74050W        W46475  35.111  27.909  13.008
74051W        W46476  44.425  39.655   0.944
74052W        W46477  39.692  23.827  12.157
74053W        W46478   7.902  37.484  11.093
74054W        W46479  42.085  14.030   3.147
74055W        W46480  14.768  17.065   1.348
74056W        W46481  20.810   4.253   3.974
74057W        W46482  12.221  42.847  13.905
74058W        W46483  29.505  25.568  11.433
74059W        W46484  13.863  30.893  14.400
74060W        W46485  10.040  18.254  10.112
74061W        W46486  27.157  41.023  12.334
74062W        W46487  29.679   7.287  14.026
74063W        W46488  31.570  22.229  11.628
74064W        W46489  32.613  18.761   0.452
74065W        W46490  32.437   2.020   2.385
74066W        W46491  18.653  26.248   1.332
74067W        W46492   6.019  26.150  13.351
74068W        W46493  19.059   1.183  10.640
74069W        W46494  21.474  29.624   2.210
74070W        W46495   4.994  23.991   4.163
74071W        W46496  36.914  26.726  11.166
74072W        W46497   3.002  41.249  12.090
74073W        W46498  35.413   1.025  11.213
74074W        W46499  16.724   1.985  10.746
74075W        W46500  24.908   0.446  13.646
74076W        W46501   5.369  29.964   4.671
74077W        W46502  28.532  24.348  10.794
74078W        W46503  24.650  16.980   4.978
74079W        W46504  21.802  36.150  11.488
74080W        W46505  31.846  18.254   4.266
74081W        W46506   0.309  36.446   0.673
74082W        W46507   9.196  31.421  11.874
74083W        W46508   0.672  38.594   4.424
74084W        W46509  27.741   3.870  11.505
74085W        W46510  35.305  10.369   3.471
74086W        W46511   9.565  27.021   0.112
74087W        W46512  34.941  40.051   2.185
74088W        W46513  32.554  27.590  12.901
74089W        W46514   0.937   7.671   3.001
74090W        W46515  32.587  29.465   0.284
74091W        W46516  20.579   1.948  10.636
74092W        W46517  36.134   5.225   2.932
74093W        W46518  19.586  12.832  14.405
74094W        W46519   5.457   9.714   4.596
74095W        W46520  34.666  22.861   3.630
74096W        W46521  32.973   0.089  13.078
74097W        W46522   6.383  36.651  12.545
74098W        W46523  34.085  10.138  12.403
74099W        W46524  26.212  30.555  10.257
74100W        W46525  36.005  38.494   0.712
74101W        W46526  18.850   8.856   0.173
74102W        W46527   6.668  18.724   3.170
74103W        W46528   5.232  29.715   3.945
74104W        W46529  41.375  11.699   2.379
74105W        W46530  42.126  18.557  12.125
74106W        W46531   1.374  37.491   4.615
74107W        W46532  39.994  35.474  11.410
74108W        W46533  10.144   5.414  11.231
74109W        W46534  28.017  41.452   4.989
74110W        W46535  37.395  41.721   0.848
74111W        W46536  37.403  23.164  13.065
74112W        W46537  13.056  28.696  11.170
74113W        W46538  11.572  37.012   4.242
74114W        W46539  30.410  14.376   4.162
74115W        W46540  40.400  11.678   0.465
74116W        W46541  31.599  21.497   2.655
74117W        W46542   7.176  12.668   3.585
74118W        W46543  24.471   0.960  14.382
74119W        W46544  40.841  23.983  13.286
74120W        W46545  10.858   6.326  12.979
74121W        W46546  44.001  33.939   2.558
74122W        W46547  40.338  14.401  13.055
74123W        W46548  34.924  22.133  13.880
74124W        W46549  33.927  28.550  14.416
74125W        W46550  26.037  12.688   1.096
74126W        W46551  38.333  26.751   1.551
74127W        W46552  12.598   9.189  11.545
74128W        W46553  29.456  15.693  10.746
74129W        W46554  10.443  42.734   0.879
74130W        W46555  12.862  17.568  13.434
74131W        W46556  27.950  24.135  10.941
74132W        W46557   9.371  28.463  12.798
74133W        W46558  26.160  40.346  11.521
74134W        W46559  41.546  23.690  11.993
74135W        W46560   9.653  24.505  12.393
74136W        W46561   0.185  38.913   1.088
74137W        W46562  10.029  23.062  14.879
74138W        W46563  15.845  11.665  11.457
74139W        W46564  29.545   6.322  11.637
74140W        W46565  27.439  11.217   3.243
74141W        W46566  34.494  21.161   2.699
74142W        W46567  20.751  12.457  11.497
74143W        W46568   0.218  39.647  13.458
74144W        W46569  20.853   8.561  11.213
74145W        W46570  15.256  11.417   4.114
74146W        W46571  23.389  40.307   3.275
74147W        W46572  40.440   6.911   3.173
74148W        W46573   6.223  28.245   0.690
74149W        W46574  17.178  30.308   3.204
74150W        W46575  18.333  34.610  12.233
74151W        W46576   0.922  15.850   4.112
74152W        W46577  42.978  20.886  10.994
74153W        W46578  10.158  38.410   2.249
74154W        W46579  29.725  18.203  13.928
74155W        W46580  29.556  20.059  10.647
74156W        W46581  24.101  18.182  10.693
74157W        W46582  42.565  42.566   4.150
74158W        W46583   6.995  37.926  11.371
74159W        W46584  20.347  27.602  11.438
74160W        W46585  33.933  43.965  12.782
74161W        W46586  40.904  43.796   3.211
74162W        W46587  29.392  11.877  13.022
74163W        W46588  29.656   3.599   5.169
74164W        W46589   7.205  24.645   4.512
74165W        W46590   4.954  29.373   5.054
74166W        W46591  23.424  33.046   1.843
74167W        W46592  35.276  41.915   2.416
74168W        W46593  15.198  29.477   3.301
74169W        W46594  43.336  23.219   0.478
74170W        W46595  39.796  22.172   3.154
74171W        W46596  35.100   7.852  11.686
74172W        W46597  23.514  22.999  12.021
74173W        W46598  41.424   8.356  14.460
74174W        W46599  17.692   5.003  11.067
74175W        W46600  32.279  14.738  14.642
74176W        W46601   7.196  40.927  11.118
74177W        W46602  27.626  19.697   1.851
74178W        W46603  22.943  39.221  12.485
74179W        W46604   1.259  17.725  13.875
74180W        W46605  17.078  33.672   2.891
74181W        W46606  12.904   5.371  13.879
74182W        W46607  37.747   0.891  13.311
74183W        W46608   1.365  14.583  12.352
74184W        W46609  11.235  26.480   1.520
74185W        W46610  36.162  32.133  13.905
74186W        W46611  23.098  10.757   0.520
74187W        W46612   2.498  21.085  14.261
74188W        W46613  14.808  28.669  12.480
74189W        W46614  33.965  30.292  14.742
74190W        W46615  27.438  27.049  13.383
74191W        W46616   4.552  32.838  13.364
74192W        W46617   9.266  25.999  14.142
74193W        W46618  11.597  22.239   3.240
74194W        W46619  26.744   7.042   2.188
74195W        W46620   9.649  19.550  12.980
74196W        W46621  24.077  34.588   3.618
74197W        W46622   8.575   5.967   0.916
74198W        W46623  18.662  34.691   3.824
74199W        W46624  16.121  33.837   2.341
74200W        W46625  33.526   0.819   0.043
74201W        W46626   8.237  14.833   0.300
74202W        W46627  38.262  37.493  10.654
74203W        W46628   3.252   3.292   0.225
74204W        W46629  43.923   9.804   0.269
74205W        W46630  12.390  33.410  11.086
74206W        W46631  21.788  17.322   1.761
74207W        W46632  31.064  33.014   3.225
74208W        W46633  14.371  29.032  13.717
74209W        W46634   8.372  14.158   4.070
74210W        W46635  19.670  37.262   4.636
74211W        W46636  39.935  41.031   4.535
74212W        W46637  27.116   9.249   4.850
74213W        W46638  17.930  23.608   0.372
74214W        W46639  40.498  32.041  11.174
74215W        W46640  15.668  26.653  10.513
74216W        W46641  22.415  13.698  13.949
74217W        W46642  40.048  22.052  10.710
74218W        W46643  22.286  16.092   2.496
74219W        W46644   7.350  26.194  11.076
74220W        W46645  24.345   2.333   4.143
74221W        W46646  44.477  13.263  11.622
74222W        W46647  36.120  11.866  14.060
74223W        W46648  12.408  29.175  12.497
74224W        W46649  40.866  18.791   1.292
74225W        W46650  11.143  40.476   4.416
74226W        W46651  13.662  26.063   4.385
74227W        W46652  28.696   6.201   3.712
74228W        W46653   1.008  35.117  10.780
74229W        W46654   5.375   4.535   0.035
74230W        W46655   8.922  29.412  14.798
74231W        W46656  20.688   9.484  10.079
74232W        W46657  19.637  33.122   2.786
74233W        W46658  19.096  37.527   1.761
74234W        W46659  37.804  18.586  14.447
74235W        W46660  22.224  10.620   1.878
74236W        W46661   7.298  16.243   4.258
74237W        W46662   5.976   7.554   1.994
74238W        W46663   9.319  26.823   3.358
74239W        W46664  36.830  39.412  11.217
74240W        W46665   8.230  32.324  12.018
74241W        W46666  44.402  22.732  12.082
74242W        W46667  33.372   3.447   3.704
74243W        W46668   8.161   6.674   3.660
74244W        W46669  28.054   6.691  12.990
74245W        W46670   1.344  20.050  13.640
74246W        W46671  10.407  23.006  14.028
74247W        W46672  38.980  40.327  12.097
74248W        W46673  43.353  41.859  10.890
74249W        W46674   5.983  34.870   1.960
74250W        W46675  12.397  20.737  12.432
74251W        W46676   2.978  18.761   1.702
74252W        W46677  17.766  29.483   1.156
74253W        W46678  13.037  31.773   0.826
74254W        W46679  29.038  24.437   3.842
74255W        W46680  18.625  38.272  14.515
74256W        W46681   8.147   5.181   2.264
74257W        W46682  41.732  33.002   0.634
74258W        W46683  40.473  26.729   0.811
74259W        W46684   5.142  32.842  14.420
74260W        W46685  13.394  32.970   0.667
74261W        W46686  28.447  34.284  11.545
74262W        W46687  23.304  35.932   2.279
74263W        W46688  21.132  39.383   3.476
74264W        W46689  21.331  44.918  11.085
74265W        W46690  44.064  26.186  10.557
74266W        W46691  36.861  11.356   1.930
74267W        W46692  32.960   6.869  13.192
74268W        W46693  33.086  39.039   2.156
74269W        W46694  32.507   0.777  12.634
74270W        W46695   4.797  11.341   4.539
74271W        W46696  20.568  16.025   3.245
74272W        W46697   4.960  34.809   1.357
74273W        W46698   3.724  24.260   2.371
74274W        W46699  36.198  15.793  10.533
74275W        W46700  41.011  14.684  13.573
74276W        W46701  13.358  37.332  10.689
74277W        W46702   6.103   5.232   4.678
74278W        W46703  41.498  37.995  10.932
74279W        W46704  29.427  26.989   1.634
74280W        W46705   2.021  43.064  10.971
74281W        W46706  36.054   9.689   2.192
74282W        W46707  25.865  38.753   0.798
74283W        W46708   2.044  20.599   2.127
74284W        W46709   0.946  14.715   2.655
74285W        W46710   3.067  15.749  13.313
74286W        W46711  43.914   0.586  13.763
74287W        W46712  34.147  11.927   0.341
74288W        W46713  40.731  34.872   0.419
74289W        W46714  21.573  11.114   3.026
74290W        W46715   3.376  39.840  12.651
74291W        W46716  15.458  20.774   1.875
74292W        W46717  16.250  24.642  14.551
74293W        W46718  41.386  20.651  11.983
74294W        W46719  12.851  43.372   4.542
74295W        W46720   1.707  29.942  14.323
74296W        W46721   1.319  29.261  11.614
74297W        W46722   5.760  38.567  12.793
74298W        W46723  32.621   9.911   0.894
74299W        W46724   6.389  27.873   2.118
74300W        W46725  43.712  41.844  13.742
74301W        W46726  35.379  35.010  12.361
74302W        W46727  14.530  12.654  10.675
74303W        W46728  18.688   6.116   2.229
74304W        W46729  36.559  30.596  12.506
74305W        W46730   3.749   7.311  13.398
74306W        W46731  35.542  40.823  12.890
74307W        W46732   6.819  12.406   2.851
74308W        W46733  15.045  22.942  11.061
74309W        W46734  25.953   3.743   2.350
74310W        W46735  42.553  22.046   5.173
74311W        W46736   4.286  33.964   0.789
74312W        W46737  12.391  30.547   2.849
74313W        W46738  36.290  12.755  14.059
74314W        W46739  21.703  33.363  13.948
74315W        W46740  23.277  36.642  14.895
74316W        W46741  16.817  40.067  13.741
74317W        W46742   1.642  15.133   1.570
74318W        W46743  21.351  29.788   0.760
74319W        W46744  29.431   5.546   2.337
74320W        W46745  33.899  27.886   3.663
74321W        W46746   6.743  30.971   2.529
74322W        W46747  26.190   4.461   4.861
74323W        W46748  30.033  24.188   0.002
74324W        W46749  30.747  15.828   1.466
74325W        W46750   4.400  39.030   9.955
74326W        W46751  34.508  39.963   1.447
74327W        W46752  22.205  19.507  12.570
74328W        W46753  24.747   0.502  14.289
74329W        W46754  18.632  37.516  13.085
74330W        W46755  39.541  32.874  14.051
74331W        W46756  33.642  22.261  14.416
74332W        W46757  43.792  30.696  12.938
74333W        W46758  28.494  40.574   1.602
74334W        W46759  43.733  16.647  12.998
74335W        W46760  36.445  30.179  12.200
74336W        W46761  27.878  11.836   5.014
74337W        W46762  13.450   7.709   4.334
74338W        W46763   5.924   6.702   4.243
74339W        W46764   3.094  39.077  14.518
74340W        W46765   6.111   5.031  10.131
74341W        W46766  32.975  20.769   3.639
74342W        W46767  10.778  29.066  13.564
74343W        W46768  23.713  25.417   2.767
74344W        W46769  35.376  24.996   4.950
74345W        W46770   3.764  21.560   3.606
74346W        W46771   0.693   5.494   0.523
74347W        W46772  20.313  27.961   1.624
74348W        W46773  19.730  28.183   4.554
74349W        W46774   4.067  20.282   0.855
74350W        W46775  37.018   8.582   1.054
74351W        W46776  33.483   0.762  12.445
74352W        W46777  29.523  24.579  14.261
74353W        W46778  38.958  30.837   3.809
74354W        W46779  41.995  35.002   4.649
74355W        W46780  20.221   2.359  13.809
74356W        W46781  19.136  31.510   3.138
74357W        W46782  29.319  19.176  10.579
74358W        W46783  41.059  35.824  13.027
74359W        W46784  10.248  35.925  12.582
74360W        W46785  11.634  31.558  14.357
74361W        W46786  37.354  43.256   4.979
74362W        W46787   0.779   7.278   3.872
74363W        W46788  28.184  26.989  10.534
74364W        W46789  24.655   8.146  13.006
74365W        W46790  10.691  23.530  12.280
74366W        W46791   1.247  31.308  14.977
74367W        W46792  25.760  43.847  11.078
74368W        W46793  42.979   7.780   0.420
74369W        W46794  28.298  34.570   2.429
74370W        W46795  12.780   3.148  12.976
74371W        W46796  41.892  32.572   0.878
74372W        W46797  34.012  36.877  14.029
74373W        W46798   1.457  35.032   3.170
74374W        W46799  23.906  34.938   2.575
74375W        W46800  43.800   3.333  11.565
74376W        W46801  21.725  34.970   3.679
74377W        W46802   7.391  39.419  12.525
74378W        W46803   2.200   7.948   0.438
74379W        W46804   0.512   6.500  14.066
74380W        W46805  20.574  31.175  10.629
74381W        W46806  37.297  26.183  10.584
74382W        W46807  40.515  42.355   1.713
74383W        W46808  19.299  23.619  14.212
74384W        W46809   1.744  33.186   3.725
74385W        W46810  40.531  20.323   0.787
74386W        W46811   3.430  11.766  14.532
74387W        W46812  42.520  35.651   4.911
74388W        W46813  29.085  15.224   1.506
74389W        W46814  24.104  37.159   1.225
74390W        W46815   3.646  38.266   0.857
74391W        W46816  22.520  33.012  12.371
74392W        W46817   1.374  22.919   0.414
74393W        W46818  42.562  21.242  11.088
74394W        W46819  30.571   4.661   1.677
74395W        W46820  43.897   1.626   0.266
74396W        W46821  18.929  36.148  13.003
74397W        W46822  33.361  29.609   3.069
74398W        W46823  38.324  17.183   4.188
74399W        W46824  37.584  37.000   2.468
74400W        W46825  33.739  30.684  11.363
74401W        W46826  37.491   4.698  12.894
74402W        W46827  37.340  27.631  14.548
74403W        W46828   3.409  42.972   4.782
74404W        W46829  40.793  32.386   2.678
74405W        W46830  30.059  26.167   4.258
74406W        W46831   5.818   5.959   1.691
74407W        W46832   2.352  10.299  11.522
74408W        W46833  33.498  42.418  14.890
74409W        W46834  20.831  32.990   3.626
74410W        W46835  42.805  27.301  13.147
74411W        W46836  23.847  16.874  10.123
74412W        W46837  23.778  26.557  12.544
74413W        W46838  27.184  28.160   4.604
74414W        W46839   4.431  23.155   0.454
74415W        W46840   2.737   3.928   3.615
74416W        W46841   3.849  39.211  13.389
74417W        W46842  33.010  21.333  11.874
74418W        W46843  40.412  22.857  10.247
74419W        W46844   2.802  42.845  11.603
74420W        W46845  43.752   8.596  11.108
74421W        W46846  23.916  38.003   2.075
74422W        W46847  22.734  25.632  13.373
74423W        W46848  10.759  39.633  12.888
74424W        W46849  29.876  17.566  13.279
74425W        W46850   6.348  21.831  14.735
74426W        W46851  35.334   4.757  13.098
74427W        W46852  13.833  22.461   5.599
74428W        W46853  35.050  40.747   2.843
74429W        W46854  44.956  40.564  10.541
74430W        W46855  12.632   6.918   0.893
74431W        W46856   1.883  18.808  12.021
74432W        W46857  15.688  21.303   3.644
74433W        W46858  21.891  23.274   2.260
74434W        W46859   8.222  22.040   1.462
74435W        W46860  34.611  12.181   3.249
74436W        W46861  21.242  38.600   4.449
74437W        W46862  34.957  26.363  10.649
74438W        W46863  37.418  11.740   4.661
74439W        W46864  37.574   6.175   0.765
74440W        W46865  25.502  15.137   2.261
74441W        W46866  10.824  29.645  14.467
74442W        W46867   3.304   2.369   3.212
74443W        W46868   6.369  19.535  12.098
74444W        W46869  32.185   6.209   0.712
74445W        W46870  33.566  32.981  13.874
74446W        W46871  27.497   5.462   1.970
74447W        W46872  37.923   7.766  14.024
74448W        W46873  22.963   9.792   2.843
74449W        W46874   1.641   8.177   4.205
74450W        W46875  14.051  32.822  11.113
74451W        W46876   2.848  28.934  11.982
74452W        W46877  44.794   4.907  12.377
74453W        W46878  42.059  23.760  13.740
74454W        W46879  13.654  24.210  12.826
74455W        W46880  23.294  24.045  14.897
74456W        W46881  42.867  40.498  13.790
74457W        W46882  17.205  37.589   5.211
74458W        W46883  25.619  42.453   2.748
74459W        W46884  29.877  29.119  11.336
74460W        W46885  29.355  28.811   3.214
74461W        W46886  37.602  20.295   3.641
74462W        W46887  32.523   4.347   4.970
74463W        W46888  44.334   8.488  10.737
74464W        W46889  23.988  29.461  10.730
74465W        W46890  43.462  13.713   4.140
74466W        W46891  12.936   4.853  13.997
74467W        W46892  30.487   1.842  11.859
74468W        W46893  12.259  38.253   0.220
74469W        W46894  19.693  12.544   2.093
74470W        W46895  34.011  29.067  14.329
74471W        W46896  31.473  31.615  13.290
74472W        W46897   1.808  32.692  10.346
74473W        W46898  10.770  41.370  12.516
74474W        W46899  25.919   6.360   3.935
74475W        W46900  30.623  32.616   1.820
74476W        W46901   2.247  29.412  11.529
74477W        W46902  11.579  23.603  13.819
74478W        W46903  14.203  26.906  12.688
74479W        W46904  21.730  22.064  10.711
74480W        W46905  29.897  41.749   1.245
74481W        W46906  16.201  34.188  10.646
74482W        W46907  12.376  36.610  12.503
74483W        W46908   1.005  27.472   3.283
74484W        W46909  44.911  16.674  11.058
74485W        W46910  31.820  37.838  12.022
74486W        W46911  30.942  12.081  13.561
74487W        W46912  41.967   0.448   1.180
74488W        W46913  24.363  34.906  11.074
74489W        W46914   7.558  17.997   0.933
74490W        W46915  18.225  27.965   4.225
74491W        W46916  18.344  16.785   4.073
74492W        W46917  16.339   8.185   4.857
74493W        W46918   6.389   0.428  11.837
74494W        W46919  39.466  26.929  14.394
74495W        W46920  15.789   9.730  12.099
74496W        W46921  18.586  42.878   3.635
74497W        W46922  19.397  27.181   4.441
74498W        W46923  21.930  39.430   3.091
74499W        W46924  42.718   4.671   0.422
74500W        W46925  42.707  27.867  11.387
74501W        W46926  10.783  25.471   4.628
74502W        W46927   0.351   4.103   4.567
74503W        W46928   0.510  41.531  11.019
74504W        W46929  41.885  17.973   4.135
74505W        W46930  44.940   1.922  12.702
74506W        W46931  40.815  44.862   2.337
74507W        W46932  26.076   1.005   4.773
74508W        W46933   2.918  40.375  14.489
74509W        W46934   6.278  36.218   1.971
74510W        W46935  24.654  40.570  11.559
74511W        W46936  36.549  37.571  12.140
74512W        W46937  39.442  24.992   3.739
74513W        W46938  26.951   0.278  11.899
74514W        W46939  43.987  10.710   1.883
74515W        W46940  14.782  40.489  14.442
74516W        W46941   9.951  42.908  13.364
74517W        W46942  22.545  10.936  12.830
74518W        W46943   5.333  39.243   0.340
74519W        W46944  12.315  34.403  13.418
74520W        W46945  38.236  10.441   2.759
74521W        W46946   7.762  30.115   3.826
74522W        W46947  24.439  37.081  11.469
74523W        W46948  19.174  19.708   3.733
74524W        W46949  10.087   9.345   0.275
74525W        W46950  39.367  44.254  11.661
74526W        W46951   9.776   6.225  14.835
74527W        W46952  28.101  11.689   1.511
74528W        W46953  13.339  44.837  10.697
74529W        W46954  42.786  36.560   1.347
74530W        W46955  12.740  24.987  10.893
74531W        W46956  39.861  11.923   0.095
74532W        W46957  43.759  15.760   2.714
74533W        W46958  10.404  34.335  13.284
74534W        W46959  12.196  21.897   5.427
74535W        W46960  43.430  43.777  14.719
74536W        W46961  39.945  23.909  11.263
74537W        W46962  27.910  28.611   4.679
74538W        W46963  34.624  43.062  10.750
74539W        W46964  24.574   4.701   4.283
74540W        W46965  33.862   5.702  11.086
74541W        W46966  35.706  11.834  11.076
74542W        W46967   7.117  21.827  14.344
74543W        W46968  35.010  32.024   4.056
74544W        W46969  20.579  34.112   2.347
74545W        W46970  12.187  28.344  12.048
74546W        W46971  12.656   0.291  12.521
74547W        W46972  13.807  21.948  10.873
74548W        W46973  34.891  37.104   4.221
74549W        W46974  19.574  22.099  11.660
74550W        W46975  20.185  39.441   4.401
74551W        W46976  21.235  34.636  13.611
74552W        W46977  39.476  15.191   2.709
74553W        W46978   3.968  17.747   4.594
74554W        W46979  36.591  19.941   2.800
74555W        W46980   9.414  28.640   1.275
74556W        W46981  41.480  39.727  12.397
74557W        W46982  38.928  25.496   4.879
74558W        W46983  36.653  25.612  10.442
74559W        W46984  42.035  39.259   2.383
74560W        W46985  28.196  23.945   1.264
74561W        W46986  20.078  34.527  14.368
74562W        W46987  39.870  39.155  13.003
74563W        W46988  13.687   4.278   9.672
74564W        W46989  38.984  28.686   1.847
74565W        W46990  14.358  43.005   3.744
74566W        W46991   9.326   1.534  12.541
74567W        W46992  43.074   7.673  11.219
74568W        W46993  33.609   5.637  10.645
74569W        W46994  12.673  25.137   3.558
74570W        W46995   9.097  15.189   2.311
74571W        W46996  33.306  31.584  14.716
74572W        W46997  18.276  14.592   1.395
74573W        W46998  32.647  11.297   3.535
74574W        W46999  42.383  23.034   3.784
74575W        W47000  12.625  21.709   4.652
74576W        W47001  29.852  42.531   4.271
74577W        W47002  43.762  41.849   4.229
74578W        W47003  38.919  38.529  12.037
74579W        W47004  23.187  15.601  11.923
74580W        W47005  27.227  27.987   0.001
74581W        W47006   9.298   3.455  10.599
74582W        W47007  26.197  14.270  12.161
74583W        W47008  35.709  28.402  13.800
74584W        W47009  44.866  36.840   2.192
74585W        W47010  24.008  44.982  14.107
74586W        W47011   0.871  33.940  14.414
74587W        W47012  32.696  30.927  11.026
74588W        W47013  13.690  32.037   1.794
74589W        W47014  22.642  24.026  10.610
74590W        W47015  19.789  22.600   2.321
74591W        W47016  13.611  32.003  14.943
74592W        W47017  32.809  26.974  12.959
74593W        W47018  40.370  44.395  13.312
74594W        W47019  38.859  30.195   0.783
74595W        W47020  12.046  29.513   3.463
74596W        W47021   2.307  37.635   2.930
74597W        W47022  31.905  43.067   1.839
74598W        W47023  38.980  25.925   0.023
74599W        W47024  36.459  21.791   3.216
74600W        W47025   6.753  31.966   3.554
74601W        W47026   6.363  15.792   3.610
74602W        W47027   3.508   5.539  13.775
74603W        W47028  25.931   8.426   3.242
74604W        W47029  30.387  28.960  14.957
74605W        W47030  22.618  11.819   2.262
74606W        W47031  17.142  28.843  10.261
74607W        W47032  23.585   4.257  13.965
74608W        W47033  44.564  12.350  10.223
74609W        W47034  11.591  29.586   1.232
74610W        W47035  12.865  44.450  12.040
74611W        W47036  34.979  44.283  14.242
74612W        W47037  19.183  42.362   4.290
74613W        W47038  43.530  34.409   0.443
74614W        W47039   5.025  11.831  11.579
74615W        W47040  19.669  20.524   4.083
74616W        W47041   5.306  17.019   1.233
74617W        W47042   3.073  26.166   2.741
74618W        W47043  33.313  37.462   1.844
74619W        W47044  10.606   5.768  12.151
74620W        W47045  27.646  22.805  13.037
74621W        W47046  22.375  12.113  14.832
74622W        W47047  39.117  44.960   0.876
74623W        W47048   2.521   6.150   0.722
74624W        W47049  19.621  33.168  13.455
74625W        W47050  33.601  33.841   4.934
74626W        W47051  41.976  26.677   5.023
74627W        W47052   0.916  29.431   9.922
74628W        W47053  27.480  39.598   1.394
74629W        W47054  41.004  39.784   2.158
74630W        W47055  32.862  22.662   3.279
74631W        W47056  29.470  41.011  10.317
74632W        W47057  30.013  38.517   0.411
74633W        W47058  39.505  34.318  10.673
74634W        W47059   0.821  18.514  11.592
74635W        W47060  17.686  18.675   2.399
74636W        W47061  38.718  38.850   3.804
74637W        W47062  14.822  33.183   2.639
74638W        W47063  10.596   1.434   1.931
74639W        W47064  43.209  39.936  13.966
74640W        W47065  18.135  20.438   0.733
74641W        W47066   7.356  13.607   1.604
74642W        W47067   5.709   2.871  13.695
74643W        W47068  22.048  35.707  13.632
74644W        W47069  41.792  14.304  11.684
74645W        W47070  31.317  33.684   1.203
74646W        W47071   7.294  31.149   3.741
74647W        W47072  24.676  11.134   3.762
74648W        W47073  38.487  41.903   2.682
74649W        W47074  25.919  26.517   1.294
74650W        W47075  22.552  20.593  11.594
74651W        W47076   1.265  21.919   1.184
74652W        W47077  30.114  10.314   0.785
74653W        W47078  36.070  41.141   4.130
74654W        W47079  14.362  23.396  13.934
74655W        W47080  16.188  16.624  11.464
74656W        W47081  10.865  37.809   2.220
74657W        W47082  22.501  11.916  10.280
74658W        W47083  22.218  36.074   4.693
74659W        W47084  41.961   9.306  10.438
74660W        W47085   5.453  40.853   4.774
74661W        W47086  41.594  37.225   0.864
74662W        W47087  12.487  36.107   2.237
74663W        W47088  23.810  22.154   3.275
74664W        W47089  43.792  29.281   1.397
74665W        W47090   7.309  40.536  11.457
74666W        W47091  19.490  42.814   3.577
74667W        W47092  27.146  34.038   0.953
74668W        W47093  17.674  11.818  10.791
74669W        W47094  19.493  44.200  11.604
74670W        W47095  25.017  38.946  11.141
74671W        W47096  21.218  37.429  11.532
74672W        W47097  11.633  33.930  12.347
74673W        W47098  32.838  16.477  13.434
74674W        W47099   5.772  37.330   2.944
74675W        W47100  20.871  22.460  12.681
74676W        W47101   2.362   9.672   2.884
74677W        W47102  20.828   0.447   4.689
74678W        W47103  11.266   4.408   0.140
74679W        W47104  28.924   6.156   4.170
74680W        W47105   8.144  25.609   1.745
74681W        W47106   3.052  30.682   3.580
74682W        W47107   4.857  11.538  10.653
74683W        W47108  29.557  10.688  12.613
74684W        W47109  19.767  41.493   4.800
74685W        W47110  34.968  14.897   2.231
74686W        W47111   9.626   4.167   2.809
74687W        W47112  15.222  15.110  13.564
74688W        W47113   1.765   5.173  12.806
74689W        W47114  36.833  21.173   4.285
74690W        W47115   9.606  32.969  12.921
74691W        W47116   8.170  18.632  12.552
74692W        W47117   5.329  32.759   4.736
74693W        W47118  42.839  11.373  12.257
74694W        W47119  29.056  33.075   1.438
74695W        W47120  33.251   1.946   4.631
74696W        W47121  31.063   2.895  11.155
74697W        W47122  29.952  32.439  13.910
74698W        W47123  21.152   9.749  14.441
74699W        W47124  14.314  27.685  14.925
74700W        W47125  20.303  17.289   2.101
74701W        W47126  25.570  41.372  11.169
74702W        W47127   2.760  21.065   0.109
74703W        W47128   6.978   2.717   0.418
74704W        W47129  13.576  37.464  12.949
74705W        W47130  12.562  29.941   2.170
74706W        W47131  39.743   4.710   4.140
74707W        W47132  12.758  15.156   0.760
74708W        W47133  36.818  38.537   2.615
74709W        W47134  31.914  25.923   1.186
74710W        W47135  41.941  39.310  11.319
74711W        W47136  23.924  27.005  12.341
74712W        W47137  30.182  34.304  11.362
74713W        W47138  35.292   8.191   4.664
74714W        W47139  14.855  25.898  13.368
74715W        W47140   6.898  15.748  14.363
74716W        W47141  18.859  10.548  11.565
74717W        W47142  32.045   4.342   3.728
74718W        W47143  21.305  17.076   1.862
74719W        W47144  10.160  22.083   4.371
74720W        W47145  26.674  30.906   0.847
74721W        W47146   9.347  40.872  14.050
74722W        W47147  22.750  16.297  10.704
74723W        W47148  34.144  10.637  13.109
74724W        W47149  38.988   4.908  12.529
74725W        W47150  34.179   6.237  11.925
74726W        W47151  42.209  32.413  11.207
74727W        W47152  24.752  11.927  12.566
74728W        W47153  33.568  34.726  13.285
74729W        W47154  31.997  13.894   3.181
74730W        W47155   7.897  37.086  12.438
74731W        W47156  38.597  37.141   4.219
74732W        W47157   2.189  37.477   1.181
74733W        W47158  34.444  41.292   1.893
74734W        W47159  18.333  11.955   0.102
74735W        W47160  32.543   2.683  11.153
74736W        W47161  41.811  24.915  11.053
74737W        W47162  35.521   6.902   4.072
74738W        W47163  31.410  24.106   4.531
74739W        W47164  14.689  36.693  14.865
74740W        W47165  20.467  40.472  12.743
74741W        W47166  14.405  22.490   3.189
74742W        W47167  14.722  19.706  14.912
74743W        W47168  34.405  13.803   4.145
74744W        W47169  21.535  42.444  11.937
74745W        W47170  15.551   2.716   0.485
74746W        W47171  15.179   7.416  11.960
74747W        W47172  14.205  31.999   2.021
74748W        W47173   9.245   7.739  10.744
74749W        W47174  44.025   7.222   5.021
74750W        W47175   8.883  35.006   0.635
74751W        W47176  26.710  15.198   0.449
74752W        W47177  23.022   8.102  13.821
74753W        W47178  41.078  16.012   4.517
74754W        W47179  15.121  16.753  11.383
74755W        W47180  30.433  29.074   4.194
74756W        W47181  10.269  44.613  12.409
74757W        W47182  14.640  27.433   3.858
74758W        W47183  39.414   9.620  11.936
74759W        W47184  13.657  27.018   2.461
74760W        W47185  18.606  13.817  14.337
74761W        W47186  42.128   6.305   4.282
74762W        W47187  23.657   5.765   3.290
74763W        W47188  28.052  43.731   1.977
74764W        W47189  17.899   9.420   2.930
74765W        W47190   6.406  19.838  14.868
74766W        W47191   7.368  29.576  13.426
74767W        W47192  40.421  37.918   2.819
74768W        W47193  43.352  35.972   1.801
74769W        W47194  34.471   4.197   2.592
74770W        W47195  31.036   0.867  10.700
74771W        W47196   2.712   7.592   2.727
74772W        W47197   8.389  19.596  10.567
74773W        W47198  40.398  27.697   2.739
74774W        W47199  20.022  22.345   0.703
74775W        W47200   2.898  20.121   4.621
74776W        W47201  43.657  10.304   2.437
74777W        W47202  25.731  32.414  12.111
74778W        W47203  15.189  37.970   3.622
74779W        W47204   0.248  26.280   3.497
74780W        W47205   9.310  30.513   3.221
74781W        W47206  21.632  29.015  11.991
74782W        W47207  40.366  27.396   4.597
74783W        W47208  23.144  40.726   1.482
74784W        W47209  30.809  41.841   5.797
74785W        W47210  23.989  16.828   1.728
74786W        W47211  40.371  12.326  12.094
74787W        W47212  26.477  21.959   1.111
74788W        W47213  24.645  25.843   0.302
74789W        W47214   9.491   7.845  13.865
74790W        W47215  44.742  38.403  11.164
74791W        W47216  42.826   0.840   3.069
74792W        W47217   9.147  10.834  13.021
74793W        W47218  25.118   6.480   4.384
74794W        W47219  24.084   7.833   0.661
74795W        W47220   0.125   2.339   0.982
74796W        W47221  22.930  34.514   1.894
74797W        W47222  22.726  22.490   3.661
74798W        W47223  35.866  17.532  14.257
74799W        W47224   4.479   3.855   0.832
74800W        W47225  40.508  17.018  12.838
74801W        W47226  28.162   3.491  12.024
74802W        W47227  41.339  15.027  14.499
74803W        W47228   0.375  44.511   1.842
74804W        W47229  28.376  30.087   4.898
74805W        W47230   0.002  20.318   1.623
74806W        W47231  33.074  14.281  14.846
74807W        W47232   9.688  11.207   2.621
74808W        W47233  22.445  18.181   0.829
74809W        W47234  20.494  30.044   4.179
74810W        W47235  34.085   6.478   1.383
74811W        W47236  12.038  13.637   1.015
74812W        W47237  30.885   6.790   4.772
74813W        W47238  20.795   9.846   4.979
74814W        W47239   4.649  24.959  10.462
74815W        W47240  30.790  11.361  10.296
74816W        W47241  23.052   0.182  14.487
74817W        W47242  18.208  14.249   2.908
74818W        W47243  13.352  15.804   3.149
74819W        W47244  35.645  26.616   2.632
74820W        W47245  24.455   3.850  13.540
74821W        W47246  38.500  14.759  13.086
74822W        W47247  32.335  42.863  14.307
74823W        W47248   5.914  40.029   2.056
74824W        W47249  22.253  29.948   0.662
74825W        W47250  30.931   5.227   2.109
74826W        W47251  34.164  19.994   0.291
74827W        W47252  33.117  44.866   4.634
74828W        W47253   4.937  32.576   5.044
74829W        W47254  17.839  22.154   1.249
74830W        W47255   6.386  21.076  14.339
74831W        W47256   2.636  20.787   1.418
74832W        W47257  22.390  12.058   2.698
74833W        W47258  25.041   9.484   0.313
74834W        W47259  38.056  19.571   0.794
74835W        W47260  16.322   7.727   4.055
74836W        W47261  21.597   9.060  13.532
74837W        W47262   1.043  25.105  14.427
74838W        W47263  32.448  29.575  14.364
74839W        W47264  37.166  29.179   1.868
74840W        W47265  32.891   7.464   4.222
74841W        W47266   1.700  28.052  12.024
74842W        W47267  22.739  31.091   1.694
74843W        W47268  21.100  38.007   2.923
74844W        W47269  39.954  32.989  12.341
74845W        W47270  12.563  38.912  13.701
74846W        W47271  19.579  29.288   4.996
74847W        W47272  27.192   9.159  13.591
74848W        W47273  11.714  38.741  11.905
74849W        W47274  26.549  25.712  10.875
74850W        W47275   3.713   7.024   1.356
74851W        W47276   3.791   9.830  10.558
74852W        W47277  16.403  21.563   3.137
74853W        W47278  38.336  20.232  14.793
74854W        W47279  25.921  44.264   2.318
74855W        W47280  22.229  17.620  11.260
74856W        W47281  14.664  36.954  12.058
74857W        W47282   2.742   9.835   3.200
74858W        W47283  38.119  17.797   4.326
74859W        W47284  33.182  21.422  10.669
74860W        W47285  15.678  22.738   0.721
74861W        W47286  12.866  41.862  13.330
74862W        W47287  26.234  18.535  14.933
74863W        W47288  43.864  29.163   2.816
74864W        W47289  24.479  37.247  12.986
74865W        W47290  34.135  38.470  12.533
74866W        W47291  26.184  23.390   4.808
74867W        W47292   3.355   4.425   3.298
74868W        W47293  16.350   9.818  12.115
74869W        W47294  30.933  23.463  10.151
74870W        W47295  20.874  31.918  12.648
74871W        W47296  11.774   4.490  14.952
74872W        W47297   5.337  35.577  13.564
74873W        W47298  39.010  13.256  11.434
74874W        W47299  32.406  13.496   0.549
74875W        W47300  44.411  42.032  11.907
74876W        W47301  17.764   2.912   3.067
74877W        W47302  31.037  15.985  11.243
74878W        W47303  38.109  43.736  14.672
74879W        W47304  41.872  28.447   1.412
74880W        W47305  38.390  24.107  14.233
74881W        W47306   7.926   9.603   4.005
74882W        W47307  20.520  11.576   0.760
74883W        W47308   4.352   9.225  14.325
74884W        W47309  25.314  29.892  14.802
74885W        W47310   7.293  25.671   4.616
74886W        W47311   2.910   8.100   0.808
74887W        W47312  42.946  17.549   3.639
74888W        W47313  20.038   1.367   0.280
74889W        W47314  42.764   1.873   0.927
74890W        W47315  18.354  41.773   4.163
74891W        W47316   8.183  35.843   3.396
74892W        W47317  39.557  14.113  14.465
74893W        W47318  34.740  39.341  12.438
74894W        W47319  11.316  29.995   3.765
74895W        W47320   9.126  23.084  12.561
74896W        W47321  13.655  35.641  13.943
74897W        W47322   2.705  17.785   2.916
74898W        W47323   8.312  21.431   4.819
74899W        W47324  20.292  14.143  12.624
74900W        W47325  10.050   8.618   2.768
74901W        W47326  28.741  14.142  10.627
74902W        W47327   5.870  38.706   1.383
74903W        W47328  26.063  38.490   4.610
74904W        W47329  29.814  17.563   3.190
74905W        W47330  30.591  29.578   4.148
74906W        W47331  21.655  21.601   3.855
74907W        W47332  23.495  22.639   2.351
74908W        W47333   8.797  25.118   3.235
74909W        W47334  32.422  11.604   3.876
74910W        W47335  27.548  23.530  13.771
74911W        W47336  39.930  34.620   4.069
74912W        W47337  42.865  30.177   1.806
74913W        W47338  38.304   8.369   2.816
74914W        W47339   6.099  30.202   1.677
74915W        W47340   4.237   1.772   1.203
74916W        W47341  31.999  21.501   4.693
74917W        W47342   4.562  10.858  14.333
74918W        W47343  23.092  26.398  12.097
74919W        W47344  42.564   0.755  12.118
74920W        W47345   9.756  17.196  13.731
74921W        W47346  13.198  36.803  11.453
74922W        W47347  17.766  12.100   2.696
74923W        W47348  40.545  16.857   2.288
74924W        W47349  29.894  35.531   1.447
74925W        W47350  29.663  32.863  14.692
74926W        W47351  40.911  31.666   4.152
74927W        W47352  31.348  32.046  13.982
74928W        W47353  26.337  13.114  12.944
74929W        W47354  10.700  34.918   4.654
74930W        W47355  21.487  28.150  12.889
74931W        W47356  10.735  39.519  10.690
74932W        W47357  13.281  12.854  12.834
74933W        W47358  44.852   9.481  11.061
74934W        W47359  11.905  34.399   3.581
74935W        W47360  30.502   4.051   2.570
74936W        W47361  29.120   2.428  13.978
74937W        W47362  23.632  41.573  12.619
74938W        W47363  34.072  28.640  12.551
74939W        W47364  36.113   2.785   4.049
74940W        W47365  10.712  38.079  13.096
74941W        W47366   3.460  43.851   1.361
74942W        W47367   6.515  12.315  10.562
74943W        W47368  21.674  41.561   4.565
74944W        W47369  25.332   4.210  10.584
74945W        W47370  33.808   3.285   2.245
74946W        W47371   2.788  34.858   4.893
74947W        W47372  11.656  43.097  11.030
74948W        W47373  40.796  21.078   4.776
74949W        W47374   0.336  21.677   0.022
74950W        W47375  24.570  34.296  12.073
74951W        W47376  44.021  16.988   2.118
74952W        W47377   1.003  41.220  12.054
74953W        W47378  42.953  35.252  10.726
74954W        W47379  25.627  41.758   4.551
74955W        W47380  30.584  25.051   2.872
74956W        W47381  43.336   3.337   1.622
74957W        W47382  39.012  10.403  14.277
74958W        W47383  22.038  36.521   0.665
74959W        W47384  39.609  11.135   0.276
74960W        W47385  40.117  10.264  11.951
74961W        W47386  25.931   0.206   3.223
74962W        W47387  16.327  21.127  12.807
74963W        W47388  28.251  41.863  14.014
74964W        W47389  32.922   8.431   0.441
74965W        W47390  22.833  13.038   3.123
74966W        W47391  33.883   5.527  13.961
74967W        W47392   6.092  13.115   4.660
74968W        W47393   0.075  13.701  13.388
74969W        W47394  12.200  33.304   2.324
74970W        W47395  42.748  20.636  11.391
74971W        W47396   6.587  17.322  11.551
74972W        W47397   4.007  18.856  12.516
74973W        W47398  35.074  39.924  11.249
74974W        W47399  15.601   1.603   1.288
74975W        W47400  28.979  17.811  13.523
74976W        W47401  43.706  40.812  14.972
74977W        W47402   6.447  15.911   0.243
74978W        W47403  43.336   2.440  11.569
74979W        W47404  42.618   9.297   0.063
74980W        W47405  12.943  27.425  11.076
74981W        W47406  19.056  41.807   1.313
74982W        W47407  32.686  21.948   0.717
74983W        W47408  23.247  32.666   4.586
74984W        W47409  23.178  13.680  14.772
74985W        W47410  37.400  32.691   4.505
74986W        W47411  12.562  35.497   3.309
74987W        W47412  19.997  34.424   4.551
74988W        W47413  30.474  26.039   3.876
74989W        W47414  44.028  29.273  13.011
74990W        W47415  36.588  10.171   4.667
74991W        W47416  39.401   7.918  10.484
74992W        W47417  19.640   3.709   1.412
74993W        W47418  15.130  41.538   3.214
74994W        W47419   1.548  25.176  14.404
74995W        W47420  13.562   7.858  10.676
74996W        W47421  10.656  15.467   3.312
74997W        W47422   4.059  27.668  12.312
74998W        W47423  24.631   8.671  13.044
74999W        W47424   5.754  28.064   0.839
75000W        W47425  12.721  44.504  14.268
75001W        W47426  32.317  40.440   4.599
75002W        W47427  36.387  16.447   2.190
75003W        W47428  27.338  16.391   0.838
75004W        W47429  40.464  39.399  13.896
75005W        W47430  13.846  41.288  12.316
75006W        W47431  18.360  19.175   0.916
75007W        W47432  26.550  37.496   4.723
75008W        W47433   8.284  41.908   0.868
75009W        W47434  12.792  35.885  14.087
75010W        W47435   8.832   1.922   1.806
75011W        W47436   3.287  38.907   3.149
75012W        W47437  38.038  42.490   2.142
75013W        W47438  33.359  39.953   5.381
75014W        W47439  12.708  29.068  12.962
75015W        W47440  29.817  18.229  11.663
75016W        W47441  37.206   5.265   4.515
75017W        W47442   7.904  12.025  12.129
75018W        W47443  16.639  23.297  12.586
75019W        W47444  27.974  19.771   0.403
75020W        W47445  21.619  24.936   0.068
75021W        W47446  10.746  37.578  11.600
75022W        W47447  15.610  19.543  10.738
75023W        W47448  20.715   0.737  11.272
75024W        W47449  15.543  27.433   1.817
75025W        W47450  35.385  40.204   2.843
75026W        W47451   2.280  42.471   1.263
75027W        W47452  24.127   1.545  13.795
75028W        W47453  21.140   0.058   0.437
75029W        W47454   8.855  35.394  14.281
75030W        W47455   9.381  36.357  13.509
75031W        W47456  44.225  19.683  10.502
75032W        W47457  36.352  24.968   5.055
75033W        W47458   3.511   4.799  13.400
75034W        W47459  25.214  20.224   4.796
75035W        W47460   9.923   6.143  11.719
75036W        W47461  39.274  35.856  12.506
75037W        W47462  13.672   7.778  11.496
75038W        W47463  13.230   2.065   0.479
75039W        W47464  24.283  26.584  12.504
75040W        W47465   9.155  31.181   0.050
75041W        W47466  11.617   0.222  10.228
75042W        W47467  38.691  35.953   9.912
75043W        W47468  23.709   6.330  12.658
75044W        W47469   6.704  34.926   1.667
75045W        W47470   3.298  17.724  12.065
75046W        W47471  13.383  40.962  12.076
75047W        W47472  14.807  43.781   2.601
75048W        W47473  44.000   1.468   2.860
75049W        W47474  18.621  44.595   2.853
75050W        W47475  26.049  21.541  14.147
75051W        W47476  10.994   3.771   4.621
75052W        W47477  33.416  24.986   9.949
75053W        W47478  36.896   5.784   5.065
75054W        W47479  28.159  28.223  11.166
75055W        W47480  17.779  19.232   4.247
75056W        W47481  29.837   2.917  13.896
75057W        W47482   3.365  26.117   3.189
75058W        W47483  11.345  14.308  11.944
75059W        W47484  27.518  18.507   3.739
75060W        W47485  15.895  15.943  13.474
75061W        W47486  19.294  33.493  12.145
75062W        W47487   6.416  18.232   3.361
75063W        W47488   2.404  19.164   2.755
75064W        W47489   4.368   5.868   0.924
75065W        W47490  43.734  12.833  14.007
75066W        W47491  18.342  38.492   4.124
75067W        W47492  31.399  41.465  11.864
75068W        W47493  36.449  34.140  12.345
75069W        W47494   5.363  37.008  10.982
75070W        W47495  28.767  12.423   4.131
75071W        W47496  37.625   3.518   3.199
75072W        W47497  40.937  18.676   4.257
75073W        W47498  15.021  10.467   0.769
75074W        W47499  36.289  14.823  11.888
75075W        W47500   6.279  31.281  12.756
75076W        W47501  42.173  16.927   3.425
75077W        W47502  18.716  37.635   4.257
75078W        W47503   2.223  42.761   2.305
75079W        W47504  29.680  23.241  12.410
75080W        W47505  43.448  39.494  13.874
75081W        W47506  31.182  23.987  13.579
75082W        W47507  10.540  36.391   0.374
75083W        W47508   9.135  36.562   2.249
75084W        W47509  40.236  15.713  13.049
75085W        W47510  36.871  35.946  12.459
75086W        W47511   2.691  11.929  13.467
75087W        W47512  30.888  30.040  10.735
75088W        W47513  38.296  39.344  14.556
75089W        W47514   6.480   7.314   2.612
75090W        W47515  12.640   0.815  13.095
75091W        W47516  18.199   7.170  13.478
75092W        W47517  32.639  19.666  12.947
75093W        W47518  30.038  27.683   4.353
75094W        W47519  27.053  24.921   1.254
75095W        W47520  17.587  13.220  10.695
75096W        W47521  22.684  30.518  14.917
75097W        W47522   8.372  25.019   3.677
75098W        W47523  28.800  26.962   5.330
75099W        W47524   6.193  11.159  10.851
75100W        W47525  34.853  16.699  12.993
75101W        W47526  33.128  29.523   1.018
75102W        W47527  41.234   9.168   0.455
75103W        W47528  10.639   7.605   4.389
75104W        W47529   9.252  22.238   0.802
75105W        W47530  22.242  37.130   3.806
75106W        W47531  40.978  20.324  11.170
75107W        W47532  36.561   6.317  12.545
75108W        W47533  18.059  38.562   1.786
75109W        W47534   4.292  13.570   3.159
75110W        W47535  15.868   2.316   0.599
75111W        W47536   5.746  19.064  13.337
75112W        W47537  38.937   7.297  12.966
75113W        W47538  19.878  11.822  12.048
75114W        W47539   5.473  44.102   1.347
75115W        W47540  26.023  39.539  12.417
75116W        W47541  39.427  28.495  11.914
75117W        W47542  13.163  15.510   0.724
75118W        W47543   4.248  24.191  13.431
75119W        W47544  30.886  10.692   3.240
75120W        W47545   4.166  11.568   1.813
75121W        W47546   2.232  41.999   1.507
75122W        W47547   0.202  19.068  12.887
75123W        W47548  13.311  10.774   4.047
75124W        W47549   9.279   7.937  12.549
75125W        W47550   4.189  31.320  11.582
75126W        W47551  37.461  23.716  11.458
75127W        W47552  26.553   0.858   4.610
75128W        W47553  40.997  32.964  12.557
75129W        W47554  30.069   0.448  11.558
75130W        W47555  36.126  33.422  12.902
75131W        W47556  32.710   4.413   1.897
75132W        W47557  14.305  22.280  13.554
75133W        W47558  24.899  20.514   2.334
75134W        W47559  10.344   9.594   1.258
75135W        W47560   1.359  21.267   1.741
75136W        W47561   3.271   8.570  11.916
75137W        W47562  28.087  30.619  10.507
75138W        W47563  29.661  30.041  12.451
75139W        W47564  28.229  31.377  14.051
75140W        W47565  33.702  37.543  14.525
75141W        W47566  27.079  20.310  11.410
75142W        W47567  15.346  30.033  13.323
75143W        W47568   3.151  24.597  13.857
75144W        W47569  23.711  43.731   1.775
75145W        W47570  19.350  40.370   5.164
75146W        W47571  13.133   5.903   4.652
75147W        W47572  37.064  30.444   0.642
75148W        W47573   4.379  26.661   1.174
75149W        W47574  15.073  35.139   1.311
75150W        W47575   2.510   3.755  13.353
75151W        W47576  37.016  29.042  12.559
75152W        W47577  44.460  20.784   3.704
75153W        W47578  37.503   8.399   2.677
75154W        W47579  29.515  33.641   1.751
75155W        W47580  22.547   4.800   0.784
75156W        W47581   0.377  36.761   1.885
75157W        W47582  37.520  23.429  10.421
75158W        W47583  21.711   3.852   2.735
75159W        W47584  23.782   9.923   3.399
75160W        W47585   2.885  20.737  12.342
75161W        W47586  22.090  35.386   0.626
75162W        W47587  11.216  44.335  10.259
75163W        W47588  20.216   7.468   5.018
75164W        W47589  20.614  40.219  10.918
75165W        W47590   0.946  38.460   1.853
75166W        W47591  36.927  22.234   1.688
75167W        W47592  40.366  36.589   4.614
75168W        W47593   1.965   0.506  13.895
75169W        W47594  28.916  14.318   2.330
75170W        W47595   5.738  20.488   2.399
75171W        W47596  14.982   2.829   5.081
75172W        W47597  42.896   6.125   1.756
75173W        W47598  17.024  28.086   0.334
75174W        W47599  17.595  10.386   3.136
75175W        W47600  12.697  28.537  13.624
75176W        W47601  35.534  23.684   3.346
75177W        W47602   2.218  12.894  12.894
75178W        W47603  29.573  38.344   3.401
75179W        W47604  39.691   8.363   4.558
75180W        W47605  22.103  36.626   4.580
75181W        W47606  33.642  17.521   3.612
75182W        W47607   6.080  37.524  12.611
75183W        W47608   0.544  22.510   1.503
75184W        W47609  19.753   3.757  10.693
75185W        W47610  31.973  20.701   2.808
75186W        W47611   5.907  41.215  13.053
75187W        W47612  12.144  16.901  13.429
75188W        W47613  10.431  37.598  14.946
75189W        W47614  18.364   8.706   1.461
75190W        W47615  42.398  36.958  11.215
75191W        W47616   2.386  15.865   3.348
75192W        W47617   9.561  42.570   1.229
75193W        W47618  44.474  23.695   0.209
75194W        W47619   3.876  41.433  12.893
75195W        W47620  30.209  34.091  10.771
75196W        W47621  10.460   0.725  10.681
75197W        W47622  26.470  25.087  12.615
75198W        W47623  38.826  17.786  12.130
75199W        W47624  25.413  34.109  12.138
75200W        W47625   8.701  13.030   4.504
75201W        W47626  11.656  10.752  13.048
75202W        W47627  10.359   6.620  14.570
75203W        W47628  43.697  31.885  11.070
75204W        W47629  40.571  35.335   4.762
75205W        W47630  25.703  31.122   2.206
75206W        W47631  38.637   5.455  12.081
75207W        W47632  29.854  40.143   3.318
75208W        W47633  44.433  22.147   4.353
75209W        W47634  30.514  44.181   3.095
75210W        W47635  44.293  19.370   0.951
75211W        W47636  38.141   9.333   3.553
75212W        W47637  24.033   1.181   3.777
75213W        W47638  37.743  27.580   4.063
75214W        W47639  10.838  36.962   3.479
75215W        W47640  39.972   5.967   3.765
75216W        W47641   1.869  18.780   0.614
75217W        W47642  22.075  17.641   0.322
75218W        W47643   2.330  21.554  11.236
75219W        W47644  40.449  28.679   1.386
75220W        W47645  43.740  21.119   2.667
75221W        W47646  32.932   5.223   3.946
75222W        W47647  23.109   9.170  12.929
75223W        W47648  43.465  43.916  11.957
75224W        W47649  42.931  19.507  12.549
75225W        W47650  34.992  13.305   4.594
75226W        W47651   8.437  13.317   4.178
75227W        W47652  30.342  21.826   0.506
75228W        W47653  22.118   4.202   1.410
75229W        W47654  17.217  11.495  11.622
75230W        W47655  43.754   6.395   3.280
75231W        W47656   6.085  30.083  13.403
75232W        W47657  24.197  34.068  14.887
75233W        W47658  43.367   1.128   1.380
75234W        W47659  33.680  24.480   3.753
75235W        W47660  41.784   1.003  10.708
75236W        W47661   6.750  19.912  11.480
75237W        W47662  17.592   8.182  11.177
75238W        W47663   4.558   4.837  11.035
75239W        W47664  42.222  37.990   1.861
75240W        W47665  14.843  34.056   4.037
75241W        W47666   4.336  27.122   2.486
75242W        W47667   9.783   5.793   4.527
75243W        W47668  14.765  43.420  13.110
75244W        W47669  22.077  29.448   0.373
75245W        W47670  12.250  33.580  11.593
75246W        W47671  14.416   7.701   4.216
75247W        W47672  35.016  36.485  11.116
75248W        W47673  15.189  33.425   0.553
75249W        W47674   7.155  41.443   0.238
75250W        W47675   5.402  44.293   0.207
75251W        W47676  37.923  26.410  14.768
75252W        W47677  27.665  15.289  14.318
75253W        W47678  41.509  31.622   0.061
75254W        W47679  33.525  32.924   4.057
75255W        W47680   3.259  41.065   4.053
75256W        W47681   9.902  42.005  13.353
75257W        W47682  32.141  12.311  11.552
75258W        W47683  25.877  20.296   2.611
75259W        W47684  41.854  31.564   3.259
75260W        W47685  33.438  38.438   1.897
75261W        W47686  32.636  11.762   4.854
75262W        W47687  26.188  23.914   4.958
75263W        W47688  20.997  15.860  13.776
75264W        W47689  31.603  26.872   1.457
75265W        W47690   9.640  39.376   0.395
75266W        W47691  11.140   8.651   0.215
75267W        W47692  32.460  23.296  14.897
75268W        W47693  18.063  13.805  14.394
75269W        W47694  29.674  35.941  10.612
75270W        W47695  36.994  38.560   3.397
75271W        W47696  20.606  26.634  14.429
75272W        W47697  22.811  30.546   5.233
75273W        W47698  32.586  18.146   2.778
75274W        W47699  10.315  42.739  14.982
75275W        W47700  28.197   4.599   0.486
75276W        W47701  10.853  12.138  13.514
75277W        W47702  17.207  20.006  11.079
75278W        W47703   0.809  16.548   0.053
75279W        W47704   3.365  42.004   0.543
75280W        W47705  28.720  32.373  13.859
75281W        W47706  28.429  18.365   1.937
75282W        W47707  28.864  39.357  11.636
75283W        W47708  28.957  26.996   3.597
75284W        W47709  17.616  31.216  12.534
75285W        W47710   4.518  10.218  12.541
75286W        W47711  28.445  39.908   2.199
75287W        W47712  31.972  10.445  13.818
75288W        W47713   6.261  27.614   3.330
75289W        W47714  10.827  36.417  12.567
75290W        W47715  26.684  38.935  12.085
75291W        W47716   2.533  19.679   3.338
75292W        W47717   7.200  35.982   0.307
75293W        W47718   5.722  26.370  10.618
75294W        W47719  42.505  19.761   1.784
75295W        W47720  22.077  27.962   1.018
75296W        W47721   8.706  22.469   0.886
75297W        W47722  20.268  40.412   1.259
75298W        W47723   2.525   5.881   0.272
75299W        W47724  40.807  35.984   0.671
75300W        W47725  37.612  19.708  12.920
75301W        W47726   7.734  10.377   3.633
75302W        W47727  20.843  39.019   3.686
75303W        W47728  37.107  13.589  14.121
75304W        W47729  23.768  25.323  11.969
75305W        W47730   1.523  14.245  14.812
75306W        W47731  36.570   7.428  12.069
75307W        W47732  14.546  11.809  12.908
75308W        W47733  29.291  13.075   3.774
75309W        W47734  21.980  18.074  10.532
75310W        W47735   6.622  26.130   1.488
75311W        W47736  33.986  41.040  13.055
75312W        W47737  29.528  25.706   1.856
75313W        W47738  10.756  17.466   0.951
75314W        W47739   1.545  27.547   4.563
75315W        W47740  16.282  37.838   2.812
75316W        W47741  14.734  23.264   2.231
75317W        W47742  33.947  11.127   3.657
75318W        W47743   0.401  36.913  13.284
75319W        W47744  40.686  25.246   2.831
75320W        W47745  31.268   1.593   0.743
75321W        W47746  14.883  43.469  11.533
75322W        W47747  40.757  30.546   1.250
75323W        W47748  21.616  11.553   0.032
75324W        W47749  11.148  17.659  11.429
75325W        W47750  14.624   7.696  14.545
75326W        W47751  42.316  19.853   2.768
75327W        W47752  36.259  10.702   1.418
75328W        W47753  14.133  10.905  14.982
75329W        W47754   4.165  30.929  12.751
75330W        W47755  32.869  33.057   1.146
75331W        W47756   6.456  43.224  11.216
75332W        W47757  20.146  29.546   4.136
75333W        W47758   2.993   6.865  11.918
75334W        W47759  10.421  40.185  11.121
75335W        W47760  42.576   5.262   0.342
75336W        W47761  43.788  28.108   3.668
75337W        W47762   1.527  36.995  11.691
75338W        W47763  29.378  17.102   2.338
75339W        W47764  26.423  27.471   0.158
75340W        W47765   7.024  32.434   0.930
75341W        W47766  23.740  25.696   0.992
75342W        W47767  27.158  10.119   4.548
75343W        W47768  12.835  40.779   3.248
75344W        W47769  35.800  28.609  12.335
75345W        W47770  23.540  23.663   2.719
75346W        W47771  35.096  16.165  14.724
75347W        W47772  30.599  35.308   4.623
75348W        W47773   7.221  17.852   3.968
75349W        W47774  41.468   6.133   0.468
75350W        W47775  16.031  43.498   3.347
75351W        W47776  16.033  25.266  13.793
75352W        W47777  41.784   4.534   0.325
75353W        W47778  24.018  39.027   2.237
75354W        W47779  14.712  26.543  10.890
75355W        W47780  17.060  15.575  11.502
75356W        W47781  28.578  19.415   2.114
75357W        W47782  38.880  20.141   4.167
75358W        W47783  12.859  43.227  11.916
75359W        W47784   8.805  12.043   1.292
75360W        W47785  15.692  20.308   3.956
75361W        W47786   3.680   5.859  10.635
75362W        W47787  23.619  17.420   3.683
75363W        W47788  31.901   0.177  14.506
75364W        W47789  31.345   8.694  11.582
75365W        W47790   3.888  35.048  11.706
75366W        W47791  39.769  27.727   3.134
75367W        W47792  24.873  17.241  10.950
75368W        W47793  15.101  34.525  14.365
75369W        W47794  39.357   6.142  14.276
75370W        W47795  44.951  14.667   4.228
75371W        W47796   3.759   7.214   2.641
75372W        W47797  44.522   7.686   2.765
75373W        W47798  38.573   4.247   5.112
75374W        W47799  10.313   1.408   3.768
75375W        W47800  35.742  43.526   2.375
75376W        W47801  36.145   1.947  14.298
75377W        W47802  39.336  27.536  11.070
75378W        W47803  26.682   2.773   3.742
75379W        W47804   7.313  30.384   3.700
75380W        W47805  19.182  16.081   1.861
75381W        W47806  36.831   3.890  14.386
75382W        W47807  31.939  39.312  14.111
75383W        W47808  36.417   0.337  11.153
75384W        W47809  43.488  13.088   3.219
75385W        W47810  26.556  44.814   4.799
75386W        W47811  29.423  17.802   3.661
75387W        W47812  36.818  26.729   2.740
75388W        W47813  42.430   3.657   4.613
75389W        W47814  35.421   3.672  13.902
75390W        W47815  29.062  21.727  12.415
75391W        W47816  37.384  17.594  14.762
75392W        W47817   4.941  39.036  12.834
75393W        W47818  33.677  28.445  13.985
75394W        W47819  32.593  17.274   2.948
75395W        W47820  34.615  29.430   3.890
75396W        W47821  13.132  27.943   3.293
75397W        W47822  21.144  18.322   4.211
75398W        W47823  13.819  26.012   3.889
75399W        W47824  18.227  11.881  11.656
75400W        W47825  13.240  29.224  13.000
75401W        W47826  19.736  36.234   4.602
75402W        W47827  14.921  23.294  14.670
75403W        W47828  26.436  40.459  11.058
75404W        W47829  30.354   0.683  10.756
75405W        W47830  20.294  33.949  10.631
75406W        W47831  36.450  18.269  13.291
75407W        W47832  13.814  17.717   0.302
75408W        W47833  18.709   4.014  11.033
75409W        W47834  40.076  44.581   1.454
75410W        W47835  25.686  19.138   1.704
75411W        W47836   9.820  11.648  11.973
75412W        W47837  25.190  30.185   3.780
75413W        W47838  11.700   0.554  10.685
75414W        W47839   9.580  10.343  10.616
75415W        W47840  16.188   4.866   0.327
75416W        W47841  31.465  40.486   1.223
75417W        W47842  29.089  31.314   4.786
75418W        W47843  21.673  24.417  12.160
75419W        W47844   1.810  33.659  13.539
75420W        W47845   8.651  44.588  12.457
75421W        W47846  32.962  42.439  14.899
75422W        W47847  37.533  27.062  13.747
75423W        W47848  14.707   1.577   1.908
75424W        W47849  11.613  40.370  10.209
75425W        W47850   5.986  37.895  11.646
75426W        W47851  31.449  10.773   1.381
75427W        W47852  32.333  26.101   3.884
75428W        W47853  11.738   0.671   2.754
75429W        W47854  28.605  24.705   3.841
75430W        W47855  14.793   1.373  14.471
75431W        W47856  14.142   1.364  12.463
75432W        W47857  23.633  39.498  13.908
75433W        W47858  21.466  40.033   0.898
75434W        W47859  25.976  41.052  14.354
75435W        W47860  31.228  22.443   1.833
75436W        W47861  34.163   6.671   1.853
75437W        W47862  37.553  18.843  12.826
75438W        W47863  41.811  35.552  10.635
75439W        W47864  13.837  17.068   4.232
75440W        W47865   5.326  20.019   3.899
75441W        W47866  44.527  40.994  12.373
75442W        W47867  32.536  11.631   4.363
75443W        W47868   5.721   3.320   4.592
75444W        W47869  22.601  27.234  10.605
75445W        W47870   6.326  22.636   0.726
75446W        W47871   3.450   7.881  13.891
75447W        W47872  40.257  38.968  11.176
75448W        W47873  40.740  16.157   1.192
75449W        W47874  30.384   6.652   0.753
75450W        W47875   8.240  25.134  12.834
75451W        W47876   7.443  11.888   4.175
75452W        W47877   2.874  39.591   3.153
75453W        W47878  26.513   3.411  13.548
75454W        W47879   9.055  15.697   3.487
75455W        W47880  13.069   3.743   4.642
75456W        W47881  37.455   0.887  10.372
75457W        W47882  24.192  25.085  14.827
75458W        W47883  26.519  11.163   0.278
75459W        W47884  24.277  14.894  14.419
75460W        W47885  24.126  11.876  12.872
75461W        W47886   1.364  28.729  11.648
75462W        W47887  33.707   5.029  13.921
75463W        W47888   8.240  43.987  10.686
75464W        W47889  26.283   4.072   4.036
75465W        W47890  38.030   5.878  10.915
75466W        W47891  10.590  37.057  11.529
75467W        W47892  35.351  23.645  11.691
75468W        W47893   0.249  36.623  12.458
75469W        W47894  30.993  31.122  14.963
75470W        W47895  27.801  44.858  14.916
75471W        W47896  35.775   4.528  13.287
75472W        W47897   9.395  30.418  10.573
75473W        W47898  25.487  18.234   4.213
75474W        W47899  24.906  31.539   3.106
75475W        W47900   4.490  17.255  12.973
75476W        W47901  15.259  32.154  11.449
75477W        W47902   7.200  30.425  12.087
75478W        W47903  21.068   3.519  13.282
75479W        W47904   9.739  40.422  13.560
75480W        W47905   6.304  19.792  10.746
75481W        W47906  43.371  41.733  11.376
75482W        W47907  23.199  44.690  13.568
75483W        W47908  14.630  24.159  11.912
75484W        W47909  32.241  13.272  12.591
75485W        W47910  13.164   6.290   3.902
75486W        W47911  34.144  33.571   0.871
75487W        W47912  27.137   1.793   3.396
75488W        W47913  36.322  32.397  10.433
75489W        W47914  15.289  19.578   1.664
75490W        W47915   3.323  21.853   3.652
75491W        W47916  32.512  38.508   2.325
75492W        W47917  32.123  19.982   2.030
75493W        W47918  38.345   2.142   4.018
75494W        W47919  23.307  37.564   0.993
75495W        W47920  27.505  13.903   3.458
75496W        W47921  39.526  31.492  14.482
75497W        W47922  40.874  35.763  11.122
75498W        W47923  20.766  32.670  10.652
75499W        W47924  12.582   4.212  11.969
75500W        W47925   1.787  21.201   0.424
75501W        W47926  22.707  22.109  10.594
75502W        W47927  35.866  23.697  10.588
75503W        W47928  41.362  17.186  14.920
75504W        W47929  25.182  13.359  11.518
75505W        W47930  22.725  44.798   2.828
75506W        W47931  32.471  25.596   0.337
75507W        W47932  22.666   3.259   4.776
75508W        W47933  29.642  26.115  10.614
75509W        W47934  13.172   3.925  14.869
75510W        W47935  18.051  33.804  12.378
75511W        W47936  25.716  39.561   4.013
75512W        W47937  31.347  20.154   0.455
75513W        W47938  40.488  30.475   9.813
75514W        W47939   3.659  19.523   4.683
75515W        W47940  30.254   8.618   2.633
75516W        W47941  22.435  14.209   1.357
75517W        W47942  44.844  42.775  11.126
75518W        W47943  33.833  10.281  12.842
75519W        W47944   2.043  32.173  11.061
75520W        W47945  22.017  41.747  14.440
75521W        W47946  42.968  25.118   2.744
75522W        W47947  22.824   4.500   3.311
75523W        W47948  42.320  14.246  13.963
75524W        W47949   7.570   1.355  13.488
75525W        W47950  20.093  36.892   2.597
75526W        W47951   3.970  17.466   1.268
75527W        W47952  33.964  33.996   2.294
75528W        W47953  35.516  44.352   1.671
75529W        W47954  24.759  23.502   2.389
75530W        W47955  43.514  38.846  10.657
75531W        W47956  24.619  12.158   4.760
75532W        W47957  14.296  15.630   3.584
75533W        W47958  26.371  26.208   3.802
75534W        W47959  21.992   1.847  13.518
75535W        W47960  15.631  32.240   5.336
75536W        W47961  16.445  14.105  11.105
75537W        W47962   3.523  41.240   2.277
75538W        W47963   2.228   5.802   4.205
75539W        W47964  43.253  23.592   2.785
75540W        W47965   0.948   0.808  11.060
75541W        W47966  43.966   1.299  14.888
75542W        W47967  27.618   8.628   2.699
75543W        W47968  31.492   0.959  12.051
75544W        W47969  30.432  38.968   3.987
75545W        W47970  11.939  33.907   2.879
75546W        W47971  35.941  27.162  12.000
75547W        W47972  38.055   4.226  13.000
75548W        W47973  16.618   3.729  14.834
75549W        W47974  10.415  16.290  12.565
75550W        W47975  16.703  13.598  11.875
75551W        W47976   8.391  24.987   1.339
75552W        W47977  25.125  10.509   3.279
75553W        W47978  29.697  28.138   2.191
75554W        W47979   4.352  23.729   1.656
75555W        W47980   4.660  13.005  13.715
75556W        W47981  44.508  26.635   4.918
75557W        W47982  24.317  20.812   3.131
75558W        W47983  14.149   7.212  13.941
75559W        W47984  19.056  16.115  14.934
75560W        W47985  38.590  24.543   2.408
75561W        W47986  15.293  39.563   3.601
75562W        W47987  43.763   9.250  14.243
75563W        W47988  36.940   5.918   0.975
75564W        W47989  32.812  38.500   3.668
75565W        W47990  13.103   9.913   3.495
75566W        W47991  30.281   7.922  14.364
75567W        W47992  28.225   3.903   4.728
75568W        W47993  32.175  18.175   4.654
75569W        W47994  21.794  31.077  13.584
75570W        W47995  24.354  28.186  14.503
75571W        W47996  11.382  43.000  13.473
75572W        W47997  31.365  15.237   0.391
75573W        W47998   0.061  34.090   2.767
75574W        W47999  32.367  24.231  12.092
75575W        W48000  12.253  43.733   2.385
75576W        W48001   4.710  30.162   4.616
75577W        W48002  27.498  34.993   2.662
75578W        W48003   4.416   3.286  14.383
75579W        W48004  42.030  38.446   2.929
75580W        W48005  15.135  35.504   4.620
75581W        W48006   7.142   5.273  12.012
75582W        W48007  31.388  25.159  12.462
75583W        W48008  36.554  17.348  14.133
75584W        W48009  36.579  30.542  10.707
75585W        W48010  25.646  23.568  10.098
75586W        W48011   9.349  17.146   4.845
75587W        W48012  28.127  12.142  11.092
75588W        W48013   3.988   0.163  11.229
75589W        W48014  35.701  30.132   0.798
75590W        W48015  38.580  10.804  13.374
75591W        W48016  21.563   7.391  13.694
75592W        W48017  41.433  42.059  12.586
75593W        W48018  38.165  42.525   0.755
75594W        W48019  24.273  16.713   4.698
75595W        W48020   8.429  35.913  12.765
75596W        W48021  18.549  31.098  14.692
75597W        W48022  14.048  24.637  11.077
75598W        W48023  40.297  11.244  12.963
75599W        W48024  42.423  27.916   0.420
75600W        W48025   5.531   7.829   0.182
75601W        W48026  39.389  11.403  12.002
75602W        W48027  37.336  28.646  12.585
75603W        W48028   1.064  19.687  14.681
75604W        W48029  14.758  40.257   0.393
75605W        W48030  24.463  38.166   3.253
75606W        W48031  28.759  26.944   4.099
75607W        W48032  43.294  43.291  12.378
75608W        W48033  22.139  10.604  13.312
75609W        W48034  27.206  43.448   0.477
75610W        W48035  33.124  35.854   2.719
75611W        W48036   1.515   7.677  12.743
75612W        W48037  17.266  38.543  13.011
75613W        W48038  10.367  35.672   3.380
75614W        W48039  29.478  38.947   3.644
75615W        W48040  43.738  40.095   0.356
75616W        W48041  38.085  37.555   3.736
75617W        W48042  29.069  23.718  13.512
75618W        W48043  31.764  35.954  12.204
75619W        W48044   7.404   2.935  10.536
75620W        W48045  15.584  36.540   3.268
75621W        W48046  36.266  34.369   1.432
75622W        W48047  20.532  18.625  13.442
75623W        W48048  12.927   0.217  12.082
75624W        W48049  42.950  28.541  13.117
75625W        W48050   3.633  19.703   3.727
75626W        W48051  31.209  33.574  12.960
75627W        W48052  25.890  35.954   3.947
75628W        W48053  26.612  29.631  11.140
75629W        W48054  36.442  12.076  11.583
75630W        W48055   3.443  44.010  14.719
75631W        W48056  16.749  38.337  14.719
75632W        W48057  38.256  27.596   4.081
75633W        W48058  20.404  14.759   1.337
75634W        W48059   1.860  24.976   3.592
75635W        W48060   5.205  23.131  12.450
75636W        W48061  28.561  31.051  10.884
75637W        W48062   4.866  37.458  10.477
75638W        W48063   7.716  34.478   0.718
75639W        W48064   3.010  31.362   1.292
75640W        W48065   2.384   3.166  12.492
75641W        W48066  41.861  34.950   0.632
75642W        W48067  36.324  14.066   2.360
75643W        W48068  21.683  27.710   5.027
75644W        W48069   4.215  13.887  13.496
75645W        W48070  10.081  38.940  12.000
75646W        W48071  20.014  12.235   3.290
75647W        W48072  40.932  24.049   1.199
75648W        W48073  24.623  10.165  12.020
75649W        W48074  42.728  12.111  11.072
75650W        W48075  22.777  44.280   4.275
75651W        W48076  38.910   5.447   4.112
75652W        W48077  43.137  11.913  14.057
75653W        W48078   9.117  43.555  11.047
75654W        W48079  14.288  43.454   5.029
75655W        W48080   8.944  15.216   4.198
75656W        W48081  36.446   1.059  13.967
75657W        W48082   5.979   5.726   3.148
75658W        W48083  17.339  28.156   0.795
75659W        W48084  17.375   8.797   1.281
75660W        W48085  10.589  16.575   3.151
75661W        W48086   3.386  24.160  14.893
75662W        W48087  11.373   1.493  10.488
75663W        W48088  30.385  24.514   5.121
75664W        W48089  12.131   0.267  12.418
75665W        W48090  32.939  10.896  14.231
75666W        W48091  33.000   4.220   4.394
75667W        W48092  23.302  24.226   4.390
75668W        W48093   2.399  35.692   5.096
75669W        W48094  28.995  44.668  12.969
75670W        W48095  21.077  38.068   2.411
75671W        W48096   0.660  15.170   0.766
75672W        W48097   7.445   0.254  11.724
75673W        W48098  18.557  42.142   4.555
75674W        W48099   5.204  12.137   3.311
75675W        W48100  37.444  33.135   3.631
75676W        W48101  41.329  42.499   3.193
75677W        W48102  42.320   6.924   0.183
75678W        W48103  19.810  20.121  14.915
75679W        W48104   6.707  24.659   3.282
75680W        W48105  10.622  14.899   2.699
75681W        W48106  24.939  13.297  12.882
75682W        W48107  10.861  24.596  12.570
75683W        W48108  20.609  27.138  14.520
75684W        W48109  36.609  36.564  11.035
75685W        W48110   2.274  14.601   3.660
75686W        W48111   0.748  32.894   0.869
75687W        W48112  33.067  26.559  10.598
75688W        W48113  31.536  43.965  10.285
75689W        W48114  22.390  14.323   3.679
75690W        W48115   7.291  33.178  13.396
75691W        W48116  20.048  40.083  13.483
75692W        W48117  16.649  16.190   3.070
75693W        W48118  14.861  13.705  12.923
75694W        W48119  25.124  43.549   1.600
75695W        W48120  19.460  15.681   1.690
75696W        W48121  15.720  12.067  10.553
75697W        W48122   3.333   1.425   0.710
75698W        W48123   7.309  43.676  14.734
75699W        W48124  11.383  39.864   0.630
75700W        W48125  39.293  39.102   0.777
75701W        W48126  28.318  32.412  11.173
75702W        W48127   8.383  31.458  11.189
75703W        W48128  22.042  10.897   2.305
75704W        W48129  25.627  43.400   4.687
75705W        W48130  42.310  33.412   4.718
75706W        W48131   0.853  17.978   5.019
75707W        W48132  20.244  34.362   1.067
75708W        W48133  17.235  13.668   3.837
75709W        W48134  42.278  17.524   4.604
75710W        W48135   9.654  40.438  14.067
75711W        W48136  39.609  17.069  11.198
75712W        W48137  39.741  32.703  14.897
75713W        W48138  25.140  29.952  10.647
75714W        W48139  31.027  30.376   3.179
75715W        W48140  20.180   3.183  14.202
75716W        W48141  30.920  39.569   2.187
75717W        W48142   4.796   0.552   1.815
75718W        W48143  41.612  38.060   0.378
75719W        W48144   1.294  42.427   2.688
75720W        W48145  14.853   2.274   2.685
75721W        W48146   7.567  44.202   4.457
75722W        W48147  42.139  19.795   4.591
75723W        W48148  31.933  20.126   5.187
75724W        W48149  44.026  40.968   4.187
75725W        W48150  31.979  19.985  11.060
75726W        W48151  24.111  36.427   2.915
75727W        W48152  14.798  22.026   0.284
75728W        W48153  29.078  24.092  11.120
75729W        W48154  33.988  24.325   0.226
75730W        W48155  28.677   3.969   3.429
75731W        W48156  26.559  42.580  13.274
75732W        W48157  31.517  43.998   2.327
75733W        W48158  10.408  37.987   0.890
75734W        W48159  23.806  12.896   0.485
75735W        W48160   4.411  31.629  10.816
75736W        W48161  28.153  10.863  13.743
75737W        W48162  37.852  20.539  12.170
75738W        W48163  22.754  11.974   4.985
75739W        W48164  43.831  24.968   1.003
75740W        W48165   4.216  27.389  12.955
75741W        W48166   1.015   5.205  10.138
75742W        W48167   7.920  34.908  11.563
75743W        W48168   9.627  14.040   0.323
75744W        W48169  14.031  29.965   0.976
75745W        W48170  39.929   5.896  14.899
75746W        W48171  18.101  10.659   0.485
75747W        W48172   7.867   6.450   4.011
75748W        W48173   8.241  43.790  14.829
75749W        W48174   7.199   2.309   0.684
75750W        W48175  14.885  27.023   4.109
75751W        W48176   2.187  32.207  12.041
75752W        W48177  31.147  10.779  14.718
75753W        W48178   5.678  11.332   4.382
75754W        W48179  41.732  34.815   3.319
75755W        W48180  37.874   2.309   3.276
75756W        W48181   0.475  23.035  14.766
75757W        W48182  37.955  40.621   1.638
75758W        W48183  40.554  39.929  13.963
75759W        W48184  24.473  23.080  11.134
75760W        W48185  28.516   0.308   2.245
75761W        W48186  33.404  20.712  11.184
75762W        W48187   9.164  11.371   2.698
75763W        W48188  13.527  13.616  14.820
75764W        W48189  41.567  36.005  10.690
75765W        W48190  10.182   1.992  12.854
75766W        W48191  25.447  33.790  12.942
75767W        W48192  37.956  31.167  11.002
75768W        W48193  42.051   4.768  12.051
75769W        W48194  23.090   2.884   3.056
75770W        W48195  29.028  24.681  14.996
75771W        W48196  13.380  31.482  12.408
75772W        W48197   3.164   9.581  13.325
75773W        W48198  22.035  25.676   4.506
75774W        W48199  14.262  22.473   0.805
75775W        W48200  39.478  42.390  11.348
75776W        W48201  36.173  12.753   3.711
75777W        W48202  17.670  12.324   2.228
75778W        W48203  10.162  16.858   1.171
75779W        W48204  23.729   0.987   4.166
75780W        W48205  11.927  31.854  14.980
75781W        W48206  20.804  19.788   0.367
75782W        W48207  42.941  22.207   0.763
75783W        W48208   7.874  15.547   0.671
75784W        W48209  34.823  40.913  14.331
75785W        W48210  18.085  32.224  13.745
75786W        W48211  38.080   3.699   4.250
75787W        W48212  28.437   6.238  11.137
75788W        W48213  42.820  13.792   3.383
75789W        W48214   1.256  12.217   0.505
75790W        W48215   3.451  39.320  11.550
75791W        W48216  12.579   0.483  13.462
75792W        W48217  27.555  39.323  12.459
75793W        W48218  13.840  42.650  12.449
75794W        W48219  30.234  15.101   1.775
75795W        W48220  22.765  22.426  10.204
75796W        W48221  43.314  25.598  14.368
75797W        W48222  14.653  34.613   3.705
75798W        W48223   5.380   9.388   4.212
75799W        W48224  43.898  18.982  14.788
75800W        W48225   3.972  28.028  13.525
75801W        W48226  36.759  29.159   0.249
75802W        W48227  35.078   0.852  11.972
75803W        W48228  43.907  23.723  11.525
75804W        W48229  15.732  33.872  10.859
75805W        W48230  11.872  44.362   0.771
75806W        W48231  29.394  21.810   3.250
75807W        W48232  34.695  19.232   2.608
75808W        W48233  33.089  12.620   3.792
75809W        W48234  15.706   3.098  14.260
75810W        W48235  42.554   9.777  11.562
75811W        W48236  34.928  33.855  12.338
75812W        W48237  24.674   7.238  13.446
75813W        W48238  18.490   1.245   0.417
75814W        W48239   6.907   0.223  14.109
75815W        W48240  21.508  10.278  11.998
75816W        W48241  30.221  39.807  10.514
75817W        W48242  43.721  26.723  11.856
75818W        W48243   3.351  13.837  11.954
75819W        W48244   8.919  23.214   0.784
75820W        W48245  21.487  15.092   1.218
75821W        W48246  43.431  34.980  14.284
75822W        W48247  29.653  12.873   1.865
75823W        W48248   5.401  10.622  14.137
75824W        W48249  33.814  14.900  13.815
75825W        W48250  12.759  13.075   0.252
75826W        W48251  14.857  24.071  13.407
75827W        W48252  23.192  14.555  13.217
75828W        W48253  15.246  30.877  14.445
75829W        W48254   7.247  36.424  13.785
75830W        W48255  44.857   1.709   2.216
75831W        W48256  32.597  43.385  12.380
75832W        W48257  15.299  35.369   0.276
75833W        W48258  15.089  19.001  13.973
75834W        W48259  14.970  41.505   2.207
75835W        W48260  18.928  20.648  13.050
75836W        W48261  40.417  42.973  12.178
75837W        W48262   0.177  25.958   2.911
75838W        W48263  41.486  25.915   3.754
75839W        W48264  32.458   1.790   0.364
75840W        W48265   1.269  39.417   4.577
75841W        W48266   7.622  27.569   3.767
75842W        W48267  26.454   4.777   0.959
75843W        W48268   1.365  23.657  13.308
75844W        W48269  22.808  31.921  12.437
75845W        W48270   7.966   7.914  13.122
75846W        W48271  21.033   4.551   3.601
75847W        W48272  14.157  37.556   3.329
75848W        W48273  43.543  40.677  13.299
75849W        W48274   5.724   8.132  14.807
75850W        W48275  38.044  28.596  11.724
75851W        W48276  43.902   6.872  11.107
75852W        W48277  36.323  11.977  14.538
75853W        W48278   4.752  30.952   0.048
75854W        W48279  35.876  20.677  11.807
75855W        W48280  33.931  10.971  14.523
75856W        W48281  13.262  32.564   3.357
75857W        W48282  25.098  19.168  11.648
75858W        W48283  18.318  20.751   2.399
75859W        W48284  30.610  16.094   4.637
75860W        W48285  20.200  14.726   0.428
75861W        W48286  19.655  18.750  13.064
75862W        W48287   5.854  40.870   4.438
75863W        W48288  21.988  31.619   3.295
75864W        W48289  10.467   0.442  10.227
75865W        W48290  37.435   5.073   0.688
75866W        W48291  42.064   9.197  13.238
75867W        W48292  11.801   0.506  11.641
75868W        W48293   8.828  31.862  13.850
75869W        W48294  35.932  12.901  11.586
75870W        W48295   7.924  34.512  13.353
75871W        W48296   2.891  37.192   3.845
75872W        W48297  13.330   1.866  14.464
75873W        W48298  18.087  22.377  14.450
75874W        W48299  22.017  41.681   2.807
75875W        W48300  19.571  33.080  12.021
75876W        W48301  27.014   0.725  10.223
75877W        W48302  32.512  39.251   9.990
75878W        W48303  21.178   5.278  12.456
75879W        W48304  31.121  22.968   0.480
75880W        W48305  19.004  36.136   1.067
75881W        W48306   1.826  15.888  12.627
75882W        W48307   4.961  33.871  13.670
75883W        W48308  25.116  40.055   4.488
75884W        W48309  28.166   8.628   0.545
75885W        W48310  11.296  23.011  11.171
75886W        W48311  19.446  37.037   4.204
75887W        W48312  14.940  34.674  13.022
75888W        W48313  16.290  36.017   5.141
75889W        W48314  13.582  39.837   0.712
75890W        W48315  40.341  31.659  14.073
75891W        W48316  29.985  33.372   3.604
75892W        W48317  26.434  30.909  13.825
75893W        W48318   6.174  41.424  12.458
75894W        W48319  20.506  17.690  11.729
75895W        W48320  28.727   5.350   3.656
75896W        W48321   1.179  41.939   1.415
75897W        W48322  38.298  20.983   3.401
75898W        W48323  28.787  39.092  14.871
75899W        W48324   9.604   5.709   1.874
75900W        W48325  32.063  23.077   0.476
75901W        W48326  40.634   0.927   5.023
75902W        W48327  37.089  22.817   2.660
75903W        W48328  43.091   3.733   3.818
75904W        W48329  14.823   1.699  11.559
75905W        W48330  12.422   4.804   3.214
75906W        W48331   8.704  39.414   3.378
75907W        W48332  21.556  22.783  11.420
75908W        W48333   4.180  30.655  11.874
75909W        W48334  39.613  44.815   1.856
75910W        W48335  19.788   0.944   1.243
75911W        W48336   4.105   9.635  13.503
75912W        W48337  21.608  29.309   3.597
75913W        W48338  14.097  37.579   4.697
75914W        W48339  27.532  22.559   0.469
75915W        W48340  25.322   9.877  12.892
75916W        W48341  20.875  44.453  12.962
75917W        W48342   2.275  13.707  12.383
75918W        W48343  44.028   5.222   0.673
75919W        W48344  23.240  17.643  13.307
75920W        W48345  16.155   1.882  14.784
75921W        W48346  22.625  42.707  12.534
75922W        W48347   7.223  11.114   2.203
75923W        W48348  39.018  17.501  13.613
75924W        W48349  21.577  27.923   4.089
75925W        W48350  34.583  34.418  10.565
75926W        W48351  36.624  17.422   0.456
75927W        W48352  34.378   3.046   5.068
75928W        W48353  36.822  20.212   0.503
75929W        W48354   1.893  18.290  11.982
75930W        W48355  18.490  16.995  12.732
75931W        W48356  11.794  24.741   0.882
75932W        W48357   5.677   8.619  14.965
75933W        W48358  11.829  29.869   2.706
75934W        W48359  25.256   1.154  10.686
75935W        W48360  40.648  16.253  13.905
75936W        W48361  36.964  35.054  10.754
75937W        W48362  32.915  26.714  14.245
75938W        W48363  31.166   8.850   0.269
75939W        W48364  16.660  24.761   2.983
75940W        W48365  34.490   3.750   0.896
75941W        W48366   2.688  19.033   1.043
75942W        W48367   5.673  17.667  12.048
75943W        W48368  24.256   2.817   4.301
75944W        W48369  16.216  42.999  14.068
75945W        W48370   1.046  13.704   2.170
75946W        W48371  18.159  24.529   2.039
75947W        W48372  18.619   2.151   4.644
75948W        W48373  14.219   8.576   1.952
75949W        W48374   3.271  42.218   3.064
75950W        W48375  26.115  43.496  12.558
75951W        W48376  25.397  30.995  13.881
75952W        W48377   1.857   7.907  12.447
75953W        W48378  41.567  10.666  14.748
75954W        W48379  20.594  13.828   2.185
75955W        W48380  36.922  10.837   1.978
75956W        W48381   9.582   0.016   3.285
75957W        W48382   2.425   0.022   0.191
75958W        W48383   4.470  30.611   4.532
75959W        W48384  24.104  23.434   1.338
75960W        W48385  37.822  27.548   2.366
75961W        W48386   8.202  39.524   0.275
75962W        W48387  11.812   1.225  13.049
75963W        W48388  19.926  22.531  14.303
75964W        W48389  29.855  35.429  12.956
75965W        W48390   1.731  23.253   0.752
75966W        W48391  38.561   8.679  14.331
75967W        W48392  42.635  22.718  10.096
75968W        W48393  23.660  17.709   4.147
75969W        W48394   8.402  19.556  14.836
75970W        W48395  41.726  41.550  11.988
75971W        W48396  33.447   6.816  11.606
75972W        W48397  40.016   4.945  13.948
75973W        W48398  25.953   9.769  12.298
75974W        W48399  34.487  27.371  12.397
75975W        W48400  24.497  35.440   4.133
75976W        W48401   4.003   8.341  14.416
75977W        W48402  36.174  38.949   1.875
75978W        W48403  40.465   2.937   1.109
75979W        W48404  16.249   8.403  13.549
75980W        W48405  37.059  41.263  14.353
75981W        W48406   4.337  41.843  10.724
75982W        W48407  34.918  44.492  10.725
75983W        W48408  11.294  11.612  14.228
75984W        W48409   1.838  39.465  12.521
75985W        W48410  32.907  21.637   4.743
75986W        W48411  41.237  30.586   2.621
75987W        W48412   6.857  30.445  13.432
75988W        W48413  41.956   7.803  14.287
75989W        W48414  17.072   0.721   1.759
75990W        W48415  38.922  35.645  10.285
75991W        W48416   0.401  13.738   3.934
75992W        W48417  30.268  13.417   2.198
75993W        W48418  42.049  13.468  11.358
75994W        W48419  41.637  35.294  11.037
75995W        W48420  31.101  11.616  14.448
75996W        W48421  12.952  19.474  11.245
75997W        W48422  37.841  12.373   4.213
75998W        W48423   7.394   3.265   2.925
75999W        W48424  33.107  42.489   3.227
76000W        W48425  23.028  34.918   2.700
76001W        W48426  29.126   6.176   0.877
76002W        W48427  10.735  25.162   0.412
76003W        W48428  35.116  19.678   4.310
76004W        W48429  43.888  41.081  11.041
76005W        W48430  14.551  30.107  12.979
76006W        W48431   3.186  35.920  14.487
76007W        W48432  17.961   3.292   0.816
76008W        W48433  28.038   5.891   2.220
76009W        W48434  32.384  31.395  13.017
76010W        W48435   0.890  35.159  12.142
76011W        W48436   2.475  33.360  14.113
76012W        W48437  18.628  31.602   1.901
76013W        W48438  32.380  34.353   3.144
76014W        W48439   5.685  33.568   3.685
76015W        W48440  26.142  19.080  13.959
76016W        W48441  20.980  24.262   2.677
76017W        W48442   7.022   6.100   2.300
76018W        W48443  16.720  23.129  14.606
76019W        W48444  21.000  30.000   4.164
76020W        W48445  40.988  39.967  12.226
76021W        W48446  32.437   7.854   3.190
76022W        W48447  17.088  24.196   4.510
76023W        W48448  14.188   5.251   4.677
76024W        W48449  25.158  42.658  12.967
76025W        W48450  19.527  37.597   4.281
76026W        W48451  42.935  16.263  12.121
76027W        W48452  35.886  40.567  12.550
76028W        W48453  16.052  12.505  10.615
76029W        W48454  38.769  34.837   5.028
76030W        W48455  15.686  44.894  11.193
76031W        W48456  20.375   4.424  11.147
76032W        W48457   5.910  28.691   1.767
76033W        W48458  43.957  23.686   3.376
76034W        W48459  14.482   9.390   3.712
76035W        W48460   9.622  33.997   2.741
76036W        W48461  10.267   1.463  12.875
76037W        W48462  18.656  30.413   3.765
76038W        W48463  42.033   0.016   2.819
76039W        W48464  38.145  17.035  12.471
76040W        W48465  20.991  11.689   3.655
76041W        W48466  22.422  28.832  11.622
76042W        W48467  21.510  42.956  12.063
76043W        W48468  35.858  16.496   2.230
76044W        W48469  44.946  41.550   2.336
76045W        W48470  29.436  42.755   4.537
76046W        W48471  35.494   2.317  11.610
76047W        W48472  35.618  25.225  12.561
76048W        W48473  26.666  39.979  10.890
76049W        W48474  36.008  17.736   3.600
76050W        W48475  26.129  42.856  10.607
76051W        W48476  33.275  26.195   1.863
76052W        W48477  21.746  43.278   4.169
76053W        W48478  32.412  36.150   4.571
76054W        W48479   0.748  19.369  14.402
76055W        W48480  24.576  43.406   3.719
76056W        W48481   4.725  30.471   4.040
76057W        W48482   7.693  25.161  12.133
76058W        W48483  29.857  17.836   0.149
76059W        W48484  42.529  24.446  14.762
76060W        W48485  44.277  44.655  10.673
76061W        W48486  11.667  25.037  14.401
76062W        W48487  38.949  41.916   3.059
76063W        W48488  22.050   2.954   2.925
76064W        W48489  13.255  18.704  13.957
76065W        W48490  36.617  22.787   2.863
76066W        W48491  33.534  22.694  13.274
76067W        W48492  19.245  27.245  14.256
76068W        W48493  33.015  21.732  14.977
76069W        W48494  38.385  31.897  13.451
76070W        W48495  31.129  42.436   0.581
76071W        W48496  42.839  23.408   1.300
76072W        W48497   0.723  27.482  10.708
76073W        W48498  43.555  14.097   4.596
76074W        W48499   8.686  36.149   9.801
76075W        W48500   9.196  18.580  14.809
76076W        W48501  41.277  30.045   3.296
76077W        W48502  12.882  43.372   0.941
76078W        W48503  33.611  18.382   2.820
76079W        W48504   9.789  22.721  13.768
76080W        W48505  19.183   5.461  11.660
76081W        W48506   3.009  22.597  10.717
76082W        W48507   4.268  21.623   3.346
76083W        W48508   4.359  16.761   2.734
76084W        W48509   8.781  34.640  11.630
76085W        W48510  41.550  26.182  14.340
76086W        W48511  13.552  39.277  12.077
76087W        W48512   5.073  37.002   3.894
76088W        W48513   0.891  17.439  14.488
76089W        W48514  21.361  15.112   4.357
76090W        W48515  36.883  20.063   3.836
76091W        W48516  23.432  40.977  10.750
76092W        W48517  21.127  16.979  13.442
76093W        W48518  41.306  25.305   0.795
76094W        W48519  19.850  22.261  11.267
76095W        W48520  19.036   7.459   2.014
76096W        W48521   6.668  17.619   4.662
76097W        W48522  17.615  29.220   2.669
76098W        W48523  16.534   5.686   1.649
76099W        W48524  26.030  25.804  14.056
76100W        W48525  34.382  10.555  13.735
76101W        W48526  33.842  29.491   3.213
76102W        W48527   0.048  11.234  10.683
76103W        W48528  27.727   8.642  14.947
76104W        W48529   3.425  16.251  11.571
76105W        W48530  14.750  10.352  13.793
76106W        W48531  33.972   6.413   2.256
76107W        W48532  16.702   1.403  13.001
76108W        W48533  40.405  31.633   3.445
76109W        W48534  15.652   1.368   1.769
76110W        W48535  14.300  16.688   2.141
76111W        W48536  18.078  31.213   1.340
76112W        W48537  26.581  43.183  11.964
76113W        W48538  36.959  35.599  11.991
76114W        W48539  33.085   1.497   0.879
76115W        W48540   5.275   7.287  12.237
76116W        W48541  26.141   1.917  12.447
76117W        W48542  21.229   7.397   0.580
76118W        W48543  31.169   3.956  12.372
76119W        W48544  15.172  42.574   3.173
76120W        W48545   9.166  39.346   3.685
76121W        W48546  34.095   4.440  10.628
76122W        W48547  25.732  18.342  13.722
76123W        W48548  19.126   1.655  10.830
76124W        W48549  15.775   4.923  12.891
76125W        W48550  13.643  35.612   2.422
76126W        W48551  25.409   3.379   4.667
76127W        W48552  18.767   9.839   3.293
76128W        W48553  43.782  41.045  14.499
76129W        W48554  31.647  30.643   1.452
76130W        W48555   1.362   9.411  10.758
76131W        W48556  32.952  31.879  10.220
76132W        W48557  21.998   4.779  10.638
76133W        W48558   2.869   1.513  10.672
76134W        W48559  21.577  24.280  13.539
76135W        W48560  23.085  44.226  10.329
76136W        W48561  33.598  29.945  10.757
76137W        W48562  41.034  17.041   2.103
76138W        W48563  26.538  26.158  13.044
76139W        W48564  30.925  41.536   4.157
76140W        W48565  23.873   4.091  14.920
76141W        W48566   7.346  12.598  10.857
76142W        W48567  10.405  33.882   1.788
76143W        W48568  16.768  14.089  11.990
76144W        W48569   5.906  20.859   1.495
76145W        W48570  16.077  17.344   2.341
76146W        W48571  43.938  43.204   0.785
76147W        W48572  44.885  18.613  10.560
76148W        W48573  41.260  39.024   1.279
76149W        W48574   6.168   7.918   0.722
76150W        W48575  23.804  36.637   3.552
76151W        W48576   9.608  19.206  14.285
76152W        W48577  38.341  38.763   0.869
76153W        W48578  28.600  22.655   1.327
76154W        W48579   5.438  35.003  14.293
76155W        W48580  39.947  18.327   1.918
76156W        W48581   8.129  37.206  14.039
76157W        W48582  29.508  17.421  10.670
76158W        W48583   6.588  43.461  14.872
76159W        W48584  15.145   1.459   2.180
76160W        W48585   5.245  22.738  11.168
76161W        W48586   6.820   0.602  13.206
76162W        W48587  27.607  41.247  12.190
76163W        W48588  41.430  38.410  12.661
76164W        W48589  32.159  26.015  14.419
76165W        W48590  20.352  42.320   0.793
76166W        W48591  37.225   7.419   3.765
76167W        W48592  30.205  33.172  14.327
76168W        W48593   4.821  30.972  11.118
76169W        W48594  19.169  25.295  12.909
76170W        W48595  22.072  24.488  13.307
76171W        W48596  25.294   4.254   4.403
76172W        W48597  27.707  44.100  13.359
76173W        W48598  29.714  33.148  12.121
76174W        W48599  14.330   5.200  10.685
76175W        W48600  12.344   4.206  14.231
76176W        W48601  15.151  35.556   1.661
76177W        W48602  18.840  34.980   2.838
76178W        W48603  12.333  43.218  12.004
76179W        W48604  30.222  36.502  11.538
76180W        W48605  11.908   8.422   3.733
76181W        W48606   3.292  14.186  12.825
76182W        W48607  33.626  37.356   2.226
76183W        W48608  12.192  10.383  14.858
76184W        W48609  32.973  11.399  14.407
76185W        W48610  23.044  21.707  11.647
76186W        W48611  20.250  32.637  14.593
76187W        W48612  28.992  14.145  14.847
76188W        W48613  26.038  41.237  11.009
76189W        W48614  20.910  12.152   4.244
76190W        W48615  22.021  19.679   1.683
76191W        W48616  34.358  10.768   0.188
76192W        W48617  29.552   6.827   4.409
76193W        W48618  14.364  11.257  13.795
76194W        W48619  44.084   9.353   0.477
76195W        W48620  27.052  24.860   1.776
76196W        W48621  10.913  30.877  12.617
76197W        W48622  21.686  41.854  11.337
76198W        W48623  28.556  10.583  11.901
76199W        W48624  24.139  42.351  14.348
76200W        W48625  25.896  38.019  10.716
76201W        W48626  17.179  27.714  10.600
76202W        W48627  18.279   0.159  14.510
76203W        W48628  37.654  18.313   1.852
76204W        W48629  21.171  27.062   3.979
76205W        W48630  15.811   9.719   3.817
76206W        W48631  16.026  39.266   4.685
76207W        W48632   1.239  20.259  10.999
76208W        W48633   4.372   6.840  11.218
76209W        W48634  18.643  16.762   0.955
76210W        W48635  36.900   6.028  13.930
76211W        W48636  29.069  24.967  12.893
76212W        W48637   2.836  21.884   4.893
76213W        W48638   1.024   6.681  12.078
76214W        W48639  41.088  22.965   2.684
76215W        W48640  25.761  14.254   1.455
76216W        W48641  10.384   2.397  13.733
76217W        W48642  34.978  39.959   4.663
76218W        W48643  43.279  27.559  10.764
76219W        W48644  17.281  22.568   4.604
76220W        W48645  30.438   6.749  10.661
76221W        W48646   1.400  42.975   4.500
76222W        W48647  13.226  24.907  11.616
76223W        W48648  37.947  10.329  11.581
76224W        W48649  25.050  17.572   4.649
76225W        W48650   5.200  13.734   2.269
76226W        W48651   1.529  15.232  10.605
76227W        W48652  39.893  39.525  11.499
76228W        W48653   2.256  37.214   2.072
76229W        W48654  29.002  21.067  12.880
76230W        W48655  19.830  14.616  11.645
76231W        W48656  12.601  19.019  14.920
76232W        W48657  14.322  41.771  11.416
76233W        W48658  34.357  26.177   2.582
76234W        W48659  37.035   2.271  14.663
76235W        W48660  34.541  15.193   2.171
76236W        W48661  20.965  41.587  10.700
76237W        W48662  19.762  37.648   3.361
76238W        W48663  20.701   1.419  12.559
76239W        W48664  36.014   6.358  10.771
76240W        W48665  39.879   7.812   0.475
76241W        W48666  42.594  39.080  10.824
76242W        W48667  35.741   1.387   3.363
76243W        W48668  44.462  35.139   2.752
76244W        W48669  37.369  40.097  14.098
76245W        W48670   6.914  16.686   3.242
76246W        W48671  22.551  42.076  13.588
76247W        W48672  32.037  38.251   2.210
76248W        W48673  23.911  43.625  13.966
76249W        W48674  18.745  15.404  10.720
76250W        W48675  35.680   1.229  10.795
76251W        W48676  34.534  21.387  10.659
76252W        W48677  12.342  10.765   0.267
76253W        W48678  26.956  35.399  13.351
76254W        W48679  18.712  35.318   1.705
76255W        W48680  27.342  30.196  11.437
76256W        W48681  31.083  22.055  13.958
76257W        W48682  18.129  12.344  14.345
76258W        W48683  28.355  13.617  13.416
76259W        W48684  44.294   2.772   2.682
76260W        W48685  19.699  12.062   1.944
76261W        W48686  44.280   6.316  11.094
76262W        W48687   0.266  34.119  13.915
76263W        W48688  12.216  36.463   1.951
76264W        W48689   0.626  12.461   0.910
76265W        W48690  29.235  22.694  11.691
76266W        W48691  24.710  13.535  11.505
76267W        W48692  35.368  16.706  12.999
76268W        W48693  15.614  27.014  12.860
76269W        W48694   4.487  13.259  11.375
76270W        W48695  11.345   8.646  12.810
76271W        W48696  42.345  23.898   2.534
76272W        W48697  26.241  25.760   3.264
76273W        W48698   3.903  11.336   4.667
76274W        W48699  40.506  13.300   1.121
76275W        W48700  44.707  30.365   4.689
76276W        W48701  10.269  26.134  12.658
76277W        W48702  28.037  29.260   2.671
76278W        W48703   1.725   6.017  14.855
76279W        W48704  11.598   7.254  13.119
76280W        W48705  39.595  17.815   2.725
76281W        W48706   9.142  16.639   3.144
76282W        W48707  22.762  19.059   2.637
76283W        W48708  27.928  16.353  11.027
76284W        W48709  27.503  37.991  14.734
76285W        W48710  37.473  29.125  12.297
76286W        W48711  40.432  25.152   3.295
76287W        W48712   5.839  29.829   3.876
76288W        W48713   2.196  12.691   3.702
76289W        W48714  36.319  39.684  11.936
76290W        W48715  26.708  10.928   0.870
76291W        W48716  23.150  23.727   0.320
76292W        W48717  42.893  26.433  11.183
76293W        W48718  42.678  26.662  12.379
76294W        W48719   1.937  41.124  11.715
76295W        W48720  36.009  20.199  13.979
76296W        W48721  20.145  25.563  14.982
76297W        W48722  33.999  24.190   0.730
76298W        W48723  17.723  33.056   0.755
76299W        W48724  34.466  24.118  10.957
76300W        W48725  36.880  20.699  12.970
76301W        W48726  17.151  33.739  12.073
76302W        W48727  25.853  35.378   0.786
76303W        W48728   3.720  41.623  11.515
76304W        W48729  22.232   0.421   1.420
76305W        W48730  44.893  29.397  14.790
76306W        W48731  41.845  22.803   4.601
76307W        W48732  29.600  11.308  11.673
76308W        W48733   9.193  33.829   3.699
76309W        W48734  29.384   2.363  14.444
76310W        W48735  33.391  30.625   2.624
76311W        W48736   1.822  17.661  12.666
76312W        W48737   2.006  14.526  12.546
76313W        W48738   1.256  13.089  12.452
76314W        W48739  14.923  10.774  11.134
76315W        W48740  17.803  35.176  12.571
76316W        W48741   0.004  34.363   0.381
76317W        W48742  35.558  32.996   2.954
76318W        W48743  20.656  38.128   2.709
76319W        W48744  15.659  15.787   2.740
76320W        W48745  40.057   0.804   1.877
76321W        W48746  10.715  25.675   3.736
76322W        W48747  39.534  29.564  11.028
76323W        W48748  26.952   2.346   3.772
76324W        W48749  29.867  43.776   4.686
76325W        W48750   5.977  24.818  14.360
76326W        W48751  20.816  37.662   1.153
76327W        W48752  31.584   8.942   1.778
76328W        W48753  10.863   9.643   1.262
76329W        W48754  36.540  24.718  14.416
76330W        W48755  12.146  27.393  13.964
76331W        W48756  27.698  32.904  11.856
76332W        W48757  31.641   2.833  14.272
76333W        W48758  25.602  25.199   3.362
76334W        W48759  25.095   9.754  13.903
76335W        W48760  42.284  21.689  10.472
76336W        W48761  10.392  11.143  13.907
76337W        W48762  14.076  13.269  13.008
76338W        W48763  29.674  41.889  14.942
76339W        W48764  15.714  33.363  11.598
76340W        W48765   9.491  33.493  10.662
76341W        W48766  29.565  14.661   1.932
76342W        W48767  37.538  13.563   0.438
76343W        W48768   9.171  38.494   1.235
76344W        W48769  10.955  25.389  12.804
76345W        W48770  20.739  31.921  14.394
76346W        W48771   9.668  44.249   2.246
76347W        W48772  28.956   1.368   0.154
76348W        W48773  30.408   7.289   1.391
76349W        W48774  29.030  31.652  14.419
76350W        W48775   1.906  41.489  12.086
76351W        W48776   1.930   2.384  13.507
76352W        W48777  28.029  34.001  11.632
76353W        W48778  13.744  27.595  14.968
76354W        W48779  24.054  15.078  13.982
76355W        W48780  35.498  12.136   3.263
76356W        W48781   6.396   4.772   1.478
76357W        W48782  42.465  25.678   3.710
76358W        W48783  26.774  20.185  12.854
76359W        W48784  44.796   1.057  10.730
76360W        W48785  22.549   5.363  12.462
76361W        W48786  20.104  18.247   2.606
76362W        W48787  42.753  26.433   1.441
76363W        W48788  16.754  21.781   0.369
76364W        W48789  32.521  11.448   0.679
76365W        W48790  26.476  14.926   3.724
76366W        W48791  35.913  16.552  11.458
76367W        W48792  35.665  21.643   2.849
76368W        W48793  29.144   5.246   0.905
76369W        W48794  29.531  20.531   3.152
76370W        W48795  41.081  41.946   3.651
76371W        W48796  17.316  24.698  10.665
76372W        W48797   1.797  17.487   1.049
76373W        W48798  35.966  37.326  11.086
76374W        W48799  38.395  35.373  13.450
76375W        W48800  18.140  27.180  11.493
76376W        W48801  24.541  44.572  13.476
76377W        W48802  42.587  37.537   2.732
76378W        W48803   2.335  44.449  13.406
76379W        W48804  43.737  41.306  12.675
76380W        W48805  42.602  14.702  13.873
76381W        W48806  25.429   7.254   3.732
76382W        W48807  26.583  37.488  10.731
76383W        W48808   9.124  12.627   3.288
76384W        W48809  40.812   7.280  14.725
76385W        W48810   4.139  36.056  13.180
76386W        W48811  17.128   8.228  13.517
76387W        W48812  30.082  25.032   4.983
76388W        W48813  26.115  14.202  13.204
76389W        W48814   4.297   0.993  13.807
76390W        W48815  39.513  23.300   2.158
76391W        W48816   3.300  14.141  10.984
76392W        W48817  19.583   9.020  11.505
76393W        W48818   7.642   9.283   2.280
76394W        W48819  19.140   3.925   1.362
76395W        W48820  20.538  15.846  12.029
76396W        W48821  22.159  17.228   0.980
76397W        W48822   8.646  40.281  10.036
76398W        W48823   1.796  31.579  11.315
76399W        W48824  25.929  15.631  14.011
76400W        W48825  15.697  14.076  10.698
76401W        W48826   7.253  44.165  14.854
76402W        W48827  14.513  30.889  11.979
76403W        W48828  39.305  24.302   0.778
76404W        W48829  27.478  12.151  13.035
76405W        W48830  15.833  12.639   0.800
76406W        W48831  32.397  17.307  14.984
76407W        W48832  19.698  44.524   1.954
76408W        W48833  31.159  12.189   3.099
76409W        W48834   4.746  12.347   1.811
76410W        W48835  34.733  44.962   1.429
76411W        W48836  29.556  15.962   3.914
76412W        W48837  40.431  43.184   4.419
76413W        W48838  10.799  35.383   1.651
76414W        W48839   6.946  27.667   0.307
76415W        W48840  34.130   1.340   1.604
76416W        W48841  41.014   3.607   0.789
76417W        W48842   3.184  38.314  11.522
76418W        W48843  27.423  20.104   2.785
76419W        W48844   1.486  42.149   3.263
76420W        W48845  37.375  24.455  11.993
76421W        W48846  31.156  11.894  10.837
76422W        W48847  34.120   8.770  12.861
76423W        W48848  11.052  12.298  13.073
76424W        W48849  18.251  26.212  10.718
76425W        W48850  15.568  31.816  14.345
76426W        W48851   0.573  10.100   1.409
76427W        W48852  42.995  11.429  13.870
76428W        W48853  32.662  39.656  13.488
76429W        W48854  39.255  14.273   2.644
76430W        W48855   9.988  40.908   3.698
76431W        W48856  25.008  20.182   1.370
76432W        W48857  27.419  44.171   9.734
76433W        W48858  17.086  37.331  14.978
76434W        W48859   0.337  10.833  13.902
76435W        W48860  44.951  44.097  11.074
76436W        W48861  31.616  18.236  12.138
76437W        W48862  22.852  24.207  12.885
76438W        W48863   6.696  38.667   3.255
76439W        W48864   9.879  41.768   0.544
76440W        W48865   8.624  25.605  14.412
76441W        W48866  28.514  30.703   1.302
76442W        W48867  16.703  43.089   1.281
76443W        W48868  19.649  11.097  14.411
76444W        W48869  15.603  33.907  12.442
76445W        W48870   4.779  18.220   3.967
76446W        W48871  12.124   8.924   2.834
76447W        W48872   3.702  18.132   0.188
76448W        W48873  19.059  37.388  14.846
76449W        W48874  14.642  10.818  13.017
76450W        W48875  17.214   9.682  10.164
76451W        W48876  18.718  28.696   0.868
76452W        W48877  34.166  40.477   2.046
76453W        W48878  31.961  23.472  12.317
76454W        W48879  22.608  27.375  11.516
76455W        W48880  11.170   7.932   4.573
76456W        W48881   8.747  18.336  11.844
76457W        W48882   5.998  29.656   0.824
76458W        W48883  19.709   3.620  13.590
76459W        W48884  34.777   2.179   0.288
76460W        W48885  29.141   7.259  12.345
76461W        W48886  16.173   9.718   2.613
76462W        W48887  27.499  32.510  10.621
76463W        W48888  27.040   1.239   1.428
76464W        W48889  10.793  18.242   0.414
76465W        W48890   3.415  38.315  13.291
76466W        W48891  23.006  42.535  12.804
76467W        W48892  42.541  32.628  12.119
76468W        W48893  20.749  44.172  14.479
76469W        W48894  38.785  43.684  13.148
76470W        W48895   4.855  35.064   0.485
76471W        W48896  12.753  20.538  11.143
76472W        W48897  34.847   4.739  11.955
76473W        W48898  20.735   6.684   1.921
76474W        W48899  12.844   9.321  13.880
76475W        W48900   1.702   7.850  11.578
76476W        W48901  28.545   2.715   4.852
76477W        W48902  34.589  37.462   2.603
76478W        W48903  24.637  38.230   1.344
76479W        W48904  33.075  23.257  13.961
76480W        W48905  38.427   1.937  14.019
76481W        W48906  34.962  34.842  12.067
76482W        W48907  41.312  24.492   4.028
76483W        W48908  24.347  34.106   1.211
76484W        W48909  25.110  16.239  11.606
76485W        W48910   7.291  20.797   3.267
76486W        W48911  40.906   0.877  13.761
76487W        W48912   8.340  40.921  11.081
76488W        W48913  28.115  11.639  10.964
76489W        W48914   4.431  22.669   0.736
76490W        W48915   7.757  18.696   1.425
76491W        W48916  35.853  39.400   1.761
76492W        W48917  14.583  28.539   2.315
76493W        W48918   2.694  14.659  11.225
76494W        W48919  37.623  22.287  12.717
76495W        W48920  36.513  25.205  12.572
76496W        W48921  10.877  10.593   4.682
76497W        W48922  13.094  41.520   0.794
76498W        W48923   0.014  27.084  13.447
76499W        W48924   3.232  17.804   3.001
76500W        W48925  15.816  32.456   1.849
76501W        W48926  25.691  34.552  12.656
76502W        W48927  10.876  10.234  10.988
76503W        W48928  29.985  14.414   2.469
76504W        W48929  29.277  10.038  11.070
76505W        W48930  21.643  42.542  10.668
76506W        W48931  37.894  43.235   4.100
76507W        W48932  10.251   8.598   4.235
76508W        W48933  11.802  30.045  14.399
76509W        W48934  31.436  27.698   0.796
76510W        W48935  28.041  26.005   0.717
76511W        W48936  22.075  40.881  14.925
76512W        W48937  12.660  26.757   2.798
76513W        W48938  30.582  28.986   3.267
76514W        W48939  40.637   2.393   2.552
76515W        W48940  16.219  14.897  10.797
76516W        W48941  14.108   7.328  13.430
76517W        W48942  40.368   0.789   2.335
76518W        W48943  37.885  29.125   3.339
76519W        W48944  15.095  38.319  12.318
76520W        W48945  12.907   0.179   1.252
76521W        W48946  23.187  33.482  12.018
76522W        W48947  18.404  38.340   2.738
76523W        W48948  17.266   7.837  10.681
76524W        W48949  14.205   4.829   3.402
76525W        W48950  23.037  14.109   0.038
76526W        W48951  13.673   0.392   0.979
76527W        W48952  43.540  20.551   4.142
76528W        W48953  27.232  40.877  13.182
76529W        W48954  30.879  16.041   1.911
76530W        W48955   4.448  28.134  14.784
76531W        W48956  22.560  39.272  13.110
76532W        W48957   1.716  25.647   0.894
76533W        W48958  28.383  21.128   0.314
76534W        W48959  25.280  20.545   1.973
76535W        W48960  41.406  10.592   5.032
76536W        W48961  37.169  31.483  14.288
76537W        W48962   4.985  22.676  13.083
76538W        W48963  29.486  30.384   1.436
76539W        W48964  17.752  30.577  14.730
76540W        W48965  40.663   3.856  14.376
76541W        W48966  28.108  22.050   2.937
76542W        W48967  23.136   8.229  12.006
76543W        W48968  14.037  16.179   1.941
76544W        W48969  36.159  28.665   3.650
76545W        W48970  20.248  20.456  11.089
76546W        W48971  34.447  26.085  11.497
76547W        W48972  44.764  44.457  10.766
76548W        W48973  13.535  16.130  13.815
76549W        W48974  19.742  24.048   1.251
76550W        W48975  43.146  33.285   3.158
76551W        W48976  15.708  27.448  11.429
76552W        W48977  37.152  33.224   2.187
76553W        W48978  27.107  25.003   0.240
76554W        W48979  32.673  30.563   4.183
76555W        W48980  34.428   4.670  13.519
76556W        W48981   9.141   0.985   2.172
76557W        W48982  15.455  34.893  11.673
76558W        W48983  40.325  14.121   4.714
76559W        W48984  41.811  19.876  12.023
76560W        W48985  32.617  43.810  13.178
76561W        W48986  28.681  37.392  10.668
76562W        W48987  10.013  39.147   3.382
76563W        W48988   4.920  40.748  14.305
76564W        W48989  27.940  28.997   1.211
76565W        W48990   6.444  28.857  14.866
76566W        W48991   3.369  24.041   1.698
76567W        W48992  10.586  18.758   3.727
76568W        W48993  14.178  34.472   3.827
76569W        W48994  37.488   6.930  14.481
76570W        W48995  17.707   1.710   0.319
76571W        W48996   1.036  21.631  13.842
76572W        W48997  17.622   5.203  14.744
76573W        W48998  15.679  43.228  13.392
76574W        W48999  34.513   1.855   2.295
76575W        W49000   0.943  10.177  11.119
76576W        W49001  27.384   2.001  13.039
76577W        W49002  22.057  11.804  14.506
76578W        W49003  32.561  41.811  10.667
76579W        W49004  19.171  37.933   4.177
76580W        W49005  30.525   0.490   3.581
76581W        W49006   1.168  19.637   0.182
76582W        W49007  29.358  19.354  14.355
76583W        W49008  32.410  37.390  13.916
76584W        W49009  42.732  37.590  10.880
76585W        W49010  38.563  11.203  14.456
76586W        W49011  40.049  21.319   4.141
76587W        W49012  28.416  31.965   3.245
76588W        W49013  27.505  11.768  12.481
76589W        W49014   2.899   9.371  11.537
76590W        W49015  22.370  23.157  14.457
76591W        W49016  20.132  13.108  11.728
76592W        W49017  11.092  16.583  14.025
76593W        W49018  18.033  18.617  13.553
76594W        W49019  14.326  40.248  14.409
76595W        W49020   6.836  21.207   0.355
76596W        W49021  41.000  13.363  12.517
76597W        W49022  26.695   2.862  10.657
76598W        W49023  37.403  37.555  12.017
76599W        W49024   4.916  36.117  11.820
76600W        W49025  22.853   7.747   3.095
76601W        W49026  21.729   4.894  14.830
76602W        W49027  15.370  13.207   3.080
76603W        W49028  25.293   7.232   4.724
76604W        W49029  16.746  16.685  12.897
76605W        W49030  10.672  10.676  11.854
76606W        W49031  36.141   7.407  14.410
76607W        W49032  15.863   2.317   2.877
76608W        W49033   4.105   0.431   1.435
76609W        W49034  36.756   9.243  10.180
76610W        W49035   2.799   6.778  12.392
76611W        W49036  32.049   2.204   1.703
76612W        W49037  16.535  13.088   3.536
76613W        W49038  44.100  31.592  11.323
76614W        W49039   8.959   9.231  14.349
76615W        W49040   9.279  30.917   4.839
76616W        W49041  36.403  25.221  11.485
76617W        W49042  39.790  18.315   3.749
76618W        W49043  39.423  38.816   1.199
76619W        W49044  31.456  32.149  11.989
76620W        W49045  43.316   8.206   1.330
76621W        W49046  39.882  22.702   2.261
76622W        W49047  14.864  37.387   1.780
76623W        W49048  33.606  40.127  13.377
76624W        W49049  30.112  44.321  11.213
76625W        W49050  23.106  37.383   5.066
76626W        W49051  38.315  17.703   2.244
76627W        W49052  20.617  31.487  12.616
76628W        W49053  26.556   1.921  10.777
76629W        W49054  37.454  43.565   3.216
76630W        W49055  39.368  39.409   3.414
76631W        W49056  14.209  26.009  13.950
76632W        W49057  13.653  10.323   1.349
76633W        W49058  30.858  20.004   0.334
76634W        W49059  27.564  10.533  11.182
76635W        W49060  42.532  25.873  13.443
76636W        W49061  10.781  31.717  11.508
76637W        W49062  12.096   5.341   3.972
76638W        W49063  32.092  21.458  14.897
76639W        W49064  29.020  36.910   1.807
76640W        W49065  30.571   4.818   4.144
76641W        W49066  37.505  43.553   1.252
76642W        W49067   8.876  34.028   1.761
76643W        W49068   8.782  42.276   4.204
76644W        W49069  25.038  16.316   2.866
76645W        W49070  19.110  38.524  12.848
76646W        W49071  27.908  10.305  13.894
76647W        W49072   6.767   8.717   0.805
76648W        W49073  19.539   1.172   0.276
76649W        W49074  29.580   9.839   2.576
76650W        W49075  26.619  22.684  13.478
76651W        W49076  14.593  42.980   3.092
76652W        W49077   4.264  12.284  13.464
76653W        W49078  41.862  13.323   4.651
76654W        W49079  26.445  24.806   2.142
76655W        W49080  26.484   8.232  13.084
76656W        W49081   6.192  13.923   4.744
76657W        W49082  26.981   1.811  14.959
76658W        W49083  26.638   4.167  12.977
76659W        W49084  11.117   5.765  14.698
76660W        W49085  11.053  35.808   1.741
76661W        W49086  44.043  15.601  14.823
76662W        W49087  22.358   4.860   1.868
76663W        W49088  33.415  11.177  11.685
76664W        W49089  43.093  11.966  14.973
76665W        W49090   9.354  43.920  14.208
76666W        W49091  19.473  24.467   2.997
76667W        W49092  44.544  14.423  13.873
76668W        W49093  35.854  30.485  14.736
76669W        W49094  18.682  33.354   3.176
76670W        W49095   7.761  23.206   1.247
76671W        W49096  17.135  28.941  14.568
76672W        W49097  17.485  31.450   0.626
76673W        W49098  19.283  25.251   2.087
76674W        W49099  15.980  38.280   3.559
76675W        W49100  14.303  27.594  10.978
76676W        W49101  12.619  34.511   1.692
76677W        W49102  31.820   6.960   0.363
76678W        W49103  28.847  26.385   1.467
76679W        W49104  41.765  30.950   0.465
76680W        W49105  33.883  13.612   4.212
76681W        W49106  30.420   1.468   3.736
76682W        W49107  39.238  36.925  13.287
76683W        W49108   3.171   7.249   4.098
76684W        W49109   8.098  17.533   1.797
76685W        W49110   8.302  28.421   1.311
76686W        W49111  34.131   7.392  12.687
76687W        W49112  30.576  21.701  12.144
76688W        W49113  34.093   2.074  14.516
76689W        W49114   6.235  30.571  13.533
76690W        W49115  13.289  40.720   2.717
76691W        W49116  35.934  41.863  12.054
76692W        W49117  20.928  35.718   1.662
76693W        W49118   5.943  20.703   0.041
76694W        W49119  16.652  10.724  11.602
76695W        W49120  39.037  14.203  13.350
76696W        W49121  30.170  44.034  12.974
76697W        W49122  35.459  18.725   3.643
76698W        W49123  43.389  42.895  13.380
76699W        W49124  14.853   5.773   4.900
76700W        W49125  21.115  30.564   1.734
76701W        W49126  18.964   3.939   4.349
76702W        W49127   2.247  22.612   2.141
76703W        W49128  12.381   8.768   3.278
76704W        W49129   3.528  29.640   4.868
76705W        W49130  40.781  33.379   3.758
76706W        W49131  30.624  15.915  13.372
76707W        W49132  26.781  43.936  10.983
76708W        W49133  23.714  10.566  11.857
76709W        W49134  27.417  20.722   4.123
76710W        W49135  42.505  28.516   1.721
76711W        W49136  27.097  10.359  14.439
76712W        W49137  13.295  33.910  14.401
76713W        W49138  28.620  32.216  14.349
76714W        W49139   7.005  17.293   2.360
76715W        W49140  18.812  17.979  10.105
76716W        W49141  42.296  32.903   4.852
76717W        W49142   5.844  32.731   2.616
76718W        W49143   9.817  44.810  13.337
76719W        W49144  23.057  34.063   2.149
76720W        W49145  33.837  18.325   0.964
76721W        W49146  16.834   0.669  13.638
76722W        W49147  40.890  40.298   3.070
76723W        W49148  36.014  26.298   1.296
76724W        W49149  12.288  33.994  13.087
76725W        W49150   5.004  40.135   2.129
76726W        W49151  41.829  21.230  11.575
76727W        W49152  42.782  44.754  10.698
76728W        W49153   4.117   7.900  11.897
76729W        W49154   7.328  10.315   0.251
76730W        W49155  22.634   0.898   1.856
76731W        W49156   9.205  23.776   3.104
76732W        W49157  36.763  40.996  10.772
76733W        W49158  39.994  44.978  12.374
76734W        W49159  41.934   7.115  14.863
76735W        W49160  25.053  15.899   1.401
76736W        W49161   7.169  19.444   2.681
76737W        W49162  20.103  38.461  12.362
76738W        W49163  25.609  33.522  10.557
76739W        W49164   5.789  38.075   2.645
76740W        W49165  44.007  43.605   0.464
76741W        W49166  27.110  27.951   0.511
76742W        W49167  15.554  28.156  13.669
76743W        W49168  22.254  26.617  13.398
76744W        W49169  13.223  34.237   5.220
76745W        W49170  44.000  21.249   4.636
76746W        W49171   0.304   0.341  12.933
76747W        W49172  29.152   1.612  14.711
76748W        W49173  31.968  18.821  13.810
76749W        W49174  25.355  40.048   1.864
76750W        W49175   5.188   8.654   3.643
76751W        W49176  27.392   7.168  13.590
76752W        W49177  20.197  36.970   3.106
76753W        W49178  35.598  33.339  12.842
76754W        W49179  43.427  37.014   1.708
76755W        W49180  27.244  26.063  12.576
76756W        W49181  22.371   7.406  11.124
76757W        W49182   9.198  14.806  12.343
76758W        W49183  30.302   8.738  11.582
76759W        W49184  12.185  44.455   3.128
76760W        W49185  14.984  40.490   5.214
76761W        W49186  30.813   2.454   3.786
76762W        W49187  36.331  17.153   3.886
76763W        W49188  44.806   7.947   2.401
76764W        W49189  41.309  10.430   3.326
76765W        W49190  26.241  40.834  10.770
76766W        W49191   5.825  11.172   1.369
76767W        W49192  24.337  13.161  11.489
76768W        W49193  44.930  24.953   2.918
76769W        W49194  33.197  29.975   0.289
76770W        W49195  35.410  36.160  11.098
76771W        W49196  32.402  27.167  10.937
76772W        W49197  22.978  15.262   4.570
76773W        W49198  28.547  21.277   1.819
76774W        W49199  43.323  31.572  11.953
76775W        W49200  27.993  11.700  14.306
76776W        W49201  36.187  12.522  12.445
76777W        W49202   6.721   7.451  12.258
76778W        W49203   3.469  15.334  11.960
76779W        W49204  41.526  22.793   3.855
76780W        W49205  24.234  44.986  10.794
76781W        W49206   1.318   3.412  14.928
76782W        W49207  38.783  36.815  13.603
76783W        W49208  28.973  10.846   1.395
76784W        W49209  36.075  44.978  10.463
76785W        W49210  26.598  28.763  12.396
76786W        W49211  27.623   1.685  10.708
76787W        W49212   9.874  24.601   3.862
76788W        W49213  18.288  38.380   2.225
76789W        W49214  34.669   2.850  13.502
76790W        W49215   4.949  37.522  13.817
76791W        W49216  30.994   1.419  14.275
76792W        W49217  38.116  26.077   0.881
76793W        W49218  30.988  37.273   3.721
76794W        W49219  22.226   4.352  12.506
76795W        W49220  10.710  42.636   3.796
76796W        W49221  38.577  10.429  12.460
76797W        W49222  32.230  35.941  11.985
76798W        W49223   2.974  40.791   3.693
76799W        W49224  37.842  24.023   3.640
76800W        W49225   6.748  40.312  10.614
76801W        W49226  39.268  38.125   1.785
76802W        W49227   5.712   6.799   3.255
76803W        W49228   6.883  33.145  12.050
76804W        W49229  40.526  41.911  10.666
76805W        W49230   3.194  31.217   4.062
76806W        W49231  41.736  43.218  11.015
76807W        W49232  38.326  29.859  11.516
76808W        W49233  15.770  42.606   1.407
76809W        W49234  37.756  22.278  11.157
76810W        W49235   8.961  30.716  10.611
76811W        W49236  24.819  26.648  11.549
76812W        W49237   0.835  26.565   3.395
76813W        W49238  11.550  15.204  11.520
76814W        W49239   7.806  15.235  10.494
76815W        W49240   4.772   9.101   2.846
76816W        W49241  32.654   4.350   2.401
76817W        W49242  36.002   0.745  13.491
76818W        W49243  23.762  20.767  11.024
76819W        W49244  32.911   6.723   4.569
76820W        W49245  44.359  38.444   1.470
76821W        W49246  21.328  20.108   4.651
76822W        W49247  31.317   5.006  12.464
76823W        W49248  16.214  24.944   0.631
76824W        W49249   9.186  39.336   0.634
76825W        W49250  29.536   1.500  12.983
76826W        W49251  28.551  17.521   0.346
76827W        W49252  10.564  31.630   0.739
76828W        W49253  37.551  14.428  14.915
76829W        W49254  24.192  30.746   4.549
76830W        W49255  12.599   8.848   0.329
76831W        W49256  14.288   2.206  13.089
76832W        W49257   7.758   5.349  10.319
76833W        W49258  21.740  30.152   0.745
76834W        W49259  14.737  27.143   2.315
76835W        W49260  30.909  10.850   1.757
76836W        W49261  15.722  36.840  11.617
76837W        W49262  41.354   8.681  12.625
76838W        W49263  34.018  43.580   1.375
76839W        W49264   0.867  33.217   1.267
76840W        W49265  19.965  26.779   1.527
76841W        W49266  26.055   3.821   3.163
76842W        W49267   7.189   9.907   2.996
76843W        W49268  19.999  11.208  12.982
76844W        W49269   7.712  28.990  10.703
76845W        W49270   4.715  24.654  13.962
76846W        W49271   0.427  23.743  11.982
76847W        W49272  21.783  18.648  13.763
76848W        W49273   1.531  26.193   4.766
76849W        W49274  36.877  29.898   3.193
76850W        W49275   8.115  12.116   3.673
76851W        W49276  21.654  28.997  14.809
76852W        W49277  30.992  14.127  11.708
76853W        W49278  34.977   6.760   0.905
76854W        W49279  22.524   5.953   3.234
76855W        W49280  37.364  28.571  13.474
76856W        W49281  42.447  22.120   1.877
76857W        W49282  31.424  25.109  14.921
76858W        W49283  30.134  39.294  10.412
76859W        W49284  21.012  25.006   1.844
76860W        W49285  38.381  40.832   4.504
76861W        W49286   6.589  26.986  11.924
76862W        W49287  40.935  27.632  10.340
76863W        W49288  41.265  38.323   4.693
76864W        W49289  24.488  38.123   2.324
76865W        W49290  34.248  30.451  11.227
76866W        W49291   7.106  23.502   4.599
76867W        W49292  21.323   1.803  11.134
76868W        W49293  23.021  13.852   4.415
76869W        W49294  44.323  34.578   2.733
76870W        W49295   2.738  30.354  11.965
76871W        W49296   2.858  26.215   3.255
76872W        W49297  23.730  35.130  12.981
76873W        W49298   1.802  34.833  11.872
76874W        W49299  12.807  36.828   1.867
76875W        W49300  14.049  21.801  10.418
76876W        W49301  34.050  43.505  12.564
76877W        W49302  14.817  36.466  13.069
76878W        W49303  14.291  32.031  13.758
76879W        W49304  35.449  34.630   3.878
76880W        W49305  11.257  17.754  14.264
76881W        W49306  37.539  21.124   1.946
76882W        W49307  33.963  40.221   4.057
76883W        W49308  24.616  26.524   4.147
76884W        W49309  44.690   5.600   1.993
76885W        W49310  28.071  26.112   0.204
76886W        W49311  11.857   5.358  13.082
76887W        W49312  32.109   3.208  13.826
76888W        W49313  10.521   0.843   2.228
76889W        W49314  40.408  10.910  14.835
76890W        W49315  36.437  15.133  11.079
76891W        W49316  42.508  40.783   4.249
76892W        W49317   3.096  21.873  12.864
76893W        W49318  14.293  28.369   0.943
76894W        W49319  22.407  11.203   1.205
76895W        W49320   0.554  30.107   4.616
76896W        W49321  44.354  13.420  13.889
76897W        W49322  10.725  22.987  12.058
76898W        W49323  36.406  34.305  13.816
76899W        W49324  18.140  12.379   1.903
76900W        W49325  14.018   3.843  11.205
76901W        W49326   7.765  10.131   4.152
76902W        W49327  14.158  20.417  12.148
76903W        W49328  15.625  18.930   0.579
76904W        W49329  40.301   5.151  11.655
76905W        W49330  25.459  21.120  10.623
76906W        W49331  40.418  10.103   0.865
76907W        W49332   6.315  13.648  14.303
76908W        W49333  15.978  20.761  13.405
76909W        W49334  11.683   5.445   1.007
76910W        W49335  29.321  35.547  10.652
76911W        W49336  38.023  11.175  14.667
76912W        W49337  40.327   1.072   4.126
76913W        W49338  24.905  29.880   1.635
76914W        W49339   0.018  35.522  13.065
76915W        W49340   0.837  38.620   3.580
76916W        W49341   6.127   7.693   3.800
76917W        W49342   8.102   0.404  13.502
76918W        W49343  30.759   2.501  12.345
76919W        W49344  29.696  23.394   1.356
76920W        W49345   3.371  44.960  13.028
76921W        W49346  21.342  13.510   1.734
76922W        W49347  40.101  10.188   0.253
76923W        W49348   4.960  24.262  12.111
76924W        W49349  43.315  19.292   2.782
76925W        W49350   3.290   1.441  13.328
76926W        W49351   6.777  33.335  13.411
76927W        W49352  18.976  17.069  12.884
76928W        W49353  23.523  43.329  11.060
76929W        W49354   5.135  27.580  10.802
76930W        W49355   8.177   8.645  14.395
76931W        W49356   9.676  14.825  11.729
76932W        W49357  30.945  29.888  13.540
76933W        W49358  42.798  40.912  11.566
76934W        W49359   5.978  41.137   1.584
76935W        W49360   6.325  10.681  13.588
76936W        W49361  43.444  24.973  14.035
76937W        W49362  14.181  39.889   2.047
76938W        W49363   8.981  14.224   4.269
76939W        W49364  38.900   9.290  11.410
76940W        W49365  37.927   4.249  11.421
76941W        W49366  41.994  13.611  13.478
76942W        W49367  37.315  30.451  13.132
76943W        W49368  38.124  20.121   0.255
76944W        W49369  30.077  31.578   3.109
76945W        W49370  32.041  39.486  14.998
76946W        W49371  35.631  29.801   2.424
76947W        W49372  32.880  32.107   1.301
76948W        W49373  40.721   6.058  11.250
76949W        W49374  44.369  24.978   1.670
76950W        W49375  32.047  43.457  10.677
76951W        W49376  35.121   9.778  10.425
76952W        W49377  22.168  41.419  13.969
76953W        W49378  42.793  41.997   1.134
76954W        W49379  22.718  20.577   0.516
76955W        W49380  24.165   9.219  11.395
76956W        W49381  32.193  35.867   4.170
76957W        W49382   3.742  12.320   3.347
76958W        W49383  27.961  28.037  10.701
76959W        W49384  30.072  21.136  13.739
76960W        W49385  17.680   5.194   0.770
76961W        W49386  18.297  37.555   4.582
76962W        W49387   4.794  44.313   0.945
76963W        W49388  13.238  31.161  13.861
76964W        W49389  27.412  38.427   3.882
76965W        W49390   0.031   8.245  13.032
76966W        W49391   8.936  37.321  14.438
76967W        W49392  29.455   1.422  13.547
76968W        W49393  30.362  23.995  12.452
76969W        W49394  35.751  28.713   1.455
76970W        W49395  28.519  23.333   0.715
76971W        W49396  21.168   5.611  12.957
76972W        W49397  32.308  34.672  12.025
76973W        W49398  43.580   2.806   2.167
76974W        W49399   7.175  32.635  12.620
76975W        W49400   8.997   0.544  12.585
76976W        W49401  37.523  10.712  11.066
76977W        W49402   4.818  13.024   2.869
76978W        W49403  32.985  12.175  11.193
76979W        W49404  33.674  34.863   1.129
76980W        W49405   6.114  13.184   3.709
76981W        W49406  40.755   0.157   1.825
76982W        W49407  40.537  22.716  13.908
76983W        W49408  41.868   3.039  14.297
76984W        W49409   7.064  20.610  13.843
76985W        W49410   0.452   8.598   1.218
76986W        W49411   8.496  40.883  13.456
76987W        W49412  29.191   9.274   3.167
76988W        W49413  39.236   5.304  12.825
76989W        W49414  17.999  26.167  14.934
76990W        W49415  29.159  37.156  10.664
76991W        W49416  40.054   6.308  12.931
76992W        W49417  40.523  43.861  14.470
76993W        W49418  41.976   5.912   2.066
76994W        W49419  17.558  16.511  13.877
76995W        W49420  16.085  20.075   1.232
76996W        W49421  25.011   3.781  10.638
76997W        W49422   6.836  23.216  11.591
76998W        W49423  28.312   4.407  11.039
76999W        W49424   9.211   1.605   0.182
77000W        W49425  22.266  23.731   1.220
77001W        W49426  36.359  44.256   3.260
77002W        W49427  10.995  40.921  14.118
77003W        W49428  29.069   4.223   2.853
77004W        W49429  12.387  21.809  14.494
77005W        W49430  38.045  12.875   4.197
77006W        W49431  26.236   2.437  11.642
77007W        W49432  26.019  25.340   3.057
77008W        W49433  36.919   9.191   1.817
77009W        W49434   6.322  23.090  12.133
77010W        W49435  17.342  27.620  12.955
77011W        W49436  22.978  34.371  13.006
77012W        W49437  24.747  27.146  12.923
77013W        W49438  11.616  41.840  11.478
77014W        W49439  18.755  24.675   0.788
77015W        W49440  24.957  42.802  12.440
77016W        W49441   2.521  24.373   0.843
77017W        W49442   3.322  11.191  13.031
77018W        W49443  23.140  19.524  11.641
77019W        W49444  43.968  43.860   2.882
77020W        W49445  33.861  40.549  14.351
77021W        W49446  13.746  37.621  13.823
77022W        W49447   4.888  39.733   3.088
77023W        W49448  41.356  31.393   4.130
77024W        W49449  44.917  13.715   4.150
77025W        W49450  12.869  44.345   3.364
77026W        W49451  11.341  34.481  13.560
77027W        W49452  43.548  12.878   3.677
77028W        W49453  44.339   1.527   2.115
77029W        W49454  37.373  20.819  13.062
77030W        W49455  43.034  44.513  13.694
77031W        W49456  33.789  27.957  11.504
77032W        W49457  21.203   3.358   2.274
77033W        W49458  40.258  26.397   4.561
77034W        W49459  40.512   9.357   2.352
77035W        W49460  13.673  21.794   3.227
77036W        W49461   4.503  25.118   1.255
77037W        W49462  38.886  31.100   1.736
77038W        W49463  42.398  10.284   3.703
77039W        W49464  33.868  22.047   4.193
77040W        W49465  27.259  10.328   3.104
77041W        W49466  32.003  36.826   2.189
77042W        W49467  17.604  23.639  12.021
77043W        W49468  36.017  10.700   2.855
77044W        W49469  10.857   8.500   3.227
77045W        W49470  15.130  11.558  12.067
77046W        W49471  32.442  20.354   2.159
77047W        W49472  35.181   0.970   2.098
77048W        W49473  37.365  38.614  14.881
77049W        W49474  27.946  13.302  11.621
77050W        W49475  10.422  15.715   3.680
77051W        W49476  21.644   9.839  14.526
77052W        W49477  31.021  11.695  13.105
77053W        W49478  10.220   2.436   3.267
77054W        W49479   3.660  15.593   2.594
77055W        W49480  42.380  29.108   1.389
77056W        W49481  27.574  17.701   2.817
77057W        W49482  44.343  22.314   3.360
77058W        W49483  40.416   6.454   3.400
77059W        W49484  20.618  10.733  10.140
77060W        W49485   5.248  20.661  11.576
77061W        W49486  13.120   8.642  11.067
77062W        W49487  13.724   9.087  13.518
77063W        W49488   9.979  41.470   2.166
77064W        W49489   0.504   0.841   3.054
77065W        W49490  27.166  12.183  11.455
77066W        W49491   0.474  33.114   1.931
77067W        W49492  32.148  33.397  10.984
77068W        W49493  16.740   3.786  13.910
77069W        W49494   5.889  36.375  13.741
77070W        W49495  28.902  38.880  12.407
77071W        W49496  40.918  32.190  14.647
77072W        W49497  31.284  33.093   3.695
77073W        W49498   4.342  39.437  12.013
77074W        W49499   0.495  21.451  12.523
77075W        W49500  19.531   4.755  12.559
77076W        W49501  44.257  28.388   4.329
77077W        W49502  21.905   5.283  11.566
77078W        W49503  22.800  16.760  13.528
77079W        W49504   6.389  42.376   3.147
77080W        W49505  37.046   7.844  11.593
77081W        W49506   5.903  41.318  11.145
77082W        W49507  22.180   2.518  13.982
77083W        W49508  33.565   2.848   3.362
77084W        W49509   2.408  10.769  14.517
77085W        W49510  17.033  43.966   2.192
77086W        W49511  24.257   3.030  13.375
77087W        W49512  44.778  18.054   3.253
77088W        W49513   4.223  21.425  11.695
77089W        W49514  24.638  40.430   0.212
77090W        W49515  20.665  11.362  14.324
77091W        W49516   5.289   3.360   4.919
77092W        W49517  33.814   1.678  11.232
77093W        W49518   1.339   1.518  13.609
77094W        W49519  28.765  27.811  14.004
77095W        W49520   5.702   5.799  13.549
77096W        W49521  39.261  28.520   3.861
77097W        W49522  27.434  31.527   5.236
77098W        W49523  43.350  29.192   0.729
77099W        W49524   2.528  23.402   2.844
77100W        W49525  24.118  34.565   1.258
77101W        W49526  11.938  19.305   3.854
77102W        W49527  20.022  21.739  13.908
77103W        W49528  37.871   4.982   0.257
77104W        W49529  19.414   8.685  14.477
77105W        W49530   9.216  19.158   1.296
77106W        W49531  20.550   9.587   3.121
77107W        W49532   5.686  33.705   4.605
77108W        W49533  41.615  11.390  13.301
77109W        W49534  35.662   3.747   2.335
77110W        W49535  31.926   0.406  10.979
77111W        W49536  31.575  18.138  12.643
77112W        W49537  16.967  24.489  11.028
77113W        W49538  23.194   6.155  14.842
77114W        W49539  25.352  12.068   3.598
77115W        W49540   7.781  32.081  12.001
77116W        W49541  15.881  26.582  12.998
77117W        W49542  26.754  33.912  14.492
77118W        W49543  26.714  27.053  10.652
77119W        W49544  35.339  28.074   3.190
77120W        W49545   7.610   8.311  11.166
77121W        W49546  29.619  20.119   4.467
77122W        W49547  40.653  44.394  14.768
77123W        W49548  18.334  24.810  12.777
77124W        W49549  33.639  28.624   4.104
77125W        W49550   6.966   1.723   0.360
77126W        W49551  30.256  16.215   2.356
77127W        W49552  32.986   3.826   3.640
77128W        W49553  30.656   2.690   2.560
77129W        W49554  27.930   6.712  11.991
77130W        W49555   3.261  42.730   3.203
77131W        W49556  28.725  32.565  12.953
77132W        W49557  38.007  18.238   4.047
77133W        W49558  18.508  25.363   1.666
77134W        W49559  28.531   9.283   3.785
77135W        W49560  32.231  28.651  12.582
77136W        W49561  17.336  42.600  14.984
77137W        W49562  26.739  25.434  14.523
77138W        W49563  19.157  35.342   2.336
77139W        W49564  21.039   2.836   4.374
77140W        W49565  39.055  44.495   0.417
77141W        W49566   3.805  32.345   4.501
77142W        W49567  33.099   1.355  13.589
77143W        W49568  10.691  31.414   1.769
77144W        W49569  18.088  36.935   2.249
77145W        W49570  39.504   0.270   3.611
77146W        W49571   3.434  12.849  11.950
77147W        W49572  28.628  10.679  13.812
77148W        W49573  29.750   8.264   3.130
77149W        W49574  14.834   3.301   0.373
77150W        W49575   7.266  36.141   1.865
77151W        W49576  38.565  29.154  13.908
77152W        W49577   2.575  23.652  11.555
77153W        W49578  41.562  24.749  14.817
77154W        W49579  25.714   2.912   1.240
77155W        W49580   0.931  31.761  12.470
77156W        W49581   9.302   5.807   2.310
77157W        W49582  13.582  16.749   0.442
77158W        W49583  43.987  21.150   3.120
77159W        W49584  31.005  19.680   1.543
77160W        W49585  36.936  15.170  10.950
77161W        W49586  38.967  16.435  11.372
77162W        W49587  34.669  21.635   4.579
77163W        W49588  35.057  37.907  10.884
77164W        W49589   1.955  11.276   2.574
77165W        W49590  44.952  38.081   2.909
77166W        W49591  44.967   5.859  11.366
77167W        W49592  17.043  15.769  13.869
77168W        W49593   4.214   1.164  11.481
77169W        W49594  15.617  16.308   2.782
77170W        W49595  10.311   7.518  11.558
77171W        W49596   2.516   5.296   1.794
77172W        W49597  28.938  30.099   4.188
77173W        W49598   8.321  17.069   1.721
77174W        W49599  10.661   5.838   2.328
77175W        W49600  19.127  27.617  13.921
77176W        W49601  28.789  17.599   3.163
77177W        W49602   8.495  13.640  14.429
77178W        W49603  38.438  15.212   2.665
77179W        W49604   9.645  30.207  11.519
77180W        W49605  13.852  17.264   0.059
77181W        W49606  40.624  30.280  12.453
77182W        W49607  11.370  22.635  14.785
77183W        W49608   8.696  42.930  13.423
77184W        W49609  35.860  30.931  14.367
77185W        W49610  27.626  21.052  13.861
77186W        W49611  10.722  23.773   4.734
77187W        W49612  13.618  10.699  10.772
77188W        W49613  15.939  11.252  11.113
77189W        W49614   7.684  21.267   2.740
77190W        W49615   1.363  13.302   3.686
77191W        W49616  42.360  32.654  13.594
77192W        W49617   3.188  18.154   0.243
77193W        W49618  22.930  34.488   3.342
77194W        W49619  24.269  24.217  11.680
77195W        W49620  20.104   8.186  11.644
77196W        W49621  14.855  15.661   0.921
77197W        W49622  20.315  35.152   0.554
77198W        W49623  19.527   6.469   1.681
77199W        W49624   1.232   2.676   4.637
77200W        W49625   6.099  42.231   0.780
77201W        W49626   1.394  39.989  14.690
77202W        W49627  17.832   8.777   3.143
77203W        W49628  20.617   0.362  10.954
77204W        W49629  27.259  37.896  13.335
77205W        W49630  35.035  18.521   2.286
77206W        W49631  35.846  42.323  11.181
77207W        W49632  30.676  43.301  12.949
77208W        W49633   2.790  38.484   4.829
77209W        W49634  37.007  22.155  13.897
77210W        W49635  28.132  38.395  14.114
77211W        W49636   3.351  39.552   0.248
77212W        W49637  28.977  37.486  11.848
77213W        W49638  26.233   3.424   2.879
77214W        W49639  40.747  34.527  13.651
77215W        W49640  15.286  39.233  11.558
77216W        W49641  42.760  21.985   1.497
77217W        W49642  28.627  39.076  10.131
77218W        W49643  23.434  44.752   3.817
77219W        W49644  42.430   2.956   3.989
77220W        W49645  42.347  21.717  14.787
77221W        W49646  16.330  28.423   2.399
77222W        W49647  24.960   5.187   4.053
77223W        W49648  13.989  24.313  11.490
77224W        W49649  13.655  30.974   1.103
77225W        W49650  20.118  13.232  10.723
77226W        W49651  19.146  11.496   1.910
77227W        W49652  36.006  11.880   0.839
77228W        W49653  30.759  38.767   1.829
77229W        W49654  16.265  30.123  11.627
77230W        W49655   4.487  24.445  14.387
77231W        W49656   0.378  30.548  10.416
77232W        W49657  15.155   0.287  13.452
77233W        W49658   1.839  32.093   4.327
77234W        W49659  44.598  11.702  14.888
77235W        W49660  23.200   3.015  13.314
77236W        W49661  11.948  38.037  14.280
77237W        W49662  39.520  33.561   3.237
77238W        W49663  34.055  24.566   1.976
77239W        W49664  43.534  37.422  12.897
77240W        W49665  29.114  33.605  14.305
77241W        W49666   8.765  41.761  13.038
77242W        W49667  37.577  38.871   2.149
77243W        W49668  41.961   6.813   3.592
77244W        W49669   4.910  18.402  11.101
77245W        W49670  13.061  32.948  12.658
77246W        W49671  32.516  28.640  10.591
77247W        W49672  44.185  26.269   0.424
77248W        W49673  44.353   8.789   4.847
77249W        W49674  19.471  29.870   3.303
77250W        W49675  20.938  41.167   3.997
77251W        W49676  40.541  32.500   0.224
77252W        W49677  15.124  27.942  11.436
77253W        W49678  30.895  30.003  14.352
77254W        W49679  24.254  14.273   3.879
77255W        W49680  28.379  33.511   3.608
77256W        W49681  33.907  21.678   4.610
77257W        W49682  36.154  39.463   3.813
77258W        W49683   9.149  44.816  11.714
77259W        W49684  17.522  10.178  11.239
77260W        W49685   8.146  38.752  11.162
77261W        W49686   7.900  40.751   1.843
77262W        W49687  11.237  40.473   3.410
77263W        W49688  23.580  17.974  12.421
77264W        W49689  30.098   7.396   0.035
77265W        W49690  31.963  38.982   1.467
77266W        W49691   4.347  24.621  11.648
77267W        W49692  24.483  35.006  12.495
77268W        W49693  17.548  25.324   4.058
77269W        W49694   9.917  11.412  12.615
77270W        W49695  24.955  15.750  11.670
77271W        W49696  34.897  38.009  10.403
77272W        W49697   3.882  21.188   2.268
77273W        W49698  28.248  21.160  12.408
77274W        W49699  14.761  31.903  13.567
77275W        W49700   1.614  33.301  14.457
77276W        W49701  38.661  23.185  13.521
77277W        W49702  20.089   2.827   3.317
77278W        W49703  41.836  44.831   0.112
77279W        W49704  24.667  23.781   0.581
77280W        W49705   2.493  40.497  14.240
77281W        W49706  25.451   6.767  13.494
77282W        W49707  31.118  17.701   0.596
77283W        W49708  37.334  23.003   0.464
77284W        W49709  38.849  19.717   1.218
77285W        W49710  19.815  24.931  14.451
77286W        W49711  18.691  25.066   3.106
77287W        W49712   1.231  33.651   1.449
77288W        W49713  12.214   8.916   4.424
77289W        W49714  27.218  38.599   4.362
77290W        W49715  35.192  38.634   1.836
77291W        W49716  27.543  35.356  14.343
77292W        W49717  43.792  19.048   3.577
77293W        W49718  11.207  11.593  12.373
77294W        W49719  23.754   6.414   1.777
77295W        W49720   4.815  39.002   3.843
77296W        W49721  24.521  27.678  11.567
77297W        W49722   9.359  36.631  12.836
77298W        W49723  41.362  11.340   4.151
77299W        W49724  32.115  25.465   3.140
77300W        W49725  28.570  40.874  10.778
77301W        W49726  42.779   1.929  13.037
77302W        W49727  15.700  28.654  12.048
77303W        W49728  25.685  20.843   1.789
77304W        W49729  34.787  20.211  11.621
77305W        W49730  31.977   5.795  11.556
77306W        W49731   9.216  36.378   4.231
77307W        W49732  26.268  39.515   3.236
77308W        W49733   6.797  22.642   3.597
77309W        W49734  38.482  34.000  14.594
77310W        W49735   3.729  42.536   4.977
77311W        W49736  33.339  17.589   1.986
77312W        W49737  23.213   5.751  11.605
77313W        W49738  35.354  28.716  10.678
77314W        W49739  19.017  16.097  12.853
77315W        W49740   1.475  25.392   1.343
77316W        W49741  32.440  37.979   0.939
77317W        W49742  10.414  16.707  12.164
77318W        W49743   6.867  17.249   0.488
77319W        W49744  15.421  35.728   0.648
77320W        W49745  38.365   6.922   5.227
77321W        W49746  42.901   9.721   0.445
77322W        W49747  17.553  38.564   1.825
77323W        W49748  13.970   9.433  12.011
77324W        W49749  30.574  32.041  11.910
77325W        W49750  19.759  24.703  14.960
77326W        W49751   4.223   3.309   0.226
77327W        W49752   6.494  25.235   1.396
77328W        W49753   8.861  14.736   2.263
77329W        W49754  29.010  41.839  10.001
77330W        W49755  27.583  30.157  11.922
77331W        W49756  24.039  30.217   1.779
77332W        W49757  32.974  10.668   4.046
77333W        W49758   3.786  33.622  11.062
77334W        W49759   3.022  30.839   2.903
77335W        W49760  15.159  24.012  11.896
77336W        W49761   7.321   2.887   1.383
77337W        W49762  12.392   8.531  14.618
77338W        W49763  32.592  35.630  13.612
77339W        W49764  35.962  21.516  11.406
77340W        W49765  15.067  39.591   1.445
77341W        W49766  42.980  11.052  14.948
77342W        W49767   0.470  40.024   1.756
77343W        W49768  14.029  33.103   0.771
77344W        W49769  29.249   7.812   2.505
77345W        W49770   6.745  21.644   3.896
77346W        W49771  40.156  28.856   0.982
77347W        W49772  17.190  23.182   2.151
77348W        W49773  20.970  31.390   1.307
77349W        W49774  33.879  25.761  14.436
77350W        W49775  22.525  19.542  14.258
77351W        W49776   6.713  10.018   5.038
77352W        W49777  10.100  18.340  14.829
77353W        W49778  34.578  10.811   0.661
77354W        W49779  33.814  36.651   3.848
77355W        W49780   4.025   3.445  14.741
77356W        W49781   5.911  33.099   3.531
77357W        W49782  39.427  31.974   1.677
77358W        W49783  18.602  40.076   3.207
77359W        W49784  19.732  42.278  10.689
77360W        W49785  12.343   2.834  13.431
77361W        W49786  18.129   9.689   3.993
77362W        W49787  12.135  14.937   4.621
77363W        W49788  26.423  28.401  13.454
77364W        W49789   2.274  37.090   0.708
77365W        W49790  37.919  35.392  10.614
77366W        W49791  10.834  13.634   1.061
77367W        W49792  36.784  29.508   1.675
77368W        W49793  35.912   2.886  14.118
77369W        W49794   7.820   8.751  11.045
77370W        W49795  30.283   2.213  12.553
77371W        W49796  20.913  19.063  14.026
77372W        W49797  10.436  22.257  14.412
77373W        W49798  17.606   4.718  11.480
77374W        W49799  21.303  33.655   3.243
77375W        W49800  12.198  30.154   3.701
77376W        W49801  17.656  33.668  10.265
77377W        W49802  25.129  14.727  14.761
77378W        W49803  40.613  20.493   3.143
77379W        W49804  11.921  35.105   5.029
77380W        W49805  20.323  34.552  10.014
77381W        W49806  20.906  36.379  14.474
77382W        W49807   1.776  41.055   4.058
77383W        W49808   7.180  28.943  10.664
77384W        W49809  34.365  18.361   2.299
77385W        W49810  44.298  25.251  13.369
77386W        W49811   9.701  33.421  13.163
77387W        W49812  16.363   9.314  12.593
77388W        W49813  27.094  43.034  14.758
77389W        W49814   8.811  25.304   1.216
77390W        W49815  33.866   3.348  11.505
77391W        W49816  12.416  18.663   2.146
77392W        W49817  44.116  32.011  14.065
77393W        W49818  13.217  20.931   3.930
77394W        W49819  23.630  27.948  11.580
77395W        W49820  29.058   9.693   0.889
77396W        W49821   3.321  21.497   1.869
77397W        W49822  27.743  39.209  13.498
77398W        W49823  40.367  34.025  10.968
77399W        W49824  16.661  13.232   1.981
77400W        W49825  39.370  21.175   1.135
77401W        W49826  43.530  22.834   0.770
77402W        W49827  30.043  23.222   2.726
77403W        W49828   0.696  18.242   2.933
77404W        W49829  41.245  26.963  12.453
77405W        W49830   3.470  43.083   2.849
77406W        W49831  41.642  41.265   3.703
77407W        W49832  36.958  25.469  13.424
77408W        W49833  18.130   6.898   4.725
77409W        W49834  41.301  15.854  11.512
77410W        W49835  44.257  22.913   4.948
77411W        W49836  30.665  42.117   4.504
77412W        W49837   6.731  41.238   1.031
77413W        W49838  42.345  39.953  11.844
77414W        W49839  37.558  39.835  10.789
77415W        W49840   0.794   8.681   4.080
77416W        W49841  40.814  17.558  11.242
77417W        W49842  29.154  18.696  13.625
77418W        W49843  44.751  20.564  12.025
77419W        W49844  14.365  38.031  10.549
77420W        W49845  22.106  40.801   0.435
77421W        W49846  24.814  24.724  12.857
77422W        W49847   8.931  35.224   2.502
77423W        W49848  39.486  37.397   2.300
77424W        W49849  12.297  25.943   0.318
77425W        W49850  26.392  40.104   3.729
77426W        W49851  18.605  43.534   3.871
77427W        W49852  16.598  18.446  12.421
77428W        W49853  25.760  22.500  13.389
77429W        W49854  15.339  26.999   1.592
77430W        W49855  20.120  28.467  12.124
77431W        W49856  14.375  24.526   0.748
77432W        W49857  23.100   4.933   4.336
77433W        W49858  29.526  35.780  12.511
77434W        W49859  13.024  39.097   3.700
77435W        W49860  38.768  40.935   1.699
77436W        W49861  20.756  32.422   0.825
77437W        W49862   4.364  11.692  10.712
77438W        W49863  23.182  18.031  11.943
77439W        W49864  26.240  36.842   0.417
77440W        W49865  16.569   9.758   2.961
77441W        W49866  11.548  23.972   3.391
77442W        W49867  22.454  33.399  12.710
77443W        W49868  37.390   6.733  14.944
77444W        W49869   6.197  23.978  12.510
77445W        W49870  17.700  32.909   0.259
77446W        W49871  14.193  33.019  14.856
77447W        W49872  39.577   7.416   0.975
77448W        W49873  22.252  19.252   0.258
77449W        W49874   9.186  12.943   0.267
77450W        W49875  13.723  36.604  13.866
77451W        W49876  38.460   2.725  13.032
77452W        W49877  23.855  23.625   0.915
77453W        W49878  35.308   9.433  12.643
77454W        W49879  21.333  40.943  14.312
77455W        W49880  40.099  11.941   1.830
77456W        W49881  32.188  18.242   2.258
77457W        W49882   4.843  32.710  12.140
77458W        W49883  29.579   0.295  12.839
77459W        W49884  36.898  38.081  13.500
77460W        W49885  43.339   0.337   0.891
77461W        W49886  30.943  24.513   0.394
77462W        W49887  33.641   1.853   3.259
77463W        W49888  22.115  22.051   0.945
77464W        W49889  14.187   0.186   0.824
77465W        W49890   3.908  11.169  12.016
77466W        W49891   1.924  33.169  14.920
77467W        W49892  41.861  18.557  10.493
77468W        W49893   8.662   8.147  11.808
77469W        W49894   5.637   2.405  11.116
77470W        W49895   9.042  31.172   0.582
77471W        W49896  40.194  18.587   4.701
77472W        W49897  39.402   8.241  12.153
77473W        W49898  14.370   4.178   1.635
77474W        W49899  26.154   7.757  12.581
77475W        W49900  29.090  33.959  13.484
77476W        W49901  28.627  18.229   3.847
77477W        W49902  22.266  16.305  12.949
77478W        W49903  31.872  10.632   3.303
77479W        W49904  37.345  30.021  12.384
77480W        W49905  28.098  42.351  14.089
77481W        W49906  13.814  19.591  11.968
77482W        W49907  24.131  31.066   3.778
77483W        W49908  10.032  39.386   1.980
77484W        W49909  23.411  38.054   1.962
77485W        W49910  22.661  37.539  13.840
77486W        W49911  21.470  27.217   5.174
77487W        W49912  24.574  13.899   4.075
77488W        W49913  23.357  10.256  11.685
77489W        W49914  23.791  10.739   1.786
77490W        W49915   8.599  22.752   4.205
77491W        W49916   2.846  33.320  11.467
77492W        W49917   6.909  21.104   3.752
77493W        W49918  37.074  35.883   0.247
77494W        W49919  30.622  30.144  12.100
77495W        W49920  30.182  16.985  14.628
77496W        W49921  43.261   5.008  12.586
77497W        W49922   9.655  38.890  10.265
77498W        W49923   0.282  15.086   4.266
77499W        W49924  27.200  14.433  12.082
77500W        W49925   7.890   0.040   4.364
77501W        W49926  18.707  18.840   0.707
77502W        W49927   9.781  34.843  12.228
77503W        W49928  13.225  42.295  13.458
77504W        W49929  33.958   3.053   1.383
77505W        W49930  36.799  14.784  11.969
77506W        W49931  25.800  41.402  13.014
77507W        W49932  35.920  42.385   1.292
77508W        W49933  36.328  43.758  11.008
77509W        W49934   0.286   8.136   2.321
77510W        W49935  38.971  35.681  11.743
77511W        W49936   7.755  15.082   0.487
77512W        W49937  34.925   4.144   4.096
77513W        W49938   0.543  27.682   3.332
77514W        W49939  32.231  19.263  13.768
77515W        W49940   0.740  22.664  12.953
77516W        W49941  32.513  13.324   3.848
77517W        W49942  43.766  30.747  12.011
77518W        W49943  24.229  28.546  11.261
77519W        W49944  18.055  15.876   3.809
77520W        W49945  43.393  29.834   3.902
77521W        W49946   1.366  27.375   2.788
77522W        W49947  12.603  42.881   4.514
77523W        W49948  18.543   4.280  14.164
77524W        W49949  37.806   3.311   1.911
77525W        W49950  19.079  14.142  13.848
77526W        W49951  44.581  34.600  10.038
77527W        W49952  24.164   8.952  10.540
77528W        W49953  42.862   9.423  10.718
77529W        W49954  26.356  34.177   1.476
77530W        W49955  13.810  22.288   3.263
77531W        W49956  37.086  33.473  12.385
77532W        W49957  39.299   4.391  10.397
77533W        W49958   6.482   3.610  11.137
77534W        W49959   7.467  44.731   4.333
77535W        W49960  27.268   2.514   2.776
77536W        W49961  33.732  35.574  13.891
77537W        W49962  18.063   4.091  10.676
77538W        W49963   6.908  13.764   0.012
77539W        W49964  37.068  14.273  14.951
77540W        W49965   8.268  33.771   4.047
77541W        W49966  37.931  42.368   3.213
77542W        W49967  12.320  29.133  11.574
77543W        W49968   0.412  21.588   2.043
77544W        W49969  40.507  26.545  11.019
77545W        W49970  18.170  14.767   0.436
77546W        W49971  33.897  38.993  10.719
77547W        W49972  40.748   7.054  13.419
77548W        W49973  24.578  20.796  13.711
77549W        W49974   7.516  25.421   5.063
77550W        W49975  41.505  29.288  12.870
77551W        W49976  15.815  17.805  14.465
77552W        W49977   6.435  44.517   5.116
77553W        W49978  17.686   9.439  14.921
77554W        W49979   4.944  15.792   3.641
77555W        W49980  39.861  14.516  14.352
77556W        W49981   0.203  15.234  10.699
77557W        W49982  26.093  37.595   3.152
77558W        W49983  36.428  40.272  13.733
77559W        W49984  22.613   4.263   0.806
77560W        W49985  26.119  27.931   4.614
77561W        W49986  28.952   6.728   2.793
77562W        W49987  43.915  37.994  11.429
77563W        W49988  10.358  26.109  11.676
77564W        W49989  41.586   4.441   4.136
77565W        W49990  21.689  22.051   0.469
77566W        W49991   4.931  28.534  11.101
77567W        W49992  15.030  25.554  14.423
77568W        W49993  19.683  15.263  12.104
77569W        W49994  37.534  37.613  13.990
77570W        W49995   6.160  37.957   3.972
77571W        W49996   1.926   5.631   1.459
77572W        W49997   9.916   2.165   2.943
77573W        W49998   5.743  31.934   0.006
77574W        W49999  41.982   9.704  12.354
77575W        W50000  22.981  29.483   2.242
77576W        W50001   3.938  10.293   3.034
77577W        W50002  13.194  42.708   5.055
77578W        W50003  32.784  20.421   1.332
77579W        W50004  11.435   8.274   0.450
77580W        W50005  24.946   7.397   3.480
77581W        W50006  15.030   6.452  12.500
77582W        W50007  32.489  40.866   4.894
77583W        W50008  27.362  17.755   4.905
77584W        W50009   7.253  17.344   4.977
77585W        W50010  23.553  12.288   5.473
77586W        W50011  16.091  22.151  14.849
77587W        W50012  30.801  38.562   1.104
77588W        W50013  37.665  33.346   2.171
77589W        W50014  20.506   9.090   3.317
77590W        W50015   5.345  13.614  13.973
77591W        W50016  35.883   6.395   3.426
77592W        W50017  25.216  41.114   2.363
77593W        W50018  13.840  44.351  10.923
77594W        W50019  23.142  20.197  12.876
77595W        W50020  26.530  20.233   0.724
77596W        W50021  44.475  23.365   4.932
77597W        W50022  21.265  38.083  12.613
77598W        W50023  32.335  29.948  13.458
77599W        W50024  21.066  39.585  11.581
77600W        W50025  30.852  10.129   4.498
77601W        W50026  16.214  13.069   2.713
77602W        W50027  38.593  36.159   4.039
77603W        W50028  41.989  21.690  12.475
77604W        W50029  26.913  31.003  14.019
77605W        W50030  40.407  20.657   9.718
77606W        W50031  22.813  35.349   3.541
77607W        W50032  28.702  30.090  11.057
77608W        W50033  25.492  39.694  11.115
77609W        W50034  30.823  17.124   1.343
77610W        W50035  30.943  41.482  11.594
77611W        W50036  25.228   4.299  13.306
77612W        W50037  16.809  27.022   2.668
77613W        W50038  32.968  39.817   0.469
77614W        W50039  33.298   6.396  14.769
77615W        W50040   5.605   8.864  12.922
77616W        W50041   2.734  20.585   4.896
77617W        W50042   9.659  42.475  13.435
77618W        W50043   1.866   8.274   0.248
77619W        W50044   4.729  29.272   0.373
77620W        W50045  14.407  27.486   0.393
77621W        W50046  30.200  33.915   2.858
77622W        W50047   8.700  44.777  10.401
77623W        W50048  10.750   2.845  11.616
77624W        W50049  14.237  43.062  12.869
77625W        W50050   0.382  28.617   4.571
77626W        W50051  10.604  42.610  10.771
77627W        W50052  34.510  34.733   3.426
77628W        W50053   1.086  43.438  12.416
77629W        W50054  38.672  37.138  10.630
77630W        W50055  10.702   1.402   4.743
77631W        W50056  34.201   1.137  14.245
77632W        W50057  22.098  20.121   4.588
77633W        W50058  33.322  35.367   2.417
77634W        W50059  12.374   4.939   2.185
77635W        W50060  29.455  39.861   2.632
77636W        W50061   4.563  41.530   1.110
77637W        W50062   8.816   7.394   1.188
77638W        W50063  24.217  44.433  11.479
77639W        W50064  32.337  15.255  13.087
77640W        W50065  32.415   6.785   4.794
77641W        W50066  44.909   2.968   0.409
77642W        W50067  21.288   5.550   3.660
77643W        W50068  21.199   5.199   1.593
77644W        W50069   4.946  33.126   3.361
77645W        W50070   6.705   3.343  12.033
77646W        W50071  14.879  37.958  12.000
77647W        W50072  12.391  32.627  13.937
77648W        W50073   0.663   0.373   4.196
77649W        W50074  43.764  33.466   0.038
77650W        W50075  24.242  31.916   3.644
77651W        W50076  22.736  25.034  10.379
77652W        W50077  11.866  28.489   0.858
77653W        W50078   6.149  41.807  11.155
77654W        W50079  30.133  25.184  14.342
77655W        W50080   0.734   1.904   3.829
77656W        W50081  42.893  21.631   3.806
77657W        W50082  41.083  11.780   2.845
77658W        W50083  42.923   4.962   0.823
77659W        W50084  38.228   3.272  11.061
77660W        W50085  21.230  25.329  12.173
77661W        W50086  24.598  20.609  10.636
77662W        W50087  37.837  28.871   3.788
77663W        W50088   5.274  30.067  12.312
77664W        W50089  44.109   7.255   2.169
77665W        W50090   4.962  31.186  10.652
77666W        W50091  37.642  35.650   4.510
77667W        W50092  43.293  14.525  12.764
77668W        W50093  42.869  21.656  14.044
77669W        W50094  44.229  38.380   3.315
77670W        W50095  20.037  30.342   0.751
77671W        W50096  10.662  28.132   3.819
77672W        W50097  27.558  16.176  12.992
77673W        W50098  31.411  11.148  13.487
77674W        W50099  12.442   6.720  13.485
77675W        W50100  21.800  43.426  13.280
77676W        W50101  24.448  33.191   1.902
77677W        W50102  18.237   1.812  11.913
77678W        W50103  16.314  18.679  10.720
77679W        W50104  37.618  35.435  11.035
77680W        W50105  16.181  30.069   1.695
77681W        W50106  39.848   3.827   4.850
77682W        W50107  37.002  18.071  13.787
77683W        W50108  38.864   7.657  12.579
77684W        W50109  16.223   4.550  11.161
77685W        W50110  13.881  25.603   0.209
77686W        W50111  40.295  32.170   1.184
77687W        W50112  34.855  27.487  11.838
77688W        W50113   6.383  23.759   2.340
77689W        W50114  25.131  34.880   4.341
77690W        W50115  42.806  32.637   1.733
77691W        W50116  17.770  42.743   2.710
77692W        W50117  32.981   7.775  12.515
77693W        W50118   1.649  35.090  12.426
77694W        W50119  36.885  30.063  13.455
77695W        W50120  28.067  22.609   0.614
77696W        W50121   1.256  26.594  11.921
77697W        W50122  12.103  14.073   3.648
77698W        W50123   2.833   4.685   2.235
77699W        W50124  11.443  22.374  10.630
77700W        W50125  25.530  40.817  13.950
77701W        W50126  18.277  29.163   3.725
77702W        W50127  36.112  42.288   1.781
77703W        W50128  21.139  26.661   3.624
77704W        W50129  11.550  39.645   2.145
77705W        W50130   0.442  39.375  13.897
77706W        W50131  29.617  40.323   4.162
77707W        W50132   6.412  23.133  10.604
77708W        W50133  29.312  32.665   4.835
77709W        W50134  40.856  19.670  11.617
77710W        W50135   5.983  36.102   3.869
77711W        W50136   1.368  24.668   1.052
77712W        W50137   4.450  43.592  10.412
77713W        W50138  15.397  28.863   2.603
77714W        W50139   7.714  36.548  10.981
77715W        W50140  17.527   3.349  12.617
77716W        W50141  22.524  17.704   2.883
77717W        W50142  29.024  12.722   1.195
77718W        W50143  27.087  27.218  11.240
77719W        W50144   8.938  37.517  12.954
77720W        W50145   5.885  38.266  14.447
77721W        W50146  42.461  13.394   1.837
77722W        W50147  15.269  26.732   2.382
77723W        W50148  26.545  29.457  13.798
77724W        W50149  28.370  39.277  11.608
77725W        W50150  18.031  36.990   3.604
77726W        W50151  37.860  33.415   2.641
77727W        W50152  31.719  39.139   4.580
77728W        W50153   1.302  40.279   1.867
77729W        W50154  22.212  21.260  12.864
77730W        W50155  20.490  43.506  12.886
77731W        W50156  44.542  13.261   1.232
77732W        W50157  41.174  13.657   2.777
77733W        W50158  19.061  34.826  11.911
77734W        W50159  44.015  14.302   4.457
77735W        W50160   6.973   7.014  12.371
77736W        W50161  21.200  18.170  14.384
77737W        W50162  40.873   3.819   1.272
77738W        W50163  25.689  15.697   2.809
77739W        W50164  19.258  43.004  13.826
77740W        W50165  26.554   6.567   2.321
77741W        W50166   4.012  10.790   1.017
77742W        W50167   6.958  10.632   1.478
77743W        W50168  10.451   3.282  13.771
77744W        W50169  28.090   8.870  13.082
77745W        W50170  11.272  14.374  12.951
77746W        W50171  44.033  43.922  12.214
77747W        W50172  25.197  44.320  14.478
77748W        W50173  39.109  19.579  10.307
77749W        W50174  40.349  44.205   1.730
77750W        W50175   9.187  42.499  11.155
77751W        W50176  35.365  18.816  14.693
77752W        W50177  12.204  20.074  11.165
77753W        W50178   3.360  41.532   1.877
77754W        W50179  13.238  38.372  12.550
77755W        W50180   1.067  35.641   2.491
77756W        W50181   2.129  18.263  14.409
77757W        W50182  17.777  15.330   3.105
77758W        W50183  41.051   4.820   1.495
77759W        W50184   3.565  13.976  12.429
77760W        W50185  22.242   0.764  11.599
77761W        W50186  15.117   5.428   0.849
77762W        W50187  19.267   1.354   0.887
77763W        W50188  30.199   3.169   2.789
77764W        W50189  40.273  16.965   2.809
77765W        W50190  14.440  42.133   2.809
77766W        W50191  33.649  35.344   4.096
77767W        W50192  22.729  13.482  11.925
77768W        W50193   1.262  28.895   2.807
77769W        W50194  41.899  12.283  10.702
77770W        W50195  39.989  42.329   3.060
77771W        W50196  37.492  13.740  12.644
77772W        W50197  30.611   1.474  11.035
77773W        W50198  37.053  42.020  12.657
77774W        W50199  14.784  13.314   3.837
77775W        W50200   6.427   8.080   2.123
77776W        W50201   3.504  36.894   0.379
77777W        W50202   9.984  17.851  14.248
77778W        W50203  24.579  23.414   1.856
77779W        W50204  14.758  43.950  11.433
77780W        W50205   4.519   6.660   1.795
77781W        W50206  40.375  38.349  11.864
77782W        W50207  43.834   4.189  10.614
77783W        W50208  20.687  17.434  10.775
77784W        W50209  28.755  30.592   4.099
77785W        W50210   1.264  13.341   1.834
77786W        W50211  40.702  27.756   4.929
77787W        W50212  30.762   9.256  10.912
77788W        W50213   7.701  12.284  11.075
77789W        W50214  23.873   6.385  13.932
77790W        W50215  30.960  42.035   4.099
77791W        W50216  14.511  38.356   1.816
77792W        W50217  26.500  16.722   3.967
77793W        W50218  39.310  18.653  11.331
77794W        W50219   0.874  25.535  14.190
77795W        W50220  40.261  27.136   4.136
77796W        W50221  14.117  38.813   2.745
77797W        W50222   5.358  19.569   2.519
77798W        W50223  33.076  23.439  11.916
77799W        W50224   5.641   3.686  14.982
77800W        W50225  27.667  42.753  13.106
77801W        W50226  16.769   2.191   0.782
77802W        W50227  16.326  41.587  13.285
77803W        W50228  34.778  42.991  11.610
77804W        W50229  24.208  33.902   4.266
77805W        W50230  40.734  28.971   4.283
77806W        W50231   2.581  29.636  12.343
77807W        W50232  26.799   8.250  14.949
77808W        W50233  16.232   5.601  13.833
77809W        W50234  17.629  17.445  10.638
77810W        W50235  42.269  35.896  11.197
77811W        W50236  31.889   0.496   0.798
77812W        W50237  27.714   9.341  14.432
77813W        W50238   4.160   4.299  12.492
77814W        W50239  40.116  16.190  13.901
77815W        W50240  38.116   3.263  12.262
77816W        W50241  31.539  32.914   0.896
77817W        W50242  23.580  40.331  13.661
77818W        W50243  44.235  38.375  11.148
77819W        W50244  20.696  17.566   0.933
77820W        W50245  11.783  24.047   1.516
77821W        W50246  42.473  26.942  14.565
77822W        W50247  44.352  22.910  13.123
77823W        W50248  23.083  35.902   1.826
77824W        W50249  22.080   1.198   0.303
77825W        W50250  15.123  34.354  10.266
77826W        W50251  36.802  14.320   3.669
77827W        W50252  18.383   3.700  12.402
77828W        W50253   9.885   4.258  12.847
77829W        W50254   3.367   2.328  13.835
77830W        W50255  25.246  38.386  10.334
77831W        W50256   0.024  37.005  11.026
77832W        W50257  27.018  14.959  12.101
77833W        W50258   0.446   8.591   0.403
77834W        W50259  44.770  31.662   2.824
77835W        W50260  34.018  14.345  11.408
77836W        W50261  40.125  30.178  11.113
77837W        W50262  25.430   6.231   0.475
77838W        W50263  17.473  33.815  11.114
77839W        W50264  18.677  29.685  13.077
77840W        W50265  28.414  28.615  12.524
77841W        W50266  41.554  23.236  13.422
77842W        W50267  31.138   6.688  14.995
77843W        W50268  11.259  22.131  11.070
77844W        W50269  14.259   2.414   4.884
77845W        W50270  37.174  40.722  14.778
77846W        W50271  16.590  23.749  13.920
77847W        W50272  12.618  29.554  13.101
77848W        W50273  24.918  31.900  13.899
77849W        W50274  18.698   1.521   3.219
77850W        W50275  20.418  25.020  10.192
77851W        W50276  44.114  26.789  14.803
77852W        W50277  44.252  22.118  10.196
77853W        W50278  18.160   3.478   3.869
77854W        W50279  10.958  37.221   2.600
77855W        W50280  29.711  39.031   4.593
77856W        W50281  23.859  15.194   0.369
77857W        W50282  29.553  24.122  10.556
77858W        W50283  22.137  43.915  13.382
77859W        W50284  30.095  32.661  11.465
77860W        W50285  35.623  22.041   1.198
77861W        W50286  44.225  10.642   0.507
77862W        W50287  31.971  34.026   0.506
77863W        W50288  32.856   9.977  13.986
77864W        W50289  14.835  26.553   2.614
77865W        W50290  44.517  10.731   0.037
77866W        W50291  43.610  22.770   4.162
77867W        W50292  16.170  30.988   3.338
77868W        W50293   0.414  26.465  12.548
77869W        W50294   5.428  37.173   3.306
77870W        W50295   1.377   5.780   3.270
77871W        W50296  29.853  40.774  10.598
77872W        W50297  29.404  15.679   0.462
77873W        W50298  36.549   6.969   9.842
77874W        W50299   7.720   5.852  10.121
77875W        W50300  15.544   1.765  10.160
77876W        W50301  22.579  28.567  14.476
77877W        W50302   2.754  36.323  12.302
77878W        W50303  40.931  16.836   4.163
77879W        W50304  30.279  44.696   0.196
77880W        W50305  11.659  31.075   0.995
77881W        W50306  13.290  13.256   0.869
77882W        W50307  20.898   2.921  13.811
77883W        W50308  11.638  16.670  11.432
77884W        W50309  30.542  40.817   3.328
77885W        W50310  24.209   5.805   3.539
77886W        W50311   9.345  18.367   1.852
77887W        W50312   6.860  28.131   1.857
77888W        W50313  20.151  10.718  13.838
77889W        W50314  21.051   0.564   2.341
77890W        W50315  25.894  13.047  13.251
77891W        W50316  12.148   4.824  13.562
77892W        W50317   3.812  26.890  12.673
77893W        W50318  11.695  27.547   4.150
77894W        W50319  43.329  12.376  13.147
77895W        W50320  22.034   2.392   3.701
77896W        W50321   7.835  17.672  13.786
77897W        W50322  43.297  14.833   1.299
77898W        W50323   0.674  23.126   3.348
77899W        W50324  37.616  32.170   4.857
77900W        W50325  44.849  43.994   1.275
77901W        W50326   0.873  16.050   2.697
77902W        W50327  21.458  31.533  13.127
77903W        W50328  31.537  21.350   4.531
77904W        W50329  42.294  44.872  10.436
77905W        W50330   1.438  31.409  13.721
77906W        W50331  21.371  23.149  14.495
77907W        W50332  14.286   3.164   1.742
77908W        W50333  38.241  26.037   1.941
77909W        W50334  23.462  23.037  11.186
77910W        W50335  37.757  18.584   2.281
77911W        W50336   8.181  34.904   3.282
77912W        W50337  17.196  32.000  10.780
77913W        W50338  29.800  21.399   9.971
77914W        W50339  32.716  34.583  13.461
77915W        W50340  28.056  31.909  10.140
77916W        W50341  41.884  39.606  14.982
77917W        W50342  43.047  21.543   1.205
77918W        W50343  30.094  41.955  10.868
77919W        W50344  20.638  33.323   2.708
77920W        W50345  25.201  16.287   1.738
77921W        W50346   8.985  33.514  10.636
77922W        W50347  35.583  40.691   2.764
77923W        W50348   5.110   0.239  12.396
77924W        W50349  13.126  30.933   0.977
77925W        W50350   4.473  24.111  13.923
77926W        W50351  22.234  35.079   1.921
77927W        W50352  44.808  37.426  12.507
77928W        W50353  43.918  24.119   1.766
77929W        W50354  43.441   1.712  11.072
77930W        W50355  12.473  19.081  13.324
77931W        W50356  22.955  42.989   1.639
77932W        W50357  16.410  22.160  14.436
77933W        W50358  44.599  13.513  14.977
77934W        W50359  33.589  13.830   3.840
77935W        W50360  14.279  32.551   3.509
77936W        W50361  14.284  33.224   2.633
77937W        W50362   1.477   5.669  12.771
77938W        W50363   3.599  30.717   1.015
77939W        W50364  11.175  43.866   0.755
77940W        W50365  28.173  33.050  14.307
77941W        W50366  42.898  34.844   0.755
77942W        W50367  12.829   7.719  11.342
77943W        W50368  31.407  12.415  12.003
77944W        W50369   1.195  43.727  14.883
77945W        W50370   2.533   8.270  11.493
77946W        W50371  30.442   5.264  11.804
77947W        W50372  10.177   0.533   1.415
77948W        W50373   6.259  28.104   3.503
77949W        W50374  44.813  29.706   2.332
77950W        W50375  43.148  40.921  13.534
77951W        W50376  23.726  15.052   4.301
77952W        W50377   9.454  15.124   4.177
77953W        W50378  15.027  28.451   2.573
77954W        W50379  42.553   8.346  14.948
77955W        W50380   4.947  26.672   3.774
77956W        W50381  33.010  24.691   4.524
77957W        W50382   2.563  18.272   1.242
77958W        W50383  16.143  28.926  14.303
77959W        W50384  43.218  10.398   4.797
77960W        W50385  21.619  20.046   4.231
77961W        W50386  20.920  38.077   3.748
77962W        W50387  25.560   3.073  11.501
77963W        W50388  21.657  10.586  14.037
77964W        W50389  44.803  25.394  14.843
77965W        W50390  32.143   1.928   0.828
77966W        W50391  42.274  40.613   3.348
77967W        W50392   6.274  40.340  14.042
77968W        W50393   9.382  44.799   2.849
77969W        W50394  40.241  28.718   4.851
77970W        W50395  37.600  26.196   3.931
77971W        W50396  43.964  19.117  12.397
77972W        W50397  33.352  38.567  13.099
77973W        W50398  36.632   7.927  11.290
77974W        W50399  37.062  32.708   2.216
77975W        W50400  25.780   9.412  14.451
77976W        W50401  10.794  38.838  10.968
77977W        W50402  22.929  42.895  10.413
77978W        W50403  44.880  23.596   1.187
77979W        W50404  36.878   6.374   1.225
77980W        W50405   1.659  34.456  11.045
77981W        W50406  14.098   4.754  10.879
77982W        W50407  20.197  22.122   1.155
77983W        W50408  22.674   7.589  11.630
77984W        W50409  35.053  23.755  14.070
77985W        W50410  25.995  24.571  13.477
77986W        W50411  23.790  35.495   3.229
77987W        W50412  26.057  13.767   2.306
77988W        W50413  36.958  40.523  10.706
77989W        W50414   2.788   5.883   2.435
77990W        W50415  44.335   2.439   1.364
77991W        W50416   6.914   0.506   4.666
77992W        W50417  16.730  33.791  11.628
77993W        W50418  11.609   9.003  10.669
77994W        W50419  15.421  37.968  13.084
77995W        W50420   9.781  41.795  12.498
77996W        W50421  21.510  27.438   3.902
77997W        W50422  36.727   1.526   3.730
77998W        W50423  32.870   2.311   1.198
77999W        W50424   8.414   7.646  10.637
78000W        W50425  41.419   6.787   3.379
78001W        W50426  11.883  17.760  13.135
78002W        W50427  23.653  33.392  14.196
78003W        W50428   8.871  38.362   2.633
78004W        W50429  31.607  21.209   1.124
78005W        W50430  20.265  29.340   0.659
78006W        W50431   7.169   8.122  11.010
78007W        W50432  35.083  25.398   4.104
78008W        W50433  14.542  20.002   3.259
78009W        W50434   8.285  15.153  14.840
78010W        W50435  23.101  14.773   0.845
78011W        W50436  23.819  17.723   4.640
78012W        W50437   0.495  15.300  13.337
78013W        W50438  13.305   1.250   0.514
78014W        W50439  27.964  44.187  13.921
78015W        W50440  19.664   9.419  10.618
78016W        W50441  14.363  15.604  11.889
78017W        W50442  20.209   0.776   3.110
78018W        W50443   8.825  36.284   3.167
78019W        W50444  29.955  31.454  13.000
78020W        W50445   4.007  32.033   4.942
78021W        W50446   6.748  23.414   1.088
78022W        W50447   1.617   9.751  13.380
78023W        W50448  11.321   9.437   4.558
78024W        W50449  22.789  39.574  13.478
78025W        W50450   4.838  32.939  13.832
78026W        W50451  37.318   0.852  14.796
78027W        W50452  37.991  39.384  12.959
78028W        W50453  43.394  14.637   3.249
78029W        W50454  24.315   3.672   1.758
78030W        W50455  40.580   7.153   2.283
78031W        W50456   6.139  43.520  14.232
78032W        W50457  22.581  38.021  13.700
78033W        W50458  22.255  31.776  12.969
78034W        W50459   9.645   1.934   9.946
78035W        W50460  11.785   2.449   3.259
78036W        W50461  21.115  37.649   1.646
78037W        W50462  19.920  23.034  14.201
78038W        W50463  24.357   4.484  10.632
78039W        W50464  25.985  28.661  13.483
78040W        W50465  43.985  13.310   3.133
78041W        W50466  38.113  14.394  13.864
78042W        W50467  21.712  15.161   0.740
78043W        W50468   6.747  20.423  11.616
78044W        W50469  12.226  11.364   4.688
78045W        W50470  10.597  23.704   0.789
78046W        W50471  37.549  23.266  14.410
78047W        W50472  27.298  12.875  11.093
78048W        W50473  16.800  38.148  12.864
78049W        W50474   6.136  29.907  10.860
78050W        W50475  12.235  15.080   2.874
78051W        W50476  40.284  22.285   2.746
78052W        W50477  28.279  14.144   1.004
78053W        W50478   2.666  22.915   0.911
78054W        W50479  39.710  12.776  13.273
78055W        W50480  31.037  15.088  11.767
78056W        W50481  43.772  38.653  13.971
78057W        W50482  38.756   1.161   1.789
78058W        W50483  42.880  40.933  12.573
78059W        W50484   0.087  31.102  12.129
78060W        W50485  38.600  31.660   3.708
78061W        W50486  28.870   6.168   2.764
78062W        W50487  30.645   5.595   2.664
78063W        W50488  30.433  25.535  14.734
78064W        W50489  24.423  36.980   4.142
78065W        W50490  12.047   3.222  13.309
78066W        W50491   0.927   1.147   2.174
78067W        W50492  12.100   2.293  10.062
78068W        W50493  21.971   3.644   2.257
78069W        W50494  37.578  14.235  10.208
78070W        W50495  39.668  13.617  14.438
78071W        W50496  22.514  11.217  13.919
78072W        W50497  39.867   0.241   2.874
78073W        W50498  25.062  25.378  11.033
78074W        W50499  22.065  16.177  11.505
78075W        W50500  24.467  22.101   1.497
78076W        W50501  29.402  38.948   1.242
78077W        W50502  11.358  44.057  12.866
78078W        W50503   0.720  39.060   3.303
78079W        W50504  11.288  20.309  10.591
78080W        W50505  24.332  27.093  13.227
78081W        W50506  23.073  28.925  12.935
78082W        W50507  30.662  16.359   1.423
78083W        W50508  19.708  44.685  10.564
78084W        W50509  38.740  17.024   4.488
78085W        W50510  18.770  26.564   3.052
78086W        W50511  18.609  41.904  14.414
78087W        W50512  40.813  17.722   3.298
78088W        W50513  26.218  22.346   4.244
78089W        W50514  29.930   3.960   3.096
78090W        W50515   1.460  17.276  12.955
78091W        W50516   7.312  17.732  13.470
78092W        W50517   0.536  43.253   2.190
78093W        W50518  29.214   9.899   4.904
78094W        W50519  30.699   9.788  12.190
78095W        W50520  19.199  44.863   1.311
78096W        W50521  18.495  35.514   1.259
78097W        W50522  15.883   8.895  12.704
78098W        W50523  13.087  10.776  12.856
78099W        W50524  25.143  25.556  12.306
78100W        W50525  11.752   6.160   3.637
78101W        W50526  33.663  29.519  11.055
78102W        W50527  20.744   0.730   3.904
78103W        W50528  19.637  16.998   3.857
78104W        W50529  10.399  32.485   4.258
78105W        W50530  19.598  31.422   1.368
78106W        W50531  32.089   4.015   5.008
78107W        W50532  20.706  23.559  11.152
78108W        W50533  35.835   1.863  11.624
78109W        W50534  42.859  11.482  10.466
78110W        W50535  18.210  41.781   2.736
78111W        W50536  16.106  20.153   1.766
78112W        W50537   6.368  17.332  11.007
78113W        W50538  41.311  28.078  14.468
78114W        W50539  19.270  32.834   2.505
78115W        W50540  14.672  19.392   2.639
78116W        W50541  24.319   9.548   4.808
78117W        W50542  27.651  42.804  14.560
78118W        W50543  16.110  35.285   1.294
78119W        W50544  32.234  12.061   3.683
78120W        W50545  25.736  40.880  12.406
78121W        W50546  18.700   6.808  10.644
78122W        W50547  23.114  17.836  11.038
78123W        W50548  16.564  28.526   0.932
78124W        W50549  39.517  44.841   2.803
78125W        W50550  14.339   1.753  14.286
78126W        W50551  44.368  17.817  12.848
78127W        W50552  39.100   1.309  14.326
78128W        W50553  25.368  30.585  14.208
78129W        W50554  40.767  24.600  14.449
78130W        W50555  17.570  21.223  13.251
78131W        W50556  17.802  31.978  14.078
78132W        W50557  41.289  19.801  10.358
78133W        W50558  36.414  43.436  13.036
78134W        W50559  35.392  43.554  10.799
78135W        W50560  21.150  42.505  10.477
78136W        W50561  18.076   8.362   1.740
78137W        W50562  35.277  13.311  12.029
78138W        W50563  24.826   8.660  11.124
78139W        W50564  15.941   7.715   2.524
78140W        W50565   2.424  27.051   4.301
78141W        W50566  26.027  31.841   4.248
78142W        W50567  25.883  26.367   2.003
78143W        W50568  13.696  22.239   1.302
78144W        W50569   2.791  43.570  11.037
78145W        W50570  17.773  44.502  14.398
78146W        W50571  27.036   2.843  14.753
78147W        W50572  28.176  16.012  10.021
78148W        W50573  37.501   7.783   4.000
78149W        W50574  36.618   5.762  13.430
78150W        W50575  41.564  41.745  10.671
78151W        W50576  29.989  38.445   1.456
78152W        W50577  41.293  12.739   0.929
78153W        W50578  10.115  37.055   1.499
78154W        W50579  35.438  34.073  12.435
78155W        W50580  25.287  23.095  11.516
78156W        W50581   5.394  23.138  11.940
78157W        W50582  30.723  36.592  10.773
78158W        W50583   1.254  19.163   3.067
78159W        W50584  27.718  31.838   9.377
78160W        W50585  31.096  32.918  14.619
78161W        W50586  37.463  17.295   0.759
78162W        W50587  31.926   1.129  14.336
78163W        W50588   1.807  23.160  14.387
78164W        W50589  13.276   3.291  11.192
78165W        W50590  11.320  29.159   0.213
78166W        W50591  32.016   9.694   1.702
78167W        W50592  18.488  40.365  12.914
78168W        W50593  13.681   4.721  10.360
78169W        W50594  19.565  20.077  13.974
78170W        W50595  34.418   0.352   2.743
78171W        W50596   7.396  20.655  14.983
78172W        W50597  43.611  31.487  13.598
78173W        W50598  41.920  10.845  11.891
78174W        W50599  38.778  13.332  12.271
78175W        W50600  24.975  24.406  13.482
78176W        W50601  35.284   8.525  10.046
78177W        W50602  10.862  39.002   3.540
78178W        W50603  30.819  44.184  11.610
78179W        W50604   6.745   2.722   3.680
78180W        W50605  16.102  10.930   4.351
78181W        W50606  30.759   3.120   4.951
78182W        W50607   1.310  36.463   2.829
78183W        W50608  31.118  23.656  11.867
78184W        W50609  41.899  14.131   0.972
78185W        W50610   9.641   3.293  10.948
78186W        W50611   4.703  27.653   2.921
78187W        W50612  38.377  31.446  13.190
78188W        W50613   7.423  39.927   2.288
78189W        W50614   9.853  41.836   5.008
78190W        W50615  17.644  34.919   1.031
78191W        W50616  10.752   7.188   2.374
78192W        W50617  15.142  14.246   0.677
78193W        W50618   0.438   9.869  12.580
78194W        W50619  25.437  27.630   2.080
78195W        W50620  15.920  24.015   1.403
78196W        W50621   7.488  44.344  14.390
78197W        W50622  22.126   3.218  13.398
78198W        W50623   2.914  26.092  13.897
78199W        W50624  14.325  36.676   4.704
78200W        W50625  33.354  12.823   2.258
78201W        W50626  41.399   3.634  14.959
78202W        W50627  15.866  19.270   4.434
78203W        W50628   2.645  23.130  11.597
78204W        W50629   7.389   8.911  14.899
78205W        W50630  18.664   6.948   1.386
78206W        W50631   4.834  32.502  12.645
78207W        W50632  16.601  23.678   2.741
78208W        W50633  44.709  42.564  13.949
78209W        W50634  21.082  22.273   2.189
78210W        W50635  41.855   7.749   2.161
78211W        W50636  13.329   1.270  13.046
78212W        W50637  34.257  12.791  11.135
78213W        W50638   9.831  11.599   3.327
78214W        W50639  22.046  35.822   4.250
78215W        W50640  32.356  14.131  12.545
78216W        W50641   8.935  35.485   0.879
78217W        W50642   2.757   7.757  10.747
78218W        W50643  39.014  35.839   2.274
78219W        W50644  38.064   7.251  12.007
78220W        W50645   4.827  29.952   4.169
78221W        W50646  13.887  29.657   4.169
78222W        W50647   9.037   4.241  14.536
78223W        W50648  34.896  10.093   0.699
78224W        W50649   7.613  29.074   3.777
78225W        W50650  17.664  17.988   0.221
78226W        W50651   0.022  36.597   0.216
78227W        W50652  21.007  26.483   4.649
78228W        W50653   0.596  26.126   0.529
78229W        W50654  27.080   8.159  13.498
78230W        W50655  14.235   7.807  13.289
78231W        W50656  34.626  30.639  14.377
78232W        W50657  13.673  41.377   0.367
78233W        W50658  17.107   0.299   9.981
78234W        W50659  34.952  30.326  13.060
78235W        W50660  21.167   0.772  10.488
78236W        W50661   2.992  12.485  11.143
78237W        W50662  16.339  35.862  11.606
78238W        W50663   3.299   8.216  13.091
78239W        W50664  31.441  29.653   4.651
78240W        W50665   0.412  10.579   2.294
78241W        W50666  14.047  23.151   0.527
78242W        W50667  30.875  25.701  14.326
78243W        W50668  38.532  39.793  10.981
78244W        W50669  42.839  12.672   4.191
78245W        W50670   4.327  30.653  14.982
78246W        W50671  20.255   2.830   0.492
78247W        W50672  32.482  39.016   1.418
78248W        W50673   3.297  22.607  14.540
78249W        W50674   0.970  11.311   3.769
78250W        W50675   0.575  20.605   3.407
78251W        W50676  33.346  11.711  10.039
78252W        W50677  42.706  23.435   0.417
78253W        W50678  18.034  39.372   0.874
78254W        W50679  19.276  10.208   1.465
78255W        W50680  20.629   2.675   2.701
78256W        W50681  36.297  28.014   1.815
78257W        W50682  22.431   0.655   3.326
78258W        W50683  16.272   0.405   0.352
78259W        W50684  30.434  10.308  13.920
78260W        W50685  32.640   0.621  14.544
78261W        W50686  31.931   1.925   0.327
78262W        W50687  43.712  23.688   0.838
78263W        W50688   0.118  21.805  12.968
78264W        W50689   6.399  17.842  14.780
78265W        W50690  44.396  23.729   3.884
78266W        W50691  10.218  30.432  10.413
78267W        W50692  21.240   5.006  11.983
78268W        W50693  29.985  23.148   0.024
78269W        W50694  32.305  32.513  13.791
78270W        W50695   5.622  15.663  14.818
78271W        W50696  22.627   1.522  12.852
78272W        W50697  13.765  24.639   0.011
78273W        W50698  10.247  24.245  13.233
78274W        W50699   9.589  32.044   3.195
78275W        W50700  16.808  10.212   2.830
78276W        W50701  11.859  22.143   0.370
78277W        W50702   3.665   6.124  10.170
78278W        W50703  10.103  15.397   0.255
78279W        W50704   6.474  34.228  13.127
78280W        W50705  15.754  19.718   4.670
78281W        W50706  36.789  33.859  12.621
78282W        W50707   6.770  23.695  11.978
78283W        W50708  18.155  36.576  14.247
78284W        W50709  15.182  33.147  14.486
78285W        W50710  32.975  34.936  12.498
78286W        W50711  25.475  20.593  10.316
78287W        W50712  12.613  22.174  14.785
78288W        W50713  11.067  42.990   2.271
78289W        W50714  22.556  15.109   2.760
78290W        W50715  27.533   4.146   3.526
78291W        W50716   8.892  44.370   4.617
78292W        W50717  40.779  13.699   3.293
78293W        W50718  42.364  27.729  13.446
78294W        W50719  35.954  12.783  13.666
78295W        W50720  22.282  13.367   3.297
78296W        W50721   8.301  42.125  11.916
78297W        W50722  37.940  25.619   1.905
78298W        W50723  37.599  10.643   2.296
78299W        W50724  14.561  26.466   0.669
78300W        W50725  28.549  21.851   0.952
78301W        W50726  11.642  38.362   1.930
78302W        W50727  34.451   3.967  11.082
78303W        W50728  18.316  27.437  13.024
78304W        W50729  43.076   5.835  11.497
78305W        W50730  26.263  37.079  10.724
78306W        W50731  35.925  18.764   1.848
78307W        W50732  27.419  34.831   4.436
78308W        W50733  29.475   9.759  14.549
78309W        W50734  23.641  37.001  10.678
78310W        W50735  25.787   4.863  13.993
78311W        W50736   0.214  37.563  10.995
78312W        W50737  38.455  21.920   0.660
78313W        W50738  38.741  41.860  14.927
78314W        W50739  14.375  20.448  12.605
78315W        W50740  27.605  38.277   2.669
78316W        W50741  31.866  42.815   1.399
78317W        W50742   2.004  37.068  12.440
78318W        W50743  22.811  19.357  13.765
78319W        W50744   0.333  18.800  11.611
78320W        W50745  30.403   4.225   3.036
78321W        W50746  17.295  24.080   0.581
78322W        W50747   0.298  44.745  12.793
78323W        W50748  10.637  38.902  14.783
78324W        W50749  20.736  13.168   3.350
78325W        W50750  14.377  43.839   0.715
78326W        W50751  38.945   5.816   2.821
78327W        W50752  33.952  37.984   2.612
78328W        W50753  29.250  13.808  13.843
78329W        W50754  41.406  43.449  12.787
78330W        W50755  34.630  33.719   1.895
78331W        W50756   1.848  29.381   3.600
78332W        W50757  13.217  40.026  13.938
78333W        W50758   1.294   4.302   0.216
78334W        W50759  26.951  17.285   3.349
78335W        W50760   0.211  24.841  13.439
78336W        W50761  22.680  30.833  11.123
78337W        W50762  38.308  41.769  11.184
78338W        W50763  43.792  29.425  12.548
78339W        W50764  18.620   8.215  11.851
78340W        W50765  25.466  33.227  11.028
78341W        W50766  37.514   3.970  11.149
78342W        W50767   5.157  20.448   1.923
78343W        W50768  30.837  20.777   1.301
78344W        W50769  10.185  43.491   1.435
78345W        W50770  42.768  22.488  12.051
78346W        W50771  40.666   5.780   1.779
78347W        W50772  33.569  24.529   4.660
78348W        W50773   4.674  11.795  13.334
78349W        W50774  39.046  18.205   2.285
78350W        W50775  11.100  40.491   4.953
78351W        W50776   6.051  34.545   3.152
78352W        W50777  13.283  31.855  10.407
78353W        W50778  36.543   6.688  14.364
78354W        W50779  43.363  39.144  11.250
78355W        W50780  20.753   3.389  12.489
78356W        W50781  39.339  25.153   0.289
78357W        W50782  30.334  28.468  14.411
78358W        W50783  11.782  41.957   4.735
78359W        W50784  14.388  36.951  14.218
78360W        W50785  23.012   9.164   4.997
78361W        W50786  33.174  21.027  12.849
78362W        W50787  29.523  41.878   2.161
78363W        W50788  36.282   3.240  10.675
78364W        W50789   8.740  21.074   4.791
78365W        W50790  12.824  31.858   0.360
78366W        W50791   3.285  16.674  13.582
78367W        W50792   0.442  19.238  13.299
78368W        W50793  22.184   3.382  14.816
78369W        W50794  10.252   6.372  11.025
78370W        W50795  17.174  17.217   4.590
78371W        W50796  39.392  44.354  13.687
78372W        W50797  23.382  12.561   2.298
78373W        W50798  27.669  42.175   4.528
78374W        W50799   8.880   7.875   0.979
78375W        W50800   7.651  13.756   4.196
78376W        W50801  21.241  44.567   0.272
78377W        W50802  17.783  20.838  12.303
78378W        W50803   7.504   4.987   4.188
78379W        W50804   6.090  44.022   0.023
78380W        W50805  20.701  35.883   2.859
78381W        W50806  29.482  21.537   0.436
78382W        W50807  32.368  18.751  14.982
78383W        W50808  42.493  25.168  10.634
78384W        W50809  43.002  31.623   3.948
78385W        W50810   6.758  41.075  14.554
78386W        W50811  34.350  33.581  13.569
78387W        W50812   0.712  18.198  12.415
78388W        W50813  10.683  22.784   4.570
78389W        W50814  24.652  21.766   3.321
78390W        W50815  17.749  40.030  12.057
78391W        W50816   6.917  14.066  11.675
78392W        W50817  29.464  13.781   1.892
78393W        W50818   2.810  14.658  11.725
78394W        W50819   4.826  31.731   0.065
78395W        W50820   7.867  31.416  11.191
78396W        W50821  12.025  19.323  13.411
78397W        W50822   3.746  30.442   2.792
78398W        W50823   4.627   9.741   1.802
78399W        W50824   4.203  35.917  11.240
78400W        W50825  32.901  30.111   1.604
78401W        W50826  35.093  22.919   4.191
78402W        W50827  42.427  11.816  14.488
78403W        W50828  15.983   2.717  12.928
78404W        W50829   8.888  33.155   3.253
78405W        W50830  37.084   7.099   4.769
78406W        W50831  26.874  17.628   5.105
78407W        W50832  39.018   0.815  12.139
78408W        W50833  28.666  24.683   0.386
78409W        W50834  35.130  16.135   1.853
78410W        W50835   7.193  23.737   1.930
78411W        W50836   1.964   0.745   3.341
78412W        W50837  20.045   3.674   0.458
78413W        W50838   0.550  10.568   0.005
78414W        W50839  36.427   9.076   1.718
78415W        W50840  15.858  20.814  12.529
78416W        W50841   8.267  29.939  11.407
78417W        W50842  39.272  27.151   3.232
78418W        W50843  38.852  19.953   0.719
78419W        W50844  31.624   2.965   1.678
78420W        W50845  21.559  29.963  12.908
78421W        W50846  19.758  21.915   1.879
78422W        W50847  10.602   7.385  12.983
78423W        W50848  22.626  35.853  13.561
78424W        W50849  13.651  41.272   0.989
78425W        W50850  15.408  18.302  14.879
78426W        W50851   6.523  33.132  13.844
78427W        W50852  41.479  40.801  10.981
78428W        W50853  26.556   4.033   1.261
78429W        W50854   7.404  39.574  11.104
78430W        W50855  40.935  41.395  12.486
78431W        W50856  16.704   6.737   3.774
78432W        W50857   6.410   9.658  12.437
78433W        W50858  18.211  20.678  12.043
78434W        W50859  14.234  12.259   1.904
78435W        W50860  13.563  33.203  12.054
78436W        W50861  42.296  32.920  14.804
78437W        W50862   0.925  10.803  13.507
78438W        W50863   7.390  32.078   0.872
78439W        W50864  34.801  16.183   4.141
78440W        W50865  19.578  36.956   1.421
78441W        W50866   0.435  17.224   4.076
78442W        W50867  11.950  27.721  11.107
78443W        W50868  37.499  43.049  12.382
78444W        W50869  37.345  36.147  12.411
78445W        W50870  22.566  34.592  11.524
78446W        W50871  31.065   3.358   3.098
78447W        W50872  12.819  25.525   1.705
78448W        W50873  34.543  16.439   0.985
78449W        W50874   8.890  21.763  13.470
78450W        W50875  13.087  28.829   3.169
78451W        W50876  32.105  15.596   1.958
78452W        W50877   7.305  29.711  11.116
78453W        W50878  12.866  24.466   2.853
78454W        W50879  14.879  30.580   3.671
78455W        W50880   0.378  20.005   2.331
78456W        W50881  17.619  21.708  13.079
78457W        W50882  28.556   6.328  14.127
78458W        W50883  32.822  12.258  13.263
78459W        W50884  15.062   2.334  14.435
78460W        W50885  11.594   5.468  11.094
78461W        W50886  35.456  10.226   1.955
78462W        W50887  25.750   0.943  10.718
78463W        W50888   7.818  17.961   1.895
78464W        W50889  27.896  27.292  10.136
78465W        W50890  10.280  35.652   4.673
78466W        W50891  40.519  29.937  14.358
78467W        W50892  32.658  12.350  11.570
78468W        W50893  11.892  18.605   2.361
78469W        W50894  13.535  10.628  12.361
78470W        W50895   3.856  23.949   4.235
78471W        W50896  19.192  14.264   2.336
78472W        W50897  21.504  15.211  10.562
78473W        W50898  29.756  34.815   3.718
78474W        W50899   7.946   8.765   1.824
78475W        W50900  31.496  41.259   3.603
78476W        W50901  35.704  11.878   3.665
78477W        W50902   9.940  38.423  10.604
78478W        W50903  44.195  29.642  13.387
78479W        W50904  34.209  18.676   3.140
78480W        W50905  21.445  32.023   5.182
78481W        W50906  18.653  27.157   1.843
78482W        W50907   0.235  24.090  12.658
78483W        W50908  40.846  27.608  10.861
78484W        W50909  41.470   4.840   0.066
78485W        W50910  33.812  20.107  14.934
78486W        W50911  32.626  40.431   4.153
78487W        W50912  33.901  19.197  13.340
78488W        W50913   5.250  13.732  12.485
78489W        W50914  22.537  34.534  10.610
78490W        W50915   1.183  44.092   1.828
78491W        W50916   9.397  22.497  14.889
78492W        W50917  12.778  11.654   2.277
78493W        W50918  35.184  13.168  11.160
78494W        W50919  28.834  12.821   3.103
78495W        W50920  34.315  43.029  14.491
78496W        W50921  29.076  38.538   0.821
78497W        W50922  15.712  43.798   3.081
78498W        W50923  25.940   5.290   1.513
78499W        W50924  22.626  24.504  11.259
78500W        W50925  32.386  38.066   1.466
78501W        W50926  43.006  24.537  11.539
78502W        W50927  27.041  34.039   3.867
78503W        W50928  35.293  36.424   3.575
78504W        W50929  25.033  22.266  14.809
78505W        W50930  20.641  27.963   0.465
78506W        W50931  17.638   8.961  13.545
78507W        W50932  24.993  26.627  12.861
78508W        W50933  30.918  21.970   3.860
78509W        W50934   9.745   8.921  10.534
78510W        W50935  37.949  25.066  12.480
78511W        W50936  39.790  36.963  14.541
78512W        W50937  22.906  23.893  14.438
78513W        W50938  35.038  36.973  10.791
78514W        W50939  23.975  36.092   1.271
78515W        W50940  37.752  39.542  13.415
78516W        W50941  24.140  25.704   0.368
78517W        W50942  15.241  40.624  12.587
78518W        W50943   0.110   0.534   3.160
78519W        W50944  11.702  31.310   4.013
78520W        W50945  32.671  44.344  12.409
78521W        W50946   5.472  28.070   0.392
78522W        W50947  30.320  23.694  14.390
78523W        W50948  42.136   4.226  11.078
78524W        W50949  43.885  12.401  12.477
78525W        W50950  10.245   3.303   2.272
78526W        W50951  37.011  41.430   1.339
78527W        W50952  13.590  22.935  10.997
78528W        W50953  20.130   3.271   4.149
78529W        W50954   6.690  25.510  14.484
78530W        W50955  37.078   2.301   0.188
78531W        W50956  29.704  36.104   3.289
78532W        W50957  16.315  42.906  10.541
78533W        W50958  14.407   1.945   4.198
78534W        W50959  30.351  35.764  13.900
78535W        W50960  16.690  39.305   2.294
78536W        W50961  13.725  28.108  12.467
78537W        W50962  39.565   5.440   2.346
78538W        W50963   5.322   4.224  10.654
78539W        W50964  13.633  44.082  12.770
78540W        W50965  33.821   7.681  14.987
78541W        W50966  11.088  22.746  13.796
78542W        W50967   4.787   5.458   4.329
78543W        W50968  20.141  16.287  13.594
78544W        W50969   2.202   9.196  14.118
78545W        W50970  19.226  23.545  13.461
78546W        W50971  19.855   8.296  11.222
78547W        W50972  17.994  19.239   3.771
78548W        W50973  43.041  43.675   1.767
78549W        W50974  32.137  10.571   3.771
78550W        W50975  23.691  12.743   3.525
78551W        W50976   4.099  29.455  14.523
78552W        W50977  35.104   9.799  14.261
78553W        W50978  15.802  43.504   4.700
78554W        W50979  37.506  26.599   5.110
78555W        W50980  18.654  16.840  10.710
78556W        W50981  34.041  29.680  12.593
78557W        W50982  26.394  16.622  13.910
78558W        W50983   7.874  23.831   9.878
78559W        W50984  34.094  35.800   1.969
78560W        W50985  15.535  29.341   1.220
78561W        W50986  10.455  37.895   2.518
78562W        W50987  21.126  18.005  13.342
78563W        W50988  34.939  37.354   3.737
78564W        W50989  25.051   8.963  12.948
78565W        W50990  33.052   9.394   0.432
78566W        W50991   2.533  13.537  10.952
78567W        W50992  16.700  11.921   4.629
78568W        W50993   6.629  37.224   3.433
78569W        W50994  20.205   2.775  11.616
78570W        W50995  40.492  33.136   4.953
78571W        W50996   5.688  36.361   2.139
78572W        W50997  16.089  23.915   1.888
78573W        W50998  35.903  32.767   3.312
78574W        W50999  16.325   8.647  11.884
78575W        W51000  31.804  31.571   3.908
78576W        W51001  20.519  26.474   0.312
78577W        W51002  21.794  15.111   2.401
78578W        W51003  31.522  31.994  12.920
78579W        W51004  14.033  35.956  13.541
78580W        W51005  27.142  31.379  14.785
78581W        W51006  44.932   0.971   2.899
78582W        W51007  13.709   8.298   1.022
78583W        W51008  37.918  24.010  11.516
78584W        W51009  16.349   8.355   5.352
78585W        W51010  32.699  39.518   1.323
78586W        W51011  26.516   9.280   0.213
78587W        W51012  38.335   5.702  10.528
78588W        W51013  13.115  30.240  13.012
78589W        W51014  18.099  38.898  10.710
78590W        W51015   3.865  37.371   4.684
78591W        W51016  37.900  10.332  13.354
78592W        W51017  30.537   8.180   0.340
78593W        W51018  43.562  14.739  14.944
78594W        W51019  24.685  25.616  12.967
78595W        W51020  35.141  19.274  11.528
78596W        W51021  14.354   9.889  12.048
78597W        W51022  40.870  31.617   3.253
78598W        W51023  39.666   3.752   1.017
78599W        W51024  21.290  32.386  10.663
78600W        W51025  23.575  22.338  14.894
78601W        W51026  39.461  22.092  13.344
78602W        W51027  43.255   4.880   4.257
78603W        W51028  22.828  23.552   5.017
78604W        W51029  43.278  28.574   4.170
78605W        W51030  41.243  15.603  13.464
78606W        W51031   9.573  20.037   2.657
78607W        W51032   7.889  25.712   3.338
78608W        W51033   8.248  42.951   1.358
78609W        W51034  28.885  29.552  12.582
78610W        W51035  21.565  12.113   1.365
78611W        W51036  32.268  14.997   4.590
78612W        W51037  37.443  24.356   4.289
78613W        W51038  44.490  25.330   3.799
78614W        W51039  20.503   8.781  12.539
78615W        W51040   6.909  19.104  13.382
78616W        W51041  34.198  19.288   2.760
78617W        W51042  26.139  23.029  12.752
78618W        W51043  32.624  22.631  14.598
78619W        W51044  16.108   8.121   2.856
78620W        W51045  24.194  43.936   2.689
78621W        W51046   0.128   0.951   4.545
78622W        W51047   0.548   0.173   4.663
78623W        W51048   1.954  40.691   3.237
78624W        W51049  33.526  28.348  11.328
78625W        W51050  27.205   7.407  11.362
78626W        W51051  10.849  27.569   0.900
78627W        W51052  44.040  15.701   4.630
78628W        W51053  27.417  41.231   4.621
78629W        W51054  44.609  35.343   4.542
78630W        W51055  17.017  33.985  14.976
78631W        W51056  39.505  11.077   4.476
78632W        W51057  30.045  20.201   3.209
78633W        W51058  11.109  25.670   0.523
78634W        W51059   5.805  24.515   3.110
78635W        W51060   9.462  17.660   2.803
78636W        W51061   8.732  29.140   0.295
78637W        W51062   8.220  29.575   1.384
78638W        W51063   2.893  21.683   1.680
78639W        W51064  29.647   8.742   4.516
78640W        W51065  37.996   4.777   4.033
78641W        W51066  23.272  16.778  14.985
78642W        W51067  24.221   0.328   4.358
78643W        W51068  10.415  36.517   3.611
78644W        W51069  22.223  20.696  14.237
78645W        W51070   3.456  14.702  12.883
78646W        W51071  19.682   8.427  13.798
78647W        W51072   6.740   2.008  12.544
78648W        W51073   6.029   5.596  13.912
78649W        W51074  25.331  11.895   0.180
78650W        W51075   0.473  26.654  13.957
78651W        W51076   0.046  21.582   1.285
78652W        W51077  12.908  30.492   0.926
78653W        W51078  39.462   1.773   0.287
78654W        W51079  19.336  14.345  14.401
78655W        W51080  17.212   3.398  10.857
78656W        W51081   2.514  30.102   1.751
78657W        W51082   6.199  15.698  13.488
78658W        W51083   0.419  33.087  13.003
78659W        W51084  12.024  19.703   3.091
78660W        W51085  37.489  13.597   2.234
78661W        W51086  41.446  40.674  13.791
78662W        W51087  38.392  25.998  14.319
78663W        W51088  12.295  10.375  10.363
78664W        W51089  28.935   9.855  10.738
78665W        W51090  41.072  11.537   2.007
78666W        W51091  29.115  28.677   1.230
78667W        W51092   9.330  17.263  10.144
78668W        W51093  11.815  11.260  12.733
78669W        W51094  37.270  39.996   2.691
78670W        W51095  18.761  41.602  14.942
78671W        W51096  21.832  36.381   2.861
78672W        W51097  10.968  19.305  13.498
78673W        W51098  23.338  10.848  12.567
78674W        W51099  16.825  23.491  10.731
78675W        W51100   4.716   2.394   0.280
78676W        W51101  17.612  34.536   0.271
78677W        W51102   4.035   6.192  12.355
78678W        W51103  36.992   6.573  12.457
78679W        W51104  25.999  44.951  10.980
78680W        W51105   5.449  29.502   2.859
78681W        W51106   4.978  39.904   0.905
78682W        W51107   0.973   5.874   4.595
78683W        W51108  35.589  37.326  13.484
78684W        W51109   8.096  25.549  14.510
78685W        W51110  14.255   1.829   3.695
78686W        W51111   3.238  23.145  14.721
78687W        W51112  14.039   5.700  14.504
78688W        W51113  40.281   1.259  11.114
78689W        W51114  42.611   1.267   3.601
78690W        W51115  11.205  39.731  14.691
78691W        W51116  18.132  25.260  11.919
78692W        W51117  38.382  24.789  12.608
78693W        W51118  30.059   9.368   3.090
78694W        W51119  12.161  22.185   1.814
78695W        W51120  44.416   6.400  10.607
78696W        W51121  26.876  32.056   0.200
78697W        W51122   8.131  41.432   4.981
78698W        W51123  18.512  12.889  14.869
78699W        W51124  21.048  28.984   2.746
78700W        W51125   9.775  39.948   1.865
78701W        W51126  33.170  34.865   1.230
78702W        W51127  33.170  44.339  12.482
78703W        W51128  15.981   0.453  14.892
78704W        W51129  31.647  41.052  12.060
78705W        W51130  37.933   9.203   5.033
78706W        W51131   3.278  38.958   1.778
78707W        W51132  25.533  16.972   2.231
78708W        W51133  12.570   2.167   2.253
78709W        W51134  21.973  15.200  14.182
78710W        W51135  39.811   6.654   1.776
78711W        W51136  31.620   9.397   1.492
78712W        W51137   8.106   3.745   3.803
78713W        W51138   2.899  25.805  13.478
78714W        W51139  29.608   8.249  14.009
78715W        W51140  40.031  36.344   3.310
78716W        W51141   4.263   1.251   4.596
78717W        W51142  10.787  38.489  11.665
78718W        W51143  40.317  42.923  14.456
78719W        W51144  26.048  17.573  12.773
78720W        W51145   2.033  33.870   1.414
78721W        W51146  38.340  11.383   0.881
78722W        W51147  21.604  37.941   0.626
78723W        W51148  20.861  41.794  12.479
78724W        W51149  10.104   4.191   5.024
78725W        W51150   3.525  40.287  10.729
78726W        W51151  43.769  33.394  12.819
78727W        W51152  33.518  38.462  10.707
78728W        W51153  18.220  16.603  12.551
78729W        W51154  40.381  33.027   2.249
78730W        W51155  13.946  20.480   3.677
78731W        W51156   0.960  17.165   1.856
78732W        W51157   5.903   5.148   1.030
78733W        W51158  34.952  30.034   3.750
78734W        W51159   4.682   2.951  12.131
78735W        W51160   7.950  44.551   4.521
78736W        W51161  25.107  10.227   0.851
78737W        W51162  25.944  13.126  14.960
78738W        W51163  33.699  15.819   3.226
78739W        W51164  28.111  41.288   2.831
78740W        W51165  29.909  36.939   2.662
78741W        W51166   7.188  19.908   1.321
78742W        W51167  23.139   9.399   3.693
78743W        W51168  29.395   8.334  14.468
78744W        W51169  38.431  19.110   1.444
78745W        W51170  41.829  12.544  13.477
78746W        W51171  43.460  30.165   2.196
78747W        W51172  26.753   2.922  13.521
78748W        W51173  10.326  25.128  10.776
78749W        W51174  12.526  30.611   4.798
78750W        W51175  44.539  16.053  14.549
78751W        W51176  26.087  28.387  11.170
78752W        W51177  29.141  26.701  14.514
78753W        W51178  42.462  19.072  10.922
78754W        W51179  24.636  41.255  12.002
78755W        W51180  17.695   6.112  11.246
78756W        W51181  25.425  23.927   3.787
78757W        W51182  27.541  39.596  13.942
78758W        W51183  23.665  12.724   1.883
78759W        W51184  16.198  39.347  13.082
78760W        W51185  40.968  44.291  10.822
78761W        W51186   3.947  36.156  14.477
78762W        W51187  30.428  19.030   4.561
78763W        W51188  34.993  32.504   0.913
78764W        W51189  43.050  10.734  11.135
78765W        W51190  27.493  28.940  12.630
78766W        W51191  41.004  40.098   4.101
78767W        W51192  26.396  13.328   0.892
78768W        W51193   9.757   0.428   0.023
78769W        W51194  22.711  41.027   1.645
78770W        W51195  30.095  34.598  13.290
78771W        W51196  18.572  28.094  12.854
78772W        W51197  23.246  33.629  13.960
78773W        W51198  33.979  22.740  11.892
78774W        W51199  29.591  42.433   3.271
78775W        W51200   0.876  22.436   2.643
78776W        W51201  16.025  13.707   4.562
78777W        W51202  15.997  31.852   4.612
78778W        W51203  33.051  31.650   3.432
78779W        W51204  27.889  29.136  11.717
78780W        W51205  37.513  14.808  14.558
78781W        W51206  16.951  41.410   4.610
78782W        W51207  14.507   5.252   1.693
78783W        W51208  32.897   7.415  14.411
78784W        W51209   7.737  44.180  10.763
78785W        W51210  30.611   6.840  13.520
78786W        W51211   6.817  34.903   3.272
78787W        W51212   2.641  24.166  11.541
78788W        W51213  14.262   3.438  10.995
78789W        W51214  15.126  42.060  12.997
78790W        W51215  37.823   9.350   5.756
78791W        W51216  11.262  10.497   2.626
78792W        W51217  35.585  12.069   1.436
78793W        W51218  33.697  22.282   1.471
78794W        W51219   3.553  36.414   3.142
78795W        W51220   0.882  10.849  14.708
78796W        W51221   7.833  43.684  14.068
78797W        W51222  34.579  44.782   4.654
78798W        W51223   9.429  15.806  13.518
78799W        W51224   8.818  12.114  14.732
78800W        W51225  30.576   3.443   1.415
78801W        W51226  35.047  22.712  10.675
78802W        W51227  31.689  28.107   3.063
78803W        W51228  32.993  17.168   0.600
78804W        W51229   2.766  22.421   0.779
78805W        W51230   8.375  26.898  11.922
78806W        W51231  26.478  20.653   1.010
78807W        W51232   6.268   9.911   2.481
78808W        W51233  32.513  41.609   4.979
78809W        W51234   3.468  26.561  14.991
78810W        W51235  40.549  31.284  12.483
78811W        W51236  20.615  34.619   3.214
78812W        W51237  27.966  35.121   3.183
78813W        W51238  18.854   1.827  13.566
78814W        W51239  34.111  41.281  10.682
78815W        W51240  14.756   9.735  12.977
78816W        W51241  21.239   4.486  11.201
78817W        W51242  43.348  10.158  12.422
78818W        W51243   1.421  10.934  13.393
78819W        W51244  25.026  41.755   0.038
78820W        W51245  30.990  23.961   1.808
78821W        W51246   7.583  31.792   1.260
78822W        W51247  35.437  24.606   1.174
78823W        W51248  11.903  23.581   0.952
78824W        W51249  39.287  21.346  13.749
78825W        W51250   7.722  35.596  13.314
78826W        W51251  22.638   1.065  11.048
78827W        W51252  11.792   0.986  13.559
78828W        W51253  44.216  35.508  14.921
78829W        W51254  38.061  16.297  11.534
78830W        W51255  43.653  43.447   3.622
78831W        W51256  36.919  34.899   1.043
78832W        W51257  39.189  13.586   3.330
78833W        W51258   6.077  21.618  12.410
78834W        W51259  29.691  31.791   5.141
78835W        W51260  10.738  42.340  11.189
78836W        W51261  21.041  11.764   1.947
78837W        W51262  28.420   7.327  12.044
78838W        W51263  10.538  42.466  12.570
78839W        W51264  27.637  43.250   4.612
78840W        W51265  28.180  34.551   1.922
78841W        W51266  17.289  21.106  12.094
78842W        W51267  24.726  42.594   4.074
78843W        W51268  40.996  12.367  10.678
78844W        W51269  44.751  23.611  11.066
78845W        W51270  33.508  16.291   4.014
78846W        W51271  33.281  29.848   1.388
78847W        W51272   1.302  24.186  11.182
78848W        W51273   9.904   5.337  10.765
78849W        W51274  42.414  33.784  11.212
78850W        W51275   8.309   5.292  11.140
78851W        W51276  39.914  32.873  12.837
78852W        W51277  39.375  20.067   2.285
78853W        W51278  21.574  29.992   1.221
78854W        W51279  35.218  22.537   2.785
78855W        W51280  19.221  44.236   0.309
78856W        W51281  27.495  34.370   3.338
78857W        W51282   2.796  29.968  14.478
78858W        W51283  32.424  30.459  12.827
78859W        W51284   1.987  34.083   0.880
78860W        W51285   5.803  38.291  10.505
78861W        W51286   3.225   2.924  13.349
78862W        W51287  16.059  41.282  12.953
78863W        W51288  34.587  26.061   2.128
78864W        W51289  27.638   0.304   4.571
78865W        W51290  20.007  12.371  14.870
78866W        W51291   6.969  22.973   0.809
78867W        W51292  33.616   4.002   0.432
78868W        W51293  28.564   8.323   2.362
78869W        W51294  22.652  36.455   3.487
78870W        W51295   9.774  21.722   2.599
78871W        W51296  43.672  10.261  12.936
78872W        W51297  21.300  15.037  13.486
78873W        W51298  40.765   0.458   0.028
78874W        W51299  24.556  43.086  13.446
78875W        W51300   5.190  21.072  11.956
78876W        W51301  29.609  10.782   1.965
78877W        W51302   7.337  36.499  11.792
78878W        W51303  19.154  40.088   3.848
78879W        W51304  28.243  40.710  14.438
78880W        W51305   5.479   1.994   4.604
78881W        W51306  15.371  34.674   0.872
78882W        W51307  44.789  10.207   0.885
78883W        W51308  15.533  24.455  13.481
78884W        W51309  21.127   5.905  12.052
78885W        W51310  43.884  14.780  11.000
78886W        W51311  41.525  44.708  12.063
78887W        W51312   1.786  38.492  14.247
78888W        W51313  33.193  20.174   4.210
78889W        W51314  26.455  27.627   1.195
78890W        W51315  25.890  19.774  13.364
78891W        W51316  44.817  27.116   4.767
78892W        W51317  17.537  39.395  13.074
78893W        W51318  36.854  44.403   1.069
78894W        W51319   3.045  29.986  13.922
78895W        W51320  22.641   9.400  12.986
78896W        W51321  24.997  38.980  10.620
78897W        W51322  28.531  40.331  10.625
78898W        W51323  17.995   9.925   3.066
78899W        W51324  34.099  34.087   0.874
78900W        W51325   3.405   3.757   0.938
78901W        W51326  22.703  13.081   1.377
78902W        W51327  18.286  14.745  14.927
78903W        W51328   3.809  11.837   4.660
78904W        W51329  30.097  26.632  11.814
78905W        W51330  31.932   5.906   3.471
78906W        W51331  38.538  27.951   2.095
78907W        W51332  13.737  33.846  11.033
78908W        W51333  23.731  37.927  12.899
78909W        W51334  20.462   9.593  14.971
78910W        W51335  12.180  21.640  14.052
78911W        W51336  32.629  22.490  14.121
78912W        W51337  28.299  23.971   4.271
78913W        W51338  44.781  33.454  10.580
78914W        W51339  30.835  39.532   0.221
78915W        W51340   5.201  23.059  13.392
78916W        W51341  39.462  10.148   1.714
78917W        W51342  11.761  28.082   1.746
78918W        W51343   4.685   1.839   4.856
78919W        W51344   2.741  26.182   2.251
78920W        W51345  40.243  38.398   0.745
78921W        W51346  29.550   1.839  14.446
78922W        W51347  11.074  22.008   5.577
78923W        W51348   3.690   1.025  11.653
78924W        W51349  20.661  26.595   5.033
78925W        W51350  44.284  33.658  14.385
78926W        W51351  25.046   3.476  13.079
78927W        W51352  21.709   2.420  12.883
78928W        W51353  15.240  17.247   4.132
78929W        W51354   0.896  30.445   3.351
78930W        W51355  20.296  20.277  12.521
78931W        W51356  10.345  16.550  13.521
78932W        W51357  20.911   1.639  10.368
78933W        W51358  27.667   7.469  14.577
78934W        W51359  37.047  38.991   0.907
78935W        W51360  30.692  12.962   0.379
78936W        W51361  29.394  22.745  13.461
78937W        W51362   3.328   3.444  13.892
78938W        W51363  26.123  10.774   0.996
78939W        W51364  35.381  25.511   3.437
78940W        W51365  38.387  16.543  13.450
78941W        W51366  25.666  40.813   0.345
78942W        W51367   3.828  32.206   2.694
78943W        W51368   3.210   9.551   0.637
78944W        W51369  27.481  28.937  14.901
78945W        W51370  20.798  20.763   3.706
78946W        W51371  11.276  16.618   2.302
78947W        W51372   5.818   5.186  14.848
78948W        W51373  12.175   7.298  11.005
78949W        W51374  30.101   5.224   4.885
78950W        W51375  10.535  25.927  10.218
78951W        W51376  10.357   0.557  12.393
78952W        W51377  29.898  21.587  13.929
78953W        W51378  26.642  15.642  14.851
78954W        W51379  40.076  14.090  10.398
78955W        W51380  26.125  36.157   2.365
78956W        W51381  26.530  16.650   1.094
78957W        W51382  13.787  23.735   1.637
78958W        W51383  30.100   0.351   1.292
78959W        W51384   5.470   6.996  10.528
78960W        W51385   6.696  17.550  11.996
78961W        W51386  18.956  20.110   2.585
78962W        W51387   5.397  25.906  11.170
78963W        W51388  30.780   1.510   2.661
78964W        W51389  26.502  40.839   0.488
78965W        W51390  19.293   5.243   2.882
78966W        W51391  25.640  43.389   2.183
78967W        W51392  19.787  30.298  11.621
78968W        W51393  11.294   2.999   2.087
78969W        W51394   8.984  19.329  12.370
78970W        W51395  42.623  36.134   4.199
78971W        W51396  43.357  16.813   1.044
78972W        W51397  29.104  17.339   0.972
78973W        W51398  23.702  33.991   1.924
78974W        W51399  18.152  35.414  10.900
78975W        W51400   5.236  27.708  14.778
78976W        W51401  35.392  26.137  11.536
78977W        W51402  43.143   6.608   4.125
78978W        W51403   6.274  32.720  13.052
78979W        W51404  44.826  22.712  12.400
78980W        W51405   7.311  24.049  11.155
78981W        W51406   9.679   1.168  14.558
78982W        W51407  36.670   0.553   2.894
78983W        W51408  43.082  17.675   0.482
78984W        W51409  18.550  22.212   4.269
78985W        W51410  31.982  38.057   3.120
78986W        W51411  29.621  27.735   4.674
78987W        W51412  11.849  12.840  11.622
78988W        W51413  26.364  10.318   1.945
78989W        W51414  14.405  20.144  13.871
78990W        W51415   7.575  24.656   0.303
78991W        W51416  12.579  11.692   1.367
78992W        W51417  25.032  10.099   1.416
78993W        W51418  24.218  19.177  12.939
78994W        W51419  17.603   7.004   4.018
78995W        W51420  30.351  18.757  14.888
78996W        W51421   0.806  35.971  14.352
78997W        W51422  35.015  12.310   2.348
78998W        W51423  28.148  19.858  13.964
78999W        W51424   8.294  35.405   3.124
79000W        W51425  20.362  20.825   1.376
79001W        W51426  26.569  27.156   1.374
79002W        W51427  11.546  12.897  12.446
79003W        W51428  13.521  16.142   1.849
79004W        W51429  23.560  30.949   0.248
79005W        W51430  16.538  39.787   2.328
79006W        W51431  29.019  31.612   0.670
79007W        W51432  27.895  44.578   0.357
79008W        W51433  11.669   6.503   0.934
79009W        W51434  25.673   1.464  10.686
79010W        W51435  23.998  31.945   5.029
79011W        W51436  19.797  39.834   2.652
79012W        W51437  44.782   6.432   0.858
79013W        W51438  27.718   0.005   1.931
79014W        W51439   4.838   0.360  14.365
79015W        W51440   2.821  25.176   1.895
79016W        W51441  34.612   8.784   4.908
79017W        W51442  31.023  27.974   4.395
79018W        W51443  31.487  17.409   2.342
79019W        W51444  24.330   6.471   5.027
79020W        W51445  12.178  13.780   4.375
79021W        W51446  17.164  18.553  10.725
79022W        W51447   3.187  42.369   1.504
79023W        W51448  33.319  11.271   0.250
79024W        W51449   6.944  30.441  11.471
79025W        W51450  10.027  40.634   2.436
79026W        W51451  15.328  42.785  12.534
79027W        W51452  37.007  40.783  11.171
79028W        W51453   2.427  19.607  11.970
79029W        W51454  40.496   7.585  11.186
79030W        W51455  29.950   6.664  14.411
79031W        W51456  16.019   1.408  14.934
79032W        W51457  39.752   3.721  13.402
79033W        W51458  21.639  32.077   2.143
79034W        W51459  29.713  16.964  14.912
79035W        W51460  32.640  29.993  12.672
79036W        W51461  35.352   0.043   3.167
79037W        W51462   2.195  41.583  11.688
79038W        W51463  11.856  25.762   3.718
79039W        W51464   0.792  13.102  14.491
79040W        W51465  36.399  22.255  11.543
79041W        W51466  13.743  36.478  11.868
79042W        W51467  15.509  30.823  12.487
79043W        W51468  34.379  23.868   0.894
79044W        W51469  14.982  38.975  13.876
79045W        W51470  41.523  32.191   0.901
79046W        W51471  21.666  28.080   0.229
79047W        W51472  36.445   3.720  10.617
79048W        W51473  42.913  44.629   5.141
79049W        W51474   7.113  36.368   3.659
79050W        W51475  11.898  25.178  13.006
79051W        W51476  21.473   5.262  10.516
79052W        W51477  44.227  16.546  12.896
79053W        W51478  15.329  41.241  11.792
79054W        W51479  25.098  30.017   0.646
79055W        W51480  38.331   6.244  12.624
79056W        W51481  43.458  42.994  10.728
79057W        W51482  18.266  30.852  11.467
79058W        W51483   0.891  35.459  13.420
79059W        W51484   6.839  35.571  12.911
79060W        W51485  16.729  40.398  14.469
79061W        W51486  36.874  12.618  10.765
79062W        W51487   9.411  15.764  12.044
79063W        W51488  27.426  35.339   3.068
79064W        W51489  18.017  37.784   3.233
79065W        W51490  15.355   4.066   5.642
79066W        W51491  36.294  27.003  12.358
79067W        W51492   1.974  38.525   1.997
79068W        W51493   1.229  33.539   4.291
79069W        W51494   6.793  35.868   3.276
79070W        W51495  39.305  13.028   1.984
79071W        W51496   1.050  34.064   1.857
79072W        W51497  29.917  38.932   2.747
79073W        W51498   2.677  30.499   1.428
79074W        W51499  11.884   8.810   1.486
79075W        W51500  38.787  18.841   5.020
79076W        W51501  14.593  43.074  10.415
79077W        W51502  28.152  11.627   2.508
79078W        W51503  15.800   3.993   2.771
79079W        W51504   8.691  32.372  14.776
79080W        W51505  17.416   0.546  11.663
79081W        W51506  34.583   2.893   2.274
79082W        W51507  22.291  20.004  14.909
79083W        W51508  25.898  39.269   0.891
79084W        W51509  44.557  31.227   0.748
79085W        W51510  18.121  16.520  14.423
79086W        W51511  22.698  24.589   2.831
79087W        W51512  44.713  34.179   5.298
79088W        W51513  13.617  43.785  11.163
79089W        W51514  10.305  44.249  11.451
79090W        W51515   0.964  26.502  13.969
79091W        W51516  13.671   7.197   0.514
79092W        W51517  35.825  27.884   1.693
79093W        W51518  24.463  31.132   0.238
79094W        W51519   3.450  17.054   3.788
79095W        W51520  44.631  20.712   0.912
79096W        W51521  26.756  26.015   0.020
79097W        W51522  17.635  34.216  12.372
79098W        W51523   3.752  39.413  11.155
79099W        W51524  12.226   0.268  14.318
79100W        W51525  26.252  31.072   3.099
79101W        W51526  24.729   4.371  13.139
79102W        W51527  28.746   3.752  11.617
79103W        W51528  11.386   5.403  13.350
79104W        W51529  31.243  16.988   3.130
79105W        W51530  34.524   0.854   2.650
79106W        W51531  10.957  18.860  13.800
79107W        W51532  30.258  20.154  14.549
79108W        W51533   6.437  42.357   2.632
79109W        W51534  11.825  33.941  14.714
79110W        W51535  12.065   2.296   3.644
79111W        W51536  26.436  37.795  11.601
79112W        W51537  20.034   8.877   3.221
79113W        W51538  26.665  18.078   4.866
79114W        W51539  32.031  30.412   0.677
79115W        W51540  36.859  31.700  10.957
79116W        W51541   3.685  19.971  13.085
79117W        W51542  15.585  38.465  12.358
79118W        W51543  21.517  27.139   1.807
79119W        W51544   6.775   9.617   3.243
79120W        W51545  24.335  28.039   1.478
79121W        W51546  11.838  28.435  13.360
79122W        W51547  37.173  14.135   1.262
79123W        W51548   4.265   5.814   1.437
79124W        W51549  19.590  25.170  12.217
79125W        W51550  42.547  39.962   4.147
79126W        W51551  39.967  19.485  14.833
79127W        W51552   7.164  39.327  12.054
79128W        W51553  29.574  10.382   0.822
79129W        W51554  43.809  11.367  12.609
79130W        W51555   5.979  24.128   1.262
79131W        W51556  40.422  21.741   1.857
79132W        W51557  21.733  19.208   3.202
79133W        W51558  19.974   6.385  11.234
79134W        W51559   2.833   2.886   2.615
79135W        W51560  26.042  13.584  12.406
79136W        W51561  20.071  11.878  13.364
79137W        W51562  27.131  30.024   1.060
79138W        W51563  26.148   1.996  12.990
79139W        W51564  22.052  24.954   4.262
79140W        W51565   2.700  36.584  11.308
79141W        W51566  41.238  44.087   1.390
79142W        W51567  24.239  18.382  11.187
79143W        W51568   4.566  39.038   4.736
79144W        W51569  43.261  33.505   3.622
79145W        W51570  20.467  31.133   0.248
79146W        W51571  27.965  20.085   3.706
79147W        W51572  42.515  32.462  14.028
79148W        W51573   2.248  30.297  11.761
79149W        W51574   6.373  16.981  12.079
79150W        W51575  19.255  32.418   3.256
79151W        W51576  11.521   3.002   4.461
79152W        W51577  15.507   0.275  11.901
79153W        W51578   0.872  36.856  14.764
79154W        W51579   3.355  23.955  14.295
79155W        W51580   0.245  32.443   2.746
79156W        W51581  30.473  27.653   0.411
79157W        W51582  43.051  40.472  13.291
79158W        W51583  17.305  39.967   4.915
79159W        W51584   2.294  22.113   4.539
79160W        W51585  31.988   7.707  11.573
79161W        W51586   6.703  27.969   3.847
79162W        W51587  29.259  11.092  12.471
79163W        W51588  28.997   0.569   4.844
79164W        W51589  25.974  23.221  10.957
79165W        W51590  44.753  34.489   1.594
79166W        W51591  39.074   6.670  12.409
79167W        W51592  28.151  18.567   0.789
79168W        W51593  41.021  12.694   1.374
79169W        W51594  21.515  11.096  10.622
79170W        W51595  16.333  34.193   5.093
79171W        W51596  24.610  30.967  13.257
79172W        W51597  39.927  12.743  10.667
79173W        W51598  14.077   1.541   9.751
79174W        W51599  42.304  39.797   4.574
79175W        W51600  16.767   5.423  10.812
79176W        W51601  35.661  27.303  13.363
79177W        W51602   9.253  10.314  14.319
79178W        W51603  40.445  18.574  13.038
79179W        W51604  22.617  15.624   3.267
79180W        W51605  11.584  11.195  14.410
79181W        W51606   9.554   3.784   1.974
79182W        W51607  39.472  40.612  13.996
79183W        W51608  30.072  15.040   1.303
79184W        W51609  16.225  18.451   4.699
79185W        W51610  43.354  17.405  13.925
79186W        W51611  19.253  10.031   3.274
79187W        W51612   4.014   1.315   3.765
79188W        W51613  14.758  25.864   4.255
79189W        W51614  42.845  35.818   3.239
79190W        W51615   1.733  17.192  12.502
79191W        W51616  37.987   4.852   3.075
79192W        W51617   0.752   9.429  13.992
79193W        W51618  36.947  36.447  12.192
79194W        W51619  26.458   6.276  11.669
79195W        W51620  33.333  19.089   3.709
79196W        W51621  41.413  24.373  13.863
79197W        W51622  33.009  14.638   1.796
79198W        W51623  44.961   1.381  12.825
79199W        W51624  35.070  30.412  13.604
79200W        W51625  29.617  43.871  11.897
79201W        W51626  24.119  31.158  12.464
79202W        W51627  37.912  44.392   2.364
79203W        W51628  34.553   2.415   1.206
79204W        W51629  12.508  33.203   1.055
79205W        W51630   6.771  37.792   2.924
79206W        W51631  16.524   0.202  11.188
79207W        W51632  12.068  40.944   2.591
79208W        W51633   4.891  20.724   2.696
79209W        W51634  31.522  19.545  11.784
79210W        W51635  27.747  27.170  14.345
79211W        W51636  31.431  44.911   2.678
79212W        W51637  32.644   5.388   1.873
79213W        W51638  26.468   7.844   1.879
79214W        W51639  17.471  13.340   4.187
79215W        W51640  24.544   7.339  11.269
79216W        W51641  43.105  37.394   4.947
79217W        W51642  11.792  23.720  14.920
79218W        W51643  23.530  13.018  11.011
79219W        W51644  16.185  37.785   4.525
79220W        W51645  17.464  15.705   1.667
79221W        W51646  44.327  35.524   0.899
79222W        W51647  16.280  25.803   0.388
79223W        W51648   6.910  22.984  10.749
79224W        W51649  22.268  19.859  11.767
79225W        W51650  26.140   2.051  13.936
79226W        W51651   3.223  32.623   1.862
79227W        W51652  44.444   7.168  11.998
79228W        W51653  36.257  13.046  12.085
79229W        W51654   3.709  11.840  11.965
79230W        W51655  10.713  14.294  11.621
79231W        W51656  18.635  21.941  10.731
79232W        W51657  23.077  18.097  13.563
79233W        W51658   5.909  13.306  11.551
79234W        W51659  13.905  20.015  13.904
79235W        W51660  30.314  27.495   1.436
79236W        W51661  33.298   5.753   5.256
79237W        W51662  26.584  22.088  12.525
79238W        W51663  28.787  15.263  12.442
79239W        W51664  32.684  15.157  10.800
79240W        W51665  13.807  33.076  11.589
79241W        W51666  18.555  15.726  13.538
79242W        W51667  10.542   3.900  14.884
79243W        W51668  21.459   5.552   4.159
79244W        W51669  20.005  33.075   3.179
79245W        W51670   9.392   9.077   1.376
79246W        W51671   9.746  31.999  11.992
79247W        W51672  37.868  36.061  12.131
79248W        W51673  37.998  28.183   3.267
79249W        W51674  36.847  34.008   0.835
79250W        W51675  30.888  11.672   2.263
79251W        W51676  36.348  13.562   2.272
79252W        W51677  13.083  22.031  10.218
79253W        W51678  14.740  21.082   0.796
79254W        W51679   8.713  33.754   4.324
79255W        W51680  29.021   3.669   3.092
79256W        W51681  16.009  29.884   3.606
79257W        W51682  17.071  36.864   2.297
79258W        W51683   5.868   9.874  12.876
79259W        W51684   1.143  25.580   1.720
79260W        W51685  28.494   3.333   0.220
79261W        W51686   8.761  11.884  12.329
79262W        W51687  20.132  32.164  12.919
79263W        W51688  36.082  20.773  13.928
79264W        W51689  23.282  27.544   0.422
79265W        W51690   3.478  29.141   4.074
79266W        W51691  31.180  13.220   3.871
79267W        W51692  18.059  35.850   0.357
79268W        W51693  20.977  33.411   2.196
79269W        W51694   7.082   9.545   0.859
79270W        W51695  44.516  31.759   3.309
79271W        W51696  20.463  12.123   4.509
79272W        W51697  14.844  36.509   2.762
79273W        W51698  37.346  42.978  11.443
79274W        W51699  37.568  36.062   0.084
79275W        W51700   7.851   0.336   2.194
79276W        W51701   0.778  16.897  10.882
79277W        W51702  40.495  29.505   2.354
79278W        W51703  38.801  22.619  12.984
79279W        W51704   3.847  25.003  14.841
79280W        W51705  30.612  31.413   1.402
79281W        W51706  17.334  40.675   9.832
79282W        W51707  44.601  41.812  13.539
79283W        W51708  11.382  29.512  10.853
79284W        W51709  41.678  12.676   3.546
79285W        W51710  43.570  22.179   3.238
79286W        W51711  36.652   3.237  13.468
79287W        W51712   4.319  33.021   4.592
79288W        W51713   0.413  17.465  14.699
79289W        W51714   2.753   7.279  12.312
79290W        W51715  24.072  44.179  10.132
79291W        W51716   1.439  40.410   2.845
79292W        W51717  36.258  29.313   5.082
79293W        W51718   8.739  34.035   3.879
79294W        W51719  42.269   6.234  13.012
79295W        W51720  17.496  37.622   3.756
79296W        W51721  13.133  22.223  14.834
79297W        W51722  39.768  40.051   0.471
79298W        W51723  29.235  20.720   5.120
79299W        W51724  35.923  11.409  13.029
79300W        W51725   8.641  14.788  13.305
79301W        W51726  14.115  30.042  14.984
79302W        W51727  16.069  32.500  10.365
79303W        W51728  24.594  42.077   4.076
79304W        W51729   2.389  23.928  11.981
79305W        W51730  18.342  22.674   0.386
79306W        W51731  13.396   2.859  14.411
79307W        W51732  26.640  39.757   1.980
79308W        W51733  28.143  15.695   5.034
79309W        W51734  16.600  36.408  11.648
79310W        W51735  15.752   4.442  14.828
79311W        W51736  43.835  15.050  12.451
79312W        W51737  40.419  28.944   3.304
79313W        W51738  30.386   6.165   0.422
79314W        W51739  18.005  34.396  13.300
79315W        W51740  39.181  20.533   2.423
79316W        W51741  23.017  29.459  10.667
79317W        W51742  37.527   0.514  11.565
79318W        W51743   7.795  40.545   3.162
79319W        W51744   1.821  16.699  11.066
79320W        W51745  14.124   5.773   0.000
79321W        W51746   2.970   7.131   0.754
79322W        W51747  31.825  41.358   4.588
79323W        W51748  22.624  27.631  14.283
79324W        W51749  38.876  25.551  12.169
79325W        W51750  33.630  32.830   1.855
79326W        W51751  25.777  29.949   5.112
79327W        W51752  29.514   0.951  13.332
79328W        W51753  31.389   0.927  11.496
79329W        W51754   7.160  17.481  12.582
79330W        W51755  28.188  20.093  14.460
79331W        W51756  12.335  14.478   1.539
79332W        W51757   7.156   0.062   1.749
79333W        W51758  26.586   3.795  10.529
79334W        W51759  19.130  22.296   3.176
79335W        W51760   8.860  26.554   4.202
79336W        W51761  39.763  21.107   4.609
79337W        W51762  20.018  22.418  10.798
79338W        W51763   8.851  32.687   4.102
79339W        W51764  24.552   6.139   4.192
79340W        W51765  13.577  27.566   2.468
79341W        W51766   0.099  35.470   4.605
79342W        W51767  22.481  16.260  11.149
79343W        W51768   0.884  20.892  13.312
79344W        W51769  29.575  12.625   3.667
79345W        W51770   6.867   4.035  11.627
79346W        W51771   9.238  42.029   2.622
79347W        W51772  25.428   8.296  12.135
79348W        W51773  30.508  41.945  13.495
79349W        W51774  22.583   3.778  12.650
79350W        W51775  34.980  36.840  12.039
79351W        W51776  28.104   7.126  11.697
79352W        W51777  22.089  19.239  14.329
79353W        W51778  22.982  42.470   1.633
79354W        W51779  39.071  12.851  14.365
79355W        W51780  19.280  37.598  11.979
79356W        W51781  31.764  18.696   1.783
79357W        W51782  27.717   5.289   4.473
79358W        W51783   2.243   9.963   3.965
79359W        W51784   9.154  31.905   3.451
79360W        W51785   7.564   8.916  10.118
79361W        W51786  29.621  38.079   5.910
79362W        W51787  11.467   1.399   2.226
79363W        W51788  22.975   3.749  14.911
79364W        W51789  42.961  35.971   2.751
79365W        W51790  37.621   8.979   5.433
79366W        W51791  27.491  27.932  11.685
79367W        W51792  17.027   3.514  11.860
79368W        W51793  32.066  10.520  12.914
79369W        W51794  15.851  19.547  14.289
79370W        W51795   5.366  33.906   3.427
79371W        W51796  13.595  13.781   3.415
79372W        W51797  26.574  16.114  11.410
79373W        W51798  29.034  23.533   1.345
79374W        W51799  16.405  30.683  12.392
79375W        W51800  31.642  35.226  13.067
79376W        W51801  20.076  29.127   1.143
79377W        W51802  14.956  20.544   0.831
79378W        W51803  25.425  44.283  13.973
79379W        W51804  20.529  43.282   1.372
79380W        W51805   7.950  43.439   1.891
79381W        W51806   4.896  28.850   5.058
79382W        W51807   7.766  33.670  11.119
79383W        W51808   4.644  43.525   0.037
79384W        W51809  23.234  22.993  10.736
79385W        W51810  21.181   1.097   2.324
79386W        W51811  16.817  28.094   0.806
79387W        W51812  29.185  21.321  13.314
79388W        W51813  16.186  31.998  11.067
79389W        W51814  26.581  32.507  11.643
79390W        W51815  15.868  12.510   5.220
79391W        W51816  14.200   8.430   1.073
79392W        W51817  23.364   7.294   0.409
79393W        W51818   8.220  34.440   0.572
79394W        W51819  21.478   2.678   4.565
79395W        W51820  41.286   6.320  13.409
79396W        W51821  26.914   0.992  10.692
79397W        W51822  10.835  44.440   3.548
79398W        W51823  31.982  13.808   0.695
79399W        W51824  13.252  30.580  10.817
79400W        W51825  43.406  31.955   1.761
79401W        W51826   2.874   3.355  10.248
79402W        W51827  21.819  43.548  11.218
79403W        W51828  42.385   6.167  12.025
79404W        W51829  22.149   2.329   1.152
79405W        W51830  24.395  33.665  11.595
79406W        W51831   2.850  21.986   2.091
79407W        W51832   4.749  30.294   2.907
79408W        W51833   2.347   0.077   2.824
79409W        W51834  33.224  30.500   0.235
79410W        W51835  31.833   5.251  13.790
79411W        W51836  29.332  13.189  11.963
79412W        W51837  44.260  11.818  13.902
79413W        W51838   1.360  11.447  13.310
79414W        W51839  42.011  31.461   1.240
79415W        W51840  13.145  40.368   3.244
79416W        W51841  27.111  20.575  14.230
79417W        W51842   3.245   0.781  12.850
79418W        W51843  30.812  10.080  10.227
79419W        W51844  17.753  44.023  12.071
79420W        W51845  10.170  15.720   2.675
79421W        W51846   1.572  34.813  14.749
79422W        W51847  16.009  20.509  11.283
79423W        W51848  15.241  41.773  12.589
79424W        W51849  27.489  28.084  14.550
79425W        W51850  29.192  37.578   3.759
79426W        W51851  14.154  24.826   9.682
79427W        W51852   4.846  19.605   0.209
79428W        W51853  33.822  43.006  11.210
79429W        W51854  30.031  33.967  14.825
79430W        W51855  31.464  13.824   4.662
79431W        W51856  21.699   8.835  14.445
79432W        W51857  23.040  26.032  12.508
79433W        W51858  28.123  24.370   1.839
79434W        W51859  27.038  37.334   0.689
79435W        W51860  41.121   6.346  11.590
79436W        W51861  17.604  18.779  10.884
79437W        W51862  36.371  44.518  12.474
79438W        W51863  42.528  12.659   4.880
79439W        W51864  14.648  29.198   0.737
79440W        W51865  43.256  31.595   0.526
79441W        W51866  12.112   6.414   0.249
79442W        W51867  14.726  44.511   3.324
79443W        W51868  18.509   1.924  14.886
79444W        W51869  33.857  32.431  12.081
79445W        W51870  41.381   3.913   0.413
79446W        W51871  34.397  38.454   0.290
79447W        W51872  15.500  32.103   4.326
79448W        W51873   7.732  14.270   3.319
79449W        W51874  19.189   0.737   3.777
79450W        W51875  27.668  44.269   4.547
79451W        W51876   6.273   6.662  14.525
79452W        W51877  36.546   5.455  10.546
79453W        W51878  11.191   1.877   4.144
79454W        W51879  23.096  22.144   3.573
79455W        W51880  34.862   3.976  14.057
79456W        W51881   5.951  22.728   0.346
79457W        W51882  21.469  38.447   1.305
79458W        W51883  18.838  41.621   3.186
79459W        W51884  15.874  42.558  13.373
79460W        W51885  16.324  18.635   0.294
79461W        W51886  43.311  11.726   0.390
79462W        W51887  27.879  43.000   2.498
79463W        W51888  38.172  18.366  13.985
79464W        W51889  33.354   9.805  13.118
79465W        W51890   3.146  24.289   4.079
79466W        W51891  23.021  19.690   1.630
79467W        W51892   7.670  44.762  11.930
79468W        W51893   2.166  17.572  11.021
79469W        W51894  20.987  34.453   1.447
79470W        W51895   2.002  38.262  13.310
79471W        W51896  43.020  16.549   1.330
79472W        W51897  44.912  20.577   0.352
79473W        W51898  38.838   9.093  13.921
79474W        W51899   7.417  27.556  10.396
79475W        W51900  37.010  29.680  12.882
79476W        W51901  43.031   8.736   3.635
79477W        W51902  25.825  29.942  12.120
79478W        W51903  16.792  26.510   0.388
79479W        W51904   4.937  32.429  10.960
79480W        W51905   1.689  15.122   4.270
79481W        W51906  27.695  19.235   0.014
79482W        W51907  35.815  20.061   0.509
79483W        W51908  18.799  20.007   3.927
79484W        W51909  32.909   4.113  13.893
79485W        W51910   8.399  16.075   1.893
79486W        W51911   2.097  13.249   3.242
79487W        W51912  27.584  41.911   1.812
79488W        W51913  13.833  40.867   2.334
79489W        W51914  21.666  39.837   4.113
79490W        W51915  42.611  11.754  11.495
79491W        W51916   7.270  24.658   1.186
79492W        W51917  26.562  31.102   2.239
79493W        W51918  38.898   4.952   3.130
79494W        W51919  28.522  44.789   2.211
79495W        W51920  12.363  21.606   0.961
79496W        W51921  36.228  38.903   0.473
79497W        W51922   8.148   4.139  12.075
79498W        W51923  11.697  15.175   1.635
79499W        W51924  26.265  22.785  14.306
79500W        W51925  41.895  32.549   3.700
79501W        W51926  14.470  44.393   2.332
79502W        W51927  43.547  37.230  11.531
79503W        W51928   2.849   7.295  13.810
79504W        W51929  35.440   0.433  13.805
79505W        W51930   3.715   2.774  11.211
79506W        W51931  17.205  26.681  13.482
79507W        W51932  16.269  18.203  13.490
79508W        W51933   0.778  25.219   0.389
79509W        W51934   5.151  20.179  10.787
79510W        W51935  42.519   4.974   3.203
79511W        W51936  25.651  44.368   1.890
79512W        W51937  19.533  27.648  14.975
79513W        W51938  42.809  13.253  13.058
79514W        W51939  14.102  17.087  14.532
79515W        W51940  13.551  20.733   1.312
79516W        W51941  12.431   7.697   0.261
79517W        W51942   1.252  15.875   1.276
79518W        W51943  33.554  44.441   3.318
79519W        W51944  41.354   0.029  14.481
79520W        W51945   3.486  16.582   0.331
79521W        W51946  44.500  15.003   1.335
79522W        W51947  21.027  33.491   3.678
79523W        W51948  27.430  11.819  10.702
79524W        W51949   2.777  27.151   3.686
79525W        W51950  32.964  30.525  12.907
79526W        W51951   2.872  28.047   4.470
79527W        W51952  17.318  37.659   0.848
79528W        W51953  28.646  36.441  12.449
79529W        W51954  30.058  19.600  13.825
79530W        W51955  35.329  31.111   1.201
79531W        W51956  14.866  21.117   0.298
79532W        W51957   4.553  32.557   4.664
79533W        W51958   6.629  23.686   4.496
79534W        W51959  42.949  35.408   0.003
79535W        W51960  40.924   9.880   2.629
79536W        W51961  31.603   1.880  12.394
79537W        W51962   5.452  41.862  14.277
79538W        W51963  25.936   6.311   3.424
79539W        W51964  14.011  16.245  13.988
79540W        W51965   3.689  39.496  12.963
79541W        W51966  20.320  13.698   1.767
79542W        W51967  10.570   7.262   0.382
79543W        W51968  43.561  20.139  12.684
79544W        W51969  33.911  30.491  12.215
79545W        W51970  16.593  24.132   4.421
79546W        W51971  17.952  12.879   1.231
79547W        W51972  27.122  35.030   3.440
79548W        W51973  33.391  35.908  10.743
79549W        W51974   6.749  19.080   2.780
79550W        W51975   7.199   9.208   2.619
79551W        W51976  40.256  16.020   3.539
79552W        W51977  33.592  22.111   0.392
79553W        W51978  37.923  13.193  14.730
79554W        W51979  24.980  40.978   0.957
79555W        W51980  29.207  18.828   2.543
79556W        W51981  42.303  21.754   9.967
79557W        W51982  22.453   0.691   4.185
79558W        W51983  23.165  42.306  12.372
79559W        W51984  32.317  36.055  11.449
79560W        W51985  32.518  10.165   2.232
79561W        W51986  43.883  25.606   3.939
79562W        W51987  20.184   1.243   2.320
79563W        W51988   3.855  35.518  13.871
79564W        W51989  29.030  10.642  11.629
79565W        W51990  32.403   4.814   0.864
79566W        W51991  33.931  30.424   4.556
79567W        W51992  35.650  39.639  11.727
79568W        W51993   3.578  23.266   2.207
79569W        W51994   0.955   5.116   0.771
79570W        W51995  34.847  27.139  11.043
79571W        W51996  34.254  41.782   2.100
79572W        W51997  15.080   4.389   1.681
79573W        W51998   8.142   9.334  14.705
79574W        W51999  41.616  19.719   4.634
79575W        W52000  18.587   5.181  10.028
79576W        W52001  44.601  30.326   1.658
79577W        W52002  38.436  28.970  13.342
79578W        W52003   5.273  42.535  11.531
79579W        W52004  18.636  24.278  11.577
79580W        W52005   9.585  38.597   0.965
79581W        W52006   6.271   2.159  12.359
79582W        W52007  24.126   7.619   2.932
79583W        W52008  32.055  18.641   0.402
79584W        W52009   7.665  19.207   1.436
79585W        W52010  36.322   4.716  12.553
79586W        W52011   7.815   3.597   0.918
79587W        W52012  10.146  20.822  11.136
79588W        W52013  16.241  13.343   2.249
79589W        W52014   6.327  42.505  13.343
79590W        W52015  19.633  33.420  14.849
79591W        W52016   1.973  27.848   4.504
79592W        W52017  23.692  40.312  13.138
79593W        W52018  40.780   4.548   0.552
79594W        W52019  12.158  34.354   2.721
79595W        W52020  25.661   5.370   2.742
79596W        W52021  25.948   9.216  10.627
79597W        W52022  12.931  27.888   0.320
79598W        W52023   9.778  38.592  13.228
79599W        W52024  32.912   7.446   0.495
79600W        W52025   5.353  36.430  13.009
79601W        W52026  19.042  29.120  11.210
79602W        W52027  21.746   1.698   4.587
79603W        W52028  10.389   8.693   3.647
79604W        W52029  11.345  30.151   4.659
79605W        W52030  22.176  27.543  12.114
79606W        W52031  26.000   3.980  14.806
79607W        W52032  39.504   7.838  10.987
79608W        W52033  26.036  10.265   3.179
79609W        W52034   8.600  26.838  14.842
79610W        W52035  14.105  27.274   0.754
79611W        W52036  35.455  27.545  14.844
79612W        W52037  42.124   7.197   2.706
79613W        W52038  39.923  11.128   1.342
79614W        W52039   8.624   4.133  14.924
79615W        W52040   6.972   8.476  12.127
79616W        W52041   0.896  41.002   4.417
79617W        W52042  17.611  41.125   9.794
79618W        W52043  11.207  24.661   5.714
79619W        W52044  16.606   5.783   0.380
79620W        W52045  38.055   0.994   0.103
79621W        W52046   3.371  23.450  14.291
79622W        W52047   7.716  11.412   3.609
79623W        W52048  13.708  41.937   2.374
79624W        W52049  23.806   2.221  12.934
79625W        W52050   6.284  44.449   3.214
79626W        W52051  13.885  26.899   0.400
79627W        W52052   6.811  43.489   2.364
79628W        W52053  35.101  33.287   2.844
79629W        W52054   1.462  21.183  14.784
79630W        W52055  31.440   1.789  13.398
79631W        W52056   0.556  11.712  14.744
79632W        W52057   5.955  41.659   2.126
79633W        W52058   7.401  36.405   3.228
79634W        W52059  36.978  18.015   4.823
79635W        W52060  34.446   6.740  14.082
79636W        W52061  39.205  37.961  11.727
79637W        W52062  39.970  23.518   2.032
79638W        W52063  37.775  29.035  11.805
79639W        W52064  43.681   2.062  13.940
79640W        W52065  22.461  32.145  11.892
79641W        W52066   7.806   3.285   4.658
79642W        W52067  39.047  23.757  14.593
79643W        W52068  21.203  20.458  10.955
79644W        W52069  34.465  24.245   3.568
79645W        W52070  38.595   9.192  12.068
79646W        W52071  36.353  17.605  11.580
79647W        W52072  12.705  20.355   0.464
79648W        W52073  41.902  42.440  13.177
79649W        W52074  15.763  24.865   5.041
79650W        W52075  30.371  38.812   2.993
79651W        W52076  12.109  41.691  11.104
79652W        W52077  43.680  31.311  14.459
79653W        W52078   8.481  24.752  13.138
79654W        W52079  17.509  33.463  13.510
79655W        W52080  14.073  24.127  11.003
79656W        W52081  14.884  25.763  11.098
79657W        W52082   0.259  24.559   4.174
79658W        W52083  34.353  33.116  13.046
79659W        W52084  10.803  26.363   2.440
79660W        W52085  41.362  42.068   2.223
79661W        W52086  18.836  18.108   2.216
79662W        W52087  17.222  10.994  11.547
79663W        W52088  17.804   5.510   4.707
79664W        W52089  32.475   4.819  14.732
79665W        W52090  26.249  17.678   4.115
79666W        W52091  42.007  29.626   3.876
79667W        W52092  27.508   1.118  12.874
79668W        W52093   2.738   2.783  11.524
79669W        W52094   7.805  33.961  14.889
79670W        W52095  30.956   8.931  13.910
79671W        W52096  39.341  26.215  10.943
79672W        W52097  26.618  43.019  10.965
79673W        W52098  22.149  37.483   1.791
79674W        W52099  21.683  26.417  14.878
79675W        W52100   1.170  20.120  14.973
79676W        W52101   6.203  41.379   4.602
79677W        W52102   2.700  40.326   4.156
79678W        W52103  15.507  37.417   3.251
79679W        W52104  35.316  22.268  12.508
79680W        W52105  33.393  16.572   2.720
79681W        W52106  12.252  27.034   2.602
79682W        W52107  31.553  44.863  12.857
79683W        W52108  30.445  23.192  10.240
79684W        W52109  37.644  41.460   4.218
79685W        W52110  16.168   1.441  12.826
79686W        W52111  41.647   7.382  14.425
79687W        W52112  41.251  19.794   2.294
79688W        W52113  29.286  17.614   2.289
79689W        W52114  17.626   8.183  11.690
79690W        W52115  13.767  22.791   4.573
79691W        W52116  11.868  28.586   1.396
79692W        W52117  27.558   5.447  10.484
79693W        W52118  23.957  14.733  11.810
79694W        W52119   4.266  27.554   1.703
79695W        W52120  42.949  27.496  11.142
79696W        W52121   8.627  41.021   3.355
79697W        W52122   2.652  26.029  11.234
79698W        W52123   3.878   5.277  10.705
79699W        W52124  19.085  15.355  12.414
79700W        W52125   5.629  36.397  11.951
79701W        W52126  37.731   7.268   2.735
79702W        W52127  42.982   8.023   4.158
79703W        W52128   7.789   4.012  12.424
79704W        W52129  16.005   4.983  11.054
79705W        W52130  24.666  32.557   4.242
79706W        W52131   0.740  17.690  12.546
79707W        W52132  15.854  28.347  11.629
79708W        W52133  30.982  19.381  11.187
79709W        W52134  22.278  16.546   1.107
79710W        W52135  42.587  43.996  14.482
79711W        W52136  16.370  36.549   1.565
79712W        W52137  21.018  35.503  10.361
79713W        W52138  13.700  19.547  13.947
79714W        W52139  24.697  33.940  14.777
79715W        W52140  20.314   1.237   3.284
79716W        W52141  14.123   9.446  12.858
79717W        W52142  37.518  38.094  12.480
79718W        W52143  41.344   2.849  13.515
79719W        W52144  24.571  18.981  10.726
79720W        W52145  40.343  39.745  13.517
79721W        W52146   2.209  43.748  11.127
79722W        W52147  37.149  11.691   0.294
79723W        W52148   9.482  26.591   4.886
79724W        W52149  26.496  12.614   4.653
79725W        W52150  37.563  41.386  10.680
79726W        W52151  21.262  15.627  10.734
79727W        W52152  23.210  39.624  14.228
79728W        W52153  24.778  42.322   0.710
79729W        W52154  44.183  41.790   1.344
79730W        W52155  35.438  39.701  14.637
79731W        W52156  14.967   3.171  11.639
79732W        W52157  13.785   2.514   3.682
79733W        W52158  27.545  16.299  10.685
79734W        W52159  35.982  19.692  12.972
79735W        W52160  37.972   9.649   1.419
79736W        W52161  42.852  37.571   1.316
79737W        W52162   9.879   9.989  13.837
79738W        W52163  24.732  19.516   0.072
79739W        W52164  31.710  21.338  12.072
79740W        W52165  10.406  10.890   2.718
79741W        W52166  24.096   3.506   2.230
79742W        W52167  36.504  19.707   2.302
79743W        W52168  16.062  14.381  11.515
79744W        W52169   1.442  38.811   0.371
79745W        W52170  38.458  23.240   2.155
79746W        W52171   8.176   7.192   3.679
79747W        W52172  31.900   6.674  13.012
79748W        W52173  20.485  29.975  14.010
79749W        W52174  36.526  37.472   4.479
79750W        W52175  17.190  37.259  13.499
79751W        W52176  22.638   3.692   0.814
79752W        W52177  18.947   2.447   0.536
79753W        W52178  18.801   2.684   1.411
79754W        W52179  26.552   8.472  11.405
79755W        W52180   1.236  34.649  14.404
79756W        W52181  27.218   5.000   3.649
79757W        W52182  15.790  13.231  11.743
79758W        W52183  19.619  14.314  14.839
79759W        W52184  39.351   2.441   4.616
79760W        W52185   0.406  30.138  12.027
79761W        W52186  19.562  12.954   4.623
79762W        W52187   7.403  33.877   1.334
79763W        W52188   9.220   9.320  13.910
79764W        W52189   2.460   3.383  13.722
79765W        W52190   4.237  34.554  12.699
79766W        W52191  38.210   5.586   4.573
79767W        W52192  31.618  31.184   1.380
79768W        W52193  14.688   4.955   2.681
79769W        W52194   6.629  18.113  10.492
79770W        W52195  21.002  34.384   0.505
79771W        W52196  20.108  43.900  14.472
79772W        W52197  21.157  10.051   2.359
79773W        W52198  19.578  14.082  13.991
79774W        W52199  19.188  33.625   1.391
79775W        W52200   7.707  38.830  11.485
79776W        W52201  33.168  11.839  12.493
79777W        W52202  22.058  26.408   1.736
79778W        W52203  38.477  40.532  12.368
79779W        W52204   9.174  37.474   2.160
79780W        W52205  12.810  36.954  14.460
79781W        W52206  20.168  18.174   1.253
79782W        W52207   6.679  21.246  11.146
79783W        W52208  22.613  32.313   1.167
79784W        W52209   4.201  11.741  12.055
79785W        W52210  41.497  31.392   2.223
79786W        W52211   8.143  29.405  13.836
79787W        W52212  17.591  39.904  14.423
79788W        W52213  23.671   5.189  14.874
79789W        W52214  34.483  18.134  11.576
79790W        W52215  43.481  24.563  12.853
79791W        W52216   0.388  14.954  13.725
79792W        W52217   1.328  40.373   4.337
79793W        W52218  25.548  28.638  14.943
79794W        W52219  17.822  11.238  13.998
79795W        W52220  43.355  34.520  10.950
79796W        W52221  28.134   4.020  14.082
79797W        W52222  26.524  35.053   2.773
79798W        W52223  23.136  43.782   1.335
79799W        W52224  34.218  29.125   3.178
79800W        W52225   2.929   2.172  13.088
79801W        W52226  10.820  24.258  11.579
79802W        W52227  23.619  31.488   4.240
79803W        W52228   3.611  27.700   3.798
79804W        W52229   8.904  43.729   3.080
79805W        W52230  36.820  17.042  13.807
79806W        W52231  42.146  27.828   4.123
79807W        W52232  21.224  41.295  13.477
79808W        W52233  31.139  15.007   2.939
79809W        W52234  18.320   7.290   4.173
79810W        W52235  32.127  21.685  10.537
79811W        W52236   2.056   8.635   1.226
79812W        W52237  34.620  41.949   4.086
79813W        W52238  32.593  38.776  11.007
79814W        W52239  13.335   7.227  14.702
79815W        W52240  32.568  23.537   1.696
79816W        W52241  15.238  36.991  11.680
79817W        W52242   8.503  30.441  14.610
79818W        W52243  16.916   5.150   2.302
79819W        W52244  13.086  38.585   2.929
79820W        W52245   0.345  13.139   4.650
79821W        W52246  13.589  35.513  11.754
79822W        W52247  38.961  14.337   0.816
79823W        W52248  11.653  14.191   1.716
79824W        W52249  26.017  28.183   0.785
79825W        W52250  21.978   9.431  14.605
79826W        W52251  12.958   7.294   1.187
79827W        W52252  37.886   1.876   4.686
79828W        W52253  12.823  36.497  11.260
79829W        W52254   6.594  20.380  13.906
79830W        W52255  13.161   2.339   1.715
79831W        W52256  12.381  30.497  11.210
79832W        W52257  34.648  11.573   1.761
79833W        W52258  36.062  33.565  11.411
79834W        W52259  23.132   3.364  14.588
79835W        W52260  11.272  11.745  10.683
79836W        W52261  39.829  19.300   0.501
79837W        W52262  38.840  30.093  10.657
79838W        W52263  38.335  42.663   3.128
79839W        W52264   0.755  42.942   3.360
79840W        W52265   5.783  33.029   0.159
79841W        W52266  15.327  17.715  13.508
79842W        W52267   5.438  20.008  12.086
79843W        W52268  24.578  44.358   4.192
79844W        W52269  19.692  13.318   0.015
79845W        W52270  30.587  23.207  11.157
79846W        W52271  19.042  43.095   3.584
79847W        W52272  25.952  43.194  14.826
79848W        W52273  20.978   2.463  12.040
79849W        W52274  30.969   9.616   4.490
79850W        W52275  20.431   3.618   5.063
79851W        W52276  42.034   0.181  12.488
79852W        W52277  33.130  37.107  14.014
79853W        W52278   0.691  18.241   4.424
79854W        W52279  35.773  37.111   2.993
79855W        W52280  39.973  40.976  12.991
79856W        W52281   7.711   6.959   3.868
79857W        W52282  25.495  12.915   2.573
79858W        W52283  37.590   4.890   1.659
79859W        W52284  34.910   7.895  12.691
79860W        W52285   0.782   0.344   0.512
79861W        W52286   8.921  21.868   2.350
79862W        W52287  36.396   8.216  14.832
79863W        W52288  30.052  37.516   0.853
79864W        W52289  15.600  33.256  12.852
79865W        W52290  42.396  17.058  12.175
79866W        W52291  36.364  32.980   3.173
79867W        W52292  40.837  21.773  12.907
79868W        W52293  32.412  31.981   0.998
79869W        W52294  22.691  19.574  12.430
79870W        W52295  26.089   1.416   3.942
79871W        W52296  35.156  29.166   0.887
79872W        W52297  23.153  29.688   2.699
79873W        W52298  21.437  19.090  12.059
79874W        W52299   0.781  13.183  12.276
79875W        W52300  25.735  22.727   4.191
79876W        W52301  35.998   7.274   3.372
79877W        W52302   1.360  22.674   4.284
79878W        W52303  10.908  30.612   4.164
79879W        W52304  11.412  42.209   3.462
79880W        W52305  34.795   9.063   2.579
79881W        W52306   3.988  26.929   1.626
79882W        W52307  12.893   5.502   4.349
79883W        W52308  27.055   1.006   4.615
79884W        W52309  14.545   2.218  14.502
79885W        W52310   5.664  42.358  11.808
79886W        W52311  19.851  14.666  12.626
79887W        W52312  13.560  15.144   4.098
79888W        W52313  18.162  35.363  10.371
79889W        W52314  44.635   3.173  10.185
79890W        W52315  40.452  34.918   2.647
79891W        W52316  12.197  40.842  10.620
79892W        W52317   0.048  31.863  11.053
79893W        W52318  39.563  33.507   1.908
79894W        W52319  33.350  13.501   3.524
79895W        W52320  39.472  27.486   0.317
79896W        W52321  17.998  40.718   0.416
79897W        W52322  40.897  32.360   3.580
79898W        W52323  11.170  33.909  10.901
79899W        W52324   0.916  22.914  13.387
79900W        W52325  22.204  20.751  11.997
79901W        W52326  25.926  30.299   0.815
79902W        W52327   7.301  12.892   0.390
79903W        W52328   5.658  26.231   2.279
79904W        W52329  43.486   1.360  12.460
79905W        W52330  16.035  38.092  13.964
79906W        W52331  43.991  41.225  13.101
79907W        W52332   9.433  28.925   2.431
79908W        W52333   5.470  44.223  14.393
79909W        W52334  15.217  32.143   2.278
79910W        W52335  15.021   3.830  12.239
79911W        W52336  28.102  11.225  14.984
79912W        W52337   8.213  15.346   0.327
79913W        W52338   6.740   6.864   2.733
79914W        W52339  13.733   6.636   0.875
79915W        W52340   0.468  39.516   4.195
79916W        W52341   6.346   6.550  11.131
79917W        W52342   3.486  42.037   3.858
79918W        W52343  27.288   3.325  12.380
79919W        W52344  27.374  28.497   1.671
79920W        W52345  43.091  27.711   1.804
79921W        W52346   0.395  14.637   4.532
79922W        W52347  21.016  41.546   0.416
79923W        W52348  12.527  40.380   2.383
79924W        W52349   9.130  21.339   4.543
79925W        W52350   8.416  20.308   3.284
79926W        W52351  29.498   8.745  14.759
79927W        W52352   1.731  35.657   0.266
79928W        W52353  16.312  32.000  13.924
79929W        W52354  14.606  25.108   0.274
79930W        W52355  16.109  40.084  11.211
79931W        W52356  28.602  12.751  10.625
79932W        W52357  19.683  40.802  14.639
79933W        W52358  12.706  11.595   4.639
79934W        W52359  44.846  37.243  14.355
79935W        W52360   8.806  10.445  10.948
79936W        W52361  44.204  19.781   2.787
79937W        W52362   5.145  11.187   0.413
79938W        W52363  13.865  30.494   3.777
79939W        W52364  13.660  19.778  11.514
79940W        W52365  38.954  32.979  14.731
79941W        W52366   1.760  18.894  10.752
79942W        W52367  37.955  34.489  10.886
79943W        W52368   5.724  33.051   1.645
79944W        W52369  15.689  22.978  14.882
79945W        W52370  18.149  20.929  11.576
79946W        W52371  26.751  15.813  12.099
79947W        W52372  32.605  40.770   1.901
79948W        W52373   1.376  17.866   3.089
79949W        W52374   3.823  27.722   1.935
79950W        W52375  44.289  35.149  13.974
79951W        W52376  14.277  37.903   1.850
79952W        W52377  23.635  20.532   0.729
79953W        W52378  16.216  17.071   1.685
79954W        W52379  14.755  21.651   0.785
79955W        W52380  25.532  23.899   1.385
79956W        W52381   4.949  11.723  14.305
79957W        W52382  10.209  12.290  10.275
79958W        W52383   3.852   8.130   2.777
79959W        W52384  14.148  37.290   3.789
79960W        W52385  25.645  42.058   1.410
79961W        W52386  17.242  16.744  12.953
79962W        W52387   5.965  29.527   2.765
79963W        W52388  44.743  38.532   3.359
79964W        W52389  39.442  23.713   2.937
79965W        W52390   8.849  36.908  14.075
79966W        W52391   0.349   2.739   0.226
79967W        W52392  19.458  10.960  13.493
79968W        W52393  40.446  33.455  12.112
79969W        W52394  18.938  16.402  11.572
79970W        W52395  39.835   5.924   2.331
79971W        W52396  26.087  40.442  13.049
79972W        W52397  16.782  28.181  12.600
79973W        W52398  26.040  17.040  14.039
79974W        W52399  37.006   2.280   1.156
79975W        W52400   5.348   4.704   4.006
79976W        W52401  12.925   2.299  11.512
79977W        W52402  42.889  33.461  12.495
79978W        W52403   1.747  24.485  11.038
79979W        W52404   6.133  42.033   1.793
79980W        W52405  20.709  16.704  13.402
79981W        W52406  15.280   4.143   2.667
79982W        W52407  15.244  12.822   3.915
79983W        W52408  30.224  31.217   4.939
79984W        W52409   7.727  19.594   1.821
79985W        W52410  13.357  19.656  12.179
79986W        W52411  21.892  21.673  12.917
79987W        W52412  27.421   2.000  13.755
79988W        W52413   2.934  19.869  11.817
79989W        W52414  28.524  33.608  14.941
79990W        W52415  42.702  32.854  14.445
79991W        W52416  27.119  28.447   0.281
79992W        W52417   9.742   3.843  11.398
79993W        W52418  19.995   4.026  13.459
79994W        W52419  34.538  13.265  12.564
79995W        W52420  42.526  12.710   3.743
79996W        W52421  31.980  17.608   0.423
79997W        W52422  32.141   4.331  12.311
79998W        W52423   2.947  33.438   4.242
79999W        W52424  37.861   6.655  14.762
80000W        W52425  13.606  44.456  10.474
80001W        W52426  39.071  17.841   2.696
80002W        W52427  43.990   3.219   1.809
80003W        W52428  32.363  33.056   2.721
80004W        W52429  17.258  27.860   4.389
80005W        W52430  16.737  28.588  14.450
80006W        W52431  23.867   4.116   4.563
80007W        W52432  13.313   4.398   1.279
80008W        W52433   6.326   1.118   2.435
80009W        W52434  11.432  31.322  10.728
80010W        W52435   6.665  22.594   1.642
80011W        W52436  23.954  35.899  13.824
80012W        W52437  10.060  13.284  10.180
80013W        W52438   9.818  18.276  12.984
80014W        W52439  30.139  35.501   0.021
80015W        W52440   8.905   4.314   3.173
80016W        W52441  41.512  27.043  12.896
80017W        W52442  10.965  17.747   1.322
80018W        W52443  22.165  11.663  14.995
80019W        W52444  28.987  22.669   1.648
80020W        W52445  44.501   4.183  11.040
80021W        W52446  44.265  32.584  11.071
80022W        W52447  25.172  25.932   4.440
80023W        W52448  19.849  38.243   0.735
80024W        W52449  27.622  29.177  14.331
80025W        W52450  30.636  40.955   5.153
80026W        W52451   2.758   1.578   4.185
80027W        W52452  28.472  32.486   4.139
80028W        W52453  16.334  28.415  11.398
80029W        W52454  30.129  23.027  13.822
80030W        W52455   4.712  15.367   3.315
80031W        W52456   9.389   4.926   0.766
80032W        W52457  12.905  39.755   1.677
80033W        W52458  34.847   2.815  13.987
80034W        W52459  31.178   5.805   0.337
80035W        W52460   3.753  17.113  12.067
80036W        W52461  27.651   2.710  10.791
80037W        W52462  19.334   3.293   4.472
80038W        W52463   8.160  32.336   3.720
80039W        W52464  27.313  42.036  12.377
80040W        W52465  23.555  16.531  14.045
80041W        W52466  22.069  37.458  11.855
80042W        W52467  25.982  39.999   4.081
80043W        W52468   6.969  14.239  12.614
80044W        W52469   7.344  26.546  14.477
80045W        W52470  43.380  33.596  13.739
80046W        W52471  24.252  43.502   2.951
80047W        W52472  20.684  37.523  11.614
80048W        W52473   3.431  14.590  13.901
80049W        W52474  34.852  23.336  11.871
80050W        W52475  37.231  35.328  14.580
80051W        W52476  40.604  23.154   2.707
80052W        W52477   8.748  23.762  10.908
80053W        W52478  39.090  43.170  14.786
80054W        W52479  16.727  19.949   2.359
80055W        W52480  26.996  43.445  12.108
80056W        W52481  32.113  34.355   0.115
80057W        W52482  14.054  17.683  11.731
80058W        W52483   5.933   7.281   3.093
80059W        W52484  21.396  43.850   3.990
80060W        W52485  26.544  41.099   3.762
80061W        W52486   4.745   1.937  14.843
80062W        W52487  41.502   6.379   1.662
80063W        W52488  43.865  26.203  11.821
80064W        W52489  32.017   8.299   3.887
80065W        W52490  33.217  10.724   2.627
80066W        W52491  18.679  40.794   3.704
80067W        W52492   6.455  13.935   0.256
80068W        W52493  27.164  10.733  14.033
80069W        W52494  24.898  15.286   3.673
80070W        W52495  26.313  21.645  12.647
80071W        W52496   2.149  10.534   2.671
80072W        W52497   4.054  17.191  11.626
80073W        W52498  38.095  35.937  10.681
80074W        W52499   9.630  27.474  14.376
80075W        W52500  39.788  17.786  14.249
80076W        W52501  29.625   3.747  13.322
80077W        W52502  15.385   4.824   4.648
80078W        W52503  39.275   2.118   3.222
80079W        W52504  40.542  10.676   2.826
80080W        W52505  43.264  33.560   2.719
80081W        W52506  43.304  21.730   3.242
80082W        W52507  42.502  19.505   3.128
80083W        W52508  30.193  15.208   3.230
80084W        W52509   5.455  32.448  11.956
80085W        W52510  19.222  12.995  12.091
80086W        W52511  32.840   9.480  13.878
80087W        W52512  40.600  13.759   1.352
80088W        W52513   8.610   4.282  12.430
80089W        W52514  32.145  30.092   4.637
80090W        W52515  14.089  42.888   0.162
80091W        W52516   7.041  36.568  11.370
80092W        W52517  13.165  13.781  11.123
80093W        W52518  16.254  31.663   5.046
80094W        W52519  27.588  29.344   0.935
80095W        W52520  10.632  17.673  11.509
80096W        W52521   5.260  27.065  12.626
80097W        W52522  26.864  40.110  13.359
80098W        W52523  31.867  12.868   0.918
80099W        W52524  30.392   8.443  13.531
80100W        W52525  24.549   1.235   0.319
80101W        W52526  22.641  28.178  12.097
80102W        W52527  42.438  24.138  11.153
80103W        W52528  30.778  38.104  12.995
80104W        W52529  13.261  35.693  10.519
80105W        W52530  42.949   3.381  12.930
80106W        W52531  28.896  39.243  13.952
80107W        W52532  35.807  14.816   4.239
80108W        W52533  43.900   9.455   1.279
80109W        W52534  12.370  17.230  13.832
80110W        W52535  39.821  15.140  12.911
80111W        W52536  44.355  37.787  11.171
80112W        W52537   0.567  23.198   4.873
80113W        W52538  36.336  27.684  13.656
80114W        W52539   0.567  14.410  12.967
80115W        W52540  28.334   5.276   1.751
80116W        W52541  34.986   5.908  14.969
80117W        W52542  23.588  43.584   4.043
80118W        W52543  26.100  11.918   2.825
80119W        W52544  27.424  21.039   0.333
80120W        W52545  44.849   3.539  11.470
80121W        W52546  44.429  31.149   1.684
80122W        W52547  31.536  15.639   3.380
80123W        W52548  34.820  17.205  14.916
80124W        W52549  11.164  31.656   4.674
80125W        W52550  40.778  28.520  10.770
80126W        W52551  43.372  30.196   1.682
80127W        W52552  32.121  24.193   4.374
80128W        W52553  19.772  14.147  13.491
80129W        W52554  27.644  13.609  12.112
80130W        W52555  21.623  18.198   4.080
80131W        W52556   0.318  37.083   2.287
80132W        W52557  42.736  44.980  14.386
80133W        W52558  27.717  20.548   2.845
80134W        W52559  31.939  38.291  13.886
80135W        W52560  40.831  34.033  10.549
80136W        W52561  21.690  35.083  13.029
80137W        W52562  10.705  34.850  12.009
80138W        W52563  33.124  35.450  10.712
80139W        W52564  31.378  21.755   0.863
80140W        W52565  44.402  42.354   3.159
80141W        W52566  36.947   1.585  12.406
80142W        W52567  32.016   8.345   0.347
80143W        W52568   9.736   9.131   1.789
80144W        W52569   0.079  38.379  10.734
80145W        W52570  28.160  36.653   3.410
80146W        W52571  14.638  24.483   1.493
80147W        W52572  33.032  17.624  11.211
80148W        W52573  18.288  19.064  11.141
80149W        W52574  27.911  31.099   3.637
80150W        W52575  18.363  41.941  14.877
80151W        W52576  42.762  38.008   2.630
80152W        W52577   3.789  35.132  11.232
80153W        W52578  27.559  22.842   2.300
80154W        W52579  10.369   1.303  10.665
80155W        W52580  14.184  15.006   1.916
80156W        W52581   4.518  14.907  13.971
80157W        W52582  10.600  32.603  11.389
80158W        W52583  11.509   3.926   0.834
80159W        W52584   4.313  17.623  14.366
80160W        W52585  40.039  44.726   2.826
80161W        W52586  14.583   1.359   5.038
80162W        W52587   3.883  11.921  14.858
80163W        W52588  22.580  42.502   1.252
80164W        W52589  40.970  21.828   0.364
80165W        W52590  31.077   2.301  14.762
80166W        W52591  11.409  24.442   0.702
80167W        W52592  19.956   5.925   0.812
80168W        W52593   7.205  32.900   2.401
80169W        W52594   4.792  24.507   3.295
80170W        W52595  29.165   8.511   3.788
80171W        W52596  42.396  13.359   1.028
80172W        W52597  31.144  27.166  10.654
80173W        W52598  20.293  14.555  14.310
80174W        W52599   5.501  30.186   3.660
80175W        W52600  41.071  44.465   0.068
80176W        W52601  14.363  12.613  12.447
80177W        W52602  42.114  39.496  12.888
80178W        W52603   7.163  18.351  12.996
80179W        W52604  37.634  25.585   0.272
80180W        W52605  19.562  25.123  13.983
80181W        W52606  25.576  42.812   0.654
80182W        W52607  32.606  19.007  14.589
80183W        W52608  27.668  27.571  10.847
80184W        W52609  28.706  16.825  12.514
80185W        W52610  29.759  38.345  11.525
80186W        W52611  44.202  15.050  12.945
80187W        W52612  24.543  11.876   2.161
80188W        W52613  40.237  26.140  11.174
80189W        W52614  42.765   5.774  14.416
80190W        W52615  33.295  30.028   0.843
80191W        W52616  30.641  35.742   3.273
80192W        W52617  44.321  16.291  12.453
80193W        W52618  28.557  37.174  14.869
80194W        W52619  21.102  29.631   0.230
80195W        W52620   4.939  33.880   2.160
80196W        W52621  27.360   3.671   0.087
80197W        W52622   5.632  32.945  14.298
80198W        W52623  39.062   9.218  11.889
80199W        W52624  37.331   8.274  11.616
80200W        W52625  10.614  18.971   0.082
80201W        W52626  22.021  30.116  10.671
80202W        W52627  11.075   2.940  12.001
80203W        W52628  17.645  33.821  12.725
80204W        W52629  43.554  42.382   1.372
80205W        W52630   0.536  14.780   3.555
80206W        W52631  30.690  17.538   2.392
80207W        W52632   5.922  13.263   2.450
80208W        W52633  13.032  40.499  13.904
80209W        W52634  37.170  16.722   3.677
80210W        W52635  10.860  36.588  10.607
80211W        W52636   0.664  37.305  14.944
80212W        W52637  17.224  26.708   1.733
80213W        W52638   5.597  41.336   1.286
80214W        W52639  15.496  35.362   5.036
80215W        W52640  37.305  30.551   1.955
80216W        W52641  22.749  25.245  14.485
80217W        W52642  44.367   5.326   0.300
80218W        W52643  27.658  36.463   1.513
80219W        W52644  20.643  41.107   4.416
80220W        W52645   5.953  10.780   3.211
80221W        W52646  29.149  35.736  14.265
80222W        W52647  37.235   4.966  10.955
80223W        W52648  44.147  31.306   3.902
80224W        W52649  40.879  13.005  14.582
80225W        W52650  20.581  29.612  10.694
80226W        W52651  27.523  31.490  11.572
80227W        W52652  22.707  36.813   0.304
80228W        W52653   0.756  31.026  10.212
80229W        W52654  33.461  24.260  10.425
80230W        W52655  39.482   0.509   3.142
80231W        W52656   0.248  18.255   1.243
80232W        W52657   8.272   2.707  13.696
80233W        W52658  17.066   6.671   1.344
80234W        W52659  37.432  20.767   2.861
80235W        W52660  39.682  34.970   1.353
80236W        W52661  13.331  17.541  11.474
80237W        W52662  17.760  36.008  11.352
80238W        W52663  10.551  41.427  12.049
80239W        W52664   6.011  43.850   2.742
80240W        W52665  14.075   7.360   3.266
80241W        W52666  22.447  13.433   1.627
80242W        W52667  32.468  25.934  14.005
80243W        W52668   2.757  26.107  13.071
80244W        W52669   1.821  29.001  10.415
80245W        W52670  37.984  24.033   1.406
80246W        W52671  31.170   7.264   3.391
80247W        W52672  20.974  31.956   0.816
80248W        W52673  42.565  11.940   5.012
80249W        W52674  40.307  14.125  13.490
80250W        W52675  21.754  10.790   4.589
80251W        W52676  23.767  24.250  11.643
80252W        W52677  41.733  31.913   2.694
80253W        W52678   1.893  28.242  13.908
80254W        W52679  34.975   8.161  10.400
80255W        W52680  14.264   9.376   0.683
80256W        W52681  27.578  38.537   1.247
80257W        W52682  10.378  39.395  11.980
80258W        W52683  41.258  16.119   1.177
80259W        W52684  18.594  26.576  11.063
80260W        W52685   7.111  16.084   0.714
80261W        W52686  21.739  34.087   4.615
80262W        W52687  25.616   4.501  13.564
80263W        W52688  29.242   4.956  12.581
80264W        W52689  32.151  21.645   3.755
80265W        W52690  17.039  30.678  14.005
80266W        W52691  41.168  35.961  11.602
80267W        W52692  33.446  36.003   0.600
80268W        W52693  12.080  22.422  11.230
80269W        W52694  25.761   9.192   1.772
80270W        W52695  25.080  44.278   4.155
80271W        W52696  20.135  27.808  12.907
80272W        W52697   4.777   1.914  13.899
80273W        W52698   8.918  40.300   2.319
80274W        W52699   9.438  28.253  13.521
80275W        W52700  19.856  23.545   0.438
80276W        W52701  42.779  11.102   2.854
80277W        W52702  14.049  17.736   3.673
80278W        W52703  22.209  38.511   3.126
80279W        W52704  25.535  19.048   0.196
80280W        W52705  16.578  36.981   1.761
80281W        W52706   5.139  44.324  10.241
80282W        W52707  18.795  13.084   2.176
80283W        W52708  27.773  17.231  12.643
80284W        W52709   1.834  25.047  13.898
80285W        W52710  41.661  20.591   4.656
80286W        W52711  32.488  36.650   4.481
80287W        W52712  44.233  40.896  12.793
80288W        W52713  39.715   0.394  11.188
80289W        W52714  27.492  31.810   2.482
80290W        W52715   0.303  42.742  14.803
80291W        W52716  31.376  11.157  14.393
80292W        W52717  15.592   6.744  13.502
80293W        W52718  17.471  13.422   0.974
80294W        W52719   1.168  37.574   0.850
80295W        W52720  12.774   5.238  11.965
80296W        W52721   1.898  32.042  12.581
80297W        W52722  31.268  21.249   2.990
80298W        W52723  21.092  23.015  11.576
80299W        W52724  42.068  19.049   1.467
80300W        W52725  29.174  17.672   0.025
80301W        W52726   0.977  14.316  11.648
80302W        W52727  24.713   9.083   1.732
80303W        W52728  28.016  38.089  14.743
80304W        W52729  12.504  30.716  10.444
80305W        W52730  21.708   9.733   0.833
80306W        W52731  39.750  30.395   4.543
80307W        W52732  18.657  33.566  13.963
80308W        W52733  34.125  28.690   2.292
80309W        W52734  43.807  33.481   1.596
80310W        W52735  35.192   8.768   5.037
80311W        W52736  11.338  22.133  12.491
80312W        W52737   4.866  12.392  14.906
80313W        W52738   5.746  14.810   4.270
80314W        W52739  29.901  22.939   1.317
80315W        W52740  19.233   0.326  13.464
80316W        W52741  12.822  21.989   4.256
80317W        W52742  35.024  22.442   4.049
80318W        W52743   0.217  28.992  11.906
80319W        W52744   6.837  34.367  12.595
80320W        W52745  40.898  43.508  12.044
80321W        W52746  44.982  17.106   0.375
80322W        W52747  31.938  17.937   1.924
80323W        W52748   9.282  19.438  13.332
80324W        W52749   7.294  15.141   0.745
80325W        W52750  22.561   1.879  14.868
80326W        W52751  30.083  22.120   2.391
80327W        W52752   1.506   4.184   2.781
80328W        W52753  19.959  29.517   2.320
80329W        W52754  28.429  38.837   3.749
80330W        W52755  42.862  16.546  10.485
80331W        W52756  24.537  13.791   4.582
80332W        W52757  22.533  25.338  11.519
80333W        W52758  20.728  25.094   2.321
80334W        W52759  42.357  21.683   4.122
80335W        W52760  30.985  18.607  11.525
80336W        W52761   1.539   1.935   1.392
80337W        W52762  21.257   8.772  13.781
80338W        W52763  43.877  40.340  14.782
80339W        W52764   3.783  37.236  13.318
80340W        W52765  17.753  14.899  12.903
80341W        W52766  22.630  24.236  13.352
80342W        W52767  20.637  38.152   1.058
80343W        W52768   0.733  38.397  11.101
80344W        W52769  42.550  29.229  11.163
80345W        W52770  26.229   8.354  12.410
80346W        W52771   5.367  10.809  12.825
80347W        W52772  17.832  34.828   2.891
80348W        W52773  15.846  35.982  10.640
80349W        W52774  22.869   8.957   3.745
80350W        W52775  39.537  18.587  13.771
80351W        W52776  26.220   0.491  10.354
80352W        W52777  31.605  36.477   4.547
80353W        W52778  36.837  40.403  13.077
80354W        W52779  25.860  27.948  11.029
80355W        W52780   4.821  20.191  14.552
80356W        W52781  22.400  40.525   4.165
80357W        W52782   3.938  23.477   1.464
80358W        W52783  24.444  21.782  11.685
80359W        W52784  23.719  41.924  10.742
80360W        W52785   7.725  37.437  13.774
80361W        W52786   2.356   2.819   0.342
80362W        W52787   8.844  44.711  14.314
80363W        W52788  30.839   3.005  13.848
80364W        W52789  23.327  10.146   5.118
80365W        W52790  25.084  33.585  11.127
80366W        W52791  10.967  10.327   3.272
80367W        W52792  37.018  26.627   1.764
80368W        W52793  41.838  22.638  12.490
80369W        W52794  38.780  19.873  13.414
80370W        W52795  30.550   6.507   3.776
80371W        W52796   3.770  29.855   1.991
80372W        W52797  26.002   6.407   1.038
80373W        W52798  11.127   6.437  10.749
80374W        W52799  15.622  16.636  12.630
80375W        W52800  31.475  18.314   0.378
80376W        W52801  13.938  42.077   2.964
80377W        W52802  11.654  21.710  12.452
80378W        W52803   7.648   8.386   1.432
80379W        W52804  39.716  10.047   3.600
80380W        W52805   7.833   3.111   0.705
80381W        W52806  30.626   5.464   3.538
80382W        W52807   5.604  31.358   2.748
80383W        W52808  21.133  15.370  13.893
80384W        W52809  41.883  40.505  14.016
80385W        W52810  19.131  20.814  12.565
80386W        W52811   0.718  35.352  12.594
80387W        W52812  25.758  12.278   2.660
80388W        W52813  38.746   4.661  14.395
80389W        W52814  29.001  30.896  14.861
80390W        W52815   3.457   3.290   0.715
80391W        W52816  25.412  19.961  11.128
80392W        W52817  39.938  41.216   2.241
80393W        W52818  24.038   0.261  13.572
80394W        W52819   7.629  44.947   4.807
80395W        W52820  18.574   6.481  11.075
80396W        W52821   6.457   0.388  12.844
80397W        W52822  38.334  43.910  13.027
80398W        W52823  26.344   9.913   1.392
80399W        W52824  44.525  17.184  14.066
80400W        W52825  27.030  31.821  12.123
80401W        W52826  23.495  26.111  13.565
80402W        W52827   7.637  13.298   0.385
80403W        W52828  43.439   3.301   2.726
80404W        W52829  12.874  43.819  14.549
80405W        W52830  29.708  37.859  14.902
80406W        W52831  23.067  31.977  13.333
80407W        W52832  42.427  23.184   1.566
80408W        W52833  14.318  11.252   2.450
80409W        W52834   0.241  22.123   2.858
80410W        W52835  23.625  43.023  14.842
80411W        W52836   9.097   6.199   2.603
80412W        W52837   2.375  28.459  13.548
80413W        W52838  31.457  37.364   0.045
80414W        W52839  13.121   4.460  11.917
80415W        W52840  27.076  12.326   0.398
80416W        W52841  40.456  14.119  13.997
80417W        W52842  23.607  30.505   1.534
80418W        W52843  38.451  43.555   1.907
80419W        W52844  44.628  20.304  11.574
80420W        W52845  24.483  40.760  12.098
80421W        W52846  14.181  28.871   2.375
80422W        W52847  40.865  29.186   3.390
80423W        W52848  10.180  10.769  11.104
80424W        W52849   6.896   8.129   2.413
80425W        W52850  41.365   8.737   2.222
80426W        W52851  21.841  21.663  14.720
80427W        W52852  42.154  28.545  13.080
80428W        W52853   6.366   1.624  14.522
80429W        W52854  29.614  25.667  12.844
80430W        W52855   5.802  13.295   2.961
80431W        W52856  16.602  41.964   1.910
80432W        W52857  39.630  13.092   1.595
80433W        W52858  31.174   8.028  14.840
80434W        W52859  22.572  30.789  12.966
80435W        W52860  22.295  38.986  14.905
80436W        W52861  25.693   2.543  10.717
80437W        W52862  15.189  21.383   4.069
80438W        W52863  15.586  25.560  10.140
80439W        W52864  31.092   5.540  13.560
80440W        W52865  40.605  44.377  13.795
80441W        W52866   5.342   9.677  14.461
80442W        W52867  43.412  29.261  10.508
80443W        W52868  21.498  26.395   4.440
80444W        W52869  32.563  44.282  12.931
80445W        W52870  43.284   4.649  10.751
80446W        W52871  22.576  38.149   0.545
80447W        W52872   6.836  36.840   2.139
80448W        W52873  15.134  30.977  10.701
80449W        W52874  38.199  30.832   2.784
80450W        W52875  39.378   0.404   4.536
80451W        W52876  14.977  44.202   2.351
80452W        W52877  31.891  21.211   2.984
80453W        W52878  26.451   4.907   1.825
80454W        W52879  16.644  19.764   4.913
80455W        W52880   7.875  30.925   4.287
80456W        W52881  27.044   5.500   3.573
80457W        W52882  32.915   1.981  11.602
80458W        W52883  27.541  39.217   0.524
80459W        W52884   4.402  39.504   3.193
80460W        W52885  38.596  13.224  11.747
80461W        W52886   0.502  32.454   0.964
80462W        W52887   7.869  42.027  13.540
80463W        W52888  24.495  13.722  12.479
80464W        W52889  17.658   7.671  11.013
80465W        W52890  26.748  16.636  11.643
80466W        W52891  40.351  30.698   2.753
80467W        W52892   6.802  21.665   2.470
80468W        W52893  44.335  21.818   3.545
80469W        W52894  14.268  34.384   1.222
80470W        W52895  43.781  42.072  11.160
80471W        W52896   0.801  23.430   4.106
80472W        W52897   5.261   9.229  13.092
80473W        W52898  36.314  42.408  11.017
80474W        W52899  15.424  34.860  13.012
80475W        W52900   7.784  39.669   1.112
80476W        W52901  15.115   6.856  11.164
80477W        W52902  38.757   5.960   1.987
80478W        W52903  36.274  12.773  12.914
80479W        W52904  14.677  16.263  10.657
80480W        W52905   9.379  40.607   3.600
80481W        W52906  34.786  18.012   3.654
80482W        W52907  13.201  43.607   2.740
80483W        W52908  17.342  18.336   0.031
80484W        W52909   5.380  28.173  13.716
80485W        W52910  10.840  13.835   2.515
80486W        W52911   6.693  18.152  14.222
80487W        W52912   5.900  43.570   4.289
80488W        W52913  37.916  39.578   0.778
80489W        W52914   6.866  32.689   2.725
80490W        W52915  35.473  13.966  14.825
80491W        W52916  35.642  17.787   0.393
80492W        W52917  16.177  40.627   0.444
80493W        W52918   4.459  34.126   3.214
80494W        W52919  15.252  27.514  11.685
80495W        W52920  39.307   2.206  12.058
80496W        W52921  10.080  16.691  12.556
80497W        W52922   5.301  38.273   0.366
80498W        W52923  12.488  38.037   2.333
80499W        W52924  12.056  36.956  10.750
80500W        W52925  43.323  22.321  14.321
80501W        W52926  39.778  39.409  14.366
80502W        W52927  18.287  28.749   4.483
80503W        W52928  32.730   1.141   0.840
80504W        W52929  12.386  18.068   1.425
80505W        W52930  23.599  28.579   4.623
80506W        W52931  27.067  36.022  13.992
80507W        W52932  41.885  22.760   1.492
80508W        W52933  28.811  27.715   1.248
80509W        W52934  34.052  13.114   1.362
80510W        W52935  11.122  12.741  13.381
80511W        W52936  31.350  33.953   1.705
80512W        W52937  34.351  35.189  13.914
80513W        W52938  37.050  28.407  14.940
80514W        W52939   1.482   5.142  14.999
80515W        W52940  31.989   2.725  11.533
80516W        W52941  40.396  21.355  10.667
80517W        W52942  17.885  13.631   1.876
80518W        W52943  11.837   4.166  13.017
80519W        W52944  27.008  35.405  12.041
80520W        W52945  26.740   4.221  11.893
80521W        W52946  30.114  10.084  14.886
80522W        W52947  33.247  33.338   0.931
80523W        W52948  41.800  17.782  13.104
80524W        W52949  42.540   1.672   1.339
80525W        W52950  33.346  12.113   2.725
80526W        W52951  24.695  43.511   3.208
80527W        W52952   7.006  36.079  11.213
80528W        W52953  10.666  39.863  13.556
80529W        W52954  41.910  35.745   1.323
80530W        W52955  15.378  13.697   1.835
80531W        W52956  30.464  27.000  14.288
80532W        W52957  26.941  16.778  10.895
80533W        W52958  35.303  37.861  11.335
80534W        W52959  39.466  19.089  13.076
80535W        W52960  38.109   3.689   3.075
80536W        W52961  25.575  38.827   2.955
80537W        W52962  37.952  19.542  12.602
80538W        W52963   6.180  39.858   0.260
80539W        W52964  24.008  11.862  10.218
80540W        W52965  32.447  15.493   0.259
80541W        W52966  29.778  34.963  12.353
80542W        W52967  16.198  12.243   0.377
80543W        W52968  14.801  42.849  13.986
80544W        W52969  27.721   0.969   0.220
80545W        W52970   6.137  27.398   0.479
80546W        W52971  35.282   9.139   2.770
80547W        W52972   3.962  23.288  12.828
80548W        W52973   3.975  16.270   0.376
80549W        W52974   4.327  31.172   4.590
80550W        W52975   9.244  39.222  13.206
80551W        W52976   8.349   4.835  12.315
80552W        W52977   0.085  35.066  14.947
80553W        W52978   4.709  12.962   4.835
80554W        W52979  30.153  39.972  11.036
80555W        W52980   3.811  18.571   1.953
80556W        W52981  30.881  25.009   1.447
80557W        W52982  17.392  35.001   0.407
80558W        W52983  38.447   6.872   2.416
80559W        W52984  32.236   6.646   0.424
80560W        W52985  11.461   4.234  11.485
80561W        W52986  12.102  24.385   5.512
80562W        W52987  17.012  43.412  14.364
80563W        W52988  29.449  12.535  11.189
80564W        W52989  39.236  32.569  14.863
80565W        W52990  29.477  10.223   4.161
80566W        W52991  39.067  26.433   1.859
80567W        W52992  41.917  44.313  12.111
80568W        W52993  19.038  22.681  12.149
80569W        W52994   0.518   9.250   4.552
80570W        W52995  11.341  36.912   1.745
80571W        W52996  10.601  22.976   2.784
80572W        W52997  28.976  13.299   3.276
80573W        W52998  39.903  13.645   1.674
80574W        W52999  28.341  33.850  11.264
80575W        W53000  15.084  37.865  14.413
80576W        W53001  29.731  31.905  11.539
80577W        W53002  32.446  14.451   2.938
80578W        W53003   1.316   3.676  10.726
80579W        W53004  20.533  32.393  12.651
80580W        W53005   1.214  19.566   4.548
80581W        W53006  28.569  28.741  10.624
80582W        W53007  23.935  42.997   3.413
80583W        W53008   6.784  38.929   1.955
80584W        W53009  14.081   1.046  13.781
80585W        W53010  28.395  37.411   0.857
80586W        W53011  32.068  22.133  11.679
80587W        W53012  19.185  10.407   4.616
80588W        W53013  31.937  44.869   1.892
80589W        W53014  15.172  10.062   3.193
80590W        W53015   4.340  22.666  14.464
80591W        W53016  23.595  30.150  12.993
80592W        W53017  32.731  42.347   4.525
80593W        W53018  38.939  26.956  10.544
80594W        W53019  29.281  39.246  14.788
80595W        W53020  36.380  12.062   0.444
80596W        W53021  12.315  34.834  12.119
80597W        W53022  33.143  23.791   0.326
80598W        W53023   2.323  30.493   3.263
80599W        W53024  21.287   1.646  13.152
80600W        W53025  42.806  31.594   4.949
80601W        W53026  25.533  32.669   0.900
80602W        W53027  34.858  42.461  13.893
80603W        W53028  12.638  29.420  11.166
80604W        W53029  35.343  35.959  12.428
80605W        W53030  25.946   3.311   3.817
80606W        W53031  42.238  43.322   3.651
80607W        W53032  40.393  25.724  13.830
80608W        W53033  38.852   1.660  14.045
80609W        W53034  22.083  32.507  13.831
80610W        W53035  28.001  12.133  14.582
80611W        W53036   9.622  21.591  11.121
80612W        W53037  41.606   3.202  12.534
80613W        W53038  41.748  15.683   0.281
80614W        W53039  25.621  18.479  12.568
80615W        W53040   0.927  41.910   0.535
80616W        W53041  35.714  14.715   1.669
80617W        W53042  44.058  33.835   0.835
80618W        W53043  17.989   3.375   0.294
80619W        W53044  22.152  27.768  14.491
80620W        W53045  42.023   2.083  14.329
80621W        W53046  23.454   3.395   5.148
80622W        W53047  35.082  22.447   3.518
80623W        W53048  36.794  10.138   2.563
80624W        W53049  38.463  14.134  11.208
80625W        W53050  18.501  40.274  14.186
80626W        W53051  20.558  12.270   2.320
80627W        W53052  11.260   2.336   5.416
80628W        W53053  37.034   8.246  11.099
80629W        W53054  29.713  34.185  12.469
80630W        W53055   6.189  14.287  13.024
80631W        W53056  44.346  30.012   1.300
80632W        W53057  25.709  11.706  12.495
80633W        W53058   5.465  38.899  10.756
80634W        W53059   2.758  28.593   3.109
80635W        W53060  11.301  17.952  14.738
80636W        W53061   4.457  13.359   2.708
80637W        W53062  37.828  34.170  12.541
80638W        W53063  36.315   8.361  11.629
80639W        W53064  43.263  24.181  14.507
80640W        W53065  20.130  11.318  10.531
80641W        W53066  16.578  29.914   1.377
80642W        W53067  36.139  29.983  11.322
80643W        W53068   7.000  25.192   1.426
80644W        W53069  26.909  24.175   3.659
80645W        W53070  29.160   4.613  13.451
80646W        W53071  29.825  39.391   0.319
80647W        W53072  17.264  33.012   1.820
80648W        W53073   8.119   1.215   4.604
80649W        W53074   7.694  18.501   0.065
80650W        W53075  43.747  19.287   4.019
80651W        W53076   7.375  19.109   3.560
80652W        W53077   3.560  10.968  10.776
80653W        W53078  36.422  27.374  12.008
80654W        W53079   2.796  23.429  14.752
80655W        W53080  32.073   1.012  10.574
80656W        W53081  31.641  22.474   9.741
80657W        W53082  11.529  22.570  10.147
80658W        W53083  19.347   5.053   0.875
80659W        W53084  20.944   6.391  11.187
80660W        W53085  37.237   6.243  11.913
80661W        W53086   1.773  18.205  13.387
80662W        W53087  42.538  16.541   4.638
80663W        W53088  44.368  43.422  14.270
80664W        W53089  43.817  11.717  13.008
80665W        W53090  30.904  22.032   4.389
80666W        W53091   7.463   2.757   0.902
80667W        W53092  17.253  26.569  12.074
80668W        W53093  18.616   8.273   1.475
80669W        W53094  16.799  24.571   3.832
80670W        W53095  44.998  31.896  12.586
80671W        W53096  24.312  20.176   1.841
80672W        W53097  25.239   8.597   0.138
80673W        W53098  19.330  35.457  14.036
80674W        W53099  43.960  37.315   0.926
80675W        W53100  23.579  27.849   0.715
80676W        W53101  40.771  31.991   5.076
80677W        W53102  27.490  31.861  14.040
80678W        W53103  23.290  30.297   4.058
80679W        W53104  18.660  18.221   5.088
80680W        W53105   8.061  44.533  13.815
80681W        W53106  36.372  18.900  13.004
80682W        W53107  38.073  29.059   4.719
80683W        W53108   0.019  37.903  14.830
80684W        W53109  15.821  20.614   2.208
80685W        W53110  10.850  12.307  11.153
80686W        W53111   8.079  27.944   3.680
80687W        W53112  39.269  42.307  12.985
80688W        W53113  22.093  31.418   1.183
80689W        W53114  12.060  35.265  12.054
80690W        W53115   3.932  42.067   2.300
80691W        W53116   0.279   8.534  11.634
80692W        W53117  18.728  36.064  11.923
80693W        W53118  17.957  28.861   2.823
80694W        W53119  29.439  26.809   0.319
80695W        W53120  41.230  14.122   0.001
80696W        W53121  22.202  10.702   0.410
80697W        W53122   7.142  39.490  14.249
80698W        W53123  26.949  24.123   0.996
80699W        W53124   3.210  36.045   1.348
80700W        W53125   6.323  16.021  14.755
80701W        W53126  10.244  23.246   5.150
80702W        W53127  34.322  39.878  10.708
80703W        W53128  19.117  29.083  10.705
80704W        W53129  13.125  33.374   2.397
80705W        W53130  16.253  22.109   2.610
80706W        W53131  34.811   7.813  13.925
80707W        W53132  15.968   8.580  11.488
80708W        W53133  24.269   3.226  12.508
80709W        W53134  22.760  29.958   2.340
80710W        W53135  44.880   2.854  11.950
80711W        W53136  10.221  35.426  14.401
80712W        W53137  12.897   8.477  14.429
80713W        W53138  39.590   5.403  11.154
80714W        W53139  17.674  32.316   1.238
80715W        W53140   5.001   6.222  14.396
80716W        W53141  11.672  13.793  10.583
80717W        W53142  22.391  31.314   2.954
80718W        W53143   2.413  31.078  13.968
80719W        W53144  31.542  18.207   1.728
80720W        W53145   8.625   3.707   1.367
80721W        W53146  39.006  22.726   3.252
80722W        W53147  11.393  21.086   4.541
80723W        W53148   2.718  14.186   0.998
80724W        W53149   9.736   6.902   1.164
80725W        W53150  11.385  38.725  14.361
80726W        W53151  20.809  42.793  10.979
80727W        W53152  14.328   7.627  12.477
80728W        W53153  31.223  34.091   4.465
80729W        W53154  24.249  12.148   0.928
80730W        W53155   2.516  42.775   5.013
80731W        W53156  38.414  17.797  14.836
80732W        W53157  39.400  22.830   2.422
80733W        W53158  33.712   7.239  12.420
80734W        W53159  12.111  34.409   0.788
80735W        W53160  25.064  19.712  14.717
80736W        W53161  39.648  15.534   1.666
80737W        W53162  14.585  14.595  14.875
80738W        W53163  28.908  11.202  10.721
80739W        W53164  26.039  23.218   2.844
80740W        W53165  19.114   8.925  14.099
80741W        W53166  19.079  21.613  10.635
80742W        W53167  15.132  12.055   0.478
80743W        W53168   4.912  39.557   1.297
80744W        W53169  23.918  25.954   4.140
80745W        W53170   3.886  44.240   2.232
80746W        W53171  20.263  27.225   2.948
80747W        W53172  25.689  34.595  12.144
80748W        W53173  31.664   5.393   4.865
80749W        W53174  14.267  17.183  11.856
80750W        W53175  32.599  28.946  14.488
80751W        W53176  34.486  14.852  13.000
80752W        W53177  12.733  16.632   0.057
80753W        W53178  19.253  26.570   3.285
80754W        W53179  27.891  19.299   1.067
80755W        W53180   8.630  22.087  14.415
80756W        W53181  32.589  30.158   3.296
80757W        W53182  12.297   6.111   4.902
80758W        W53183  18.198  32.462   3.225
80759W        W53184  16.307   1.907   0.778
80760W        W53185  32.637  36.034   0.946
80761W        W53186   0.349  33.927   3.719
80762W        W53187  37.576  31.883  14.300
80763W        W53188  26.249   5.877  13.829
80764W        W53189  29.682  37.354   4.564
80765W        W53190  14.245  24.386  13.762
80766W        W53191  27.916  44.485  11.957
80767W        W53192  20.046  20.790  14.965
80768W        W53193   8.737   4.687   2.847
80769W        W53194  34.804   5.946   1.801
80770W        W53195  43.003  34.484  13.632
80771W        W53196  35.077   6.482  10.768
80772W        W53197  24.433  43.081   3.321
80773W        W53198  34.098  26.928   4.217
80774W        W53199  15.114  24.701   1.489
80775W        W53200  32.515  41.064  11.609
80776W        W53201  30.388  26.767   0.324
80777W        W53202   0.204   9.889  12.132
80778W        W53203   2.887  32.955  11.893
80779W        W53204   9.425  36.862  13.338
80780W        W53205  38.022   2.252  14.291
80781W        W53206   5.423   6.858  13.903
80782W        W53207   0.456  29.225   0.905
80783W        W53208  40.506  27.398  10.495
80784W        W53209  22.990   1.969  13.121
80785W        W53210  10.112  32.000   5.030
80786W        W53211  29.199  13.336   2.125
80787W        W53212  31.095  23.802   9.801
80788W        W53213  27.149  19.684   2.710
80789W        W53214  33.937  23.463  14.877
80790W        W53215   9.679  23.101  12.624
80791W        W53216  36.342  11.047  13.879
80792W        W53217  13.196  30.919   2.375
80793W        W53218  10.679  42.073   3.798
80794W        W53219  31.183  19.783  12.084
80795W        W53220  10.878  11.610   3.253
80796W        W53221  16.555  25.480  13.489
80797W        W53222  30.411  22.924   4.278
80798W        W53223  19.234  44.719   2.205
80799W        W53224  14.226  10.714   1.643
80800W        W53225  42.568  20.201   3.265
80801W        W53226  30.989  40.302  10.545
80802W        W53227   5.511  39.431  13.588
80803W        W53228  32.382  36.515   1.749
80804W        W53229  13.320   0.338  12.885
80805W        W53230  20.026   2.213   0.316
80806W        W53231   0.916  25.129   3.650
80807W        W53232  28.900  38.516   1.842
80808W        W53233  34.069  32.482   1.432
80809W        W53234   2.270  21.726  12.538
80810W        W53235   6.228  22.080   1.578
80811W        W53236  32.905   2.563   1.903
80812W        W53237  22.391   9.494   4.133
80813W        W53238   3.445  23.632  10.645
80814W        W53239  19.744  18.352  11.511
80815W        W53240  14.771   9.142   3.356
80816W        W53241  26.908  38.398  12.890
80817W        W53242  26.907  31.161   0.425
80818W        W53243  40.902   9.685   3.166
80819W        W53244  28.049   2.900  13.731
80820W        W53245  10.927  11.967   4.680
80821W        W53246  11.712  20.067  11.367
80822W        W53247  20.020  32.383  13.372
80823W        W53248  42.903  36.507  12.668
80824W        W53249  31.595  18.871  13.164
80825W        W53250  43.317  42.241  13.909
80826W        W53251  34.666  38.603   1.232
80827W        W53252  24.528  28.457   3.383
80828W        W53253  39.021   0.521  12.561
80829W        W53254  16.711  16.748   0.378
80830W        W53255   7.127  37.946   3.691
80831W        W53256  39.427  38.307  13.008
80832W        W53257  20.095  42.339   0.334
80833W        W53258   4.118  31.226  13.181
80834W        W53259  39.051  14.789   2.667
80835W        W53260  39.374   4.755   1.668
80836W        W53261  40.513  28.532  12.691
80837W        W53262  36.362  15.645  12.980
80838W        W53263  30.021  14.850   0.456
80839W        W53264  42.894   9.904   3.675
80840W        W53265   4.366  30.809   3.192
80841W        W53266   0.238   7.382   1.762
80842W        W53267  12.064  39.572   2.200
80843W        W53268  28.394  20.593  13.786
80844W        W53269   1.477  28.558  13.058
80845W        W53270   6.393   9.886  12.916
80846W        W53271  34.527   8.411   3.095
80847W        W53272   3.741   3.301   4.730
80848W        W53273  42.045  13.641   3.848
80849W        W53274   1.329  28.933   1.969
80850W        W53275  15.294  33.449   3.730
80851W        W53276  34.855   6.691   2.233
80852W        W53277   9.720  34.698  14.939
80853W        W53278  15.383  39.796   1.015
80854W        W53279  12.780  18.560   0.487
80855W        W53280  13.857  31.828  11.151
80856W        W53281  10.816   9.156   4.533
80857W        W53282  33.504  43.326   4.211
80858W        W53283  36.855  25.089   0.297
80859W        W53284  17.610   9.918  12.973
80860W        W53285  25.684  44.508   3.813
80861W        W53286  39.727  37.616   1.874
80862W        W53287  39.800  40.940   0.856
80863W        W53288  15.277  40.687  13.554
80864W        W53289  40.354  20.386   4.160
80865W        W53290  43.659  39.701   5.091
80866W        W53291  15.098  13.339   2.089
80867W        W53292  25.868  34.110  12.860
80868W        W53293   2.926  28.163   2.293
80869W        W53294  33.633  19.511   3.685
80870W        W53295   3.966  27.593  11.810
80871W        W53296  10.818  33.468  13.970
80872W        W53297   6.696  34.469  10.630
80873W        W53298  26.381  23.128  13.564
80874W        W53299  15.371   4.440  12.173
80875W        W53300  42.485   5.508  12.473
80876W        W53301  17.275  39.442   4.028
80877W        W53302  14.142  38.524  13.788
80878W        W53303   7.137  41.435  14.386
80879W        W53304  12.854   9.733  14.823
80880W        W53305  43.749  19.702  13.669
80881W        W53306   8.950   5.607   0.996
80882W        W53307  13.359  37.940   3.238
80883W        W53308   8.148  28.730   0.877
80884W        W53309  26.944  32.531  13.455
80885W        W53310  31.894  36.852  12.449
80886W        W53311  11.677  14.808  14.310
80887W        W53312  16.737   1.298  13.566
80888W        W53313  41.137  14.622   0.782
80889W        W53314  32.652   2.196  11.186
80890W        W53315   5.138  16.274   4.502
80891W        W53316  38.088  44.909  13.478
80892W        W53317   0.845  11.587  10.722
80893W        W53318  25.219  34.376  14.223
80894W        W53319   5.727  22.107   3.115
80895W        W53320  42.526  28.480  12.332
80896W        W53321  41.515   1.967  14.434
80897W        W53322  14.629   7.768  11.672
80898W        W53323   7.283  37.993   1.723
80899W        W53324   7.668  10.123   1.829
80900W        W53325  29.986  10.573  14.836
80901W        W53326  40.598   2.358  13.487
80902W        W53327  26.176  20.946   4.301
80903W        W53328  19.856  33.565   0.334
80904W        W53329  43.026  39.826   3.106
80905W        W53330  43.538  34.609  11.420
80906W        W53331  30.418  24.340   4.115
80907W        W53332  25.196  22.714   4.388
80908W        W53333   4.692   0.260   2.241
80909W        W53334  30.389  43.749   0.480
80910W        W53335  24.593  11.650   4.755
80911W        W53336  24.462  29.162  12.978
80912W        W53337   8.771  31.608  12.111
80913W        W53338  38.446  13.710   2.350
80914W        W53339   9.355  28.076   3.653
80915W        W53340   9.455  21.644   4.927
80916W        W53341  38.913   6.628   2.395
80917W        W53342  29.464  22.510  12.608
80918W        W53343   4.319  30.079   4.281
80919W        W53344  41.000   0.277  11.601
80920W        W53345  38.378  39.867  14.466
80921W        W53346  43.896  41.736  11.553
80922W        W53347  10.432   3.796  12.088
80923W        W53348  44.014   7.260  14.718
80924W        W53349  10.032   3.373  11.291
80925W        W53350  35.559  12.770   1.950
80926W        W53351  37.700  11.131  11.306
80927W        W53352  25.694  24.647   2.843
80928W        W53353  39.251  19.245   1.883
80929W        W53354  34.150  19.212  14.953
80930W        W53355  23.449  14.990  14.018
80931W        W53356  10.701   0.249  10.716
80932W        W53357  22.703  26.327  11.661
80933W        W53358   1.316  26.643  10.921
80934W        W53359  28.412  28.041   1.470
80935W        W53360  23.669  17.274  10.431
80936W        W53361   2.320   8.098  14.409
80937W        W53362   6.793  30.968   3.025
80938W        W53363  15.781  17.569   4.355
80939W        W53364  41.960  39.606  10.891
80940W        W53365   2.374   4.846  12.012
80941W        W53366  27.485  11.190   4.470
80942W        W53367  36.620  19.154  10.484
80943W        W53368  43.587  43.807   1.459
80944W        W53369  38.074   9.721  12.377
80945W        W53370  44.722  11.447  11.919
80946W        W53371   4.863  11.154   2.644
80947W        W53372  13.088  43.087  10.319
80948W        W53373  37.198  23.118   3.355
80949W        W53374   1.236   4.680  14.825
80950W        W53375  21.813  17.706  11.629
80951W        W53376  44.423   1.481   4.395
80952W        W53377  25.077  44.706  10.529
80953W        W53378  21.626   6.303   1.565
80954W        W53379  24.574  44.926   3.752
80955W        W53380  17.318  26.875  14.476
80956W        W53381  21.227  25.072  13.525
80957W        W53382  14.856  39.954   4.634
80958W        W53383  41.742  27.986   3.792
80959W        W53384  35.615  23.560   3.836
80960W        W53385  34.166  26.232  11.068
80961W        W53386  14.474  27.656   4.320
80962W        W53387  10.717  39.759   3.248
80963W        W53388  25.930  44.115  13.247
80964W        W53389  43.567   1.050   3.702
80965W        W53390  25.607  17.502  10.240
80966W        W53391  26.835  44.150   3.305
80967W        W53392  12.547  37.134   2.252
80968W        W53393  12.267   5.984  10.679
80969W        W53394  27.914   4.403   1.766
80970W        W53395  26.473  39.861   4.168
80971W        W53396  16.045  17.612  13.994
80972W        W53397  23.477  25.533  11.596
80973W        W53398  13.718  26.037   0.421
80974W        W53399  10.598   3.297   0.283
80975W        W53400  16.119  24.484  12.651
80976W        W53401   7.332  20.106   0.843
80977W        W53402  13.031  24.243   1.659
80978W        W53403  38.877   3.192  10.636
80979W        W53404  18.310  37.846  12.879
80980W        W53405  40.415   5.674  11.107
80981W        W53406   1.816  37.500   3.822
80982W        W53407   0.757  11.082   4.165
80983W        W53408  24.693  24.726   4.395
80984W        W53409  15.541  42.906   1.780
80985W        W53410  15.095  41.930   0.076
80986W        W53411  24.137  11.567   2.792
80987W        W53412   5.064  34.302   1.202
80988W        W53413  10.152   9.651  14.854
80989W        W53414   4.933  40.879  12.502
80990W        W53415  25.451  32.633  14.985
80991W        W53416  28.866   2.994   2.666
80992W        W53417  28.119  39.556   2.886
80993W        W53418  19.070  11.702  12.473
80994W        W53419   1.430   3.546  11.836
80995W        W53420  18.306   6.467   2.122
80996W        W53421  35.805  36.572  12.926
80997W        W53422  15.534   8.852  11.627
80998W        W53423  12.214  19.313  11.841
80999W        W53424  28.132  22.214  14.367
81000W        W53425  11.215   6.265  14.829
81001W        W53426  41.331  25.520   4.043
81002W        W53427  21.275   1.340   1.482
81003W        W53428  17.621   3.527   2.570
81004W        W53429   6.805  19.092   1.154
81005W        W53430  22.240  31.172  11.488
81006W        W53431  43.779  29.049  14.058
81007W        W53432  43.844  14.391   1.601
81008W        W53433   7.359   9.225   1.210
81009W        W53434  11.631   0.780   4.730
81010W        W53435   9.664  35.931   2.731
81011W        W53436   2.887   4.518   0.894
81012W        W53437   8.085  33.963  13.309
81013W        W53438  38.471  19.239   4.908
81014W        W53439  19.014  16.198   3.624
81015W        W53440  44.986  10.605  14.204
81016W        W53441  15.551  21.715  10.442
81017W        W53442   4.945  24.791  12.212
81018W        W53443  42.859  28.388  14.020
81019W        W53444  30.073  44.396   2.929
81020W        W53445  23.615  10.879   3.251
81021W        W53446  28.860  36.068   3.768
81022W        W53447   0.571   2.302  10.988
81023W        W53448  20.150  37.505  12.000
81024W        W53449   1.786   8.600  13.133
81025W        W53450  20.621   9.695   4.077
81026W        W53451  30.453  20.414  11.506
81027W        W53452   2.351  33.932   2.864
81028W        W53453  11.301  29.285   2.354
81029W        W53454  39.030   1.487  12.485
81030W        W53455  14.025  44.458  12.667
81031W        W53456   5.847  25.010  14.863
81032W        W53457  11.581  27.036  13.001
81033W        W53458  16.795  38.293   1.474
81034W        W53459  31.530  26.445   2.322
81035W        W53460  31.385  15.133  13.991
81036W        W53461  18.580   5.024   1.092
81037W        W53462  15.644  31.679  12.952
81038W        W53463  27.501  16.052   2.351
81039W        W53464  30.987   5.740   2.292
81040W        W53465  33.161  17.568  14.336
81041W        W53466  25.629   9.960   3.061
81042W        W53467  12.167  37.813   1.979
81043W        W53468   9.108  17.988  13.493
81044W        W53469  24.133  39.514   4.588
81045W        W53470  11.910   2.403   0.532
81046W        W53471  10.536   8.308   1.247
81047W        W53472  17.343  26.333   1.357
81048W        W53473  23.661  14.977   0.922
81049W        W53474  42.887  19.924  13.478
81050W        W53475  11.690  26.494  14.863
81051W        W53476  26.068  19.286   3.718
81052W        W53477  27.913  12.680   2.241
81053W        W53478   4.207  26.202   3.674
81054W        W53479   9.543  20.676  12.745
81055W        W53480  23.766  32.970  13.337
81056W        W53481  15.774  24.520   3.814
81057W        W53482  43.153   3.354  11.228
81058W        W53483  29.913   0.339  13.494
81059W        W53484  13.079  15.003   4.228
81060W        W53485  43.311  40.421  10.652
81061W        W53486  35.267  14.609  10.911
81062W        W53487   4.437  22.063  12.325
81063W        W53488  15.825  22.539  14.639
81064W        W53489  22.703  24.153   9.870
81065W        W53490  18.214  35.900   3.050
81066W        W53491  28.081  14.809  11.241
81067W        W53492  31.873  36.113   0.470
81068W        W53493  31.807  36.313   2.756
81069W        W53494  26.792  42.063  12.375
81070W        W53495  44.800  43.732  11.400
81071W        W53496  35.158  29.465  12.353
81072W        W53497  18.470  42.887   2.212
81073W        W53498  30.957  31.832   2.687
81074W        W53499  12.260   7.390   1.768
81075W        W53500  32.493  15.566   3.769
81076W        W53501  22.200  22.601   0.065
81077W        W53502  41.074   2.414  12.534
81078W        W53503   5.871  15.514  12.052
81079W        W53504  34.471  19.688   2.480
81080W        W53505  16.713  32.390   1.662
81081W        W53506  17.603  18.208  11.978
81082W        W53507  30.119  27.502   2.790
81083W        W53508  23.919  19.532  14.389
81084W        W53509  19.292  20.030  14.969
81085W        W53510  27.765  30.256   2.630
81086W        W53511   5.280   9.405   0.478
81087W        W53512  27.338  38.888   3.647
81088W        W53513   3.362  22.559  12.416
81089W        W53514  15.304   9.119   1.204
81090W        W53515  18.345  30.007  14.575
81091W        W53516  32.354  29.001   0.835
81092W        W53517  38.842  33.054  13.745
81093W        W53518  43.505  21.286  12.560
81094W        W53519  43.951  31.627  13.239
81095W        W53520   1.118  34.515   0.258
81096W        W53521  20.740  12.645  13.555
81097W        W53522  23.254  44.814  11.467
81098W        W53523  22.476  24.971  11.185
81099W        W53524  40.476  21.829  10.517
81100W        W53525  24.669  18.666  12.719
81101W        W53526   1.861  34.947  13.745
81102W        W53527  19.012  28.084  11.699
81103W        W53528  29.304  43.039   5.028
81104W        W53529  18.015  18.583  12.006
81105W        W53530  39.466  25.740   3.244
81106W        W53531  28.009  22.776   0.128
81107W        W53532  23.027  31.579  11.283
81108W        W53533  36.304  22.941  12.113
81109W        W53534  36.564  32.520  12.687
81110W        W53535  24.314  23.422  14.592
81111W        W53536   4.695  19.527   4.563
81112W        W53537  39.212   0.235  10.406
81113W        W53538   0.503  38.130  13.524
81114W        W53539  24.786  35.983   0.215
81115W        W53540  33.816   7.169  14.923
81116W        W53541   7.323  13.676   3.568
81117W        W53542  13.724  22.065   0.766
81118W        W53543  43.496  17.582   3.853
81119W        W53544  37.685  27.655  14.931
81120W        W53545   3.969  20.768  14.773
81121W        W53546  31.928  19.564   0.550
81122W        W53547   6.691  40.160   2.736
81123W        W53548  24.190   4.422  14.719
81124W        W53549  29.032  23.821   9.700
81125W        W53550  23.499  21.288   2.012
81126W        W53551  22.132  32.403   1.339
81127W        W53552  24.390  18.218  13.959
81128W        W53553  35.510  26.800  13.439
81129W        W53554  35.075   2.013  13.474
81130W        W53555   2.898  13.267   0.902
81131W        W53556  13.094  32.679  10.985
81132W        W53557  23.926  21.508  13.071
81133W        W53558   2.405  22.163   1.921
81134W        W53559  34.101   0.473  10.671
81135W        W53560   6.687  31.003   2.023
81136W        W53561  32.085  13.189   0.310
81137W        W53562   3.676   5.722  14.277
81138W        W53563   8.625  28.497   0.914
81139W        W53564  39.354  11.266  13.085
81140W        W53565  11.112  44.326  14.413
81141W        W53566   9.162  25.688   4.343
81142W        W53567  28.455  31.983  10.459
81143W        W53568   1.220  29.379  13.576
81144W        W53569  36.472   7.431   3.256
81145W        W53570  15.370  37.515  12.375
81146W        W53571  40.812   0.085   1.311
81147W        W53572   8.776  15.593   2.244
81148W        W53573   5.883  32.530   0.310
81149W        W53574  42.716   9.158  12.679
81150W        W53575  11.079  14.626   2.844
81151W        W53576   9.938  10.134   4.622
81152W        W53577  24.702   1.278   2.960
81153W        W53578  34.038   3.690  11.155
81154W        W53579   6.482  11.802  12.959
81155W        W53580  28.087  27.957   0.445
81156W        W53581  20.276  12.370  13.405
81157W        W53582   9.917  23.084   4.214
81158W        W53583  37.424  29.979  12.892
81159W        W53584  26.082  41.081  12.084
81160W        W53585  20.374  29.960  11.538
81161W        W53586  24.497  33.799  12.075
81162W        W53587  11.868   6.819   0.530
81163W        W53588  35.259  15.687   0.841
81164W        W53589   7.325  18.670  11.439
81165W        W53590  40.724  25.696  13.124
81166W        W53591  22.748   7.181  10.830
81167W        W53592  19.844  26.838  11.368
81168W        W53593  27.757  12.222   4.388
81169W        W53594  20.090  23.667  14.531
81170W        W53595  44.337   2.397   3.320
81171W        W53596  17.623  12.281  13.965
81172W        W53597  13.788  37.622   2.293
81173W        W53598  22.668  34.389   2.331
81174W        W53599  27.036  33.412   2.444
81175W        W53600   3.934  39.834  10.914
81176W        W53601  23.159   7.944   0.370
81177W        W53602  37.313   2.474   1.983
81178W        W53603   3.319  14.725  14.910
81179W        W53604  24.173  14.603  12.677
81180W        W53605  37.050  40.881   0.256
81181W        W53606   4.750  21.503  13.939
81182W        W53607  18.057  19.590   1.053
81183W        W53608   9.857   1.869  11.964
81184W        W53609  30.950  31.093  12.712
81185W        W53610  22.420   4.900   5.051
81186W        W53611  19.949   2.733  14.084
81187W        W53612  27.651  41.895   0.672
81188W        W53613  21.120   3.998  11.074
81189W        W53614  28.832  39.389   0.299
81190W        W53615   4.160  12.539  10.987
81191W        W53616  32.051  28.103   1.864
81192W        W53617   5.395  22.007   4.532
81193W        W53618   0.444  12.690  14.390
81194W        W53619  33.700  32.502   2.834
81195W        W53620  11.403  27.651   0.946
81196W        W53621  11.350   7.894   2.255
81197W        W53622  20.399  27.384  10.943
81198W        W53623   4.223   5.910   2.442
81199W        W53624  23.454  33.500  11.535
81200W        W53625  40.514  44.756   4.487
81201W        W53626  21.046  24.643   4.493
81202W        W53627   3.404  17.144  14.417
81203W        W53628  24.590   0.709   4.427
81204W        W53629  11.782   0.795   0.561
81205W        W53630   3.537  26.956   1.328
81206W        W53631  20.452  29.123  12.811
81207W        W53632  40.638  16.172  12.457
81208W        W53633  23.677  17.673  13.587
81209W        W53634  26.439  10.813  13.990
81210W        W53635  21.190  12.622   3.734
81211W        W53636   9.758   5.738  13.832
81212W        W53637  20.722   8.543  13.000
81213W        W53638  38.969  23.093  13.983
81214W        W53639  34.534  40.467   0.919
81215W        W53640   6.211  32.870   1.393
81216W        W53641  40.332  24.523   0.487
81217W        W53642  27.481  30.249   0.218
81218W        W53643   0.717   1.423   2.568
81219W        W53644  44.848   1.770  11.075
81220W        W53645  31.108   5.244   3.587
81221W        W53646  15.024  28.091   0.402
81222W        W53647  28.469  24.163  12.985
81223W        W53648  14.810  44.724  11.875
81224W        W53649   7.564  37.501   4.575
81225W        W53650  18.278  15.520  14.439
81226W        W53651  27.172   9.002  12.648
81227W        W53652  26.015  34.212   3.687
81228W        W53653  30.044   5.113   4.250
81229W        W53654   4.885   8.771  12.427
81230W        W53655  10.259   7.753  13.281
81231W        W53656  24.255   8.573   3.281
81232W        W53657  14.327   5.668   4.936
81233W        W53658  11.721  15.689  11.599
81234W        W53659  34.540  32.544  11.121
81235W        W53660  13.318   0.206  13.387
81236W        W53661  13.688  24.630   1.379
81237W        W53662  27.613  32.127   1.465
81238W        W53663  36.488   5.236  14.049
81239W        W53664  33.351  30.949   3.146
81240W        W53665  39.956  25.150  13.398
81241W        W53666  25.193  33.681  12.485
81242W        W53667  26.646   4.387   4.596
81243W        W53668  37.079  14.499  11.601
81244W        W53669  15.524   3.979  12.335
81245W        W53670  29.585  44.054  13.455
81246W        W53671  39.832  22.597  12.395
81247W        W53672  44.975  12.517  13.835
81248W        W53673  43.498  26.799   3.628
81249W        W53674  38.077  42.828  11.091
81250W        W53675  21.060   3.181  12.895
81251W        W53676  31.421   5.252  14.289
81252W        W53677  36.610  26.461   3.798
81253W        W53678  20.225  10.178   3.745
81254W        W53679   1.503  19.882  11.188
81255W        W53680  17.856   7.887   1.432
81256W        W53681  28.395   8.845   4.034
81257W        W53682   7.603   1.339   0.921
81258W        W53683  30.441   4.233   4.063
81259W        W53684   2.353  13.197   3.680
81260W        W53685  26.969  36.957  12.947
81261W        W53686  20.711  38.536   4.513
81262W        W53687  28.198   2.040  14.208
81263W        W53688  12.126  10.896  14.822
81264W        W53689   6.652  21.264   4.207
81265W        W53690  43.063  44.008  11.660
81266W        W53691  31.598  29.597   5.283
81267W        W53692   6.889  29.496   2.351
81268W        W53693  23.150   9.759  13.825
81269W        W53694  22.833   6.857   0.852
81270W        W53695  34.421  24.309   2.627
81271W        W53696  26.167  40.961   1.614
81272W        W53697   2.768  37.741  14.145
81273W        W53698  36.409   6.146   0.210
81274W        W53699  21.226  15.522  14.687
81275W        W53700  33.542  32.801   3.213
81276W        W53701   6.980  44.307  13.459
81277W        W53702  34.621  41.440   4.871
81278W        W53703  31.616   1.431   2.529
81279W        W53704   2.201  31.551   4.897
81280W        W53705   5.390  18.219  13.560
81281W        W53706   6.192  35.898  10.736
81282W        W53707  35.496  40.839  14.939
81283W        W53708   9.174  39.768   3.393
81284W        W53709  23.115  18.783  12.376
81285W        W53710  20.003  40.966  13.987
81286W        W53711  36.114  19.119   1.479
81287W        W53712  12.878  27.677  14.285
81288W        W53713  40.866   2.770   1.371
81289W        W53714  37.693  43.439   3.678
81290W        W53715  17.270  23.353   4.163
81291W        W53716  30.982  36.060  14.028
81292W        W53717  40.312  37.022  13.424
81293W        W53718   7.842   5.955  11.709
81294W        W53719   2.192   5.779   1.004
81295W        W53720   4.578   4.106   5.024
81296W        W53721  40.785  14.254  13.335
81297W        W53722  35.446  30.191   3.643
81298W        W53723   4.792  39.968  12.612
81299W        W53724  24.081   9.860   2.345
81300W        W53725  44.409  17.786  13.377
81301W        W53726  25.668  44.001   1.094
81302W        W53727  18.658  30.240  14.960
81303W        W53728  28.054   9.614  13.346
81304W        W53729   7.622  43.703  12.054
81305W        W53730   7.709   4.658   0.892
81306W        W53731  39.629  12.860  11.093
81307W        W53732  13.118  25.991   4.232
81308W        W53733   9.755  37.653   4.590
81309W        W53734  28.028   9.133  12.533
81310W        W53735  19.232  41.519  11.443
81311W        W53736  42.335  43.757   0.336
81312W        W53737   9.701   1.275   1.393
81313W        W53738  10.266  35.730  10.102
81314W        W53739  40.817  33.840   0.370
81315W        W53740  25.665  31.426  13.965
81316W        W53741   6.776  25.758   0.530
81317W        W53742   2.030  13.547   1.980
81318W        W53743  16.251  36.078   1.735
81319W        W53744   1.211  32.979   2.464
81320W        W53745   8.224  17.718  10.973
81321W        W53746  16.220   8.708  12.376
81322W        W53747  14.177  42.442  12.119
81323W        W53748   4.948  18.715   1.783
81324W        W53749  35.831  26.986   1.835
81325W        W53750  21.078  33.729  11.604
81326W        W53751  39.620  31.646   4.052
81327W        W53752  33.477  18.724  12.924
81328W        W53753  37.926  36.514  14.459
81329W        W53754  11.205  15.333   0.393
81330W        W53755  24.418  19.858  11.109
81331W        W53756  38.992  37.927   3.312
81332W        W53757   3.328  29.032   2.517
81333W        W53758  30.223  34.613   3.167
81334W        W53759  26.913  34.006  11.945
81335W        W53760   5.746   5.435  10.383
81336W        W53761  28.527  37.840  11.516
81337W        W53762  41.498  10.687   1.162
81338W        W53763  13.697  24.146  14.898
81339W        W53764  40.455  12.508   2.735
81340W        W53765  19.060  21.578   3.593
81341W        W53766  21.312  40.181  12.967
81342W        W53767   7.383  42.944   0.249
81343W        W53768  27.255  13.508   4.164
81344W        W53769   1.459  35.334   4.220
81345W        W53770  34.365  17.793  12.901
81346W        W53771  26.194   4.495   4.334
81347W        W53772  36.991  12.793  13.447
81348W        W53773  28.360   1.402  11.186
81349W        W53774  27.271   0.743   0.010
81350W        W53775  35.947  37.927  11.691
81351W        W53776  29.673  28.126   5.038
81352W        W53777  27.357   7.993  10.771
81353W        W53778   9.877  21.312  10.675
81354W        W53779  43.121  27.104   0.372
81355W        W53780   9.188   8.983   2.834
81356W        W53781   5.290  12.246   1.218
81357W        W53782  32.339  37.808  11.103
81358W        W53783   1.725  31.903   1.328
81359W        W53784   0.389  35.349  13.379
81360W        W53785  34.783  10.532  11.930
81361W        W53786  35.458  31.791   0.412
81362W        W53787  24.609  19.494  12.882
81363W        W53788  32.989   0.871  13.788
81364W        W53789  11.057  33.453  14.831
81365W        W53790  32.482  39.277  14.824
81366W        W53791  19.091   8.415  14.118
81367W        W53792   4.182   0.800  13.314
81368W        W53793  23.533  12.472   0.424
81369W        W53794  38.720   0.441   3.832
81370W        W53795  12.226  37.546   4.475
81371W        W53796  26.943  17.741   0.692
81372W        W53797   2.848  19.363  11.210
81373W        W53798  12.674  38.159   3.637
81374W        W53799  34.139  29.336   0.678
81375W        W53800  23.589  29.436   2.849
81376W        W53801  30.037   4.492   0.398
81377W        W53802  12.454  12.275  14.315
81378W        W53803   0.948  36.114   1.234
81379W        W53804  30.638   6.017   3.586
81380W        W53805  38.423  39.606   0.498
81381W        W53806   8.799  44.973   0.703
81382W        W53807  11.926  40.930   2.009
81383W        W53808   4.472  38.890  10.445
81384W        W53809  40.304  41.695   2.728
81385W        W53810  20.669  38.850   0.820
81386W        W53811  31.248  23.555   4.687
81387W        W53812  40.451  40.889   4.342
81388W        W53813   4.953  23.114   2.694
81389W        W53814   4.293  17.903  12.095
81390W        W53815  38.641  10.187  10.977
81391W        W53816  25.054  41.876  11.590
81392W        W53817   3.563  38.887  14.488
81393W        W53818  39.718  33.924  10.956
81394W        W53819  37.904  24.195   0.930
81395W        W53820  30.707  11.747  10.640
81396W        W53821  21.539  10.974   3.747
81397W        W53822  38.013   1.676   1.194
81398W        W53823  28.982   0.849   1.827
81399W        W53824  35.064  20.180  12.062
81400W        W53825  15.364   4.680   3.642
81401W        W53826   5.502  12.203  13.780
81402W        W53827  23.331  32.887  12.892
81403W        W53828   1.420  30.962  13.965
81404W        W53829  42.354   6.734   4.516
81405W        W53830   4.885   7.142   4.977
81406W        W53831  21.198  35.978   2.962
81407W        W53832  12.123  15.915  12.394
81408W        W53833  25.138  11.970  12.171
81409W        W53834  38.954  42.439  14.096
81410W        W53835  43.242   2.843  13.960
81411W        W53836  20.932  44.850   0.867
81412W        W53837  30.446  15.747   2.447
81413W        W53838  22.723  37.632   3.447
81414W        W53839  36.892   0.463  10.451
81415W        W53840  31.663  19.125   2.909
81416W        W53841  41.318  13.183   3.992
81417W        W53842  14.224  14.264  11.340
81418W        W53843  19.312  24.976  14.453
81419W        W53844   5.186   6.062  10.527
81420W        W53845  44.953   4.619  14.559
81421W        W53846  20.747  27.624  12.069
81422W        W53847  24.969  36.472  13.525
81423W        W53848   4.690  13.666   0.405
81424W        W53849  42.796  17.052  12.577
81425W        W53850  44.918  15.806   0.069
81426W        W53851  23.140   2.477   2.297
81427W        W53852  26.297  11.622  13.516
81428W        W53853  22.666  36.908   2.192
81429W        W53854  23.969  33.130  13.824
81430W        W53855  39.482   0.952  14.865
81431W        W53856  33.891  23.135   1.315
81432W        W53857  23.896  20.031   2.661
81433W        W53858  27.557  12.043  12.040
81434W        W53859  16.698  24.206   1.192
81435W        W53860  27.212  15.015  14.287
81436W        W53861  10.433   9.900  11.679
81437W        W53862  14.306   5.659  10.903
81438W        W53863   8.528  35.945  12.229
81439W        W53864   9.638  38.563   3.668
81440W        W53865  13.901  35.847   4.980
81441W        W53866  24.167  27.630   2.787
81442W        W53867   9.679  43.115   3.201
81443W        W53868  37.144   6.458   0.752
81444W        W53869   9.253   0.003   1.457
81445W        W53870  26.495  12.604   3.653
81446W        W53871  33.969  17.123  13.072
81447W        W53872   4.084  34.801  14.483
81448W        W53873  30.689   9.246   4.267
81449W        W53874  28.115   1.449  13.521
81450W        W53875   6.695  30.990  12.749
81451W        W53876   5.528  37.908  10.735
81452W        W53877  38.525  21.093  11.086
81453W        W53878   6.603  24.211   2.428
81454W        W53879   9.627   4.394  11.941
81455W        W53880  44.248  38.072   2.504
81456W        W53881  39.089  11.653  12.885
81457W        W53882   3.849   6.986  11.466
81458W        W53883  39.302   1.244  12.120
81459W        W53884  14.634   8.401  12.507
81460W        W53885  10.147  18.840  14.904
81461W        W53886  27.144  15.108  10.628
81462W        W53887  41.444  19.222  11.039
81463W        W53888  31.727  38.656  11.013
81464W        W53889   9.820  24.936   2.260
81465W        W53890   8.380  35.623  10.770
81466W        W53891  44.478  18.397   0.844
81467W        W53892  34.661  38.347   4.099
81468W        W53893   4.690  26.948  13.896
81469W        W53894  22.801  11.774   9.645
81470W        W53895  21.058  35.997   4.926
81471W        W53896  34.148  26.537   3.091
81472W        W53897  20.650  38.177  14.306
81473W        W53898  30.048  40.267   3.835
81474W        W53899   5.833  35.499  11.415
81475W        W53900  41.419  28.723   1.357
81476W        W53901  43.311  26.803  10.424
81477W        W53902  30.636  33.127   0.011
81478W        W53903  20.625   6.411  12.858
81479W        W53904   3.532  17.121  11.606
81480W        W53905   4.723   3.605  11.468
81481W        W53906  35.275  19.431   5.323
81482W        W53907   5.679  40.086  13.768
81483W        W53908   0.263   1.294   1.157
81484W        W53909   6.085   2.852   2.649
81485W        W53910  38.058  41.823   1.396
81486W        W53911  19.041  18.212  12.901
81487W        W53912  14.101  38.430  11.431
81488W        W53913   0.210  30.493   4.604
81489W        W53914  17.764  22.698   1.404
81490W        W53915   9.450  18.806  11.882
81491W        W53916  33.438  44.497  12.055
81492W        W53917   5.331  27.751   3.110
81493W        W53918  16.594  14.385  12.388
81494W        W53919  39.782  20.859   4.154
81495W        W53920  33.090   5.437  13.456
81496W        W53921   1.779  36.809  10.853
81497W        W53922   9.702  19.249   2.175
81498W        W53923  33.965  24.684  11.572
81499W        W53924   4.369  29.840   1.245
81500W        W53925  27.182  22.557   2.048
81501W        W53926  35.944  36.067  11.539
81502W        W53927  33.024  28.420   2.834
81503W        W53928  20.645  31.646   4.752
81504W        W53929  38.218   8.445   9.904
81505W        W53930  13.614   4.882  12.329
81506W        W53931  40.291  13.111   3.693
81507W        W53932  11.208  27.243  11.224
81508W        W53933   1.173  32.953  10.176
81509W        W53934  16.505   5.267   0.335
81510W        W53935  27.783   9.791   2.233
81511W        W53936  34.364  39.386   2.351
81512W        W53937  10.584  38.368  11.218
81513W        W53938  24.630  31.471  13.787
81514W        W53939  23.042  44.770  10.425
81515W        W53940   4.473  23.202  12.841
81516W        W53941  31.023  26.243  10.492
81517W        W53942   4.849  40.526   3.496
81518W        W53943  26.640  22.083  10.101
81519W        W53944   8.994  24.674   4.092
81520W        W53945  20.686  13.339   2.369
81521W        W53946  41.848  10.353   3.249
81522W        W53947  27.222  31.433  13.865
81523W        W53948  20.532   9.958  11.342
81524W        W53949  15.216  16.254   2.224
81525W        W53950  21.704  35.851  14.023
81526W        W53951   8.792  42.742   4.508
81527W        W53952  24.558  35.053  14.716
81528W        W53953  37.004   4.327   0.821
81529W        W53954  19.755  12.233   0.795
81530W        W53955   4.185  28.506  13.362
81531W        W53956   4.221   2.251   0.471
81532W        W53957  21.848  19.155  13.817
81533W        W53958  18.577  17.824   0.491
81534W        W53959   1.747  15.577   2.730
81535W        W53960  41.313   2.618  10.967
81536W        W53961  33.418  12.878  10.350
81537W        W53962  34.882  27.847   4.632
81538W        W53963   5.817  19.494   1.075
81539W        W53964  13.647  42.502   2.801
81540W        W53965  24.209  11.655   5.465
81541W        W53966  14.336   4.291   4.779
81542W        W53967  13.288  19.888  13.955
81543W        W53968  24.521  20.481   0.661
81544W        W53969  43.134  29.153   3.291
81545W        W53970  14.008   6.089  10.940
81546W        W53971  19.617   2.339  13.476
81547W        W53972  43.357  14.962  13.060
81548W        W53973  34.119  40.092  14.213
81549W        W53974  13.609   9.392   4.095
81550W        W53975  17.908  44.808  13.489
81551W        W53976  38.544  10.693  12.017
81552W        W53977  15.909  17.524   4.874
81553W        W53978   7.725  31.718  13.362
81554W        W53979  19.049   1.834  14.963
81555W        W53980  21.632  35.926  14.531
81556W        W53981   3.666  38.436  14.803
81557W        W53982  25.848  16.804  11.599
81558W        W53983  29.852   6.822  13.018
81559W        W53984  22.611  32.531  12.572
81560W        W53985   1.479  30.664  11.497
81561W        W53986   6.750   1.744   3.172
81562W        W53987   5.409  10.313   2.682
81563W        W53988  23.861  32.432   9.591
81564W        W53989  44.652  41.076   0.224
81565W        W53990   5.148  38.860  11.882
81566W        W53991  10.329  10.079   5.145
81567W        W53992   5.382  43.359  13.498
81568W        W53993  26.417   4.393   1.908
81569W        W53994  44.158  23.156   2.294
81570W        W53995   1.781   2.469  14.376
81571W        W53996  19.669   2.964   2.357
81572W        W53997  23.573  16.478   4.459
81573W        W53998  44.138  18.039   2.267
81574W        W53999  36.348  43.264  11.127
81575W        W54000  15.476   0.781   5.074
81576W        W54001  11.757  18.050  13.839
81577W        W54002   8.226   4.018   4.255
81578W        W54003  28.125  27.978  12.014
81579W        W54004  42.058  19.085  12.290
81580W        W54005   9.650  33.393  12.580
81581W        W54006  27.538  26.675   4.066
81582W        W54007  21.440  18.450   0.236
81583W        W54008  22.237  26.729   1.381
81584W        W54009  20.388  20.229   2.885
81585W        W54010  14.199  17.006   4.588
81586W        W54011   6.775  18.576  12.194
81587W        W54012  13.755  33.115   0.323
81588W        W54013  42.424   4.324  10.644
81589W        W54014   2.736  10.939  13.770
81590W        W54015  23.026  17.010   2.328
81591W        W54016  34.436  25.000   4.634
81592W        W54017  17.492   5.480   0.391
81593W        W54018   5.760  16.886   0.449
81594W        W54019  41.507  30.867   2.272
81595W        W54020  25.227  31.393   2.165
81596W        W54021  17.912   6.439   0.386
81597W        W54022   3.566  19.296   1.337
81598W        W54023  16.065  30.901   5.023
81599W        W54024  43.578  23.412   3.688
81600W        W54025  19.046  32.094   1.471
81601W        W54026  32.071  27.964  13.357
81602W        W54027  26.056  22.993  11.851
81603W        W54028   6.907   0.969   0.764
81604W        W54029   5.270   3.657   4.434
81605W        W54030  24.416  36.487  12.565
81606W        W54031   9.128  30.671   0.622
81607W        W54032  44.049  10.685   1.010
81608W        W54033  36.776   7.022   2.644
81609W        W54034   4.210  14.606   3.162
81610W        W54035   2.819  16.511  14.700
81611W        W54036  16.989  11.890  12.404
81612W        W54037   4.312  20.560  10.608
81613W        W54038  26.462  20.202  14.723
81614W        W54039  35.852  35.902  12.432
81615W        W54040  14.601  24.140  10.534
81616W        W54041   7.871  27.679   1.528
81617W        W54042  32.462  34.858   2.283
81618W        W54043  38.540  27.241  10.363
81619W        W54044  26.593  16.567  12.666
81620W        W54045   1.969  21.549   1.415
81621W        W54046   7.335  23.205   1.645
81622W        W54047  41.335   6.633   0.387
81623W        W54048  17.211   4.679   1.365
81624W        W54049  31.956  13.717  11.554
81625W        W54050   2.027  17.543   1.549
81626W        W54051  32.278  29.419  13.550
81627W        W54052  36.629   5.907   1.415
81628W        W54053  21.211  35.101   2.700
81629W        W54054  29.603   3.339   2.268
81630W        W54055  34.381  10.163  11.498
81631W        W54056  24.148  42.388   0.143
81632W        W54057  24.808  25.879  14.410
81633W        W54058  28.047   9.294  10.658
81634W        W54059   2.047  25.245  14.387
81635W        W54060  28.364  17.066  11.478
81636W        W54061  30.272  11.835  11.910
81637W        W54062  33.891  27.012  13.907
81638W        W54063  14.388  36.828   3.658
81639W        W54064  30.988  26.447   1.008
81640W        W54065  23.119  21.476  13.400
81641W        W54066   1.454  16.966  12.025
81642W        W54067   6.348   4.712  11.352
81643W        W54068  20.594  42.978   0.915
81644W        W54069  30.133  18.274   4.836
81645W        W54070  10.630   9.815   0.828
81646W        W54071  18.147  25.569  11.514
81647W        W54072  12.717  22.665  14.862
81648W        W54073   9.837  10.933   3.816
81649W        W54074  19.451  14.328   1.462
81650W        W54075  10.847  20.628  10.566
81651W        W54076  43.785   2.970   4.768
81652W        W54077   8.303  15.079   2.862
81653W        W54078  21.234  41.588   4.881
81654W        W54079   1.223  31.017   4.867
81655W        W54080   7.724  28.591   1.879
81656W        W54081  34.878   6.512  11.567
81657W        W54082  24.018  25.146   3.692
81658W        W54083  15.009  25.110   3.610
81659W        W54084  28.915  15.563   3.650
81660W        W54085  31.071  33.621   2.023
81661W        W54086  21.732  28.929   3.259
81662W        W54087  10.610  24.754  14.049
81663W        W54088  36.508  41.124  11.879
81664W        W54089  41.305  24.487  14.386
81665W        W54090  43.276   1.652   2.874
81666W        W54091  25.041  36.450  10.729
81667W        W54092  41.224  38.522  13.786
81668W        W54093  39.852  33.031  11.449
81669W        W54094  12.626  43.701   2.914
81670W        W54095  41.392  34.055  13.145
81671W        W54096  12.921  33.523  11.001
81672W        W54097  38.303  26.077  10.723
81673W        W54098  28.580  26.856   3.244
81674W        W54099   6.392   6.150  14.447
81675W        W54100  15.496   2.860  10.426
81676W        W54101  19.228  39.576   3.953
81677W        W54102  40.880  11.770   4.721
81678W        W54103  24.121  24.142  12.945
81679W        W54104  15.822   6.852   3.695
81680W        W54105  19.757   0.709  14.485
81681W        W54106  32.225  16.820   0.012
81682W        W54107  41.568   2.140   0.282
81683W        W54108  37.082   3.600  10.466
81684W        W54109  16.342  25.656  13.946
81685W        W54110  10.824  15.380  14.845
81686W        W54111  44.533  38.905  13.368
81687W        W54112  23.262  38.797  14.749
81688W        W54113  11.612  25.120  10.951
81689W        W54114  37.958  26.577   0.453
81690W        W54115  24.035  25.820   4.635
81691W        W54116  15.227  24.008   2.191
81692W        W54117  30.220  22.109   3.260
81693W        W54118  21.774   2.009  11.267
81694W        W54119  14.835   6.718  14.281
81695W        W54120  43.398  33.128  13.529
81696W        W54121  31.026   6.871  12.610
81697W        W54122   6.320   6.489   0.017
81698W        W54123   0.294  23.510  11.513
81699W        W54124   5.195   2.787   3.479
81700W        W54125   8.704   0.975  13.930
81701W        W54126  41.535   7.721  13.879
81702W        W54127   0.486  29.927  11.067
81703W        W54128  34.403  37.151   0.470
81704W        W54129   4.481  23.635  10.667
81705W        W54130  27.453  16.216  11.194
81706W        W54131  33.652  29.993   3.234
81707W        W54132   8.307  44.544   1.380
81708W        W54133  28.330   4.894  11.945
81709W        W54134  43.819  28.393   1.907
81710W        W54135  31.864  29.449   3.381
81711W        W54136  20.736  20.069  13.480
81712W        W54137  43.935   8.176  12.808
81713W        W54138  18.163  10.162   4.304
81714W        W54139  34.996   3.265   4.343
81715W        W54140  43.773  30.648   4.664
81716W        W54141  29.681   5.898  14.000
81717W        W54142   6.261  40.117  13.576
81718W        W54143  38.560  24.626   0.478
81719W        W54144  24.648  24.408   3.985
81720W        W54145  29.695  33.671  12.174
81721W        W54146  31.573  24.890  13.870
81722W        W54147   8.243   4.674  13.374
81723W        W54148  17.321  12.351  12.480
81724W        W54149  28.927  34.494  14.734
81725W        W54150  11.695   9.404   3.637
81726W        W54151   3.350  39.221   3.852
81727W        W54152   2.271  32.960   4.842
81728W        W54153  11.559  42.804  14.491
81729W        W54154  27.418  23.603  14.767
81730W        W54155  30.215  26.960   1.441
81731W        W54156   0.042  42.504  12.375
81732W        W54157  30.658  36.086  10.695
81733W        W54158  31.016  28.960  10.954
81734W        W54159  36.944  20.556   3.164
81735W        W54160  28.861  13.257  12.287
81736W        W54161  17.045  32.527  11.919
81737W        W54162  12.816   0.306  13.870
81738W        W54163  30.734  40.892   2.875
81739W        W54164  11.849  26.974   3.309
81740W        W54165   0.420  24.588   0.961
81741W        W54166   5.689  36.957   3.714
81742W        W54167  11.417  44.891   3.853
81743W        W54168  39.014  19.496  14.761
81744W        W54169  40.442  42.474  14.767
81745W        W54170  35.576  23.087   0.537
81746W        W54171  42.750  41.126  10.556
81747W        W54172   4.877  21.152  12.966
81748W        W54173  21.887  13.715   3.241
81749W        W54174  35.445  18.844   0.258
81750W        W54175  11.077  39.168   0.655
81751W        W54176  40.398  16.034  13.483
81752W        W54177  15.943   7.215   1.736
81753W        W54178  16.422   7.692   2.352
81754W        W54179  39.369   5.227   1.401
81755W        W54180   1.434  32.626   2.147
81756W        W54181  10.177  44.421  13.875
81757W        W54182  20.624  17.354   2.895
81758W        W54183   7.685  42.964  11.998
81759W        W54184   2.389   8.389   0.772
81760W        W54185  31.906  26.161   2.665
81761W        W54186  39.333  29.075   2.788
81762W        W54187   2.690  23.145   3.262
81763W        W54188  40.840  12.155  12.755
81764W        W54189  34.360   9.616   1.461
81765W        W54190   5.707   5.422   1.778
81766W        W54191  34.989   6.597   4.551
81767W        W54192  10.174  43.000   2.331
81768W        W54193   4.259  30.187   0.212
81769W        W54194  41.911   3.252  12.966
81770W        W54195   5.262  18.981  12.094
81771W        W54196  27.244  22.739  10.575
81772W        W54197  30.143  37.438  13.958
81773W        W54198  38.095  37.776   3.227
81774W        W54199  25.253   1.327   4.342
81775W        W54200   8.604   0.408  13.420
81776W        W54201  31.268  14.667  13.345
81777W        W54202  36.469  44.264   0.356
81778W        W54203  40.764   8.896   2.705
81779W        W54204  34.328   8.218   0.730
81780W        W54205   9.835  34.654  11.366
81781W        W54206  39.061  30.908   2.818
81782W        W54207   4.930  43.393   1.803
81783W        W54208  33.835  22.486   3.233
81784W        W54209   2.143  25.977  11.177
81785W        W54210  18.852   2.978   0.399
81786W        W54211  33.786   7.014   0.411
81787W        W54212  38.054  31.140  12.519
81788W        W54213   2.923   9.340  12.922
81789W        W54214  18.025  39.821   1.348
81790W        W54215   8.366   4.312  11.453
81791W        W54216  23.521  26.990   2.864
81792W        W54217  38.485   5.136  14.388
81793W        W54218  36.061  28.864   1.054
81794W        W54219  21.810  36.925  13.082
81795W        W54220  44.401   6.855  12.942
81796W        W54221  14.784  21.474  11.619
81797W        W54222  40.080  38.249  14.744
81798W        W54223  25.805   4.786   5.014
81799W        W54224  30.131  38.780  10.293
81800W        W54225   1.933  32.609  13.791
81801W        W54226  14.794   8.960  11.119
81802W        W54227  22.973  43.384  11.738
81803W        W54228  37.331  26.802   2.645
81804W        W54229  27.718  21.163   4.138
81805W        W54230   0.894  38.799   0.838
81806W        W54231   1.876   8.150  13.511
81807W        W54232  30.057  41.248  10.543
81808W        W54233  21.762  40.546   1.528
81809W        W54234  13.799  29.529   1.291
81810W        W54235  16.320  23.471  14.622
81811W        W54236   0.969  15.597   0.918
81812W        W54237  37.118  26.529  14.326
81813W        W54238   2.990  30.181   3.627
81814W        W54239  34.377  21.665   2.396
81815W        W54240   8.499  14.708  10.729
81816W        W54241  34.423  22.634  13.750
81817W        W54242  24.531  10.415   4.338
81818W        W54243   7.693  37.892  12.988
81819W        W54244  28.405  23.830  12.383
81820W        W54245  29.463  13.051  11.128
81821W        W54246  12.249   0.913  11.880
81822W        W54247  38.805  20.690  11.258
81823W        W54248  44.320   7.192   1.269
81824W        W54249  29.197  22.437  13.063
81825W        W54250   6.469  31.771   4.873
81826W        W54251  11.273  18.244   4.615
81827W        W54252   4.589  33.683  13.347
81828W        W54253  19.004  21.715  13.070
81829W        W54254  38.791  12.767  14.819
81830W        W54255  32.194   8.868   9.980
81831W        W54256   0.829  13.751   4.243
81832W        W54257  40.791   5.055  11.901
81833W        W54258   4.761   0.780   4.970
81834W        W54259  23.944  27.206   3.024
81835W        W54260  20.851   0.465  12.220
81836W        W54261  34.080  25.654  11.594
81837W        W54262   9.890  31.516  13.199
81838W        W54263  43.858   5.948  13.293
81839W        W54264  31.516  14.119  14.404
81840W        W54265   8.631  18.100   2.321
81841W        W54266  13.386  35.630   4.174
81842W        W54267  37.749  19.936  13.378
81843W        W54268  29.207   9.383  14.233
81844W        W54269  21.229  41.371  14.564
81845W        W54270  29.653   4.850   1.493
81846W        W54271  42.888  26.563   4.190
81847W        W54272  27.645  28.086   3.707
81848W        W54273  30.576  13.283  14.968
81849W        W54274  35.406  35.305  14.085
81850W        W54275  39.563  12.681   0.279
81851W        W54276  31.165  14.282  14.049
81852W        W54277   6.875  40.721   1.075
81853W        W54278   2.826  37.105   1.897
81854W        W54279   5.479  30.622   2.303
81855W        W54280  15.283   2.075   9.686
81856W        W54281  15.886  26.940   4.204
81857W        W54282  12.606  32.522  13.472
81858W        W54283  16.935  34.608  10.191
81859W        W54284  34.910  14.159  10.860
81860W        W54285  39.004  37.221   4.568
81861W        W54286  11.681   4.279   2.337
81862W        W54287   7.960  44.271   0.741
81863W        W54288  37.504   1.911  13.528
81864W        W54289  21.684  12.748  12.030
81865W        W54290   0.615   1.756   2.994
81866W        W54291  15.814  10.217  12.691
81867W        W54292  24.455   0.364  10.512
81868W        W54293   7.686  34.935   4.043
81869W        W54294  32.472  28.966   2.667
81870W        W54295   1.721   7.202   3.361
81871W        W54296   0.481   6.889  11.192
81872W        W54297  27.972  41.618   0.389
81873W        W54298  23.220  30.941  13.549
81874W        W54299  16.373  24.560  13.111
81875W        W54300  36.916  42.983  12.097
81876W        W54301  44.817  23.647  13.842
81877W        W54302  10.298   7.241   4.583
81878W        W54303  11.663  20.821  14.898
81879W        W54304  24.178  20.987  14.378
81880W        W54305  12.212  25.006   0.700
81881W        W54306  26.601  27.514   2.625
81882W        W54307  32.357  22.610   3.186
81883W        W54308  42.070  24.203  13.033
81884W        W54309  38.996   2.923   3.983
81885W        W54310  19.616  38.771   0.746
81886W        W54311   6.764   2.507   2.740
81887W        W54312  27.639  15.267   4.227
81888W        W54313   4.245   7.090  11.769
81889W        W54314  32.346  42.725   0.216
81890W        W54315  44.861   2.914   1.782
81891W        W54316  41.019  18.497   1.716
81892W        W54317   6.595  20.603  14.368
81893W        W54318   8.681  23.646   2.157
81894W        W54319   0.904  10.292  10.628
81895W        W54320  40.099  39.622  12.976
81896W        W54321  20.526  30.404  12.071
81897W        W54322  14.900  14.241   4.316
81898W        W54323  12.327  35.115   3.646
81899W        W54324   5.499  24.945   4.238
81900W        W54325  35.179   8.426   5.530
81901W        W54326  19.655  33.518  10.508
81902W        W54327  11.329  30.011  10.691
81903W        W54328  40.359  38.504   4.236
81904W        W54329  41.017   8.673  14.898
81905W        W54330  14.247  26.921   2.314
81906W        W54331  29.035  37.935  12.285
81907W        W54332  36.543  34.040  13.404
81908W        W54333   7.926  40.244  13.081
81909W        W54334  19.709  10.969  11.123
81910W        W54335  33.591   1.857  11.950
81911W        W54336  39.886  20.579  13.888
81912W        W54337  41.181  14.366   4.737
81913W        W54338  43.444  35.120   4.540
81914W        W54339   1.346  28.384   2.846
81915W        W54340  10.620  26.453  12.066
81916W        W54341  14.408  41.025   3.930
81917W        W54342  10.061  11.182  10.087
81918W        W54343  35.198  11.602   1.759
81919W        W54344  26.860   6.801   0.930
81920W        W54345  22.014  36.626  11.549
81921W        W54346  10.193  19.009  12.535
81922W        W54347  21.015  15.969  13.282
81923W        W54348  24.496  42.705   0.392
81924W        W54349  43.033  44.982   0.660
81925W        W54350  43.898  44.414  10.931
81926W        W54351  22.673  39.384   3.042
81927W        W54352  38.893   6.229   0.969
81928W        W54353   8.885  25.689   2.589
81929W        W54354  30.468  24.974   2.364
81930W        W54355  42.549  10.650  11.159
81931W        W54356  44.500  17.691   2.121
81932W        W54357  14.343  38.601  11.021
81933W        W54358  22.718  28.602  13.139
81934W        W54359  24.548   2.503   4.662
81935W        W54360   5.401  33.621  12.502
81936W        W54361   7.172  11.228   3.013
81937W        W54362  25.407   4.422  12.372
81938W        W54363  28.585  26.182  12.063
81939W        W54364  17.212  39.112   0.450
81940W        W54365  42.566  39.937   1.856
81941W        W54366  27.361  29.630  14.405
81942W        W54367  42.719  40.227  12.049
81943W        W54368  35.031  18.639  12.967
81944W        W54369  38.787   9.829   0.278
81945W        W54370  18.813  24.499   4.715
81946W        W54371   4.502  42.009   3.658
81947W        W54372  27.857   9.887   1.368
81948W        W54373  29.193  32.005   2.796
81949W        W54374  28.338  15.079   2.116
81950W        W54375   4.947  15.348   4.694
81951W        W54376  43.346  25.086  13.022
81952W        W54377  11.770  34.013  10.995
81953W        W54378  30.651   1.382  13.885
81954W        W54379  36.509  44.653   0.731
81955W        W54380  43.850   8.746  14.344
81956W        W54381  18.489  33.656   0.840
81957W        W54382  14.337  21.606  11.892
81958W        W54383  42.511   6.325  10.624
81959W        W54384   7.739   6.784  14.089
81960W        W54385  13.109   5.468   3.291
81961W        W54386  26.025  30.581   3.742
81962W        W54387  27.152  17.106   1.898
81963W        W54388  24.074  22.460  11.071
81964W        W54389  17.210  15.705  10.036
81965W        W54390  25.704  44.708   4.640
81966W        W54391  26.929  25.015   0.745
81967W        W54392  28.626  15.332   1.751
81968W        W54393  41.107  32.974   1.486
81969W        W54394  39.914   0.276   1.894
81970W        W54395  29.202   1.245  10.897
81971W        W54396  24.190  18.916  12.068
81972W        W54397  17.570   5.689  12.004
81973W        W54398  42.659  27.708   4.124
81974W        W54399  24.075  15.606  11.559
81975W        W54400  44.929  24.045   3.184
81976W        W54401  15.362  11.069   3.147
81977W        W54402  33.076  18.923  11.527
81978W        W54403  38.568  19.139  11.468
81979W        W54404  19.964  18.655  11.140
81980W        W54405  30.538  26.988  11.911
81981W        W54406  16.372  24.170  11.652
81982W        W54407  30.778   7.676  12.305
81983W        W54408  36.104  28.229   0.231
81984W        W54409   5.653  11.643   2.680
81985W        W54410  28.059  21.556   4.037
81986W        W54411   3.383  27.399  13.486
81987W        W54412   4.228  39.563   0.484
81988W        W54413  28.666   0.296  13.921
81989W        W54414  22.245  34.841  14.428
81990W        W54415  16.298  40.842  13.130
81991W        W54416  10.941  26.914   2.950
81992W        W54417   2.494  43.232  11.719
81993W        W54418  29.179  14.682  12.131
81994W        W54419  42.650   6.429   4.164
81995W        W54420  36.416  10.136   2.218
81996W        W54421  16.874  34.658   1.860
81997W        W54422  14.942   4.212   5.357
81998W        W54423  27.253  30.640  12.920
81999W        W54424   9.651   7.091  12.934
82000W        W54425  12.643  22.142   2.202
82001W        W54426  12.229  26.216   4.137
82002W        W54427  33.013   6.686   3.735
82003W        W54428  41.965  30.564  13.414
82004W        W54429  18.204  33.196   0.914
82005W        W54430  27.421  15.626   4.597
82006W        W54431   6.820   5.494  12.353
82007W        W54432  28.579   5.209   2.705
82008W        W54433  38.922   1.956   5.024
82009W        W54434  21.735   1.511  14.403
82010W        W54435   1.834  24.966   4.121
82011W        W54436  32.112   4.553  14.459
82012W        W54437   0.873  23.982  13.412
82013W        W54438   0.852  14.198   2.416
82014W        W54439  41.958  26.160  12.594
82015W        W54440   8.147  29.597  13.010
82016W        W54441  31.034  42.272  13.035
82017W        W54442  38.994  29.984  14.173
82018W        W54443  40.003  31.101   2.764
82019W        W54444   0.926  39.623  14.810
82020W        W54445  19.125  23.869   2.324
82021W        W54446  35.894  24.631  10.846
82022W        W54447  19.739   7.442  11.988
82023W        W54448  24.938  29.608   5.117
82024W        W54449  26.448  16.771  10.064
82025W        W54450  13.253   7.901   2.348
82026W        W54451  42.437  19.058   0.517
82027W        W54452  20.037   4.963   3.342
82028W        W54453  11.071  22.285   3.172
82029W        W54454  31.730  42.568  10.945
82030W        W54455  13.621  17.970  13.857
82031W        W54456  11.381  32.502  14.847
82032W        W54457  28.947   7.510   3.718
82033W        W54458  35.623  34.473  11.593
82034W        W54459  22.348   8.879   3.743
82035W        W54460  44.229   8.925  13.345
82036W        W54461  20.620   2.702  11.280
82037W        W54462   8.871  36.950  13.032
82038W        W54463  33.634  12.316  12.569
82039W        W54464   8.917   5.728   2.859
82040W        W54465  41.896  40.700  13.526
82041W        W54466  19.159  33.224   1.015
82042W        W54467   1.188  31.467  10.375
82043W        W54468   0.711  33.558   4.153
82044W        W54469   4.926  16.564  10.496
82045W        W54470  32.455   7.774   0.872
82046W        W54471  26.631   3.899   4.385
82047W        W54472  25.744   3.437   1.255
82048W        W54473  30.411  33.275  12.549
82049W        W54474  23.865  29.861   3.687
82050W        W54475   4.106  10.861   4.585
82051W        W54476  24.645  21.765  13.559
82052W        W54477   8.380  40.795  11.961
82053W        W54478  23.187  36.343  14.056
82054W        W54479  15.538  18.294  12.074
82055W        W54480   3.849  39.839   3.722
82056W        W54481  13.758   8.452   0.012
82057W        W54482  35.988  28.989  14.073
82058W        W54483  20.558   6.247   1.729
82059W        W54484  43.621  26.533   1.868
82060W        W54485  27.087  37.340   0.176
82061W        W54486   4.790  38.754  11.523
82062W        W54487   8.280  34.606   0.061
82063W        W54488  42.347  29.359  12.334
82064W        W54489  24.555   7.709  14.800
82065W        W54490  43.530   8.284  11.922
82066W        W54491   0.715  31.022  13.798
82067W        W54492   5.148  44.310   4.272
82068W        W54493   7.386  36.905  11.159
82069W        W54494   5.624  27.932  14.522
82070W        W54495  17.404  11.799  12.008
82071W        W54496  44.457  26.028  14.321
82072W        W54497  13.184  10.659   0.813
82073W        W54498  39.779   3.897  12.528
82074W        W54499  32.827   2.110   1.668
82075W        W54500  14.701  12.172  14.760
82076W        W54501  24.197  35.442   1.413
82077W        W54502  13.353  36.280  12.329
82078W        W54503  10.828   7.970   1.679
82079W        W54504  15.920  36.376  13.437
82080W        W54505  40.397   3.141   2.111
82081W        W54506  42.811  30.095   0.468
82082W        W54507  44.001   7.806   1.486
82083W        W54508  35.086  14.683   1.761
82084W        W54509  42.868  32.999  10.582
82085W        W54510  36.973  25.544   1.536
82086W        W54511  33.151  19.638  10.674
82087W        W54512   3.267  34.033   4.852
82088W        W54513  18.991   2.943  13.796
82089W        W54514  25.000  37.920   0.128
82090W        W54515  28.197  27.247   2.813
82091W        W54516  27.616  23.236   3.173
82092W        W54517  20.367  26.420  12.088
82093W        W54518  26.716   0.747  13.737
82094W        W54519  30.123  20.669   3.479
82095W        W54520  19.965  13.599  11.651
82096W        W54521  19.277  43.943   4.510
82097W        W54522   3.049  32.199   3.087
82098W        W54523   9.357  39.894  13.896
82099W        W54524  34.965   4.490   2.687
82100W        W54525  42.242  43.488   4.198
82101W        W54526   2.306  18.099  10.680
82102W        W54527  40.256  34.769   0.251
82103W        W54528  22.808  19.266  12.001
82104W        W54529  22.846  38.379  10.156
82105W        W54530   8.980   6.915   3.303
82106W        W54531   2.847  24.651  11.555
82107W        W54532  20.498   6.935   3.793
82108W        W54533   0.985  19.357  12.034
82109W        W54534   2.928   0.310   1.796
82110W        W54535  30.396   8.888   4.053
82111W        W54536  33.403  27.808   5.024
82112W        W54537   3.558  12.619  14.070
82113W        W54538   5.886   0.450   2.066
82114W        W54539  17.086   6.727  14.014
82115W        W54540  20.834  29.309   1.024
82116W        W54541  32.150   9.878  11.956
82117W        W54542  33.542   7.194   0.817
82118W        W54543  39.053  14.052  12.839
82119W        W54544  36.268   6.148  10.320
82120W        W54545   8.095  44.094   0.276
82121W        W54546  36.407  14.324  10.658
82122W        W54547  13.119  42.340  10.970
82123W        W54548  40.511  32.044  14.909
82124W        W54549  43.992  32.052   0.289
82125W        W54550  33.674  14.176  13.386
82126W        W54551   1.417  43.312  14.663
82127W        W54552  18.635  26.291  11.512
82128W        W54553  42.361  32.193   4.075
82129W        W54554   8.312   7.717   1.919
82130W        W54555  12.568  31.759  11.598
82131W        W54556  33.981  39.332  11.614
82132W        W54557  10.641  21.334  11.083
82133W        W54558  10.673  24.792   0.004
82134W        W54559  30.427   2.858  12.473
82135W        W54560  25.183   7.535   2.102
82136W        W54561  34.510  18.692  12.972
82137W        W54562   9.675  23.499  10.807
82138W        W54563  13.401  35.628   1.644
82139W        W54564  29.395   0.539   0.003
82140W        W54565  12.608  40.715   4.031
82141W        W54566  39.140  42.698  14.970
82142W        W54567   6.423   9.804   4.171
82143W        W54568  25.165  41.255   0.048
82144W        W54569  21.614  29.700  13.344
82145W        W54570  25.249  37.672  11.169
82146W        W54571  32.698  18.519  14.449
82147W        W54572  27.052  33.835  14.966
82148W        W54573  37.830  19.174  13.916
82149W        W54574  44.031  34.153   3.607
82150W        W54575  34.576  41.807   3.596
82151W        W54576   5.855  14.934   1.645
82152W        W54577  11.820  10.957  11.984
82153W        W54578  29.979  42.967  13.976
82154W        W54579  34.592   0.373  13.548
82155W        W54580  37.721   0.225   0.838
82156W        W54581  35.274  43.949   1.869
82157W        W54582  22.209  44.890   2.649
82158W        W54583  41.184  12.791   3.698
82159W        W54584  20.687   8.158   0.777
82160W        W54585  13.960  37.573   0.355
82161W        W54586  35.124  36.543  12.448
82162W        W54587  40.115   7.792   1.444
82163W        W54588  35.599  40.821  13.808
82164W        W54589  21.994  36.480  12.430
82165W        W54590  20.751   9.115  14.976
82166W        W54591  44.826  31.085  10.356
82167W        W54592  14.739  40.393   3.389
82168W        W54593   8.045  13.483  12.330
82169W        W54594   6.813  39.833  11.543
82170W        W54595  35.145  14.306   0.459
82171W        W54596  32.974   6.695   2.894
82172W        W54597  44.713  30.957   1.167
82173W        W54598  25.676  28.408  12.614
82174W        W54599  23.794  29.681  12.968
82175W        W54600  36.271   9.226  13.906
82176W        W54601  30.665  36.839   2.288
82177W        W54602  25.696  31.637  14.836
82178W        W54603   6.221   6.931   2.831
82179W        W54604  10.784  33.315   4.436
82180W        W54605  31.420   5.653  13.964
82181W        W54606  19.056  16.466   0.811
82182W        W54607   6.939  15.429  12.912
82183W        W54608  27.131  30.682  11.478
82184W        W54609  23.193   7.138  11.079
82185W        W54610   9.453   7.352   4.157
82186W        W54611  32.966   1.800   1.284
82187W        W54612  17.067  37.955   1.190
82188W        W54613  16.354  27.185   4.113
82189W        W54614  44.640   5.536  13.521
82190W        W54615  26.645  34.544   1.223
82191W        W54616  28.965  30.943  14.087
82192W        W54617   6.773  16.858   2.192
82193W        W54618  19.732  42.757  13.289
82194W        W54619  35.745  29.920   4.531
82195W        W54620  43.341  25.462   2.714
82196W        W54621  17.213  34.872   1.342
82197W        W54622   2.719   0.551   4.035
82198W        W54623   7.744   0.785  12.827
82199W        W54624  24.198  15.196  12.501
82200W        W54625  28.271  42.180   2.833
82201W        W54626  34.376  36.180  12.516
82202W        W54627   8.915  41.408   1.400
82203W        W54628  15.339   5.762  10.489
82204W        W54629  14.028   6.369  13.819
82205W        W54630  15.811  34.021   5.102
82206W        W54631   7.783  19.015   0.025
82207W        W54632  18.351  14.288   0.546
82208W        W54633  14.524   5.321   2.305
82209W        W54634  19.099  24.825   2.879
82210W        W54635  35.403  39.114  11.123
82211W        W54636  28.995  39.983   2.365
82212W        W54637  36.292  23.230  11.667
82213W        W54638  36.024  33.639  14.480
82214W        W54639  43.846  18.305  13.490
82215W        W54640  30.904  17.363   3.219
82216W        W54641   8.880  35.959   1.111
82217W        W54642  26.970  19.177   2.077
82218W        W54643  28.142  30.942  11.176
82219W        W54644  16.105  28.167   4.705
82220W        W54645  33.150  19.550  12.851
82221W        W54646  18.657  32.549  14.899
82222W        W54647  36.824  39.537  14.972
82223W        W54648  24.595   3.433   2.376
82224W        W54649   8.093   1.993  12.578
82225W        W54650  34.621   3.769   2.321
82226W        W54651  20.833  28.507   2.762
82227W        W54652  39.889  19.591  14.313
82228W        W54653  20.697  27.456  14.133
82229W        W54654  23.812  19.441  13.885
82230W        W54655   0.259  19.238  14.307
82231W        W54656  16.616   9.314   0.701
82232W        W54657  25.628  39.722  12.995
82233W        W54658  22.598  31.018   2.177
82234W        W54659   6.746  44.282  11.993
82235W        W54660  27.026  16.877  12.957
82236W        W54661  30.159  18.065  12.237
82237W        W54662  44.914  41.458   3.319
82238W        W54663  24.511  21.219   1.853
82239W        W54664  16.191  40.581  13.563
82240W        W54665  32.914   2.620   2.847
82241W        W54666   5.321  20.801  13.712
82242W        W54667  33.131  33.856   0.991
82243W        W54668  32.634  23.858  10.308
82244W        W54669  39.813   7.610  10.593
82245W        W54670  42.530  36.011  13.878
82246W        W54671  21.451  26.851  13.989
82247W        W54672  30.579  30.401   4.754
82248W        W54673  20.306  10.898   0.239
82249W        W54674   8.489  17.677  14.460
82250W        W54675  16.217  24.023   4.772
82251W        W54676   2.109  11.627   1.368
82252W        W54677   0.027   2.050  12.199
82253W        W54678  40.041   5.524  10.706
82254W        W54679  25.698   2.567  11.623
82255W        W54680   5.516  16.887   4.841
82256W        W54681  33.993  20.603   3.234
82257W        W54682  44.684  11.173  12.355
82258W        W54683  16.089   6.008  10.060
82259W        W54684  29.991  38.049   0.887
82260W        W54685   4.292   7.644   1.937
82261W        W54686  32.915   7.972   2.252
82262W        W54687   0.927  35.678  12.038
82263W        W54688  27.068   5.690   4.733
82264W        W54689  24.567  32.788   3.782
82265W        W54690  41.532  43.283   3.672
82266W        W54691  40.449  37.950   0.933
82267W        W54692  34.562  21.211   4.290
82268W        W54693   7.875   4.949  12.081
82269W        W54694  44.206   8.006   3.664
82270W        W54695  10.814  27.083  13.796
82271W        W54696  40.289  36.473   1.561
82272W        W54697  29.942   5.137  10.677
82273W        W54698  26.770  13.693   2.125
82274W        W54699  34.155  23.302   0.320
82275W        W54700  18.183  37.541   1.911
82276W        W54701  42.423   9.803   3.499
82277W        W54702  39.539  19.050  11.564
82278W        W54703  19.501  40.541   2.413
82279W        W54704  17.199  40.745  13.561
82280W        W54705  26.380  32.206  11.242
82281W        W54706   1.347   1.239   4.216
82282W        W54707  35.310  17.252  12.555
82283W        W54708  21.508  29.024  12.857
82284W        W54709  35.651  42.322   4.659
82285W        W54710  21.284  19.028  10.733
82286W        W54711  35.068   1.853   3.185
82287W        W54712  40.398   0.728   4.592
82288W        W54713   9.784   2.486   2.125
82289W        W54714   3.584  35.957  12.123
82290W        W54715   7.956  20.381   2.398
82291W        W54716   9.044  43.666   3.629
82292W        W54717   9.132  26.493  14.226
82293W        W54718  38.292  21.990   4.159
82294W        W54719  33.296   1.456  11.950
82295W        W54720   5.261  40.433   1.632
82296W        W54721  27.067  28.652   2.242
82297W        W54722  11.430  20.184  14.050
82298W        W54723  24.904  37.427   1.122
82299W        W54724   6.176   2.236   1.950
82300W        W54725  31.921  14.398   4.136
82301W        W54726  22.105  10.887   4.143
82302W        W54727  15.879  35.129  10.993
82303W        W54728  35.315  34.199   1.475
82304W        W54729  38.546  13.033  13.900
82305W        W54730   7.027  21.614   0.058
82306W        W54731  30.222  23.397   1.214
82307W        W54732  44.842   2.560   1.382
82308W        W54733  41.800  44.222  11.048
82309W        W54734  36.459   6.459  13.015
82310W        W54735  19.331  14.526  12.707
82311W        W54736  25.213  19.764   2.781
82312W        W54737  14.763  22.920  10.588
82313W        W54738  17.718  21.789   1.946
82314W        W54739  39.356  30.627   3.290
82315W        W54740  26.160  13.564   0.481
82316W        W54741  40.736   1.003  11.603
82317W        W54742   7.173  22.870  11.736
82318W        W54743   1.013  13.359   0.947
82319W        W54744  23.768  11.120   2.206
82320W        W54745  25.260   6.358  11.100
82321W        W54746  36.775  32.068   4.582
82322W        W54747  32.412  25.427  10.963
82323W        W54748  27.104  38.886   0.469
82324W        W54749  10.364  32.894   2.402
82325W        W54750  24.412  34.868   3.955
82326W        W54751  30.505  14.253  11.803
82327W        W54752   6.179  21.569   1.671
82328W        W54753   2.064  12.638  13.324
82329W        W54754   8.753  17.600   0.932
82330W        W54755  34.231   5.601  13.030
82331W        W54756  29.835  13.310   0.428
82332W        W54757  18.547  17.183  13.198
82333W        W54758  37.097  18.655  12.718
82334W        W54759   1.027  31.761   3.904
82335W        W54760  41.385  35.380   1.771
82336W        W54761  15.582   3.728   9.848
82337W        W54762  28.015  23.157   2.315
82338W        W54763  19.197  23.485   0.961
82339W        W54764  21.045  37.257  14.132
82340W        W54765  36.357   3.480   2.315
82341W        W54766  28.868   7.381  11.128
82342W        W54767  10.690  27.627  10.578
82343W        W54768  19.655  14.766  14.239
82344W        W54769  16.585  32.376   5.552
82345W        W54770  30.825  36.515   2.732
82346W        W54771  22.513  17.183   1.659
82347W        W54772  23.059  26.454   5.074
82348W        W54773  26.681   5.967   0.419
82349W        W54774  12.059  24.120  11.014
82350W        W54775  41.451  32.004   0.404
82351W        W54776   5.984   6.467   3.707
82352W        W54777   6.875  15.239  14.473
82353W        W54778  34.629  30.983   3.730
82354W        W54779  30.152  12.315   1.559
82355W        W54780   0.993   6.410   2.843
82356W        W54781  19.540  29.021  13.920
82357W        W54782   4.590  32.135   5.006
82358W        W54783  35.551  30.119  13.498
82359W        W54784  30.177  26.870  10.796
82360W        W54785   6.158  18.747   4.839
82361W        W54786   6.481  16.945   4.541
82362W        W54787  31.497  16.586  12.521
82363W        W54788  36.861  12.667   3.150
82364W        W54789  38.766  16.213  12.324
82365W        W54790  42.768  25.517  12.434
82366W        W54791  33.445  34.015   2.288
82367W        W54792  35.834   7.324  11.368
82368W        W54793  19.418  14.092   9.934
82369W        W54794  25.900  15.912  14.470
82370W        W54795  37.444  25.201  10.282
82371W        W54796   8.788  38.417   3.160
82372W        W54797  10.745  32.980  14.163
82373W        W54798   4.397  21.041  13.067
82374W        W54799  31.000  32.900   4.102
82375W        W54800  25.643  18.056  11.999
82376W        W54801  34.966  25.843  10.660
82377W        W54802   1.387  41.309   0.283
82378W        W54803  33.459  37.596  11.537
82379W        W54804  39.237  21.772  12.043
82380W        W54805  13.666  24.804  10.060
82381W        W54806  31.383  21.831   5.464
82382W        W54807  13.566  22.476  14.652
82383W        W54808  15.236  24.700  14.683
82384W        W54809  18.602  16.535   2.807
82385W        W54810  30.707   9.647   1.208
82386W        W54811   4.489  12.324   2.290
82387W        W54812  24.733  37.706  12.871
82388W        W54813  16.153  29.477  13.439
82389W        W54814  14.572   3.771   0.390
82390W        W54815   8.660  16.814   3.007
82391W        W54816  41.124  20.095   5.006
82392W        W54817  15.876  28.922  11.623
82393W        W54818  35.526  39.826  14.135
82394W        W54819  37.976   4.565  10.470
82395W        W54820  38.076   5.095   4.462
82396W        W54821  33.952  38.818  11.686
82397W        W54822  18.565  43.028   4.609
82398W        W54823   8.948   9.892   0.502
82399W        W54824  15.877  37.445   1.918
82400W        W54825   3.344  31.104   2.254
82401W        W54826  43.992  43.397   4.593
82402W        W54827   1.855   2.848   1.782
82403W        W54828  21.527  22.259   3.456
82404W        W54829  25.232  20.173  11.557
82405W        W54830   5.696   0.775   3.128
82406W        W54831  32.923   2.983  12.378
82407W        W54832  38.521  33.992   2.967
82408W        W54833  17.665  22.618  10.355
82409W        W54834  33.054  43.355  12.171
82410W        W54835  11.889  22.474   5.020
82411W        W54836  21.850  28.874   1.703
82412W        W54837  32.485  10.830  14.859
82413W        W54838  31.750  15.621  14.975
82414W        W54839  34.008   4.317  13.267
82415W        W54840   1.289  34.568  12.455
82416W        W54841   9.330  37.205   0.799
82417W        W54842  23.604   8.203   3.245
82418W        W54843   5.911   5.639  12.229
82419W        W54844  34.885  25.112  13.816
82420W        W54845  24.466  44.801  13.927
82421W        W54846  34.282   9.271  11.741
82422W        W54847  25.115  21.729   0.829
82423W        W54848  14.873  38.624  13.052
82424W        W54849  40.060   2.795   3.705
82425W        W54850  40.298  39.608  14.347
82426W        W54851  22.680  30.434   4.714
82427W        W54852  26.513  40.239  11.887
82428W        W54853  22.068  29.421  13.304
82429W        W54854  25.538  35.127   2.658
82430W        W54855  34.177  44.511  12.439
82431W        W54856   3.689   0.463   0.703
82432W        W54857  29.766   8.192   3.642
82433W        W54858  42.971  19.614   9.886
82434W        W54859  10.348  27.955  13.282
82435W        W54860  44.958  38.248  14.431
82436W        W54861  21.252  42.128   4.981
82437W        W54862  15.391   6.573   0.396
82438W        W54863   6.146  37.586  11.241
82439W        W54864  30.311  19.073  14.214
82440W        W54865   9.124   4.161   4.532
82441W        W54866  17.520  28.082  10.733
82442W        W54867   3.338  14.365   2.314
82443W        W54868   5.314  33.410   0.639
82444W        W54869  12.684  19.166   3.201
82445W        W54870  18.626   0.491   0.009
82446W        W54871  35.115  19.768   3.297
82447W        W54872  17.366  23.662  12.860
82448W        W54873  32.037  15.718   4.670
82449W        W54874  15.336  30.698  11.663
82450W        W54875   3.672  20.163  11.729
82451W        W54876  32.993   4.818  12.604
82452W        W54877   7.271  23.681  14.087
82453W        W54878   3.735   2.336  10.803
82454W        W54879  17.428  44.692   1.527
82455W        W54880  28.398  20.030   3.016
82456W        W54881  27.530  41.822   0.165
82457W        W54882   9.779  19.292   1.656
82458W        W54883  40.759  30.307   1.879
82459W        W54884   1.519  19.035  14.276
82460W        W54885  12.200   2.343  13.336
82461W        W54886  35.564  20.968   4.761
82462W        W54887  11.305  26.658  14.542
82463W        W54888  32.933  25.017   1.814
82464W        W54889   6.688  28.249  10.365
82465W        W54890  23.481  18.621  13.422
82466W        W54891  33.998  21.206   0.510
82467W        W54892  13.584  31.110   2.687
82468W        W54893  23.674  30.634   4.549
82469W        W54894  41.720  24.927   3.678
82470W        W54895   3.352  28.220   4.265
82471W        W54896  12.700  12.303  13.809
82472W        W54897  29.273  40.346   2.690
82473W        W54898  12.304   2.208   1.408
82474W        W54899  37.287  14.160  13.349
82475W        W54900  12.809  10.657   4.185
82476W        W54901  28.037   9.308   2.286
82477W        W54902  18.591  23.176   1.022
82478W        W54903  32.505  27.463   1.747
82479W        W54904  14.923  39.048  13.353
82480W        W54905  12.941  20.806  11.571
82481W        W54906  16.802  10.749   1.998
82482W        W54907  22.518   5.364   3.225
82483W        W54908  24.497  35.093   4.936
82484W        W54909  10.795  19.619   2.310
82485W        W54910  32.405  30.523  13.414
82486W        W54911  16.292  29.412  10.437
82487W        W54912  15.594  18.195   1.282
82488W        W54913  28.887  18.741   0.043
82489W        W54914   9.314  18.697  13.791
82490W        W54915  35.504  16.482  12.094
82491W        W54916   6.608  36.241   3.647
82492W        W54917  20.783  13.672  13.548
82493W        W54918  25.388  27.263   2.731
82494W        W54919  23.158  16.025   4.473
82495W        W54920  25.109  18.317   2.425
82496W        W54921  22.105   6.200   3.408
82497W        W54922  44.550   9.148   0.429
82498W        W54923  27.667  24.053  13.713
82499W        W54924  44.436  40.014  14.605
82500W        W54925  21.234  43.866  13.253
82501W        W54926  40.523  23.765  10.689
82502W        W54927  27.934  37.679   1.040
82503W        W54928  40.985   6.878  12.302
82504W        W54929  36.860   0.780  13.759
82505W        W54930  40.374  13.907   1.811
82506W        W54931  20.755  44.702   0.315
82507W        W54932  17.277   9.333  13.416
82508W        W54933   4.480  15.153  11.950
82509W        W54934  23.486  22.842  14.944
82510W        W54935   7.471  10.148  13.801
82511W        W54936  13.713  14.771   2.731
82512W        W54937   9.458  43.212   0.216
82513W        W54938   5.527   3.581   0.462
82514W        W54939  11.741  18.059   0.791
82515W        W54940  40.100  36.961   2.754
82516W        W54941  35.829  36.979  13.904
82517W        W54942   7.676  41.794  11.279
82518W        W54943   5.684  39.434  13.096
82519W        W54944  38.930  15.336  12.035
82520W        W54945  12.364  24.017   4.574
82521W        W54946  14.362  35.005   3.836
82522W        W54947   2.897  39.868  12.943
82523W        W54948   6.894  35.434  10.699
82524W        W54949  35.903  26.637  10.304
82525W        W54950  40.274  42.962   2.381
82526W        W54951  36.385  22.424  10.621
82527W        W54952   2.773  22.363   4.607
82528W        W54953  25.662  31.106  13.468
82529W        W54954  31.025  30.473  11.986
82530W        W54955  44.894  25.763  11.408
82531W        W54956   6.888  42.000  14.077
82532W        W54957   3.726  30.511  12.121
82533W        W54958  42.765  44.873   3.846
82534W        W54959  43.060  13.895   3.825
82535W        W54960  12.870  28.464  11.606
82536W        W54961  35.292   8.744   3.705
82537W        W54962  14.785  10.495   2.894
82538W        W54963  17.039  18.215  11.114
82539W        W54964   0.328  31.004  13.449
82540W        W54965  44.750  17.235  11.838
82541W        W54966  32.602   4.785  13.363
82542W        W54967  14.884  33.521  13.377
82543W        W54968  18.505   0.171  10.918
82544W        W54969  20.040  25.566  13.267
82545W        W54970   1.799  19.900  12.465
82546W        W54971  12.885  27.235  13.008
82547W        W54972  35.811   9.366  12.528
82548W        W54973  32.345  18.300   3.216
82549W        W54974  41.688   7.427   0.219
82550W        W54975  28.109   1.177  13.076
82551W        W54976  13.440   0.848   1.774
82552W        W54977  28.718  20.838   0.019
82553W        W54978  21.633  12.483   4.046
82554W        W54979  34.363   5.958   4.312
82555W        W54980  35.495  11.770  13.272
82556W        W54981  18.844  40.570   3.247
82557W        W54982  28.079  26.423   1.040
82558W        W54983  20.189  27.593   0.849
82559W        W54984  11.647  27.917   0.204
82560W        W54985  17.164  16.331   0.878
82561W        W54986  34.334  31.416   4.632
82562W        W54987  28.856  37.513   4.152
82563W        W54988  23.709  30.490   0.419
82564W        W54989   4.907  25.244   2.158
82565W        W54990   3.801   1.705   0.833
82566W        W54991  12.627  26.986  10.993
82567W        W54992   9.320  38.985  14.407
82568W        W54993   4.037  15.304   2.775
82569W        W54994   3.445  18.663   4.496
82570W        W54995  33.345   4.270  11.007
82571W        W54996  36.419  39.078  11.257
82572W        W54997  27.043   2.987   0.716
82573W        W54998  33.122  24.443  14.536
82574W        W54999   7.380  10.432  12.411
82575W        W55000  17.998   8.848  13.197
82576W        W55001  27.861  20.220  14.830
82577W        W55002  42.940   8.146  11.118
82578W        W55003   9.428  14.164  12.376
82579W        W55004  34.103  30.949   3.769
82580W        W55005  35.292  35.313  12.868
82581W        W55006  21.714  11.652   4.313
82582W        W55007  43.186  14.040  13.462
82583W        W55008  41.952   2.401   2.730
82584W        W55009  37.063   8.271   2.413
82585W        W55010  32.108  16.064   2.637
82586W        W55011  30.871  43.786  11.006
82587W        W55012   2.355  33.561   3.246
82588W        W55013  33.569  14.181  11.187
82589W        W55014  23.740  33.019   1.381
82590W        W55015  32.053   5.787   3.968
82591W        W55016  26.165  43.970   1.630
82592W        W55017   7.845  43.700  10.949
82593W        W55018   8.130  18.843   1.863
82594W        W55019  23.635  42.547   0.065
82595W        W55020   6.903   3.575  10.727
82596W        W55021   2.985  21.368   2.655
82597W        W55022  11.216  20.926   2.240
82598W        W55023  11.313  12.170  12.297
82599W        W55024  42.606   3.864   0.934
82600W        W55025  18.066   4.889  14.741
82601W        W55026   4.672  18.833  14.948
82602W        W55027   6.890  13.449   1.780
82603W        W55028  16.246  13.637  11.185
82604W        W55029  18.181  23.139   4.109
82605W        W55030  31.023  28.476   1.705
82606W        W55031   4.836  20.089   3.748
82607W        W55032   6.435   1.857   1.130
82608W        W55033   3.832  33.192  13.842
82609W        W55034   8.301  42.505   4.662
82610W        W55035  27.189  34.928  12.113
82611W        W55036   3.936  40.248  11.258
82612W        W55037  11.633  16.123   1.669
82613W        W55038   3.807  26.115   2.182
82614W        W55039  18.246  37.281  12.811
82615W        W55040  35.083  42.928  13.999
82616W        W55041  17.782   8.713   0.340
82617W        W55042  10.418  42.297  14.005
82618W        W55043  19.747  28.595   1.249
82619W        W55044  13.787  33.172  13.387
82620W        W55045   0.320  34.531   2.203
82621W        W55046  14.090  30.877   2.169
82622W        W55047  23.252  32.004  11.510
82623W        W55048   3.323  31.278  13.975
82624W        W55049   8.436  28.740   4.572
82625W        W55050  39.999   5.217   0.824
82626W        W55051  26.607  20.224   4.589
82627W        W55052   8.476  21.654  12.323
82628W        W55053  24.919  19.245   4.663
82629W        W55054  10.443  13.021   3.235
82630W        W55055   1.909   9.201   1.039
82631W        W55056   1.445   0.247   2.652
82632W        W55057  31.013  27.264   3.258
82633W        W55058  42.328   6.790   2.312
82634W        W55059  40.341  21.957   5.402
82635W        W55060   6.461  13.745   1.639
82636W        W55061   1.311  18.540  10.801
82637W        W55062   7.211  26.731   3.671
82638W        W55063  37.878  29.713  13.548
82639W        W55064  16.336   9.575  14.306
82640W        W55065  31.492   2.940   1.170
82641W        W55066   0.603  35.888  13.453
82642W        W55067   8.677  14.737  12.427
82643W        W55068  24.275  29.680  13.225
82644W        W55069  17.838   8.794   2.221
82645W        W55070  21.172   3.343   0.736
82646W        W55071   6.872  43.149   1.398
82647W        W55072  27.670   1.067   3.260
82648W        W55073   0.895   8.061   3.355
82649W        W55074  14.056  12.093   2.364
82650W        W55075  41.368  44.077   2.297
82651W        W55076  44.406  27.173   0.038
82652W        W55077   6.098  26.978  12.970
82653W        W55078   7.896  20.071  12.635
82654W        W55079  25.735   6.906  12.873
82655W        W55080  32.898   4.651  11.601
82656W        W55081  32.636  13.567   1.417
82657W        W55082  16.234  29.492   3.342
82658W        W55083   0.817  42.859  11.569
82659W        W55084  44.741  29.602  12.529
82660W        W55085  19.143   4.443   4.079
82661W        W55086  12.661  16.603  10.790
82662W        W55087  26.582  37.981   2.102
82663W        W55088  17.039  28.989   3.330
82664W        W55089  28.923  43.964   3.598
82665W        W55090  28.690   1.859   1.892
82666W        W55091  38.818  41.838  12.369
82667W        W55092   5.762  24.474   4.185
82668W        W55093  34.878  38.543  14.394
82669W        W55094  17.515  30.540  11.121
82670W        W55095  12.321  31.909   0.343
82671W        W55096  41.917  41.958  14.067
82672W        W55097  35.913  21.049  12.711
82673W        W55098  32.653  12.227   4.613
82674W        W55099  19.707  38.770  12.152
82675W        W55100  38.987  11.302  13.435
82676W        W55101  26.589   7.454  12.439
82677W        W55102  29.906  17.181   2.312
82678W        W55103  25.731   3.928   2.771
82679W        W55104  13.200   7.208   0.207
82680W        W55105  14.519   2.793   4.211
82681W        W55106  13.673  19.274  12.766
82682W        W55107  15.042   6.248  13.855
82683W        W55108  32.874  30.321   0.583
82684W        W55109  25.773   1.672  10.218
82685W        W55110   3.816  14.927   3.042
82686W        W55111  14.347   4.216  12.952
82687W        W55112  25.132  23.468  14.441
82688W        W55113  11.220  43.766   1.741
82689W        W55114   9.141  36.383   0.472
82690W        W55115  39.755   1.475   2.425
82691W        W55116  38.608   4.890  14.845
82692W        W55117  42.601   7.840   0.045
82693W        W55118  38.414  15.143  11.312
82694W        W55119  42.974  35.403  12.211
82695W        W55120  13.581  24.057  10.522
82696W        W55121  10.280  40.050   3.330
82697W        W55122  31.315  19.585   1.974
82698W        W55123  16.324  32.614   5.007
82699W        W55124  16.362  22.275   4.125
82700W        W55125  30.123  44.823   2.611
82701W        W55126  12.649  12.317   4.114
82702W        W55127  23.914  10.679   1.263
82703W        W55128  25.099  39.910  13.759
82704W        W55129  26.026  18.059  14.858
82705W        W55130   5.482  36.626   1.329
82706W        W55131  21.972   6.437   4.231
82707W        W55132  33.305  14.163  10.195
82708W        W55133  14.990  39.330   1.871
82709W        W55134   9.926  37.481   1.744
82710W        W55135  41.966  35.371   0.976
82711W        W55136  12.356  29.893   1.260
82712W        W55137  23.410  32.941  14.203
82713W        W55138   9.077  22.157  14.674
82714W        W55139  36.508   7.867  13.839
82715W        W55140   5.479   7.442  11.790
82716W        W55141  14.808  25.566   0.109
82717W        W55142  37.547  14.006   3.316
82718W        W55143  43.588  29.037   2.359
82719W        W55144  27.657  36.660  11.474
82720W        W55145  10.130  34.778   1.813
82721W        W55146  14.719  23.154  11.427
82722W        W55147   8.304   8.165  12.352
82723W        W55148  24.529  18.841  13.548
82724W        W55149  18.544  20.892  12.797
82725W        W55150  17.669  36.531  13.948
82726W        W55151  37.567   2.349  13.854
82727W        W55152  37.077  14.757   2.067
82728W        W55153  40.301   2.830  12.456
82729W        W55154  44.824  28.773   1.931
82730W        W55155   3.445  28.483   1.807
82731W        W55156  28.944  20.586  10.596
82732W        W55157   4.221   5.283  12.033
82733W        W55158  17.144   9.973  14.704
82734W        W55159   0.245   8.239   3.684
82735W        W55160  39.740   8.559  13.879
82736W        W55161  18.210   9.168   1.276
82737W        W55162  38.811   4.418  12.595
82738W        W55163  21.736  35.430   4.413
82739W        W55164  35.859  36.557  11.667
82740W        W55165  18.130   9.207  10.703
82741W        W55166  34.594  26.262  11.984
82742W        W55167   4.303  24.670  12.562
82743W        W55168  16.807   1.494  14.334
82744W        W55169   6.606  21.128   5.090
82745W        W55170  29.907  21.710   0.816
82746W        W55171  23.449   9.818   2.703
82747W        W55172  22.713  15.071   3.252
82748W        W55173  22.932   0.080   2.408
82749W        W55174   7.261   4.175  13.503
82750W        W55175  28.168  24.546   3.561
82751W        W55176  21.455  38.055   1.646
82752W        W55177  36.823  33.422  10.270
82753W        W55178  31.532  34.132   3.103
82754W        W55179   4.125  31.523   2.136
82755W        W55180   6.377   7.979  11.742
82756W        W55181  30.106  37.272  14.957
82757W        W55182  34.188  11.833  11.484
82758W        W55183   8.860  19.134   0.883
82759W        W55184  19.302   0.756  11.248
82760W        W55185  32.483  44.724   0.306
82761W        W55186  32.545  41.836  13.077
82762W        W55187  35.028   9.619  11.391
82763W        W55188   3.605  31.557   2.211
82764W        W55189  18.561  44.047   2.880
82765W        W55190   0.060   7.359   0.817
82766W        W55191  10.180  39.470   4.596
82767W        W55192   4.185   5.676  14.299
82768W        W55193  16.127   5.288   0.894
82769W        W55194   6.956  28.485  14.313
82770W        W55195   3.475   4.394   1.540
82771W        W55196  28.570  29.942   0.579
82772W        W55197  18.504  23.726   1.085
82773W        W55198   9.847   7.270   2.919
82774W        W55199  38.914   6.943  14.285
82775W        W55200  17.091  19.768   1.375
82776W        W55201  36.148   6.440   0.829
82777W        W55202  41.088  38.021   0.335
82778W        W55203  34.431  27.851   3.082
82779W        W55204  16.671  44.866  10.846
82780W        W55205  41.831  23.330   0.770
82781W        W55206  26.544  33.441  11.857
82782W        W55207   6.384  43.320   4.164
82783W        W55208   9.028  26.920  12.454
82784W        W55209  30.971  35.311   2.835
82785W        W55210  35.636   4.385  12.095
82786W        W55211  19.004  34.129  14.828
82787W        W55212  13.257  30.514  12.573
82788W        W55213  26.002  19.291   2.876
82789W        W55214  34.771  39.827   0.384
82790W        W55215   0.361  27.942   3.768
82791W        W55216  39.070  16.839   0.052
82792W        W55217  13.399  17.729   4.189
82793W        W55218   4.475  34.888   3.767
82794W        W55219  30.995  44.289   0.411
82795W        W55220  28.120  26.081  10.506
82796W        W55221  10.870   0.550  12.508
82797W        W55222  17.826   4.673  13.810
82798W        W55223  37.853  32.443   2.919
82799W        W55224  35.024  41.287  11.197
82800W        W55225   5.903  25.761   1.402
82801W        W55226  37.640  37.660  14.815
82802W        W55227  14.007  11.400  11.501
82803W        W55228  33.338  29.898  11.212
82804W        W55229  22.866  23.349  14.394
82805W        W55230  41.603  33.059  11.095
82806W        W55231   7.735   0.865   4.605
82807W        W55232   0.564   5.742   2.118
82808W        W55233  42.067  34.909  11.060
82809W        W55234   1.298  43.810   0.852
82810W        W55235   4.755   8.284  12.617
82811W        W55236  26.101  33.613  14.033
82812W        W55237   1.417  41.017  13.789
82813W        W55238  28.090  28.107   4.958
82814W        W55239  37.009  25.226  13.901
82815W        W55240  35.542  37.111   2.189
82816W        W55241  21.305  39.840   2.125
82817W        W55242   5.310  12.070  11.927
82818W        W55243  33.279  25.224   0.427
82819W        W55244   5.771   3.250   2.755
82820W        W55245   1.551  16.210  11.091
82821W        W55246  29.973  30.167   1.468
82822W        W55247  34.923  21.114   1.744
82823W        W55248  18.415   3.985   3.111
82824W        W55249  43.311  35.588   4.315
82825W        W55250  36.037  19.516   2.422
82826W        W55251  23.747   8.812   3.373
82827W        W55252  36.519  11.432  12.347
82828W        W55253   4.428  18.874  12.236
82829W        W55254   0.419  33.177  11.653
82830W        W55255   6.917  36.570   2.708
82831W        W55256  36.771   5.690  10.150
82832W        W55257  17.626   2.426  11.769
82833W        W55258  33.531  10.110   0.919
82834W        W55259   1.293  16.572  12.467
82835W        W55260  32.415  25.160   5.051
82836W        W55261  24.322  43.261  13.901
82837W        W55262   3.489  24.234  11.180
82838W        W55263  43.916  20.321  14.356
82839W        W55264  15.409  24.385   0.119
82840W        W55265   0.246   8.335   2.803
82841W        W55266   2.926  27.524   4.324
82842W        W55267  11.134  19.607  14.866
82843W        W55268  32.910   5.382   2.336
82844W        W55269  39.808  11.387   2.790
82845W        W55270  33.669  33.712   2.658
82846W        W55271  38.086   2.436  12.558
82847W        W55272  29.195  42.248   3.593
82848W        W55273  38.974  21.890  14.751
82849W        W55274  10.282   5.382  12.085
82850W        W55275  37.283  44.162   1.907
82851W        W55276   3.968   9.780   2.864
82852W        W55277  20.583  34.802   0.836
82853W        W55278  18.085   0.500   0.840
82854W        W55279  22.392   9.315   3.135
82855W        W55280  14.110  20.234  11.182
82856W        W55281  26.969  10.134  10.784
82857W        W55282  16.106  14.778   3.806
82858W        W55283   8.360  43.042   3.154
82859W        W55284  41.802  24.518   2.246
82860W        W55285   4.969   6.786   4.608
82861W        W55286  40.349  12.584  12.523
82862W        W55287  43.956  11.084   0.726
82863W        W55288  43.735  35.200   1.685
82864W        W55289  28.977  31.792   4.022
82865W        W55290  14.676   4.346   2.012
82866W        W55291  20.053  40.686   2.854
82867W        W55292   3.270   1.836  14.946
82868W        W55293  23.321  42.999  11.928
82869W        W55294   0.333  33.466   0.966
82870W        W55295  13.181  18.269   3.600
82871W        W55296   5.457   0.780   2.655
82872W        W55297  39.231   5.761  13.087
82873W        W55298  13.692  27.448   1.019
82874W        W55299  37.684  43.699   4.183
82875W        W55300  44.340  19.120   0.018
82876W        W55301  16.270  14.352   3.603
82877W        W55302  36.779  25.538   3.350
82878W        W55303  32.838  40.542   1.232
82879W        W55304  33.659  38.425   1.410
82880W        W55305  14.232  29.650  12.870
82881W        W55306  31.083   6.806   1.357
82882W        W55307  26.289   0.418   2.898
82883W        W55308  15.078  37.090   1.415
82884W        W55309  18.841   4.754  11.941
82885W        W55310  37.894   9.824  14.173
82886W        W55311   3.777  26.475   1.811
82887W        W55312   5.364   4.949  14.162
82888W        W55313  42.918  39.844   0.873
82889W        W55314  32.077  42.053   0.906
82890W        W55315  26.938   8.809   2.430
82891W        W55316   6.247  39.019   3.272
82892W        W55317  25.715  22.818  12.454
82893W        W55318  15.948  41.521  10.267
82894W        W55319  36.153  44.474  11.145
82895W        W55320  20.117  28.475  14.999
82896W        W55321  23.280  28.125   1.038
82897W        W55322  29.673   1.570  12.117
82898W        W55323  27.849  13.056  13.471
82899W        W55324  18.041   5.744   3.608
82900W        W55325  22.127  39.590   1.260
82901W        W55326  19.330   8.698   0.011
82902W        W55327   8.570  28.135   1.629
82903W        W55328   3.511  27.210   0.892
82904W        W55329   0.018  38.324   3.757
82905W        W55330  36.945  27.111   0.421
82906W        W55331  24.082  32.420   0.455
82907W        W55332  39.212  11.713  11.606
82908W        W55333  40.337  30.640   1.837
82909W        W55334  20.614   4.836  13.111
82910W        W55335  33.859  38.330   4.532
82911W        W55336  27.075  16.205   2.090
82912W        W55337  25.614   6.883   1.873
82913W        W55338  34.067   0.027   4.569
82914W        W55339  43.877  37.236  14.086
82915W        W55340  24.312  18.729   0.968
82916W        W55341  19.056  14.537   1.188
82917W        W55342  27.227  42.818   4.088
82918W        W55343  36.296   6.179  13.409
82919W        W55344  43.152  21.022  13.860
82920W        W55345  15.615  44.997   2.830
82921W        W55346  16.009  26.897  12.438
82922W        W55347  28.684   0.050   2.805
82923W        W55348  29.402  27.200   2.305
82924W        W55349  12.896  44.370  13.805
82925W        W55350   5.514  25.428  12.421
82926W        W55351  38.415  15.760  13.009
82927W        W55352  39.293  30.499  10.708
82928W        W55353   0.260  39.175  11.134
82929W        W55354  15.225   7.802  10.640
82930W        W55355  28.001  43.982   4.879
82931W        W55356   9.228  16.118  11.695
82932W        W55357  15.635  35.319  12.883
82933W        W55358  41.609  27.646   1.757
82934W        W55359  14.956  26.164  12.952
82935W        W55360  35.142  34.052   3.241
82936W        W55361  26.060  29.371  13.994
82937W        W55362  39.290  39.337  11.248
82938W        W55363  44.919  18.497  11.681
82939W        W55364  23.000   8.300   0.897
82940W        W55365  30.150  26.440   2.781
82941W        W55366   1.965   5.862  13.487
82942W        W55367   4.272  21.916   0.376
82943W        W55368  19.561  31.707  10.588
82944W        W55369  21.321  26.559  11.474
82945W        W55370  34.580  39.975  11.145
82946W        W55371  43.282  20.083   9.668
82947W        W55372  28.030   7.644  11.891
82948W        W55373  34.384  17.583  10.637
82949W        W55374  23.473   3.249  12.899
82950W        W55375  43.522  42.982  14.257
82951W        W55376  17.714  24.166  11.200
82952W        W55377  21.165  12.718   4.807
82953W        W55378  31.505  11.457  12.142
82954W        W55379   9.772  39.946   3.221
82955W        W55380  24.806  19.555  11.475
82956W        W55381  18.540  29.218   1.803
82957W        W55382   6.008  15.234  12.962
82958W        W55383  27.539  34.745  11.110
82959W        W55384  35.900  13.379   0.397
82960W        W55385   9.240  22.150  13.443
82961W        W55386  30.914  15.695   2.674
82962W        W55387  17.137  32.889  10.945
82963W        W55388  28.745  23.591   1.778
82964W        W55389  34.911   0.990   4.120
82965W        W55390  20.370  22.589  12.636
82966W        W55391   9.533  36.185   3.190
82967W        W55392  43.927   6.124   1.934
82968W        W55393   3.746  15.347  11.122
82969W        W55394   4.677  14.773   3.879
82970W        W55395  38.058  21.477  13.405
82971W        W55396  33.089  32.899  13.736
82972W        W55397   1.878   4.352  11.064
82973W        W55398  29.201  16.545  12.543
82974W        W55399   5.405  38.076  14.531
82975W        W55400  18.367  39.325  12.585
82976W        W55401   4.442  11.437  13.632
82977W        W55402  40.736  26.892  13.415
82978W        W55403  40.802  37.213   3.355
82979W        W55404  23.045  40.170  14.952
82980W        W55405  44.923  11.628  12.351
82981W        W55406  26.614  21.577   0.752
82982W        W55407  28.181   9.739  11.147
82983W        W55408  30.227  17.351  13.591
82984W        W55409   4.505  37.376   1.977
82985W        W55410  17.755   5.758   3.172
82986W        W55411   4.750   8.824   4.601
82987W        W55412  32.273   8.779   4.551
82988W        W55413  26.732  32.747   3.161
82989W        W55414  15.101  39.792  13.188
82990W        W55415  37.277  20.068   0.703
82991W        W55416  15.776  26.081  14.397
82992W        W55417  44.709  33.408   0.207
82993W        W55418  11.723  29.654  11.989
82994W        W55419  42.952   3.493   4.707
82995W        W55420  10.794  14.091  12.532
82996W        W55421  23.528  19.026   1.387
82997W        W55422  32.053  11.397  12.677
82998W        W55423  22.119  40.282  10.923
82999W        W55424  41.864  11.759   2.519
83000W        W55425   2.518  25.004   3.151
83001W        W55426  20.546  34.527  14.601
83002W        W55427  12.184  18.275   0.989
83003W        W55428  22.711  17.627   1.497
83004W        W55429   9.433  19.503  12.520
83005W        W55430  12.373  12.764   4.240
83006W        W55431  32.783   3.997   2.778
83007W        W55432   1.150  27.911  11.451
83008W        W55433  29.451  23.037  11.997
83009W        W55434  19.535   2.536   2.694
83010W        W55435   1.747  41.811   2.377
83011W        W55436  28.644  18.302   4.858
83012W        W55437  36.442  38.407   0.359
83013W        W55438  15.898   5.979  14.864
83014W        W55439  25.256  12.278   0.862
83015W        W55440  12.756  44.043   0.525
83016W        W55441  13.570  29.221   4.030
83017W        W55442   4.806  11.909   2.236
83018W        W55443  17.233  18.154   0.512
83019W        W55444   7.843   9.988   2.709
83020W        W55445  31.966  16.767  14.551
83021W        W55446  16.003  29.058   3.184
83022W        W55447  17.360  29.412   0.255
83023W        W55448  40.092  44.389  13.921
83024W        W55449   0.852   5.201  12.672
83025W        W55450  40.782  41.988  11.097
83026W        W55451  13.102   7.131   0.713
83027W        W55452  44.491  30.395  13.563
83028W        W55453  17.609  25.270  14.978
83029W        W55454  44.154   4.891   3.903
83030W        W55455  37.079  39.798   2.216
83031W        W55456  25.428  30.183  12.456
83032W        W55457   0.400  28.983  10.879
83033W        W55458  31.502   9.366  13.450
83034W        W55459  36.020  20.434   0.226
83035W        W55460  42.444  36.535   3.886
83036W        W55461  12.819  21.788   0.763
83037W        W55462  32.462  40.611  12.538
83038W        W55463  22.162  33.920   2.768
83039W        W55464  41.428  42.840   0.462
83040W        W55465  33.557  44.420  13.108
83041W        W55466   5.277  14.697  10.401
83042W        W55467  23.560  26.973  12.744
83043W        W55468  29.549  10.352  13.036
83044W        W55469  20.998  18.555   3.003
83045W        W55470  22.541  36.589  14.859
83046W        W55471  11.102  17.654  10.531
83047W        W55472  42.482   4.361  13.602
83048W        W55473  29.567  26.210   1.922
83049W        W55474  40.889   3.440  10.947
83050W        W55475  28.391  37.874  10.539
83051W        W55476  32.637   8.778  11.774
83052W        W55477  27.496  41.815  13.280
83053W        W55478  25.697  12.680   3.002
83054W        W55479  14.137   3.974  13.800
83055W        W55480  38.237  13.575  11.694
83056W        W55481  42.528  13.598  11.495
83057W        W55482  17.595  26.552   2.970
83058W        W55483   1.007   8.922   1.247
83059W        W55484  36.030   3.870  11.703
83060W        W55485   1.331   3.459   4.251
83061W        W55486  25.852   4.898   3.655
83062W        W55487  34.642  19.954   3.300
83063W        W55488   1.816  22.557   3.974
83064W        W55489  20.572  33.025  12.053
83065W        W55490  40.870  30.849  11.239
83066W        W55491   2.925  11.858  10.657
83067W        W55492  39.349  36.670   1.890
83068W        W55493  23.507  18.114  11.496
83069W        W55494  44.846  22.088  13.926
83070W        W55495  34.037  28.168  14.906
83071W        W55496  28.431   9.601  11.598
83072W        W55497   4.433  13.128  12.449
83073W        W55498  43.926  43.234  14.045
83074W        W55499   2.682  29.264  14.658
83075W        W55500  23.487   5.609  13.423
83076W        W55501  44.884  41.900  12.071
83077W        W55502   4.808  42.544  13.900
83078W        W55503  30.033   1.769  14.286
83079W        W55504   5.851  18.263   3.261
83080W        W55505   9.379  43.565   3.192
83081W        W55506  26.220  44.010   2.653
83082W        W55507   0.858  43.775   1.593
83083W        W55508  35.901  36.884  10.772
83084W        W55509  37.534  14.071   2.435
83085W        W55510  12.549  15.596  10.565
83086W        W55511   1.905  10.419  10.257
83087W        W55512  38.585   2.937   1.729
83088W        W55513  43.726  19.018  11.506
83089W        W55514  23.494  37.966   3.943
83090W        W55515   1.207  26.171  14.293
83091W        W55516  26.199  31.056  14.311
83092W        W55517   6.403  41.848  13.942
83093W        W55518  33.534  33.370  12.008
83094W        W55519  23.928  17.249  14.791
83095W        W55520  19.241  16.378  12.403
83096W        W55521  17.008  42.479  14.019
83097W        W55522  27.189  11.254   0.487
83098W        W55523  17.653  12.322  12.963
83099W        W55524  40.484  30.060   3.807
83100W        W55525  36.947   7.237   3.087
83101W        W55526  42.476  29.834  12.192
83102W        W55527  27.919   0.714  10.631
83103W        W55528  44.646  37.520  14.745
83104W        W55529  42.063  43.770  12.310
83105W        W55530   0.470  18.658   2.102
83106W        W55531  39.772   9.024   3.650
83107W        W55532  43.060  42.566  10.430
83108W        W55533  38.811  39.955   0.980
83109W        W55534  29.975  13.724   1.893
83110W        W55535   6.868   0.715   3.058
83111W        W55536   5.456  10.105   2.218
83112W        W55537  35.565  37.998  13.890
83113W        W55538  44.188  31.937   4.602
83114W        W55539  40.583  22.016  14.516
83115W        W55540  21.133   3.276   4.121
83116W        W55541   4.023   5.406   2.702
83117W        W55542  38.469   9.806  12.936
83118W        W55543  26.680  41.645   5.120
83119W        W55544  34.531  44.105  13.386
83120W        W55545  29.128  27.670   4.470
83121W        W55546  27.380   4.455   1.708
83122W        W55547  27.459  39.273   1.852
83123W        W55548  36.120  33.938   1.734
83124W        W55549   6.619  42.122   1.962
83125W        W55550   7.011  25.379  13.596
83126W        W55551  18.238   0.393   4.623
83127W        W55552   7.183  17.140   2.802
83128W        W55553  34.492  32.524   0.779
83129W        W55554  12.858  38.810   0.242
83130W        W55555  33.489  14.629  10.382
83131W        W55556  22.312  44.546   1.293
83132W        W55557  18.017  16.731  13.955
83133W        W55558  15.954  33.925   1.861
83134W        W55559   6.854  18.107   4.597
83135W        W55560  31.170  15.649   1.713
83136W        W55561   9.629  39.006  13.994
83137W        W55562  12.689  39.325   0.452
83138W        W55563   0.473  19.609  13.987
83139W        W55564  39.449  27.693  12.763
83140W        W55565  16.769  18.842   0.411
83141W        W55566  42.879  27.925   3.712
83142W        W55567  32.984  33.609  12.958
83143W        W55568  22.947  14.818  12.834
83144W        W55569  19.094  32.061   4.290
83145W        W55570  15.577   3.019  12.934
83146W        W55571   1.811  22.248   0.504
83147W        W55572  20.471   1.948   9.836
83148W        W55573  43.537  33.849   0.837
83149W        W55574  12.183  14.544   1.031
83150W        W55575  38.963  15.322   3.933
83151W        W55576   3.705   4.483   0.281
83152W        W55577  32.540  26.567   2.238
83153W        W55578  30.520  37.057  10.686
83154W        W55579   6.310  13.157   0.905
83155W        W55580  42.923  30.625  14.318
83156W        W55581  37.561  26.528  12.344
83157W        W55582  32.526  40.186  10.393
83158W        W55583  42.744  44.397   4.146
83159W        W55584  25.696  34.946  14.772
83160W        W55585  11.249   9.573  12.637
83161W        W55586  13.776  25.593   0.697
83162W        W55587   5.895   4.361  13.159
83163W        W55588  31.123  41.059   4.217
83164W        W55589  30.521   5.322  12.308
83165W        W55590  22.657  22.833   4.023
83166W        W55591  41.825   2.883   1.251
83167W        W55592  32.966  28.104  13.545
83168W        W55593  34.602  11.343   4.553
83169W        W55594  27.047  19.117  12.434
83170W        W55595  38.310  44.485  14.785
83171W        W55596  31.666  13.321   3.687
83172W        W55597   4.714   4.269  12.441
83173W        W55598  38.796  30.966   4.620
83174W        W55599  34.668  18.152  13.782
83175W        W55600  25.000   3.271   4.384
83176W        W55601  16.563  30.124   4.287
83177W        W55602  25.017  25.430  10.525
83178W        W55603  19.071  10.275   0.992
83179W        W55604  33.963  36.445  12.740
83180W        W55605  27.048   6.390  13.955
83181W        W55606   0.067  16.610   3.620
83182W        W55607   2.680  41.445  11.648
83183W        W55608  38.976  44.343  12.441
83184W        W55609  17.674  16.774  11.452
83185W        W55610   4.638   2.913   3.378
83186W        W55611   7.651  23.217  11.699
83187W        W55612   9.367  13.169  11.484
83188W        W55613  31.941   4.427   0.228
83189W        W55614   8.362   2.162  12.982
83190W        W55615  21.574  20.659  12.392
83191W        W55616  43.991  21.223  10.326
83192W        W55617  30.611   5.332   4.044
83193W        W55618  25.725  28.585   0.429
83194W        W55619  34.902  15.783  12.944
83195W        W55620  30.528  18.708  13.009
83196W        W55621  44.259  39.964  12.585
83197W        W55622  16.360   2.390   0.498
83198W        W55623   3.032  32.140   1.747
83199W        W55624   8.664  21.566   1.937
83200W        W55625   1.728  27.780   0.127
83201W        W55626  35.135  28.604   0.037
83202W        W55627   7.714   8.597   0.251
83203W        W55628   4.299  31.365  14.403
83204W        W55629   6.960  21.061   4.641
83205W        W55630  16.304  35.664  12.177
83206W        W55631   0.283  13.561   4.959
83207W        W55632  14.069  25.127   1.850
83208W        W55633  17.385  36.547  11.925
83209W        W55634   9.879  29.918  11.177
83210W        W55635   6.216  14.716   1.980
83211W        W55636  37.790  22.184   4.176
83212W        W55637  40.431  26.681  14.913
83213W        W55638  33.097   3.757  13.555
83214W        W55639  34.368  28.870   2.726
83215W        W55640  27.929   0.743   3.621
83216W        W55641  12.567  21.130   1.193
83217W        W55642  39.236  23.517  10.060
83218W        W55643  32.388  19.080  12.129
83219W        W55644  42.085  14.840  11.424
83220W        W55645   4.296   5.010  12.938
83221W        W55646  33.924  26.006  12.921
83222W        W55647  13.297  27.101  12.342
83223W        W55648  16.304  24.939   1.141
83224W        W55649  12.958  22.684   3.037
83225W        W55650  16.280  30.251  10.738
83226W        W55651   5.972   2.168   5.096
83227W        W55652  34.125   0.593   0.430
83228W        W55653  38.501   4.530  11.100
83229W        W55654  35.252  24.084   3.160
83230W        W55655   2.706   3.477  14.559
83231W        W55656   7.385  35.959   3.857
83232W        W55657  29.957  12.667  10.987
83233W        W55658   7.297  38.504  11.459
83234W        W55659  23.918  15.169   3.858
83235W        W55660   4.446  36.467   1.707
83236W        W55661  38.774   2.462   1.812
83237W        W55662  24.159  32.698   4.939
83238W        W55663  40.374  27.581  12.765
83239W        W55664   8.772   4.491   1.243
83240W        W55665  18.987  32.655  13.785
83241W        W55666   8.242   7.901  13.578
83242W        W55667  42.411  30.392   4.691
83243W        W55668  12.578   4.136   0.299
83244W        W55669  38.748   5.447  11.296
83245W        W55670  43.524  32.634  14.602
83246W        W55671  16.745  10.970   0.312
83247W        W55672   3.481  18.447  13.948
83248W        W55673  23.097   0.447  14.034
83249W        W55674   5.360  34.178  14.859
83250W        W55675  24.086  27.439  14.891
83251W        W55676  32.385  18.289  11.693
83252W        W55677  31.473  24.378   3.662
83253W        W55678   7.428  43.422   1.839
83254W        W55679  12.830  23.210  13.931
83255W        W55680  29.187  44.356   0.831
83256W        W55681  18.250  12.831   0.307
83257W        W55682  35.605  27.886   3.652
83258W        W55683  38.080  10.807   3.865
83259W        W55684  12.685  16.927   0.884
83260W        W55685  19.361  26.542  13.943
83261W        W55686   3.732  15.241   0.985
83262W        W55687   8.462  43.055   2.262
83263W        W55688  21.156  27.162   3.449
83264W        W55689  12.669  43.792  11.281
83265W        W55690  25.574  43.099  11.300
83266W        W55691   6.490  41.072   1.767
83267W        W55692  20.173  36.806  11.302
83268W        W55693  33.508  12.754  14.214
83269W        W55694  20.299  44.951   4.259
83270W        W55695  34.135   4.227   3.001
83271W        W55696  22.409  40.413   0.256
83272W        W55697  27.442  13.332  10.850
83273W        W55698   7.830  19.785  11.719
83274W        W55699  38.040  41.018   3.412
83275W        W55700  36.011  20.894  14.762
83276W        W55701  40.639   5.252   3.438
83277W        W55702  14.268  30.151   4.922
83278W        W55703   8.150  14.767  11.158
83279W        W55704   8.172  26.199  13.812
83280W        W55705  11.554   1.696   3.858
83281W        W55706  35.851  29.199  11.580
83282W        W55707  33.161  11.698   4.861
83283W        W55708   1.779  23.484   4.061
83284W        W55709  16.183  42.641   0.556
83285W        W55710  32.858  20.331   0.436
83286W        W55711  25.164   9.768  13.393
83287W        W55712  26.243  10.929   2.678
83288W        W55713  11.383  10.274  10.808
83289W        W55714  34.060  31.717   1.017
83290W        W55715  23.514  24.490   3.067
83291W        W55716   6.842  18.203  12.622
83292W        W55717   6.810  41.812   0.969
83293W        W55718  43.985  36.910   4.644
83294W        W55719  13.314  40.754  11.173
83295W        W55720  30.921   4.419   4.059
83296W        W55721  41.432  18.240   1.942
83297W        W55722  36.091   4.304  12.343
83298W        W55723  28.619  26.058   1.858
83299W        W55724  41.486  33.928  12.652
83300W        W55725   1.370  41.120   0.804
83301W        W55726   8.643   5.189  12.110
83302W        W55727  25.262  33.482   1.837
83303W        W55728  22.171   2.394  14.861
83304W        W55729  37.800  19.241  13.025
83305W        W55730  40.030  30.627   0.819
83306W        W55731  43.131  36.081  12.909
83307W        W55732  14.069  26.369   4.543
83308W        W55733  44.968  31.963   1.193
83309W        W55734  16.346  34.445   2.654
83310W        W55735  39.914  25.722  13.594
83311W        W55736  15.313  43.829  12.343
83312W        W55737  17.729  36.628   2.626
83313W        W55738   4.173  33.222   1.303
83314W        W55739  41.004  29.131  11.036
83315W        W55740  32.568   5.769   2.274
83316W        W55741  18.096  38.550  14.220
83317W        W55742  33.530   8.650   0.805
83318W        W55743  34.624   6.491   3.169
83319W        W55744  40.979   7.614   3.257
83320W        W55745  33.406  37.614   4.545
83321W        W55746  20.156  15.146  12.795
83322W        W55747  42.548   4.340  13.086
83323W        W55748   8.801   5.457   4.183
83324W        W55749  37.140   2.855  11.449
83325W        W55750  42.223  21.717   0.827
83326W        W55751  27.612  12.625  13.281
83327W        W55752   9.295  25.683   0.038
83328W        W55753   3.577   0.418  12.948
83329W        W55754  44.352  43.951   3.796
83330W        W55755  17.227  21.600  11.183
83331W        W55756  12.432  25.298   4.057
83332W        W55757  42.217  19.583  12.185
83333W        W55758   0.240  23.031   2.184
83334W        W55759  31.974  23.984   2.230
83335W        W55760  34.448  11.125  14.821
83336W        W55761   7.249   6.091  11.144
83337W        W55762  12.301  36.632   4.523
83338W        W55763  42.033   5.907  13.323
83339W        W55764  37.772  38.313   2.331
83340W        W55765  28.465   7.791  12.264
83341W        W55766  22.483  30.170   1.523
83342W        W55767  44.008  23.392   4.709
83343W        W55768  36.026  43.280   3.682
83344W        W55769  20.710   6.464  13.719
83345W        W55770  24.157   1.854  12.914
83346W        W55771  10.771  14.613   4.411
83347W        W55772  40.076  22.979  13.391
83348W        W55773  36.469  40.510  14.736
83349W        W55774  13.613  11.274  12.113
83350W        W55775   7.963  37.911  13.872
83351W        W55776  15.970  40.111  13.486
83352W        W55777  36.700  10.181  10.167
83353W        W55778  22.987  36.041  12.149
83354W        W55779  15.073  30.373  12.996
83355W        W55780  10.867  40.846   1.886
83356W        W55781   8.550  20.830  10.173
83357W        W55782  44.341   9.226   1.484
83358W        W55783  10.169   8.860   3.199
83359W        W55784  40.982  17.349   4.603
83360W        W55785  13.240  15.851   4.879
83361W        W55786  35.216  23.413   4.223
83362W        W55787  11.793  43.554   3.504
83363W        W55788  13.464  19.041   0.154
83364W        W55789  17.869  21.531  14.478
83365W        W55790  11.853  22.172  12.558
83366W        W55791   1.379  18.832  14.856
83367W        W55792  37.432  32.332   2.168
83368W        W55793  20.590   8.928  11.516
83369W        W55794   0.726  10.333  14.104
83370W        W55795   2.692  34.614   2.077
83371W        W55796  31.928  35.108  14.441
83372W        W55797  14.745   2.710   1.083
83373W        W55798   6.739  19.531  12.455
83374W        W55799  33.456  13.633   1.812
83375W        W55800  12.792  22.438   3.850
83376W        W55801  38.143  37.509   0.884
83377W        W55802   8.396  25.543  11.075
83378W        W55803  33.100  11.305  12.227
83379W        W55804  29.170   2.793   0.392
83380W        W55805  25.796  27.137   4.036
83381W        W55806  27.050  18.754  14.299
83382W        W55807  17.054  25.080   2.863
83383W        W55808  12.904  44.228   4.354
83384W        W55809  29.938   7.791   4.293
83385W        W55810  17.338  25.040  14.454
83386W        W55811   4.586  40.795  14.880
83387W        W55812  35.657  20.511  14.794
83388W        W55813  28.373   2.383  12.911
83389W        W55814  10.916  14.102   4.319
83390W        W55815  43.542   6.654  11.994
83391W        W55816  33.875  28.959   2.841
83392W        W55817  38.839  21.271  10.650
83393W        W55818  14.352  11.136  12.423
83394W        W55819  16.059  17.138  13.313
83395W        W55820  29.227  18.741   0.487
83396W        W55821  22.092  28.817  14.520
83397W        W55822  39.750   7.375  14.693
83398W        W55823  20.493  43.940   4.293
83399W        W55824  40.284  15.796   2.319
83400W        W55825   0.826   9.797  10.760
83401W        W55826  35.365   3.621  10.647
83402W        W55827  17.704  31.687  12.823
83403W        W55828  17.052  14.743  14.302
83404W        W55829  20.557   2.316  12.990
83405W        W55830  31.633   5.681  11.203
83406W        W55831  23.181  34.577   0.471
83407W        W55832  28.467   8.906  12.679
83408W        W55833  10.412  14.677   2.287
83409W        W55834  41.933  39.462  13.968
83410W        W55835   1.421  13.802  13.513
83411W        W55836  43.996   5.424  14.788
83412W        W55837  13.131  35.655   0.859
83413W        W55838  34.073  16.084   1.944
83414W        W55839  11.089   5.277  14.525
83415W        W55840   9.648  23.672  12.046
83416W        W55841  38.837  22.469   4.764
83417W        W55842  27.731  31.980   5.157
83418W        W55843  20.035  31.603   1.579
83419W        W55844  29.604  15.812   4.393
83420W        W55845  42.519  12.265  14.165
83421W        W55846  28.024  14.943   3.067
83422W        W55847  14.135  22.615  12.601
83423W        W55848  13.619   4.475  14.523
83424W        W55849  28.915  19.771   1.930
83425W        W55850  27.112  10.078   1.732
83426W        W55851   5.370  40.484   3.366
83427W        W55852   2.399   3.471   1.588
83428W        W55853  25.145   6.666  13.918
83429W        W55854  22.952  42.485  13.685
83430W        W55855  32.749  35.573  13.138
83431W        W55856  24.621  33.383  11.188
83432W        W55857  39.907  15.720  13.800
83433W        W55858  37.997   7.898   1.876
83434W        W55859  38.911  11.672   3.060
83435W        W55860  33.056  22.649  13.857
83436W        W55861  11.295   1.056  11.861
83437W        W55862  13.390   3.790   4.261
83438W        W55863  26.431  25.144  13.443
83439W        W55864  28.963  43.035   3.681
83440W        W55865  28.152  26.091  11.023
83441W        W55866  28.518   7.518  14.920
83442W        W55867  28.290  36.518  13.804
83443W        W55868  38.304  38.822  11.273
83444W        W55869  31.912  17.200   4.952
83445W        W55870   5.256  27.929   1.770
83446W        W55871  35.896  32.965  14.989
83447W        W55872   1.542  21.691  11.980
83448W        W55873   9.833   2.056   4.276
83449W        W55874  26.544  34.576   0.696
83450W        W55875  13.743  42.516   1.389
83451W        W55876   4.650   8.771  13.506
83452W        W55877   6.596  30.599  14.938
83453W        W55878  37.884  38.580  11.124
83454W        W55879  17.816  14.553  11.044
83455W        W55880   0.333  19.406  10.403
83456W        W55881  30.811  23.561  14.350
83457W        W55882  11.349  14.794  12.130
83458W        W55883  17.765  18.497  14.256
83459W        W55884  31.351  15.796   2.921
83460W        W55885  26.058  23.775  14.248
83461W        W55886  20.179  34.657   4.048
83462W        W55887  34.609  39.521  13.150
83463W        W55888   0.785   8.335   4.491
83464W        W55889  35.561  26.023  14.736
83465W        W55890  22.963  12.512  13.897
83466W        W55891   1.767  32.409  14.546
83467W        W55892  22.142  25.334   4.880
83468W        W55893  15.513   7.209   4.656
83469W        W55894  42.242  28.577  10.709
83470W        W55895  44.658  41.375   5.165
83471W        W55896  16.268  39.345  13.596
83472W        W55897  24.797  40.159   2.370
83473W        W55898  18.054  32.669  11.563
83474W        W55899  41.299  24.190   3.139
83475W        W55900  33.375  28.593   4.552
83476W        W55901   7.837  38.019  10.284
83477W        W55902   3.945  20.210  12.660
83478W        W55903  43.990  31.876  12.490
83479W        W55904  18.656  25.261  12.824
83480W        W55905  21.681  33.538   0.578
83481W        W55906  15.189  44.714   2.796
83482W        W55907  22.329  42.084  10.742
83483W        W55908   0.457   4.999  12.368
83484W        W55909  16.647   4.765   2.107
83485W        W55910  44.769  40.949   1.157
83486W        W55911  21.574  36.038  11.036
83487W        W55912  24.193   8.172  14.251
83488W        W55913   0.951  24.906  10.784
83489W        W55914   8.165   2.444  11.710
83490W        W55915   1.107  10.846  12.986
83491W        W55916  14.264  40.944   1.391
83492W        W55917  27.010  41.905   4.062
83493W        W55918  34.578  22.077  13.425
83494W        W55919   6.926  10.104  14.308
83495W        W55920  42.964   3.068  14.394
83496W        W55921  35.367  31.070  14.202
83497W        W55922  16.072  32.359   4.599
83498W        W55923  35.760  39.854   2.743
83499W        W55924  26.531  24.975  11.556
83500W        W55925   8.357  44.510  14.257
83501W        W55926  44.307  44.416  12.911
83502W        W55927   2.834  41.055  12.556
83503W        W55928  36.874  19.163   2.848
83504W        W55929  32.147  13.611  11.102
83505W        W55930   8.159  24.269  14.900
83506W        W55931  17.268  30.404  13.402
83507W        W55932  14.060  19.674   9.707
83508W        W55933  13.296   5.309  11.899
83509W        W55934  15.309  19.901   4.484
83510W        W55935  15.118  33.928  13.145
83511W        W55936  11.674  25.357   2.905
83512W        W55937  43.977  27.055   4.290
83513W        W55938   0.422   3.605   4.618
83514W        W55939  17.997  14.060   4.262
83515W        W55940   2.480  15.510  11.029
83516W        W55941  25.598  19.655  10.753
83517W        W55942  10.000  13.583  12.823
83518W        W55943  42.213  43.521  13.823
83519W        W55944   7.002   7.841  12.541
83520W        W55945  35.399   6.321  14.044
83521W        W55946  27.626   2.551  11.650
83522W        W55947  12.362  28.612  14.549
83523W        W55948  11.035  38.672   0.858
83524W        W55949  42.289  25.742  13.892
83525W        W55950  13.794   5.265  12.044
83526W        W55951  22.538  12.683  14.133
83527W        W55952  35.671  33.972  13.922
83528W        W55953  15.739  28.542   0.445
83529W        W55954  36.796  37.820  14.539
83530W        W55955   3.819  39.341   3.654
83531W        W55956  35.399   9.196   9.362
83532W        W55957  29.608   6.879  12.534
83533W        W55958  17.200   6.902   1.785
83534W        W55959  30.693  19.845   1.183
83535W        W55960  38.241  33.053   4.861
83536W        W55961  41.286  17.865   1.090
83537W        W55962  11.893  13.680  12.271
83538W        W55963  14.794  17.856   1.843
83539W        W55964   5.178  33.905  11.115
83540W        W55965  25.323  26.870  14.569
83541W        W55966  27.932   4.034  11.021
83542W        W55967  10.459  39.937   2.827
83543W        W55968  28.928  13.643   4.682
83544W        W55969  21.129  24.911  11.289
83545W        W55970  32.116  12.340   4.119
83546W        W55971   3.054  26.191  12.657
83547W        W55972  32.140  27.480   1.393
83548W        W55973  44.017  16.127  14.820
83549W        W55974  34.825   1.545  14.276
83550W        W55975  31.539  33.225   1.319
83551W        W55976  41.483  34.955   3.759
83552W        W55977  13.378  26.440  14.774
83553W        W55978  14.270  34.594  14.875
83554W        W55979  42.375  26.339  11.985
83555W        W55980   1.980  44.527  12.584
83556W        W55981  42.557   7.698   4.144
83557W        W55982  22.969   9.680  10.539
83558W        W55983  21.413  22.120   4.681
83559W        W55984  37.580   2.353  11.433
83560W        W55985   2.252  36.150  12.340
83561W        W55986   1.184  35.598  12.477
83562W        W55987  13.260  18.082  12.162
83563W        W55988  21.892  30.942   3.761
83564W        W55989  12.058  20.660   4.812
83565W        W55990  43.519  20.143   4.473
83566W        W55991   9.218  41.787   3.233
83567W        W55992  28.489  18.562   0.391
83568W        W55993  20.544  17.875   3.878
83569W        W55994  32.379  44.865   2.830
83570W        W55995  25.014   0.164  12.224
83571W        W55996   5.248  21.986   1.844
83572W        W55997  12.611  19.084  12.071
83573W        W55998  27.051  34.481   0.680
83574W        W55999  20.103  11.877  14.824
83575W        W56000  39.911  29.669   1.869
83576W        W56001   5.894  35.881  14.664
83577W        W56002   8.905   2.471  12.181
83578W        W56003  42.648  12.696  11.517
83579W        W56004  38.418  12.927   1.711
83580W        W56005  42.837  15.070   1.208
83581W        W56006  33.015  22.037   2.354
83582W        W56007  12.324  29.083  14.779
83583W        W56008  14.221   3.902  10.718
83584W        W56009  34.938  23.209  10.553
83585W        W56010  20.457   4.727   3.124
83586W        W56011  24.493  36.418   2.545
83587W        W56012  44.366  28.235   2.259
83588W        W56013  10.191  19.511   1.338
83589W        W56014   1.902  44.481   2.648
83590W        W56015  15.179  17.070   2.666
83591W        W56016  39.530  36.536  12.452
83592W        W56017  40.727  20.791  12.431
83593W        W56018  31.059  14.793   0.314
83594W        W56019  21.720  37.188   3.346
83595W        W56020  20.125  30.830   3.924
83596W        W56021  22.321  37.256   1.356
83597W        W56022  22.446  34.946  12.508
83598W        W56023  31.983  42.538   4.084
83599W        W56024  26.532  39.268  11.650
83600W        W56025  44.032   5.436  12.415
83601W        W56026  29.544  26.514   0.866
83602W        W56027  20.616  35.993   3.724
83603W        W56028   3.043  28.908  11.043
83604W        W56029  16.665   0.921   4.052
83605W        W56030   7.905  41.320  13.858
83606W        W56031   5.806  17.813  11.565
83607W        W56032  19.348  38.122   0.867
83608W        W56033   9.173  33.309   3.648
83609W        W56034   9.851   4.063   2.346
83610W        W56035  30.360  41.767   2.148
83611W        W56036  14.885  39.041   2.277
83612W        W56037  44.973  18.084  14.045
83613W        W56038  30.389  36.604  14.268
83614W        W56039  22.312   0.363  12.084
83615W        W56040  31.023  20.560   3.219
83616W        W56041  21.714  19.253  11.069
83617W        W56042  18.819  25.764  12.987
83618W        W56043  42.487   9.481   0.830
83619W        W56044  27.793  37.424  13.029
83620W        W56045  31.381  24.668   4.099
83621W        W56046   0.322  28.930   1.854
83622W        W56047  33.553  38.224   0.919
83623W        W56048   8.743  40.688   4.132
83624W        W56049  24.214  30.734  14.935
83625W        W56050  43.042  11.142   1.041
83626W        W56051  18.347  31.073  11.928
83627W        W56052  16.606  18.055   3.805
83628W        W56053   9.307  22.798   3.134
83629W        W56054  43.038   0.499  12.465
83630W        W56055  14.406  26.041  12.044
83631W        W56056  31.001  40.561   4.194
83632W        W56057  33.767  39.124  12.056
83633W        W56058   5.352  21.296   3.099
83634W        W56059  23.461  32.186  14.687
83635W        W56060  36.580  13.147   1.229
83636W        W56061  33.298   3.334  14.878
83637W        W56062  44.999  40.967   0.617
83638W        W56063  15.052  39.445  11.955
83639W        W56064  10.760   1.718   2.379
83640W        W56065  27.986  32.314   4.210
83641W        W56066  15.441  23.879   1.278
83642W        W56067  38.665  29.490  11.459
83643W        W56068  12.165  13.077  14.902
83644W        W56069  41.867  31.853  12.829
83645W        W56070  11.247   5.848  10.990
83646W        W56071  37.081   8.333   1.892
83647W        W56072  12.400  25.404  12.955
83648W        W56073  32.839  16.093   3.188
83649W        W56074  23.992  13.685   1.382
83650W        W56075  30.644   4.432   4.504
83651W        W56076  24.551  25.566   2.182
83652W        W56077  24.310  43.973   3.598
83653W        W56078  20.731  34.380  12.213
83654W        W56079  17.049  36.581   0.863
83655W        W56080  20.633  15.209  11.103
83656W        W56081  23.476  21.593  11.866
83657W        W56082  11.758  38.085   1.208
83658W        W56083  26.756   3.625   9.800
83659W        W56084  31.952  12.535   3.674
83660W        W56085  12.141  43.881   4.581
83661W        W56086  21.283  14.253   4.622
83662W        W56087  28.079  41.781   1.898
83663W        W56088  20.757  28.659   4.063
83664W        W56089  19.147  14.021  10.716
83665W        W56090   5.052   5.930  13.944
83666W        W56091  18.070  39.570  11.291
83667W        W56092  20.648  32.563   3.882
83668W        W56093  29.929  38.996   4.119
83669W        W56094  27.608  10.221   1.026
83670W        W56095  36.942  21.963   3.932
83671W        W56096  20.595  23.574  14.707
83672W        W56097  20.077  15.634   0.306
83673W        W56098  12.219  20.265  10.684
83674W        W56099  43.557  31.518  10.592
83675W        W56100  33.332  25.086  10.834
83676W        W56101  18.646   8.760   5.238
83677W        W56102  29.380   1.970  13.973
83678W        W56103   1.921  35.784  13.952
83679W        W56104  20.744  35.610   3.304
83680W        W56105  32.099   7.896  14.495
83681W        W56106   3.567   0.845   4.104
83682W        W56107  11.612  23.568   1.383
83683W        W56108  12.299  44.797   0.168
83684W        W56109  33.666   2.818  13.453
83685W        W56110  30.617  25.528   1.252
83686W        W56111  13.154  32.055   4.670
83687W        W56112  18.602  22.031  12.999
83688W        W56113  13.127  11.417  10.444
83689W        W56114  21.203  35.579  14.935
83690W        W56115  22.330  14.985  14.508
83691W        W56116  21.167  14.243   2.213
83692W        W56117  16.952  31.097   3.850
83693W        W56118  19.689  35.600   2.712
83694W        W56119   8.752  33.798  12.852
83695W        W56120   3.216  22.407   3.690
83696W        W56121  27.740  36.395  12.935
83697W        W56122   6.658  29.062  13.598
83698W        W56123  33.046  26.665   4.137
83699W        W56124  42.056  41.550  11.196
83700W        W56125  23.301  37.488  10.535
83701W        W56126  28.553  10.633  14.343
83702W        W56127   4.384  14.305   4.087
83703W        W56128   9.107   6.842  10.829
83704W        W56129   3.860  42.079  11.795
83705W        W56130  23.174  40.766  11.600
83706W        W56131  36.572  44.453   1.825
83707W        W56132  20.546  40.550   2.708
83708W        W56133   4.768  39.332  10.231
83709W        W56134  20.356  39.636   5.189
83710W        W56135  14.867  23.536   3.669
83711W        W56136  38.972  32.032   1.442
83712W        W56137  39.758  36.355   4.565
83713W        W56138  24.614  41.559  12.403
83714W        W56139   7.166  34.436  10.870
83715W        W56140  17.788  24.933  10.725
83716W        W56141   7.753  30.603  11.212
83717W        W56142  44.069  14.808   2.659
83718W        W56143  12.601   2.319  14.556
83719W        W56144   3.821   0.534  11.583
83720W        W56145  20.805  25.596  14.361
83721W        W56146  10.233  28.148   3.558
83722W        W56147  29.661  20.570  12.459
83723W        W56148  34.958  11.265   2.621
83724W        W56149  30.591  10.856  14.031
83725W        W56150  24.552  43.773   4.919
83726W        W56151  16.251  41.073   0.003
83727W        W56152  28.371   7.282  11.064
83728W        W56153  25.375  21.216  13.710
83729W        W56154  12.594   0.736   2.245
83730W        W56155  16.319  27.888   4.071
83731W        W56156  10.831  12.279  14.845
83732W        W56157  30.167  39.295   4.620
83733W        W56158  38.253  18.621   2.368
83734W        W56159   8.342  44.441   4.927
83735W        W56160   3.905   3.000  14.475
83736W        W56161  15.502   5.335  11.380
83737W        W56162   6.880  27.164   4.345
83738W        W56163  13.257   9.289  13.545
83739W        W56164  36.629  36.481   1.761
83740W        W56165   2.279  35.898   4.232
83741W        W56166  44.073  17.634   3.866
83742W        W56167  11.866  21.493  12.880
83743W        W56168  18.835   8.709  12.624
83744W        W56169  28.111  21.517  12.042
83745W        W56170  17.636  21.727  12.569
83746W        W56171  10.852  25.137   0.933
83747W        W56172  25.178   6.610   1.721
83748W        W56173  35.496   7.947   3.300
83749W        W56174  31.551   5.137  11.979
83750W        W56175   1.835  16.120   4.155
83751W        W56176   9.867  38.530  11.731
83752W        W56177  41.097  44.487  12.263
83753W        W56178   0.884  15.208   1.741
83754W        W56179   3.329  40.787   4.492
83755W        W56180   6.366  19.862   4.160
83756W        W56181  39.496   4.878  12.657
83757W        W56182  33.384   7.719   2.216
83758W        W56183  12.368  18.163   3.197
83759W        W56184  22.563   5.301   2.166
83760W        W56185  35.628  25.068   1.037
83761W        W56186  43.036  44.850  11.887
83762W        W56187   0.955  20.085   1.663
83763W        W56188  25.063   3.790   4.591
83764W        W56189   2.062  19.721  10.507
83765W        W56190  25.101  24.033  10.666
83766W        W56191  22.716  16.042   4.180
83767W        W56192   7.967  32.745   0.697
83768W        W56193  43.795  26.039  12.889
83769W        W56194  33.855   5.895   0.700
83770W        W56195   1.857   6.527   4.872
83771W        W56196  41.663  22.478   4.253
83772W        W56197   0.387   8.838   1.696
83773W        W56198  16.188   2.893  11.682
83774W        W56199  15.821  15.485   5.007
83775W        W56200  36.511  13.089   3.164
83776W        W56201  29.062  40.056   1.821
83777W        W56202  11.564  39.084  12.820
83778W        W56203  13.168  11.760  12.837
83779W        W56204  23.508  30.274   3.601
83780W        W56205  17.503  26.588  11.055
83781W        W56206  19.766   3.961   0.105
83782W        W56207   8.073  12.589   3.909
83783W        W56208   0.929  17.210   4.334
83784W        W56209   7.251  13.313  12.938
83785W        W56210   1.229  39.228  11.120
83786W        W56211  26.724  22.091  11.122
83787W        W56212  23.950  25.407   3.229
83788W        W56213  27.923  39.792   4.937
83789W        W56214  27.520  24.215   2.764
83790W        W56215   1.059  44.316   5.126
83791W        W56216   0.278  27.276   3.559
83792W        W56217  24.177  31.224  11.491
83793W        W56218   4.858  35.957  10.320
83794W        W56219   1.704  17.437   3.741
83795W        W56220  38.808  17.374   2.702
83796W        W56221  42.304  28.056  14.287
83797W        W56222  27.512   4.370   2.635
83798W        W56223  20.650  29.376   1.891
83799W        W56224  36.725  35.058  14.752
83800W        W56225  17.180  22.578   3.338
83801W        W56226   6.326  37.550   3.686
83802W        W56227  21.109   3.014  10.617
83803W        W56228  26.151  30.431   0.366
83804W        W56229  42.057  35.552  11.528
83805W        W56230  19.120  32.957   2.020
83806W        W56231  19.186   9.757   3.705
83807W        W56232  38.430  30.137   3.662
83808W        W56233  28.539  25.220  11.016
83809W        W56234  32.903   3.269   1.371
83810W        W56235  22.620  11.240  11.416
83811W        W56236  22.141  11.197   0.223
83812W        W56237  29.676  16.581   3.087
83813W        W56238  42.755  36.456   2.718
83814W        W56239  31.634  21.513  10.569
83815W        W56240   7.732  43.689   4.375
83816W        W56241  17.257   6.475   3.180
83817W        W56242  18.092  12.794  11.178
83818W        W56243  32.487  38.589   3.277
83819W        W56244  39.470  22.992  11.385
83820W        W56245  23.194   0.357  12.313
83821W        W56246   2.818   4.884   1.753
83822W        W56247  38.560  38.944  10.292
83823W        W56248   0.226  11.895   0.316
83824W        W56249  20.186  15.206   0.837
83825W        W56250  21.405  44.455   1.267
83826W        W56251  43.171  31.742   2.782
83827W        W56252   0.807  40.431  13.741
83828W        W56253  26.612  21.586  10.986
83829W        W56254  13.297   7.220  12.874
83830W        W56255   9.872  33.876   4.544
83831W        W56256  33.375   0.709   4.628
83832W        W56257  27.036  21.814   0.992
83833W        W56258  27.037  35.871   1.843
83834W        W56259  21.217  21.827  14.404
83835W        W56260  36.546  12.375   3.763
83836W        W56261  18.603  37.444   1.610
83837W        W56262  28.155  26.672   4.541
83838W        W56263  21.385  30.064  14.313
83839W        W56264  42.250  42.440   2.339
83840W        W56265  29.574  18.979   1.237
83841W        W56266  40.546  18.614  14.999
83842W        W56267  17.219  21.093   0.700
83843W        W56268   2.903  41.899   0.739
83844W        W56269  26.080   8.969   2.129
83845W        W56270   6.617   7.494  11.036
83846W        W56271  11.723   4.525  13.572
83847W        W56272  31.493  11.841   4.870
83848W        W56273   8.127   3.886   1.895
83849W        W56274  12.355  11.169   2.299
83850W        W56275  17.059   7.149   2.709
83851W        W56276  28.620   8.759   1.196
83852W        W56277  34.261  44.190   4.096
83853W        W56278  17.581   5.244  11.525
83854W        W56279  30.138  30.459  11.517
83855W        W56280  25.032  38.803   2.304
83856W        W56281   8.540  30.583  10.287
83857W        W56282  11.658  32.942  12.792
83858W        W56283  13.804  33.474   2.670
83859W        W56284  21.523  33.594   3.726
83860W        W56285  42.281  17.680   1.349
83861W        W56286  17.198  27.794   2.783
83862W        W56287  22.041  19.481   4.312
83863W        W56288  43.366  28.091  13.852
83864W        W56289  33.556  36.664   2.747
83865W        W56290  15.537  37.100  11.199
83866W        W56291  16.713   8.120   4.040
83867W        W56292  37.448  16.148  10.935
83868W        W56293   5.151   8.174   4.189
83869W        W56294  29.327  32.392  12.344
83870W        W56295  29.872   0.991   2.851
83871W        W56296   4.851  41.164  13.951
83872W        W56297  34.916  34.416   1.913
83873W        W56298  43.084  19.312  13.061
83874W        W56299  15.384  11.159  13.807
83875W        W56300  33.837  24.151   2.261
83876W        W56301  33.935  26.081  14.043
83877W        W56302  26.208  30.628  11.941
83878W        W56303  22.601  20.305  11.118
83879W        W56304  33.095  36.245  11.530
83880W        W56305   0.429  11.100   2.357
83881W        W56306  22.051  43.834  13.918
83882W        W56307  30.194  36.133   2.200
83883W        W56308  16.492  15.596  13.525
83884W        W56309   8.362  42.121  12.953
83885W        W56310  40.027  23.981  12.524
83886W        W56311  24.082  17.595   1.269
83887W        W56312  44.769  23.292  11.468
83888W        W56313  28.109  21.388  13.984
83889W        W56314  21.007  18.303  12.006
83890W        W56315  34.162  28.939   1.816
83891W        W56316  36.913   9.670   2.747
83892W        W56317  28.353   3.302   1.257
83893W        W56318   3.502  41.727   0.961
83894W        W56319   0.257  13.199  13.470
83895W        W56320  29.878  36.986   0.914
83896W        W56321  28.998  32.543   1.418
83897W        W56322  32.589   9.414  10.934
83898W        W56323  40.827  17.687   1.285
83899W        W56324   1.501  27.138  13.596
83900W        W56325  23.780  42.950  14.337
83901W        W56326  42.045  15.612  11.989
83902W        W56327  39.585  14.613  12.064
83903W        W56328  26.700   6.794  13.943
83904W        W56329  43.254  38.458   0.900
83905W        W56330  42.368  42.296  12.998
83906W        W56331  40.426  35.379   1.903
83907W        W56332   4.301  43.893  11.636
83908W        W56333  14.327  40.907  10.982
83909W        W56334  26.735  33.327   4.600
83910W        W56335  38.228   8.974   4.647
83911W        W56336   4.275  10.247   0.456
83912W        W56337  43.419  33.936  10.373
83913W        W56338  39.340  23.269   1.683
83914W        W56339  35.090  15.866   2.495
83915W        W56340   5.215   9.633  11.550
83916W        W56341  27.186  15.947  11.866
83917W        W56342  20.068  11.598   1.333
83918W        W56343  22.496  36.040   3.253
83919W        W56344  28.620  11.061  14.597
83920W        W56345  32.149  12.616   1.862
83921W        W56346   2.844  35.367   4.756
83922W        W56347  10.891  23.237   4.100
83923W        W56348  35.919  25.481   3.390
83924W        W56349  33.560   1.013  11.945
83925W        W56350  14.199  37.697  13.589
83926W        W56351  20.546  36.567   4.519
83927W        W56352  39.327  33.627   1.463
83928W        W56353   2.405  38.850  10.600
83929W        W56354  16.696   9.339   1.711
83930W        W56355  30.144   7.120  12.481
83931W        W56356  11.860  30.882   1.945
83932W        W56357  30.413   0.525   1.710
83933W        W56358   6.167  39.577  14.387
83934W        W56359  20.564  10.136   0.825
83935W        W56360  43.491  14.175  13.858
83936W        W56361  18.943  30.745   4.189
83937W        W56362  33.048  36.732  11.419
83938W        W56363  43.989  31.590  11.824
83939W        W56364  30.937  33.678   4.408
83940W        W56365  11.080  10.414   1.281
83941W        W56366  34.759  44.791   3.764
83942W        W56367  42.385  33.619   0.436
83943W        W56368  28.933  34.915  13.437
83944W        W56369  15.001  29.876  12.937
83945W        W56370   2.098  29.866  10.686
83946W        W56371  36.347  31.878  10.285
83947W        W56372   5.241  31.955  14.877
83948W        W56373  34.684  15.100  13.426
83949W        W56374  32.144  34.842   1.218
83950W        W56375  20.641  28.879   1.230
83951W        W56376  22.383  31.279  12.911
83952W        W56377  24.178  16.825  12.999
83953W        W56378   1.837   5.943  12.435
83954W        W56379   7.342  13.850   1.160
83955W        W56380   2.877  44.018  10.690
83956W        W56381  21.677   8.011   3.225
83957W        W56382  24.604   7.208  11.768
83958W        W56383  29.062  37.978   4.144
83959W        W56384  36.099  43.914  13.832
83960W        W56385  19.685  16.219   4.389
83961W        W56386  29.864  19.313  14.281
83962W        W56387  10.525  43.433  10.921
83963W        W56388  10.382   1.925   3.048
83964W        W56389  24.701  36.343   3.552
83965W        W56390  22.465  42.947  10.629
83966W        W56391  33.943  41.480   4.124
83967W        W56392  38.529  38.572   3.348
83968W        W56393  23.222   9.881   5.567
83969W        W56394  28.845  38.062  10.154
83970W        W56395  14.325  33.961   3.856
83971W        W56396  33.501  43.769   1.841
83972W        W56397  39.961  11.187   2.295
83973W        W56398  29.004  14.576   4.213
83974W        W56399  22.573  31.994   1.727
83975W        W56400  30.883  14.671  10.993
83976W        W56401  29.349  19.600  12.322
83977W        W56402  30.367  14.745  13.099
83978W        W56403  29.780  17.093  13.517
83979W        W56404   7.307  34.400  12.850
83980W        W56405  31.970   2.516  13.284
83981W        W56406  15.950  35.418  12.471
83982W        W56407  17.831  44.442  13.003
83983W        W56408  31.434  36.081  11.367
83984W        W56409  29.529  42.148   1.269
83985W        W56410  17.141  30.709   3.557
83986W        W56411  17.467  12.158   0.318
83987W        W56412  40.900  10.532  11.083
83988W        W56413  37.532  25.651  12.785
83989W        W56414  38.882  14.335   4.942
83990W        W56415   4.752  21.604  14.964
83991W        W56416  44.359   6.239   2.242
83992W        W56417  10.686  36.054  14.917
83993W        W56418  36.810  16.731   3.292
83994W        W56419  22.415  38.912  11.848
83995W        W56420   2.169  43.231  13.993
83996W        W56421  14.780  25.759  13.848
83997W        W56422  37.543   5.920   1.315
83998W        W56423   2.911   2.225   1.386
83999W        W56424  29.010   2.136   0.939
84000W        W56425  35.947  31.577  10.519
84001W        W56426  12.393  29.273  10.683
84002W        W56427  18.134  23.484   4.963
84003W        W56428  32.345  35.171  11.275
84004W        W56429  16.100   1.839   2.875
84005W        W56430  32.439   4.929  10.740
84006W        W56431   7.423   3.901  13.889
84007W        W56432  42.741  39.770  14.516
84008W        W56433  31.898   4.857   0.892
84009W        W56434  42.417  26.396  13.356
84010W        W56435  33.201   7.374   3.406
84011W        W56436  34.352   6.780   2.339
84012W        W56437  34.968  13.245   0.885
84013W        W56438  27.491   2.722  14.938
84014W        W56439  22.121  23.497  13.387
84015W        W56440  37.002   4.367  14.261
84016W        W56441  11.936  12.182  14.315
84017W        W56442  14.389  23.724   3.892
84018W        W56443  44.564   8.909   3.800
84019W        W56444  26.673  28.084   1.365
84020W        W56445  42.688  23.732   0.860
84021W        W56446  12.229   2.679  12.409
84022W        W56447   3.667  35.935   4.813
84023W        W56448  23.210  17.491   4.042
84024W        W56449  10.236  12.311   0.223
84025W        W56450  43.927  38.541   1.738
84026W        W56451  13.291  34.209   0.782
84027W        W56452  23.318   1.342  11.713
84028W        W56453  39.665   5.885  12.185
84029W        W56454  10.679  26.468   4.126
84030W        W56455  36.084  32.028  12.011
84031W        W56456   8.681  40.580  13.861
84032W        W56457  36.921   7.858  12.957
84033W        W56458  23.669  36.861   1.134
84034W        W56459  41.969  29.697  13.704
84035W        W56460   1.892  14.891  13.904
84036W        W56461  12.157   1.696  13.997
84037W        W56462  43.767  23.930   2.237
84038W        W56463  34.937  36.327   2.672
84039W        W56464  18.042  28.240  12.858
84040W        W56465   7.201  10.647  11.980
84041W        W56466   4.683  28.485   1.337
84042W        W56467  25.471  22.531  14.955
84043W        W56468  29.434  33.446   4.453
84044W        W56469  15.283   8.083  12.791
84045W        W56470  30.493  23.093  12.946
84046W        W56471  22.698  21.464   3.740
84047W        W56472  41.472   7.816   3.313
84048W        W56473   5.380  28.676  14.039
84049W        W56474  18.783  11.838  14.029
84050W        W56475  13.341   3.987  11.758
84051W        W56476  43.743  19.311  13.306
84052W        W56477  40.759   9.642  14.708
84053W        W56478   3.785  15.545   1.798
84054W        W56479  11.863   7.832  12.506
84055W        W56480  22.201  27.705  11.606
84056W        W56481  27.335  32.933  11.304
84057W        W56482  40.404  25.113  12.988
84058W        W56483  43.912  28.901  12.666
84059W        W56484  23.592  11.814  10.552
84060W        W56485  32.260  37.148   9.922
84061W        W56486  22.457  31.955  11.148
84062W        W56487  19.689  19.086  11.153
84063W        W56488  17.362  15.152  13.494
84064W        W56489  27.047  29.875   2.931
84065W        W56490   1.836  19.689   0.883
84066W        W56491  29.980  26.216   0.882
84067W        W56492  16.331  20.563   0.718
84068W        W56493  19.160   1.961  11.616
84069W        W56494   1.151  39.676  10.919
84070W        W56495   3.897   9.531  14.321
84071W        W56496   4.363  40.444  10.437
84072W        W56497  38.243  31.075  12.027
84073W        W56498  38.072   1.798  11.055
84074W        W56499  24.403   7.299   1.505
84075W        W56500  13.127   5.241  14.355
84076W        W56501   1.390  41.310  11.150
84077W        W56502  14.038  38.063   2.288
84078W        W56503   9.155  24.573   2.804
84079W        W56504   4.405  31.134  12.010
84080W        W56505  44.559  40.279  10.221
84081W        W56506  43.240   9.815  10.688
84082W        W56507  28.499  30.975  14.903
84083W        W56508  14.359   1.577  12.049
84084W        W56509  15.825   2.784  14.661
84085W        W56510   0.157  10.765  10.502
84086W        W56511  15.845   3.151   4.153
84087W        W56512  32.113  43.760   4.530
84088W        W56513   6.713  31.828  13.317
84089W        W56514   7.120   0.003   4.628
84090W        W56515  18.302   3.398  13.018
84091W        W56516  40.776   4.354  10.565
84092W        W56517  21.565   7.761  12.107
84093W        W56518   8.521  29.031   2.192
84094W        W56519  25.681  12.157   1.810
84095W        W56520  36.560  28.491   1.806
84096W        W56521  24.605  19.844  13.285
84097W        W56522  29.691  41.006   3.762
84098W        W56523  24.724  10.574   0.872
84099W        W56524  20.612  25.355  14.783
84100W        W56525   0.261   6.677   2.399
84101W        W56526  34.559   6.668  12.620
84102W        W56527  15.583   5.881  10.944
84103W        W56528  34.591   4.485   0.535
84104W        W56529   1.848   2.151   2.278
84105W        W56530  33.341  26.492   0.710
84106W        W56531  29.448  24.236  13.371
84107W        W56532  22.542  26.096   0.816
84108W        W56533   6.801  30.494  14.375
84109W        W56534  38.496  10.267   3.216
84110W        W56535  34.325   5.744   0.881
84111W        W56536  13.509  28.073  11.628
84112W        W56537  21.032  30.557  13.471
84113W        W56538  40.391   9.300  12.957
84114W        W56539   0.012  22.275  13.146
84115W        W56540  26.445  13.327  11.652
84116W        W56541   4.810   9.615  10.686
84117W        W56542   9.197  20.424   3.793
84118W        W56543  28.704  23.092  11.462
84119W        W56544   7.251  36.457  12.287
84120W        W56545  17.296  29.072   4.625
84121W        W56546  36.501  44.198  13.416
84122W        W56547  36.931  35.661   1.468
84123W        W56548  24.503  41.491  14.296
84124W        W56549  42.840  29.879   3.702
84125W        W56550  16.841  18.234  13.884
84126W        W56551  14.573  38.164  12.371
84127W        W56552  30.007  15.577   1.719
84128W        W56553   7.688  40.845   0.684
84129W        W56554  31.350  11.719   3.261
84130W        W56555  26.543  19.173   2.936
84131W        W56556  29.573   5.752  14.482
84132W        W56557  38.609  27.925   0.167
84133W        W56558  36.621  11.806   1.967
84134W        W56559  33.301   8.182   0.893
84135W        W56560  35.084  13.815   3.668
84136W        W56561  14.992  14.263   1.192
84137W        W56562  31.633   6.288  11.408
84138W        W56563   6.441  14.404  10.698
84139W        W56564  12.331  25.290   1.144
84140W        W56565  37.996  39.273   3.301
84141W        W56566  29.933  22.213  12.944
84142W        W56567  29.759  43.290  10.436
84143W        W56568  44.908  12.208   1.877
84144W        W56569  38.586  38.412  12.983
84145W        W56570   2.217  14.498  11.105
84146W        W56571  36.423  25.615   4.352
84147W        W56572   6.753  42.738  13.509
84148W        W56573  21.740  31.326   2.451
84149W        W56574  22.693  39.761  14.017
84150W        W56575   4.734  18.234  12.981
84151W        W56576   9.288   6.446  11.105
84152W        W56577  22.070  14.717  14.013
84153W        W56578  22.849   2.084  13.587
84154W        W56579  42.811  44.322   1.033
84155W        W56580  31.020   8.762   0.837
84156W        W56581   8.641  30.913  12.944
84157W        W56582  38.890  35.280  10.657
84158W        W56583  19.798  42.974   1.901
84159W        W56584   6.910  43.463   1.848
84160W        W56585  41.946  35.826   3.151
84161W        W56586  32.495  39.028  11.520
84162W        W56587  14.675  25.147   2.895
84163W        W56588  39.886  43.835  14.847
84164W        W56589  44.800  37.353   3.694
84165W        W56590   2.634  38.026   0.837
84166W        W56591   2.995  30.764   4.471
84167W        W56592  37.906  30.666  12.401
84168W        W56593  26.670  34.932  14.845
84169W        W56594  19.334  19.073  14.984
84170W        W56595   3.246  37.940  13.622
84171W        W56596   1.239  11.242  10.430
84172W        W56597  37.619  37.328  11.569
84173W        W56598  14.198   7.462  12.004
84174W        W56599  42.842  16.208   0.347
84175W        W56600  14.638  42.605   1.883
84176W        W56601  18.551   7.126   3.711
84177W        W56602  40.085  32.335  14.958
84178W        W56603  19.580  39.944   4.108
84179W        W56604  42.088  14.726  14.955
84180W        W56605  42.591  33.132   3.986
84181W        W56606  26.925   3.259   4.710
84182W        W56607  17.104  40.044   2.962
84183W        W56608  33.425  17.703  10.409
84184W        W56609  21.968  38.075   4.808
84185W        W56610  40.843  24.115  11.534
84186W        W56611  43.340  40.169  12.037
84187W        W56612  43.384  39.413   0.208
84188W        W56613  40.225  43.465  12.864
84189W        W56614  18.514  26.650  12.962
84190W        W56615  31.978  17.208   4.136
84191W        W56616  14.156  33.935   3.332
84192W        W56617   4.427  35.005  11.649
84193W        W56618  37.773  11.584  12.497
84194W        W56619  19.606  26.489   4.141
84195W        W56620  44.648  28.516  13.407
84196W        W56621  10.582  32.232   3.113
84197W        W56622  31.496  30.424  12.875
84198W        W56623  15.054  42.075  11.122
84199W        W56624  13.301  20.656   0.853
84200W        W56625  15.698  10.702  11.542
84201W        W56626  15.151  24.142  14.729
84202W        W56627  37.548  15.101  11.400
84203W        W56628  15.516  26.231   4.617
84204W        W56629   5.704  42.218   0.457
84205W        W56630  20.090  27.588   3.308
84206W        W56631  33.219  37.625   0.974
84207W        W56632   7.637  12.207   0.837
84208W        W56633   9.338  38.985   4.447
84209W        W56634  18.338  27.504   0.230
84210W        W56635  19.180   4.891  12.895
84211W        W56636  29.484  15.327   2.436
84212W        W56637  13.421  23.268  13.986
84213W        W56638  25.169  29.468   0.480
84214W        W56639   9.290   0.720   1.730
84215W        W56640   4.875  19.552   2.327
84216W        W56641   4.646  42.951  11.233
84217W        W56642  18.879   0.907  11.483
84218W        W56643  26.202  38.682   1.393
84219W        W56644  43.462   9.401  14.716
84220W        W56645  10.718   2.619   3.251
84221W        W56646  44.358   1.268   1.211
84222W        W56647   2.447  15.673   2.088
84223W        W56648  39.948  27.114  14.300
84224W        W56649  41.986  36.637  14.087
84225W        W56650  19.300  38.776  14.409
84226W        W56651  10.940  13.625  12.387
84227W        W56652  15.284  40.864   3.863
84228W        W56653   6.358  24.445  11.585
84229W        W56654  16.690  41.319  11.952
84230W        W56655   6.792   6.006  13.397
84231W        W56656  14.672  28.069  13.621
84232W        W56657   7.130   7.161   1.402
84233W        W56658  24.224  40.547   2.834
84234W        W56659  18.385   3.138  13.898
84235W        W56660  14.287   1.391  14.686
84236W        W56661  13.176  14.966   1.918
84237W        W56662  26.797  36.795  14.947
84238W        W56663   7.901  38.487   0.194
84239W        W56664  37.470  36.447  12.002
84240W        W56665  15.038  11.071   1.816
84241W        W56666   9.427  18.185   2.729
84242W        W56667  21.191   6.454  13.453
84243W        W56668  36.085  18.804  11.392
84244W        W56669  36.874  31.476  13.860
84245W        W56670  13.585  20.654   4.536
84246W        W56671  44.841   0.072  13.165
84247W        W56672  38.600  44.518   2.817
84248W        W56673   2.588  42.437   4.628
84249W        W56674   0.929  11.405  11.726
84250W        W56675  11.835   3.839   3.204
84251W        W56676  20.266  23.546  11.394
84252W        W56677  24.619   4.411  12.132
84253W        W56678  39.062  38.648  12.991
84254W        W56679  23.189  35.514   3.859
84255W        W56680  27.138   4.371   4.389
84256W        W56681  25.504  42.448  10.642
84257W        W56682  37.806  12.750   3.269
84258W        W56683  33.013  43.988  12.838
84259W        W56684  37.476  33.640  14.093
84260W        W56685  27.611   2.346  13.411
84261W        W56686  37.727   3.360   0.312
84262W        W56687   4.998  27.513  12.609
84263W        W56688  35.970  25.785  12.896
84264W        W56689   2.843  20.265  13.558
84265W        W56690   0.843   9.268   3.241
84266W        W56691   1.704  19.423  10.741
84267W        W56692  30.003  35.800   3.644
84268W        W56693  19.578   9.333   4.914
84269W        W56694  34.607  11.648  11.749
84270W        W56695  26.547   4.440  14.280
84271W        W56696  40.383   0.252  14.309
84272W        W56697  10.859  41.338   1.371
84273W        W56698  26.527   6.341  13.077
84274W        W56699  29.809  40.002  10.227
84275W        W56700  22.176   1.435   0.789
84276W        W56701  12.629  40.284   3.262
84277W        W56702  21.072  27.808  13.337
84278W        W56703  21.114  40.803  13.404
84279W        W56704  28.586  41.472  13.899
84280W        W56705  32.877  32.995  11.558
84281W        W56706  12.131  10.182   3.797
84282W        W56707   7.944   3.138   4.180
84283W        W56708   8.907  10.654  14.872
84284W        W56709   0.162  21.762  14.521
84285W        W56710   8.687  17.335   3.086
84286W        W56711  28.128  37.956  11.882
84287W        W56712  14.039   3.734   0.494
84288W        W56713  40.327  20.987   0.504
84289W        W56714   3.364  35.124  11.532
84290W        W56715  29.695  33.001  14.136
84291W        W56716  20.226  27.459   1.733
84292W        W56717   4.027   9.444   3.273
84293W        W56718  22.540   5.828   0.874
84294W        W56719  38.222  10.786  12.448
84295W        W56720  19.489   4.836   4.205
84296W        W56721  12.321  36.485  10.679
84297W        W56722  27.742  32.806  14.516
84298W        W56723  16.653  18.584  13.541
84299W        W56724   9.569  41.971  11.466
84300W        W56725  42.583  29.112   3.345
84301W        W56726  43.255  37.861   2.687
84302W        W56727   1.309  16.129   3.827
84303W        W56728   5.367  17.760   1.702
84304W        W56729  35.775  10.509   3.653
84305W        W56730   5.555  19.530  13.498
84306W        W56731  35.946   1.865   0.691
84307W        W56732   7.310   3.258  14.998
84308W        W56733  24.413  28.193  12.807
84309W        W56734  14.249  25.630   3.782
84310W        W56735  23.216  39.860   0.346
84311W        W56736   8.507  38.887  10.577
84312W        W56737  34.604  28.090  14.299
84313W        W56738  36.289  36.990   0.157
84314W        W56739  24.677   6.317  13.506
84315W        W56740  39.918  11.404  14.956
84316W        W56741  43.254  30.697   2.528
84317W        W56742   2.991  28.242   1.784
84318W        W56743   1.392  14.735  14.565
84319W        W56744  38.484  12.757   1.216
84320W        W56745  20.076  12.842   1.885
84321W        W56746  27.042   9.431  12.416
84322W        W56747  18.154   6.232  10.941
84323W        W56748  12.749  39.651  10.733
84324W        W56749  10.196   5.433   4.116
84325W        W56750  18.743  31.199   2.654
84326W        W56751  25.336   4.961   3.740
84327W        W56752  36.437   3.684   0.211
84328W        W56753  32.845   9.010  12.902
84329W        W56754  25.034  29.161  10.160
84330W        W56755  21.755   5.957   2.932
84331W        W56756  15.102   2.954   3.157
84332W        W56757  19.105  34.326   3.722
84333W        W56758   5.369   9.467  14.974
84334W        W56759  27.249  27.641  12.058
84335W        W56760  10.253  40.013  12.570
84336W        W56761  37.602  34.075   2.611
84337W        W56762  41.032  29.998  11.933
84338W        W56763  24.297   9.090   3.230
84339W        W56764  29.959   9.882   4.256
84340W        W56765  39.298  37.065   3.326
84341W        W56766  25.215  41.898   3.627
84342W        W56767   8.593  12.833  11.174
84343W        W56768  22.683  12.216  12.951
84344W        W56769  30.306   0.091   1.969
84345W        W56770  29.562  42.632   1.434
84346W        W56771  35.661  30.076   3.180
84347W        W56772  33.520   8.904  11.700
84348W        W56773  11.316   6.822   3.122
84349W        W56774  28.479  27.095  11.590
84350W        W56775  29.343  35.542  12.977
84351W        W56776  15.656  44.817  12.978
84352W        W56777  31.161  34.839   0.393
84353W        W56778   2.976  34.163  10.326
84354W        W56779  28.812  18.551   2.282
84355W        W56780  17.020  42.534  12.585
84356W        W56781   3.221  13.302   4.918
84357W        W56782   8.921  26.501   2.190
84358W        W56783  13.648  16.626  13.885
84359W        W56784  24.134  26.435   3.241
84360W        W56785   0.169  33.702   9.713
84361W        W56786  10.128   3.747   2.016
84362W        W56787  36.205  26.669  11.125
84363W        W56788  20.652   8.665   1.452
84364W        W56789   3.817  12.598   2.673
84365W        W56790  41.342  35.944   2.489
84366W        W56791  42.718  41.832   3.203
84367W        W56792  19.664  37.939   4.645
84368W        W56793   2.172   1.581  13.932
84369W        W56794  22.125  28.018   4.117
84370W        W56795  36.382  22.986   2.206
84371W        W56796  41.504  42.245   3.613
84372W        W56797  26.496  13.886  10.740
84373W        W56798  26.551   8.846  10.999
84374W        W56799  25.614  21.506   0.501
84375W        W56800  17.425   6.951   0.871
84376W        W56801  41.501  22.242  10.997
84377W        W56802  28.270  37.885  13.333
84378W        W56803  30.412  39.004  13.442
84379W        W56804  23.529  23.028   0.957
84380W        W56805   9.196  10.373   4.570
84381W        W56806  12.041   9.671   2.253
84382W        W56807  39.518  36.748  14.105
84383W        W56808  10.108  33.134  12.972
84384W        W56809  33.844  11.652   1.789
84385W        W56810  34.045   8.429   3.822
84386W        W56811   9.239  15.582  12.925
84387W        W56812   1.411   8.486  12.017
84388W        W56813   4.211  40.568  12.075
84389W        W56814  38.285  13.355  12.155
84390W        W56815  30.481  39.011   4.952
84391W        W56816  10.192  35.158   4.757
84392W        W56817  20.267  23.322   2.154
84393W        W56818  33.717   4.861   0.402
84394W        W56819  13.831   5.141  10.590
84395W        W56820  18.352  20.073   4.205
84396W        W56821  10.693   2.055   0.530
84397W        W56822   7.863  15.241  13.958
84398W        W56823  42.811  14.337  10.936
84399W        W56824   7.424  27.905   1.395
84400W        W56825  14.121   9.783   1.910
84401W        W56826  40.106  17.153  11.191
84402W        W56827   4.357  42.619  11.006
84403W        W56828  33.663  29.677   2.631
84404W        W56829  41.268  17.489   1.456
84405W        W56830  27.720  36.839   1.885
84406W        W56831  25.255  14.269  13.299
84407W        W56832   4.203  40.604   1.936
84408W        W56833  30.520  31.857   2.348
84409W        W56834  33.608   0.493   4.215
84410W        W56835  26.241   0.662   3.353
84411W        W56836   6.719  23.998   4.093
84412W        W56837  39.057  33.864   0.260
84413W        W56838  10.378  25.634  10.620
84414W        W56839   9.370  44.309   0.927
84415W        W56840   7.057  20.242  12.956
84416W        W56841  41.391   5.805  12.613
84417W        W56842  11.487  35.083  11.058
84418W        W56843  25.999   7.234   2.446
84419W        W56844  15.683  41.396   0.428
84420W        W56845   7.814  15.859  12.018
84421W        W56846  33.623  14.578   3.689
84422W        W56847  18.596   5.647   2.391
84423W        W56848  21.101   9.239  11.562
84424W        W56849  22.390  34.566  13.970
84425W        W56850  38.240   0.497  13.878
84426W        W56851  24.467   8.246   1.649
84427W        W56852   3.576   9.444  11.148
84428W        W56853  10.308  28.197   0.354
84429W        W56854  26.476  19.330   0.727
84430W        W56855   6.007  37.088   0.851
84431W        W56856   8.440  28.509  11.146
84432W        W56857  36.623  29.607   0.011
84433W        W56858  38.269  19.267   2.870
84434W        W56859  38.763   7.826   3.238
84435W        W56860  36.712  26.171   1.950
84436W        W56861  25.071  42.913   2.121
84437W        W56862   6.826  34.791   3.799
84438W        W56863  24.308  24.254   2.774
84439W        W56864  40.525  13.833  11.076
84440W        W56865  22.437   0.067  11.214
84441W        W56866  15.697  12.702   4.169
84442W        W56867  15.828  20.970   0.001
84443W        W56868   6.698  20.660   0.818
84444W        W56869  20.234  41.355   4.635
84445W        W56870  43.399  35.790   3.692
84446W        W56871  13.373   2.893  13.415
84447W        W56872  24.076  37.283   0.022
84448W        W56873  10.790  35.597   2.647
84449W        W56874   2.037  40.726  14.339
84450W        W56875   6.438   0.816   1.511
84451W        W56876   2.390   8.429   1.607
84452W        W56877  30.795   8.145  13.279
84453W        W56878  35.566   0.106  13.424
84454W        W56879   0.799   9.920   3.709
84455W        W56880   2.301  34.504  11.702
84456W        W56881  28.579  20.563  13.301
84457W        W56882  32.984  17.833  13.883
84458W        W56883  27.422  33.505  13.541
84459W        W56884  12.302  12.654  11.718
84460W        W56885  35.859   9.282  10.728
84461W        W56886  33.203  40.875   3.727
84462W        W56887  13.798   5.342  14.820
84463W        W56888  32.911  44.099   4.244
84464W        W56889  36.113  16.775   0.846
84465W        W56890   4.167  39.886   1.324
84466W        W56891  22.280  20.118   1.803
84467W        W56892  36.308  30.108  10.493
84468W        W56893  23.053   3.982  13.524
84469W        W56894   6.937   7.271   0.916
84470W        W56895  21.131  16.334  11.550
84471W        W56896  22.291  29.930   4.671
84472W        W56897  26.621  26.638  13.793
84473W        W56898   1.633  28.128  11.512
84474W        W56899  41.179   5.870   1.861
84475W        W56900  23.113  29.995  10.639
84476W        W56901   0.095  24.295   1.885
84477W        W56902  40.177   8.158   3.732
84478W        W56903  26.223  21.158  12.831
84479W        W56904   2.297   0.349   0.983
84480W        W56905   9.432  37.913   2.297
84481W        W56906   9.024  18.312  13.961
84482W        W56907  12.808  23.634   0.098
84483W        W56908  11.860  43.853   0.690
84484W        W56909   4.954  37.847  11.678
84485W        W56910  31.092  28.641   2.591
84486W        W56911  26.873  29.059   4.108
84487W        W56912   6.471  41.098   2.882
84488W        W56913  16.816   8.617   4.102
84489W        W56914   9.242  42.401  12.142
84490W        W56915  29.107  35.322   2.454
84491W        W56916  22.136   8.200   3.096
84492W        W56917  26.436  35.829   3.205
84493W        W56918  14.096  13.259   1.872
84494W        W56919  10.167  31.363  14.388
84495W        W56920  13.324   6.183   0.814
84496W        W56921  13.821  20.569   0.893
84497W        W56922   2.945  43.507   1.721
84498W        W56923  43.238   0.081   3.786
84499W        W56924  33.980  23.502  13.993
84500W        W56925   8.490  41.407  11.151
84501W        W56926  18.784  33.343  14.447
84502W        W56927  41.063  22.619  13.869
84503W        W56928  34.968  16.218  10.739
84504W        W56929  19.720   6.770  14.835
84505W        W56930  33.826  42.055  11.963
84506W        W56931  27.995  26.908   2.423
84507W        W56932  12.762  30.977   0.186
84508W        W56933  30.585  37.277  13.773
84509W        W56934   1.011  44.755   0.762
84510W        W56935  42.220  23.244   0.337
84511W        W56936  42.573  40.249   1.421
84512W        W56937  28.132  18.017  14.903
84513W        W56938  43.183  20.526  13.754
84514W        W56939  10.244  23.531   3.362
84515W        W56940   9.214  29.074  13.416
84516W        W56941   4.513   5.936  13.926
84517W        W56942  38.413   8.894  11.105
84518W        W56943  33.154  13.147  13.974
84519W        W56944  18.320  13.780  11.194
84520W        W56945  42.441  36.550  13.855
84521W        W56946  17.803   1.364   4.129
84522W        W56947  20.449  14.293   0.240
84523W        W56948  32.144   1.777  13.922
84524W        W56949   8.736   5.686  12.137
84525W        W56950  16.607  12.269   4.277
84526W        W56951   5.301  32.830   0.166
84527W        W56952   1.552  14.644  10.480
84528W        W56953   7.913  20.952   3.692
84529W        W56954   1.039   7.202  13.865
84530W        W56955  34.126  35.727   2.854
84531W        W56956  19.620  22.167   1.395
84532W        W56957  24.705   6.734   3.642
84533W        W56958  21.265  15.211   2.286
84534W        W56959  36.126  22.047  14.471
84535W        W56960   3.891  35.869   3.726
84536W        W56961  11.597   5.717  14.392
84537W        W56962  28.276  16.825   0.707
84538W        W56963   4.379  32.048   0.811
84539W        W56964  28.614  19.205   4.321
84540W        W56965  36.462  12.145  10.737
84541W        W56966  12.043  23.551  10.233
84542W        W56967  24.295  22.378   2.506
84543W        W56968  20.750   8.819  14.435
84544W        W56969  13.541  10.878   2.723
84545W        W56970  21.114  42.762  11.815
84546W        W56971  29.094  36.453   4.776
84547W        W56972  17.055   8.849   2.706
84548W        W56973  39.986  42.444  11.191
84549W        W56974   9.180   6.219   0.261
84550W        W56975  16.026  40.969   2.765
84551W        W56976  28.672  11.643   3.736
84552W        W56977   8.779  30.593   1.990
84553W        W56978  25.692  18.182   3.212
84554W        W56979  29.500   6.756   2.880
84555W        W56980  18.298  31.360  11.487
84556W        W56981  25.785  15.199  10.732
84557W        W56982  27.310  32.109   1.044
84558W        W56983   7.669  19.565  14.308
84559W        W56984  24.372  19.592   1.430
84560W        W56985  19.992   2.889   1.913
84561W        W56986  20.981  14.284   0.292
84562W        W56987  33.303  17.867  12.947
84563W        W56988  33.937  16.345  13.860
84564W        W56989  36.965  20.570  12.475
84565W        W56990  38.541  44.068   1.972
84566W        W56991  27.022  21.013   2.622
84567W        W56992   1.808  43.567   0.861
84568W        W56993  29.683  22.167   1.769
84569W        W56994   0.713  13.397   0.360
84570W        W56995  12.470  33.691  14.337
84571W        W56996  36.725  21.979  13.099
84572W        W56997  40.837  43.530   2.756
84573W        W56998  41.392  26.897   1.843
84574W        W56999  34.011   9.422   3.884
84575W        W57000  15.196  36.449  10.387
84576W        W57001   3.550  17.739   1.507
84577W        W57002  26.706  42.817   4.105
84578W        W57003  20.018  41.102  11.007
84579W        W57004   5.198  43.548  13.941
84580W        W57005  13.122  10.293  14.208
84581W        W57006  17.886  43.915  12.938
84582W        W57007  41.814  35.675   1.834
84583W        W57008  18.066  16.626   1.668
84584W        W57009  36.814   8.309  11.598
84585W        W57010  20.506   2.241   3.704
84586W        W57011   7.730  39.291  12.907
84587W        W57012  18.832  42.076   0.901
84588W        W57013  26.740  15.280   4.276
84589W        W57014  27.879  12.747  11.683
84590W        W57015  36.933  24.424  11.642
84591W        W57016  29.391  16.180  14.905
84592W        W57017  41.970  30.946  11.596
84593W        W57018  23.212  12.789  13.504
84594W        W57019   9.313  36.199   0.927
84595W        W57020  42.887  29.372   3.702
84596W        W57021  25.067  29.613  11.028
84597W        W57022  39.911  44.046   4.702
84598W        W57023  25.860  39.895   0.777
84599W        W57024  15.269  32.933   3.658
84600W        W57025   3.857   8.844  10.635
84601W        W57026  14.134   7.244   4.266
84602W        W57027  22.290  32.289   4.576
84603W        W57028  37.001   0.941  10.642
84604W        W57029  38.926  38.827  12.472
84605W        W57030  34.425  36.131   0.321
84606W        W57031  39.331  10.337  13.191
84607W        W57032  29.829  44.259  12.153
84608W        W57033  36.181  24.576  11.258
84609W        W57034  35.721  15.081   2.800
84610W        W57035  21.012  32.064  11.447
84611W        W57036  31.568  36.835  12.049
84612W        W57037  28.641  28.039   1.934
84613W        W57038  13.169  40.060  14.852
84614W        W57039  25.919  37.089  11.641
84615W        W57040  39.901   4.123  12.078
84616W        W57041  10.915  10.232  14.636
84617W        W57042   1.888   1.370  13.534
84618W        W57043  28.627  36.113  12.050
84619W        W57044   6.258  31.392  11.781
84620W        W57045  15.674  33.379  14.321
84621W        W57046  26.100  44.328  11.698
84622W        W57047  37.985  15.308  11.535
84623W        W57048  15.922  24.988   4.574
84624W        W57049  40.416  10.218  10.180
84625W        W57050  23.519  37.937   0.419
84626W        W57051  31.301  32.852   2.782
84627W        W57052   6.774  20.734  11.205
84628W        W57053   2.478  12.100   2.057
84629W        W57054  41.112   3.312  13.452
84630W        W57055  30.904  43.477   0.031
84631W        W57056  30.068   4.973  12.956
84632W        W57057  32.197   5.322  10.504
84633W        W57058  43.471  20.124  13.205
84634W        W57059   5.464  15.220   2.173
84635W        W57060  44.974  35.554   0.424
84636W        W57061  19.799   1.747   1.563
84637W        W57062  43.339  42.118   4.039
84638W        W57063   0.342  44.939  13.267
84639W        W57064  17.596  12.221  11.152
84640W        W57065  30.841  34.442   2.683
84641W        W57066  30.618  33.349   2.301
84642W        W57067  34.894  28.132   2.868
84643W        W57068   3.766   7.234   0.018
84644W        W57069   2.105   9.722  14.269
84645W        W57070   7.993  44.052  13.520
84646W        W57071  27.544  22.169   4.123
84647W        W57072  32.415  29.761   3.589
84648W        W57073  36.047  29.365  13.311
84649W        W57074   1.545  15.692   2.266
84650W        W57075  19.759   5.104   1.715
84651W        W57076  15.255  33.657  14.555
84652W        W57077  43.406  22.098  11.854
84653W        W57078  22.147  28.198  11.528
84654W        W57079  29.050  12.788  10.984
84655W        W57080   3.370  40.762   2.338
84656W        W57081  16.971  35.331   1.417
84657W        W57082  35.762  39.316   1.241
84658W        W57083  10.647   7.293  11.903
84659W        W57084  40.281  32.597  12.536
84660W        W57085  41.653  37.436   3.655
84661W        W57086  25.165  15.446   4.141
84662W        W57087   2.247  17.573   2.010
84663W        W57088  22.787  27.652  14.769
84664W        W57089  11.709  16.166  10.984
84665W        W57090  40.890  40.216   1.281
84666W        W57091  13.961  22.626   0.401
84667W        W57092  40.374  40.114  14.453
84668W        W57093   4.470  28.962  14.525
84669W        W57094  35.875  32.926  12.922
84670W        W57095  43.927   2.054  12.122
84671W        W57096  18.734  28.067  14.427
84672W        W57097  42.065  14.145  14.605
84673W        W57098   4.892   1.519  12.515
84674W        W57099   9.763  32.091  11.059
84675W        W57100   5.827  17.282  12.346
84676W        W57101  41.313  15.361   1.782
84677W        W57102  20.297  23.245   4.903
84678W        W57103  35.701  36.545  14.630
84679W        W57104  44.898   3.991   0.416
84680W        W57105  20.389  27.959  14.817
84681W        W57106  13.336  13.010   2.223
84682W        W57107   7.353  27.625  10.908
84683W        W57108  39.954  19.290  12.900
84684W        W57109  44.544  17.773   3.649
84685W        W57110  36.501  23.483   4.600
84686W        W57111   4.471   4.333  14.892
84687W        W57112  21.711   7.652  14.568
84688W        W57113  44.185   1.776  14.824
84689W        W57114  23.923  44.802   2.212
84690W        W57115  38.902  20.555  14.065
84691W        W57116  36.391  30.211  13.632
84692W        W57117  11.099  29.959   3.288
84693W        W57118  18.735  38.164  10.684
84694W        W57119  35.911  15.562  11.384
84695W        W57120  16.491  31.588   4.603
84696W        W57121  17.131  43.028   4.705
84697W        W57122  10.882   8.797  11.588
84698W        W57123  16.690  21.905   4.325
84699W        W57124  34.694  37.325   0.876
84700W        W57125  17.864  30.961   1.876
84701W        W57126  30.092   8.289   1.439
84702W        W57127  14.234  23.906  13.924
84703W        W57128  29.173  10.830   0.312
84704W        W57129  16.183  10.641   3.405
84705W        W57130   2.250  30.767  10.404
84706W        W57131  27.815  33.370  13.217
84707W        W57132  22.475   1.279  13.771
84708W        W57133  17.737  22.501  10.852
84709W        W57134  43.296  28.044   4.696
84710W        W57135  43.320  16.767  13.728
84711W        W57136   4.491  35.113  14.382
84712W        W57137  39.566  25.234   3.279
84713W        W57138  34.648  38.883   4.080
84714W        W57139   8.755   5.722   3.745
84715W        W57140  20.675   5.398   4.499
84716W        W57141  39.310  44.898   1.362
84717W        W57142   8.815  30.974   1.028
84718W        W57143  31.869  38.877   2.788
84719W        W57144  24.694   6.712  11.864
84720W        W57145   8.215  14.334   0.514
84721W        W57146  39.778  16.954   2.663
84722W        W57147  34.504  30.507   1.218
84723W        W57148  41.386  35.945  14.947
84724W        W57149  43.986  28.189  11.577
84725W        W57150   3.919  24.949  13.856
84726W        W57151  39.765  40.432  11.040
84727W        W57152  30.055  30.896  12.327
84728W        W57153  30.523  16.397   3.279
84729W        W57154  38.329   2.233   0.293
84730W        W57155   1.155  25.533   4.340
84731W        W57156  10.634  18.333   2.928
84732W        W57157  37.856  25.601   3.246
84733W        W57158   6.890   5.231   2.694
84734W        W57159  32.131  33.907   4.972
84735W        W57160  34.125  14.026   4.543
84736W        W57161  24.586  24.574   4.990
84737W        W57162  42.247   1.880  13.004
84738W        W57163  37.574   1.748   4.290
84739W        W57164  38.082  37.503   4.690
84740W        W57165   8.301  15.842   0.468
84741W        W57166   6.796   5.951   3.696
84742W        W57167   5.679  31.003  14.971
84743W        W57168   0.437  38.092  12.120
84744W        W57169  29.180  27.887  12.561
84745W        W57170  20.534  44.185  11.606
84746W        W57171   1.165  10.429  13.849
84747W        W57172   5.154  17.185   5.128
84748W        W57173  40.452  37.548   1.257
84749W        W57174  12.575  39.440   1.425
84750W        W57175  18.144   9.130   4.066
84751W        W57176  28.546  24.676   2.163
84752W        W57177  17.764  39.079   2.679
84753W        W57178  25.081  11.607   1.291
84754W        W57179  20.775   9.646   0.848
84755W        W57180   1.202   1.887   4.160
84756W        W57181  26.878  23.509  12.992
84757W        W57182  11.111  44.811   3.335
84758W        W57183  39.595  19.441   3.989
84759W        W57184  22.028  19.020  11.402
84760W        W57185  22.104  42.293  13.439
84761W        W57186  20.924  17.493   4.274
84762W        W57187  16.184  31.534   2.483
84763W        W57188  37.369  21.141  10.315
84764W        W57189  40.535  12.826  11.217
84765W        W57190   6.743   0.792  11.941
84766W        W57191  24.286  23.496   3.032
84767W        W57192  32.940   6.957   2.458
84768W        W57193  17.004  15.536  13.401
84769W        W57194  37.023   2.879   4.185
84770W        W57195   6.930  35.293   3.609
84771W        W57196  10.214   1.986   4.645
84772W        W57197  32.463  19.527   4.051
84773W        W57198  32.865  32.596   0.844
84774W        W57199  36.582  15.719   0.360
84775W        W57200  21.924  43.784   4.098
84776W        W57201  32.747   5.792   0.401
84777W        W57202  43.536  31.054   3.489
84778W        W57203  13.131  42.766   1.231
84779W        W57204   1.751  12.994  12.632
84780W        W57205   9.742  28.079   0.349
84781W        W57206  40.391   9.898   1.392
84782W        W57207   2.229  23.650   4.286
84783W        W57208  16.184  26.409  12.562
84784W        W57209  43.774  14.056  13.438
84785W        W57210  31.562  39.991   4.799
84786W        W57211  11.391  26.495  11.030
84787W        W57212  36.790  36.855   2.718
84788W        W57213   9.460  20.069  11.150
84789W        W57214   2.819  38.359   1.412
84790W        W57215  22.477  21.574   4.186
84791W        W57216  16.487  36.539   0.057
84792W        W57217  28.724  37.581  13.989
84793W        W57218  30.938  35.470  12.961
84794W        W57219   8.661  32.645   0.266
84795W        W57220  28.653  35.295   3.423
84796W        W57221  27.069  27.913   1.039
84797W        W57222  33.907  34.812  12.528
84798W        W57223   0.171  41.455   2.836
84799W        W57224  18.088  28.458   4.049
84800W        W57225  14.472  15.158   4.333
84801W        W57226  36.114  41.548   2.317
84802W        W57227   8.208  22.601   2.241
84803W        W57228  39.808  19.219   2.753
84804W        W57229   5.774  32.966   2.154
84805W        W57230  40.913  19.706  14.364
84806W        W57231  10.623  12.344   0.941
84807W        W57232  22.701  26.954   2.658
84808W        W57233  23.027  36.835  13.909
84809W        W57234  13.158  15.753   3.625
84810W        W57235   8.377  33.706  13.996
84811W        W57236  12.304  39.116  12.338
84812W        W57237  29.580  40.222  13.484
84813W        W57238  34.584  24.940  10.756
84814W        W57239  32.504  28.979   4.049
84815W        W57240  22.006  26.396   2.675
84816W        W57241  23.155  38.876   4.649
84817W        W57242  43.604  26.038   4.123
84818W        W57243  29.247  21.005  10.650
84819W        W57244  23.536   1.158   3.589
84820W        W57245  39.049  12.730   0.267
84821W        W57246  24.124  11.790  11.866
84822W        W57247  35.476   6.705   0.712
84823W        W57248  22.101  42.530   4.027
84824W        W57249   6.423  20.815  11.634
84825W        W57250  23.196  31.584   2.247
84826W        W57251  19.769  36.493   2.715
84827W        W57252  32.285  17.709  14.448
84828W        W57253  19.345  35.042   2.780
84829W        W57254  13.431  40.778   0.390
84830W        W57255  43.948  39.865  14.513
84831W        W57256  34.893   9.369  10.655
84832W        W57257  14.526   6.251  13.837
84833W        W57258   9.576  14.801  14.520
84834W        W57259  36.409  26.488   4.304
84835W        W57260   8.829  10.318  14.034
84836W        W57261  19.514  18.156  13.923
84837W        W57262  22.358  10.389  14.957
84838W        W57263   9.473  31.094  11.540
84839W        W57264  44.801  12.423  11.905
84840W        W57265   9.395  35.007   4.117
84841W        W57266  39.387  21.123  14.600
84842W        W57267  40.455  19.248  13.117
84843W        W57268  31.488  41.353  14.780
84844W        W57269  32.728  39.866   1.805
84845W        W57270  26.598  12.603  11.955
84846W        W57271  31.957  30.472   4.937
84847W        W57272  40.918  26.193   5.065
84848W        W57273  31.334   0.441  10.847
84849W        W57274   4.859   1.555   3.700
84850W        W57275  27.680   6.078   3.950
84851W        W57276  18.346   8.654  11.824
84852W        W57277  11.607  41.516  13.858
84853W        W57278  33.647   3.898   3.897
84854W        W57279  14.669  27.584  12.379
84855W        W57280   4.905  33.480  12.458
84856W        W57281  20.983   3.852   2.218
84857W        W57282  32.393  26.940  12.484
84858W        W57283   6.531   0.372  11.343
84859W        W57284   8.681  19.645   4.640
84860W        W57285  13.279  26.556  10.134
84861W        W57286  20.982   2.505  10.641
84862W        W57287   5.820  16.598   0.023
84863W        W57288  24.077  21.203  13.890
84864W        W57289  24.062  14.651   4.685
84865W        W57290  19.495  36.003  11.629
84866W        W57291  27.147  20.964   4.536
84867W        W57292  30.608  23.543   5.697
84868W        W57293  31.180  32.643  13.360
84869W        W57294  15.525  40.449   1.295
84870W        W57295  28.538   0.303   4.791
84871W        W57296  35.168  24.445  11.130
84872W        W57297  29.388  38.844  10.588
84873W        W57298  22.923   2.890  14.791
84874W        W57299  34.451  19.742  12.428
84875W        W57300  28.942   3.792   2.575
84876W        W57301  38.283  37.768   1.800
84877W        W57302  10.160  44.512   1.394
84878W        W57303  40.342  20.419   3.639
84879W        W57304  30.657  42.477   4.870
84880W        W57305  42.501  21.306   0.567
84881W        W57306  11.520  28.823   1.074
84882W        W57307   0.918  20.495   0.206
84883W        W57308  13.313   8.794  14.425
84884W        W57309  16.130  35.796   1.205
84885W        W57310   9.790  28.411   1.923
84886W        W57311  28.666  41.542  12.451
84887W        W57312  35.877  14.389  11.553
84888W        W57313  37.601  36.444   3.249
84889W        W57314  30.603  28.113   4.676
84890W        W57315   0.822  23.697   2.138
84891W        W57316  41.700  26.918  14.898
84892W        W57317  41.567  38.500   2.712
84893W        W57318  21.499  12.848   5.191
84894W        W57319  25.226  27.461  11.095
84895W        W57320  16.845  40.302  12.563
84896W        W57321  28.643   5.878   0.460
84897W        W57322  10.798  25.376   2.165
84898W        W57323  22.327  44.908   3.156
84899W        W57324  30.320  11.697  14.075
84900W        W57325  12.014  25.711  14.762
84901W        W57326  24.303  44.973  12.844
84902W        W57327   5.236  18.849  11.116
84903W        W57328  18.859  27.548  12.057
84904W        W57329  10.270  41.089   2.331
84905W        W57330  25.304  37.489   3.592
84906W        W57331  34.570  21.510   0.026
84907W        W57332  31.102  37.623  14.761
84908W        W57333  15.684  39.741  12.870
84909W        W57334  44.300  14.118  12.072
84910W        W57335  15.956  40.570   5.141
84911W        W57336   1.269  31.459  12.711
84912W        W57337  18.142  25.039  12.368
84913W        W57338  21.078   8.986  13.362
84914W        W57339  11.468  15.276  10.708
84915W        W57340  17.599  19.269   1.213
84916W        W57341  24.555  19.097   1.294
84917W        W57342  30.215  39.777  14.388
84918W        W57343  27.895  43.869   0.766
84919W        W57344  30.446  36.973   4.732
84920W        W57345  29.799   4.934  12.474
84921W        W57346   4.289  23.630  12.477
84922W        W57347  31.191  30.084  12.628
84923W        W57348   3.355  11.739  11.609
84924W        W57349  37.339  22.015   2.455
84925W        W57350  16.329  16.732  13.194
84926W        W57351  14.244  29.942  11.618
84927W        W57352  11.929  41.013   1.507
84928W        W57353  43.972  33.129   4.142
84929W        W57354  38.583  41.122   3.381
84930W        W57355  43.743  31.215   1.147
84931W        W57356  15.197  31.673   4.298
84932W        W57357   2.586   6.822  10.605
84933W        W57358  40.287  23.707  11.603
84934W        W57359  22.574  10.213  14.503
84935W        W57360  34.502  23.448   4.604
84936W        W57361  40.877  12.794   2.385
84937W        W57362  24.227  30.057   0.906
84938W        W57363   9.440  12.643   3.706
84939W        W57364  24.488   5.279  11.545
84940W        W57365  37.493   2.216   4.616
84941W        W57366   7.321  12.105  14.805
84942W        W57367  26.617   5.752  12.965
84943W        W57368  16.179  11.924   4.305
84944W        W57369  12.756  19.801   1.745
84945W        W57370  44.727  38.805   2.445
84946W        W57371  28.423  44.251   4.987
84947W        W57372  17.772  25.661  13.771
84948W        W57373  32.481  40.562  11.405
84949W        W57374   0.537  43.052  13.552
84950W        W57375  29.375  41.930  11.688
84951W        W57376  42.009  34.943  13.608
84952W        W57377   6.998  11.234  13.545
84953W        W57378   3.404  12.710   3.229
84954W        W57379  31.568  19.094  13.636
84955W        W57380  29.140   3.894  12.924
84956W        W57381  38.426  12.101   3.106
84957W        W57382  22.359  39.831  13.606
84958W        W57383  43.205  31.869   4.699
84959W        W57384   6.939  41.033   1.495
84960W        W57385  37.479  28.127  14.745
84961W        W57386  18.759  10.655  10.690
84962W        W57387  26.628   3.263  10.966
84963W        W57388  31.474  29.872  14.832
84964W        W57389  25.910  10.814  11.643
84965W        W57390  25.731  19.766   2.684
84966W        W57391  18.341  26.410  13.784
84967W        W57392  37.580  10.432  13.758
84968W        W57393  31.564  41.166   2.699
84969W        W57394   2.810   4.182   1.278
84970W        W57395  33.491  30.656   1.755
84971W        W57396   2.956  19.805  10.354
84972W        W57397  34.016   7.167   1.856
84973W        W57398  44.460  23.505  10.096
84974W        W57399  27.250  41.550   2.593
84975W        W57400  20.704   0.036  11.964
84976W        W57401  37.925  22.730  14.854
84977W        W57402  24.922  21.186   2.702
84978W        W57403  20.543  24.184   4.386
84979W        W57404  29.507   1.408   1.031
84980W        W57405  22.336  28.551   1.669
84981W        W57406  34.315  40.456   1.409
84982W        W57407  16.908  18.014  12.477
84983W        W57408  25.952  10.658  12.134
84984W        W57409   3.757  22.102  13.482
84985W        W57410  30.147  33.440  11.285
84986W        W57411  34.150  30.162   3.328
84987W        W57412   8.210  26.417   1.867
84988W        W57413   1.489  11.387  13.820
84989W        W57414  33.608  41.661  14.789
84990W        W57415  30.300  43.977  13.465
84991W        W57416   8.822  16.125   2.228
84992W        W57417  14.230   6.862   1.235
84993W        W57418   3.142  25.011  10.770
84994W        W57419  25.502   8.620   3.056
84995W        W57420  41.050  17.752   4.292
84996W        W57421   8.374   8.883  13.933
84997W        W57422  10.511  12.837   4.520
84998W        W57423  16.795  33.945   3.237
84999W        W57424  37.280  43.992   4.105
85000W        W57425  36.034   2.794  10.699
85001W        W57426  33.453  11.734  13.799
85002W        W57427  41.831  26.525  10.226
85003W        W57428  29.583  28.635   2.299
85004W        W57429  29.455  14.353   2.408
85005W        W57430  44.402  37.656  12.747
85006W        W57431  11.541  26.619  12.012
85007W        W57432  30.634  38.956  12.983
85008W        W57433  13.291  30.121   2.843
85009W        W57434  14.643  24.216  14.041
85010W        W57435  42.238  35.131   4.182
85011W        W57436   6.330  19.568  11.581
85012W        W57437   2.688  14.107   1.838
85013W        W57438   3.369  18.609  11.232
85014W        W57439  42.858   0.832  14.703
85015W        W57440  20.991  32.314   4.178
85016W        W57441   8.670  38.519   4.661
85017W        W57442  18.256  14.840   3.625
85018W        W57443  32.970   5.286  12.048
85019W        W57444  43.480  24.731  12.353
85020W        W57445  17.749   9.314   2.437
85021W        W57446  35.933   6.404  13.001
85022W        W57447  33.057   9.953   4.077
85023W        W57448  30.924  14.952   3.464
85024W        W57449  35.414   0.468  11.936
85025W        W57450  29.422  38.970   4.162
85026W        W57451  32.109  40.284   0.276
85027W        W57452  13.044   4.296   5.128
85028W        W57453  42.861  37.091   4.011
85029W        W57454  28.471  40.501   4.715
85030W        W57455  34.982  24.578   1.993
85031W        W57456  37.976  20.100  14.400
85032W        W57457  41.464  21.012   1.295
85033W        W57458   3.304  37.422  13.479
85034W        W57459  13.795  12.826  12.736
85035W        W57460  16.078   2.726  10.868
85036W        W57461   0.758   1.586  13.927
85037W        W57462  23.592  18.984  13.791
85038W        W57463  37.675  25.709  11.411
85039W        W57464  33.131   3.008  12.878
85040W        W57465  43.264   2.331  14.104
85041W        W57466  27.949   4.434   3.329
85042W        W57467   0.423   4.548  11.090
85043W        W57468  23.159  38.837   2.184
85044W        W57469   2.673  31.592  11.371
85045W        W57470  34.437  19.632  11.380
85046W        W57471  21.995  40.301   2.185
85047W        W57472  40.139  42.524   3.694
85048W        W57473  40.819  32.405  13.253
85049W        W57474  40.470  28.105  11.495
85050W        W57475   2.381  43.915   4.672
85051W        W57476   2.793  22.766   2.290
85052W        W57477  14.835  28.269  11.697
85053W        W57478  33.860  23.235  13.564
85054W        W57479  11.523  38.034  13.409
85055W        W57480  39.373  15.697  13.833
85056W        W57481  44.031  17.416  13.309
85057W        W57482  38.995  38.108  10.526
85058W        W57483  31.637  31.619  14.340
85059W        W57484  41.080  44.896  13.004
85060W        W57485  39.529  41.565   4.225
85061W        W57486  42.143  21.168   5.142
85062W        W57487  21.525   7.828   0.564
85063W        W57488   8.327  27.607  12.746
85064W        W57489  44.525   2.163  11.073
85065W        W57490   5.150  11.646   1.938
85066W        W57491  44.051  35.470   1.353
85067W        W57492   4.949  36.320  14.822
85068W        W57493  38.302  27.587   3.303
85069W        W57494   8.753  38.608   0.811
85070W        W57495  25.988  40.001  11.897
85071W        W57496  39.497   8.179  12.651
85072W        W57497  32.027  40.889   4.517
85073W        W57498  18.592   5.881   1.387
85074W        W57499  34.553  29.946  12.487
85075W        W57500  25.566  36.977   1.015
85076W        W57501   7.073   8.456  12.976
85077W        W57502   9.278  26.116   4.631
85078W        W57503  41.206  21.752   5.173
85079W        W57504  11.387  26.130   2.863
85080W        W57505   0.995  29.564  11.872
85081W        W57506  30.509  37.449   0.595
85082W        W57507   3.521  44.710  10.758
85083W        W57508   9.719  19.379   1.158
85084W        W57509  26.663  30.281   0.375
85085W        W57510  29.644   6.265   3.749
85086W        W57511  31.629  29.402   2.157
85087W        W57512  44.344   8.554  13.665
85088W        W57513  20.563  18.249  11.653
85089W        W57514  29.766  31.936  14.997
85090W        W57515  26.345  41.663   2.036
85091W        W57516  17.135  44.271   3.204
85092W        W57517  42.914  25.448  10.549
85093W        W57518  30.652   4.871  14.367
85094W        W57519   0.529  32.872  12.064
85095W        W57520  33.861  35.833  11.030
85096W        W57521  25.222   8.622  12.496
85097W        W57522  41.952  12.069   2.939
85098W        W57523  14.347  39.305   4.072
85099W        W57524  31.160  34.963  12.546
85100W        W57525  35.302  27.626   0.845
85101W        W57526  10.605  10.358   0.035
85102W        W57527  27.639  31.710   4.347
85103W        W57528  22.202  43.439  13.616
85104W        W57529  20.716  18.583  14.003
85105W        W57530  15.536  27.200   2.465
85106W        W57531   9.621  14.341   1.295
85107W        W57532  14.182   3.105  12.233
85108W        W57533   5.700  22.682   2.622
85109W        W57534   0.787  26.685  11.046
85110W        W57535  41.883  41.986  12.925
85111W        W57536  18.831  13.843   3.825
85112W        W57537   6.355  14.124   2.423
85113W        W57538  33.541  39.086  11.508
85114W        W57539  36.866  15.204   1.358
85115W        W57540  14.626  20.215  14.881
85116W        W57541  32.961   4.729  12.096
85117W        W57542  30.520  20.058   2.679
85118W        W57543  26.986  22.314   0.309
85119W        W57544  19.279   8.258   3.819
85120W        W57545  30.764  11.907  11.768
85121W        W57546  20.991   7.058   2.882
85122W        W57547  21.102  43.550   0.366
85123W        W57548  25.747   2.046   5.136
85124W        W57549   8.560  10.813  11.756
85125W        W57550  14.752   3.042   1.486
85126W        W57551   4.348  25.974  11.888
85127W        W57552  39.851  39.517  13.426
85128W        W57553  15.341   9.803  13.427
85129W        W57554  25.113  13.881  11.523
85130W        W57555  24.253   1.762   1.842
85131W        W57556   2.855  38.449   2.446
85132W        W57557   0.301   2.190  14.318
85133W        W57558  38.367  11.195  11.976
85134W        W57559  29.826  19.207  11.955
85135W        W57560  12.663   0.826  12.592
85136W        W57561  32.150  41.141  11.973
85137W        W57562   7.948  12.378   0.385
85138W        W57563  15.160  13.665   3.892
85139W        W57564  24.615  20.848  12.008
85140W        W57565   7.628  14.605  12.479
85141W        W57566  16.739   4.024  14.391
85142W        W57567   6.373  31.840   3.257
85143W        W57568  31.199  36.877   0.291
85144W        W57569  20.268  39.293   1.282
85145W        W57570  31.025  10.633  11.090
85146W        W57571  32.546  19.715   1.383
85147W        W57572  40.594  34.990  13.428
85148W        W57573  37.595  35.037   4.438
85149W        W57574  16.964  18.998   2.607
85150W        W57575  16.259   4.432   4.577
85151W        W57576  20.590   3.487   2.910
85152W        W57577  41.587   9.189   3.743
85153W        W57578  31.204   2.506  10.841
85154W        W57579   1.276   3.754  12.612
85155W        W57580  29.524  20.210   4.968
85156W        W57581   3.657  13.943   1.061
85157W        W57582  16.181  30.547   1.465
85158W        W57583   0.220  31.060  13.995
85159W        W57584  31.877  33.210   2.068
85160W        W57585   9.111  20.630   1.907
85161W        W57586  38.294  41.301  13.494
85162W        W57587  20.522  44.798   1.238
85163W        W57588  23.192  41.462  12.024
85164W        W57589   8.716  27.742  14.265
85165W        W57590  14.232  33.355  11.593
85166W        W57591  33.976   5.317   0.446
85167W        W57592  22.629  37.763   4.322
85168W        W57593  21.588  25.168   4.160
85169W        W57594  22.154  36.816  10.933
85170W        W57595   0.836  25.141   1.653
85171W        W57596  30.376  18.071   2.738
85172W        W57597  21.222   0.447   1.447
85173W        W57598  42.684  42.839   2.881
85174W        W57599   1.299  27.206  14.610
85175W        W57600  39.347  30.970   1.935
85176W        W57601  34.053  42.261  13.416
85177W        W57602  44.894  13.276   2.702
85178W        W57603  33.104  10.848  10.652
85179W        W57604  12.217  36.835  13.004
85180W        W57605  37.128   5.985   0.498
85181W        W57606  19.639  37.755   0.661
85182W        W57607  19.567  20.952  12.263
85183W        W57608  12.726  35.102  12.947
85184W        W57609  18.586  39.795  12.605
85185W        W57610  30.121  24.673   0.968
85186W        W57611  43.868   8.305   0.513
85187W        W57612   7.217  12.816   4.070
85188W        W57613  39.591  26.266   4.152
85189W        W57614  22.680   9.740   5.483
85190W        W57615  17.760  31.788   1.313
85191W        W57616  32.311  20.303   3.912
85192W        W57617  36.974  34.012  13.102
85193W        W57618  14.818  10.877   0.453
85194W        W57619  19.669   5.750   4.448
85195W        W57620  29.841  15.157  12.523
85196W        W57621  13.247   7.688  12.080
85197W        W57622  14.600   8.891   3.799
85198W        W57623  26.546  40.363   3.302
85199W        W57624  22.634  12.370   0.698
85200W        W57625  23.983  41.488  14.361
85201W        W57626  21.148   5.283   1.083
85202W        W57627  11.602  41.301  12.094
85203W        W57628  35.784  26.462   4.297
85204W        W57629  15.595  38.852  14.545
85205W        W57630  35.906  41.546  11.661
85206W        W57631  19.071  39.807   3.408
85207W        W57632  27.848   7.578   3.006
85208W        W57633   5.410  41.596  13.824
85209W        W57634  32.507   5.802  14.943
85210W        W57635  24.971   4.790   4.622
85211W        W57636   2.259  12.659  11.463
85212W        W57637  21.581  11.159  11.509
85213W        W57638  24.277  27.303   2.087
85214W        W57639  36.410  45.000  13.818
85215W        W57640  10.325   6.201   2.255
85216W        W57641  33.452   5.806   2.536
85217W        W57642  42.815  32.141  10.157
85218W        W57643  23.673  36.095  13.315
85219W        W57644  40.768  23.275   1.853
85220W        W57645   0.534  44.467   9.964
85221W        W57646  14.478  15.922  12.736
85222W        W57647  19.168  30.033   2.348
85223W        W57648  36.613  42.413   1.680
85224W        W57649  13.815  34.001   3.704
85225W        W57650  14.444   9.390  14.540
85226W        W57651  40.894  21.535   9.779
85227W        W57652  41.240   6.296  12.847
85228W        W57653  13.858  41.414  14.832
85229W        W57654  36.774  33.022  11.428
85230W        W57655   8.834   3.399   3.202
85231W        W57656  36.501  35.506  11.740
85232W        W57657  27.648  12.197  13.578
85233W        W57658   1.039  26.625   4.555
85234W        W57659   0.780  23.612   3.155
85235W        W57660  15.886  22.092  14.352
85236W        W57661  44.714  37.400  11.174
85237W        W57662  15.303  22.145   4.135
85238W        W57663  20.715  22.119  11.485
85239W        W57664   2.601  38.845   1.221
85240W        W57665  35.039   0.765   3.259
85241W        W57666  14.766  43.797  14.810
85242W        W57667  26.463   3.683  14.843
85243W        W57668  20.621   2.965  14.304
85244W        W57669  41.832  19.937   1.326
85245W        W57670   1.199  43.407   4.689
85246W        W57671  25.121  25.545  13.279
85247W        W57672  41.169  34.521   2.215
85248W        W57673  30.195  44.210  12.495
85249W        W57674   6.161  11.329   0.008
85250W        W57675   9.425  41.725  14.335
85251W        W57676  16.788  24.159   0.688
85252W        W57677   0.493  17.477  12.001
85253W        W57678  33.821  32.014   3.025
85254W        W57679  29.310  38.314   2.150
85255W        W57680  40.806  11.273  13.009
85256W        W57681  37.502  19.050  14.382
85257W        W57682  16.700  40.871   0.708
85258W        W57683  12.862  22.280   3.345
85259W        W57684   2.771  42.969   3.152
85260W        W57685  31.988  32.559   1.167
85261W        W57686  19.923   2.736  12.414
85262W        W57687  42.156  27.877  12.982
85263W        W57688   5.763  36.927  10.479
85264W        W57689   9.238   5.336  12.873
85265W        W57690  22.565   4.893   1.306
85266W        W57691  20.350  33.851  13.642
85267W        W57692  17.777   8.697  11.539
85268W        W57693  20.504  13.776   1.285
85269W        W57694  15.165   9.385   0.752
85270W        W57695   8.044  37.049  10.585
85271W        W57696   5.125  44.212  14.774
85272W        W57697  30.851  36.831  14.486
85273W        W57698   7.684  25.487   1.948
85274W        W57699  28.686  33.578   1.824
85275W        W57700  29.738  10.161  11.213
85276W        W57701  24.565  30.518  11.220
85277W        W57702  37.393   9.487   5.454
85278W        W57703   3.187  22.651   4.483
85279W        W57704  33.073  35.044  14.454
85280W        W57705   1.363  44.384   2.790
85281W        W57706  13.378  42.290   4.812
85282W        W57707   3.306  19.175  11.174
85283W        W57708  16.056  16.646   2.667
85284W        W57709  12.104   1.968   9.656
85285W        W57710  15.221  18.089  11.256
85286W        W57711  17.259  20.568   0.593
85287W        W57712  41.750  28.719   0.470
85288W        W57713  20.732  13.830   0.278
85289W        W57714   2.383  21.182  14.766
85290W        W57715   7.825  39.722   4.733
85291W        W57716   6.927  24.175   4.531
85292W        W57717   6.590  43.491  13.995
85293W        W57718  34.465  13.253  11.518
85294W        W57719  21.077  11.509   5.102
85295W        W57720  13.556  42.729   1.820
85296W        W57721  32.596   7.032   4.287
85297W        W57722  10.341  35.526   2.353
85298W        W57723  10.310  20.651   2.672
85299W        W57724  38.496  41.643  13.166
85300W        W57725  42.870  38.082  14.709
85301W        W57726  22.335  33.372   0.943
85302W        W57727   8.912  26.025  13.367
85303W        W57728  17.838  22.485  14.009
85304W        W57729  40.132  40.947  13.475
85305W        W57730   5.580  27.066  14.881
85306W        W57731  44.303  19.237   2.790
85307W        W57732   4.504  18.747  11.752
85308W        W57733  20.121  39.394  12.346
85309W        W57734  26.924  42.305  14.053
85310W        W57735   8.776   1.021  12.006
85311W        W57736  41.055  11.073   2.319
85312W        W57737   4.024  17.612  11.063
85313W        W57738   5.765  39.005   0.557
85314W        W57739  42.761  43.763   2.223
85315W        W57740  31.433  16.272  12.094
85316W        W57741  43.537  29.311   5.449
85317W        W57742   6.136  32.989  11.630
85318W        W57743  36.851  13.299   2.833
85319W        W57744  34.126  19.146  11.885
85320W        W57745  11.251  10.084  12.764
85321W        W57746  28.218  43.290  10.497
85322W        W57747  43.401  40.363   0.029
85323W        W57748  37.777   1.281   0.862
85324W        W57749  23.526   0.675  14.777
85325W        W57750  40.512  12.161   0.890
85326W        W57751  21.354  18.811   3.851
85327W        W57752  14.647  18.556   2.326
85328W        W57753  17.532  37.926   2.298
85329W        W57754  44.682  42.949   4.209
85330W        W57755  40.113  36.892  14.952
85331W        W57756  43.789  30.310   5.101
85332W        W57757   2.830   4.261   3.184
85333W        W57758   1.963  22.587   4.478
85334W        W57759   2.510  37.093  11.340
85335W        W57760  25.106  35.496  13.390
85336W        W57761   1.337   4.233  12.916
85337W        W57762   3.497  12.171   2.453
85338W        W57763  25.160  24.593   0.372
85339W        W57764   9.263   0.921   4.563
85340W        W57765  44.834  23.898  13.398
85341W        W57766  42.755  28.678  13.583
85342W        W57767  27.215  35.684  12.486
85343W        W57768   2.507  10.208   3.567
85344W        W57769  36.764   9.293  10.681
85345W        W57770  29.693  28.433   3.293
85346W        W57771   4.284  22.685   2.671
85347W        W57772  22.517  41.871  13.032
85348W        W57773   0.266  29.428   2.703
85349W        W57774  12.691   2.641  13.088
85350W        W57775  12.942  20.034   3.634
85351W        W57776  36.906  29.090   9.913
85352W        W57777  32.027  16.239   0.494
85353W        W57778   7.794   5.569   2.124
85354W        W57779   6.935  11.929   1.845
85355W        W57780  35.524  18.587  13.715
85356W        W57781  42.906   8.333  10.621
85357W        W57782  11.412  15.283  11.999
85358W        W57783  23.932  24.159  13.946
85359W        W57784  24.738  32.734   5.069
85360W        W57785  29.639  15.227  11.665
85361W        W57786   4.647  27.742   3.759
85362W        W57787  10.151  30.635  13.005
85363W        W57788   5.281  27.964   2.639
85364W        W57789   5.719  18.854  12.372
85365W        W57790  43.678   0.386   0.028
85366W        W57791  39.831  32.404  14.499
85367W        W57792   4.856  12.544   3.693
85368W        W57793  16.700  10.596   2.491
85369W        W57794  21.718   8.924  10.777
85370W        W57795  32.396  11.148   2.615
85371W        W57796  14.607  16.123  14.526
85372W        W57797  27.208  37.985  12.834
85373W        W57798   1.890  12.229  14.758
85374W        W57799  36.357  33.904   2.211
85375W        W57800   4.817   4.246  13.398
85376W        W57801  25.744  19.559  11.229
85377W        W57802  38.304  21.421  11.755
85378W        W57803  37.089  22.955   4.246
85379W        W57804  26.197   4.523  13.845
85380W        W57805  41.123   0.698   2.863
85381W        W57806  26.988  40.455  12.933
85382W        W57807  34.455  29.964  11.186
85383W        W57808  31.186  36.845  11.661
85384W        W57809  12.184  10.726  11.165
85385W        W57810   7.357  30.970  11.945
85386W        W57811  36.058  42.604  11.555
85387W        W57812   4.886   8.284  11.271
85388W        W57813  41.861  27.272  13.722
85389W        W57814  36.474  17.810   1.839
85390W        W57815   4.556  16.192  11.837
85391W        W57816  30.473  22.233   3.744
85392W        W57817  11.899  39.937   4.000
85393W        W57818  34.589  17.760  14.819
85394W        W57819  34.848  38.555  13.509
85395W        W57820  37.434   4.897   1.178
85396W        W57821  21.497  20.672  14.818
85397W        W57822  10.336  40.430  11.983
85398W        W57823   5.756  22.557   0.825
85399W        W57824  11.089  15.258  12.971
85400W        W57825   4.126   4.866   3.440
85401W        W57826  39.273   2.509   1.910
85402W        W57827  36.610  43.746  12.416
85403W        W57828  42.978  21.346   3.367
85404W        W57829  13.866  17.107  14.039
85405W        W57830  13.847  26.563   2.311
85406W        W57831  14.522  16.598   1.257
85407W        W57832  36.728  11.916   5.195
85408W        W57833   6.078  43.462  14.749
85409W        W57834   6.459  27.856  11.260
85410W        W57835  19.775   8.828   0.373
85411W        W57836  42.684   3.216   4.371
85412W        W57837   3.722   9.815  11.465
85413W        W57838  23.143  25.026   2.011
85414W        W57839   8.669  15.837   3.175
85415W        W57840  29.392  30.914   4.651
85416W        W57841   2.207   9.583   4.330
85417W        W57842   4.425  36.385  14.009
85418W        W57843  35.696  24.634   3.744
85419W        W57844  12.176  37.590   2.953
85420W        W57845  10.947  25.723  14.157
85421W        W57846  15.043  21.653  13.164
85422W        W57847  42.705  31.921   3.649
85423W        W57848  26.678  12.734  12.904
85424W        W57849  35.343  12.848  14.476
85425W        W57850  24.004  37.285  11.651
85426W        W57851  33.060  20.668   4.432
85427W        W57852  27.549  34.546   0.888
85428W        W57853  20.385  27.414   0.418
85429W        W57854  29.344  21.400   9.699
85430W        W57855  25.887   8.259  10.786
85431W        W57856  12.292  15.235   4.177
85432W        W57857  14.476   2.790   5.161
85433W        W57858   7.428  12.384   0.391
85434W        W57859  44.783  32.133  13.512
85435W        W57860  29.453   8.584   0.254
85436W        W57861   3.280  33.104  10.642
85437W        W57862  10.821  35.417  12.144
85438W        W57863  27.542   8.555  11.987
85439W        W57864  26.523   6.300  13.993
85440W        W57865  44.827  44.027  14.964
85441W        W57866   1.744  25.949   3.922
85442W        W57867  39.439  18.257   1.938
85443W        W57868   8.841  38.304  11.884
85444W        W57869   7.782   4.874   2.657
85445W        W57870  20.155  21.819   2.295
85446W        W57871   1.690  25.054  13.371
85447W        W57872  15.203   3.362  12.061
85448W        W57873  40.625  43.785   1.894
85449W        W57874   4.882  35.473  13.806
85450W        W57875   1.776   3.014  11.858
85451W        W57876  36.640  44.285  10.994
85452W        W57877   8.149  42.893   1.866
85453W        W57878   3.843  34.997   2.612
85454W        W57879  16.805  34.891  14.463
85455W        W57880  29.013   9.136  11.385
85456W        W57881  19.521   3.772   4.547
85457W        W57882  29.525   1.024  11.241
85458W        W57883  40.792  37.883   1.736
85459W        W57884   2.693  16.202   3.119
85460W        W57885   0.550  40.648   1.837
85461W        W57886  20.098  36.915  13.883
85462W        W57887  39.666  42.358   3.462
85463W        W57888   8.701   6.243  14.813
85464W        W57889  34.084  15.756  12.154
85465W        W57890  44.335  11.605   0.344
85466W        W57891  23.061  21.777  12.172
85467W        W57892  19.166   3.823  10.906
85468W        W57893   7.725  36.540   1.740
85469W        W57894  38.424  33.604  11.054
85470W        W57895  12.705  23.635  13.239
85471W        W57896  22.225  30.250  14.775
85472W        W57897   4.017  13.685   3.682
85473W        W57898  30.843  33.709  10.342
85474W        W57899  37.295  22.478   4.435
85475W        W57900  39.515   9.273   1.491
85476W        W57901  10.345  43.801  10.248
85477W        W57902  15.469  16.594  11.062
85478W        W57903  21.117  34.801   5.007
85479W        W57904  35.709   8.424   1.740
85480W        W57905   0.802   9.013   3.680
85481W        W57906  31.975  23.290  10.729
85482W        W57907  41.486  27.080   3.238
85483W        W57908  18.869  32.827  14.507
85484W        W57909  38.554  22.708   0.013
85485W        W57910  33.768  27.758   4.123
85486W        W57911  33.399  19.406  14.462
85487W        W57912   3.254   0.937  13.332
85488W        W57913   3.246   0.220   0.537
85489W        W57914  15.636  40.333  12.825
85490W        W57915   2.471   6.229   4.001
85491W        W57916  21.861  30.331  11.122
85492W        W57917  11.187  16.833  11.271
85493W        W57918  24.989  33.083  14.146
85494W        W57919   0.384   3.748   2.665
85495W        W57920  12.322  24.355   4.215
85496W        W57921  14.250  37.112  14.677
85497W        W57922  44.365   6.143  11.983
85498W        W57923  35.075  32.125  14.971
85499W        W57924  26.025   1.797   1.816
85500W        W57925  38.391  22.697   2.155
85501W        W57926  16.288  20.573  13.835
85502W        W57927  22.216  32.624   0.327
85503W        W57928   5.008   5.391   2.792
85504W        W57929  18.197   6.806  11.286
85505W        W57930  25.200  10.132  11.433
85506W        W57931  41.084  25.688   2.213
85507W        W57932  43.525  41.321   1.685
85508W        W57933  31.435  35.498  11.610
85509W        W57934  35.055  41.157   1.208
85510W        W57935  38.816   3.236  11.140
85511W        W57936  25.118  36.995   1.324
85512W        W57937  27.526   1.176   1.180
85513W        W57938  44.549  34.480  12.165
85514W        W57939  11.261  12.651  13.906
85515W        W57940  20.530  40.955  12.098
85516W        W57941   7.895   0.600   0.266
85517W        W57942  34.893  12.939  11.980
85518W        W57943  41.914  31.479  12.438
85519W        W57944   1.694  17.152   0.036
85520W        W57945  43.183  12.384  11.099
85521W        W57946  44.788  28.686   2.829
85522W        W57947  13.863  11.887   3.610
85523W        W57948   6.812  32.990   3.712
85524W        W57949  18.310   1.432  11.071
85525W        W57950  18.825  22.778  12.603
85526W        W57951  17.735  22.868  14.903
85527W        W57952  21.193  23.057  13.501
85528W        W57953  11.693  38.241   3.587
85529W        W57954  18.778  12.295  11.213
85530W        W57955  22.193  20.810   2.429
85531W        W57956   7.669  32.324   1.336
85532W        W57957  19.839   9.338  13.841
85533W        W57958  39.447  37.721   4.803
85534W        W57959   3.803  31.197  14.360
85535W        W57960  11.296  17.851  12.446
85536W        W57961  19.503  42.829   2.304
85537W        W57962  15.703  43.761  11.978
85538W        W57963  40.318  30.426  14.311
85539W        W57964   0.360   0.474  12.091
85540W        W57965  37.938  20.896   2.905
85541W        W57966  33.961   8.472   4.333
85542W        W57967  36.627  36.608  14.032
85543W        W57968  23.093  38.064   2.741
85544W        W57969   5.834  29.041   2.636
85545W        W57970   5.437  37.988   0.957
85546W        W57971  44.323  10.711   3.719
85547W        W57972  42.316  31.525  12.064
85548W        W57973  13.790  20.107  13.038
85549W        W57974   5.846  40.001  11.278
85550W        W57975   4.765  11.848   0.908
85551W        W57976   0.491  44.350   4.363
85552W        W57977  25.456   9.361  14.044
85553W        W57978   7.788  12.351  14.907
85554W        W57979  17.800  42.731   0.164
85555W        W57980  27.993  35.078   4.606
85556W        W57981  39.274  23.688  11.888
85557W        W57982  18.286  40.378   1.382
85558W        W57983  26.641  16.612  13.211
85559W        W57984  22.456  17.834  13.031
85560W        W57985   7.706   9.755  12.082
85561W        W57986  26.127  35.339   0.344
85562W        W57987  13.604  11.758  13.523
85563W        W57988   2.095  41.451   2.262
85564W        W57989  24.949  24.319  11.900
85565W        W57990  40.050  21.297   9.959
85566W        W57991  14.676  12.223   3.595
85567W        W57992   7.922   0.500  13.970
85568W        W57993   1.464  26.504  12.796
85569W        W57994  41.277   3.101  11.089
85570W        W57995  18.226  35.476   3.340
85571W        W57996  35.123   9.299  14.433
85572W        W57997  24.131  30.032   9.705
85573W        W57998  25.718  17.686   2.296
85574W        W57999  21.197  17.490  13.388
85575W        W58000  32.409  40.988   2.347
85576W        W58001  28.605   0.255   3.349
85577W        W58002  43.444  21.761  13.462
85578W        W58003  31.997  32.502   3.192
85579W        W58004  43.713  35.426   3.443
85580W        W58005   2.153  21.940  14.583
85581W        W58006  14.766   5.407  10.866
85582W        W58007  36.042  37.477  12.969
85583W        W58008  32.155  18.724  14.467
85584W        W58009  32.400   9.622   4.061
85585W        W58010  20.803  18.336  11.180
85586W        W58011   3.559   4.467   4.139
85587W        W58012  14.677  10.836   3.290
85588W        W58013  16.750  26.241  13.050
85589W        W58014  41.738  21.169  13.957
85590W        W58015  30.968  12.992   3.405
85591W        W58016  31.044  24.827  13.071
85592W        W58017  39.438  39.859  13.390
85593W        W58018  31.552  41.904   0.691
85594W        W58019  24.687  16.850   0.934
85595W        W58020  37.121   1.984   0.738
85596W        W58021  26.054  34.566  13.038
85597W        W58022  35.451  29.599   4.891
85598W        W58023  10.926  38.856   0.230
85599W        W58024  38.624  43.718   2.382
85600W        W58025  11.792  37.842  13.809
85601W        W58026  39.493  33.528   0.226
85602W        W58027  17.682  17.166   1.329
85603W        W58028  36.614   0.036   4.564
85604W        W58029  31.348   3.829   3.762
85605W        W58030  29.040   2.298   3.738
85606W        W58031   5.737   3.948  11.419
85607W        W58032  39.639   2.823   1.733
85608W        W58033  18.172   2.444   3.744
85609W        W58034   5.363  40.999   4.267
85610W        W58035  14.718  20.797   1.218
85611W        W58036   5.207  29.788   0.865
85612W        W58037  34.968  13.285  11.616
85613W        W58038   8.603  14.966  11.441
85614W        W58039   6.412   5.222  11.426
85615W        W58040  41.370  36.466   3.749
85616W        W58041   0.931  17.496  11.513
85617W        W58042  43.464  32.046   0.345
85618W        W58043   4.904   9.280  12.308
85619W        W58044  11.715  30.429  11.563
85620W        W58045  36.003  44.846   1.480
85621W        W58046  44.910   5.148  14.868
85622W        W58047  40.680   6.855   2.686
85623W        W58048   6.320  36.091   3.245
85624W        W58049  43.927  37.070  11.865
85625W        W58050  42.320  36.313   1.293
85626W        W58051  16.063  34.633  10.399
85627W        W58052  34.620   3.690   4.250
85628W        W58053  35.487  27.858   0.419
85629W        W58054  24.945  22.268  11.043
85630W        W58055   1.802  15.753  11.253
85631W        W58056  18.118  30.051  11.183
85632W        W58057  20.756  36.313   4.123
85633W        W58058  40.080  28.151   1.381
85634W        W58059  35.302  14.800   4.230
85635W        W58060  10.071   5.933  11.252
85636W        W58061  19.243  33.430   4.644
85637W        W58062   3.246  43.600   2.809
85638W        W58063  17.588  19.388  12.253
85639W        W58064   3.320  29.918  13.410
85640W        W58065  40.766  31.922   1.177
85641W        W58066   2.742  26.156   4.646
85642W        W58067  24.236  31.473   4.984
85643W        W58068  43.753  22.517  10.893
85644W        W58069   4.686  41.732   2.723
85645W        W58070  37.298  15.752   0.907
85646W        W58071  34.393  41.362  13.066
85647W        W58072  21.617  19.778   0.863
85648W        W58073  19.726  24.543   1.904
85649W        W58074  10.412  26.457  11.113
85650W        W58075  26.127  41.875   3.664
85651W        W58076  27.503   0.958  11.565
85652W        W58077  21.831  43.868  12.027
85653W        W58078  16.834  35.393  13.535
85654W        W58079  39.940  35.126   2.722
85655W        W58080  43.488  37.408   2.451
85656W        W58081  16.179  39.096  14.945
85657W        W58082  44.723  32.543   2.816
85658W        W58083  23.943   9.032  10.048
85659W        W58084  13.127  32.455  12.830
85660W        W58085   0.822   8.246   2.370
85661W        W58086  18.143   7.789  14.361
85662W        W58087   8.387  36.889  14.343
85663W        W58088  29.072  20.217  14.275
85664W        W58089  22.208   6.807  12.550
85665W        W58090  21.205   6.946   0.279
85666W        W58091  17.154  27.226  14.140
85667W        W58092  20.592  34.544  11.748
85668W        W58093  44.439   5.352   4.878
85669W        W58094  35.032  36.501   4.485
85670W        W58095  35.037   4.908  11.517
85671W        W58096   8.424  40.990   3.844
85672W        W58097  16.446  13.951   4.390
85673W        W58098  18.767  17.943   0.954
85674W        W58099  22.756   3.927  13.116
85675W        W58100  20.129  44.008  14.983
85676W        W58101   8.845   1.476  12.337
85677W        W58102   8.062  38.588   1.935
85678W        W58103  33.519  14.584   1.839
85679W        W58104  26.607  39.748  11.794
85680W        W58105  13.212  34.776  12.523
85681W        W58106   4.611  17.515  12.059
85682W        W58107  31.544   9.898   1.706
85683W        W58108  26.927  25.431  13.470
85684W        W58109  40.513   0.797  12.913
85685W        W58110  12.905   2.733   3.572
85686W        W58111   1.919   7.368  14.375
85687W        W58112  13.711  34.887   4.603
85688W        W58113  33.171  22.457  10.806
85689W        W58114  21.260  35.027  14.437
85690W        W58115  26.624  20.743   2.028
85691W        W58116  41.730  26.379   3.730
85692W        W58117  36.524   6.666   5.377
85693W        W58118  38.291  20.094   4.938
85694W        W58119   9.827   9.910   3.881
85695W        W58120  29.668  33.115  10.838
85696W        W58121  20.610  43.223  14.100
85697W        W58122  39.300  28.575   2.450
85698W        W58123  11.784  17.980   3.183
85699W        W58124  29.077  27.491   0.831
85700W        W58125  25.179   6.633  11.543
85701W        W58126  23.583  41.850  13.079
85702W        W58127  43.935  17.586   2.980
85703W        W58128  38.370  23.654  14.945
85704W        W58129  30.183  23.191   5.169
85705W        W58130  33.621  20.121   3.188
85706W        W58131  20.772  13.122   0.734
85707W        W58132   3.381  20.699  12.171
85708W        W58133  21.505   3.447  12.922
85709W        W58134  14.591  39.889  12.332
85710W        W58135  28.644  29.230  10.448
85711W        W58136  44.502  35.057  14.848
85712W        W58137  19.558   5.857   3.387
85713W        W58138  37.095  38.154  14.801
85714W        W58139  42.570  13.435   0.155
85715W        W58140   8.666   1.422   1.757
85716W        W58141  25.391  40.193  11.100
85717W        W58142   5.274  39.083  14.503
85718W        W58143   2.291   4.324  14.134
85719W        W58144  31.000  33.187   4.523
85720W        W58145  11.614  43.949  13.796
85721W        W58146  14.218  16.872  11.447
85722W        W58147  20.051  17.549   0.282
85723W        W58148  43.304  19.175  13.526
85724W        W58149  13.731  22.523   5.079
85725W        W58150  22.181  15.804  11.153
85726W        W58151   3.473  15.310   4.444
85727W        W58152  24.038  31.092   0.937
85728W        W58153  15.211  20.710   4.726
85729W        W58154  40.399  20.092   1.231
85730W        W58155  33.928  19.103   4.544
85731W        W58156  26.600  11.791  10.397
85732W        W58157   4.011  37.171  14.670
85733W        W58158  22.808  17.214  13.780
85734W        W58159  31.071   0.923   0.080
85735W        W58160  36.480  40.369  10.562
85736W        W58161  37.848  38.514   0.044
85737W        W58162  40.793   0.999  14.256
85738W        W58163  29.020  25.198   5.049
85739W        W58164  16.162  12.847   4.367
85740W        W58165  11.555  11.750  11.097
85741W        W58166  36.581  20.382   3.573
85742W        W58167  13.675  25.223  12.830
85743W        W58168  23.677  18.540   2.768
85744W        W58169  21.727   8.633  13.923
85745W        W58170   7.411  15.802   3.456
85746W        W58171  17.693  17.102   0.775
85747W        W58172  44.852   9.322   2.782
85748W        W58173   2.344  44.858   1.825
85749W        W58174  16.834   2.738   3.372
85750W        W58175  15.967  42.434   0.970
85751W        W58176  16.312   3.662  12.977
85752W        W58177   8.217  30.013  14.432
85753W        W58178  36.329  43.995   1.894
85754W        W58179  43.428  13.783  10.781
85755W        W58180  28.494  12.496   0.386
85756W        W58181  39.878  25.029  12.361
85757W        W58182  25.816  28.920  13.913
85758W        W58183  13.189   1.588   0.111
85759W        W58184  36.049  21.724   4.389
85760W        W58185  25.707  28.057   2.248
85761W        W58186  23.329  38.045  14.403
85762W        W58187   5.984   3.303   5.083
85763W        W58188  17.098  27.185  10.697
85764W        W58189  35.574  21.487  14.015
85765W        W58190   6.893  19.095   4.620
85766W        W58191  27.876   8.956  12.016
85767W        W58192  41.912  23.250   1.680
85768W        W58193  18.502   7.072  14.348
85769W        W58194   3.066   1.792   4.565
85770W        W58195  14.386   7.870   1.464
85771W        W58196  35.403  33.632   2.128
85772W        W58197   0.251  13.288  12.136
85773W        W58198  29.929  19.604   0.181
85774W        W58199  25.675   5.694  12.935
85775W        W58200  39.437  11.901  12.086
85776W        W58201  41.996  34.988  14.117
85777W        W58202   0.980   0.556  13.868
85778W        W58203  37.146  24.065   2.337
85779W        W58204  21.852  20.303  14.968
85780W        W58205  33.560  28.527  12.942
85781W        W58206  14.060  26.443  12.533
85782W        W58207  36.399  39.942   3.794
85783W        W58208  30.808  42.193   2.999
85784W        W58209  34.747   5.338   2.372
85785W        W58210  15.797  14.157   3.842
85786W        W58211  40.709  38.372   2.979
85787W        W58212  23.468  33.210  13.755
85788W        W58213   7.404  19.622   4.177
85789W        W58214  19.587   3.776  11.175
85790W        W58215  37.194   8.398   3.890
85791W        W58216  17.248  22.163   3.641
85792W        W58217  31.898  14.149   2.266
85793W        W58218  33.512   3.832   1.873
85794W        W58219  20.842  23.180  14.501
85795W        W58220  10.771  37.909  10.972
85796W        W58221  35.027  15.989   1.309
85797W        W58222  35.588  22.004  13.950
85798W        W58223  43.515  14.366   1.162
85799W        W58224  34.588  42.059  14.392
85800W        W58225  35.351   9.260   0.753
85801W        W58226  25.325  43.799   2.037
85802W        W58227  38.131  36.013  11.673
85803W        W58228  33.149  41.970   3.123
85804W        W58229  19.991  17.681   1.176
85805W        W58230  32.649  14.106  10.650
85806W        W58231   5.860   2.952   1.258
85807W        W58232   4.492  43.092  10.737
85808W        W58233  33.050  23.767  12.321
85809W        W58234   7.780  27.295   4.180
85810W        W58235  28.140  34.081   4.623
85811W        W58236  31.688  31.614   4.550
85812W        W58237  44.337   2.345  14.274
85813W        W58238  18.018  44.304  14.836
85814W        W58239   9.442   6.450   4.103
85815W        W58240  41.066  18.372  11.093
85816W        W58241  20.698  28.581  11.984
85817W        W58242  11.775  44.381   1.699
85818W        W58243  10.340  43.215   1.872
85819W        W58244  44.013  22.769  14.424
85820W        W58245  10.622  24.629   2.712
85821W        W58246  42.376  20.463  12.755
85822W        W58247  16.547  27.957  13.067
85823W        W58248   1.956  21.838   3.242
85824W        W58249  30.401   1.948   0.823
85825W        W58250   4.715  15.291   3.825
85826W        W58251  22.524  27.907   0.759
85827W        W58252  12.644  14.126  12.555
85828W        W58253  26.392  29.197   4.238
85829W        W58254  11.980  35.626   0.283
85830W        W58255  18.013  43.580  12.059
85831W        W58256   6.545   4.721   4.604
85832W        W58257  18.093  43.005   0.856
85833W        W58258  14.828  13.278   0.732
85834W        W58259  44.559  39.588   5.055
85835W        W58260   4.388  20.636  11.887
85836W        W58261   6.382  22.149  12.884
85837W        W58262   0.430  44.894   4.216
85838W        W58263  27.480  38.008   2.249
85839W        W58264  15.342  41.221  13.421
85840W        W58265  22.568  35.578  14.839
85841W        W58266  17.006  17.218  13.076
85842W        W58267  17.837  27.116   2.404
85843W        W58268  36.511  32.503   4.399
85844W        W58269  38.339  18.555  12.364
85845W        W58270  24.869  36.806   3.232
85846W        W58271  14.844  13.093   3.322
85847W        W58272  19.217  16.758   0.288
85848W        W58273  36.012   3.573   1.453
85849W        W58274  11.888  12.861   2.181
85850W        W58275  37.473  26.798  11.890
85851W        W58276  12.771   2.901   0.886
85852W        W58277  18.604  33.559   2.259
85853W        W58278  27.050  23.002  14.241
85854W        W58279   7.374  31.904  14.208
85855W        W58280   4.486   1.385   1.426
85856W        W58281   9.117  37.079  11.611
85857W        W58282  23.761  36.105  10.987
85858W        W58283  14.303   8.774  13.809
85859W        W58284   5.213  42.920   4.424
85860W        W58285  42.748  10.790   4.169
85861W        W58286  31.645  31.118  14.482
85862W        W58287   3.870  35.345  13.367
85863W        W58288  10.016   1.438   3.320
85864W        W58289  28.405  35.306   2.935
85865W        W58290  22.681  31.450  12.539
85866W        W58291  18.054  39.516   3.525
85867W        W58292  20.490  10.475  11.304
85868W        W58293  11.208   1.934   2.255
85869W        W58294  20.319  25.758  14.175
85870W        W58295  15.067  10.585   2.329
85871W        W58296  32.955  38.539  13.942
85872W        W58297  29.917  19.319   2.917
85873W        W58298  16.161  42.951  12.172
85874W        W58299  15.207   7.858  13.766
85875W        W58300  40.725  23.516   4.184
85876W        W58301  43.506  24.965   2.725
85877W        W58302  39.420  38.509   3.239
85878W        W58303  14.509  29.908  12.149
85879W        W58304   4.842  11.043   1.267
85880W        W58305  33.972  20.509  13.447
85881W        W58306   6.970  30.147   3.383
85882W        W58307  32.020  17.454  13.147
85883W        W58308   6.111  33.914   4.852
85884W        W58309  10.066   6.194   2.734
85885W        W58310   0.646   9.606  13.514
85886W        W58311  44.775   8.292   1.195
85887W        W58312  22.598  11.961  11.989
85888W        W58313  27.153  21.085  11.708
85889W        W58314  30.349  13.749   3.854
85890W        W58315  11.555  40.259  13.878
85891W        W58316  16.852  15.048  13.580
85892W        W58317  34.926  10.663   1.939
85893W        W58318  37.898  17.864  14.912
85894W        W58319  21.047  32.414  13.335
85895W        W58320  20.204  21.533   4.831
85896W        W58321  20.872   2.534  13.456
85897W        W58322  16.341  26.692   4.258
85898W        W58323  20.516  42.384  11.169
85899W        W58324  21.190  33.191  10.377
85900W        W58325  11.336  35.674  13.968
85901W        W58326   2.933  35.044   2.276
85902W        W58327  31.149  41.991  14.914
85903W        W58328  29.568  30.642   3.225
85904W        W58329  21.254  42.929   2.350
85905W        W58330   8.845  14.368  12.083
85906W        W58331  17.966   3.165   2.674
85907W        W58332  16.624  40.372   0.502
85908W        W58333  40.368  30.161   0.313
85909W        W58334  23.815  30.994   4.185
85910W        W58335  21.228  21.103   1.207
85911W        W58336  16.264  16.129  12.434
85912W        W58337  15.325  43.186   2.680
85913W        W58338  30.534  21.228   4.943
85914W        W58339  19.584   9.851  11.923
85915W        W58340  11.278  18.258  12.045
85916W        W58341  25.326  44.326   4.616
85917W        W58342  40.822  32.110   2.216
85918W        W58343   8.941  23.553  14.251
85919W        W58344   5.268  22.527   3.593
85920W        W58345  12.687  39.066  14.350
85921W        W58346  37.930  38.583   1.883
85922W        W58347  41.538  12.019  14.983
85923W        W58348  29.521  12.123   3.783
85924W        W58349  15.280  16.071   1.688
85925W        W58350  20.785  22.578  11.913
85926W        W58351  35.924   3.464   4.493
85927W        W58352  13.231   8.420   3.685
85928W        W58353   4.898  35.598   5.060
85929W        W58354  31.124   4.752   3.334
85930W        W58355  37.176  31.860   1.785
85931W        W58356  11.807  15.337   4.700
85932W        W58357   9.506  36.021  11.588
85933W        W58358   1.516  17.052   0.951
85934W        W58359  36.803  20.264   2.358
85935W        W58360  34.487  28.094   4.355
85936W        W58361  21.158  22.657  13.818
85937W        W58362   0.710   8.784  11.644
85938W        W58363  37.664  24.445   1.354
85939W        W58364  13.388  34.684   1.071
85940W        W58365  25.491  19.341   2.899
85941W        W58366  34.842  35.331   4.662
85942W        W58367  30.033  38.587   9.824
85943W        W58368  39.580  14.955   4.175
85944W        W58369  17.816  30.914  11.248
85945W        W58370  40.383  10.868  10.782
85946W        W58371  37.989  27.623   4.541
85947W        W58372   3.174  37.986   4.561
85948W        W58373   8.218  43.494   1.365
85949W        W58374  18.514  37.823   3.406
85950W        W58375  17.467   5.304   3.167
85951W        W58376  38.931   1.301   3.431
85952W        W58377  32.072  38.762   2.340
85953W        W58378  25.971  41.331   1.979
85954W        W58379  35.804  38.845  13.203
85955W        W58380   5.272  38.518   3.193
85956W        W58381  33.333  35.229  14.002
85957W        W58382  36.588  21.058  10.990
85958W        W58383  25.600   8.736   5.015
85959W        W58384  34.600  13.121   3.305
85960W        W58385   5.429  17.574   0.327
85961W        W58386  21.004  23.369   4.573
85962W        W58387  40.592   3.240  13.437
85963W        W58388   0.870  21.207  14.095
85964W        W58389  22.017  30.977   2.769
85965W        W58390  36.423   5.317  12.561
85966W        W58391  35.608  44.823   1.821
85967W        W58392   2.697  25.522  13.931
85968W        W58393  36.015  39.987  11.678
85969W        W58394  20.718  41.936   0.082
85970W        W58395  35.545   6.639  10.606
85971W        W58396  11.838  42.947  12.362
85972W        W58397  26.701  21.180  13.453
85973W        W58398  31.236  27.752   2.244
85974W        W58399   4.162  32.565  10.519
85975W        W58400  15.674  19.332  11.566
85976W        W58401  38.075  11.614  12.072
85977W        W58402   4.740  22.652   2.913
85978W        W58403  12.080  12.453   5.050
85979W        W58404  13.844  38.956   2.344
85980W        W58405  15.588  30.622  13.860
85981W        W58406  32.424  18.107   1.798
85982W        W58407   3.788   0.768   2.347
85983W        W58408  25.688  23.251   4.904
85984W        W58409  33.896  32.589   4.223
85985W        W58410  22.492  10.208  11.040
85986W        W58411   8.841  21.556  13.014
85987W        W58412  35.471  13.045  13.602
85988W        W58413  13.426  10.388   3.474
85989W        W58414   1.889  11.602  12.541
85990W        W58415  14.184   4.698   2.908
85991W        W58416  19.780  20.217  11.025
85992W        W58417  10.687  33.553  12.446
85993W        W58418  26.905  10.114   0.009
85994W        W58419  42.946  16.309   4.436
85995W        W58420  19.976  35.385  13.286
85996W        W58421  30.927  20.671  12.926
85997W        W58422  29.375   3.711  13.804
85998W        W58423  28.554  21.071  13.931
85999W        W58424   2.520  17.763   0.981
86000W        W58425  16.616  13.420  12.348
86001W        W58426  27.184  36.440   0.711
86002W        W58427  17.270   3.501   3.432
86003W        W58428  27.577  16.594   2.329
86004W        W58429  40.053   9.289  13.407
86005W        W58430  25.507  31.513   4.007
86006W        W58431   5.035  19.632   4.978
86007W        W58432   8.498  10.087  12.613
86008W        W58433  44.009  25.079   4.305
86009W        W58434  11.595  36.681  11.119
86010W        W58435  25.936   2.918   2.978
86011W        W58436  15.634   1.204   2.265
86012W        W58437  29.461   7.867  12.456
86013W        W58438  14.012  40.455  11.775
86014W        W58439  11.810  23.419   4.892
86015W        W58440  16.505   8.416   1.335
86016W        W58441  44.477  41.823   2.387
86017W        W58442  11.388  24.945  14.837
86018W        W58443   2.487   7.268   0.940
86019W        W58444  20.155  16.370   4.651
86020W        W58445   0.668  38.889  14.116
86021W        W58446  10.536   1.375  14.394
86022W        W58447  24.505  33.139  11.619
86023W        W58448   6.320  25.890  11.168
86024W        W58449  36.438  42.428   4.132
86025W        W58450  24.149  43.296  12.847
86026W        W58451  17.399   9.327   2.813
86027W        W58452  19.554  12.298   3.012
86028W        W58453  35.193  39.878  11.733
86029W        W58454  21.378  20.429  13.962
86030W        W58455  25.022  10.797  11.518
86031W        W58456   9.009   4.890   2.420
86032W        W58457  35.889  37.581  14.462
86033W        W58458  31.165  41.257  12.958
86034W        W58459  37.097  33.841  13.595
86035W        W58460  41.787  22.279   1.288
86036W        W58461  17.091   8.396   3.047
86037W        W58462  11.693  12.631  11.166
86038W        W58463   3.679   7.550   1.247
86039W        W58464  13.103  26.500   0.415
86040W        W58465  29.762  14.678  13.350
86041W        W58466   3.730  36.358   2.315
86042W        W58467  41.254  39.898  13.371
86043W        W58468  29.539  29.699  13.338
86044W        W58469   8.976  33.733  13.987
86045W        W58470   4.989  37.008  14.513
86046W        W58471  38.971  26.459  12.247
86047W        W58472  19.067   1.002   1.726
86048W        W58473  42.017  25.443   3.759
86049W        W58474   7.217   6.142   1.724
86050W        W58475  41.074   2.200   2.763
86051W        W58476   3.747   6.412  13.422
86052W        W58477   6.264  31.755   2.438
86053W        W58478  40.106  26.869  11.137
86054W        W58479  26.095  20.164  13.619
86055W        W58480   0.459   3.193  14.090
86056W        W58481  40.341  42.459   2.209
86057W        W58482  26.729  42.458   4.775
86058W        W58483  26.729  31.017   5.293
86059W        W58484  12.645  33.215  12.864
86060W        W58485  13.068  44.596  14.891
86061W        W58486  35.374  34.883   0.912
86062W        W58487  17.816  16.657  13.437
86063W        W58488  32.576  21.515   2.717
86064W        W58489  31.541   8.147  12.450
86065W        W58490  28.499   0.976  12.212
86066W        W58491  33.605  39.485   1.017
86067W        W58492  34.006   1.820   0.741
86068W        W58493   7.888  35.199  13.604
86069W        W58494   5.265  41.934   4.630
86070W        W58495  16.522   6.850  13.863
86071W        W58496   7.629  16.182  14.931
86072W        W58497  29.641  31.920   4.603
86073W        W58498  36.669  36.885  11.478
86074W        W58499   1.259   3.930  14.818
86075W        W58500  31.287  40.294   5.478
86076W        W58501  44.348   3.185   4.593
86077W        W58502   6.876  28.599  10.942
86078W        W58503   4.893  44.979   1.247
86079W        W58504  28.195  21.186  11.555
86080W        W58505   3.384  37.572   4.864
86081W        W58506  17.188  32.221   0.235
86082W        W58507   3.635  39.575   4.127
86083W        W58508  10.084  37.877   0.397
86084W        W58509  32.261  14.190   9.937
86085W        W58510  18.557  40.011   0.227
86086W        W58511  29.618  35.383  12.082
86087W        W58512   3.332  29.684   1.752
86088W        W58513  26.951  23.573   3.295
86089W        W58514  23.437  44.360   2.202
86090W        W58515  41.755  12.928  12.375
86091W        W58516   5.403   9.659   3.709
86092W        W58517  26.966  13.635  10.785
86093W        W58518  10.544  26.537  14.299
86094W        W58519  27.837  12.746   3.097
86095W        W58520  37.072   6.922  10.555
86096W        W58521  15.551   2.693   4.064
86097W        W58522  33.399   1.962  10.103
86098W        W58523  43.290  27.518  13.077
86099W        W58524  29.479  30.673   0.366
86100W        W58525  21.332  26.045   4.076
86101W        W58526  15.813  38.177  13.339
86102W        W58527  44.966   5.723   3.194
86103W        W58528  32.093  14.972  13.442
86104W        W58529   7.927  25.148   1.114
86105W        W58530  36.850   2.299   3.333
86106W        W58531  13.869  21.662   4.085
86107W        W58532  13.870   9.177   2.294
86108W        W58533   1.203  35.881  13.340
86109W        W58534  22.701   9.135  14.356
86110W        W58535  16.830  18.685   2.997
86111W        W58536   4.068  23.227   2.400
86112W        W58537  13.988  10.056   3.773
86113W        W58538  44.921  16.181  10.906
86114W        W58539  14.795  36.523   3.766
86115W        W58540  12.922   7.799   4.278
86116W        W58541  31.139  40.037  11.074
86117W        W58542   3.888  17.644   2.377
86118W        W58543  16.032   6.741   4.197
86119W        W58544  44.820  22.194  12.371
86120W        W58545  22.517  13.621   2.101
86121W        W58546   2.408  30.087   4.554
86122W        W58547   5.846  23.355  12.065
86123W        W58548  20.716  29.943   3.715
86124W        W58549  13.819  27.538  11.198
86125W        W58550   0.674  37.978   1.956
86126W        W58551  22.047  33.827   4.218
86127W        W58552   4.707  25.160   0.748
86128W        W58553  41.280  20.831   2.483
86129W        W58554  36.534  25.715  12.568
86130W        W58555  12.929  32.451   3.806
86131W        W58556  44.208  10.383   4.931
86132W        W58557  28.906  23.640   0.849
86133W        W58558   2.334   2.942   2.338
86134W        W58559  11.625   9.352  11.697
86135W        W58560  17.874  29.634   0.158
86136W        W58561  44.056  44.840   4.833
86137W        W58562  24.430  24.146  13.828
86138W        W58563   3.276   2.904  13.879
86139W        W58564   3.869  37.347   0.703
86140W        W58565  18.661   1.753  12.265
86141W        W58566  44.830  29.903   3.388
86142W        W58567   7.150  31.864   5.147
86143W        W58568  40.682  32.469   1.800
86144W        W58569  38.479   4.162  11.460
86145W        W58570  12.854  16.726  14.532
86146W        W58571  18.556  38.301   3.668
86147W        W58572   0.049  39.352   1.862
86148W        W58573  39.966  24.573  10.629
86149W        W58574  29.200  28.631  11.510
86150W        W58575   9.118  20.573   0.479
86151W        W58576  35.529  10.347   4.974
86152W        W58577  44.503   9.825   1.756
86153W        W58578  33.359  21.535   3.217
86154W        W58579   3.226  20.277  11.929
86155W        W58580   6.302  37.078  14.840
86156W        W58581   7.167  13.602  11.659
86157W        W58582  13.201  32.057   1.618
86158W        W58583  32.539  25.233  13.042
86159W        W58584  20.226   4.404   2.613
86160W        W58585  12.335  23.780  11.960
86161W        W58586  36.670  30.609  11.986
86162W        W58587  35.225  12.296   1.074
86163W        W58588  40.854  22.156  13.849
86164W        W58589  35.624  40.364  14.722
86165W        W58590  11.179  21.322   3.589
86166W        W58591  40.576  27.546   3.894
86167W        W58592  24.327  22.970   2.903
86168W        W58593   8.232  38.102   4.096
86169W        W58594  27.468  10.301  13.336
86170W        W58595  30.458  35.576  12.487
86171W        W58596  30.963  34.524  12.365
86172W        W58597  10.254  44.273  13.372
86173W        W58598  21.774  19.706   3.887
86174W        W58599  23.469  22.195   1.452
86175W        W58600  31.929  29.504   4.699
86176W        W58601   0.388  13.346   1.598
86177W        W58602  21.560  33.890  12.551
86178W        W58603  22.477   7.386   0.008
86179W        W58604  19.098  29.120  11.716
86180W        W58605  35.958  36.158   2.819
86181W        W58606  37.808  40.134   1.756
86182W        W58607   8.105  15.601  11.652
86183W        W58608  27.048  21.050  14.443
86184W        W58609  43.350  36.705   3.330
86185W        W58610  31.687  22.190   3.252
86186W        W58611  29.069  19.840   4.373
86187W        W58612  42.976   1.467   0.708
86188W        W58613   2.542  23.467   1.690
86189W        W58614   6.321  33.072   3.831
86190W        W58615  39.928  30.175   0.574
86191W        W58616  30.456  22.963  10.722
86192W        W58617  31.403   5.703  10.756
86193W        W58618  35.240  22.576   1.913
86194W        W58619  10.626   7.919  14.757
86195W        W58620  11.720   7.531   2.214
86196W        W58621  18.519  40.437   5.208
86197W        W58622   7.272  26.604  11.873
86198W        W58623  15.576  44.544  14.660
86199W        W58624  20.213  21.247  10.723
86200W        W58625  44.379  29.329  12.026
86201W        W58626  26.825  21.378  11.429
86202W        W58627  20.658  36.417   4.993
86203W        W58628  37.825   9.711  10.943
86204W        W58629  18.978  39.298   3.577
86205W        W58630  41.318  12.272  11.404
86206W        W58631  14.651  35.977  12.881
86207W        W58632  36.308  12.321   2.831
86208W        W58633  41.381  23.989   4.099
86209W        W58634  35.377  29.657  11.926
86210W        W58635  22.381  17.345  12.878
86211W        W58636   2.454  24.254   3.614
86212W        W58637   0.661  35.665  10.770
86213W        W58638   8.333  18.764   4.086
86214W        W58639  44.974  25.637  13.550
86215W        W58640   7.395  14.707  11.958
86216W        W58641  23.849  43.203  10.645
86217W        W58642  32.089   9.399   1.270
86218W        W58643  37.262   4.865  14.176
86219W        W58644   0.429   4.737  12.801
86220W        W58645  34.094   0.004   2.560
86221W        W58646  36.604  36.699  10.532
86222W        W58647  30.468  25.007   0.697
86223W        W58648  15.709  14.558  10.548
86224W        W58649  20.186   2.754   2.380
86225W        W58650  18.212  16.245   4.769
86226W        W58651  38.925  18.307  10.168
86227W        W58652  35.777  24.746   2.612
86228W        W58653  43.308   9.298  13.374
86229W        W58654  43.432  12.534  12.671
86230W        W58655  40.362   1.929  12.454
86231W        W58656  24.931  36.879  13.902
86232W        W58657   0.780  34.538   1.837
86233W        W58658  35.599  35.842   0.707
86234W        W58659  41.285  31.286  10.382
86235W        W58660  13.171   2.932  14.901
86236W        W58661  15.739   4.258   0.874
86237W        W58662   5.681  17.326   0.817
86238W        W58663  19.566  42.865   1.059
86239W        W58664  18.460  25.577   3.236
86240W        W58665  26.344   8.296   1.334
86241W        W58666  17.561  31.131  13.535
86242W        W58667  13.792  14.411   1.253
86243W        W58668   6.342  24.089   0.888
86244W        W58669  14.668  21.117   4.033
86245W        W58670  15.346  16.147   1.175
86246W        W58671  28.219   5.354   3.738
86247W        W58672  35.155  41.333  12.521
86248W        W58673  18.725  34.424   0.347
86249W        W58674  36.142  11.326   4.159
86250W        W58675  37.232  28.510  14.466
86251W        W58676  24.700   3.265  12.192
86252W        W58677  34.996   5.992  10.689
86253W        W58678  30.552   2.931   3.581
86254W        W58679  32.535  38.266  11.176
86255W        W58680  25.148  10.684   4.646
86256W        W58681  22.768  10.460   3.701
86257W        W58682  43.065  36.096  10.315
86258W        W58683  29.734  30.573  14.911
86259W        W58684  12.202  15.652   0.901
86260W        W58685  34.927  43.633  12.448
86261W        W58686  21.030  20.579   0.713
86262W        W58687   8.522  13.574  12.140
86263W        W58688  33.999  20.041   1.008
86264W        W58689  21.039  39.869  14.914
86265W        W58690  34.837  42.897   0.848
86266W        W58691  41.522   3.784   3.657
86267W        W58692  44.771   3.861  10.711
86268W        W58693  25.591  34.796  13.115
86269W        W58694  38.433   7.948   9.830
86270W        W58695  41.127   8.179  14.865
86271W        W58696   1.711  12.516   3.660
86272W        W58697  16.165  34.488  11.905
86273W        W58698  22.598  44.358   3.778
86274W        W58699  13.236   8.738  12.041
86275W        W58700   9.278  37.860  12.027
86276W        W58701  11.567  10.170   2.915
86277W        W58702   8.344  39.907   4.608
86278W        W58703  17.769   8.916   0.817
86279W        W58704  33.824   2.515  14.518
86280W        W58705  36.505  25.162   4.622
86281W        W58706  26.655   5.558   5.106
86282W        W58707  27.056  13.065   3.272
86283W        W58708  42.354  24.018   4.011
86284W        W58709   8.919  37.027   2.207
86285W        W58710  27.234  26.990   2.899
86286W        W58711   7.326   2.231  13.789
86287W        W58712   5.465   6.014  12.919
86288W        W58713  16.452  31.100   4.095
86289W        W58714  13.582  29.415  12.134
86290W        W58715  31.666  21.860   4.529
86291W        W58716  18.715  34.978  13.555
86292W        W58717  34.486  29.525   1.955
86293W        W58718  33.564  36.116   2.768
86294W        W58719  19.802  24.965   1.253
86295W        W58720  14.537  35.020  13.101
86296W        W58721   9.762  36.606  12.501
86297W        W58722  12.834  25.478   1.189
86298W        W58723  28.035  15.708  12.362
86299W        W58724  38.414  20.094  10.477
86300W        W58725   0.718  32.845   4.725
86301W        W58726  24.914  10.195  13.601
86302W        W58727   7.668  39.388  11.968
86303W        W58728  16.187   0.985  11.497
86304W        W58729  23.230  28.165  13.409
86305W        W58730  39.431  14.148   4.744
86306W        W58731  33.274  41.860   1.787
86307W        W58732  34.916  37.008   0.505
86308W        W58733  20.980   3.756   3.155
86309W        W58734   2.914   3.357   2.369
86310W        W58735  38.458   5.195  13.415
86311W        W58736  25.931  13.090   0.803
86312W        W58737  30.057   4.929  13.473
86313W        W58738  31.193  22.753   9.684
86314W        W58739  38.342   4.249   0.252
86315W        W58740  29.074  18.359  10.546
86316W        W58741  32.253  23.062  12.183
86317W        W58742  14.140   0.705  14.908
86318W        W58743  15.701  22.220  10.393
86319W        W58744   5.152  12.639   0.878
86320W        W58745  17.629  20.015   4.930
86321W        W58746  12.874  31.333   2.311
86322W        W58747  28.166   7.085   1.568
86323W        W58748  17.701  24.224   4.168
86324W        W58749   2.718  36.565  13.081
86325W        W58750  36.101  44.952  10.974
86326W        W58751  17.702  24.538   3.763
86327W        W58752  19.799  15.284   1.730
86328W        W58753  24.543   2.324  12.237
86329W        W58754  18.215  42.926  11.436
86330W        W58755   3.110  14.377   3.937
86331W        W58756  11.247  12.636  11.512
86332W        W58757   1.706  33.414   0.335
86333W        W58758  12.719  20.732   3.226
86334W        W58759  34.756  15.742   0.897
86335W        W58760  25.578   3.188  13.298
86336W        W58761  12.401  14.261  13.463
86337W        W58762  11.167  27.492  10.720
86338W        W58763  12.365   5.454  10.629
86339W        W58764  19.044  19.788  12.131
86340W        W58765  43.454  29.101   0.211
86341W        W58766   1.267   7.515  12.306
86342W        W58767  26.200   1.763  11.566
86343W        W58768  43.402  19.115   4.356
86344W        W58769  11.515  38.126   2.367
86345W        W58770  25.607  28.496  14.148
86346W        W58771  29.356  22.563   0.666
86347W        W58772  44.383  13.073   3.403
86348W        W58773   4.864  44.882   4.291
86349W        W58774  32.966  36.564  14.035
86350W        W58775   7.652  42.102   1.249
86351W        W58776  39.047   8.899  14.358
86352W        W58777  40.623  37.475  11.665
86353W        W58778  41.976  19.033   0.331
86354W        W58779   1.496  43.419   3.718
86355W        W58780  26.220   2.731   0.302
86356W        W58781   3.421  21.232   0.884
86357W        W58782  24.758  39.085  14.331
86358W        W58783   5.386  27.236  13.517
86359W        W58784   9.593  17.894   1.966
86360W        W58785  12.399  11.674  14.991
86361W        W58786  15.346  20.449   2.284
86362W        W58787  13.136  34.391  14.310
86363W        W58788  15.258  17.031   1.151
86364W        W58789   7.835   1.482  10.669
86365W        W58790  13.281   0.694  10.134
86366W        W58791  11.650  12.404  10.708
86367W        W58792  40.568  32.454   4.912
86368W        W58793  36.812  43.872   3.842
86369W        W58794  41.487   2.197   1.457
86370W        W58795  33.987  35.142   1.903
86371W        W58796  30.916   3.344   4.522
86372W        W58797  44.985  13.255  13.007
86373W        W58798   9.240  26.440  10.733
86374W        W58799  42.511  22.075   9.533
86375W        W58800   4.684   4.346   0.780
86376W        W58801  28.653  30.977   3.363
86377W        W58802  26.611  33.821  12.965
86378W        W58803  25.498   1.812   2.730
86379W        W58804  10.117   7.714   4.488
86380W        W58805  40.025  31.389   3.226
86381W        W58806  38.320   7.437   9.943
86382W        W58807  12.105  44.971  14.706
86383W        W58808  43.333   0.359  12.988
86384W        W58809  12.854  41.126   1.991
86385W        W58810  13.351  28.536   0.653
86386W        W58811  15.756  27.822  14.932
86387W        W58812  22.232   1.160  12.946
86388W        W58813  32.728  16.932   0.176
86389W        W58814  26.665  22.463   5.033
86390W        W58815  40.021   0.964  13.784
86391W        W58816  10.066  20.277  12.101
86392W        W58817   1.907   4.722   4.840
86393W        W58818   5.300   1.512  14.353
86394W        W58819  32.635   9.137  10.498
86395W        W58820  20.169  34.617   1.917
86396W        W58821   2.650   2.931  14.450
86397W        W58822  36.115  17.021   4.442
86398W        W58823  33.487  23.578  13.760
86399W        W58824   0.778  28.956   1.257
86400W        W58825   7.699  31.829   5.037
86401W        W58826  36.577  43.871  11.918
86402W        W58827  33.166  25.654   1.112
86403W        W58828  18.383  42.590   4.859
86404W        W58829  18.272  27.049  14.435
86405W        W58830  25.334  24.311  14.768
86406W        W58831  30.720   6.233  11.943
86407W        W58832  29.513  12.183  14.360
86408W        W58833  13.558  26.999  14.333
86409W        W58834  12.685   0.887   1.755
86410W        W58835  30.482  25.280   0.207
86411W        W58836  40.551  16.057   4.513
86412W        W58837  40.862  44.567  13.387
86413W        W58838  19.581  30.859   4.215
86414W        W58839  20.103   2.414   4.687
86415W        W58840  11.149   3.398   2.424
86416W        W58841  14.741   0.997   1.300
86417W        W58842  20.705   5.329   1.694
86418W        W58843  16.483   2.344  12.123
86419W        W58844  32.127  23.136  14.017
86420W        W58845  43.707  14.324   0.202
86421W        W58846  38.367   3.847   1.269
86422W        W58847  34.646  44.104  10.498
86423W        W58848  12.233  39.425  11.785
86424W        W58849   4.372  10.858   1.415
86425W        W58850  37.952  24.989   2.772
86426W        W58851   1.884  14.619   0.331
86427W        W58852  29.070  41.228  13.890
86428W        W58853  35.058  22.587   4.584
86429W        W58854   4.131  14.382  13.393
86430W        W58855  21.943   9.763   2.754
86431W        W58856  34.724  30.043   4.596
86432W        W58857   3.210  30.457  12.307
86433W        W58858  23.165  25.239   1.540
86434W        W58859  29.140  42.763   4.099
86435W        W58860  37.388   6.246   4.493
86436W        W58861  18.282  22.027   2.703
86437W        W58862  13.164  40.464  12.151
86438W        W58863   9.404   4.321   0.491
86439W        W58864   8.563  43.858   3.438
86440W        W58865   6.697  43.830   4.905
86441W        W58866  22.389  11.867  11.149
86442W        W58867  35.585  20.456   4.636
86443W        W58868  34.478   8.352   4.110
86444W        W58869   7.030  42.611   0.861
86445W        W58870  20.015  38.445  10.730
86446W        W58871  30.579  30.307   3.772
86447W        W58872   2.279  33.425   1.253
86448W        W58873   4.245  19.648  14.499
86449W        W58874  41.944   4.291  13.763
86450W        W58875  24.900   6.240   0.324
86451W        W58876  14.930   0.189   2.247
86452W        W58877  31.680  31.814   2.356
86453W        W58878  38.031  16.216  13.750
86454W        W58879  27.675  32.593   3.876
86455W        W58880   3.173  27.598   0.903
86456W        W58881   4.468  14.676   0.948
86457W        W58882  28.976  27.067  13.005
86458W        W58883  30.025  15.472   2.624
86459W        W58884  40.499  11.089   3.797
86460W        W58885  27.247  18.442   1.443
86461W        W58886  35.312  20.123  14.785
86462W        W58887  30.165   3.723  14.199
86463W        W58888  44.244  18.131  11.619
86464W        W58889  19.749  43.501   1.862
86465W        W58890  27.569  15.191  11.320
86466W        W58891  26.816  24.000   1.835
86467W        W58892  31.734  13.751  12.019
86468W        W58893  16.843  31.181  13.856
86469W        W58894  11.653  42.435   3.851
86470W        W58895  25.092  11.695   2.559
86471W        W58896  23.660  10.098  10.948
86472W        W58897  37.194  21.762   0.359
86473W        W58898  28.119   9.181  11.627
86474W        W58899  35.807  15.061  12.095
86475W        W58900  17.164  14.830   0.353
86476W        W58901  13.253  14.134   2.341
86477W        W58902  43.464  21.199   4.847
86478W        W58903  21.942   4.714  13.399
86479W        W58904  16.187  30.964  14.276
86480W        W58905  30.422   6.270  12.378
86481W        W58906  34.680  25.577   1.985
86482W        W58907   1.234  40.410   2.367
86483W        W58908  20.768  30.915  11.042
86484W        W58909   6.490  13.310  12.418
86485W        W58910  21.848  28.499   2.734
86486W        W58911  31.493   2.772  13.352
86487W        W58912   5.383  42.558   2.482
86488W        W58913  39.636  23.882   0.740
86489W        W58914   0.829  14.140   1.910
86490W        W58915   5.884  21.714  14.989
86491W        W58916   7.675  35.951   1.103
86492W        W58917  10.378  11.750   4.149
86493W        W58918   5.763  29.622  11.848
86494W        W58919   9.462  31.092  12.707
86495W        W58920  13.554  18.732  10.431
86496W        W58921   6.887  16.119   4.670
86497W        W58922   5.387  35.422  11.659
86498W        W58923  19.687   4.214  11.443
86499W        W58924   0.454  16.995   1.798
86500W        W58925  30.076  34.908  11.931
86501W        W58926  27.924  27.396   2.253
86502W        W58927  39.272  39.902   2.714
86503W        W58928  36.299  32.489  13.561
86504W        W58929  23.713  43.085  11.580
86505W        W58930  16.216   1.900  13.376
86506W        W58931  43.633   4.180  13.054
86507W        W58932  33.341   4.652   2.524
86508W        W58933  25.553  36.623   2.740
86509W        W58934   9.618   8.767  12.436
86510W        W58935  23.322   8.730  14.870
86511W        W58936   8.350   1.343  13.859
86512W        W58937  10.446  28.888  14.026
86513W        W58938  26.933  36.310  14.839
86514W        W58939  36.462  32.526   2.845
86515W        W58940   0.299   7.348   4.104
86516W        W58941  35.591  33.053   4.438
86517W        W58942  44.264   3.552   5.012
86518W        W58943  15.636  26.496   2.136
86519W        W58944  13.922  29.477  14.431
86520W        W58945  44.391   1.351  13.477
86521W        W58946  15.451  44.438   2.446
86522W        W58947   5.670  14.631   3.792
86523W        W58948   5.219  41.305   5.064
86524W        W58949   2.815  29.717  14.918
86525W        W58950  34.537  23.217  11.443
86526W        W58951  23.019   8.722  10.569
86527W        W58952   3.675  41.608   3.625
86528W        W58953  21.845   2.052   0.328
86529W        W58954  22.246  24.612   2.097
86530W        W58955  13.915  23.679  10.646
86531W        W58956  16.652  43.147   4.968
86532W        W58957  43.792  37.943  12.354
86533W        W58958  16.490  35.520  10.418
86534W        W58959   3.682  34.507   2.679
86535W        W58960  38.555  24.944   0.878
86536W        W58961   0.487  32.027  12.446
86537W        W58962  34.941   5.357   4.668
86538W        W58963  44.766  39.297  11.084
86539W        W58964  26.677  44.757   0.318
86540W        W58965   9.632  20.401   3.463
86541W        W58966  14.869   6.107  12.104
86542W        W58967  17.737   4.406   4.265
86543W        W58968  21.669  41.326  13.770
86544W        W58969  40.487  25.231  14.770
86545W        W58970  11.636  31.481   1.742
86546W        W58971  41.828  27.440  10.597
86547W        W58972  18.635  24.993  11.021
86548W        W58973  20.291   5.245  12.999
86549W        W58974  17.574  33.997   3.745
86550W        W58975  32.091  23.032   3.349
86551W        W58976  14.015  27.895  11.509
86552W        W58977  22.732  38.135  11.012
86553W        W58978  38.968  15.320  10.716
86554W        W58979  44.370  18.059  11.050
86555W        W58980  27.470   9.609  14.818
86556W        W58981  42.307  15.759   4.236
86557W        W58982  36.887   2.703  11.875
86558W        W58983  37.357   6.879  13.059
86559W        W58984   6.724  25.082  12.070
86560W        W58985  23.948  24.739  11.648
86561W        W58986  12.611  42.961   3.656
86562W        W58987  16.315  23.492   4.189
86563W        W58988  12.247  19.617   1.778
86564W        W58989  32.225  43.287   1.439
86565W        W58990   0.489   7.161  11.620
86566W        W58991   2.776  14.352  12.819
86567W        W58992  33.688  17.321   4.992
86568W        W58993  26.722  21.221   4.742
86569W        W58994  31.160  31.022   2.052
86570W        W58995  26.641  41.996  12.863
86571W        W58996   6.556   8.788   5.105
86572W        W58997  23.748  21.050   0.652
86573W        W58998  19.244  44.214  12.579
86574W        W58999  24.695  23.768  14.584
86575W        W59000  42.633  20.763  14.807
86576W        W59001  13.357  42.891  14.061
86577W        W59002  38.057  28.043   2.334
86578W        W59003  10.045  26.961   3.907
86579W        W59004  38.203   3.158  14.704
86580W        W59005  31.315   1.976   3.198
86581W        W59006   8.662  20.488   3.694
86582W        W59007  33.931   5.770  11.933
86583W        W59008   1.742  18.293   2.221
86584W        W59009  27.217  41.285  13.976
86585W        W59010  18.359  13.062  12.299
86586W        W59011   8.099  26.184  11.286
86587W        W59012  37.063   7.299   0.449
86588W        W59013  31.945  22.074   9.552
86589W        W59014  15.885   9.937   2.255
86590W        W59015  28.112  43.535   0.420
86591W        W59016  21.227  12.898  12.284
86592W        W59017  43.635  27.902   3.170
86593W        W59018  29.556  23.486  10.646
86594W        W59019  31.683   3.291   3.410
86595W        W59020  13.343   1.362   2.641
86596W        W59021  26.482  22.514   1.233
86597W        W59022   2.966   0.527   2.675
86598W        W59023   9.118  25.762   1.489
86599W        W59024  35.517  23.759   2.839
86600W        W59025  18.253  38.882   0.028
86601W        W59026  21.719   9.455   1.283
86602W        W59027  14.713  39.476  13.060
86603W        W59028  23.309  28.573   0.077
86604W        W59029  22.766  44.389   0.547
86605W        W59030  27.582  28.871  12.103
86606W        W59031  35.655  34.541  12.540
86607W        W59032  14.051  28.552  12.869
86608W        W59033  31.896  23.584   3.125
86609W        W59034  20.152  37.976   3.219
86610W        W59035  30.998  32.039  14.402
86611W        W59036  39.341   5.027  13.702
86612W        W59037  37.114  37.630  14.890
86613W        W59038   2.336  35.558   0.825
86614W        W59039   8.725   2.841  10.371
86615W        W59040  42.043  32.493  10.730
86616W        W59041  24.605  43.217   2.725
86617W        W59042  24.138  29.689  13.719
86618W        W59043  34.891   2.718   3.144
86619W        W59044   3.690  16.536   4.066
86620W        W59045  25.312  37.906   0.532
86621W        W59046   7.181   6.918   4.597
86622W        W59047  11.767   3.439   0.926
86623W        W59048   7.287  16.326  11.232
86624W        W59049  41.526  16.016  10.667
86625W        W59050  21.531  16.607  13.104
86626W        W59051  30.290  40.049   2.017
86627W        W59052   2.384  28.448  14.540
86628W        W59053  39.072  33.360   1.910
86629W        W59054  10.370  28.378   2.246
86630W        W59055  31.552  28.248  11.444
86631W        W59056   4.465  13.748  13.947
86632W        W59057   3.851  26.363  14.033
86633W        W59058  38.058  26.647  12.491
86634W        W59059   8.827  15.127   2.851
86635W        W59060  12.446  33.146   0.545
86636W        W59061  15.795   0.197   0.465
86637W        W59062  17.416  27.197   4.929
86638W        W59063  34.087  10.808  11.388
86639W        W59064  21.031  22.764  14.292
86640W        W59065  17.603  12.764  10.981
86641W        W59066   0.298  30.183  13.032
86642W        W59067  38.280  33.105  12.510
86643W        W59068  30.081  22.448  13.390
86644W        W59069  27.798  24.090   4.252
86645W        W59070  26.214  24.115  14.798
86646W        W59071  23.968  26.774  13.016
86647W        W59072   0.954  37.940  11.118
86648W        W59073  32.128  27.551   2.462
86649W        W59074  44.425  12.629   3.701
86650W        W59075  10.317  12.662  13.837
86651W        W59076   3.964  22.682  14.864
86652W        W59077  23.735  25.188  14.206
86653W        W59078  37.674  21.550   0.344
86654W        W59079  19.273  15.650  14.979
86655W        W59080  18.205   4.760   1.673
86656W        W59081  22.613  32.232   4.161
86657W        W59082  19.672  39.536   4.424
86658W        W59083  44.272  35.101  11.459
86659W        W59084  35.132  43.166   4.646
86660W        W59085  31.591  28.412   2.400
86661W        W59086  44.905  31.843   9.758
86662W        W59087  12.256  32.143  11.522
86663W        W59088  24.161  24.490  11.273
86664W        W59089  18.216  43.405   4.771
86665W        W59090  13.139  27.441  11.811
86666W        W59091   5.503   1.005   3.531
86667W        W59092  42.744   2.744  10.720
86668W        W59093  31.975  29.117   2.805
86669W        W59094  28.811  23.207  12.795
86670W        W59095  26.567  13.883  13.893
86671W        W59096  13.357  27.853   2.844
86672W        W59097  34.940  31.484   2.908
86673W        W59098   0.932   8.746   2.387
86674W        W59099   0.718  21.980  12.106
86675W        W59100   7.301   9.458  12.583
86676W        W59101   5.306  25.032  14.908
86677W        W59102  12.359  21.598  11.949
86678W        W59103  20.167  34.864  13.947
86679W        W59104   0.592  34.439   0.282
86680W        W59105  18.595  31.057   3.132
86681W        W59106  13.673  24.785  11.897
86682W        W59107  26.809  27.936   2.839
86683W        W59108  20.416  13.237  14.450
86684W        W59109  23.281  36.866   1.468
86685W        W59110  44.495  25.042   3.217
86686W        W59111  34.989   9.619  11.892
86687W        W59112  14.363  35.998  13.949
86688W        W59113  40.165  37.577   5.084
86689W        W59114   6.574  41.788  13.086
86690W        W59115  35.378   9.767   0.553
86691W        W59116  29.394  26.907   3.214
86692W        W59117  40.433  43.397  11.848
86693W        W59118  41.736   0.826   0.777
86694W        W59119  24.152  12.052  13.366
86695W        W59120   6.701  19.629   2.779
86696W        W59121   1.956  38.095   2.291
86697W        W59122   5.779  23.602   4.109
86698W        W59123  12.543  19.518   2.205
86699W        W59124  17.577  25.171  11.117
86700W        W59125   0.909  34.103   9.600
86701W        W59126  23.673  25.991   2.794
86702W        W59127  33.981  37.082   1.464
86703W        W59128  30.884  14.700  10.481
86704W        W59129  18.285  30.880  10.554
86705W        W59130  22.402  24.953   4.644
86706W        W59131  38.366  33.656   1.366
86707W        W59132  15.376   8.803  13.960
86708W        W59133  16.612  11.066   2.736
86709W        W59134  11.312   6.386   3.379
86710W        W59135  29.517  16.308   2.691
86711W        W59136  31.972   9.199  12.524
86712W        W59137  42.455  40.318  14.855
86713W        W59138  42.344  39.811   3.697
86714W        W59139  17.931  13.238   0.813
86715W        W59140  38.021  13.611   3.047
86716W        W59141   5.353   7.214  10.968
86717W        W59142  16.348  18.544   3.175
86718W        W59143  18.501  28.796   3.981
86719W        W59144  40.410  19.397   4.431
86720W        W59145  32.498  44.348   4.026
86721W        W59146  10.704  20.217   4.512
86722W        W59147  18.719  13.806   1.712
86723W        W59148  28.000  28.958   2.240
86724W        W59149  36.427  22.556  13.389
86725W        W59150  38.585  22.009  10.604
86726W        W59151   3.669  43.185  13.432
86727W        W59152  23.022   7.590   1.393
86728W        W59153   6.259   3.825   3.411
86729W        W59154   5.419   5.110   2.769
86730W        W59155  32.363   9.209   0.796
86731W        W59156  31.701  24.490   0.491
86732W        W59157  18.124  39.571  14.557
86733W        W59158  21.953  27.529   4.151
86734W        W59159  24.615   0.910   1.733
86735W        W59160  15.664  25.962  13.482
86736W        W59161  26.776   2.734  13.997
86737W        W59162  33.428  15.020   2.707
86738W        W59163  27.103   4.382  14.860
86739W        W59164   7.932  10.864  11.175
86740W        W59165  32.067   0.727  13.810
86741W        W59166  32.435   9.312  13.056
86742W        W59167  19.948  28.165   9.824
86743W        W59168  16.013  26.511   0.921
86744W        W59169  40.665  20.644  10.227
86745W        W59170  19.914   2.042   2.920
86746W        W59171   2.044  19.919  14.954
86747W        W59172  23.272   1.566   3.731
86748W        W59173  25.366  26.516   3.729
86749W        W59174  36.478  15.923   2.347
86750W        W59175  37.491  24.632  14.515
86751W        W59176  12.336  27.016   1.694
86752W        W59177  26.131  11.378  14.415
86753W        W59178   7.760  42.323  14.384
86754W        W59179  44.909  11.145   2.209
86755W        W59180  40.259  33.545   1.382
86756W        W59181  19.973  33.871  14.046
86757W        W59182  40.071  22.182   1.825
86758W        W59183  40.999  22.284  14.334
86759W        W59184  25.460  37.850   3.236
86760W        W59185  32.073  12.768  13.855
86761W        W59186  13.144  38.358   0.279
86762W        W59187  28.817  29.653  10.748
86763W        W59188  11.098  28.092  11.767
86764W        W59189  32.524  43.887  12.144
86765W        W59190  11.740  23.731  13.367
86766W        W59191  34.660  19.539   3.596
86767W        W59192   0.508  43.954   0.314
86768W        W59193   6.961  40.326   0.744
86769W        W59194   6.199  42.729  13.795
86770W        W59195  39.269  12.712   3.140
86771W        W59196  42.012  14.063   1.474
86772W        W59197   9.391  31.000  10.643
86773W        W59198  16.165  35.495  11.264
86774W        W59199  24.722  30.462   4.016
86775W        W59200  22.094   2.017  14.003
86776W        W59201  33.161   0.005  11.518
86777W        W59202  44.864  15.935   2.442
86778W        W59203  31.016  17.597   1.537
86779W        W59204  12.569   8.417   1.909
86780W        W59205  19.205   9.820   4.608
86781W        W59206  18.106   0.373   1.934
86782W        W59207  32.921  21.169   2.828
86783W        W59208  26.596  28.917  11.573
86784W        W59209  29.183  37.612  12.700
86785W        W59210  26.804  23.122   1.561
86786W        W59211  17.919  11.912  12.072
86787W        W59212  20.954  11.327   0.642
86788W        W59213  25.599   9.190   2.287
86789W        W59214   6.104   4.315   2.329
86790W        W59215  37.849  30.677   4.184
86791W        W59216   0.017   9.172   3.811
86792W        W59217   5.057  38.206  13.309
86793W        W59218  29.130  16.054  10.549
86794W        W59219  43.379  42.683  11.581
86795W        W59220  17.900  38.952   0.423
86796W        W59221  27.547  42.964  10.436
86797W        W59222  16.853  36.304  11.086
86798W        W59223  30.468  24.754  12.750
86799W        W59224   3.481  33.107   1.909
86800W        W59225  29.219  28.976   4.945
86801W        W59226  44.809  24.616  12.660
86802W        W59227  24.434  17.220   1.175
86803W        W59228  20.530  12.389   1.406
86804W        W59229  21.194  19.320  14.372
86805W        W59230  29.942   0.711  11.116
86806W        W59231  11.150  26.680   4.257
86807W        W59232  24.974  44.084   4.968
86808W        W59233  36.966   4.150  11.397
86809W        W59234  28.103  39.347  12.067
86810W        W59235  20.288  19.981   1.746
86811W        W59236   2.155  27.891   1.540
86812W        W59237  20.882   5.432  11.323
86813W        W59238   5.608   8.683  13.415
86814W        W59239  11.220  40.985  10.966
86815W        W59240  26.141  19.279  14.452
86816W        W59241  29.408   8.853  12.152
86817W        W59242  18.061  31.463   4.615
86818W        W59243  25.709  26.640  11.764
86819W        W59244  22.849  43.891  11.055
86820W        W59245  42.402  24.032   2.033
86821W        W59246  32.033  20.566  12.221
86822W        W59247  19.203  35.056   1.878
86823W        W59248   1.410  30.592  13.037
86824W        W59249  42.101  35.977  10.726
86825W        W59250  35.166   5.854   0.465
86826W        W59251  14.882  28.398  10.676
86827W        W59252  12.865  29.932   4.119
86828W        W59253  19.486  40.988  11.080
86829W        W59254  24.554   8.076  11.958
86830W        W59255  31.425  26.775  14.384
86831W        W59256  17.106  29.211   1.515
86832W        W59257  24.964   5.829  13.332
86833W        W59258  39.716   6.704   2.517
86834W        W59259  34.864  33.331   4.949
86835W        W59260  24.476   4.702   4.798
86836W        W59261  37.219  13.147   0.476
86837W        W59262   2.839  21.447  14.745
86838W        W59263  33.895  43.482  10.403
86839W        W59264   0.388  17.265   2.258
86840W        W59265  15.124  21.184  10.512
86841W        W59266   2.241  26.949  14.237
86842W        W59267   3.546  23.554   1.771
86843W        W59268  26.002  33.561   4.508
86844W        W59269  12.125  17.338   3.869
86845W        W59270  30.650  24.118   9.860
86846W        W59271  41.329  25.233   2.226
86847W        W59272  27.974  40.619   4.696
86848W        W59273  44.813  32.537  11.587
86849W        W59274  44.365   3.160   3.671
86850W        W59275  12.313  25.324  11.962
86851W        W59276  14.743  37.652  13.819
86852W        W59277   9.431  27.018   0.953
86853W        W59278  32.277  42.570   2.838
86854W        W59279   2.608  31.154   4.639
86855W        W59280  10.330   4.341   1.139
86856W        W59281  12.787  14.647  13.428
86857W        W59282  42.735  38.328   0.922
86858W        W59283   5.807  36.904  14.929
86859W        W59284  29.217   2.520   1.256
86860W        W59285   8.301  28.355   2.005
86861W        W59286  43.932  30.327   0.565
86862W        W59287  40.603  21.254   4.186
86863W        W59288  13.730  34.595   2.925
86864W        W59289   8.782  30.206  10.572
86865W        W59290  18.092  11.489   0.205
86866W        W59291   8.808  16.504  11.631
86867W        W59292   7.630  33.388   2.810
86868W        W59293  22.130  18.132   4.367
86869W        W59294  13.860  20.177   4.509
86870W        W59295   4.493  21.370  10.074
86871W        W59296  37.382  40.569  12.502
86872W        W59297  44.410  12.395   1.970
86873W        W59298  32.464  38.124  13.473
86874W        W59299   0.571  21.068   0.801
86875W        W59300  14.900  18.020  13.566
86876W        W59301  34.872  41.770  12.522
86877W        W59302   4.516   7.535  11.590
86878W        W59303  16.246   0.856   4.907
86879W        W59304  10.071  15.081   2.275
86880W        W59305  10.649  31.924   5.030
86881W        W59306  31.363  31.511  12.798
86882W        W59307   7.166  42.019   4.370
86883W        W59308  35.618  33.970  13.400
86884W        W59309  37.481   5.650  14.872
86885W        W59310  34.023   9.666  14.875
86886W        W59311  23.531  27.651  12.962
86887W        W59312   6.291  13.174   0.370
86888W        W59313  41.829  20.257   0.902
86889W        W59314  19.578  18.175   4.661
86890W        W59315  38.497   8.783   5.056
86891W        W59316  35.472  15.664   0.353
86892W        W59317  37.807  27.727   0.534
86893W        W59318  12.250  33.531   1.368
86894W        W59319   8.617  15.919   4.751
86895W        W59320  35.593  19.152   1.939
86896W        W59321  22.633  24.398   1.809
86897W        W59322  18.873  40.505   4.121
86898W        W59323  30.735  25.510  13.609
86899W        W59324   9.458   3.406  11.402
86900W        W59325  27.051   8.901  13.155
86901W        W59326   2.200   7.761   2.623
86902W        W59327  20.193  14.400  14.791
86903W        W59328   7.288  20.440   2.858
86904W        W59329  40.788  11.187  13.774
86905W        W59330  15.083  36.072  10.005
86906W        W59331  25.713   2.689   4.133
86907W        W59332   9.191  19.578   0.139
86908W        W59333   0.338  15.094   2.291
86909W        W59334  26.078  30.458   4.243
86910W        W59335  29.948  41.302  11.914
86911W        W59336  42.526   2.132   2.212
86912W        W59337  37.117  14.065   0.435
86913W        W59338  11.784  32.035  10.220
86914W        W59339  37.318  31.842   2.301
86915W        W59340   9.286  35.548  10.730
86916W        W59341  22.160   1.571  12.518
86917W        W59342  24.201   4.251   3.418
86918W        W59343  10.792  19.480   0.958
86919W        W59344  37.504  18.513   4.196
86920W        W59345  33.929   1.934  10.750
86921W        W59346  42.321   7.160   3.188
86922W        W59347  23.552  20.377   2.231
86923W        W59348  42.815  20.810  13.506
86924W        W59349  41.462  29.118   2.814
86925W        W59350  25.675  20.436  11.391
86926W        W59351  39.014   4.773   3.605
86927W        W59352  31.104  35.099  12.038
86928W        W59353  44.487  41.479  13.965
86929W        W59354   5.329  28.676   1.329
86930W        W59355  15.211  39.970  14.084
86931W        W59356  23.894  37.638  12.453
86932W        W59357  26.272  42.000  14.658
86933W        W59358  27.071   0.894  14.544
86934W        W59359  21.592   5.828   2.425
86935W        W59360  43.912  24.241  12.923
86936W        W59361  15.619  30.684   4.193
86937W        W59362  23.936  19.724  11.242
86938W        W59363  14.856  39.956  14.975
86939W        W59364  29.080  37.791  14.291
86940W        W59365  15.155  15.638  10.431
86941W        W59366  35.005  13.420  12.887
86942W        W59367  36.421   5.167   3.791
86943W        W59368   8.594   3.628  14.982
86944W        W59369   8.384  35.918   0.021
86945W        W59370   3.157  37.658  12.617
86946W        W59371  33.203  15.750   3.178
86947W        W59372  43.608  12.751  11.732
86948W        W59373   9.785  28.493   0.924
86949W        W59374  35.630  38.793   0.981
86950W        W59375  43.699  27.211  11.623
86951W        W59376  33.057  31.823   0.272
86952W        W59377  13.087   9.185   4.155
86953W        W59378   9.809  33.770  11.621
86954W        W59379  17.447  35.874   0.665
86955W        W59380   5.791  29.519  11.340
86956W        W59381  34.543   8.699   0.478
86957W        W59382  19.512  21.115   0.329
86958W        W59383  26.248  21.908   4.514
86959W        W59384  22.196  14.165  14.898
86960W        W59385  37.621  17.612  11.590
86961W        W59386  36.388  35.921   2.939
86962W        W59387  33.075  34.659  13.026
86963W        W59388  27.065  27.261  13.026
86964W        W59389   9.448  21.372  13.841
86965W        W59390   3.864  28.106   0.942
86966W        W59391  12.795   1.999   4.083
86967W        W59392  37.152  44.582  11.975
86968W        W59393  12.516  40.443   4.901
86969W        W59394  26.307  29.233   5.103
86970W        W59395   4.461   0.826   3.884
86971W        W59396  38.891  26.495  12.756
86972W        W59397   7.352  11.355  12.536
86973W        W59398  35.985   7.494   0.269
86974W        W59399  39.726  18.835   4.548
86975W        W59400  24.257   3.153   2.640
86976W        W59401  25.556  32.706  10.154
86977W        W59402  43.710   1.131   0.472
86978W        W59403  39.312   9.114   1.933
86979W        W59404  21.597   9.370   2.759
86980W        W59405  10.821  28.886  11.185
86981W        W59406  12.926  24.683  12.488
86982W        W59407  42.810   3.608  13.382
86983W        W59408  30.452  39.835   3.018
86984W        W59409  28.100   6.385  14.939
86985W        W59410  41.996  18.711  14.944
86986W        W59411   4.747  36.788  13.612
86987W        W59412  18.276  12.709   2.684
86988W        W59413   4.207  29.426   3.035
86989W        W59414  20.726   5.237  12.271
86990W        W59415  35.143  18.277   0.488
86991W        W59416  30.329  10.037  13.007
86992W        W59417  10.088  15.769  12.910
86993W        W59418  24.960  24.799  11.741
86994W        W59419  19.484  35.451  11.688
86995W        W59420   9.649  17.016  11.930
86996W        W59421  34.940   4.193   2.219
86997W        W59422  24.692  29.723   4.601
86998W        W59423  11.752  36.085  13.039
86999W        W59424   4.733  33.928   4.587
87000W        W59425   8.512  21.260   0.780
87001W        W59426   7.734  44.408  12.832
87002W        W59427  18.839  38.011  12.852
87003W        W59428  35.369  43.071   1.666
87004W        W59429  20.942  41.744   1.672
87005W        W59430   0.329   8.304  14.788
87006W        W59431  23.504  29.440   2.326
87007W        W59432   4.921   7.858  11.552
87008W        W59433  18.554  41.894   1.317
87009W        W59434  16.315  18.650   3.820
87010W        W59435  26.163  26.638   0.820
87011W        W59436  32.153  35.580  14.472
87012W        W59437  23.818  25.490  14.999
87013W        W59438   1.920  15.722  11.776
87014W        W59439   3.328  42.692   1.893
87015W        W59440   3.650  43.188  14.939
87016W        W59441  36.612   5.498   1.083
87017W        W59442  16.852  23.043  13.220
87018W        W59443  25.750  24.606  12.518
87019W        W59444  39.384   7.731  12.880
87020W        W59445  32.896  43.757  13.646
87021W        W59446  31.899  30.825   3.986
87022W        W59447   4.854   4.030   1.178
87023W        W59448  35.865  26.464  11.480
87024W        W59449  34.145  27.163   1.410
87025W        W59450  21.703  25.585   5.072
87026W        W59451  39.080  37.333  12.423
87027W        W59452  22.110  25.058  13.277
87028W        W59453  42.722  21.706  10.844
87029W        W59454  39.353   6.900  10.515
87030W        W59455  22.329  27.442   0.668
87031W        W59456  16.075   7.715   1.960
87032W        W59457  10.683  28.432  13.898
87033W        W59458  33.397  21.624   4.594
87034W        W59459   0.778  28.977  11.258
87035W        W59460  12.629   3.884  11.268
87036W        W59461  39.529  27.488  11.962
87037W        W59462  23.073  27.893  12.093
87038W        W59463   7.962  10.206  11.907
87039W        W59464  39.932  18.174   0.466
87040W        W59465  35.645  19.960   4.500
87041W        W59466  10.864  24.911  12.994
87042W        W59467  29.992  36.456   1.474
87043W        W59468  10.777  41.918   4.771
87044W        W59469  36.544  19.813  14.768
87045W        W59470  32.810  18.060   3.295
87046W        W59471  40.459  44.043   2.320
87047W        W59472   6.449   3.852   0.382
87048W        W59473  40.911  44.102   0.415
87049W        W59474  18.642   8.858   4.311
87050W        W59475  14.879  24.888  12.456
87051W        W59476  36.968  28.140   0.362
87052W        W59477  37.922  39.608  14.329
87053W        W59478   7.445  41.419   2.868
87054W        W59479  18.703  33.183   0.761
87055W        W59480  17.835  44.036   3.669
87056W        W59481   1.366  28.485   1.046
87057W        W59482  30.944   4.868  13.944
87058W        W59483  31.473  21.992  10.644
87059W        W59484  16.570  16.118   3.582
87060W        W59485  14.754  28.697   3.732
87061W        W59486  38.099   9.202  12.431
87062W        W59487  29.635  42.961  12.157
87063W        W59488  38.116  12.159  13.348
87064W        W59489  12.645  37.095  13.192
87065W        W59490   8.668  22.233  13.446
87066W        W59491  19.759  26.997   4.050
87067W        W59492  33.827  19.600   0.162
87068W        W59493  39.015   3.653   2.347
87069W        W59494  26.469  43.798   0.722
87070W        W59495   9.844  31.648   2.255
87071W        W59496  32.142   2.357   3.239
87072W        W59497  32.015  38.806  14.139
87073W        W59498  16.396  12.068   2.815
87074W        W59499  23.505  40.448  10.800
87075W        W59500   9.329   8.655   0.851
87076W        W59501  37.021   6.390  10.667
87077W        W59502  41.509  10.194   2.884
87078W        W59503   8.902  38.023   3.717
87079W        W59504  27.445   2.085   3.087
87080W        W59505  34.457  37.019   1.287
87081W        W59506  36.277  16.295   1.533
87082W        W59507  27.965  33.462  12.448
87083W        W59508   7.667  41.410  14.374
87084W        W59509  11.670   2.397  14.090
87085W        W59510   0.583  26.533   4.799
87086W        W59511  16.539  40.292  10.807
87087W        W59512  29.597   9.177  12.527
87088W        W59513  15.612  38.310   0.172
87089W        W59514  22.007  22.165  13.055
87090W        W59515  35.088   7.556   0.266
87091W        W59516  12.472  36.123   1.367
87092W        W59517   3.366   4.948   4.226
87093W        W59518   6.037  19.537  11.164
87094W        W59519  13.303  25.641  11.126
87095W        W59520  22.507  11.495   1.852
87096W        W59521   7.475  43.867  11.239
87097W        W59522  26.605  11.638  14.381
87098W        W59523  38.350   7.780   3.604
87099W        W59524  15.838   4.945  13.959
87100W        W59525   5.927  42.557  14.511
87101W        W59526   7.206  37.859  13.159
87102W        W59527  12.670  23.676  10.179
87103W        W59528  39.806   9.289  11.908
87104W        W59529   3.135   7.267  11.050
87105W        W59530   9.608  25.072  11.729
87106W        W59531  14.305  37.597   2.392
87107W        W59532   2.359  40.619   0.773
87108W        W59533  34.143   8.189   1.736
87109W        W59534  27.487  31.400  14.317
87110W        W59535  37.568  35.630   3.603
87111W        W59536  39.619  19.308   0.982
87112W        W59537  12.292  28.529   0.460
87113W        W59538  33.114  26.274  14.486
87114W        W59539  21.110  24.040  10.681
87115W        W59540  32.041  34.763  14.049
87116W        W59541  34.978  42.321   2.712
87117W        W59542  36.060   4.271  14.681
87118W        W59543  14.547  36.817   0.396
87119W        W59544  43.426  43.714  11.487
87120W        W59545  19.313   8.392   0.621
87121W        W59546  21.534   6.413  13.874
87122W        W59547  11.413  13.168  13.428
87123W        W59548  11.677  16.777  10.417
87124W        W59549   4.759  40.379   1.659
87125W        W59550  38.885  30.076  14.675
87126W        W59551   1.442  38.035  14.911
87127W        W59552   0.516  33.815   5.059
87128W        W59553  29.102  22.218   2.489
87129W        W59554  37.750  15.834   5.054
87130W        W59555  37.868  28.552   2.226
87131W        W59556  14.111  19.672   3.219
87132W        W59557  36.946  44.656  12.831
87133W        W59558   5.876  21.587   2.934
87134W        W59559   7.928   7.499  10.873
87135W        W59560  10.067  43.312   4.117
87136W        W59561  25.646  31.935  14.389
87137W        W59562  19.983   1.435   1.170
87138W        W59563   0.408   3.684  12.087
87139W        W59564  30.493  43.698   2.201
87140W        W59565  16.193  11.058   3.062
87141W        W59566  10.203  19.759  12.086
87142W        W59567  25.355  21.044  12.644
87143W        W59568   2.684  35.448  10.597
87144W        W59569  44.012   9.596  10.976
87145W        W59570  40.337   3.379  12.988
87146W        W59571  36.451  24.211  11.592
87147W        W59572  41.286   0.896   1.049
87148W        W59573   3.072  39.956   2.256
87149W        W59574  26.398  19.786   3.704
87150W        W59575  32.498  24.197   4.020
87151W        W59576  16.839  21.828   3.186
87152W        W59577  41.372  23.686   2.219
87153W        W59578  20.593  42.315  14.231
87154W        W59579  13.829  39.388   4.570
87155W        W59580  44.390  33.545  13.900
87156W        W59581  23.282  10.231  14.037
87157W        W59582  11.186  16.373   1.761
87158W        W59583  44.196   3.464  10.155
87159W        W59584  13.739  25.554   1.698
87160W        W59585  11.962  33.309  12.984
87161W        W59586  15.587  29.233  12.879
87162W        W59587  29.434  10.697  14.015
87163W        W59588  21.716  44.892   1.233
87164W        W59589  20.740  28.464   0.916
87165W        W59590   6.049  38.263   4.582
87166W        W59591  36.578  44.808  11.145
87167W        W59592   2.840  16.146   4.095
87168W        W59593   7.666  19.652  11.154
87169W        W59594  31.585  33.851  13.169
87170W        W59595   3.820   0.841  12.109
87171W        W59596  41.988  38.542  14.265
87172W        W59597   1.792  22.995  11.424
87173W        W59598  24.772  33.079   4.210
87174W        W59599  15.298  32.704   4.123
87175W        W59600  42.888  26.474   2.292
87176W        W59601  16.419  26.273   1.776
87177W        W59602  43.403   3.210   0.749
87178W        W59603  13.845   6.110   1.513
87179W        W59604   9.462  30.503   2.728
87180W        W59605  37.941  23.150   2.734
87181W        W59606  27.088  42.926  12.060
87182W        W59607  26.996  40.931  14.671
87183W        W59608   0.531   3.838  12.914
87184W        W59609   1.851  32.103   4.841
87185W        W59610  24.164  35.259   4.584
87186W        W59611  11.367  27.157   3.182
87187W        W59612  19.913  34.574   3.595
87188W        W59613  22.977  16.301  11.433
87189W        W59614   5.281   2.817  14.007
87190W        W59615  36.599  22.636   5.054
87191W        W59616  39.335  32.454   1.855
87192W        W59617  14.264  25.934   2.283
87193W        W59618  20.252  25.377   3.702
87194W        W59619   7.596  31.954  12.922
87195W        W59620  22.149  19.722   1.202
87196W        W59621   2.667  16.269  13.783
87197W        W59622   8.742  34.446  14.884
87198W        W59623  44.480   1.860  13.556
87199W        W59624  24.681  29.010  12.492
87200W        W59625  40.880  29.658   3.203
87201W        W59626  43.103  34.198  14.976
87202W        W59627  12.284  16.844   3.715
87203W        W59628  38.442   7.704   1.669
87204W        W59629  14.226  27.356  12.434
87205W        W59630  31.611  20.266   0.876
87206W        W59631   7.197  16.595   0.804
87207W        W59632  13.196   2.784  12.881
87208W        W59633  43.806  44.878   2.698
87209W        W59634  33.151  33.857  13.805
87210W        W59635  33.947  14.866  12.949
87211W        W59636  11.172  39.920  13.750
87212W        W59637  29.465  13.585  13.440
87213W        W59638  18.353  19.345   5.030
87214W        W59639  44.730  16.010  12.286
87215W        W59640  32.932  35.138  12.982
87216W        W59641  38.617   1.672  14.511
87217W        W59642  33.844   6.918   2.298
87218W        W59643  16.316  39.248   0.441
87219W        W59644  17.832  39.035  13.376
87220W        W59645  34.995   4.417   3.635
87221W        W59646  15.368  28.584  13.384
87222W        W59647   2.241  33.428   1.765
87223W        W59648  10.537   2.386   2.815
87224W        W59649  10.148   0.385   0.381
87225W        W59650  42.787  28.141   4.624
87226W        W59651  14.911   6.705   0.242
87227W        W59652  35.316  42.467   4.141
87228W        W59653   3.285  43.563  13.374
87229W        W59654  17.029  13.270   1.177
87230W        W59655   1.214  39.089  14.950
87231W        W59656  21.416  39.397  13.915
87232W        W59657   2.224  12.102  14.367
87233W        W59658  29.985  28.626  14.829
87234W        W59659   7.254  13.763   2.083
87235W        W59660  13.076  20.026   4.137
87236W        W59661  23.130  19.100   4.490
87237W        W59662  44.364  31.627   5.379
87238W        W59663   2.913  39.971   0.854
87239W        W59664  13.339  20.045  11.820
87240W        W59665   8.209  42.952   4.398
87241W        W59666   7.514  27.528  13.480
87242W        W59667  10.265  15.852   1.184
87243W        W59668   4.842   0.609   9.754
87244W        W59669  30.060  15.306  12.073
87245W        W59670  39.291  42.395   3.803
87246W        W59671  40.435   7.812  14.817
87247W        W59672  28.925  43.206  14.861
87248W        W59673  35.000  41.340   2.609
87249W        W59674  44.382  23.429  13.992
87250W        W59675   2.970  14.300   1.443
87251W        W59676  26.718   4.160  13.867
87252W        W59677   5.604  11.814   3.749
87253W        W59678  15.512   9.393   0.311
87254W        W59679  20.352   1.682  12.987
87255W        W59680  13.667  10.493   0.856
87256W        W59681  12.343  32.479   2.037
87257W        W59682  27.693  21.480   1.116
87258W        W59683   4.586  31.076  13.034
87259W        W59684  24.022  13.180  11.047
87260W        W59685  19.041  24.509  14.445
87261W        W59686  33.838  16.146   0.836
87262W        W59687  40.955  39.439   0.535
87263W        W59688  32.095  38.126   4.668
87264W        W59689  30.121  22.578  12.022
87265W        W59690  36.581   0.895   1.306
87266W        W59691   8.096   0.460   3.592
87267W        W59692  18.116  18.746  10.760
87268W        W59693   1.925  33.920  14.371
87269W        W59694  13.756  44.880   1.785
87270W        W59695  34.638  11.423  12.216
87271W        W59696  19.727  25.821   4.527
87272W        W59697  21.148  21.732  10.096
87273W        W59698  12.953  11.229   3.396
87274W        W59699   5.779  16.819  14.524
87275W        W59700  32.369   2.360  11.585
87276W        W59701   7.234  33.651  12.418
87277W        W59702   4.653  18.157   0.603
87278W        W59703   7.820   7.660   3.301
87279W        W59704   9.690  36.726   3.323
87280W        W59705  32.121   0.346   4.180
87281W        W59706   5.554  15.128   3.852
87282W        W59707  31.618  33.879  13.746
87283W        W59708  25.717  18.175  10.989
87284W        W59709   9.275  39.346   4.838
87285W        W59710  29.911   8.760   0.078
87286W        W59711  28.914  21.671  14.545
87287W        W59712  12.367   4.671  11.076
87288W        W59713  10.815  33.610  13.444
87289W        W59714  34.394   4.659   1.825
87290W        W59715   0.990  15.835   3.199
87291W        W59716  19.458   6.110  11.222
87292W        W59717  18.560  31.159   2.174
87293W        W59718  18.655  42.401   2.246
87294W        W59719  15.119  30.112   2.702
87295W        W59720  44.874  19.457   1.159
87296W        W59721  43.311  22.451   2.156
87297W        W59722  21.517  21.632  10.943
87298W        W59723  21.797  17.324   4.077
87299W        W59724  19.091  21.622   2.712
87300W        W59725   1.236   1.234   2.735
87301W        W59726  28.132  36.469   1.685
87302W        W59727  22.749   5.984   4.192
87303W        W59728  22.493  42.630  13.471
87304W        W59729  13.200  27.874  14.848
87305W        W59730  21.106  35.041   0.871
87306W        W59731  44.413  16.161  13.973
87307W        W59732  24.284  38.369   1.899
87308W        W59733  21.845  21.996  11.709
87309W        W59734  39.243  12.783  13.093
87310W        W59735   5.941  12.063   2.734
87311W        W59736  11.667  13.451  13.811
87312W        W59737  29.915   5.362   0.547
87313W        W59738   5.413   6.564  14.352
87314W        W59739  41.499   2.886   3.271
87315W        W59740  33.752   3.206  10.718
87316W        W59741  37.130  35.134   0.081
87317W        W59742  24.079  10.376  14.747
87318W        W59743   2.307  15.634   4.632
87319W        W59744  44.387  26.370   4.070
87320W        W59745  29.261  35.843   3.318
87321W        W59746  35.860   1.401   4.285
87322W        W59747  17.789  40.243   2.272
87323W        W59748  34.827  19.282  10.703
87324W        W59749  42.967  19.546  14.867
87325W        W59750   0.467  36.571   2.388
87326W        W59751   2.507   5.489  12.102
87327W        W59752   9.206   8.435  12.613
87328W        W59753  37.990  33.983  13.535
87329W        W59754  25.708   2.930   3.605
87330W        W59755   8.424  27.440   2.837
87331W        W59756   1.832  28.361   1.291
87332W        W59757  30.587  36.319  11.183
87333W        W59758  36.014  42.627  12.483
87334W        W59759  27.729  16.879  14.405
87335W        W59760  30.447  31.096  13.816
87336W        W59761  21.711   1.346   1.215
87337W        W59762  13.758   0.454  13.546
87338W        W59763  11.838  25.991   0.541
87339W        W59764  20.628   9.818  14.518
87340W        W59765  16.979  28.125   3.148
87341W        W59766  20.659  11.268   2.841
87342W        W59767  34.622   3.892  11.569
87343W        W59768  22.570  37.422   2.103
87344W        W59769  10.440  42.229   2.655
87345W        W59770  37.808  17.339   3.503
87346W        W59771  25.891  21.445   0.053
87347W        W59772  43.967  35.155   3.802
87348W        W59773  39.046   6.213   1.481
87349W        W59774  37.064  14.526  12.940
87350W        W59775   6.817  21.416  13.915
87351W        W59776  27.744  26.397  10.681
87352W        W59777  22.476  20.967  14.903
87353W        W59778  43.996  14.199   1.147
87354W        W59779  28.445  12.566  11.074
87355W        W59780  11.436   9.927   4.672
87356W        W59781  18.668  42.375   3.668
87357W        W59782  35.824  41.338   3.639
87358W        W59783  31.806  42.934  14.313
87359W        W59784  41.253   4.775  11.087
87360W        W59785  29.355  28.054   2.642
87361W        W59786  28.396  25.015   0.879
87362W        W59787  21.015  15.737   2.396
87363W        W59788  22.145  34.135  13.293
87364W        W59789  33.713  14.090   2.713
87365W        W59790  14.236  25.529  11.978
87366W        W59791  22.750  21.051   0.335
87367W        W59792   9.704   0.464  10.689
87368W        W59793  30.650  21.620  10.273
87369W        W59794  19.197  44.251   1.195
87370W        W59795  34.937  28.023   5.140
87371W        W59796  43.473  43.194  11.498
87372W        W59797  13.775  10.734   4.265
87373W        W59798  27.415  10.385   4.118
87374W        W59799  18.834  19.732  11.670
87375W        W59800  31.610  20.848  12.169
87376W        W59801  42.840  10.182   0.688
87377W        W59802  20.507  27.484   2.153
87378W        W59803   9.809   3.187  11.690
87379W        W59804  13.533  22.883  13.649
87380W        W59805  13.497  27.341   2.000
87381W        W59806  17.993   4.994   4.670
87382W        W59807   3.374   3.005  14.406
87383W        W59808  22.256  22.023  11.416
87384W        W59809  26.912  30.931  14.938
87385W        W59810  37.986  44.764   2.840
87386W        W59811  38.878  25.563   4.351
87387W        W59812  23.618  17.510   1.498
87388W        W59813  23.044  39.446  12.976
87389W        W59814   0.392  34.470  11.629
87390W        W59815  18.575  36.458  14.984
87391W        W59816  31.066  32.854   0.137
87392W        W59817  27.233  27.485   4.140
87393W        W59818   4.288   7.767   1.062
87394W        W59819  26.479  23.031  10.990
87395W        W59820  17.849   5.425   2.791
87396W        W59821   9.912  31.385   0.360
87397W        W59822   3.789  38.908  12.408
87398W        W59823   7.105  10.987  11.619
87399W        W59824  11.883   6.159  10.355
87400W        W59825  21.293  43.203  14.807
87401W        W59826  43.977   8.885  13.855
87402W        W59827  36.316   1.854   3.811
87403W        W59828  31.017  44.783  11.837
87404W        W59829  37.944  21.308  10.974
87405W        W59830  31.917   9.510  13.745
87406W        W59831  22.977  39.614   3.790
87407W        W59832  20.800  21.452  13.498
87408W        W59833  21.732   2.948   0.387
87409W        W59834  25.513  21.728  12.944
87410W        W59835  24.644  42.743  11.025
87411W        W59836   4.728   5.953  11.195
87412W        W59837  33.207  22.746   5.024
87413W        W59838  21.607  43.979   5.013
87414W        W59839  22.438  23.660  14.377
87415W        W59840   7.228  27.925  14.933
87416W        W59841  34.491   5.162   3.891
87417W        W59842  32.383  32.932   1.387
87418W        W59843  19.349  35.034   0.290
87419W        W59844  23.570   3.594   3.727
87420W        W59845  44.015  38.438  11.634
87421W        W59846  25.504   1.597  13.694
87422W        W59847   2.442  32.812   4.354
87423W        W59848  31.360  36.942  14.535
87424W        W59849  13.979  13.565   0.760
87425W        W59850   6.236  11.048   1.020
87426W        W59851  34.813  42.418   1.353
87427W        W59852  22.339  37.694  10.679
87428W        W59853  13.808  19.266   1.023
87429W        W59854   8.377  42.177  13.518
87430W        W59855  27.506  30.166   4.617
87431W        W59856  10.393  36.572   1.703
87432W        W59857  36.771  42.482   3.737
87433W        W59858   3.015  21.140   4.194
87434W        W59859   0.069  42.451  11.461
87435W        W59860  22.742  25.597  11.117
87436W        W59861  38.960  20.984   2.258
87437W        W59862  25.232  41.312   4.277
87438W        W59863   2.799   1.974  10.420
87439W        W59864   1.650  12.929  12.151
87440W        W59865  13.193  34.523   3.011
87441W        W59866  27.278  30.130   2.546
87442W        W59867   6.850   3.261  11.147
87443W        W59868  14.242   0.192   0.277
87444W        W59869  38.283  22.649   1.300
87445W        W59870   1.886  38.273  13.810
87446W        W59871  13.702  28.187   4.138
87447W        W59872  27.592  30.440  10.588
87448W        W59873   4.015   4.844  14.372
87449W        W59874   8.701  22.131  12.376
87450W        W59875  30.407  37.848   3.294
87451W        W59876   3.320   0.424   3.897
87452W        W59877  15.586   1.439   4.861
87453W        W59878  37.320  32.626  10.647
87454W        W59879  22.843   0.954  14.930
87455W        W59880  22.582  18.167   2.205
87456W        W59881  29.185  30.440   3.750
87457W        W59882  23.962  34.552  14.800
87458W        W59883  43.171  15.119  10.702
87459W        W59884  10.056  30.588   2.280
87460W        W59885  36.837  34.134   2.295
87461W        W59886   7.241  43.879   4.182
87462W        W59887  31.816  19.513  13.492
87463W        W59888  17.595  29.911  13.456
87464W        W59889   5.501   6.793   1.546
87465W        W59890  25.038  24.964  13.504
87466W        W59891  30.492  13.513  14.022
87467W        W59892   7.730  13.277  11.971
87468W        W59893   2.814  29.908   3.168
87469W        W59894  13.821   2.557  11.580
87470W        W59895  28.065  41.584  11.641
87471W        W59896  10.799  26.578  13.361
87472W        W59897   3.719  15.666   1.291
87473W        W59898   1.675   9.118   2.992
87474W        W59899  29.483  44.182   1.243
87475W        W59900  10.408  36.116   4.850
87476W        W59901  13.852  16.240  12.207
87477W        W59902  15.763   6.719   1.703
87478W        W59903  15.432  29.666  11.967
87479W        W59904  35.165  16.947   4.510
87480W        W59905  14.665  36.183  11.568
87481W        W59906   3.123  29.391   5.182
87482W        W59907   8.750   7.872  10.951
87483W        W59908  15.265  40.862   4.882
87484W        W59909  14.249   2.466  13.533
87485W        W59910  15.237  24.013   2.741
87486W        W59911  23.127  42.464   3.687
87487W        W59912   3.865  34.205   4.246
87488W        W59913   5.190  25.012   0.814
87489W        W59914  19.456   6.881  14.373
87490W        W59915  21.822   4.158   3.127
87491W        W59916   4.557  43.961  11.200
87492W        W59917  20.559  27.851  11.055
87493W        W59918  11.582  42.832   4.648
87494W        W59919  27.278  39.285   3.320
87495W        W59920  44.945  44.760   1.753
87496W        W59921  10.623  40.484   1.622
87497W        W59922  41.723  18.215  14.831
87498W        W59923  23.236  26.999   1.314
87499W        W59924  24.094   9.892   5.204
87500W        W59925  43.945  34.888   4.631
87501W        W59926  24.453   5.228   4.082
87502W        W59927   0.645  25.593   1.858
87503W        W59928   1.426   5.357  11.492
87504W        W59929  24.003  14.242   0.409
87505W        W59930  24.444  25.496   4.661
87506W        W59931  10.372  18.035   0.192
87507W        W59932  27.421  30.352   0.742
87508W        W59933  22.191   6.296   1.762
87509W        W59934  18.597   2.704  14.075
87510W        W59935  36.868  12.606   4.523
87511W        W59936  28.438   0.426   0.407
87512W        W59937   7.971  22.506  11.579
87513W        W59938  31.287  13.853  13.770
87514W        W59939  42.960  17.858  10.662
87515W        W59940   5.476  18.123   4.484
87516W        W59941  30.471  37.799  13.799
87517W        W59942  27.034   8.727   1.862
87518W        W59943  16.523  38.664   1.689
87519W        W59944  44.055  10.836  14.796
87520W        W59945  29.859   1.624   2.619
87521W        W59946  32.590  16.569  12.565
87522W        W59947  38.271  10.329   3.698
87523W        W59948  15.753  14.024   4.871
87524W        W59949   4.910  10.135   2.750
87525W        W59950  43.524  10.842  13.369
87526W        W59951  37.136  19.231  10.983
87527W        W59952  14.725  28.024   1.737
87528W        W59953  25.575  35.452  14.816
87529W        W59954  38.578  17.582  11.714
87530W        W59955  15.063  43.086   0.327
87531W        W59956  15.117  20.361   4.344
87532W        W59957  28.103  32.043   3.670
87533W        W59958  25.772  28.296  14.590
87534W        W59959  41.640  20.973   5.011
87535W        W59960   3.960   0.353  12.050
87536W        W59961  11.706  26.641   1.361
87537W        W59962  31.934  23.218  14.486
87538W        W59963  32.753  24.651   3.184
87539W        W59964   3.286  25.581  10.764
87540W        W59965  39.025  24.744   0.756
87541W        W59966  20.002  11.904  14.310
87542W        W59967  29.547   3.869   4.348
87543W        W59968  23.046  21.119  14.009
87544W        W59969  28.196  40.594   5.160
87545W        W59970  40.273   3.262   3.649
87546W        W59971  23.107  44.327   3.867
87547W        W59972  19.109   0.448   4.200
87548W        W59973  24.407  42.810  10.189
87549W        W59974  35.235  30.699  12.827
87550W        W59975  18.995  36.920   0.480
87551W        W59976  19.296  41.922   5.088
87552W        W59977   3.343   4.785  10.274
87553W        W59978   4.318  43.530  10.905
87554W        W59979   4.749  10.105  13.087
87555W        W59980  19.710  20.553   2.284
87556W        W59981  12.793   3.805  10.638
87557W        W59982  43.854  22.155  11.574
87558W        W59983  17.063   8.665  12.253
87559W        W59984  27.464  11.269  10.680
87560W        W59985  34.767  28.923   2.365
87561W        W59986  36.457  20.157   0.140
87562W        W59987   9.316  35.854  11.147
87563W        W59988  41.976   5.398  12.504
87564W        W59989  26.590   1.895  12.722
87565W        W59990   6.466  23.144   0.740
87566W        W59991  39.778   3.334  12.969
87567W        W59992  40.014  36.940   4.470
87568W        W59993  37.022   2.739  13.360
87569W        W59994   5.462  32.035  13.125
87570W        W59995   6.699  43.035  10.781
87571W        W59996  19.900  26.460  10.635
87572W        W59997   1.034  36.353   3.272
87573W        W59998  14.598  13.307   1.961
87574W        W59999   8.344  37.388  14.527
87575W        W60000  10.785  18.609  12.524
87576W        W60001   1.742   9.896   4.828
87577W        W60002  34.440  14.203  11.671
87578W        W60003  21.679  34.090  13.046
87579W        W60004  26.762  12.665  11.023
87580W        W60005   5.407  31.933  10.197
87581W        W60006  39.153  18.018   0.749
87582W        W60007  15.969  12.065  11.794
87583W        W60008   2.751  34.509   1.552
87584W        W60009  11.609  14.590   4.202
87585W        W60010  10.765  18.106   4.681
87586W        W60011  29.121  17.507  11.605
87587W        W60012  15.304  29.503  14.703
87588W        W60013  22.546  15.125   1.343
87589W        W60014   9.329   1.454   4.447
87590W        W60015  31.655  23.240   4.648
87591W        W60016   1.809   3.428  14.365
87592W        W60017  43.132   9.379   0.133
87593W        W60018  27.141  12.333   3.559
87594W        W60019  17.635   1.705  13.169
87595W        W60020  11.141  39.947   2.194
87596W        W60021   2.372  25.222   2.186
87597W        W60022   0.934  19.195   2.635
87598W        W60023  30.666  10.083  14.417
87599W        W60024  27.517  30.879   2.230
87600W        W60025  12.403  12.083   0.767
87601W        W60026  19.025  40.737  11.093
87602W        W60027  14.526  19.251  11.163
87603W        W60028  41.562  12.320   3.176
87604W        W60029  37.044  34.345  14.526
87605W        W60030   1.770  44.486  14.978
87606W        W60031  15.292  28.119  14.971
87607W        W60032  31.857  34.301  13.926
87608W        W60033  40.389  39.415   0.464
87609W        W60034   4.271  17.620  13.451
87610W        W60035  14.188  19.635   3.735
87611W        W60036  16.543  17.199   3.238
87612W        W60037  11.682  17.042  11.762
87613W        W60038  32.030  14.173  13.553
87614W        W60039   9.151  22.287  11.085
87615W        W60040  41.717  35.761   0.303
87616W        W60041  12.062  42.889  13.076
87617W        W60042  31.755  43.789  14.424
87618W        W60043   6.455  25.554   3.906
87619W        W60044  27.045  32.049  11.014
87620W        W60045  29.217  18.580   3.023
87621W        W60046  24.480   9.989   4.618
87622W        W60047  41.560  29.953  11.173
87623W        W60048  25.184   0.004   4.571
87624W        W60049  18.807   0.310  14.526
87625W        W60050  12.230   4.860   3.731
87626W        W60051   2.907  35.336  11.884
87627W        W60052   3.143  10.771   2.653
87628W        W60053  20.230  20.972  11.147
87629W        W60054  24.051  32.050   0.942
87630W        W60055  23.271  40.148   4.137
87631W        W60056  36.321  36.487   4.123
87632W        W60057  23.518  31.060   2.906
87633W        W60058  25.769  14.053  14.044
87634W        W60059  26.362  37.309   2.800
87635W        W60060   7.780   4.670   1.720
87636W        W60061   3.700   1.679  12.054
87637W        W60062  35.880  16.841  12.107
87638W        W60063  28.478  12.920   0.683
87639W        W60064  20.091  18.275  11.982
87640W        W60065  37.307  33.986  12.359
87641W        W60066  36.893   7.763   0.531
87642W        W60067   8.974  27.869  14.768
87643W        W60068  13.456  22.652   3.171
87644W        W60069  35.376  36.437   0.018
87645W        W60070  33.391  17.755   2.763
87646W        W60071  15.592  37.048  10.444
87647W        W60072  20.810  33.527   3.187
87648W        W60073  27.193  43.745   3.300
87649W        W60074  28.676  15.733   4.074
87650W        W60075  35.764  24.124   3.175
87651W        W60076  40.045  18.594   4.177
87652W        W60077   6.863  23.528  12.935
87653W        W60078   2.031  39.588   3.614
87654W        W60079   0.437  36.295  11.522
87655W        W60080  28.644  39.091  11.204
87656W        W60081  10.252  44.334   2.782
87657W        W60082  16.299   9.622   2.113
87658W        W60083  42.722  19.680  13.027
87659W        W60084  44.323  35.646   2.601
87660W        W60085  29.648  41.896  12.157
87661W        W60086  22.214   1.293   1.278
87662W        W60087  36.471  35.827  14.689
87663W        W60088  43.369   6.474  10.686
87664W        W60089  39.998  25.715  11.584
87665W        W60090  40.013  32.431   2.408
87666W        W60091  10.252  15.700   4.160
87667W        W60092  35.095  24.067  12.417
87668W        W60093  10.816   2.258  10.942
87669W        W60094  35.529  37.410   2.597
87670W        W60095  28.618  38.887   2.376
87671W        W60096  10.324  13.281  14.300
87672W        W60097  22.016  41.531   0.701
87673W        W60098  40.508  33.921  11.442
87674W        W60099  29.415  33.556  13.890
87675W        W60100  22.317   7.087  10.562
87676W        W60101   9.139  25.237  11.206
87677W        W60102  28.642   4.325   0.355
87678W        W60103  24.882  29.143  11.030
87679W        W60104  17.779  26.173  11.014
87680W        W60105  25.693  32.838   2.372
87681W        W60106  26.926  18.174  11.796
87682W        W60107  34.549  22.476  11.893
87683W        W60108  42.784  36.035  11.133
87684W        W60109  41.910  20.478   3.747
87685W        W60110   5.141   3.683  10.639
87686W        W60111  27.944  13.357  10.654
87687W        W60112   9.278  11.128  10.956
87688W        W60113  13.894  15.887  13.542
87689W        W60114   9.143  30.424   2.314
87690W        W60115  31.487   6.470  13.534
87691W        W60116  44.309  18.248  14.039
87692W        W60117  21.738  14.552  12.307
87693W        W60118  16.099  27.237  11.114
87694W        W60119  20.601   9.271  12.368
87695W        W60120   1.085  12.181  12.427
87696W        W60121   0.664  10.353   4.547
87697W        W60122  11.106  34.330  14.850
87698W        W60123  38.558   2.428   2.727
87699W        W60124  35.795  42.038   2.243
87700W        W60125  33.985   2.639   3.144
87701W        W60126   4.719  27.202  12.903
87702W        W60127  25.725  29.606  11.082
87703W        W60128  34.880  31.188  11.634
87704W        W60129  28.560  28.450   4.162
87705W        W60130   1.485  21.674   4.697
87706W        W60131  14.003   0.997   3.209
87707W        W60132  31.071  34.501  12.861
87708W        W60133  37.126  24.633   3.553
87709W        W60134  16.511  39.053  13.980
87710W        W60135  42.295   8.853  11.594
87711W        W60136  17.186  21.656   1.933
87712W        W60137  19.015  36.899  12.407
87713W        W60138  41.389  27.572   0.241
87714W        W60139   0.250  42.700  12.833
87715W        W60140  18.805  39.053  12.492
87716W        W60141  38.891   3.886   1.346
87717W        W60142  22.615  23.474  13.532
87718W        W60143  37.120  18.251   1.873
87719W        W60144  25.137  29.145  14.305
87720W        W60145  30.953  38.065   1.180
87721W        W60146  30.536  32.072   1.863
87722W        W60147  33.095  14.089  10.992
87723W        W60148  38.763  32.489   2.788
87724W        W60149   8.378  34.904   0.730
87725W        W60150  30.130  28.181   0.749
87726W        W60151  25.561  19.450   2.115
87727W        W60152  44.761  34.040  10.114
87728W        W60153   2.826  44.285   3.823
87729W        W60154  40.391  20.505   2.459
87730W        W60155   3.730  14.153   4.245
87731W        W60156  28.527  22.321   2.823
87732W        W60157  26.979  33.965   4.373
87733W        W60158   4.858  13.967   4.999
87734W        W60159  35.541   7.423   2.372
87735W        W60160  16.468  23.205   0.464
87736W        W60161  38.994  12.639   1.261
87737W        W60162  20.280   6.413   2.182
87738W        W60163  43.571  16.317   1.996
87739W        W60164  26.685  35.938  10.693
87740W        W60165   8.508  15.725  13.476
87741W        W60166  30.210   5.148   3.741
87742W        W60167   1.461  18.088   1.822
87743W        W60168  13.106   4.765   0.972
87744W        W60169  19.759  18.151  12.394
87745W        W60170   5.842  33.875  12.619
87746W        W60171  39.506  44.831  13.972
87747W        W60172  30.278  40.992  13.111
87748W        W60173  43.793  29.691   2.849
87749W        W60174  15.575   4.344   1.415
87750W        W60175   6.509  20.027   2.507
87751W        W60176  15.508  38.332   3.760
87752W        W60177  20.172  42.940  14.149
87753W        W60178  16.212   9.979  13.395
87754W        W60179  41.701   2.389   4.877
87755W        W60180  24.214  25.531  12.013
87756W        W60181   1.877  40.735  10.750
87757W        W60182  18.520  15.859  10.812
87758W        W60183   4.335   2.148  11.481
87759W        W60184  21.381  23.190  11.165
87760W        W60185  20.037   3.980   1.196
87761W        W60186  33.456  13.917  14.787
87762W        W60187  10.372  36.885  12.081
87763W        W60188  42.531   2.710  13.480
87764W        W60189   2.808   2.668  13.027
87765W        W60190  24.833  39.861   1.856
87766W        W60191  24.635   8.212   3.311
87767W        W60192  21.852  33.118   4.534
87768W        W60193  34.334  44.905  12.788
87769W        W60194  39.978   9.613   3.200
87770W        W60195  10.264  32.109  12.053
87771W        W60196   2.199  31.127  13.467
87772W        W60197  12.697  20.018  12.960
87773W        W60198   8.404  15.880  13.984
87774W        W60199   9.877  22.549  11.438
87775W        W60200  15.276  43.865   4.374
87776W        W60201  22.697   1.448   1.308
87777W        W60202  14.911   1.822   4.344
87778W        W60203   4.569  39.331  10.710
87779W        W60204  27.888  28.218   2.758
87780W        W60205  39.802  26.446  11.093
87781W        W60206  34.052  40.088   4.939
87782W        W60207  44.558  12.699   3.109
87783W        W60208  32.557  21.645   4.081
87784W        W60209   0.377   1.665   3.519
87785W        W60210   9.284  13.190   0.933
87786W        W60211  12.223   1.981   2.775
87787W        W60212   9.542   3.321  14.598
87788W        W60213  43.299  24.570   0.769
87789W        W60214  25.239  35.855   4.614
87790W        W60215  29.378  35.167   3.782
87791W        W60216  36.970   4.458  11.820
87792W        W60217  30.142   2.172   1.370
87793W        W60218  16.156  13.337   1.303
87794W        W60219  31.764  35.865  12.709
87795W        W60220  34.898   3.402  14.435
87796W        W60221  30.695  32.393   4.953
87797W        W60222  24.555  21.214  14.067
87798W        W60223   3.340   4.303   1.022
87799W        W60224  31.563  44.411   1.304
87800W        W60225  10.194  10.778  11.624
87801W        W60226   5.084  27.997  12.385
87802W        W60227  22.729  33.252   2.252
87803W        W60228  27.102   6.950   3.157
87804W        W60229  43.440   3.873   1.483
87805W        W60230  33.598  40.326   4.372
87806W        W60231   9.911  32.677   2.127
87807W        W60232  22.486  19.144   2.158
87808W        W60233  14.723  31.827   4.129
87809W        W60234   3.090  17.788   1.760
87810W        W60235   8.165  31.072  10.922
87811W        W60236  18.026  25.493   4.065
87812W        W60237  36.728  30.017   4.588
87813W        W60238   2.411  41.091   2.018
87814W        W60239  14.220  18.057   0.369
87815W        W60240   1.043  19.034   1.309
87816W        W60241  11.653   0.407   0.896
87817W        W60242  22.046  11.124  11.968
87818W        W60243  40.650  24.497   1.398
87819W        W60244  10.852   5.806   4.515
87820W        W60245  34.887  42.754  10.415
87821W        W60246   1.031   6.108   5.045
87822W        W60247  36.404   9.213   0.827
87823W        W60248  29.030  36.136   1.267
87824W        W60249  22.181  13.719   4.164
87825W        W60250  18.355  33.637  14.429
87826W        W60251  37.873  14.098  10.654
87827W        W60252  13.517   3.818  11.279
87828W        W60253  34.973  28.736   4.394
87829W        W60254   9.118  31.875  12.973
87830W        W60255   3.708  15.764   4.594
87831W        W60256  32.825  26.263  10.946
87832W        W60257  21.534  30.355   2.797
87833W        W60258  37.702   9.212   1.466
87834W        W60259  23.121  15.405  10.507
87835W        W60260  30.109   9.808  10.769
87836W        W60261  26.420  31.998  14.941
87837W        W60262   3.414  28.047  14.402
87838W        W60263  24.066  31.564   3.999
87839W        W60264  41.333   9.673   2.885
87840W        W60265   7.962  19.548  12.650
87841W        W60266  34.069  32.092  12.909
87842W        W60267  40.870  22.679  10.387
87843W        W60268  31.435  16.008   0.866
87844W        W60269   0.380  33.056  10.632
87845W        W60270  38.418  42.885   2.683
87846W        W60271  27.173  28.844   3.665
87847W        W60272   1.699  30.765   4.318
87848W        W60273   6.189  14.803   3.195
87849W        W60274  14.328  22.154  11.093
87850W        W60275  18.096  35.417   2.338
87851W        W60276  24.351  25.728  12.493
87852W        W60277  28.614   8.674   1.731
87853W        W60278  36.438  27.301   0.380
87854W        W60279  13.997  38.337   1.744
87855W        W60280  37.085  32.719   3.644
87856W        W60281  24.902   6.204  13.965
87857W        W60282  29.367  38.839  13.437
87858W        W60283  15.387  30.606   3.721
87859W        W60284   8.422  29.678  13.448
87860W        W60285  22.534   9.135   0.250
87861W        W60286  12.236  41.374  14.531
87862W        W60287  36.594  35.990   3.927
87863W        W60288  35.035  37.532   1.836
87864W        W60289   7.039  43.827   3.132
87865W        W60290  37.787  34.703   3.544
87866W        W60291  35.296  36.509  13.091
87867W        W60292  15.232  17.768   4.063
87868W        W60293  11.779  26.421   5.068
87869W        W60294  16.588  40.843  14.216
87870W        W60295  16.686  38.409  14.231
87871W        W60296   5.798  18.340   2.097
87872W        W60297  32.414   4.097  11.107
87873W        W60298  42.794  19.234   1.906
87874W        W60299  29.583  25.053  13.959
87875W        W60300  15.655  32.308  14.488
87876W        W60301   9.859   9.374   1.328
87877W        W60302  22.895  37.025   4.182
87878W        W60303  33.435   4.780   2.028
87879W        W60304  12.952  33.215   0.785
87880W        W60305  17.723  18.260  13.752
87881W        W60306  26.325  41.801  11.534
87882W        W60307  21.240  32.082  14.526
87883W        W60308  11.965  11.806  12.030
87884W        W60309  21.076   3.739   0.389
87885W        W60310  25.249  29.660  10.177
87886W        W60311  19.049  17.582  12.189
87887W        W60312  33.198  27.513  10.370
87888W        W60313  14.649  19.505  14.424
87889W        W60314  24.716  25.821  13.439
87890W        W60315  44.047  29.522  11.124
87891W        W60316  29.675   9.781   1.573
87892W        W60317  30.513  44.402  12.855
87893W        W60318   6.643  22.301  12.076
87894W        W60319  25.514  19.401   3.746
87895W        W60320  22.581  35.478  10.505
87896W        W60321  19.176   5.127   0.344
87897W        W60322  28.015  32.321   3.233
87898W        W60323  32.604   0.964   3.684
87899W        W60324   4.962   8.665   4.104
87900W        W60325  15.412  42.727   0.178
87901W        W60326   7.762  40.960   0.172
87902W        W60327  31.917  13.870   1.842
87903W        W60328   9.391   8.237  13.525
87904W        W60329  12.432  44.085   4.173
87905W        W60330  13.883   6.581  11.042
87906W        W60331  35.063  34.060   1.023
87907W        W60332  42.616  32.532   5.005
87908W        W60333  44.006   5.754   0.750
87909W        W60334  25.796  42.650  12.976
87910W        W60335  40.897  33.855  13.235
87911W        W60336   1.878  38.893  10.624
87912W        W60337  34.988   5.477  10.633
87913W        W60338  25.580  11.844  11.055
87914W        W60339  13.556  44.940  13.904
87915W        W60340  32.674  15.079  14.458
87916W        W60341  13.081   8.764   0.489
87917W        W60342  10.388   5.726  13.457
87918W        W60343   2.774   9.383   1.929
87919W        W60344  28.036  24.979  11.962
87920W        W60345   9.925  31.125   2.226
87921W        W60346  31.134  40.986  13.393
87922W        W60347   6.994  41.778  12.037
87923W        W60348  19.491  39.395  14.935
87924W        W60349  26.047  16.674  10.407
87925W        W60350  34.754  22.201  12.533
87926W        W60351  41.801  10.432  11.607
87927W        W60352  43.759   1.426  13.145
87928W        W60353  39.885  30.718  12.068
87929W        W60354   3.401  24.169  12.487
87930W        W60355   0.440  29.203  13.826
87931W        W60356  25.709  39.104  11.844
87932W        W60357  28.151   9.300   0.449
87933W        W60358  39.892  35.346   2.087
87934W        W60359  27.734  44.379   3.517
87935W        W60360  40.505  32.636   1.290
87936W        W60361  25.074  43.414   2.267
87937W        W60362  31.865  11.796  12.399
87938W        W60363  33.584  14.789   3.153
87939W        W60364  19.015  14.180   3.463
87940W        W60365  24.552  16.055   2.288
87941W        W60366   2.303  29.108   0.401
87942W        W60367  33.896  26.513  13.748
87943W        W60368  35.564  19.000   2.817
87944W        W60369  11.200   8.837   4.188
87945W        W60370  31.155  26.583   0.023
87946W        W60371  18.756  16.152  12.403
87947W        W60372  13.550  12.841  10.758
87948W        W60373   3.703  23.314  10.948
87949W        W60374  38.959  24.716  14.278
87950W        W60375  21.336  23.666   4.197
87951W        W60376  35.506  22.528   2.347
87952W        W60377  30.609  26.740   2.758
87953W        W60378  37.017  42.273  10.694
87954W        W60379  10.258  15.335   1.239
87955W        W60380  28.950  26.580  12.763
87956W        W60381  16.348  30.480   4.888
87957W        W60382  43.022  17.184  13.014
87958W        W60383   7.737  22.096  12.613
87959W        W60384  32.957  15.091   1.142
87960W        W60385   4.718  17.212   3.346
87961W        W60386  29.995  10.869   1.616
87962W        W60387   7.811  31.274   0.256
87963W        W60388  27.831  31.425  10.148
87964W        W60389  11.196  32.583  10.676
87965W        W60390   3.744  25.648  10.967
87966W        W60391  18.408  24.626   3.157
87967W        W60392  23.554  40.504  12.629
87968W        W60393  34.854  41.320   3.581
87969W        W60394  44.358   8.726   1.254
87970W        W60395  25.253  17.707  14.956
87971W        W60396  41.518  28.021   4.901
87972W        W60397  11.861   3.002   2.738
87973W        W60398  11.385   5.497   3.319
87974W        W60399  41.942  31.125   2.161
87975W        W60400   8.193   9.208   2.218
87976W        W60401  39.286  18.665   2.313
87977W        W60402  39.300  26.525   1.358
87978W        W60403  17.567  13.675  10.954
87979W        W60404  37.797  44.022  13.021
87980W        W60405  19.074  37.544  12.835
87981W        W60406  24.373  31.982  13.958
87982W        W60407  33.581  17.688  12.529
87983W        W60408  11.286  34.612   0.293
87984W        W60409  24.347  28.592  11.755
87985W        W60410   3.333  32.661   4.507
87986W        W60411  29.772   7.780  14.292
87987W        W60412  31.898   6.191  13.384
87988W        W60413  40.226  32.470  11.102
87989W        W60414  41.409  26.693   0.806
87990W        W60415   9.459  23.553   2.678
87991W        W60416  19.765  44.382  11.204
87992W        W60417  31.053   8.658  12.471
87993W        W60418  25.985   5.855  14.316
87994W        W60419   5.068  20.374   4.214
87995W        W60420  23.887   2.308  11.605
87996W        W60421  27.884   2.846  11.237
87997W        W60422   5.027  10.384   2.304
87998W        W60423  38.018  21.668  10.558
87999W        W60424  24.630   2.016  13.594
88000W        W60425  38.014   7.709  12.687
88001W        W60426  33.248  43.947  11.496
88002W        W60427  23.080  16.536   4.245
88003W        W60428  27.474  10.137  14.763
88004W        W60429  39.481   6.613  13.233
88005W        W60430  13.370  24.203  12.384
88006W        W60431   1.848  14.685   0.903
88007W        W60432  32.108  26.480  12.516
88008W        W60433  44.274  38.463  13.956
88009W        W60434   8.671   8.778  14.392
88010W        W60435  27.539   2.957   0.422
88011W        W60436   4.446   7.919   4.792
88012W        W60437   0.796  13.255  13.517
88013W        W60438  34.488  36.271   3.215
88014W        W60439  37.724  23.614   2.826
88015W        W60440  43.364  23.742   1.248
88016W        W60441  34.123   4.968  10.558
88017W        W60442  16.772  17.642  13.571
88018W        W60443  22.153   5.752  11.554
88019W        W60444   0.301  35.994  12.218
88020W        W60445   1.883  27.032  12.547
88021W        W60446  21.123  20.928  10.334
88022W        W60447  19.027  38.098   0.451
88023W        W60448   2.922  10.891  12.010
88024W        W60449   9.756  16.357   1.733
88025W        W60450  20.951  28.377   4.445
88026W        W60451   5.723  13.760   2.251
88027W        W60452  44.489  34.440   3.750
88028W        W60453  40.836   6.478  12.568
88029W        W60454  44.202  15.698  13.824
88030W        W60455  14.802  43.334  12.042
88031W        W60456  35.890  29.489   4.258
88032W        W60457   6.595  29.991  13.443
88033W        W60458  42.813  14.732   3.418
88034W        W60459  13.281  35.717  12.336
88035W        W60460   0.623  29.987  13.429
88036W        W60461   3.899  29.896  11.082
88037W        W60462   5.884  24.745  11.513
88038W        W60463  37.152  13.471  10.739
88039W        W60464  19.372   1.817   4.804
88040W        W60465   8.623  38.418   2.120
88041W        W60466  41.359  29.151  14.218
88042W        W60467  39.309  30.102  14.962
88043W        W60468  28.312  25.624  12.438
88044W        W60469   6.040   3.722  12.543
88045W        W60470  35.746  19.567  13.453
88046W        W60471   3.613  41.388  14.490
88047W        W60472  39.933  12.273  10.457
88048W        W60473  25.723  37.280  11.173
88049W        W60474  31.356   6.186  12.487
88050W        W60475  40.874  35.614   4.124
88051W        W60476  39.254  23.722  12.406
88052W        W60477  19.526   9.803   2.754
88053W        W60478  27.977  38.806  13.804
88054W        W60479  15.475  32.907   1.743
88055W        W60480  30.553   2.743  13.457
88056W        W60481  42.960  41.943  13.064
88057W        W60482  39.808  31.568  14.017
88058W        W60483  10.532  33.421  14.930
88059W        W60484  23.745  17.778   3.306
88060W        W60485  32.851  37.905   1.239
88061W        W60486  25.615  31.977  10.652
88062W        W60487  17.133   0.772  10.951
88063W        W60488   8.312  27.920  11.748
88064W        W60489  44.747  27.625  12.373
88065W        W60490  43.498   4.430   4.223
88066W        W60491   2.613  27.709   0.239
88067W        W60492  23.655  39.775  10.758
88068W        W60493  17.722  32.605   2.966
88069W        W60494  37.080  44.250  10.697
88070W        W60495  18.303  33.414  11.056
88071W        W60496  14.891  37.354   4.423
88072W        W60497   4.715   1.040   3.112
88073W        W60498  33.830  33.632  13.259
88074W        W60499   1.054  17.658   1.310
88075W        W60500   6.693  11.421   2.833
88076W        W60501  44.017   4.335   2.274
88077W        W60502  23.189  16.338  14.740
88078W        W60503   2.753  30.509  13.767
88079W        W60504  42.467   5.754  13.584
88080W        W60505  26.471  11.766   4.061
88081W        W60506  44.303   5.683  13.155
88082W        W60507   5.169  14.421   1.844
88083W        W60508  21.044  30.087   0.466
88084W        W60509  14.476  31.189   2.408
88085W        W60510  27.273   6.233  12.601
88086W        W60511  29.611  34.858   0.974
88087W        W60512  39.259   4.624   4.029
88088W        W60513  15.738  40.894  11.045
88089W        W60514  29.092  22.158   0.912
88090W        W60515  18.253   6.369  13.132
88091W        W60516   8.439   0.296   4.526
88092W        W60517  17.550  34.098   2.356
88093W        W60518   7.282  34.191  12.384
88094W        W60519  19.999  33.065  13.113
88095W        W60520   7.965  38.899  14.457
88096W        W60521  16.083  31.995   2.717
88097W        W60522   3.879  18.295  12.107
88098W        W60523  10.686  27.075  13.306
88099W        W60524  34.512  11.695  10.731
88100W        W60525  32.315  16.401   1.386
88101W        W60526  26.661   3.336   0.828
88102W        W60527   2.317   7.254   2.787
88103W        W60528  28.955  32.532  11.984
88104W        W60529  11.144  20.656   3.662
88105W        W60530  40.590  17.512   0.286
88106W        W60531  34.707   2.727  14.846
88107W        W60532  23.636  28.858   1.109
88108W        W60533  31.848  20.301  11.432
88109W        W60534  20.675  27.085   1.408
88110W        W60535   0.766  39.582  13.498
88111W        W60536  15.111  28.389  13.761
88112W        W60537  34.975   8.301   5.077
88113W        W60538  12.515   0.414   3.975
88114W        W60539  30.170  24.941  13.859
88115W        W60540  10.134   8.165  14.856
88116W        W60541  39.529   3.558   2.413
88117W        W60542   4.140  35.969  12.665
88118W        W60543  18.539   5.619  12.314
88119W        W60544  19.136  39.103   2.673
88120W        W60545  15.336  42.326  14.837
88121W        W60546  19.881  22.457  13.418
88122W        W60547  15.181   5.081   5.066
88123W        W60548   0.057  40.763   2.158
88124W        W60549  37.373  13.160   1.860
88125W        W60550  29.700  10.941   4.225
88126W        W60551  22.658   3.145  14.399
88127W        W60552   4.052  10.204   2.553
88128W        W60553  36.936  17.570   1.979
88129W        W60554  40.291  32.082   0.371
88130W        W60555  33.570   8.009   1.825
88131W        W60556  12.856  29.092   4.522
88132W        W60557  34.177  28.948  13.436
88133W        W60558  38.792   0.880  14.350
88134W        W60559  42.081  13.774   2.637
88135W        W60560  23.675  31.294   3.775
88136W        W60561  14.845  19.208   0.781
88137W        W60562   4.852  21.416   2.255
88138W        W60563  24.964   6.347   3.915
88139W        W60564  16.528  10.140   4.587
88140W        W60565  12.188   3.430  10.568
88141W        W60566  39.876  39.543   0.426
88142W        W60567  14.463  37.310   0.469
88143W        W60568  22.394  40.013   9.954
88144W        W60569   4.722   3.033   4.322
88145W        W60570  13.075   4.922  11.642
88146W        W60571   2.599   2.028   4.639
88147W        W60572   9.820  33.668   2.356
88148W        W60573  30.520  27.915  11.859
88149W        W60574  16.607  32.127   3.458
88150W        W60575  30.624  38.497   4.213
88151W        W60576  11.872   0.800   3.676
88152W        W60577  35.790  14.146  14.454
88153W        W60578  21.638  36.507   0.322
88154W        W60579  19.589  23.138   0.949
88155W        W60580  27.572   7.262   4.016
88156W        W60581  16.335  27.080   3.611
88157W        W60582  31.620  16.305  12.960
88158W        W60583  10.699  34.484  12.876
88159W        W60584  12.120   5.730   4.581
88160W        W60585  34.544   5.242  11.359
88161W        W60586  43.369   8.779  13.414
88162W        W60587   8.309  44.808   4.172
88163W        W60588  14.293  33.542  14.208
88164W        W60589  13.901   4.334  10.635
88165W        W60590  43.608  23.008  12.123
88166W        W60591  27.983   3.537  11.171
88167W        W60592  34.313   7.382  11.434
88168W        W60593  43.803   8.668  14.894
88169W        W60594  16.573  10.211  11.398
88170W        W60595  19.431  27.631   1.332
88171W        W60596  17.637  44.407   3.965
88172W        W60597  38.245  14.387   0.047
88173W        W60598  12.102  10.195  14.392
88174W        W60599  43.411   3.719   2.398
88175W        W60600  31.920  25.142  14.746
88176W        W60601  39.037  11.879  12.428
88177W        W60602  17.687  35.836   4.898
88178W        W60603  13.763  25.280  11.864
88179W        W60604  34.430  26.110   1.212
88180W        W60605  15.184   7.709   2.769
88181W        W60606  28.165  28.010   3.216
88182W        W60607  18.366  12.295   0.540
88183W        W60608  17.663  14.654   2.300
88184W        W60609  35.457  26.991  12.094
88185W        W60610  36.967  26.530  13.406
88186W        W60611   7.439   1.814   4.734
88187W        W60612  41.367  24.683   4.495
88188W        W60613  44.202   8.346   4.505
88189W        W60614  29.200  12.150   4.256
88190W        W60615  15.195  21.777  11.720
88191W        W60616   8.704  35.958   4.487
88192W        W60617  11.132  44.496  11.960
88193W        W60618  22.177  32.605  14.312
88194W        W60619   4.194   7.134  14.286
88195W        W60620  44.114  20.391  11.428
88196W        W60621  24.181  12.666  11.475
88197W        W60622   5.464  11.783   1.503
88198W        W60623   0.476  38.761  14.566
88199W        W60624  17.681  42.314  10.730
88200W        W60625  30.139  29.030   0.504
88201W        W60626  20.548  43.794  14.771
88202W        W60627  25.658  35.747   1.699
88203W        W60628  39.732   3.177  11.233
88204W        W60629  28.876  19.262   0.791
88205W        W60630  13.141  32.158   0.070
88206W        W60631  16.518  15.450   0.779
88207W        W60632  25.922   9.913   0.037
88208W        W60633  13.028  16.012   1.813
88209W        W60634  11.289  37.628   4.820
88210W        W60635  23.682   7.945   4.199
88211W        W60636  22.312   9.692  11.038
88212W        W60637   6.502   2.873  11.986
88213W        W60638  34.067  26.047   2.172
88214W        W60639  15.666  22.568   1.634
88215W        W60640  30.643  32.786   0.447
88216W        W60641  12.321  12.357   3.565
88217W        W60642  28.679  27.538   4.715
88218W        W60643  20.584   5.704  12.086
88219W        W60644   6.530  37.991  10.941
88220W        W60645  13.191  40.501   0.791
88221W        W60646  38.522   4.294   3.554
88222W        W60647   6.331  44.620  11.794
88223W        W60648  28.343  21.109  14.791
88224W        W60649  14.725   7.463   2.729
88225W        W60650   2.423  24.037   3.103
88226W        W60651  12.354  15.029  11.111
88227W        W60652  20.314   5.330   2.395
88228W        W60653   2.008  36.384   4.616
88229W        W60654  34.839  37.514  10.606
88230W        W60655   5.414  34.919   2.665
88231W        W60656  43.403   2.428   3.329
88232W        W60657  43.171   2.511   3.797
88233W        W60658  16.067  15.537  13.797
88234W        W60659  35.345  43.095   3.063
88235W        W60660  21.102   7.235  13.903
88236W        W60661  35.778  37.919   4.627
88237W        W60662   8.170  21.821  14.403
88238W        W60663  27.097  40.025   0.740
88239W        W60664  17.613  10.623  14.245
88240W        W60665  42.512  41.444   1.749
88241W        W60666   4.708   6.453  12.971
88242W        W60667   6.477  11.803   4.437
88243W        W60668  32.885  11.768   3.103
88244W        W60669  11.915  31.087  10.650
88245W        W60670  21.255   7.816   2.276
88246W        W60671  34.161  19.975   4.054
88247W        W60672   9.434  34.450  12.382
88248W        W60673  30.245  42.829  13.532
88249W        W60674   2.544  21.594   2.815
88250W        W60675  28.003   3.472  10.325
88251W        W60676  19.196  36.372  13.926
88252W        W60677   4.386  25.215  11.416
88253W        W60678   1.996  36.668   0.384
88254W        W60679  14.672  26.617   0.171
88255W        W60680  11.630  44.453   4.032
88256W        W60681  25.442   2.837  13.834
88257W        W60682   1.951   7.945  11.139
88258W        W60683  34.580   8.455  14.489
88259W        W60684  40.396  35.997  14.861
88260W        W60685   5.855  39.215   1.542
88261W        W60686  42.783  28.110   1.846
88262W        W60687  42.425  30.681  12.455
88263W        W60688  33.589   1.511   4.484
88264W        W60689  39.455  11.317   2.440
88265W        W60690  41.734   5.827  14.495
88266W        W60691  19.815   6.519   0.279
88267W        W60692   8.346  42.041   4.378
88268W        W60693  18.620  35.589  12.191
88269W        W60694  11.555  33.552   4.051
88270W        W60695  28.157  37.173  14.503
88271W        W60696  28.516  12.862   1.193
88272W        W60697  17.267  37.529  11.195
88273W        W60698   9.180  39.871  10.712
88274W        W60699  14.804  18.455  10.606
88275W        W60700  35.472  36.653  12.030
88276W        W60701   3.852  10.188  13.608
88277W        W60702   4.975   9.614   1.422
88278W        W60703  26.466   9.571   2.729
88279W        W60704   2.180  18.796  13.552
88280W        W60705  34.892  39.913  12.133
88281W        W60706  27.546  19.090  11.144
88282W        W60707  29.635   9.241   4.323
88283W        W60708  36.187  29.075   4.320
88284W        W60709   3.749   5.101  11.176
88285W        W60710  24.739  29.499  12.626
88286W        W60711   7.309  33.483   0.643
88287W        W60712   4.123  35.924  12.153
88288W        W60713  26.549   1.869   0.918
88289W        W60714  43.345   9.905   4.613
88290W        W60715  34.308  19.513   0.414
88291W        W60716  31.665  10.356   3.733
88292W        W60717  20.314  39.029  11.078
88293W        W60718  36.739  31.679   3.236
88294W        W60719  24.151  29.450  12.197
88295W        W60720   8.934  17.037  11.663
88296W        W60721   0.323   2.014  11.340
88297W        W60722   5.459  42.471   1.437
88298W        W60723   3.329  30.165   2.261
88299W        W60724  32.931  26.537   1.007
88300W        W60725  10.510  18.238   3.665
88301W        W60726  29.117  41.574  13.088
88302W        W60727  22.555  19.568   4.261
88303W        W60728  36.069  31.306  12.454
88304W        W60729  21.761   0.777  10.765
88305W        W60730  16.523  12.300   3.763
88306W        W60731  25.459  27.368  12.391
88307W        W60732  34.416   4.651   3.979
88308W        W60733  16.609  27.508   3.790
88309W        W60734  18.585  33.049  10.163
88310W        W60735  15.335   1.489  14.367
88311W        W60736  34.663  26.963   4.140
88312W        W60737   9.317   5.432  14.782
88313W        W60738  32.913  20.122  14.479
88314W        W60739  28.554  40.063   3.205
88315W        W60740  16.714  37.982  10.662
88316W        W60741  41.154  31.460  13.489
88317W        W60742  18.820   0.804  10.904
88318W        W60743   9.799   8.145  11.275
88319W        W60744  44.819  16.643   3.172
88320W        W60745  30.191  18.630  13.922
88321W        W60746   5.288  10.295   0.360
88322W        W60747  20.021  13.926  14.882
88323W        W60748  44.191  26.646  14.300
88324W        W60749  40.486   6.090   3.749
88325W        W60750  44.767  36.075   3.315
88326W        W60751  39.063  19.076  12.578
88327W        W60752  37.182   3.703  11.481
88328W        W60753   9.394   7.230  10.551
88329W        W60754  24.513   5.278   0.491
88330W        W60755  25.266  24.559   2.579
88331W        W60756  23.555  25.703   4.488
88332W        W60757  16.308  20.634   2.070
88333W        W60758  29.901   5.444  11.117
88334W        W60759   9.310  11.126   1.289
88335W        W60760  28.505  38.745  12.708
88336W        W60761   6.206  26.109   4.961
88337W        W60762  25.061  38.474  11.348
88338W        W60763  30.754  26.043   4.934
88339W        W60764  41.273  30.984   1.305
88340W        W60765  26.487  39.630  12.642
88341W        W60766  12.042   8.486   2.008
88342W        W60767  21.049   4.926  13.391
88343W        W60768  11.009  30.662  14.414
88344W        W60769  24.697  25.051   4.801
88345W        W60770  16.118   6.436  14.748
88346W        W60771  24.225  41.974   0.450
88347W        W60772  42.350  40.146  12.827
88348W        W60773  41.831  42.411  14.895
88349W        W60774  31.651  15.853   2.513
88350W        W60775  15.651  28.688   1.767
88351W        W60776  30.206  38.522  13.591
88352W        W60777   9.905  12.554  14.898
88353W        W60778   9.436  13.061   3.276
88354W        W60779   9.842  14.017   3.182
88355W        W60780  31.873  20.795   1.371
88356W        W60781  26.155  42.038   0.420
88357W        W60782  23.647   7.975  12.703
88358W        W60783  17.038   0.379  11.289
88359W        W60784  30.068  28.523   2.120
88360W        W60785   3.998  34.980   1.638
88361W        W60786   8.629   5.902   3.272
88362W        W60787  18.241  26.035   0.374
88363W        W60788  23.464  32.164   1.603
88364W        W60789  36.084  20.678   0.678
88365W        W60790  24.493  16.815   1.914
88366W        W60791   2.746  24.218   2.328
88367W        W60792  25.989  41.303  14.799
88368W        W60793  25.666  15.570   4.120
88369W        W60794  10.313   3.906   4.267
88370W        W60795  39.740  24.728  13.170
88371W        W60796  31.523  29.587  10.770
88372W        W60797  19.584   4.672  11.694
88373W        W60798  43.803  21.858  10.190
88374W        W60799  33.901  35.388   0.298
88375W        W60800   5.280  15.556  14.431
88376W        W60801  16.413   6.312   0.496
88377W        W60802  31.156  18.135  11.229
88378W        W60803  17.081  16.013   1.829
88379W        W60804   7.731   0.192   3.350
88380W        W60805   6.828  38.143  12.305
88381W        W60806  11.181  12.820   4.844
88382W        W60807   1.497  24.270   2.692
88383W        W60808  29.125  38.083   1.083
88384W        W60809  39.517  43.982   1.801
88385W        W60810  23.709  13.747   0.493
88386W        W60811  44.887  37.905  11.220
88387W        W60812  15.058  31.521  13.904
88388W        W60813  29.377   3.500   4.705
88389W        W60814  36.837  43.917   2.799
88390W        W60815  11.425  44.356  10.740
88391W        W60816  30.089  23.977   0.479
88392W        W60817  34.841  31.100  14.232
88393W        W60818  14.476   8.737  10.735
88394W        W60819  21.082   9.661   0.410
88395W        W60820  35.644   9.280  13.039
88396W        W60821  34.459  40.756  11.639
88397W        W60822  28.066  21.266   2.345
88398W        W60823  30.112   3.360  13.839
88399W        W60824  14.318  31.885  13.274
88400W        W60825  22.154  10.666   2.758
88401W        W60826  35.359   9.768  12.220
88402W        W60827  32.562   6.077   1.217
88403W        W60828  36.527  31.364  11.197
88404W        W60829   6.076   2.524   0.994
88405W        W60830  34.138  25.406   1.308
88406W        W60831   4.222   6.671  12.129
88407W        W60832  29.390  28.238   1.332
88408W        W60833  40.508  43.802   0.983
88409W        W60834  12.622  36.316   3.988
88410W        W60835  39.847   7.398   4.128
88411W        W60836   4.168  20.944  11.540
88412W        W60837  27.318  14.283   4.570
88413W        W60838  30.090  38.293   4.598
88414W        W60839  14.688   3.492  12.018
88415W        W60840  43.517  35.749  13.013
88416W        W60841  41.721   5.291  14.888
88417W        W60842  36.068   6.263   4.246
88418W        W60843   8.747  29.995   3.900
88419W        W60844   9.582  35.929   3.676
88420W        W60845  13.151   3.533  12.048
88421W        W60846  13.957  29.548  14.957
88422W        W60847  30.545  40.832   4.247
88423W        W60848   8.326  19.234   4.653
88424W        W60849  18.372  17.572   0.897
88425W        W60850  11.301  27.781  12.104
88426W        W60851  41.804  19.249   2.792
88427W        W60852  42.354  35.112  11.463
88428W        W60853  14.951  29.530  12.151
88429W        W60854  38.009   3.852  13.472
88430W        W60855  39.599   9.887   2.901
88431W        W60856   8.849  27.614  12.501
88432W        W60857   2.704   5.397   0.351
88433W        W60858  13.860  37.543  12.487
88434W        W60859  32.054  41.735   3.765
88435W        W60860  37.811   0.502  10.268
88436W        W60861  33.588  40.397  10.567
88437W        W60862  38.485  42.237   2.244
88438W        W60863  10.864  40.780  13.635
88439W        W60864  16.699  29.612   4.207
88440W        W60865   3.341   0.383   3.218
88441W        W60866  25.468  16.110   2.599
88442W        W60867  15.041   1.817   0.264
88443W        W60868   7.411   2.431   3.469
88444W        W60869  33.325  39.296   2.533
88445W        W60870  25.513  29.659   3.657
88446W        W60871   5.487  41.321   3.283
88447W        W60872  33.086  39.489   4.174
88448W        W60873  28.585  34.547   2.862
88449W        W60874  36.884  44.324   4.155
88450W        W60875  32.355  30.754  13.887
88451W        W60876  40.407   7.160   4.135
88452W        W60877  31.433  38.259   1.920
88453W        W60878  28.023  25.503  12.014
88454W        W60879   9.747  27.232  12.843
88455W        W60880   9.454  10.998   0.543
88456W        W60881  29.667  16.812   2.024
88457W        W60882  43.375  32.853  11.590
88458W        W60883  42.566  31.453  13.024
88459W        W60884  31.025  27.465   4.701
88460W        W60885  28.721  40.941   3.238
88461W        W60886  40.632  15.645  12.220
88462W        W60887  14.277  36.591  12.533
88463W        W60888  19.145   5.811   3.701
88464W        W60889  34.829  16.664  12.088
88465W        W60890  37.429  38.541  10.079
88466W        W60891  25.172  38.320  14.319
88467W        W60892  18.791  20.512   2.298
88468W        W60893   0.702   1.544  12.891
88469W        W60894  32.824  37.911  12.091
88470W        W60895   2.984  16.210  10.654
88471W        W60896  36.073  14.698   4.678
88472W        W60897   8.160   4.881   3.156
88473W        W60898   4.873  16.850   2.600
88474W        W60899  13.788  23.162  13.295
88475W        W60900  25.949   4.907  12.880
88476W        W60901  27.568  30.723   0.418
88477W        W60902  35.108  14.923   4.769
88478W        W60903   7.648  33.133   0.890
88479W        W60904  33.840  39.347   2.428
88480W        W60905  44.286   7.243  13.371
88481W        W60906  44.038   7.586  11.389
88482W        W60907  11.258   7.451  13.530
88483W        W60908  37.191   6.296   5.462
88484W        W60909  44.836  13.601   3.660
88485W        W60910   0.770   0.411   3.151
88486W        W60911  21.707   3.633   1.808
88487W        W60912  29.211  23.187  11.501
88488W        W60913   3.310   4.306  12.072
88489W        W60914  17.287   2.773  14.314
88490W        W60915  22.043  19.510   0.749
88491W        W60916  10.396   3.745  11.175
88492W        W60917  23.629  14.260  13.359
88493W        W60918   4.976  44.105  14.260
88494W        W60919  29.689  25.694  13.371
88495W        W60920   6.472  34.288   4.828
88496W        W60921   4.679  44.544   1.434
88497W        W60922   6.766  11.704   2.329
88498W        W60923  18.149  30.470   3.166
88499W        W60924  27.992  27.220  11.496
88500W        W60925   1.796  35.583  14.428
88501W        W60926  23.813  38.338   0.635
88502W        W60927   3.179  36.137  13.855
88503W        W60928  13.236  35.559  14.289
88504W        W60929  24.665  44.738  10.952
88505W        W60930  41.281  41.348  11.835
88506W        W60931  27.474  30.917  12.537
88507W        W60932  30.782  39.373  12.716
88508W        W60933  27.132  11.380   2.315
88509W        W60934  10.628  17.592   1.705
88510W        W60935  43.329  30.919   4.582
88511W        W60936   5.751  21.362   1.431
88512W        W60937  27.555  10.897  14.340
88513W        W60938  32.180  23.981   0.450
88514W        W60939  42.017  12.539  12.156
88515W        W60940  28.713  44.545   2.645
88516W        W60941  32.837  44.066   2.799
88517W        W60942  43.849   0.417  13.231
88518W        W60943  32.643  34.740  11.174
88519W        W60944  18.413  28.080   3.762
88520W        W60945  27.692   7.785   3.829
88521W        W60946  43.695  10.767   4.316
88522W        W60947   8.328  13.827   0.459
88523W        W60948   7.087  43.365  13.966
88524W        W60949  26.665  44.348   3.795
88525W        W60950   9.404  30.297   0.876
88526W        W60951  40.403  21.531  14.216
88527W        W60952  21.485  36.394  10.672
88528W        W60953  20.311  37.118  10.443
88529W        W60954  22.787  19.124   4.096
88530W        W60955  21.549  44.541  10.399
88531W        W60956  36.200   8.203   1.798
88532W        W60957   3.312  34.357  12.940
88533W        W60958   1.522  23.696   2.764
88534W        W60959   6.706   8.931  12.043
88535W        W60960  39.550   4.060   2.396
88536W        W60961  17.315  43.756  10.723
88537W        W60962  13.359  32.756   3.903
88538W        W60963   4.956  28.014   1.314
88539W        W60964  34.357  39.942   0.039
88540W        W60965  19.552  41.471   0.974
88541W        W60966  26.694  31.463  13.887
88542W        W60967  40.473  41.567  11.064
88543W        W60968  32.402  15.284  12.163
88544W        W60969  41.453  40.038  11.452
88545W        W60970   5.259   0.785  10.706
88546W        W60971   9.344  42.367  14.978
88547W        W60972  23.813  15.444   1.162
88548W        W60973  32.142   1.288   1.249
88549W        W60974  32.387  19.714  11.143
88550W        W60975  43.947  26.125  12.343
88551W        W60976  42.341   6.437   0.378
88552W        W60977   9.425   6.919  12.322
88553W        W60978  33.993  34.835  11.445
88554W        W60979  16.532  39.798  11.251
88555W        W60980   1.685  25.932   1.318
88556W        W60981  22.959  43.852   0.455
88557W        W60982  13.850   9.361   0.348
88558W        W60983  22.014  20.563  11.539
88559W        W60984  14.939  41.367  10.602
88560W        W60985  36.079   3.430  11.473
88561W        W60986  26.435  43.216   0.040
88562W        W60987   0.875  12.085  10.634
88563W        W60988  40.097  30.619  14.763
88564W        W60989   8.325  14.111   3.571
88565W        W60990  19.617  41.756  14.219
88566W        W60991   9.832  43.474  12.066
88567W        W60992   6.258   7.261  12.460
88568W        W60993   1.940  39.821  12.129
88569W        W60994  30.202  19.762  11.350
88570W        W60995  36.987  23.026  10.993
88571W        W60996  29.795  25.126  10.189
88572W        W60997  16.046  27.750  11.192
88573W        W60998   1.504   4.396   1.923
88574W        W60999  26.179  13.055   4.639
88575W        W61000   8.834  36.451   0.892
88576W        W61001  41.811  27.468  14.803
88577W        W61002  12.240   1.380  12.103
88578W        W61003  34.496  31.712  12.019
88579W        W61004   7.577   6.189   4.359
88580W        W61005  17.447  15.108   4.561
88581W        W61006  31.593   8.673  12.460
88582W        W61007  20.180  21.250   3.205
88583W        W61008  33.587  23.144  14.007
88584W        W61009   6.360   9.241  14.297
88585W        W61010  27.293  43.826   2.381
88586W        W61011   2.496   0.112   3.704
88587W        W61012   9.075  12.194  12.907
88588W        W61013   3.136  34.940   0.725
88589W        W61014   5.122  27.146   4.545
88590W        W61015  43.373  17.088  11.962
88591W        W61016   7.792  36.147   4.090
88592W        W61017   8.676  38.867  11.734
88593W        W61018  17.592  14.628   3.282
88594W        W61019  23.057  13.309  11.110
88595W        W61020  31.544  32.809   3.317
88596W        W61021  15.924   0.401  12.192
88597W        W61022  36.463  21.051  12.941
88598W        W61023   4.789  12.048   3.622
88599W        W61024  27.124  30.199  10.611
88600W        W61025  31.615  18.521  14.494
88601W        W61026  40.845  12.617   1.889
88602W        W61027  42.489  35.596   0.738
88603W        W61028   8.731  29.946   3.394
88604W        W61029  17.712  16.204  14.438
88605W        W61030  26.215  41.531  13.920
88606W        W61031   8.978  21.981   1.829
88607W        W61032  44.289  42.943  13.066
88608W        W61033   7.822  27.495  12.450
88609W        W61034  25.708  42.781  10.310
88610W        W61035   9.587  16.596   4.143
88611W        W61036  13.126  44.969   3.292
88612W        W61037  19.108  20.442   4.610
88613W        W61038   8.217  30.109   2.461
88614W        W61039  43.805  39.442  11.182
88615W        W61040  23.034   7.105   1.247
88616W        W61041  23.198  30.407   2.273
88617W        W61042   4.831  31.801   2.302
88618W        W61043  30.237  40.489  12.366
88619W        W61044  14.266  27.010   3.735
88620W        W61045  40.407  18.674   3.230
88621W        W61046  11.369  23.808   1.765
88622W        W61047  33.027  13.472  12.481
88623W        W61048  39.806  32.910  10.631
88624W        W61049   9.647  35.995   1.849
88625W        W61050  20.081  19.132  12.564
88626W        W61051  16.081  29.086  13.772
88627W        W61052  19.159  41.095  12.893
88628W        W61053  38.829  29.451   1.268
88629W        W61054   4.767   3.694  13.279
88630W        W61055  11.128   7.310  12.903
88631W        W61056   5.348  44.694  14.857
88632W        W61057  26.600  30.120  14.533
88633W        W61058  33.179  25.420   4.697
88634W        W61059  12.337  16.140  13.371
88635W        W61060  15.830  16.184   1.411
88636W        W61061  20.614   9.904   0.370
88637W        W61062   2.262  38.943  14.986
88638W        W61063  43.007  20.187  11.367
88639W        W61064  16.603  31.987   2.419
88640W        W61065  20.602  41.521  14.255
88641W        W61066  43.987   9.818   1.679
88642W        W61067   5.309  25.486   2.916
88643W        W61068  25.285  33.554   5.047
88644W        W61069  30.979   1.806  10.229
88645W        W61070  26.659   7.814  12.826
88646W        W61071  34.599   9.220  12.141
88647W        W61072  32.002  23.144   2.826
88648W        W61073  22.242  14.388   2.794
88649W        W61074  44.335   3.444  11.540
88650W        W61075   7.543  42.743   3.127
88651W        W61076  14.201   0.741  13.365
88652W        W61077   0.706  42.844   2.473
88653W        W61078  37.311  24.473  13.487
88654W        W61079  35.499  12.583  11.564
88655W        W61080  39.503  23.018  12.782
88656W        W61081  18.708  27.049   3.274
88657W        W61082  12.297   2.874  11.474
88658W        W61083   5.010  24.520   2.768
88659W        W61084  17.136  32.964  10.414
88660W        W61085  17.767  27.095   4.412
88661W        W61086  36.040  30.655   0.715
88662W        W61087   6.478  20.472  13.407
88663W        W61088  13.854  16.774   2.384
88664W        W61089  22.569   7.149   1.475
88665W        W61090  37.050  39.485   1.782
88666W        W61091  11.987  41.180  13.991
88667W        W61092  34.352  31.965   2.124
88668W        W61093  30.393  21.090   1.325
88669W        W61094   4.508  11.888  11.570
88670W        W61095  35.446  15.404  11.193
88671W        W61096  28.873  10.423   0.391
88672W        W61097  13.121  38.616   4.577
88673W        W61098  16.137  42.524  13.844
88674W        W61099  22.033  28.101  13.930
88675W        W61100  28.669  20.730   3.541
88676W        W61101  33.538   0.023   0.891
88677W        W61102  11.688  40.780   0.716
88678W        W61103   6.097  38.819   4.600
88679W        W61104   7.958   8.333   3.740
88680W        W61105   3.379  36.901  13.395
88681W        W61106  13.163  13.881  13.046
88682W        W61107  25.237   5.983  12.882
88683W        W61108  15.815  43.025   5.019
88684W        W61109  34.712  32.969   4.425
88685W        W61110   6.328   4.981  14.983
88686W        W61111  25.054  16.549  11.203
88687W        W61112  32.855  24.554   4.045
88688W        W61113  34.838  14.828   0.477
88689W        W61114  30.552  34.907  10.798
88690W        W61115  22.718  21.387  12.863
88691W        W61116  14.824  43.259  14.888
88692W        W61117   0.397  16.785   0.364
88693W        W61118   5.430   7.389   2.791
88694W        W61119  22.079   3.465   3.723
88695W        W61120  37.487  27.740  11.601
88696W        W61121  15.083  27.994  10.395
88697W        W61122   0.013  36.838  12.007
88698W        W61123  44.233  13.646  11.872
88699W        W61124  27.102   4.439  11.582
88700W        W61125  37.985  42.030   4.863
88701W        W61126  26.987   1.243  13.926
88702W        W61127  21.250   5.669  14.821
88703W        W61128  36.314  27.070   1.721
88704W        W61129   2.602  12.266  11.596
88705W        W61130  34.489   0.699   4.157
88706W        W61131  40.315   5.257   0.415
88707W        W61132  38.588  14.209  13.101
88708W        W61133   7.251  32.392   2.281
88709W        W61134  25.297  18.157   0.238
88710W        W61135  30.979  16.541  14.264
88711W        W61136  43.421  24.683  10.711
88712W        W61137   9.551  12.626   2.191
88713W        W61138  30.757  36.548   4.658
88714W        W61139  35.045   3.659  14.930
88715W        W61140  38.908  23.600   3.828
88716W        W61141  38.488  30.853   0.212
88717W        W61142   5.258  37.093   1.417
88718W        W61143  38.935  20.660  11.743
88719W        W61144  32.548  17.741  11.005
88720W        W61145   5.203  11.319  11.459
88721W        W61146  23.023  38.291   3.231
88722W        W61147  23.502   2.712  12.974
88723W        W61148  11.804  34.935  14.558
88724W        W61149  36.936  11.625  12.598
88725W        W61150   2.283  29.435  14.321
88726W        W61151  27.567   4.202   2.120
88727W        W61152   8.710  39.259   2.791
88728W        W61153   3.915  31.078   1.286
88729W        W61154  42.336  38.021  14.701
88730W        W61155  23.538   2.207   4.794
88731W        W61156  23.887  22.121   4.148
88732W        W61157  34.771  25.948   0.318
88733W        W61158  20.523  25.037  13.809
88734W        W61159  21.389  23.961  13.153
88735W        W61160  42.152   2.372   4.585
88736W        W61161  18.981  32.450   4.626
88737W        W61162  37.758  25.059  12.959
88738W        W61163  10.442   9.041  12.415
88739W        W61164  26.825  42.971   4.995
88740W        W61165  27.382  35.449   0.741
88741W        W61166  40.385  37.807  11.989
88742W        W61167  18.973  15.285   0.234
88743W        W61168  14.337  31.519  12.405
88744W        W61169   2.582   4.777   1.217
88745W        W61170   0.715  15.923  10.602
88746W        W61171  11.027  32.987  13.011
88747W        W61172  26.750  17.575   4.097
88748W        W61173   2.412  21.478  13.887
88749W        W61174  28.562  21.773   2.790
88750W        W61175  31.490  20.134  11.107
88751W        W61176  16.120  42.415  12.266
88752W        W61177  36.725  39.314   1.267
88753W        W61178  14.673   2.803  10.411
88754W        W61179  38.100  19.717  12.155
88755W        W61180  22.224   7.959   1.550
88756W        W61181  20.657  10.126   2.260
88757W        W61182  28.452  20.575   0.435
88758W        W61183   1.729  40.534   4.062
88759W        W61184  29.073  36.875   2.313
88760W        W61185  39.365  20.983  14.117
88761W        W61186   9.550  19.721   1.901
88762W        W61187  34.873  31.972   2.162
88763W        W61188  39.877  20.759  12.478
88764W        W61189  37.099  29.985  11.491
88765W        W61190  34.200  42.086   1.678
88766W        W61191   7.801  20.702  12.078
88767W        W61192   8.019  41.556   1.732
88768W        W61193  33.374   5.415  13.883
88769W        W61194  30.034  37.381  10.640
88770W        W61195   1.928  11.249   2.058
88771W        W61196  21.222  15.596   3.754
88772W        W61197  34.459  11.236  12.653
88773W        W61198   2.247  16.788   4.403
88774W        W61199  33.860  35.282  11.764
88775W        W61200   6.875   6.514  12.366
88776W        W61201  13.651   7.254  14.265
88777W        W61202  30.876  26.396   4.559
88778W        W61203   4.115  41.008   3.186
88779W        W61204  25.989  38.864  14.021
88780W        W61205  15.252  18.141   1.688
88781W        W61206  13.958  12.791  14.001
88782W        W61207   4.944  41.903   0.027
88783W        W61208  14.483  23.223  10.289
88784W        W61209   2.960  38.515  11.107
88785W        W61210  35.347  42.290  11.167
88786W        W61211  29.630  44.194  11.387
88787W        W61212  26.907   2.754   4.518
88788W        W61213  36.215  13.594  12.018
88789W        W61214  15.227  15.082   0.391
88790W        W61215   2.238  41.410  13.798
88791W        W61216   5.998  35.123  10.685
88792W        W61217  44.462   8.728  12.052
88793W        W61218  41.029  30.204   0.894
88794W        W61219  32.497  44.446   2.547
88795W        W61220  20.380  12.302  10.126
88796W        W61221  32.270  42.418  11.641
88797W        W61222   6.644  30.441   4.543
88798W        W61223  13.900  23.775  11.452
88799W        W61224  37.484  23.978   1.244
88800W        W61225  39.060  22.854   1.929
88801W        W61226  10.486  24.201   0.841
88802W        W61227   1.659   0.912   3.805
88803W        W61228  21.264  28.922   3.636
88804W        W61229  34.740  35.539  13.973
88805W        W61230  38.896  29.621  12.296
88806W        W61231  38.898  24.590  14.802
88807W        W61232   4.938  15.782   3.101
88808W        W61233  38.834  34.940  11.126
88809W        W61234  16.301  38.419   1.271
88810W        W61235  20.264  25.016   4.077
88811W        W61236  26.739  10.668   1.862
88812W        W61237  39.509  31.166   4.177
88813W        W61238  20.565  25.567   0.816
88814W        W61239  11.324  26.096   0.712
88815W        W61240   1.215  17.623   1.804
88816W        W61241   3.170  28.622   2.240
88817W        W61242  11.237  13.367   0.354
88818W        W61243  33.532  20.910  12.478
88819W        W61244  44.436  31.393  10.574
88820W        W61245  39.572   9.359   2.310
88821W        W61246   7.009   0.209  11.434
88822W        W61247   6.855  17.024  11.892
88823W        W61248  14.548   6.799   4.918
88824W        W61249  22.344  41.291   2.810
88825W        W61250  15.837  14.807   2.775
88826W        W61251   3.248   5.848   1.900
88827W        W61252  24.209  41.737   3.597
88828W        W61253  15.251  44.539   1.996
88829W        W61254   3.620  28.470   2.496
88830W        W61255  21.767  40.625  12.619
88831W        W61256  12.590  40.913  12.497
88832W        W61257   6.718  30.547  11.007
88833W        W61258  41.871  41.530  10.289
88834W        W61259  17.287   0.218   4.133
88835W        W61260  23.382   7.283  11.971
88836W        W61261  41.072  22.301  11.669
88837W        W61262  33.421  26.993  11.639
88838W        W61263  31.387  36.740   3.591
88839W        W61264  30.328  19.250   3.230
88840W        W61265  33.069  22.198   1.222
88841W        W61266  10.808  30.733  14.889
88842W        W61267  34.012  17.701   3.939
88843W        W61268   4.746  21.730   1.841
88844W        W61269  32.485  20.456  13.191
88845W        W61270  22.506  44.062   0.238
88846W        W61271  29.190  38.738   5.377
88847W        W61272  31.595   6.970  13.586
88848W        W61273  27.090  18.161   2.288
88849W        W61274   4.089  16.986  13.810
88850W        W61275  34.017   5.993  13.783
88851W        W61276  41.725  18.743   2.545
88852W        W61277  14.701   4.153   9.919
88853W        W61278  42.956   0.397   2.835
88854W        W61279  27.214   4.896  14.971
88855W        W61280  18.513  38.377  13.965
88856W        W61281  44.706  13.709   1.456
88857W        W61282  14.808  20.419  11.651
88858W        W61283   5.242  26.400   2.015
88859W        W61284   1.982  24.644   1.659
88860W        W61285   2.475  22.234   4.075
88861W        W61286   2.873   5.285  14.873
88862W        W61287  29.903   0.733   3.710
88863W        W61288  40.497  34.889  12.502
88864W        W61289  41.256   0.115   2.234
88865W        W61290  10.682  40.055   0.559
88866W        W61291  28.345   4.863   0.908
88867W        W61292  21.254  41.518   1.342
88868W        W61293   3.261  34.590  10.599
88869W        W61294  37.353  25.820   2.740
88870W        W61295   5.481  21.688  13.535
88871W        W61296  24.417  30.644  10.734
88872W        W61297  33.803  31.965  11.160
88873W        W61298  28.159  43.053   3.291
88874W        W61299   6.296  21.286   3.116
88875W        W61300   0.419  39.265  12.491
88876W        W61301   5.889  15.256  10.790
88877W        W61302  11.759   0.868  11.099
88878W        W61303  22.085  26.645   0.447
88879W        W61304   2.692  32.530  12.564
88880W        W61305  25.171  33.214   1.378
88881W        W61306  13.699  16.784   4.638
88882W        W61307   7.705  44.813   2.182
88883W        W61308  24.654  14.752  12.502
88884W        W61309   0.720  29.668   0.816
88885W        W61310  36.466  38.364   2.264
88886W        W61311   5.442  34.644   1.269
88887W        W61312   4.292  16.235   0.807
88888W        W61313  28.484  11.580  12.001
88889W        W61314  33.174  22.614  12.894
88890W        W61315  11.721  27.823   3.708
88891W        W61316  20.608   3.883  12.650
88892W        W61317  36.576  30.017   1.340
88893W        W61318   5.853  37.425  13.513
88894W        W61319  43.281   2.005   3.819
88895W        W61320   0.224  39.421  12.961
88896W        W61321   3.292  36.574   3.918
88897W        W61322  37.517  31.696  12.041
88898W        W61323   9.432  13.920  11.904
88899W        W61324   8.945  19.680   0.599
88900W        W61325  37.711  20.207   2.170
88901W        W61326  41.829   8.150   3.873
88902W        W61327   6.749  23.403  14.280
88903W        W61328  19.317  25.752  12.091
88904W        W61329  35.357   5.942   2.667
88905W        W61330  40.895  31.709  14.381
88906W        W61331   8.037   8.438   0.621
88907W        W61332  38.811  36.779   0.279
88908W        W61333  33.553  34.995  11.218
88909W        W61334  10.750  17.696   0.413
88910W        W61335   1.824  35.474   2.078
88911W        W61336  37.030   7.899   0.040
88912W        W61337  44.382  22.157  12.042
88913W        W61338  27.522  24.249   0.397
88914W        W61339  26.496  24.038  14.350
88915W        W61340  39.461  10.347  11.248
88916W        W61341  16.270   3.422  12.527
88917W        W61342  21.272   4.656  14.951
88918W        W61343   6.811  25.455   3.523
88919W        W61344  23.262  13.623  10.684
88920W        W61345  35.667  11.770   1.887
88921W        W61346  39.546  36.261  13.873
88922W        W61347   7.830  18.540  13.544
88923W        W61348   4.753   1.066   1.820
88924W        W61349  23.280  10.818   1.874
88925W        W61350  43.872  44.406  10.423
88926W        W61351  30.704   1.730  13.502
88927W        W61352  11.730  31.075  11.932
88928W        W61353  35.965   8.334  10.532
88929W        W61354  11.829  37.778  11.639
88930W        W61355  26.535  28.136   3.867
88931W        W61356  40.241  27.530   3.213
88932W        W61357  42.210  32.726   2.930
88933W        W61358  27.794  16.596   0.738
88934W        W61359  31.016   3.289  10.810
88935W        W61360  43.849  40.037  11.882
88936W        W61361  32.413  38.514  13.935
88937W        W61362  19.652  40.319   2.849
88938W        W61363   6.644  39.475   4.052
88939W        W61364  32.131  25.042  11.841
88940W        W61365  11.599  17.585  10.708
88941W        W61366  36.312  11.092  11.403
88942W        W61367   1.863  34.534   1.665
88943W        W61368  39.876   0.521   0.028
88944W        W61369  17.313  19.173   0.028
88945W        W61370   5.162   6.272  11.017
88946W        W61371  44.017   8.228   3.205
88947W        W61372  16.552  26.021  13.484
88948W        W61373  18.546  43.275  12.907
88949W        W61374  34.052   8.358  11.935
88950W        W61375   9.919  34.254   2.407
88951W        W61376   4.264  27.516  10.567
88952W        W61377  30.196  14.036  14.976
88953W        W61378   4.054  40.019   2.313
88954W        W61379  34.580   8.826   4.357
88955W        W61380  19.960  41.968   2.193
88956W        W61381  14.236  37.866   2.862
88957W        W61382  44.293  11.109   5.074
88958W        W61383  37.148  15.259   0.931
88959W        W61384  25.577  23.668   0.384
88960W        W61385   3.255  20.167   2.369
88961W        W61386  30.130  17.899  14.680
88962W        W61387  28.466  33.874   4.253
88963W        W61388   0.221  31.954  12.000
88964W        W61389  26.617  36.407   0.248
88965W        W61390  13.225   4.889   4.651
88966W        W61391  37.002  41.758  11.311
88967W        W61392  30.529  36.567   1.311
88968W        W61393  35.031  30.355  14.490
88969W        W61394  42.290  24.132  13.501
88970W        W61395  42.248  15.649   0.168
88971W        W61396  32.923  34.061   2.365
88972W        W61397   2.649  37.506   3.456
88973W        W61398  31.148  15.685   0.549
88974W        W61399  24.730   8.828  12.529
88975W        W61400  12.124  32.046  13.417
88976W        W61401  14.038  42.719  13.479
88977W        W61402  26.869   4.688  12.556
88978W        W61403  36.068  37.370   1.681
88979W        W61404   2.349  26.443  14.062
88980W        W61405  41.440   8.699   4.622
88981W        W61406  41.928  25.989   1.250
88982W        W61407  41.477  22.284   3.815
88983W        W61408  21.990  24.144   4.993
88984W        W61409  29.924  29.960  11.528
88985W        W61410  43.290  37.847   2.173
88986W        W61411  22.030  30.613  13.521
88987W        W61412   7.599  19.655  13.438
88988W        W61413  28.036  38.036   1.808
88989W        W61414  32.130  33.024  13.403
88990W        W61415   0.521   9.858   1.869
88991W        W61416  43.961  43.412   2.280
88992W        W61417  43.785   4.632   1.833
88993W        W61418  37.038  10.271  14.298
88994W        W61419  39.706  14.564   1.709
88995W        W61420  25.613  33.645   4.146
88996W        W61421   6.167  43.364   1.215
88997W        W61422  39.483   0.773  11.865
88998W        W61423  30.600   7.966   3.639
88999W        W61424  39.037  10.563  12.067
89000W        W61425  27.471  27.626   2.294
89001W        W61426   6.535   9.562   3.718
89002W        W61427  25.784  11.903   0.475
89003W        W61428  22.045   3.099   4.090
89004W        W61429  15.908  44.706   2.526
89005W        W61430  11.343  20.827  10.690
89006W        W61431  23.050  30.623   3.739
89007W        W61432  24.249  23.177  11.619
89008W        W61433   3.743  25.542  14.716
89009W        W61434  32.504  41.334  10.838
89010W        W61435  22.016  18.503  13.311
89011W        W61436  33.580  30.428  14.416
89012W        W61437  19.817  39.785  12.106
89013W        W61438  13.168  23.210   0.268
89014W        W61439  30.947  22.802   5.477
89015W        W61440  28.330  34.011   1.893
89016W        W61441  29.506  40.366  11.594
89017W        W61442  15.726  10.684   4.724
89018W        W61443  22.826  39.784   2.347
89019W        W61444  34.877   9.705  12.880
89020W        W61445  10.719  19.868   4.134
89021W        W61446  37.416  28.911   2.334
89022W        W61447  17.325  39.019  11.895
89023W        W61448  37.843  21.796   1.715
89024W        W61449   8.676  30.974   2.383
89025W        W61450  12.192  27.817  12.076
89026W        W61451   1.537   3.736   3.043
89027W        W61452  36.484  19.089   4.186
89028W        W61453  11.297   2.778  11.491
89029W        W61454   9.552   2.296   3.898
89030W        W61455  16.119  42.866  14.555
89031W        W61456   8.709   6.884  14.562
89032W        W61457  15.243   9.131  11.308
89033W        W61458   4.011  30.903   2.797
89034W        W61459  41.030   5.003  12.386
89035W        W61460  18.701  44.466   0.933
89036W        W61461  37.999  44.683  10.974
89037W        W61462  12.017  18.109  11.123
89038W        W61463  27.657   0.323   3.692
89039W        W61464  18.997  27.081   4.789
89040W        W61465  44.851  40.276  12.795
89041W        W61466  42.962  28.861  11.179
89042W        W61467   2.906  27.899  12.217
89043W        W61468  39.563  17.835  11.562
89044W        W61469  21.304  16.163   0.523
89045W        W61470  36.075  41.538  13.855
89046W        W61471  43.473  12.555  14.504
89047W        W61472  34.455   4.161  13.485
89048W        W61473   3.865   7.502  10.702
89049W        W61474  42.781   7.564  13.084
89050W        W61475  34.832  28.663   2.831
89051W        W61476   9.129  27.471   4.210
89052W        W61477   3.444  24.165  13.848
89053W        W61478  21.525  39.248   2.263
89054W        W61479   1.269  14.668   3.397
89055W        W61480  43.913  25.225  11.507
89056W        W61481  43.284   2.347   0.523
89057W        W61482   6.942   3.177  13.413
89058W        W61483   0.986  41.460  14.661
89059W        W61484  19.768  41.106   3.254
89060W        W61485   0.811   9.656   4.180
89061W        W61486  42.827  37.068   1.306
89062W        W61487  32.553   9.241   3.676
89063W        W61488  30.209  20.656  11.139
89064W        W61489   6.302  29.469   3.159
89065W        W61490  12.696  21.143  11.924
89066W        W61491  20.261  18.692  14.745
89067W        W61492  27.608   0.198  10.375
89068W        W61493   1.352  10.129  12.919
89069W        W61494  22.122  42.790   1.324
89070W        W61495   7.612  23.037  12.625
89071W        W61496   0.367   3.007   1.780
89072W        W61497  35.024  13.127  13.313
89073W        W61498  31.396  37.297  10.495
89074W        W61499  20.793  39.051   0.339
89075W        W61500  29.864  11.313  14.359
89076W        W61501  23.586   9.710   2.193
89077W        W61502  28.849  24.105  12.595
89078W        W61503  21.099  21.000   4.979
89079W        W61504  19.108  10.762  14.775
89080W        W61505  44.813   8.757  11.588
89081W        W61506  39.302  22.060  12.455
89082W        W61507  20.470   9.260  14.577
89083W        W61508  27.966  19.127  10.374
89084W        W61509   3.349  40.618   0.217
89085W        W61510  20.169  15.662  12.929
89086W        W61511  39.647  31.080   2.334
89087W        W61512   7.469  39.342   4.750
89088W        W61513   2.178  40.278   4.144
89089W        W61514   3.793  33.860  12.428
89090W        W61515   8.181  26.526  14.740
89091W        W61516   2.201  12.139   2.815
89092W        W61517  40.494  31.657   2.301
89093W        W61518  31.223  44.465  12.540
89094W        W61519  33.100  16.730   3.312
89095W        W61520  36.159  37.469  14.904
89096W        W61521   1.164  30.674   2.031
89097W        W61522  22.004  21.191   0.012
89098W        W61523  26.131  33.670  12.062
89099W        W61524  33.867  39.388  14.820
89100W        W61525  16.882  34.007  14.466
89101W        W61526  10.867   8.347   0.851
89102W        W61527  29.759  24.964   4.558
89103W        W61528  16.628  40.522   1.062
89104W        W61529  23.023  41.179   1.216
89105W        W61530  30.758  12.133   3.450
89106W        W61531  23.144  32.437   1.016
89107W        W61532  15.087  26.503   4.758
89108W        W61533  17.339  29.166   1.049
89109W        W61534  11.383  42.571   2.253
89110W        W61535  43.873  32.330  14.386
89111W        W61536  39.417  40.845   2.147
89112W        W61537  33.620  38.323  14.639
89113W        W61538  40.613   2.401  11.571
89114W        W61539  21.550  40.459  10.229
89115W        W61540  24.891   0.948  13.518
89116W        W61541   2.288  20.122  11.278
89117W        W61542  30.598   9.128  11.370
89118W        W61543  34.344  39.959  12.953
89119W        W61544  14.088  43.928  10.724
89120W        W61545  10.186   1.535  11.084
89121W        W61546  25.620  34.308  11.192
89122W        W61547   0.010   9.753   0.876
89123W        W61548   2.128  38.038   4.735
89124W        W61549  24.900  13.222   0.712
89125W        W61550  38.993   9.619  14.836
89126W        W61551  25.360  29.606  11.447
89127W        W61552  31.689  30.977   1.860
89128W        W61553   1.736  35.427   1.578
89129W        W61554  34.794  14.749   3.312
89130W        W61555  14.148   5.683  12.753
89131W        W61556  23.269  35.350  13.959
89132W        W61557  17.616  32.366   4.625
89133W        W61558  40.358  16.772  14.871
89134W        W61559  19.858  32.630  12.856
89135W        W61560   5.179  36.481   2.178
89136W        W61561  24.699   3.739   4.112
89137W        W61562  21.945  38.530  14.794
89138W        W61563  29.791  35.006   1.462
89139W        W61564  23.925  23.319   2.745
89140W        W61565   8.376  36.872   3.562
89141W        W61566  38.017  31.939   3.043
89142W        W61567   0.225  22.962  10.620
89143W        W61568  35.402  19.787  14.299
89144W        W61569  14.021  39.044  13.500
89145W        W61570  17.247  12.766   9.965
89146W        W61571  32.080  20.205   3.057
89147W        W61572   4.800  43.602  14.261
89148W        W61573   0.957  23.682  12.947
89149W        W61574  36.400  43.814   4.175
89150W        W61575  24.122  31.299   1.487
89151W        W61576   1.698  33.165   0.793
89152W        W61577   7.677  26.501   3.734
89153W        W61578  23.366  12.303   2.782
89154W        W61579  21.134  39.406   1.455
89155W        W61580  16.678  27.754   2.909
89156W        W61581  16.910  24.385  13.340
89157W        W61582  19.754  38.456   4.599
89158W        W61583  17.499  42.069   4.411
89159W        W61584  27.811   4.543  10.967
89160W        W61585  38.483  37.076  11.759
89161W        W61586  17.718  31.108   4.234
89162W        W61587  38.838  11.201  12.932
89163W        W61588  28.068  31.821   4.146
89164W        W61589  12.169  11.145  11.513
89165W        W61590  34.502  29.471   4.400
89166W        W61591  25.193   5.815   0.256
89167W        W61592  31.416  16.823  12.065
89168W        W61593  12.136  37.467   1.584
89169W        W61594  38.123   8.883   5.449
89170W        W61595  39.018  21.128   4.096
89171W        W61596  23.300   9.740  11.955
89172W        W61597   7.155  22.925   3.828
89173W        W61598  36.030   1.256   1.868
89174W        W61599  13.215  25.143  12.558
89175W        W61600   5.152  27.674   0.318
89176W        W61601  32.213  43.260   4.608
89177W        W61602  43.049  38.881   2.788
89178W        W61603  15.216  44.187   2.830
89179W        W61604  21.276   9.186  14.069
89180W        W61605  22.743   9.314   2.670
89181W        W61606  10.439  43.269  14.992
89182W        W61607  20.058  24.549  13.477
89183W        W61608  11.090  35.056  12.374
89184W        W61609  34.653  40.028   3.312
89185W        W61610  32.972  12.774   0.062
89186W        W61611  14.495  37.233   4.754
89187W        W61612  18.747   3.487  10.959
89188W        W61613  11.222  23.945  11.702
89189W        W61614  34.190  37.333  13.370
89190W        W61615  37.422  28.674   1.383
89191W        W61616  42.313   0.782  11.586
89192W        W61617  20.002  20.566  13.065
89193W        W61618  21.978  39.839   4.537
89194W        W61619  12.614  25.115   9.572
89195W        W61620   3.023   2.322   3.714
89196W        W61621   1.206  23.172   0.828
89197W        W61622  44.282  11.879   1.090
89198W        W61623  42.282   1.942  10.730
89199W        W61624  20.812   3.945   1.733
89200W        W61625  24.337  37.534   0.945
89201W        W61626   7.315  39.846   4.792
89202W        W61627  34.938  32.398   3.348
89203W        W61628  17.606  23.575   3.653
89204W        W61629   8.592  18.140  14.268
89205W        W61630  42.884  17.638  13.975
89206W        W61631  12.089  41.948  14.942
89207W        W61632  31.629   6.286  11.927
89208W        W61633  35.082  23.117  11.027
89209W        W61634  37.162  11.732  12.156
89210W        W61635  19.501  24.543   1.430
89211W        W61636  43.826  21.313  14.277
89212W        W61637  31.414  43.435   4.099
89213W        W61638  10.219  22.493   2.936
89214W        W61639  23.753   8.071   0.259
89215W        W61640  40.063   3.241   1.249
89216W        W61641  20.063  26.019   1.859
89217W        W61642  18.510  33.178  13.569
89218W        W61643  12.820  16.253   1.314
89219W        W61644  27.182  24.730  12.855
89220W        W61645  20.336   1.445  11.176
89221W        W61646   2.907  11.361   4.538
89222W        W61647  31.954  17.778   4.913
89223W        W61648   9.192  38.590  10.987
89224W        W61649  35.754   8.426   4.529
89225W        W61650   3.907  16.342  12.484
89226W        W61651  24.364  42.972  12.068
89227W        W61652  41.140  22.282  10.219
89228W        W61653  26.448   5.327   4.324
89229W        W61654  18.416   4.480   3.061
89230W        W61655   6.917  40.877  11.547
89231W        W61656  13.371  14.096  14.469
89232W        W61657  17.086   2.545   1.637
89233W        W61658  30.239  28.160   4.334
89234W        W61659  10.278  42.784   5.004
89235W        W61660   3.391  13.249  10.769
89236W        W61661  23.238  13.320   4.176
89237W        W61662  36.577  23.165  11.253
89238W        W61663  41.826  25.968  13.057
89239W        W61664   1.095   4.165  10.680
89240W        W61665  18.899   5.295   2.055
89241W        W61666  36.612  16.501   0.718
89242W        W61667   8.186  15.128   3.372
89243W        W61668  22.474  10.739  10.736
89244W        W61669  14.715  28.262   4.638
89245W        W61670  17.560  38.226  14.400
89246W        W61671  42.384  23.513   2.185
89247W        W61672  31.771  19.779   3.275
89248W        W61673  20.016  12.963   4.383
89249W        W61674  10.257   5.746   3.665
89250W        W61675  18.789  25.623  13.825
89251W        W61676  30.327  17.562   4.758
89252W        W61677   9.951  14.599   0.967
89253W        W61678  34.803  42.422   4.219
89254W        W61679  37.400  22.256   1.966
89255W        W61680  11.183   7.745   1.286
89256W        W61681  24.619  41.955   2.257
89257W        W61682  21.146   0.823   1.862
89258W        W61683   9.288   5.244   4.596
89259W        W61684  29.995  34.833   2.764
89260W        W61685  21.436  17.660  14.448
89261W        W61686   1.438  14.679   2.477
89262W        W61687  15.069  23.568   2.935
89263W        W61688  33.319   2.251  11.782
89264W        W61689  10.668   3.378  12.851
89265W        W61690  29.642  17.012   0.491
89266W        W61691   2.449   6.128  14.405
89267W        W61692  35.176  32.040  11.401
89268W        W61693  12.613  33.620   1.758
89269W        W61694  19.751  40.841   1.736
89270W        W61695  14.642   3.284  10.189
89271W        W61696  16.554  29.774  10.723
89272W        W61697  30.651  18.111   3.795
89273W        W61698  44.223  28.971   1.496
89274W        W61699  40.050  24.622   3.613
89275W        W61700  27.077  43.872  11.832
89276W        W61701   8.309  27.216   4.198
89277W        W61702  20.475   4.904   4.469
89278W        W61703  12.049  37.483   5.049
89279W        W61704  36.752  25.401  14.886
89280W        W61705  37.512  16.934  11.380
89281W        W61706   7.831   5.429  11.833
89282W        W61707  12.408  16.772   3.166
89283W        W61708   1.810  40.422   1.915
89284W        W61709  10.445   2.175  13.262
89285W        W61710   0.923  22.792   1.783
89286W        W61711  14.317  27.919   4.741
89287W        W61712  36.324  32.924   1.772
89288W        W61713  28.716  39.760  12.445
89289W        W61714   8.310  20.328   1.187
89290W        W61715  36.588  12.658  12.096
89291W        W61716  41.310   9.106   1.428
89292W        W61717   3.658  30.056  11.894
89293W        W61718  33.141  11.259  11.262
89294W        W61719  39.637  10.596   0.899
89295W        W61720  19.752  19.544  12.449
89296W        W61721  37.117  38.059   3.320
89297W        W61722  22.939  12.329   4.654
89298W        W61723   6.421  35.583   2.783
89299W        W61724  31.498  36.016  10.870
89300W        W61725   8.698  26.139  12.914
89301W        W61726  28.411  44.550   0.301
89302W        W61727   3.906  21.761   0.747
89303W        W61728   2.895   4.814   3.883
89304W        W61729  24.985  24.139   3.563
89305W        W61730  22.605  44.376  11.628
89306W        W61731  30.586  43.918   0.038
89307W        W61732  16.375  20.228  12.554
89308W        W61733  10.383  35.208   1.909
89309W        W61734  30.213  16.316  13.010
89310W        W61735   0.891  40.387  10.450
89311W        W61736  12.402  31.627  13.570
89312W        W61737   1.426   1.355   2.227
89313W        W61738  10.885  38.291   4.151
89314W        W61739   9.984  28.575   3.607
89315W        W61740   7.615   7.178   4.740
89316W        W61741  25.137  38.534   1.793
89317W        W61742  38.150  28.124   0.563
89318W        W61743  27.743  42.132   2.302
89319W        W61744  40.967   7.398  11.120
89320W        W61745  39.863   1.065  12.808
89321W        W61746  38.991  18.339  11.078
89322W        W61747  26.758   4.133  10.026
89323W        W61748  28.609   8.737  10.977
89324W        W61749  43.499   4.351   2.232
89325W        W61750   3.896  17.948   5.078
89326W        W61751  39.492  31.999  14.339
89327W        W61752  42.062  42.358  10.810
89328W        W61753   1.802  37.859  14.142
89329W        W61754   3.020   5.427   1.706
89330W        W61755  33.155  21.717   1.925
89331W        W61756  13.867  27.640  12.675
89332W        W61757  29.537  43.570   0.522
89333W        W61758   3.958  12.324   4.653
89334W        W61759  33.525  22.254  13.000
89335W        W61760  30.133  17.609   1.759
89336W        W61761  27.576  15.808  12.153
89337W        W61762  19.720  42.007   0.205
89338W        W61763  40.945  35.607  12.050
89339W        W61764   0.449   8.909   3.303
89340W        W61765   5.321  34.450   2.832
89341W        W61766  26.466   9.073   2.486
89342W        W61767  40.350  17.124  14.035
89343W        W61768  32.307  20.898   4.106
89344W        W61769   5.373  26.876   0.735
89345W        W61770  25.953  21.290   1.733
89346W        W61771  15.729  23.155  10.581
89347W        W61772  41.839  25.088  13.455
89348W        W61773  37.487  31.837   0.417
89349W        W61774   8.667  14.599   1.237
89350W        W61775  28.620  30.174  13.363
89351W        W61776   8.960  20.522  13.994
89352W        W61777  41.525   0.013  12.485
89353W        W61778  14.152  35.140   4.686
89354W        W61779  21.602  12.352   3.555
89355W        W61780   2.373  12.152   4.600
89356W        W61781  27.192  14.060  13.841
89357W        W61782   9.644  16.128  14.929
89358W        W61783  16.103  19.521  12.967
89359W        W61784  12.768  14.899  12.039
89360W        W61785  43.391  13.719   0.504
89361W        W61786  30.514   6.752  12.596
89362W        W61787  32.892   2.424   0.192
89363W        W61788  20.813  35.527   4.873
89364W        W61789  16.798  22.337  11.500
89365W        W61790  19.418   3.297   3.696
89366W        W61791   3.668  44.367   1.318
89367W        W61792  20.700   3.149   4.600
89368W        W61793  12.615   8.122  13.156
89369W        W61794  29.738  17.157  13.010
89370W        W61795  15.016  11.234  11.405
89371W        W61796   3.097  43.335   4.562
89372W        W61797  42.031  29.653  14.448
89373W        W61798  37.910  10.163  10.661
89374W        W61799   7.799  22.615   3.672
89375W        W61800  11.756  38.338  12.519
89376W        W61801  13.763  32.655  13.328
89377W        W61802  19.800  44.933   3.338
89378W        W61803  33.574  17.165   4.502
89379W        W61804   7.411  21.027   3.733
89380W        W61805   0.808  10.530  12.062
89381W        W61806  27.250  22.179  10.745
89382W        W61807  13.793  18.643  12.147
89383W        W61808  20.844  22.537   0.205
89384W        W61809  18.280  38.098   0.935
89385W        W61810  31.458  13.154  11.000
89386W        W61811  32.403   9.224  14.574
89387W        W61812  25.591  22.901  11.121
89388W        W61813  41.278  32.917   3.278
89389W        W61814  34.862  22.530  13.512
89390W        W61815  26.150  36.454   1.942
89391W        W61816  39.511  31.690   1.242
89392W        W61817  22.566   0.579  11.190
89393W        W61818  13.211  35.572  11.022
89394W        W61819  28.648  40.941   4.475
89395W        W61820  36.331  29.369   1.888
89396W        W61821  25.159  27.889   1.309
89397W        W61822  39.921  30.853   1.455
89398W        W61823  34.315  37.406   1.681
89399W        W61824  34.233   7.291  14.401
89400W        W61825   5.546   5.982  12.050
89401W        W61826  22.656  12.420   0.154
89402W        W61827  22.540  32.540   1.686
89403W        W61828  10.110   1.281   1.725
89404W        W61829  19.633   5.868   0.382
89405W        W61830   4.492  30.707  12.280
89406W        W61831   9.619  10.229   0.256
89407W        W61832   0.259  21.771   4.610
89408W        W61833  25.390  38.959   1.969
89409W        W61834  13.328   2.500  13.829
89410W        W61835  31.826   1.455  10.440
89411W        W61836  25.448  32.443   3.607
89412W        W61837  43.577  44.410  12.507
89413W        W61838  33.011  37.411  12.156
89414W        W61839  30.730   0.204   2.229
89415W        W61840   9.291  18.811  14.322
89416W        W61841  24.536  41.679  11.046
89417W        W61842  10.283  21.687  12.841
89418W        W61843   8.896  25.700  11.084
89419W        W61844  40.036  33.726   1.823
89420W        W61845   7.903   6.457   1.701
89421W        W61846  17.684  16.331   3.186
89422W        W61847  33.128  32.597  14.947
89423W        W61848  17.263  23.082   0.773
89424W        W61849   1.700  15.195   0.664
89425W        W61850  42.391  37.399   0.416
89426W        W61851  19.841  30.549   0.274
89427W        W61852   3.845  23.906  12.573
89428W        W61853  31.038   3.440  13.536
89429W        W61854  35.404  17.322  14.368
89430W        W61855  35.053  32.040  12.830
89431W        W61856  39.203   1.011  12.589
89432W        W61857  13.326  10.825  11.919
89433W        W61858   1.298  38.878  12.881
89434W        W61859  23.454  39.320  12.574
89435W        W61860  44.814  19.184  12.238
89436W        W61861  41.244  44.410  13.057
89437W        W61862  19.684  25.324   4.634
89438W        W61863  37.781  23.864  10.228
89439W        W61864  36.144  22.564  14.484
89440W        W61865  10.132   1.774  10.622
89441W        W61866  28.588  11.875   1.438
89442W        W61867  25.018  43.294   1.132
89443W        W61868   1.181  20.832  14.308
89444W        W61869  19.460  32.114   2.847
89445W        W61870  41.817  17.782   2.301
89446W        W61871  25.796   7.049  10.944
89447W        W61872  16.019   2.345  13.548
89448W        W61873  14.061  39.367  10.883
89449W        W61874  14.039  44.900  11.367
89450W        W61875   8.080  11.128   2.747
89451W        W61876   0.250  11.935  12.636
89452W        W61877  42.388  14.134  13.069
89453W        W61878  20.067  10.119  11.147
89454W        W61879  43.227  17.295   1.248
89455W        W61880  12.753  29.944  11.837
89456W        W61881  22.143  12.476  13.471
89457W        W61882  31.808  37.852  11.089
89458W        W61883  26.914  36.152  12.460
89459W        W61884  33.408   1.715   0.114
89460W        W61885  10.253  38.275  12.974
89461W        W61886  20.682  31.421   1.748
89462W        W61887  18.601   4.288   4.917
89463W        W61888  31.500  29.269   2.649
89464W        W61889  41.794  10.913  11.399
89465W        W61890  15.662  41.611  11.998
89466W        W61891  22.582   5.868  12.649
89467W        W61892  42.384  15.307   1.362
89468W        W61893   5.305  16.617  14.433
89469W        W61894  36.351   0.248  14.271
89470W        W61895   7.709  38.386  10.616
89471W        W61896  26.101  13.645  14.092
89472W        W61897  21.797   1.975   2.856
89473W        W61898  36.309  14.174  14.481
89474W        W61899  40.077  17.789  13.820
89475W        W61900  33.784  21.750  14.474
89476W        W61901  42.235  42.004  13.433
89477W        W61902  11.003  24.589   1.877
89478W        W61903  31.517  30.754   2.305
89479W        W61904  27.401   6.229   3.548
89480W        W61905  14.293  32.852  11.573
89481W        W61906   3.804  27.321   2.898
89482W        W61907  13.390  40.230   2.763
89483W        W61908  28.212   3.163  14.355
89484W        W61909  40.585   6.259  11.694
89485W        W61910  38.517  33.069  11.055
89486W        W61911  23.545  40.848   3.302
89487W        W61912  25.033   5.577   1.129
89488W        W61913  17.333  40.859   3.376
89489W        W61914  36.557  35.495   3.742
89490W        W61915  30.632   1.013  14.272
89491W        W61916   2.016  13.843  13.104
89492W        W61917  15.629   4.238   9.897
89493W        W61918   9.164  38.907   0.918
89494W        W61919   4.440  42.033  11.917
89495W        W61920  23.714   5.837   1.384
89496W        W61921  39.119  43.588   4.700
89497W        W61922  41.782  25.523  12.071
89498W        W61923  23.647  28.118   3.888
89499W        W61924  27.462  41.305   0.193
89500W        W61925  19.516  39.145   4.089
89501W        W61926  38.854  30.465  14.308
89502W        W61927   1.013   1.689  14.503
89503W        W61928  28.239  18.662  14.403
89504W        W61929   9.086  13.344   1.854
89505W        W61930   8.136  38.255  11.279
89506W        W61931  22.992  23.612   2.749
89507W        W61932   8.451  34.310  13.339
89508W        W61933  13.564  17.173  12.493
89509W        W61934  30.004  22.713   2.570
89510W        W61935  31.678  35.146   1.215
89511W        W61936  39.329  15.552   5.312
89512W        W61937  15.342  44.471  13.829
89513W        W61938   0.683  32.162   2.909
89514W        W61939  42.454   3.312  13.071
89515W        W61940  21.731   8.253   1.862
89516W        W61941  37.968  36.872  12.896
89517W        W61942   8.780  10.168  13.034
89518W        W61943  31.474  27.191  11.438
89519W        W61944  36.991  42.822  10.660
89520W        W61945  40.884  42.816  14.955
89521W        W61946  20.226  10.737  10.487
89522W        W61947   4.522  31.775  10.284
89523W        W61948  19.982  19.189  10.439
89524W        W61949  29.689  44.277   2.091
89525W        W61950  10.671  25.423   3.228
89526W        W61951  28.499  20.304   4.733
89527W        W61952   0.982  26.013  12.670
89528W        W61953  32.029  13.145   4.523
89529W        W61954  26.919  15.329  13.976
89530W        W61955  44.294  36.477  11.493
89531W        W61956   3.276  19.989  13.652
89532W        W61957   6.249  37.363  14.396
89533W        W61958  27.123  35.057  13.905
89534W        W61959  37.310  16.524   1.227
89535W        W61960  29.953  38.095   3.139
89536W        W61961  32.415  24.789  12.872
89537W        W61962  23.286  11.693   1.649
89538W        W61963  40.892   8.425  14.447
89539W        W61964   4.298   6.192  11.363
89540W        W61965   9.704  15.053   3.213
89541W        W61966   0.814   6.405  14.924
89542W        W61967  42.030  18.511   4.146
89543W        W61968  28.780  39.605   3.207
89544W        W61969  27.870  15.240  10.440
89545W        W61970   7.798  39.637  13.852
89546W        W61971  24.036  15.110  11.461
89547W        W61972  16.589  42.417   4.154
89548W        W61973  11.729   5.729  11.609
89549W        W61974  11.181   7.869  11.116
89550W        W61975  36.449  32.056   1.281
89551W        W61976  44.686  17.229  14.957
89552W        W61977  24.127  32.983   0.153
89553W        W61978  39.508   6.997   4.723
89554W        W61979  26.724  23.657   0.793
89555W        W61980  27.136  17.599   0.243
89556W        W61981  35.122  19.432  12.576
89557W        W61982   6.013  32.568  14.299
89558W        W61983  22.068  38.272   0.462
89559W        W61984   2.431  21.809   1.492
89560W        W61985  41.867  43.856  13.303
89561W        W61986   4.290  36.906  13.958
89562W        W61987   6.276  17.959  13.930
89563W        W61988  41.910  37.119   1.400
89564W        W61989  19.816  25.527  10.821
89565W        W61990  25.769  22.879   3.435
89566W        W61991  37.933  44.939   2.361
89567W        W61992  28.963   0.400   2.529
89568W        W61993   5.405  44.828  10.953
89569W        W61994  43.416  16.144  11.927
89570W        W61995  21.490  32.998   0.905
89571W        W61996  22.054  32.716   1.742
89572W        W61997  23.495  25.964  10.904
89573W        W61998  44.744   3.721  14.971
89574W        W61999  36.331   7.463   3.764
89575W        W62000  11.179  26.042   2.291
89576W        W62001  43.489  43.833   1.970
89577W        W62002   6.300  15.992  10.548
89578W        W62003  11.651   0.321   3.648
89579W        W62004  30.631  32.522   4.410
89580W        W62005  17.055  19.010  12.919
89581W        W62006  35.510  34.447  13.542
89582W        W62007  14.267  44.381   5.059
89583W        W62008  22.460  13.233   2.794
89584W        W62009  40.264  27.202  14.881
89585W        W62010  41.760  29.470  13.295
89586W        W62011  19.345  41.942   0.884
89587W        W62012  40.043  21.198   1.899
89588W        W62013  38.535  44.830   4.550
89589W        W62014   1.485  22.051  12.801
89590W        W62015  12.059   2.191  12.450
89591W        W62016  35.378   8.921   1.600
89592W        W62017  41.286   6.059  14.347
89593W        W62018  16.576  15.598   2.161
89594W        W62019  18.801  42.130   5.033
89595W        W62020  26.064  39.074  14.522
89596W        W62021  11.791  36.492  10.689
89597W        W62022  14.717  21.979  11.659
89598W        W62023   8.756   9.821  12.194
89599W        W62024   7.802  22.026  10.735
89600W        W62025  31.094  20.813   2.757
89601W        W62026  39.951   0.578   0.532
89602W        W62027  12.764  33.594   1.254
89603W        W62028  22.603  20.473   1.508
89604W        W62029  32.023  44.465   2.821
89605W        W62030   1.135  26.452   4.085
89606W        W62031   9.196  36.437  14.245
89607W        W62032  25.574  29.735   4.568
89608W        W62033  15.302  22.318   3.278
89609W        W62034  37.390  38.889  10.910
89610W        W62035   9.204   7.179   3.711
89611W        W62036  22.230  18.592  11.566
89612W        W62037  41.233  14.857   0.335
89613W        W62038   3.913  44.859  13.953
89614W        W62039  36.181  17.288  11.180
89615W        W62040  26.691  24.261  10.658
89616W        W62041  34.736   0.268   1.006
89617W        W62042   8.657   8.503  12.171
89618W        W62043  17.178  14.521  11.583
89619W        W62044  25.798  11.990   9.971
89620W        W62045  41.076   1.448  12.449
89621W        W62046  10.766   5.322   2.800
89622W        W62047  18.126  31.669   0.480
89623W        W62048  17.142  29.841  12.178
89624W        W62049  43.860  39.203   3.263
89625W        W62050  43.814  20.128   2.655
89626W        W62051  31.431  28.632  14.434
89627W        W62052  36.292   0.467  14.772
89628W        W62053  14.694   8.263   2.450
89629W        W62054  16.236  42.300   1.400
89630W        W62055   9.731  19.111  12.733
89631W        W62056   4.678  23.007  13.315
89632W        W62057  31.546  10.256  13.558
89633W        W62058  34.280  38.867   0.887
89634W        W62059  35.144  43.134  10.653
89635W        W62060  17.629  19.680   0.789
89636W        W62061  21.402  18.851   2.826
89637W        W62062  16.146  40.397   4.646
89638W        W62063  18.709  30.771   4.721
89639W        W62064  23.253  26.478   1.337
89640W        W62065  24.095  15.348   2.332
89641W        W62066   0.487  29.225   3.178
89642W        W62067  19.161  31.074   3.405
89643W        W62068  18.574  10.919  12.449
89644W        W62069  44.809  12.132  12.876
89645W        W62070  10.169  17.670   3.355
89646W        W62071  16.548  38.788  12.282
89647W        W62072  24.620  10.668   4.772
89648W        W62073  22.487  38.621   1.325
89649W        W62074  21.801  17.105  12.016
89650W        W62075  24.717  41.059   2.138
89651W        W62076   8.258  13.641   2.216
89652W        W62077  38.997   2.727  12.928
89653W        W62078  43.165  42.280   1.919
89654W        W62079  37.350  23.590   2.458
89655W        W62080  12.376   8.429   0.115
89656W        W62081  22.766  36.153   0.848
89657W        W62082  34.029  31.016  12.264
89658W        W62083  12.710  31.718  12.914
89659W        W62084   8.262  18.985   0.273
89660W        W62085  27.646  39.987  11.161
89661W        W62086  28.074   8.218   2.247
89662W        W62087  12.363  39.931  14.430
89663W        W62088  31.423  26.241  14.341
89664W        W62089  20.848  42.915  10.466
89665W        W62090  12.802  37.594   2.251
89666W        W62091  22.574  12.718   2.721
89667W        W62092  14.712   5.752   1.746
89668W        W62093  16.344  26.810   1.486
89669W        W62094  21.691  34.889  13.520
89670W        W62095  28.171  28.724  10.242
89671W        W62096  18.111  30.485   0.956
89672W        W62097   5.379   1.713  12.579
89673W        W62098  43.458  21.219   3.155
89674W        W62099  15.879  41.980   2.683
89675W        W62100  38.431  17.346  13.928
89676W        W62101  12.032  39.287   3.593
89677W        W62102  25.665   5.670   9.888
89678W        W62103  21.866  30.126  13.481
89679W        W62104  25.763  30.876   3.169
89680W        W62105   9.901  13.054   0.064
89681W        W62106  26.616  18.144  14.268
89682W        W62107   6.848   4.809   0.710
89683W        W62108  23.045  31.956   0.825
89684W        W62109  43.336  10.452   2.820
89685W        W62110  34.588  36.419   4.200
89686W        W62111  26.789  33.625   2.843
89687W        W62112  41.460  23.428  12.439
89688W        W62113  27.570  33.289  13.983
89689W        W62114  33.565   2.115   4.239
89690W        W62115  23.916   3.804   0.906
89691W        W62116  22.553  44.988   1.465
89692W        W62117  38.038  17.366  13.410
89693W        W62118  39.766   4.817  13.504
89694W        W62119  26.410  15.608   0.312
89695W        W62120   3.225  22.217   5.369
89696W        W62121  36.843  17.360  10.748
89697W        W62122  36.129  25.210   4.248
89698W        W62123  30.408   1.975   3.661
89699W        W62124  26.593   3.745  12.573
89700W        W62125  21.827  39.321  11.051
89701W        W62126  34.043  13.280   0.870
89702W        W62127   7.635  27.241  12.014
89703W        W62128   8.349  11.557  12.416
89704W        W62129  32.411   2.433  14.479
89705W        W62130  22.990  25.948  10.819
89706W        W62131  16.695  42.056   1.377
89707W        W62132  10.170  16.381  11.229
89708W        W62133  12.112   2.336  14.360
89709W        W62134  13.120   4.923   0.447
89710W        W62135  38.646   7.811   5.019
89711W        W62136   7.216  26.213   3.693
89712W        W62137   9.433  39.352  13.662
89713W        W62138  26.938   4.964  11.093
89714W        W62139  21.215  42.953  13.825
89715W        W62140  39.869  20.803   0.264
89716W        W62141  41.306   7.310  10.749
89717W        W62142  18.183   6.366   3.143
89718W        W62143  31.445  44.376   2.727
89719W        W62144  26.697  26.049   0.930
89720W        W62145  16.173  18.130   0.338
89721W        W62146  14.252   7.456   3.785
89722W        W62147  30.608  41.849  11.022
89723W        W62148   2.678  38.168  14.469
89724W        W62149  17.013  39.188  13.959
89725W        W62150  30.427  17.655   3.876
89726W        W62151  20.596   3.214  11.452
89727W        W62152  14.560   3.787   3.171
89728W        W62153  14.984   2.017   1.876
89729W        W62154  39.824   5.226   1.871
89730W        W62155   6.059  19.627  13.474
89731W        W62156  43.949  40.345  12.816
89732W        W62157  25.946  30.877   0.217
89733W        W62158  37.255  16.018   1.363
89734W        W62159  26.999  29.451  10.856
89735W        W62160  44.977  13.988   0.503
89736W        W62161   0.219  10.544   4.273
89737W        W62162  17.840  11.829  12.948
89738W        W62163   5.172  38.382   1.858
89739W        W62164  37.485  37.438  13.068
89740W        W62165   1.519  27.546   3.251
89741W        W62166  44.227  14.223   3.991
89742W        W62167  21.970   8.968  12.577
89743W        W62168   2.802   6.361  10.657
89744W        W62169   9.267  12.383   4.121
89745W        W62170  42.007  26.936   2.425
89746W        W62171  40.256  24.023  14.899
89747W        W62172   4.219  44.381   4.711
89748W        W62173   9.878  18.994   0.841
89749W        W62174  18.179  31.502  12.952
89750W        W62175  20.224  12.066   4.049
89751W        W62176   9.863  29.888  14.164
89752W        W62177  11.803  25.220  13.933
89753W        W62178   2.845  44.763  12.552
89754W        W62179   5.623  39.381   2.715
89755W        W62180  38.887   9.751   9.815
89756W        W62181  34.398  15.590  11.360
89757W        W62182  10.390  40.433  12.888
89758W        W62183   4.769  28.576   2.162
89759W        W62184  38.832  18.029   4.513
89760W        W62185   4.651   4.211  14.372
89761W        W62186   6.292  12.678  10.869
89762W        W62187  11.647  29.181  11.144
89763W        W62188  35.451   7.150   5.147
89764W        W62189  15.684   3.838   1.803
89765W        W62190  34.114   1.490   2.229
89766W        W62191   4.295  33.932  14.784
89767W        W62192  17.815  40.461   2.782
89768W        W62193  12.089   1.970   4.564
89769W        W62194  34.801  41.816   2.180
89770W        W62195  12.336  28.872   1.322
89771W        W62196  39.537  27.282   3.665
89772W        W62197   9.130  18.636   3.744
89773W        W62198  24.156   2.828   4.806
89774W        W62199  15.148   6.173   4.145
89775W        W62200  42.792  42.420   1.538
89776W        W62201   3.419  31.683   4.691
89777W        W62202  29.598  18.718  13.948
89778W        W62203   8.144  34.630  13.942
89779W        W62204  30.261  17.258   3.236
89780W        W62205  36.096  28.549   3.122
89781W        W62206  17.100  31.204  14.910
89782W        W62207  15.560  18.344  11.543
89783W        W62208  20.362   3.011  12.487
89784W        W62209   3.032  31.864  11.129
89785W        W62210  37.003  16.125  14.039
89786W        W62211   5.338  23.239   4.866
89787W        W62212  10.288  27.471  13.853
89788W        W62213  30.601  22.184   0.243
89789W        W62214  15.786  35.928   9.941
89790W        W62215  21.636  25.852   1.328
89791W        W62216  23.166  33.182   4.580
89792W        W62217   9.299  27.032  14.283
89793W        W62218  40.812   7.752   0.947
89794W        W62219  41.710  36.867   2.378
89795W        W62220  17.151   4.289  14.575
89796W        W62221  29.453  14.740  11.669
89797W        W62222  25.977  43.717  14.865
89798W        W62223  36.831  36.350   4.189
89799W        W62224  19.163  22.685   1.816
89800W        W62225  28.003  20.618  14.524
89801W        W62226  14.253  23.154  11.189
89802W        W62227  33.070  11.127  14.824
89803W        W62228   0.340  42.337  11.051
89804W        W62229   6.913   0.336   3.773
89805W        W62230  18.593  36.751  14.562
89806W        W62231  15.330  44.776   3.779
89807W        W62232   7.145  12.073   2.360
89808W        W62233  11.012  20.097   2.913
89809W        W62234  24.274  35.386  11.245
89810W        W62235  33.738  32.060  12.488
89811W        W62236  34.416   7.729   2.845
89812W        W62237   3.359  11.799   1.639
89813W        W62238   4.489  35.378  11.992
89814W        W62239  10.153  33.094   1.344
89815W        W62240  30.572  10.700  11.320
89816W        W62241  41.231  21.221  13.882
89817W        W62242  28.530  21.567   1.389
89818W        W62243  30.733   3.716  12.758
89819W        W62244   2.436  39.963  12.297
89820W        W62245  20.613  42.464  12.189
89821W        W62246  28.730  25.882   1.365
89822W        W62247  10.154   4.195  11.027
89823W        W62248   5.943   7.481  12.067
89824W        W62249  15.105  25.161   1.735
89825W        W62250  28.452  42.978  10.913
89826W        W62251   6.800  42.654   1.336
89827W        W62252  23.679  39.553  14.453
89828W        W62253  27.570  25.764  12.985
89829W        W62254  41.342  11.820  13.271
89830W        W62255  23.741  28.829  12.496
89831W        W62256  29.742   3.490   2.754
89832W        W62257  26.086  35.873   2.811
89833W        W62258  15.847  44.312  14.212
89834W        W62259  29.546   9.684   4.562
89835W        W62260  20.135  30.855   0.917
89836W        W62261  43.866  27.001   1.796
89837W        W62262  37.927  18.606  11.119
89838W        W62263  23.774  24.146   2.795
89839W        W62264   9.185  32.683  14.018
89840W        W62265  41.395  39.848  14.255
89841W        W62266   2.946  24.640   0.730
89842W        W62267  19.214  21.620  12.127
89843W        W62268  44.115  37.590   5.035
89844W        W62269  25.115  40.349  11.648
89845W        W62270   5.948  25.819  10.634
89846W        W62271  20.460  26.115   3.212
89847W        W62272  30.466  23.426   2.194
89848W        W62273  22.117  28.295  14.438
89849W        W62274  40.863  12.841  11.612
89850W        W62275  23.445  18.875   4.880
89851W        W62276  25.529  41.388  13.490
89852W        W62277  37.607  40.146  11.201
89853W        W62278  43.728  42.762  14.731
89854W        W62279  40.269  37.891   2.338
89855W        W62280   0.473   4.338   0.181
89856W        W62281  33.910  44.891  10.714
89857W        W62282  18.175  34.920  10.655
89858W        W62283  12.277  24.804  11.982
89859W        W62284  30.538  42.268   2.164
89860W        W62285   7.663  29.513  10.718
89861W        W62286  21.766  42.212   2.266
89862W        W62287  43.082  26.938  14.866
89863W        W62288  29.736  20.257  14.480
89864W        W62289  17.088  26.155  13.438
89865W        W62290  21.132  20.710   0.179
89866W        W62291   4.711  22.024  14.051
89867W        W62292  21.342  21.542  14.840
89868W        W62293   5.346   8.132  10.720
89869W        W62294  12.163  13.854  13.119
89870W        W62295  26.254  16.506  11.617
89871W        W62296   4.434  23.971   4.063
89872W        W62297   8.707  30.057   4.403
89873W        W62298  25.906  37.835  13.891
89874W        W62299  28.084   6.592   1.438
89875W        W62300   5.379  37.549  11.862
89876W        W62301  26.955   2.926   1.727
89877W        W62302   8.350   2.550  10.704
89878W        W62303   5.320  21.069  14.890
89879W        W62304  24.540  38.637   2.279
89880W        W62305  41.968   8.621   3.991
89881W        W62306  44.260   7.724   5.027
89882W        W62307   0.283   1.765   4.095
89883W        W62308  28.363  15.113  10.463
89884W        W62309   2.518  28.061   1.917
89885W        W62310  42.080  20.087  12.537
89886W        W62311  12.653   7.659  13.424
89887W        W62312  13.498   3.456   4.621
89888W        W62313  15.093   8.632   1.214
89889W        W62314  39.105   1.729  12.037
89890W        W62315  44.108  18.915   4.127
89891W        W62316  25.792   8.683  12.088
89892W        W62317  15.740  35.031  14.310
89893W        W62318  27.682  24.622   3.071
89894W        W62319  15.027  43.950  11.913
89895W        W62320  17.403  24.078   3.760
89896W        W62321  25.007  18.162  14.796
89897W        W62322  21.748  38.915  11.761
89898W        W62323   2.599  19.137   4.916
89899W        W62324  24.195  12.656   0.766
89900W        W62325   8.890  24.510   4.569
89901W        W62326  12.186  40.088   0.702
89902W        W62327  20.093  26.521   4.241
89903W        W62328  25.960  27.660   1.991
89904W        W62329   2.824  43.494   3.090
89905W        W62330  38.378  27.246  12.587
89906W        W62331   0.383  31.503  13.735
89907W        W62332   4.917  43.180   3.560
89908W        W62333  20.929  30.848   0.269
89909W        W62334  44.391   0.762   2.240
89910W        W62335  26.628   0.779   2.775
89911W        W62336  14.412   3.545  12.451
89912W        W62337   8.249  24.061  14.424
89913W        W62338  40.296  19.523   0.439
89914W        W62339  33.548  35.345  14.475
89915W        W62340  21.382  16.300   3.024
89916W        W62341  17.535  13.264   3.676
89917W        W62342  26.664  38.541   1.180
89918W        W62343  39.602  23.698   3.409
89919W        W62344  15.105  10.179   1.259
89920W        W62345   2.516  44.945  10.567
89921W        W62346   8.736  32.632   1.393
89922W        W62347  18.260  11.346   1.225
89923W        W62348  28.388   4.342  13.332
89924W        W62349  16.113  11.396   1.043
89925W        W62350  31.595   2.722   2.140
89926W        W62351  31.855  29.619   2.896
89927W        W62352  24.227   8.280   0.281
89928W        W62353  39.030  27.201   2.158
89929W        W62354  11.154  25.925  11.188
89930W        W62355  15.770   3.011   1.317
89931W        W62356  19.221  28.419  12.033
89932W        W62357  13.844  31.429   3.651
89933W        W62358   3.339  35.416  14.550
89934W        W62359  19.705  41.386   1.943
89935W        W62360   0.015  43.866   2.608
89936W        W62361  13.728  22.589   0.881
89937W        W62362   9.318  25.193   1.423
89938W        W62363   3.715  23.056  13.451
89939W        W62364   2.503  16.676   0.438
89940W        W62365  25.249  11.146   3.729
89941W        W62366  30.416  41.812  12.638
89942W        W62367  17.213  40.444   3.675
89943W        W62368  22.846  30.540  13.380
89944W        W62369  38.536  17.201   9.964
89945W        W62370   8.315  22.525   2.765
89946W        W62371  39.914  14.768   3.202
89947W        W62372  37.769   2.489  12.971
89948W        W62373  36.638   1.967   0.974
89949W        W62374  11.100  31.660  13.812
89950W        W62375  36.772  12.085   4.708
89951W        W62376  23.719  33.984  13.375
89952W        W62377  42.010  35.614   2.352
89953W        W62378  23.258   0.868   2.218
89954W        W62379  14.383  44.778   1.134
89955W        W62380  36.664   8.181   0.294
89956W        W62381  24.693  22.617  11.747
89957W        W62382  33.669  18.178  14.825
89958W        W62383  33.923  36.406  11.770
89959W        W62384   3.397  14.373   5.105
89960W        W62385  34.311  42.637   4.751
89961W        W62386  38.021  10.009  10.091
89962W        W62387   0.408   8.335   4.156
89963W        W62388  19.097   3.872   4.860
89964W        W62389  37.849  22.438  14.427
89965W        W62390  32.482  39.794  14.798
89966W        W62391   8.364   4.316  13.004
89967W        W62392  13.813  43.289  12.084
89968W        W62393  32.144   0.856   1.535
89969W        W62394  26.911  23.545  14.932
89970W        W62395  23.076   3.778   1.404
89971W        W62396  16.181  14.382  10.723
89972W        W62397  31.866   0.495  14.938
89973W        W62398  13.319   6.692   2.593
89974W        W62399  23.756  40.494  12.148
89975W        W62400  28.116   4.258  10.591
89976W        W62401  12.659  39.317  14.922
89977W        W62402  42.781  21.720  10.342
89978W        W62403  30.139  30.707   2.053
89979W        W62404  25.668  40.986   1.764
89980W        W62405  16.690  40.404  11.678
89981W        W62406  16.261  18.987  11.861
89982W        W62407  30.685  44.445  14.968
89983W        W62408  11.219  35.845   3.854
89984W        W62409  18.523  26.220  14.882
89985W        W62410  12.081  11.392  14.679
89986W        W62411   8.993   6.174   3.702
89987W        W62412  41.969  17.814  10.954
89988W        W62413  24.050  14.527  13.187
89989W        W62414  28.283   9.347  12.962
89990W        W62415   6.004  43.555   0.755
89991W        W62416  38.590  26.643   3.189
89992W        W62417  35.278  43.733  12.033
89993W        W62418  11.189  27.002  12.082
89994W        W62419   3.849  21.252   1.697
89995W        W62420   8.892  29.900  13.843
89996W        W62421  44.959  17.540  14.109
89997W        W62422  44.876  33.193  11.011
89998W        W62423  10.309  15.600  14.808
89999W        W62424  37.920  10.893   2.711
90000W        W62425   7.267  35.327  13.352
90001W        W62426  28.589  44.349  12.879
90002W        W62427  40.061   3.411   0.744
90003W        W62428  34.894  16.077  14.232
90004W        W62429  30.943  15.353   1.336
90005W        W62430   8.168   3.366  12.889
90006W        W62431  10.081  34.267  11.588
90007W        W62432   9.199   6.681   2.403
90008W        W62433   0.294   1.875  11.807
90009W        W62434  28.426  10.455  12.396
90010W        W62435  10.180  39.568   3.103
90011W        W62436  17.921  30.433   2.634
90012W        W62437  14.331  15.593   0.784
90013W        W62438  27.932   1.283   2.857
90014W        W62439   3.008  13.711   1.852
90015W        W62440   3.840  14.526   1.702
90016W        W62441   2.164  18.877  11.587
90017W        W62442  36.195  36.466  10.745
90018W        W62443  17.173   2.355  11.556
90019W        W62444  27.576   7.468  14.006
90020W        W62445  23.160  43.930  11.455
90021W        W62446  28.141   6.874  13.522
90022W        W62447  33.632  36.868  11.825
90023W        W62448   8.266  11.360   4.352
90024W        W62449  35.977   0.684  12.075
90025W        W62450  29.208   5.282   0.014
90026W        W62451   6.290  14.345   3.441
90027W        W62452  29.618  43.955   4.229
90028W        W62453  35.846  28.635  14.404
90029W        W62454   6.891  29.628  14.284
90030W        W62455  29.176  10.086   2.800
90031W        W62456  38.339  32.153  14.820
90032W        W62457  19.798  35.780  11.985
90033W        W62458  18.764   9.812   1.067
90034W        W62459  41.805  40.446  10.271
90035W        W62460  39.087  25.103   3.162
90036W        W62461  22.586   6.893   4.345
90037W        W62462  30.580  28.550   4.967
90038W        W62463  41.102  41.288  14.334
90039W        W62464  32.513  10.336  13.047
90040W        W62465  25.553  31.188  12.379
90041W        W62466   4.549   7.890   1.518
90042W        W62467  39.389   9.602  12.598
90043W        W62468   2.693  19.313   3.664
90044W        W62469  22.715  12.895  14.970
90045W        W62470   9.028   2.355   2.642
90046W        W62471  37.278  33.553  10.037
90047W        W62472  31.729  13.823  14.774
90048W        W62473  44.107   0.460   3.031
90049W        W62474   0.883  35.267   4.621
90050W        W62475   0.901  14.294   0.816
90051W        W62476  12.573  12.368  12.889
90052W        W62477  41.766  44.732   4.158
90053W        W62478   1.112  10.580  14.353
90054W        W62479  37.605  32.579   1.724
90055W        W62480  18.165  15.679  13.880
90056W        W62481  24.227  13.709  11.606
90057W        W62482  18.006   5.514   0.439
90058W        W62483  17.761  42.672  12.127
90059W        W62484  34.386   8.747  10.285
90060W        W62485  24.155  10.870  12.240
90061W        W62486  19.639   4.900   3.702
90062W        W62487   7.180  19.161  10.723
90063W        W62488  38.944  35.499   3.710
90064W        W62489  39.412  43.448  11.085
90065W        W62490  13.278   2.698  11.457
90066W        W62491  40.824   5.907   4.156
90067W        W62492  23.511   5.272   1.247
90068W        W62493  15.693  28.686   4.129
90069W        W62494  10.716  44.765  12.113
90070W        W62495  33.299   1.841   1.710
90071W        W62496  21.671   8.154  12.427
90072W        W62497  25.439   7.932  12.521
90073W        W62498  28.216  21.430   4.514
90074W        W62499  16.008   6.687   3.219
90075W        W62500  40.432  17.537   3.723
90076W        W62501  13.402  42.848   4.084
90077W        W62502   7.266  17.274  12.093
90078W        W62503  15.165  32.171  13.390
90079W        W62504  44.208  17.444   3.378
90080W        W62505  23.511  35.372  14.456
90081W        W62506  22.719  34.021  10.652
90082W        W62507  40.106   2.424  11.564
90083W        W62508  12.631   5.892   1.793
90084W        W62509  22.555   1.202   4.140
90085W        W62510  33.191  39.684   3.187
90086W        W62511  18.142  32.619   0.241
90087W        W62512  27.711  28.129   4.606
90088W        W62513  37.964  23.091   1.285
90089W        W62514  42.818  41.497   4.621
90090W        W62515  40.875   8.564   2.185
90091W        W62516  35.531   4.703   0.832
90092W        W62517  30.114  37.420   1.382
90093W        W62518  25.370  44.896  14.601
90094W        W62519  21.052   7.474  13.463
90095W        W62520  39.183  38.445  11.574
90096W        W62521  29.423   5.323  11.243
90097W        W62522  13.311  25.693   2.425
90098W        W62523   9.344   2.999   3.223
90099W        W62524  12.488  23.633   1.017
90100W        W62525  44.798  41.190   1.977
90101W        W62526  18.983   1.193   3.604
90102W        W62527  39.521  28.607   2.927
90103W        W62528  43.227  27.161   4.627
90104W        W62529  22.001  19.329   2.214
90105W        W62530  23.292  43.378   1.713
90106W        W62531   4.965  43.295   2.325
90107W        W62532  12.256  32.176  12.490
90108W        W62533   6.692  21.028   1.245
90109W        W62534  24.393  14.461  10.359
90110W        W62535  14.765  35.247  10.179
90111W        W62536  19.040  35.473  14.468
90112W        W62537  26.127  42.871  13.814
90113W        W62538  17.324  39.031   1.793
90114W        W62539  41.288  25.777  13.765
90115W        W62540  38.234   3.363   0.408
90116W        W62541   5.828  30.011  11.515
90117W        W62542  24.027  11.872  14.709
90118W        W62543   3.871  13.780  12.053
90119W        W62544  32.147  33.891  10.807
90120W        W62545   7.225  32.452  14.934
90121W        W62546  15.708  13.632   1.175
90122W        W62547  13.955  30.483   0.934
90123W        W62548  38.408  12.383   0.861
90124W        W62549  33.023  35.905  13.393
90125W        W62550  38.539  43.468  10.639
90126W        W62551  43.382  13.069   4.516
90127W        W62552  29.271  38.474   9.826
90128W        W62553  38.348   6.256  11.161
90129W        W62554  35.860   4.756  14.429
90130W        W62555  21.861  29.657   0.868
90131W        W62556  21.032   7.695   4.075
90132W        W62557  36.358   2.652  11.888
90133W        W62558  42.566   5.985  11.496
90134W        W62559  28.598   6.781   1.312
90135W        W62560   5.480  34.583   4.499
90136W        W62561  39.184  27.574  11.562
90137W        W62562   6.079  13.222   1.401
90138W        W62563  33.541  22.950   0.340
90139W        W62564  31.372  37.419   4.574
90140W        W62565  17.517   5.717  13.846
90141W        W62566   7.438  37.781  14.864
90142W        W62567   3.352  25.592   1.511
90143W        W62568  12.906  37.608  13.572
90144W        W62569  27.603  20.089   4.676
90145W        W62570  34.842  10.879   4.541
90146W        W62571  27.203  25.468   4.118
90147W        W62572  27.062  24.483   0.323
90148W        W62573  21.869  22.956  14.445
90149W        W62574   0.597  14.537  11.368
90150W        W62575   7.947  28.712  11.102
90151W        W62576   4.678  24.995   1.737
90152W        W62577  16.450  32.230  10.143
90153W        W62578  12.797  36.437  13.371
90154W        W62579  42.227  36.955  12.173
90155W        W62580   8.657  28.654   3.253
90156W        W62581  20.247  23.084  12.629
90157W        W62582   0.436   6.445  14.571
90158W        W62583   0.850  29.458   1.276
90159W        W62584  36.476  24.195  11.082
90160W        W62585   7.499  38.866  10.545
90161W        W62586  43.840  11.868   0.338
90162W        W62587  18.288  25.632  12.874
90163W        W62588  37.897   8.477   0.883
90164W        W62589  21.216   6.405   3.681
90165W        W62590   2.034  44.788  12.115
90166W        W62591  20.609  18.224  12.641
90167W        W62592   4.138  32.156   4.074
90168W        W62593  43.624  32.169   4.598
90169W        W62594  33.293  13.813   3.120
90170W        W62595   8.090  20.378  13.056
90171W        W62596   5.459  18.374  11.123
90172W        W62597   6.749   8.303  11.234
90173W        W62598  22.680  31.741   2.887
90174W        W62599  11.383  37.857   0.930
90175W        W62600  21.590   5.521   3.233
90176W        W62601   6.255  11.591   2.277
90177W        W62602  28.984  25.169  14.733
90178W        W62603   6.657  21.571  13.001
90179W        W62604  25.314   8.822  11.269
90180W        W62605  36.916  40.340  14.546
90181W        W62606  12.656  11.539   3.737
90182W        W62607  12.886  32.939  13.238
90183W        W62608  27.222  21.751  12.290
90184W        W62609  35.533  27.571   3.244
90185W        W62610  19.752  15.418  12.604
90186W        W62611   1.251  42.172  12.113
90187W        W62612  13.626  18.028   3.673
90188W        W62613  41.924  22.903  13.615
90189W        W62614   0.889  31.414  12.036
90190W        W62615   5.812  16.375   2.794
90191W        W62616  34.380   6.786  13.529
90192W        W62617  19.112  38.456   1.795
90193W        W62618  41.882  40.264   3.708
90194W        W62619  16.450  42.290   0.924
90195W        W62620  16.662  23.394  13.549
90196W        W62621  18.966  35.913   0.293
90197W        W62622   0.990  38.970   4.597
90198W        W62623  20.993  27.056   1.854
90199W        W62624  22.082   1.302   2.841
90200W        W62625  39.092  37.521  13.721
90201W        W62626  42.805   0.716  10.667
90202W        W62627   8.245  19.047  14.770
90203W        W62628  29.005  26.059   0.227
90204W        W62629  10.324  38.473  11.939
90205W        W62630  18.059   1.172  11.552
90206W        W62631   7.656  40.926   2.262
90207W        W62632  43.840  21.148  10.839
90208W        W62633  14.174  44.476  12.182
90209W        W62634  12.365  30.197  11.619
90210W        W62635  21.148  32.104   2.382
90211W        W62636  26.545  14.155  11.187
90212W        W62637   3.404  18.848  10.782
90213W        W62638  31.526  38.797   0.173
90214W        W62639  36.910  42.469  12.914
90215W        W62640  26.236  30.238   5.143
90216W        W62641  13.691   7.021   0.016
90217W        W62642  33.590  42.844  14.005
90218W        W62643  31.346  21.475  11.518
90219W        W62644  28.285  32.091  14.726
90220W        W62645   8.619  30.269   1.630
90221W        W62646   5.985   3.306  14.996
90222W        W62647   3.852  11.800  10.682
90223W        W62648  24.162  17.269   4.545
90224W        W62649   8.848  24.969  12.186
90225W        W62650  12.037   0.748   2.338
90226W        W62651  14.151  12.604  13.379
90227W        W62652   9.940   5.966  13.386
90228W        W62653   5.766  43.251   0.398
90229W        W62654  10.223  16.038  14.043
90230W        W62655   5.679  12.861   2.724
90231W        W62656  19.223   6.672   2.608
90232W        W62657  10.505  13.192   4.108
90233W        W62658  23.548  20.263   1.350
90234W        W62659  39.015  12.394   3.458
90235W        W62660  17.686  35.903  10.864
90236W        W62661  16.007  28.961  10.299
90237W        W62662  11.624  18.781   1.917
90238W        W62663  44.953  10.571  12.936
90239W        W62664  20.606  33.376   0.902
90240W        W62665  12.266  32.418  13.079
90241W        W62666   7.914  38.029  14.952
90242W        W62667  22.578   7.195   2.014
90243W        W62668  31.940  32.986   3.010
90244W        W62669  39.606  25.946  11.840
90245W        W62670  14.836  31.680   2.155
90246W        W62671  17.190  31.521  10.981
90247W        W62672  14.580  42.903   0.960
90248W        W62673  41.458  35.499   3.816
90249W        W62674  10.310   3.414   4.129
90250W        W62675  12.482   8.443   3.691
90251W        W62676  30.880   6.316   5.075
90252W        W62677   3.620  26.701   4.983
90253W        W62678  15.064   3.995   0.441
90254W        W62679  12.182  25.496   2.749
90255W        W62680  43.555   7.070   2.659
90256W        W62681  35.545  34.533  10.638
90257W        W62682  15.724  23.498   1.785
90258W        W62683  17.796  31.530   2.766
90259W        W62684  27.145  31.064   9.938
90260W        W62685  29.326  20.257  14.788
90261W        W62686  18.107  24.999   1.832
90262W        W62687  21.596  23.831  14.035
90263W        W62688  17.609   3.596   3.818
90264W        W62689  28.174  40.568  13.509
90265W        W62690  38.052  14.565   2.381
90266W        W62691  30.929  23.126   1.418
90267W        W62692  39.422  28.080   3.620
90268W        W62693   0.154  30.189  10.765
90269W        W62694  10.463  40.539  10.737
90270W        W62695  10.855  23.975  14.399
90271W        W62696  16.167   7.529   3.602
90272W        W62697  33.779  34.399   3.219
90273W        W62698   5.499  43.520  13.020
90274W        W62699  24.419  31.042   3.367
90275W        W62700  30.056  24.082   4.839
90276W        W62701  19.174   8.718  11.472
90277W        W62702  33.200  34.373  13.436
90278W        W62703  20.538   9.998   4.553
90279W        W62704  35.691  25.797  12.453
90280W        W62705  28.575  31.540  11.183
90281W        W62706  26.795  10.474   3.329
90282W        W62707  35.885  10.431   1.186
90283W        W62708   6.482  17.246   2.408
90284W        W62709  13.703  39.777  10.755
90285W        W62710  16.677  14.254  10.668
90286W        W62711  41.955   2.018  13.412
90287W        W62712   4.026  31.582  13.570
90288W        W62713  38.898   0.356  11.258
90289W        W62714  26.469  36.865  13.872
90290W        W62715  15.718  40.718  13.807
90291W        W62716  11.190  10.724   1.681
90292W        W62717   4.199  24.225   0.309
90293W        W62718  31.885  13.553  12.886
90294W        W62719  32.830  22.028  10.742
90295W        W62720  43.774   7.876   2.901
90296W        W62721  14.836   9.905  11.703
90297W        W62722  14.640  20.675  12.071
90298W        W62723  20.249  31.156   1.824
90299W        W62724  41.889  43.025   3.409
90300W        W62725  32.221  33.441   0.708
90301W        W62726  21.336  16.126   2.548
90302W        W62727  13.702  20.537  13.349
90303W        W62728  41.326   6.767  12.658
90304W        W62729   5.938  29.462  10.382
90305W        W62730  10.204  18.985   1.277
90306W        W62731  26.494  43.073   3.695
90307W        W62732  17.055  43.136  10.203
90308W        W62733   3.369  26.644  13.968
90309W        W62734   6.662   0.964  13.530
90310W        W62735  18.584  10.897  13.627
90311W        W62736  12.427  27.509  11.095
90312W        W62737  22.443  15.572   4.209
90313W        W62738  13.610   9.192   3.614
90314W        W62739  26.050  32.689   2.782
90315W        W62740  19.088   7.104   2.840
90316W        W62741  16.773  40.710   1.947
90317W        W62742  13.293  38.512   2.467
90318W        W62743   0.759  23.237   1.579
90319W        W62744   6.790  16.180  10.717
90320W        W62745   5.447  28.428   1.751
90321W        W62746  29.346  29.438   2.778
90322W        W62747  17.079   6.317   4.999
90323W        W62748  39.946  44.945  11.361
90324W        W62749   0.334  26.572   0.352
90325W        W62750  15.312  16.630   0.002
90326W        W62751  42.342  22.159  14.512
90327W        W62752  18.151  10.666   4.154
90328W        W62753   5.509  12.021  14.865
90329W        W62754  42.046  12.778   3.922
90330W        W62755  34.366  36.588  11.525
90331W        W62756   3.349  13.916   4.008
90332W        W62757  44.672  19.660  12.081
90333W        W62758   3.279  28.974  14.361
90334W        W62759   1.033  10.980  12.035
90335W        W62760  27.198   7.225   0.867
90336W        W62761  14.229  16.241   0.992
90337W        W62762  39.224  33.420   2.844
90338W        W62763   6.637  31.460  14.306
90339W        W62764  44.226  28.025  12.020
90340W        W62765  29.091   3.126   4.390
90341W        W62766  12.808   0.323  13.017
90342W        W62767   5.502  24.021  14.856
90343W        W62768  34.867  35.615   3.283
90344W        W62769  28.254  40.054  13.336
90345W        W62770  38.336  44.531   4.153
90346W        W62771   4.677  29.525   3.659
90347W        W62772  34.901   7.646   2.230
90348W        W62773  42.528   9.293   4.337
90349W        W62774   8.768   6.872  13.394
90350W        W62775  19.485  43.863   0.761
90351W        W62776  18.278  20.114  11.177
90352W        W62777  19.234   1.200   2.276
90353W        W62778   3.114  15.247   4.818
90354W        W62779  41.188  20.761  10.213
90355W        W62780   0.350  19.073  12.392
90356W        W62781  30.560  40.525  11.410
90357W        W62782   8.961   2.378   0.818
90358W        W62783  39.371  38.789  11.928
90359W        W62784  29.017  43.348   1.371
90360W        W62785   8.389  20.079  14.798
90361W        W62786  13.076  13.678  10.622
90362W        W62787  43.798  15.260   2.845
90363W        W62788  40.589  29.186  13.817
90364W        W62789   6.148  18.402  13.024
90365W        W62790  17.576  27.541   4.124
90366W        W62791  41.392  32.859  11.526
90367W        W62792   5.870  24.708   2.177
90368W        W62793  43.701  35.000   5.072
90369W        W62794  27.148  25.344   1.569
90370W        W62795  17.369  11.922  12.758
90371W        W62796  20.631  10.354   9.785
90372W        W62797  34.413  21.893  10.536
90373W        W62798  26.633  11.316  12.623
90374W        W62799  29.219  23.703  11.554
90375W        W62800  18.547  36.156   3.839
90376W        W62801   0.567  25.490  11.127
90377W        W62802  11.149   0.323   3.725
90378W        W62803   1.486   7.370  14.103
90379W        W62804  35.911  37.008  12.548
90380W        W62805  35.281  44.023   2.820
90381W        W62806  27.491   2.228  12.031
90382W        W62807  33.980  19.647   2.295
90383W        W62808  42.435  31.740   2.553
90384W        W62809  39.572  22.054   3.622
90385W        W62810   5.971  20.703  10.349
90386W        W62811  32.939  29.705   2.394
90387W        W62812  42.145  17.247   5.040
90388W        W62813  26.185  24.472   1.493
90389W        W62814  17.019  14.430   5.049
90390W        W62815  43.930  37.498   4.037
90391W        W62816  21.285  43.235   0.828
90392W        W62817  27.008  31.322   1.109
90393W        W62818  30.577  18.572   2.786
90394W        W62819  32.152  39.716  11.117
90395W        W62820  27.808  18.138  11.425
90396W        W62821  37.106  22.605   3.154
90397W        W62822  44.457  28.042   0.902
90398W        W62823  33.591  35.537   3.616
90399W        W62824  21.620  14.653  12.791
90400W        W62825  29.933  21.098   2.218
90401W        W62826  37.645  28.087   4.585
90402W        W62827  34.783   7.437  14.840
90403W        W62828  29.392  20.936   1.265
90404W        W62829  18.683  32.408  10.736
90405W        W62830  18.012  32.741   1.140
90406W        W62831  26.513  36.162   2.793
90407W        W62832   4.742  21.269  12.472
90408W        W62833  22.502  29.111   0.335
90409W        W62834  39.582  15.616  14.722
90410W        W62835  37.089   5.163   3.310
90411W        W62836  33.831  23.270  12.672
90412W        W62837  31.373  30.701  11.023
90413W        W62838   0.290  38.313   4.645
90414W        W62839  26.590  44.358  12.556
90415W        W62840  33.596  36.387   3.190
90416W        W62841  12.185   0.763  12.360
90417W        W62842  35.152  42.598   1.764
90418W        W62843  10.832  36.868   0.340
90419W        W62844   8.665  25.081  11.226
90420W        W62845  18.378  39.055   1.767
90421W        W62846  33.817  16.436  10.387
90422W        W62847  39.118  26.671   3.162
90423W        W62848  39.346  34.636   1.091
90424W        W62849  33.452  10.411  14.925
90425W        W62850  23.229  35.478   0.052
90426W        W62851   3.898  25.884   4.226
90427W        W62852  32.560  18.091  10.622
90428W        W62853   0.318  10.766  12.129
90429W        W62854  37.455  25.691   1.749
90430W        W62855  22.588  27.575  12.949
90431W        W62856  19.213  11.608  10.659
90432W        W62857  23.515  27.641  10.708
90433W        W62858  42.336  26.747  13.728
90434W        W62859  17.758  42.178  12.177
90435W        W62860  41.123  21.713  12.496
90436W        W62861  41.910  10.356   9.971
90437W        W62862   0.908  24.857   3.186
90438W        W62863  15.734  24.561   2.893
90439W        W62864  44.894   1.391   3.234
90440W        W62865   0.468  15.123   2.816
90441W        W62866  24.869  18.694  11.705
90442W        W62867  14.193  15.576   3.090
90443W        W62868   9.283  34.793   4.583
90444W        W62869  36.953  30.212  12.817
90445W        W62870  33.363  29.149   3.730
90446W        W62871  30.932  30.456  11.048
90447W        W62872  44.700   3.831   1.819
90448W        W62873  42.260  31.979  14.741
90449W        W62874  14.817  12.919   4.202
90450W        W62875  23.162  27.519   1.324
90451W        W62876   7.765  35.550   3.283
90452W        W62877   5.703  26.250   4.990
90453W        W62878  18.962  41.545  10.660
90454W        W62879  38.583   3.764   1.749
90455W        W62880  21.636   1.490  12.555
90456W        W62881  23.197  35.411   2.423
90457W        W62882  21.780  22.725   1.342
90458W        W62883  13.044  15.992  13.834
90459W        W62884  42.420  25.074  11.506
90460W        W62885  22.785  19.526   2.350
90461W        W62886   4.117  30.646   2.334
90462W        W62887  33.864  13.703  13.479
90463W        W62888  36.145  44.916   2.495
90464W        W62889  28.114  40.225  10.311
90465W        W62890   7.688  12.642  12.802
90466W        W62891  27.888   0.766  12.834
90467W        W62892  39.045   7.920  11.911
90468W        W62893  10.267  32.039  14.853
90469W        W62894  24.745   3.159   2.803
90470W        W62895  36.693  21.974   0.371
90471W        W62896  44.738  35.179   3.276
90472W        W62897  37.010  15.132  13.409
90473W        W62898  42.480  25.038   2.006
90474W        W62899  14.127  21.129   4.098
90475W        W62900  29.656   5.301  14.736
90476W        W62901   6.868  23.703  11.469
90477W        W62902  32.883  31.111  11.971
90478W        W62903  10.622   4.203   0.677
90479W        W62904  29.051  23.213   2.924
90480W        W62905  23.514  28.120   4.886
90481W        W62906   4.698  35.079   3.347
90482W        W62907  35.588  32.041  11.734
90483W        W62908  25.471  15.999   2.066
90484W        W62909  35.593  33.844  12.891
90485W        W62910  41.732   2.268  12.489
90486W        W62911  34.056  21.603  14.914
90487W        W62912  35.758  12.752  14.158
90488W        W62913  15.208   7.579  12.920
90489W        W62914  34.946  13.607  14.310
90490W        W62915   7.475  20.972   4.528
90491W        W62916  26.420  43.946   4.614
90492W        W62917  15.757  20.196   4.454
90493W        W62918  26.703  23.631  11.211
90494W        W62919   5.156  15.131   1.361
90495W        W62920   6.130  37.081   1.691
90496W        W62921  31.156  24.572   1.366
90497W        W62922  11.405  24.133   4.141
90498W        W62923  43.363  17.721   1.503
90499W        W62924  11.926  42.433  12.382
90500W        W62925  40.580  36.851   3.669
90501W        W62926   0.474  28.906  13.383
90502W        W62927   9.933  14.220   4.195
90503W        W62928  10.904   8.718   1.252
90504W        W62929   0.980   7.262  14.869
90505W        W62930   0.512  14.563   2.906
90506W        W62931  18.265  32.168  10.455
90507W        W62932  13.705  34.993  10.480
90508W        W62933  31.470  20.486   3.584
90509W        W62934  28.646  42.994   1.403
90510W        W62935   5.184  20.476  14.204
90511W        W62936  31.602  15.575  13.833
90512W        W62937   3.109  11.187  14.048
90513W        W62938  24.525  34.134   2.422
90514W        W62939  18.087  29.990  13.644
90515W        W62940  42.320   9.664  10.601
90516W        W62941  24.452   1.882   2.335
90517W        W62942  15.350  18.693  12.375
90518W        W62943  31.987  30.553  13.098
90519W        W62944  43.551  44.775  11.897
90520W        W62945  12.874  43.745   4.157
90521W        W62946   9.685  39.337   1.306
90522W        W62947  20.572  16.847   2.878
90523W        W62948  16.716  24.496  11.909
90524W        W62949  15.566   4.381  13.615
90525W        W62950  41.397  34.678  12.055
90526W        W62951  32.468   7.186   2.380
90527W        W62952   4.862  14.209  11.544
90528W        W62953  16.535  18.559   0.814
90529W        W62954  22.618  34.161   2.783
90530W        W62955  12.299  15.143   0.986
90531W        W62956   4.880  43.983  12.459
90532W        W62957  22.236  17.530   1.925
90533W        W62958  10.310  29.147  12.093
90534W        W62959  24.988  28.064   2.854
90535W        W62960  32.579  17.030   4.251
90536W        W62961   9.934  13.045   3.236
90537W        W62962  39.822  23.718  14.082
90538W        W62963  10.377  18.497   1.316
90539W        W62964  16.694  30.558   0.708
90540W        W62965  39.936  16.091  11.909
90541W        W62966  24.920  36.910  11.574
90542W        W62967  29.165  28.245   0.414
90543W        W62968  43.858  16.033  14.055
90544W        W62969   0.708  26.632  12.102
90545W        W62970  32.667  34.850  11.695
90546W        W62971  41.304   8.917   3.380
90547W        W62972  15.563  26.833  13.814
90548W        W62973  21.631  23.490  13.112
90549W        W62974  26.929  19.230  10.642
90550W        W62975  41.373  43.599  14.837
90551W        W62976   8.862  14.710  11.092
90552W        W62977  10.155  41.854  13.785
90553W        W62978   9.240  15.822   1.017
90554W        W62979  17.037  11.863  14.484
90555W        W62980   9.911  31.116  12.444
90556W        W62981  21.926  44.836   3.516
90557W        W62982  27.724   1.476  14.367
90558W        W62983  17.163   8.742  10.674
90559W        W62984  35.105  26.631  11.943
90560W        W62985  21.249  34.961  10.502
90561W        W62986  44.468  34.982   3.714
90562W        W62987  30.090   5.620  14.460
90563W        W62988  38.404  44.910  13.066
90564W        W62989  43.350  27.489  13.618
90565W        W62990  27.542  40.411   0.739
90566W        W62991   5.789  41.355   4.276
90567W        W62992  16.024  32.466  14.055
90568W        W62993  41.956  28.278  13.942
90569W        W62994  24.489  29.063  11.368
90570W        W62995  31.123   2.819  14.245
90571W        W62996   3.424  25.227   3.094
90572W        W62997  30.678  23.325   5.172
90573W        W62998   4.938  33.292   0.952
90574W        W62999  17.583  12.536   4.623
90575W        W63000   8.909  21.194  10.739
90576W        W63001  41.577  23.884  13.742
90577W        W63002   5.382  41.398  11.135
90578W        W63003   4.571  36.508  11.074
90579W        W63004  32.161  14.594   2.275
90580W        W63005   5.806  17.811   0.965
90581W        W63006  29.523  35.894   0.071
90582W        W63007  29.196  28.293   3.142
90583W        W63008  26.560  31.534   3.072
90584W        W63009  16.030  16.797   0.400
90585W        W63010  25.424  38.377  14.771
90586W        W63011  35.835  42.523   4.177
90587W        W63012   7.860  15.620  11.209
90588W        W63013   7.628   5.637   4.719
90589W        W63014   3.896  18.574   4.220
90590W        W63015  34.925   2.411   1.962
90591W        W63016   8.232  44.906  13.471
90592W        W63017   2.810  34.780  14.006
90593W        W63018  31.012  40.745   1.336
90594W        W63019  13.149  33.338  13.012
90595W        W63020   9.134  27.506  14.448
90596W        W63021  26.211  38.627  13.568
90597W        W63022  37.338  16.204   3.728
90598W        W63023  20.683  14.237   2.482
90599W        W63024  40.282  40.075  13.129
90600W        W63025   2.689   1.873   3.736
90601W        W63026  11.474   8.862  13.805
90602W        W63027  39.929   9.220   0.167
90603W        W63028  16.570  14.662  14.506
90604W        W63029  19.748  25.022   4.187
90605W        W63030  32.315  30.098  11.898
90606W        W63031  24.196  35.993  13.382
90607W        W63032  17.730  29.680   4.206
90608W        W63033  16.728  29.112   2.687
90609W        W63034  31.022  12.602   1.348
90610W        W63035   2.811  23.028   4.218
90611W        W63036  35.389   2.734  14.054
90612W        W63037   4.837  35.506  14.330
90613W        W63038  24.551  32.215   0.955
90614W        W63039  41.804  30.977   1.245
90615W        W63040  38.322  36.760  12.160
90616W        W63041  44.283  34.067   5.006
90617W        W63042  14.868  25.397  12.446
90618W        W63043   5.628  28.633   4.462
90619W        W63044   1.231  27.251  14.018
90620W        W63045   3.685   6.635   4.573
90621W        W63046  26.190  22.582   2.206
90622W        W63047  28.968  31.145   2.954
90623W        W63048   7.347  15.320  14.224
90624W        W63049  33.504  16.250  10.873
90625W        W63050  26.393  36.214  12.426
90626W        W63051  20.602  17.298   1.390
90627W        W63052  29.031  13.152   2.767
90628W        W63053  24.081  19.074   3.598
90629W        W63054  16.694  27.392  14.886
90630W        W63055   4.336  38.582   4.838
90631W        W63056  29.785  14.599  14.384
90632W        W63057  31.090  29.604   4.287
90633W        W63058  19.125  42.549  13.068
90634W        W63059  33.529   7.286  11.410
90635W        W63060   3.764  44.180   0.062
90636W        W63061  32.201  26.432  13.416
90637W        W63062  10.341  30.699   2.711
90638W        W63063   5.215   1.714  14.874
90639W        W63064  41.447  28.891  13.783
90640W        W63065   4.437  16.001   0.349
90641W        W63066  10.263  38.370   4.478
90642W        W63067  37.871  33.213   0.488
90643W        W63068   0.202  19.636   2.672
90644W        W63069  33.708  30.362  10.473
90645W        W63070  38.122  44.270   2.864
90646W        W63071  20.778  38.355   0.612
90647W        W63072   0.304  23.649   2.926
90648W        W63073   3.832  29.837  14.754
90649W        W63074   4.315  41.872   1.436
90650W        W63075  25.662  10.625   0.114
90651W        W63076   2.735  44.008   0.886
90652W        W63077  20.558   7.642  12.124
90653W        W63078  11.504  40.097   3.677
90654W        W63079  13.310  36.051  14.089
90655W        W63080  33.826  42.730   4.599
90656W        W63081  17.379   0.327  10.737
90657W        W63082   3.430  31.853   2.636
90658W        W63083  44.976  26.476  14.904
90659W        W63084  41.268   0.965  12.415
90660W        W63085   8.695   8.800   4.897
90661W        W63086  31.408  17.998  14.425
90662W        W63087   9.171  15.261   3.748
90663W        W63088   2.161  23.597  13.856
90664W        W63089   5.936  20.577   3.439
90665W        W63090  10.836  18.586  11.222
90666W        W63091  41.807   0.246   4.703
90667W        W63092  23.602  37.907  11.096
90668W        W63093  14.174  24.608  10.169
90669W        W63094   1.139  44.359   1.257
90670W        W63095   1.254  28.255  11.814
90671W        W63096  25.090  38.819   3.161
90672W        W63097  41.641  29.016   0.899
90673W        W63098  41.903  27.421   1.104
90674W        W63099  11.553  41.025   1.163
90675W        W63100   0.488  20.202  11.886
90676W        W63101   4.138  16.086  13.459
90677W        W63102  17.947   4.775   0.644
90678W        W63103  12.349  21.091   3.020
90679W        W63104  28.382  29.530  12.590
90680W        W63105  29.075  16.169   0.926
90681W        W63106  15.257  20.016  13.863
90682W        W63107  19.579  24.651   3.817
90683W        W63108  23.160   8.667  12.879
90684W        W63109  19.959  20.028  13.083
90685W        W63110  32.715  42.779  13.446
90686W        W63111  14.333  23.765   9.657
90687W        W63112   1.331  44.218  14.960
90688W        W63113  37.120  40.269   4.041
90689W        W63114  20.153  10.179   0.417
90690W        W63115  10.902  24.079   1.808
90691W        W63116   2.135  22.236   1.471
90692W        W63117   1.304   2.740  11.682
90693W        W63118  26.978  32.853   1.908
90694W        W63119  26.051  29.947   5.553
90695W        W63120  25.099  23.900   2.537
90696W        W63121  43.312  24.042  13.875
90697W        W63122  32.754  18.115   1.371
90698W        W63123  12.418  10.370   1.816
90699W        W63124  30.962  24.819  10.792
90700W        W63125  18.982   4.299  14.468
90701W        W63126  19.550  34.508  12.502
90702W        W63127  10.020  13.602   2.848
90703W        W63128  34.635   0.718   0.334
90704W        W63129  29.919  37.745  10.069
90705W        W63130  31.833  41.290  10.164
90706W        W63131  24.496  32.661   0.692
90707W        W63132   8.031  11.905  11.194
90708W        W63133  21.059  39.430   4.412
90709W        W63134  36.050  42.840  11.089
90710W        W63135  34.495  27.371   3.229
90711W        W63136  27.186  26.105  13.896
90712W        W63137  29.943  35.458  12.469
90713W        W63138  10.564  30.424   2.317
90714W        W63139  31.225  20.226  12.864
90715W        W63140  31.411  23.706   2.342
90716W        W63141  10.692   0.284  12.077
90717W        W63142  16.177  15.054  12.938
90718W        W63143  34.501   6.104  14.974
90719W        W63144  33.045  40.474  14.767
90720W        W63145  15.566   1.433  10.995
90721W        W63146  16.542   8.210  14.981
90722W        W63147  25.013   0.405   3.207
90723W        W63148  15.602   8.841   3.832
90724W        W63149  18.756  43.524  14.967
90725W        W63150  41.534  26.251   0.503
90726W        W63151  13.045   5.429   2.348
90727W        W63152  35.459  36.872  14.274
90728W        W63153   4.930  36.399  13.331
90729W        W63154  36.851  39.056   3.504
90730W        W63155  13.548  23.635   1.171
90731W        W63156  23.527  33.687   4.327
90732W        W63157  42.333  23.224  11.747
90733W        W63158  43.542  13.847   3.645
90734W        W63159  38.791   3.451  13.777
90735W        W63160  36.538   4.224  12.056
90736W        W63161  26.126  12.914   1.536
90737W        W63162   5.604  29.360   3.877
90738W        W63163   7.197  38.398  10.574
90739W        W63164  42.062  35.426   0.479
90740W        W63165  38.909  38.293   0.436
90741W        W63166  27.748   8.235   4.126
90742W        W63167  28.986  40.552   0.835
90743W        W63168   6.196  39.744   1.657
90744W        W63169  17.551  38.797  11.458
90745W        W63170   2.874   6.300   0.336
90746W        W63171   2.909   1.884  11.436
90747W        W63172  11.435  16.214   2.649
90748W        W63173  37.523  31.331  13.370
90749W        W63174   4.891   8.249   4.903
90750W        W63175  32.975  15.973   0.978
90751W        W63176  33.366  27.199   1.823
90752W        W63177  38.600  25.940   2.862
90753W        W63178   0.921  44.402   4.089
90754W        W63179  14.612  29.050   9.871
90755W        W63180  41.658   4.425  14.835
90756W        W63181   6.855  10.487  12.430
90757W        W63182  25.188  18.900  12.105
90758W        W63183  18.585  21.319  12.287
90759W        W63184   2.155  38.523  12.851
90760W        W63185   1.009  10.848   3.193
90761W        W63186  35.385  34.582  12.094
90762W        W63187  40.884  34.291  14.125
90763W        W63188   5.626  44.923   1.784
90764W        W63189  27.569  28.672   0.393
90765W        W63190  21.234  11.941  12.160
90766W        W63191  28.671   2.749  10.745
90767W        W63192  44.232  24.537   3.907
90768W        W63193  22.545   1.248  12.427
90769W        W63194  23.463   9.409   4.135
90770W        W63195  44.360  24.076  14.884
90771W        W63196   6.934  33.246   2.064
90772W        W63197  17.993  30.409   4.006
90773W        W63198  26.782  40.716   5.019
90774W        W63199  29.193  35.920   4.126
90775W        W63200   5.195  10.099  11.764
90776W        W63201  18.322  40.628  13.380
90777W        W63202   8.447  11.852   3.271
90778W        W63203  38.585  39.471  11.372
90779W        W63204  36.269  34.791  13.811
90780W        W63205   6.142   9.370  11.518
90781W        W63206   4.218   6.352  14.966
90782W        W63207  14.276  31.290  10.967
90783W        W63208  28.577  31.443   3.169
90784W        W63209  11.310  10.725  10.583
90785W        W63210  26.124   4.163   1.562
90786W        W63211  19.684  26.774   3.087
90787W        W63212  20.025  29.131  14.375
90788W        W63213   1.853  29.397   2.149
90789W        W63214  16.767  36.503   1.910
90790W        W63215  13.658  15.362  11.634
90791W        W63216  20.640  13.439   5.038
90792W        W63217  27.039  26.970   3.371
90793W        W63218   5.380  10.745   0.640
90794W        W63219  37.861  39.277   2.333
90795W        W63220  29.085  37.604  10.908
90796W        W63221   5.151  41.397  12.557
90797W        W63222  20.817  37.264  12.468
90798W        W63223  19.720  32.206  10.729
90799W        W63224  30.741  28.740  11.590
90800W        W63225   2.012  17.266  12.969
90801W        W63226   2.285  34.998  11.883
90802W        W63227  43.925  22.640  12.344
90803W        W63228  30.302  41.932   4.853
90804W        W63229  34.034  19.808   2.786
90805W        W63230  31.845  25.755   1.735
90806W        W63231  27.082   8.225   1.716
90807W        W63232  38.799  14.265  11.925
90808W        W63233  16.095  33.125   5.100
90809W        W63234  17.445   2.030  14.993
90810W        W63235  41.879   7.359  13.964
90811W        W63236  26.355  35.405   0.985
90812W        W63237  11.108  26.467  13.775
90813W        W63238   6.150  29.096  10.716
90814W        W63239  30.110  17.287  11.093
90815W        W63240  37.426  40.601   2.088
90816W        W63241  25.751  14.771   3.139
90817W        W63242  31.206  10.576  12.803
90818W        W63243  29.304  40.162   1.340
90819W        W63244   6.756  32.537  12.931
90820W        W63245   4.012   1.581   4.215
90821W        W63246  23.622   7.422  10.726
90822W        W63247   9.252   3.848  11.550
90823W        W63248  42.580  26.026  11.145
90824W        W63249  25.265  31.387  11.985
90825W        W63250  23.721  35.372   2.340
90826W        W63251   4.466  39.822   0.866
90827W        W63252  16.584  41.804  13.778
90828W        W63253   1.555  31.618   2.121
90829W        W63254   7.719   8.322   1.947
90830W        W63255  26.527  22.211   2.081
90831W        W63256  11.190  43.027   0.464
90832W        W63257   3.487  21.183   0.360
90833W        W63258  22.637  22.998   3.437
90834W        W63259  44.369  25.707  10.671
90835W        W63260   9.424  41.100   4.462
90836W        W63261  41.282   7.139   0.347
90837W        W63262  10.266  32.284  12.616
90838W        W63263  41.024  37.004   2.709
90839W        W63264  39.022  23.963  13.004
90840W        W63265  14.632  23.305  10.885
90841W        W63266  41.100   9.124   4.501
90842W        W63267  43.753  36.502  14.221
90843W        W63268  17.899  10.045  11.602
90844W        W63269  18.931  33.005  10.548
90845W        W63270   5.054  40.977  11.084
90846W        W63271  18.192   9.574  11.689
90847W        W63272   4.181   9.667   4.198
90848W        W63273  33.686  29.728   4.115
90849W        W63274  11.116  32.412   2.524
90850W        W63275   3.697  27.345  13.983
90851W        W63276  32.920  18.935  12.274
90852W        W63277   7.339  37.518  14.420
90853W        W63278  16.540  28.368  12.170
90854W        W63279  21.944   7.663  13.506
90855W        W63280  24.395  37.508  12.534
90856W        W63281   9.849  36.587  13.483
90857W        W63282  44.985  35.965  14.930
90858W        W63283  42.221  15.496  14.296
90859W        W63284   1.328  27.904   1.914
90860W        W63285  30.492  19.755  12.912
90861W        W63286  18.306   9.179  13.910
90862W        W63287  22.607  25.938   4.690
90863W        W63288  38.051  27.293  14.921
90864W        W63289  15.925  33.392  13.431
90865W        W63290  36.781  39.594  13.524
90866W        W63291  41.930  16.078  12.883
90867W        W63292   3.250  20.520   3.211
90868W        W63293   1.817  44.359   4.607
90869W        W63294   7.830   2.775  11.424
90870W        W63295   0.883  15.106   2.270
90871W        W63296  43.295  34.169  12.770
90872W        W63297  32.649  33.383  14.794
90873W        W63298  16.830   6.213  12.123
90874W        W63299  32.383  25.979  10.783
90875W        W63300  32.918  30.452   3.632
90876W        W63301   3.385  19.527   0.229
90877W        W63302  30.924  38.597  11.940
90878W        W63303  39.096   6.926  10.954
90879W        W63304  33.613  37.146  14.201
90880W        W63305   7.725  43.831   0.037
90881W        W63306  24.033  26.536  12.067
90882W        W63307   5.729  25.028   3.747
90883W        W63308  28.060  20.790   1.394
90884W        W63309  36.987  33.104   3.981
90885W        W63310   3.738  43.506   2.703
90886W        W63311  18.109  14.095  11.637
90887W        W63312   1.673  11.803  14.073
90888W        W63313  44.112  32.682  10.572
90889W        W63314  22.873  39.059  13.464
90890W        W63315   5.367  33.903   1.366
90891W        W63316  28.971   0.418   3.036
90892W        W63317  15.275  10.677   0.333
90893W        W63318  25.656  21.349  11.316
90894W        W63319  17.833  29.968   3.798
90895W        W63320   9.115  25.525   3.322
90896W        W63321  40.356   4.816   2.210
90897W        W63322  28.365  29.679   2.588
90898W        W63323   6.191   5.935   3.706
90899W        W63324  20.194  36.992   4.509
90900W        W63325  27.940   1.766   4.040
90901W        W63326  40.493  14.176   3.296
90902W        W63327  33.508  26.647   1.737
90903W        W63328  28.069  33.801  13.364
90904W        W63329   2.193   8.866  14.773
90905W        W63330  32.043  18.454   5.089
90906W        W63331   3.858  29.833   1.426
90907W        W63332  15.204  11.326  10.403
90908W        W63333  30.688   4.367   2.175
90909W        W63334  42.691  13.779  14.649
90910W        W63335  18.746  10.051  11.604
90911W        W63336  34.490  36.656   0.312
90912W        W63337  29.085  19.204  13.499
90913W        W63338  36.650  34.535   9.991
90914W        W63339  35.817  43.512   0.091
90915W        W63340  33.052  12.866  10.734
90916W        W63341   8.649   6.212  12.065
90917W        W63342  16.059  36.936   1.862
90918W        W63343  24.327   6.125  11.237
90919W        W63344  20.541  44.772  14.830
90920W        W63345   9.878   2.032   1.809
90921W        W63346  19.770  17.102   4.834
90922W        W63347   4.136   6.330   1.701
90923W        W63348  10.031  33.808   3.679
90924W        W63349  22.302  17.803  11.722
90925W        W63350  16.199  30.533   0.940
90926W        W63351  44.240   8.734   2.403
90927W        W63352  41.773  12.141   4.741
90928W        W63353   4.694  41.455   1.631
90929W        W63354  22.960  44.963  14.941
90930W        W63355  19.783  36.798   1.887
90931W        W63356  12.713  38.672   3.614
90932W        W63357   6.045   0.319  12.513
90933W        W63358  20.523  12.066  13.964
90934W        W63359  32.526  34.088   2.717
90935W        W63360  41.632  14.557   0.900
90936W        W63361  20.148  38.815  13.812
90937W        W63362  15.725  33.980   2.682
90938W        W63363  41.607   7.644   3.798
90939W        W63364  22.228  19.015  12.379
90940W        W63365   6.320  31.937   1.306
90941W        W63366  26.484  22.148   0.320
90942W        W63367  12.879  20.055  12.038
90943W        W63368  33.486   2.002  10.992
90944W        W63369  23.188  22.036  13.486
90945W        W63370  36.420  14.852   0.593
90946W        W63371  11.750  34.554   2.135
90947W        W63372  27.267  39.535   0.855
90948W        W63373  33.132  28.133   4.675
90949W        W63374   6.813  16.411   4.234
90950W        W63375  20.843  42.061  10.481
90951W        W63376  12.842  41.526  11.510
90952W        W63377  32.871  10.779  11.108
90953W        W63378  17.622   7.422   1.401
90954W        W63379  40.385  36.472  10.539
90955W        W63380  36.936  37.832  11.896
90956W        W63381   9.130  17.717   1.812
90957W        W63382   2.902  19.080   2.090
90958W        W63383   2.985  36.431   3.113
90959W        W63384  18.248  18.797  13.969
90960W        W63385   2.916  43.920   3.391
90961W        W63386  35.367  33.120   4.944
90962W        W63387  20.146   0.196  10.781
90963W        W63388  40.835  22.993  12.144
90964W        W63389  27.130  31.613   0.254
90965W        W63390  31.697  23.548  14.122
90966W        W63391   2.863   6.621   4.075
90967W        W63392  40.465  38.723  13.533
90968W        W63393  28.418   1.755  10.816
90969W        W63394  27.051  29.536  14.004
90970W        W63395   7.549  34.878   0.101
90971W        W63396   7.427   2.952  13.993
90972W        W63397  20.077  20.236   1.299
90973W        W63398  21.649  20.001  13.893
90974W        W63399  33.098  16.768   1.460
90975W        W63400  28.466  42.341   4.451
90976W        W63401  12.407  23.431  12.884
90977W        W63402  32.972  22.951   4.434
90978W        W63403  29.024   9.257  13.338
90979W        W63404  38.315   5.233  12.916
90980W        W63405   1.311  18.276  11.607
90981W        W63406  32.585  12.073   4.104
90982W        W63407   6.008  34.541  13.037
90983W        W63408  37.424  38.016  10.624
90984W        W63409  35.594   1.559   1.408
90985W        W63410  13.868  36.840   3.682
90986W        W63411  38.072  31.748  10.869
90987W        W63412  36.519   0.087  11.599
90988W        W63413  36.456  11.554  11.569
90989W        W63414  37.448  26.680  10.538
90990W        W63415  11.692  32.826   1.237
90991W        W63416  13.556  42.768  11.177
90992W        W63417  11.538  18.376   5.036
90993W        W63418  38.263  11.677   4.883
90994W        W63419  33.824  31.627  12.819
90995W        W63420  39.985  43.872   3.806
90996W        W63421  34.549  34.347   0.962
90997W        W63422  39.833  24.385   0.719
90998W        W63423  30.494  37.068  13.315
90999W        W63424  40.865  44.250   1.829
91000W        W63425   6.303  37.951   2.215
91001W        W63426  11.578  29.565   3.629
91002W        W63427  40.484  16.239   1.652
91003W        W63428  18.382   5.272   1.955
91004W        W63429  28.028  20.423   4.553
91005W        W63430  17.894  36.648  11.100
91006W        W63431  14.872  15.556   3.308
91007W        W63432  42.542  16.572   2.271
91008W        W63433  14.076   5.268  11.622
91009W        W63434  38.971  39.322   3.729
91010W        W63435   5.285  35.447   4.289
91011W        W63436  31.426  41.659   2.633
91012W        W63437  16.849  12.784   3.268
91013W        W63438  43.808  32.382  11.109
91014W        W63439   1.308  44.540  10.939
91015W        W63440  11.274  16.944   1.380
91016W        W63441  18.689  36.589   3.634
91017W        W63442  17.059  15.033  10.636
91018W        W63443  35.872  29.440  14.280
91019W        W63444   0.218  37.158  12.376
91020W        W63445   8.400   3.901  13.991
91021W        W63446  32.576  25.532   4.181
91022W        W63447   1.991  15.126   0.250
91023W        W63448  36.609  16.964  11.066
91024W        W63449  21.221  40.549  10.646
91025W        W63450   2.632  24.688  11.050
91026W        W63451  37.996   4.571  13.914
91027W        W63452  20.553  19.812   3.718
91028W        W63453  24.693  29.016  10.523
91029W        W63454  15.400   8.890  12.201
91030W        W63455  36.589  37.859  14.057
91031W        W63456  16.541  19.265   2.690
91032W        W63457  17.660   9.324  10.908
91033W        W63458   4.666  33.067   1.313
91034W        W63459  23.053   4.275  12.895
91035W        W63460  10.743  12.735  11.418
91036W        W63461   9.529  15.318  11.793
91037W        W63462   4.868  37.430  12.003
91038W        W63463  30.058  23.668  14.915
91039W        W63464  39.956  41.766  12.210
91040W        W63465  22.917  38.095   1.866
91041W        W63466  12.249  35.713  12.263
91042W        W63467  21.683   6.737  14.317
91043W        W63468  31.727  25.692  13.505
91044W        W63469   2.517  32.898   0.545
91045W        W63470  13.678   1.468  10.122
91046W        W63471  40.897   9.565  12.671
91047W        W63472  44.692   8.368   4.622
91048W        W63473  41.324  43.038   1.486
91049W        W63474  19.532  13.679  10.711
91050W        W63475  10.431  40.935   5.169
91051W        W63476   0.996  42.580  14.313
91052W        W63477   2.749   2.195   1.901
91053W        W63478   4.529  12.161  12.081
91054W        W63479   4.553  30.607  12.765
91055W        W63480  16.853  23.013  10.511
91056W        W63481  18.720  22.649  11.200
91057W        W63482  33.519  34.676  10.380
91058W        W63483  23.206   1.389   1.269
91059W        W63484  40.971  15.174   4.206
91060W        W63485   6.409  32.550  11.707
91061W        W63486  20.186  38.792   1.231
91062W        W63487  32.468   1.431   3.072
91063W        W63488   1.894  36.154   0.285
91064W        W63489  33.778   1.412  14.410
91065W        W63490   3.793  18.459  11.000
91066W        W63491  19.636   9.924  10.555
91067W        W63492   5.947  44.920  14.001
91068W        W63493  35.812  14.477   1.181
91069W        W63494  14.843  13.146  14.771
91070W        W63495  10.380  24.265  10.714
91071W        W63496   5.492  41.750   3.611
91072W        W63497  19.739   1.050  13.556
91073W        W63498   1.551  32.987   5.058
91074W        W63499  30.994  30.532  14.382
91075W        W63500  36.771  39.964  12.817
91076W        W63501   3.980  40.858  13.941
91077W        W63502  37.773  16.162   4.632
91078W        W63503  32.700   7.985   1.299
91079W        W63504  31.942  30.711  13.598
91080W        W63505  37.267  38.789  13.044
91081W        W63506  12.230  29.473  11.940
91082W        W63507  41.035  10.426   3.816
91083W        W63508  28.335  15.640  13.820
91084W        W63509  35.047  38.297   1.416
91085W        W63510  38.640  33.026   2.721
91086W        W63511  28.558  26.581  12.410
91087W        W63512  12.660  37.893   4.090
91088W        W63513  21.820  39.144   4.835
91089W        W63514  29.161  16.487  13.476
91090W        W63515  14.583  14.649  13.854
91091W        W63516  36.483  20.203  13.347
91092W        W63517  26.219  10.014   5.030
91093W        W63518  12.324  34.656   0.398
91094W        W63519   0.939  38.129  14.954
91095W        W63520   7.084  30.527   0.902
91096W        W63521   0.533   5.616   3.750
91097W        W63522  18.718   8.239  12.909
91098W        W63523  16.501  20.188   4.626
91099W        W63524  10.527  28.699  11.566
91100W        W63525   5.169  10.115  14.037
91101W        W63526  22.011  28.993  13.034
91102W        W63527   3.790  25.156  12.093
91103W        W63528  36.905  16.041   4.066
91104W        W63529  11.368  33.991  13.435
91105W        W63530  13.359  18.131   4.532
91106W        W63531  24.744   6.908  14.356
91107W        W63532  35.646  40.219   0.809
91108W        W63533  11.340  24.086  12.700
91109W        W63534  29.930  44.828  12.600
91110W        W63535  41.907   6.259   2.857
91111W        W63536  16.315  36.070  14.802
91112W        W63537  30.922   5.568  10.652
91113W        W63538  42.021   2.616   4.120
91114W        W63539  27.633  33.375   0.365
91115W        W63540   9.825  43.388   1.068
91116W        W63541  38.367  26.534   1.079
91117W        W63542  34.696  12.498  11.153
91118W        W63543  36.392  23.402  13.987
91119W        W63544  13.358  16.769   2.232
91120W        W63545  26.481   7.955  11.527
91121W        W63546   5.190  23.619  12.713
91122W        W63547  18.851  17.128  12.378
91123W        W63548  14.112   8.406  12.882
91124W        W63549   9.703  28.312   3.962
91125W        W63550  34.474  34.704  11.975
91126W        W63551  10.876  16.903  12.010
91127W        W63552   4.260   4.797   3.923
91128W        W63553  13.683  23.567   5.043
91129W        W63554  39.392  29.491  12.175
91130W        W63555   1.471   1.892   3.239
91131W        W63556  22.033  33.736  11.350
91132W        W63557  21.548   6.882   1.364
91133W        W63558   6.748  30.466   0.449
91134W        W63559  36.390  13.799  14.813
91135W        W63560  41.417   7.778   1.237
91136W        W63561  17.629   8.409   4.365
91137W        W63562   0.478  16.138  11.449
91138W        W63563  33.092  27.422   2.812
91139W        W63564  25.588  10.477   2.967
91140W        W63565  34.289   5.216   0.039
91141W        W63566  43.904  22.077   3.605
91142W        W63567  36.508  15.353   4.843
91143W        W63568  10.723   5.257   4.221
91144W        W63569  13.851  32.539   3.845
91145W        W63570   0.347   7.400  10.538
91146W        W63571  44.046  13.925  12.607
91147W        W63572   3.689  36.376   0.915
91148W        W63573  38.744  41.566   0.341
91149W        W63574   5.221  13.705   1.351
91150W        W63575  18.583  32.129   2.218
91151W        W63576  11.059  36.028  14.272
91152W        W63577  43.916   9.094  11.026
91153W        W63578  12.410  37.174   2.756
91154W        W63579   6.789   7.292   0.231
91155W        W63580  24.796  28.374  12.484
91156W        W63581  17.567  16.017  14.912
91157W        W63582  19.605  14.891   4.187
91158W        W63583  20.623  15.555   2.697
91159W        W63584  23.010  31.454  13.453
91160W        W63585  31.835  35.109  11.450
91161W        W63586  38.491  38.358  14.371
91162W        W63587  39.319  25.928  14.281
91163W        W63588  30.951   0.706   3.813
91164W        W63589  43.441  18.939  13.078
91165W        W63590   5.532  13.238  11.180
91166W        W63591   6.209  36.370   0.377
91167W        W63592   0.823   0.992  10.539
91168W        W63593   3.051   4.806  10.701
91169W        W63594  24.748  38.198   1.857
91170W        W63595  44.495  34.076   1.834
91171W        W63596  14.620   7.209   4.114
91172W        W63597  37.047  23.746   3.428
91173W        W63598  44.427  25.675   0.680
91174W        W63599   4.379  11.552  11.193
91175W        W63600   4.356   0.195  13.472
91176W        W63601  20.853  21.164  13.954
91177W        W63602   3.430   2.306   1.306
91178W        W63603  17.690  24.162  12.996
91179W        W63604  41.126  35.577   0.771
91180W        W63605  41.041  21.396   1.619
91181W        W63606  25.103  36.298   4.318
91182W        W63607  38.342  44.652   3.252
91183W        W63608  26.554  35.927  14.756
91184W        W63609  38.213  15.552  12.556
91185W        W63610   2.851   9.159   0.850
91186W        W63611  26.926  20.649   4.900
91187W        W63612  22.121  40.804  12.303
91188W        W63613  30.044  41.228   5.621
91189W        W63614  33.093  37.934  11.654
91190W        W63615  36.801  35.334   3.306
91191W        W63616  15.048  14.173  13.127
91192W        W63617  36.329  20.981   4.285
91193W        W63618  20.445   8.570   3.307
91194W        W63619  40.918  13.649  12.071
91195W        W63620   0.377  27.510  14.420
91196W        W63621  26.870  31.816  14.744
91197W        W63622   6.760   1.971  14.919
91198W        W63623  35.550  19.661   0.736
91199W        W63624  35.367  39.805   3.709
91200W        W63625   1.589  29.610   0.004
91201W        W63626  39.602  21.605  11.604
91202W        W63627  40.587  19.808  12.930
91203W        W63628   0.752   0.968   3.753
91204W        W63629  27.710  25.606   3.219
91205W        W63630  21.316  32.948  14.040
91206W        W63631  14.752   4.188   0.813
91207W        W63632  18.705  22.933  13.941
91208W        W63633  13.223  11.719   4.682
91209W        W63634  15.201  37.479  14.967
91210W        W63635  38.716  14.825   1.873
91211W        W63636  22.931  15.273  13.151
91212W        W63637   9.190  25.733  13.720
91213W        W63638  19.424  17.579  14.696
91214W        W63639   1.985   9.518  10.706
91215W        W63640  41.711  30.407  12.939
91216W        W63641  10.669   5.396  12.992
91217W        W63642  22.027  29.591  10.642
91218W        W63643  17.193   4.840  14.450
91219W        W63644  40.407  43.918  14.976
91220W        W63645  16.244  24.658   4.083
91221W        W63646  10.707  29.542   1.517
91222W        W63647   8.860  31.577   0.306
91223W        W63648  33.058  14.536  13.093
91224W        W63649  40.084  37.215   1.813
91225W        W63650  32.981  14.835  12.659
91226W        W63651  25.014  16.272  13.295
91227W        W63652  26.991  26.433  13.517
91228W        W63653  31.214  44.706  10.968
91229W        W63654  12.828  20.784  13.849
91230W        W63655  42.758  11.812   2.220
91231W        W63656   7.420  14.064  11.767
91232W        W63657   7.469  33.420  11.479
91233W        W63658  36.919  27.942   4.051
91234W        W63659  22.266   2.085   4.054
91235W        W63660  27.913  16.219   0.315
91236W        W63661   5.339  17.115   2.609
91237W        W63662  39.830  23.372  11.215
91238W        W63663   4.775  10.839   2.200
91239W        W63664  33.084   4.257  14.749
91240W        W63665  11.257  16.821  12.636
91241W        W63666  24.152   1.009  13.975
91242W        W63667  41.394   0.915   4.114
91243W        W63668  15.347   3.905   0.929
91244W        W63669  32.915   1.011  11.527
91245W        W63670   3.416  23.412   3.474
91246W        W63671  34.670  19.921   0.438
91247W        W63672  24.527  26.842  11.191
91248W        W63673  36.494   4.210   0.306
91249W        W63674  21.649  16.532   0.521
91250W        W63675   7.831  37.052  13.009
91251W        W63676   7.456  30.358   4.188
91252W        W63677  10.284  33.341  10.015
91253W        W63678  17.050  18.480   4.546
91254W        W63679  10.203   6.133  14.481
91255W        W63680  40.626   5.194  11.247
91256W        W63681  40.299  32.118   3.637
91257W        W63682   7.332  37.480   1.659
91258W        W63683  15.357  39.009   0.380
91259W        W63684  30.115  34.604   1.426
91260W        W63685  10.190  20.043   1.291
91261W        W63686  29.878   9.316  14.396
91262W        W63687  20.221   8.871   1.222
91263W        W63688   6.151  17.455  13.997
91264W        W63689  27.498  18.511  13.857
91265W        W63690   6.297   3.913   4.329
91266W        W63691  34.327  20.147  14.816
91267W        W63692  42.949   1.947  13.520
91268W        W63693   5.680  44.569   1.401
91269W        W63694  10.559   0.465   0.699
91270W        W63695  36.656  33.092   2.159
91271W        W63696  23.014  43.855   4.073
91272W        W63697  41.443   3.867   3.145
91273W        W63698  39.328  20.055   0.937
91274W        W63699   9.592  36.428   3.869
91275W        W63700  44.704  41.773   1.300
91276W        W63701   2.224  12.264  10.921
91277W        W63702  24.778   9.252   3.096
91278W        W63703   2.491   7.847  12.956
91279W        W63704   3.737  36.372  10.751
91280W        W63705  30.785  39.182  11.684
91281W        W63706  42.872  40.239   4.944
91282W        W63707  24.767   3.758   2.781
91283W        W63708  41.191  35.086   2.366
91284W        W63709  14.278  10.198  12.449
91285W        W63710  39.385   3.933  10.623
91286W        W63711  21.816  29.460  13.754
91287W        W63712  26.236   8.861   0.411
91288W        W63713  31.002  16.505  11.991
91289W        W63714   3.513  32.042  12.550
91290W        W63715  18.873  32.985   5.024
91291W        W63716  21.143  29.603  14.349
91292W        W63717  32.927  14.450   4.250
91293W        W63718  14.573   0.432  10.905
91294W        W63719  44.468   6.010  11.487
91295W        W63720  42.985  10.353   3.946
91296W        W63721   0.014  43.276   1.484
91297W        W63722  25.181   1.429  12.402
91298W        W63723  28.830  10.697  10.635
91299W        W63724  37.278  19.313  13.033
91300W        W63725  16.602  32.227  11.797
91301W        W63726  29.878  23.323  10.117
91302W        W63727  19.705  24.014   4.449
91303W        W63728  12.764  12.360  11.896
91304W        W63729  17.703  37.583   1.701
91305W        W63730  42.581   0.874  12.636
91306W        W63731  27.899  41.551  13.435
91307W        W63732  30.385  39.656  13.749
91308W        W63733  37.491  14.970   4.664
91309W        W63734  41.000  32.507  10.679
91310W        W63735  39.560  18.803   3.674
91311W        W63736  37.938  35.796  14.842
91312W        W63737  42.935  32.195   2.801
91313W        W63738  19.013  20.170   0.428
91314W        W63739   7.781  44.782  10.547
91315W        W63740  23.501  37.966   4.458
91316W        W63741  28.184   5.875  11.472
91317W        W63742   9.485  27.905  11.017
91318W        W63743   9.313  11.649  11.028
91319W        W63744  15.773  20.740  11.678
91320W        W63745   5.420   0.278  13.657
91321W        W63746  37.743  11.674  10.241
91322W        W63747  40.650  37.393   1.702
91323W        W63748  44.548  23.196  13.559
91324W        W63749  35.921  29.020  12.073
91325W        W63750  34.000  27.992   4.572
91326W        W63751  33.532  15.319   3.132
91327W        W63752   7.345   0.832   1.344
91328W        W63753  17.571  12.615  13.394
91329W        W63754  37.329  17.607  10.744
91330W        W63755   1.528  28.579  12.128
91331W        W63756  26.024  14.829  12.901
91332W        W63757  13.175  33.590  14.894
91333W        W63758  19.757  13.762   2.765
91334W        W63759  35.646  44.782   0.223
91335W        W63760   2.303  22.326  11.706
91336W        W63761   2.771  38.812   1.703
91337W        W63762  37.261  41.076   2.044
91338W        W63763  33.372  38.679  14.937
91339W        W63764  20.967  33.896   0.864
91340W        W63765   5.190  34.340   3.649
91341W        W63766  16.489  26.520  13.956
91342W        W63767  34.055   1.887   3.692
91343W        W63768   6.792  21.669  10.706
91344W        W63769  20.058  35.637  10.564
91345W        W63770  10.348  21.070  10.731
91346W        W63771  24.978  10.172   4.610
91347W        W63772  44.351  42.455   0.260
91348W        W63773  32.448  44.049  13.610
91349W        W63774  30.176   2.362  13.948
91350W        W63775   1.442  27.013  10.551
91351W        W63776  30.199  12.787   0.398
91352W        W63777  38.157  24.236   2.291
91353W        W63778   7.326  27.261   4.568
91354W        W63779   5.904  15.163   2.438
91355W        W63780  25.793  44.850   0.073
91356W        W63781  27.389   6.840   4.311
91357W        W63782  37.772  30.984  13.892
91358W        W63783  15.789  20.067  14.551
91359W        W63784  37.759  19.106   0.748
91360W        W63785  30.958  10.274  13.970
91361W        W63786   7.251   9.801   0.433
91362W        W63787  12.325  33.601  12.775
91363W        W63788  22.619  41.145   3.235
91364W        W63789   3.428  33.597   4.179
91365W        W63790  44.969  35.665  11.967
91366W        W63791  25.935  33.447  11.071
91367W        W63792  34.832  34.848   2.193
91368W        W63793  28.953  44.318  13.820
91369W        W63794  16.364   0.375  10.712
91370W        W63795   9.203  39.375  10.577
91371W        W63796  39.456  16.528   1.882
91372W        W63797  14.036  36.015  11.078
91373W        W63798  40.853   1.937  11.585
91374W        W63799  36.087  40.074  12.587
91375W        W63800  26.648   4.193  11.398
91376W        W63801  31.444  43.779   0.325
91377W        W63802   3.252  21.093  13.546
91378W        W63803  40.559   3.126  10.235
91379W        W63804  25.497   0.875   4.581
91380W        W63805  38.238  23.288   3.185
91381W        W63806  28.035   4.768  10.125
91382W        W63807  14.284   5.649   3.731
91383W        W63808  32.578  36.199   3.232
91384W        W63809  38.438  33.306  13.941
91385W        W63810  36.831  42.125   2.879
91386W        W63811  20.162  24.549   3.827
91387W        W63812  30.439  36.778  13.776
91388W        W63813   7.458   1.276   3.686
91389W        W63814  30.469  33.759  12.372
91390W        W63815  31.870  13.376   1.800
91391W        W63816   2.661  28.034   1.409
91392W        W63817  41.459  24.938  12.649
91393W        W63818  32.838  18.168  11.916
91394W        W63819  36.145  14.108  13.003
91395W        W63820   8.115  44.786  14.953
91396W        W63821  17.633  20.774   1.471
91397W        W63822  41.070  22.720  11.378
91398W        W63823  13.254  32.367   4.243
91399W        W63824   5.818  10.693  11.534
91400W        W63825  15.620  22.715  14.173
91401W        W63826  35.103  11.875   1.341
91402W        W63827  15.555  41.008  12.451
91403W        W63828  41.100  33.587  10.565
91404W        W63829  18.367  21.216   4.521
91405W        W63830   7.148  17.654   4.452
91406W        W63831  19.634  27.699  13.057
91407W        W63832   4.785  42.444   3.750
91408W        W63833   0.490  42.495  14.409
91409W        W63834   9.893  34.084  12.041
91410W        W63835   7.560   3.828   1.298
91411W        W63836  16.688  21.459   4.078
91412W        W63837  39.142  33.473  13.540
91413W        W63838  36.755  14.199   2.627
91414W        W63839  10.789  44.992  13.373
91415W        W63840   6.590  13.597  10.721
91416W        W63841   5.856   7.016  11.124
91417W        W63842  13.911  13.764  13.851
91418W        W63843  15.098   9.709  13.884
91419W        W63844   1.323   1.810   0.419
91420W        W63845  17.522  12.318   4.161
91421W        W63846  22.041  40.329   2.699
91422W        W63847  34.389  32.688   0.286
91423W        W63848  41.678  20.054   2.201
91424W        W63849  36.265  24.314   2.037
91425W        W63850   4.419  41.436   3.100
91426W        W63851   7.599  11.213  14.876
91427W        W63852  12.787  33.704  13.021
91428W        W63853  14.864  39.406  14.974
91429W        W63854   4.215  32.128   1.326
91430W        W63855  40.310   7.759   0.768
91431W        W63856  33.573  19.324   0.952
91432W        W63857  12.338   8.410  11.465
91433W        W63858  16.236  34.991   9.626
91434W        W63859  28.131  42.625  12.548
91435W        W63860  11.647  41.953   0.975
91436W        W63861  38.826  41.299  14.235
91437W        W63862   2.878  43.826  13.582
91438W        W63863  27.094  19.856   1.303
91439W        W63864  26.689  13.082   1.283
91440W        W63865  14.213  27.892   1.814
91441W        W63866  18.307  22.307  13.893
91442W        W63867   1.523  16.611  13.300
91443W        W63868   5.400  44.428   2.802
91444W        W63869  42.297  39.032  12.063
91445W        W63870   8.154   4.428  12.554
91446W        W63871  33.243  42.390  11.486
91447W        W63872   3.899   5.274   2.207
91448W        W63873  31.449   0.829   3.830
91449W        W63874  25.341  44.737   1.691
91450W        W63875  34.944  44.361   0.287
91451W        W63876  31.529  42.912  12.983
91452W        W63877  27.467  21.331  14.296
91453W        W63878  26.765  26.144   2.838
91454W        W63879  18.101  28.825  13.127
91455W        W63880  31.907  31.616   2.893
91456W        W63881  43.612   9.398   2.584
91457W        W63882  21.443  26.050  11.412
91458W        W63883  26.073   8.444   2.190
91459W        W63884  18.959  39.479  12.748
91460W        W63885  29.987  20.369  10.761
91461W        W63886  13.930   7.684   0.481
91462W        W63887  20.246  40.892   3.286
91463W        W63888  43.043  40.096   2.645
91464W        W63889  39.107  44.929   1.823
91465W        W63890  42.389  10.214   3.187
91466W        W63891  20.216   7.881   0.737
91467W        W63892  23.305  16.259  10.521
91468W        W63893  41.773   6.184  14.866
91469W        W63894  40.310  38.613  10.417
91470W        W63895  23.922  10.087  14.327
91471W        W63896   9.782   8.875   0.673
91472W        W63897  39.461   1.447  11.670
91473W        W63898  29.782  34.648  14.573
91474W        W63899  17.524  13.400   0.443
91475W        W63900   5.532   4.777  11.326
91476W        W63901  41.942  36.595  11.892
91477W        W63902  22.991  15.561  14.781
91478W        W63903  38.487  14.619   4.370
91479W        W63904  21.455   9.210  11.122
91480W        W63905   1.429   4.789  14.347
91481W        W63906   5.019   3.182   0.062
91482W        W63907   3.466  23.527  13.467
91483W        W63908   6.754  44.797  12.010
91484W        W63909  29.451   6.281   0.265
91485W        W63910  13.597  16.167  14.317
91486W        W63911  28.942  35.892  11.233
91487W        W63912   4.597  25.536  11.773
91488W        W63913  44.727  19.767   2.843
91489W        W63914  33.499  24.092  13.034
91490W        W63915  14.711  33.818   1.833
91491W        W63916  15.224  23.150  10.628
91492W        W63917  17.755   1.240  12.981
91493W        W63918   8.473  37.008  13.715
91494W        W63919  16.103  43.094  13.082
91495W        W63920   8.413   0.975   0.507
91496W        W63921   5.147  28.498   2.603
91497W        W63922  40.885  22.096   0.794
91498W        W63923  25.969  32.621  14.935
91499W        W63924   6.902  39.088   4.262
91500W        W63925  38.442  14.208   2.418
91501W        W63926   8.178  13.375  12.829
91502W        W63927  15.305  13.616  13.189
91503W        W63928  24.707  29.852   5.502
91504W        W63929   7.735  13.409   1.983
91505W        W63930  34.128  17.170   4.585
91506W        W63931   7.878  14.482   4.685
91507W        W63932  11.350  37.918  12.536
91508W        W63933  24.854  11.774   0.324
91509W        W63934   2.700  11.920  11.981
91510W        W63935  25.758  26.171   0.835
91511W        W63936   5.726   4.623  14.003
91512W        W63937   2.832  26.605  13.843
91513W        W63938  30.522  37.885   0.874
91514W        W63939  30.955  27.045   4.193
91515W        W63940   9.340  42.842  10.323
91516W        W63941  27.397  34.001   1.434
91517W        W63942   3.092   7.775   3.695
91518W        W63943  39.974  30.865   4.422
91519W        W63944   4.882  38.346  11.003
91520W        W63945  20.183   5.403   0.927
91521W        W63946  40.422   7.430   3.205
91522W        W63947   5.402  21.260   0.759
91523W        W63948  35.202  11.098   1.717
91524W        W63949  23.535  32.658   3.291
91525W        W63950  42.465  18.839  12.432
91526W        W63951  13.579  30.067   1.966
91527W        W63952  41.776  14.008   4.103
91528W        W63953  21.497  34.198   2.316
91529W        W63954  39.637  31.861  11.699
91530W        W63955  27.247  24.705   2.811
91531W        W63956   8.918  40.531   0.832
91532W        W63957  21.914  26.924   0.918
91533W        W63958  43.514  14.155   2.325
91534W        W63959  19.019   4.717   3.110
91535W        W63960  16.607   8.310   3.176
91536W        W63961  43.873   7.636   0.075
91537W        W63962  36.027  44.887  12.423
91538W        W63963  14.125  11.234  11.971
91539W        W63964   7.286  10.355   5.070
91540W        W63965   5.889  19.692  14.872
91541W        W63966  26.290   4.937  14.126
91542W        W63967  38.820  43.511   1.531
91543W        W63968  22.218   2.883  14.349
91544W        W63969  15.120   2.507  11.628
91545W        W63970  36.590  40.015   0.377
91546W        W63971  25.930  32.099  14.799
91547W        W63972   2.528  40.497   3.677
91548W        W63973  26.111  44.509   2.721
91549W        W63974  30.959  11.585   3.599
91550W        W63975   1.475  22.398  11.565
91551W        W63976  33.683   8.087  13.528
91552W        W63977  11.270  27.533   3.885
91553W        W63978  34.901  39.474   4.416
91554W        W63979   5.816  42.744   0.500
91555W        W63980   3.522   9.156   4.253
91556W        W63981  13.720  22.085  11.377
91557W        W63982   4.255  36.449  10.673
91558W        W63983  10.360   0.382   3.151
91559W        W63984   9.186  31.610   0.836
91560W        W63985  41.953  44.030   0.737
91561W        W63986   1.057  38.154  13.514
91562W        W63987  23.611  21.353   2.509
91563W        W63988  35.333  33.900   4.315
91564W        W63989  29.127  35.440   4.687
91565W        W63990  14.120   7.775  10.679
91566W        W63991  36.533  17.529  12.087
91567W        W63992  37.024  16.530   4.150
91568W        W63993  21.311   3.439  10.386
91569W        W63994  10.635  44.521  14.502
91570W        W63995  10.426  20.152   3.781
91571W        W63996   5.301  19.660  12.470
91572W        W63997   4.984  35.056  14.550
91573W        W63998  42.290   6.147  14.961
91574W        W63999  12.212  42.344   2.148
91575W        W64000   2.468  27.486  11.476
91576W        W64001  28.629  41.866  14.839
91577W        W64002  20.793  43.766   3.900
91578W        W64003  35.706  17.764   2.591
91579W        W64004   2.225   2.901  13.505
91580W        W64005   0.941   1.231  11.386
91581W        W64006  29.450  22.087   4.809
91582W        W64007  36.807  19.052  13.806
91583W        W64008   5.627  33.591  12.997
91584W        W64009   1.889  33.586   2.789
91585W        W64010  12.767   1.635  12.000
91586W        W64011  30.564  37.526   3.650
91587W        W64012  15.893  28.915   1.334
91588W        W64013  25.002  39.842  11.115
91589W        W64014  26.281  18.813   4.588
91590W        W64015  42.494   3.686  10.338
91591W        W64016  21.086   2.458   2.456
91592W        W64017   9.804   8.176   1.920
91593W        W64018  13.076  22.666   1.836
91594W        W64019  31.084  23.773   2.757
91595W        W64020  32.824  30.598  13.763
91596W        W64021  21.006   6.872   3.735
91597W        W64022  22.088  35.367   2.897
91598W        W64023  20.968   9.281  14.481
91599W        W64024  12.340   5.733  13.859
91600W        W64025  14.304  42.931   2.443
91601W        W64026  14.090  23.290   3.724
91602W        W64027  30.102   3.014  13.431
91603W        W64028  11.234   1.528  12.065
91604W        W64029  15.681  15.838   0.525
91605W        W64030  22.598  11.395   0.361
91606W        W64031  43.414  39.378  10.502
91607W        W64032  28.591  44.278  11.468
91608W        W64033  22.308  17.180  10.675
91609W        W64034   4.870  16.789   0.392
91610W        W64035  21.659  10.370  14.510
91611W        W64036  27.041   4.645  14.386
91612W        W64037  40.260   6.763   2.402
91613W        W64038  28.998  38.525   1.334
91614W        W64039   2.529  18.006   1.901
91615W        W64040  13.346  35.834   5.065
91616W        W64041  14.898  22.647   3.268
91617W        W64042  33.053  26.445   4.601
91618W        W64043  17.952  43.387  11.500
91619W        W64044  31.617   2.228  10.660
91620W        W64045  25.902  14.570  11.566
91621W        W64046  31.920  11.569   3.764
91622W        W64047  28.675   2.807  11.647
91623W        W64048  15.646  20.772  13.006
91624W        W64049   7.898  30.923   1.251
91625W        W64050   6.558  19.483  13.420
91626W        W64051  30.518  42.176  10.626
91627W        W64052  16.888   6.332  11.257
91628W        W64053   2.242  39.645  14.508
91629W        W64054  12.382  15.731  14.022
91630W        W64055  31.588   0.479   4.262
91631W        W64056   5.173  30.612   3.616
91632W        W64057  15.183  33.085  12.582
91633W        W64058  16.604  27.079  10.939
91634W        W64059   6.218  18.274  10.746
91635W        W64060  18.030  34.432  10.568
91636W        W64061  19.872  25.045  13.564
91637W        W64062   8.622  38.649  10.118
91638W        W64063  25.764  33.659   0.627
91639W        W64064  29.157   4.760  14.296
91640W        W64065  44.976  10.101   4.073
91641W        W64066  17.294  38.070   3.627
91642W        W64067  41.058  26.607  14.316
91643W        W64068   8.876  29.614  14.302
91644W        W64069  19.640  16.781   3.391
91645W        W64070  28.982   5.646   4.073
91646W        W64071   0.391   0.731  13.247
91647W        W64072  32.119  37.223  13.088
91648W        W64073  29.012  12.793  14.804
91649W        W64074  28.599  26.039  14.059
91650W        W64075  39.876   3.366  10.762
91651W        W64076  35.844  40.897  10.843
91652W        W64077  39.928   6.250   3.245
91653W        W64078  40.033  31.976  13.806
91654W        W64079  15.671  12.239   1.586
91655W        W64080   2.010   9.510   0.123
91656W        W64081   2.418  39.308   4.319
91657W        W64082  31.010  37.366  13.495
91658W        W64083  37.567   4.514   3.198
91659W        W64084  16.345   0.493  13.052
91660W        W64085  29.638  32.436  11.531
91661W        W64086  42.088  20.200  13.106
91662W        W64087  36.918  32.993  12.663
91663W        W64088  18.017  27.921  12.003
91664W        W64089  31.588   2.840   3.193
91665W        W64090   3.935  40.410  12.477
91666W        W64091   3.004  18.526  12.443
91667W        W64092  27.054   4.802   4.093
91668W        W64093  24.856  39.977   0.973
91669W        W64094  40.357  38.904  14.019
91670W        W64095  42.367  30.000   3.878
91671W        W64096  17.310  19.303   4.064
91672W        W64097  22.715  42.908  13.977
91673W        W64098  31.883  41.886   1.383
91674W        W64099  27.196  33.107  13.247
91675W        W64100   5.885   3.940   4.655
91676W        W64101  21.965  35.335  11.975
91677W        W64102  20.245  22.833   2.257
91678W        W64103   4.353  24.987   5.013
91679W        W64104  15.764  24.072   2.748
91680W        W64105  21.211  36.956  12.614
91681W        W64106  11.087   2.121   4.573
91682W        W64107   1.483   5.004   0.809
91683W        W64108  27.655  21.336   4.616
91684W        W64109   7.977  33.383   3.194
91685W        W64110  23.494  30.479  12.645
91686W        W64111  22.161  21.672   2.777
91687W        W64112  21.151  21.825  11.445
91688W        W64113  10.677  27.588  14.145
91689W        W64114  41.307  28.540  12.199
91690W        W64115   3.438  11.429  12.071
91691W        W64116  36.760  36.007   1.947
91692W        W64117  41.915  43.959   2.575
91693W        W64118  10.410   1.355  11.510
91694W        W64119  23.985  44.917   4.587
91695W        W64120   0.111  16.365   0.285
91696W        W64121  16.620  29.386   3.678
91697W        W64122  13.087  19.681   3.059
91698W        W64123  34.474  25.124   2.127
91699W        W64124  34.055  34.556   4.447
91700W        W64125  44.747  30.178  10.399
91701W        W64126  41.186  17.223  13.516
91702W        W64127  30.178   1.490  12.936
91703W        W64128  19.064  14.627   3.207
91704W        W64129  39.808   4.942   1.429
91705W        W64130   8.613  19.347   0.365
91706W        W64131   9.416  37.836  11.172
91707W        W64132  33.423  18.662  14.889
91708W        W64133  24.433  29.593   5.023
91709W        W64134   0.535  18.688   3.144
91710W        W64135  30.852  19.093   3.257
91711W        W64136  17.106  39.043  11.437
91712W        W64137  10.439  24.598  13.563
91713W        W64138  35.572  26.307   0.167
91714W        W64139   6.325  39.803  13.048
91715W        W64140  43.758  21.568   4.340
91716W        W64141  33.749   4.026  14.202
91717W        W64142   5.845  27.555   4.158
91718W        W64143  26.631  10.587  14.410
91719W        W64144  20.236   5.878  13.423
91720W        W64145  12.778  13.859   2.133
91721W        W64146   3.490  26.039   1.767
91722W        W64147  10.884  32.387  14.090
91723W        W64148  11.423  41.938   2.704
91724W        W64149  43.607  18.594  11.163
91725W        W64150   6.513  27.898  11.962
91726W        W64151  15.335  32.648   9.699
91727W        W64152   1.939   4.707   4.323
91728W        W64153  35.152  38.469  12.578
91729W        W64154  32.188  34.516  10.268
91730W        W64155   7.205   8.897  11.875
91731W        W64156   5.637   1.404  11.545
91732W        W64157  35.913   3.005   0.461
91733W        W64158  33.066  40.984   1.765
91734W        W64159  12.774  13.848  11.463
91735W        W64160  11.648   9.928   3.789
91736W        W64161  34.714  10.136  13.872
91737W        W64162  29.593  13.004   1.313
91738W        W64163  31.048  11.046   3.612
91739W        W64164  31.027  42.627   2.836
91740W        W64165  14.548   5.625  12.016
91741W        W64166  36.379  30.386   0.426
91742W        W64167  13.242  31.165   1.406
91743W        W64168  33.090   3.747   3.132
91744W        W64169   2.387   1.832   2.442
91745W        W64170  24.591  29.607   1.281
91746W        W64171  36.256  33.400  13.482
91747W        W64172  12.381   7.855  12.388
91748W        W64173   2.010  43.892  14.412
91749W        W64174  28.342  40.659   1.104
91750W        W64175  20.317  30.660   0.444
91751W        W64176  15.726  17.239   0.334
91752W        W64177  17.393  24.857  13.468
91753W        W64178  42.355  37.623  10.514
91754W        W64179  26.034  25.303  14.192
91755W        W64180   5.514  42.837  14.230
91756W        W64181  37.103  23.995   0.014
91757W        W64182  11.409  32.473  13.982
91758W        W64183  11.173  24.857   9.588
91759W        W64184  31.364  41.740  11.427
91760W        W64185   4.639  34.741  13.445
91761W        W64186  21.033   2.383   3.663
91762W        W64187  14.848  35.993   2.686
91763W        W64188  37.455  17.045  10.759
91764W        W64189  37.394  20.327  13.257
91765W        W64190  15.181  28.316  12.459
91766W        W64191  39.222  27.195   4.100
91767W        W64192  10.796   5.279  12.071
91768W        W64193  15.015  19.192   2.985
91769W        W64194  19.757  43.362   0.944
91770W        W64195  21.605  36.972   0.963
91771W        W64196  21.071  43.799   1.706
91772W        W64197  11.162  43.803   4.588
91773W        W64198  23.102  17.181  11.646
91774W        W64199   7.433  35.557   4.663
91775W        W64200  19.093   9.567  13.231
91776W        W64201  17.069  31.485   2.457
91777W        W64202  23.091   7.478   2.211
91778W        W64203  23.837   8.504  14.941
91779W        W64204  33.629  21.701   2.817
91780W        W64205  27.239  35.806   3.229
91781W        W64206  19.482  17.331  11.574
91782W        W64207  16.218  27.956  11.634
91783W        W64208  36.091  13.436   3.231
91784W        W64209  12.485  37.443   1.195
91785W        W64210  21.739  31.658   0.923
91786W        W64211  44.956  14.117   3.771
91787W        W64212  13.302  26.058   3.711
91788W        W64213  39.980   3.454   2.202
91789W        W64214  18.535   9.782  13.856
91790W        W64215  32.535   1.481   3.582
91791W        W64216  36.901   0.085   1.871
91792W        W64217  21.227   2.302   5.059
91793W        W64218  36.518  25.667  14.371
91794W        W64219  29.682   2.513  14.852
91795W        W64220  24.623  26.629  13.859
91796W        W64221  32.135  19.171  14.771
91797W        W64222  19.593   3.810  12.112
91798W        W64223  24.289  19.738   2.533
91799W        W64224  19.636  29.886   2.433
91800W        W64225  15.978   3.383   4.593
91801W        W64226  11.297  28.645   4.523
91802W        W64227  35.064   6.642   4.028
91803W        W64228   4.378   4.213   1.763
91804W        W64229  41.321   5.965   4.368
91805W        W64230   8.841  31.157   2.841
91806W        W64231  40.274  40.425  11.991
91807W        W64232  13.938  33.338  11.153
91808W        W64233   9.305  20.089   2.209
91809W        W64234  28.970  25.573   4.705
91810W        W64235  24.562  12.371   3.138
91811W        W64236   1.194   1.808  12.096
91812W        W64237   1.472  26.132  10.670
91813W        W64238  30.592  13.335   1.249
91814W        W64239   5.154  42.279  14.212
91815W        W64240  14.850  18.226   3.294
91816W        W64241   5.385   6.942  14.697
91817W        W64242  22.603  12.208   4.140
91818W        W64243  26.146   4.277   3.386
91819W        W64244   0.418   6.839   3.279
91820W        W64245  12.430  24.026  14.008
91821W        W64246   9.823  25.091   3.201
91822W        W64247  38.345  21.093  10.613
91823W        W64248  21.308  22.649   4.008
91824W        W64249   2.844  25.177   1.371
91825W        W64250  31.547  38.980  12.348
91826W        W64251  36.966  36.869   1.849
91827W        W64252  34.607   6.398   2.641
91828W        W64253  12.797  14.549   3.050
91829W        W64254  41.427  20.234  13.828
91830W        W64255  23.847  37.456  10.413
91831W        W64256  38.969  28.419   2.840
91832W        W64257  35.632  17.135  13.951
91833W        W64258   4.765  29.877   1.578
91834W        W64259  42.303  42.709   1.333
91835W        W64260  26.186  13.313   3.254
91836W        W64261   5.144  18.110  11.445
91837W        W64262   2.630  36.673  10.825
91838W        W64263  32.921   2.354   4.658
91839W        W64264  34.007  17.763  11.613
91840W        W64265   1.767  10.694  12.416
91841W        W64266   9.434  14.230   0.819
91842W        W64267  10.171  42.483   2.275
91843W        W64268  38.759  21.965   0.218
91844W        W64269   9.221  10.743  10.625
91845W        W64270  36.609   1.735  11.960
91846W        W64271  41.044  29.431  13.853
91847W        W64272  38.236  14.375   2.854
91848W        W64273  19.274  20.047  10.875
91849W        W64274  12.874  38.266  10.792
91850W        W64275   5.696   4.752  12.418
91851W        W64276   8.236  37.912  10.589
91852W        W64277  37.609  15.716  10.692
91853W        W64278   9.774  14.304  14.467
91854W        W64279  41.465  17.062  10.764
91855W        W64280  17.714  11.734   1.733
91856W        W64281  42.234  43.073  14.863
91857W        W64282  25.267  22.529   2.240
91858W        W64283  43.232  43.476   1.232
91859W        W64284  29.092  24.014   1.157
91860W        W64285  37.432  14.782  14.015
91861W        W64286  16.526  20.973   3.988
91862W        W64287  42.040  34.433   1.373
91863W        W64288  41.057   5.747  12.191
91864W        W64289  23.013  41.709   1.215
91865W        W64290  28.480  33.577  14.424
91866W        W64291  12.553   9.329  14.592
91867W        W64292  17.545  38.387   4.518
91868W        W64293   2.983   2.416  12.585
91869W        W64294  36.447  43.492  11.576
91870W        W64295  36.419  30.554   1.362
91871W        W64296  39.890  25.207  11.504
91872W        W64297  26.176  32.358  13.931
91873W        W64298  31.377  12.146   0.798
91874W        W64299  19.950  21.068   2.764
91875W        W64300  15.546  10.783   0.770
91876W        W64301   6.293  21.114   0.261
91877W        W64302  25.185  40.900  12.373
91878W        W64303  26.913  43.548   0.917
91879W        W64304  24.485  33.490   4.267
91880W        W64305  30.588  33.908   1.080
91881W        W64306   3.532  25.613  12.166
91882W        W64307  42.752   4.768  11.507
91883W        W64308  17.091  17.592  10.552
91884W        W64309  28.636  24.147  13.891
91885W        W64310  21.737   6.317   3.753
91886W        W64311  41.543  37.589   2.854
91887W        W64312   7.786  26.982  12.470
91888W        W64313  15.640   7.199  12.337
91889W        W64314  44.864  18.638   3.360
91890W        W64315   4.104  22.794  11.646
91891W        W64316  42.225  27.568   3.231
91892W        W64317  23.253   6.207  11.074
91893W        W64318  19.235  14.014  12.117
91894W        W64319  22.660  40.061   1.926
91895W        W64320   5.198  30.668   1.428
91896W        W64321  26.035  17.678   2.717
91897W        W64322  20.486  22.923   1.419
91898W        W64323  24.739   6.942   1.730
91899W        W64324  37.075   5.841  11.191
91900W        W64325  10.168  27.062   4.540
91901W        W64326  43.276  15.182  12.059
91902W        W64327   9.646  22.129   4.322
91903W        W64328  28.550  27.014   4.585
91904W        W64329  40.330  22.591   0.335
91905W        W64330  41.221  38.139  11.839
91906W        W64331  35.630  43.413  11.657
91907W        W64332  10.326  39.821   0.914
91908W        W64333  43.331  21.973  13.919
91909W        W64334  43.670  13.894   1.430
91910W        W64335  44.301   0.309  11.091
91911W        W64336  36.596  27.078  14.272
91912W        W64337   5.911  11.844   4.624
91913W        W64338  23.047  27.897  12.984
91914W        W64339  17.660  32.009   0.808
91915W        W64340  28.882  25.220   0.803
91916W        W64341  32.813  17.947  14.358
91917W        W64342  18.095  15.438   1.045
91918W        W64343  40.106  13.160   1.424
91919W        W64344   1.478   7.295  13.070
91920W        W64345   7.553  12.403  14.437
91921W        W64346  35.575   9.333  11.170
91922W        W64347  21.200  22.454   3.085
91923W        W64348  40.052  19.162  10.485
91924W        W64349  15.477  39.446   1.759
91925W        W64350  24.240  24.883   4.639
91926W        W64351  37.389  31.032   3.326
91927W        W64352  25.523   6.255  11.631
91928W        W64353  41.941  40.230  11.606
91929W        W64354   8.740  41.204   4.201
91930W        W64355  30.676  15.157   3.072
91931W        W64356  21.917  30.155  14.363
91932W        W64357  31.687  12.592  14.599
91933W        W64358   2.720  25.648   0.689
91934W        W64359  42.469  43.153  10.659
91935W        W64360   6.576  32.496   1.170
91936W        W64361   5.638   8.350   4.184
91937W        W64362   7.084  12.049   4.589
91938W        W64363   3.622  34.519   4.612
91939W        W64364  23.931  24.882   1.441
91940W        W64365  32.265  11.031   3.250
91941W        W64366  28.412  34.929   0.238
91942W        W64367  38.990  23.136   3.598
91943W        W64368  19.289  12.919   2.881
91944W        W64369  41.341   4.482   1.848
91945W        W64370   9.118  24.090   2.339
91946W        W64371  22.493   8.188  14.797
91947W        W64372  10.149  34.568   1.340
91948W        W64373  33.684  42.497  11.718
91949W        W64374   4.958  34.014   1.652
91950W        W64375   5.981   0.539  13.014
91951W        W64376  28.582   6.458  14.665
91952W        W64377  17.343  34.875   3.247
91953W        W64378  28.790   4.949   3.090
91954W        W64379  31.396  17.293  11.854
91955W        W64380  12.599  23.364   1.452
91956W        W64381   0.717  19.456   0.399
91957W        W64382  30.071  29.565  11.962
91958W        W64383  44.369  12.819   4.179
91959W        W64384  21.077  22.333   4.346
91960W        W64385  17.319   0.034  11.517
91961W        W64386  21.285  20.830   4.171
91962W        W64387  34.048  21.000  13.198
91963W        W64388  44.214  28.799  13.394
91964W        W64389  19.645  38.804  10.721
91965W        W64390  35.816  25.948   0.447
91966W        W64391  39.871  16.334  14.345
91967W        W64392  17.836  12.749   1.722
91968W        W64393  31.946   9.253   1.928
91969W        W64394  41.441  19.680   3.659
91970W        W64395  43.007  40.472  11.725
91971W        W64396  41.820  36.102   4.486
91972W        W64397  31.097  37.039   2.049
91973W        W64398   5.346  29.807  11.350
91974W        W64399  11.469  36.363  14.126
91975W        W64400  34.110  35.646   4.172
91976W        W64401  25.370   4.961   2.874
91977W        W64402  28.165  36.523  11.516
91978W        W64403   2.229  17.834  11.488
91979W        W64404   3.241   1.837   1.489
91980W        W64405  32.078  40.640   5.076
91981W        W64406  42.247  20.503  11.361
91982W        W64407  40.914  13.141   4.297
91983W        W64408  41.622  15.770   1.891
91984W        W64409  23.599  23.767  11.643
91985W        W64410  14.382   2.164  10.824
91986W        W64411   8.470  40.422  11.052
91987W        W64412  22.103  20.023   0.799
91988W        W64413  41.057  42.700  12.607
91989W        W64414  36.489   3.160  11.966
91990W        W64415  13.686  25.162   4.461
91991W        W64416  19.942  27.290  13.017
91992W        W64417  30.493  31.567  12.123
91993W        W64418   6.891   1.920   0.882
91994W        W64419  30.019  26.685   2.347
91995W        W64420  34.923  31.815   0.361
91996W        W64421  37.459  31.602  11.550
91997W        W64422  12.271  10.299  10.866
91998W        W64423  18.733   4.243  12.006
91999W        W64424  39.661  42.404   1.032
92000W        W64425   6.410  37.030   4.514
92001W        W64426  17.074  43.763   3.161
92002W        W64427  22.702  14.326  13.353
92003W        W64428  36.559  14.806   1.136
92004W        W64429  19.671   0.204  14.318
92005W        W64430  12.867  38.007  11.793
92006W        W64431   1.020  22.789  14.273
92007W        W64432  20.347  12.031  12.003
92008W        W64433  21.033  24.270  12.965
92009W        W64434   9.703  32.559   3.117
92010W        W64435  24.056   9.037   1.370
92011W        W64436  26.911  44.234  13.808
92012W        W64437   9.575  40.031  11.543
92013W        W64438  40.917  11.869   1.076
92014W        W64439  25.136  11.830  11.683
92015W        W64440  21.302  18.948   3.335
92016W        W64441   6.880  28.016   0.758
92017W        W64442   9.850  25.119   1.176
92018W        W64443  27.542  29.214   0.386
92019W        W64444  33.040  10.079  11.688
92020W        W64445  26.953  13.101  10.796
92021W        W64446  26.100   7.160   1.925
92022W        W64447   6.143   2.177   3.366
92023W        W64448  29.290  33.952   4.582
92024W        W64449   6.240  34.035   2.894
92025W        W64450   3.288  10.559   3.659
92026W        W64451   1.367  13.199  13.390
92027W        W64452  14.721  34.529   1.472
92028W        W64453  40.300   7.011   0.397
92029W        W64454  34.542  40.580  13.399
92030W        W64455  31.226   9.200   4.291
92031W        W64456  31.687  27.753  14.336
92032W        W64457  39.517   2.351  13.340
92033W        W64458   5.221   2.377  14.306
92034W        W64459  41.503  14.216   3.211
92035W        W64460  20.677  12.573  10.463
92036W        W64461  23.797  32.797  12.724
92037W        W64462   3.885  36.362  12.283
92038W        W64463   2.433  26.460   1.242
92039W        W64464  15.313  16.296   3.983
92040W        W64465   3.118   5.701  10.668
92041W        W64466  30.125  40.504  10.245
92042W        W64467   6.351  32.686   3.458
92043W        W64468  25.066  10.984   1.923
92044W        W64469  24.068  26.891  14.756
92045W        W64470  41.477  19.805  14.950
92046W        W64471  27.905   7.341  13.372
92047W        W64472  36.406  35.654  13.699
92048W        W64473  13.123   6.329  10.916
92049W        W64474  36.586   3.783  11.122
92050W        W64475  13.735  41.186   1.909
92051W        W64476  11.183  26.091  12.583
92052W        W64477  15.714  24.849  12.606
92053W        W64478  16.674  12.765   4.415
92054W        W64479  44.467  16.295   0.926
92055W        W64480   6.475  17.056  14.016
92056W        W64481  37.819  11.029   4.247
92057W        W64482  42.967  33.703  14.821
92058W        W64483  28.041  10.116   9.898
92059W        W64484  24.956  34.370  14.706
92060W        W64485  44.771  22.978   0.360
92061W        W64486  17.153  24.144  14.679
92062W        W64487  19.116   2.368  14.864
92063W        W64488  25.394  18.713   4.088
92064W        W64489   7.292  38.336  13.406
92065W        W64490  30.423  36.859  11.974
92066W        W64491  38.272   4.871  10.776
92067W        W64492   6.456   0.242  14.372
92068W        W64493  12.033  38.944  12.966
92069W        W64494  30.573   8.419  12.924
92070W        W64495  26.579  24.835  13.058
92071W        W64496  35.358   6.658   3.613
92072W        W64497  35.509  16.740   4.837
92073W        W64498   9.262   8.585   1.360
92074W        W64499  29.109  28.001  10.907
92075W        W64500  12.767  16.095   3.557
92076W        W64501  11.782  28.911  12.448
92077W        W64502  39.048  24.802   5.035
92078W        W64503  32.645  27.196  13.460
92079W        W64504  26.714   3.542   0.312
92080W        W64505  11.132  35.786  13.290
92081W        W64506  11.869  29.400  11.576
92082W        W64507  43.894   1.823  11.260
92083W        W64508  30.132  41.838   1.690
92084W        W64509  28.000  22.686  11.106
92085W        W64510  39.091  21.404   5.260
92086W        W64511  39.974  16.770   3.951
92087W        W64512  37.844   7.137   1.252
92088W        W64513  25.680  27.967   3.351
92089W        W64514  16.701  32.053  12.279
92090W        W64515  21.046  42.488  14.032
92091W        W64516  23.533   0.471   2.747
92092W        W64517  10.826   7.584  10.877
92093W        W64518  17.180  12.550  12.928
92094W        W64519  42.826  41.551   1.363
92095W        W64520   0.497  12.363   1.793
92096W        W64521  32.474  44.608   1.177
92097W        W64522  37.640  20.620   1.880
92098W        W64523  44.240  43.831   2.143
92099W        W64524  16.428  40.273   2.400
92100W        W64525  42.569  44.995   1.859
92101W        W64526  25.063  11.895   4.001
92102W        W64527  36.481   8.924   0.416
92103W        W64528  24.244  35.951  14.316
92104W        W64529  37.683  11.520   4.279
92105W        W64530  34.949  34.328  12.097
92106W        W64531  22.072  24.868  14.778
92107W        W64532  23.665   1.915   2.894
92108W        W64533  44.998  43.190   3.719
92109W        W64534  34.836  27.336   4.523
92110W        W64535  19.270  15.855   2.334
92111W        W64536  39.374  26.190   4.602
92112W        W64537   3.257   9.841   1.062
92113W        W64538   8.339  37.873   3.649
92114W        W64539  14.202  17.528   4.568
92115W        W64540  33.405  35.224  13.137
92116W        W64541   5.930  39.530  11.131
92117W        W64542   5.641  14.726  13.298
92118W        W64543  25.547  39.999  13.461
92119W        W64544  13.325  17.809   1.333
92120W        W64545  20.278  22.927  13.459
92121W        W64546  10.703   8.439  13.480
92122W        W64547  40.911  21.667   2.596
92123W        W64548  28.522  33.119  14.683
92124W        W64549  13.620   1.439  12.385
92125W        W64550  31.090  13.738  12.838
92126W        W64551  44.477  20.247   0.758
92127W        W64552  15.865  12.118   2.628
92128W        W64553  14.295   2.790  13.118
92129W        W64554  10.205  22.395  10.171
92130W        W64555  12.057  22.492  13.798
92131W        W64556  35.624  26.550   1.665
92132W        W64557   8.343  37.699  14.114
92133W        W64558  32.203  43.489  12.702
92134W        W64559  24.920   5.081   1.404
92135W        W64560  44.494  34.081  13.012
92136W        W64561  30.892   6.389  12.530
92137W        W64562  10.862  10.829   3.333
92138W        W64563   6.609  40.348   1.346
92139W        W64564  20.464  36.449  11.549
92140W        W64565  21.147  41.423   4.390
92141W        W64566  24.058   7.330   1.897
92142W        W64567  23.634  16.135  12.557
92143W        W64568   3.186  22.093  14.474
92144W        W64569  13.844  28.937  11.575
92145W        W64570  10.574  13.188   0.928
92146W        W64571   9.321  19.199  13.857
92147W        W64572   6.278  34.916   2.385
92148W        W64573   5.507   5.678  11.618
92149W        W64574  36.059   2.396  13.946
92150W        W64575   9.329   9.869  14.569
92151W        W64576  25.195  24.991  10.747
92152W        W64577   0.921  21.204   4.208
92153W        W64578  14.668   0.414  11.403
92154W        W64579   3.650  41.319  13.364
92155W        W64580  37.243   9.445   4.626
92156W        W64581  34.639   2.749   3.648
92157W        W64582  26.062  34.047   2.858
92158W        W64583  40.898  20.139  13.975
92159W        W64584   8.298  34.538  11.467
92160W        W64585   5.739   0.800  14.355
92161W        W64586  36.347  13.049   2.269
92162W        W64587  27.597   6.596   3.899
92163W        W64588  28.572  36.388   4.649
92164W        W64589  11.806  27.766  14.680
92165W        W64590  29.087   2.941  11.942
92166W        W64591  36.667  12.617  10.281
92167W        W64592  26.460  11.635   2.567
92168W        W64593  10.770  43.964  12.672
92169W        W64594   7.713   8.147  11.651
92170W        W64595  15.696  43.026   4.531
92171W        W64596  19.409  26.003   3.967
92172W        W64597  38.280  12.612  13.983
92173W        W64598  33.159   3.821  11.173
92174W        W64599  35.720  27.301  14.349
92175W        W64600  15.848   0.005   4.368
92176W        W64601  14.024  29.455   4.848
92177W        W64602  17.116  17.289   0.812
92178W        W64603  36.162  28.084  13.082
92179W        W64604  16.815  41.200   1.773
92180W        W64605  19.509  42.760  14.781
92181W        W64606  24.567  17.171  13.988
92182W        W64607  23.540   9.217  10.710
92183W        W64608  26.315  31.425   4.383
92184W        W64609  44.288  37.732   0.097
92185W        W64610  30.168  27.350  10.607
92186W        W64611  27.514   5.229  12.441
92187W        W64612  11.085   7.706   3.616
92188W        W64613   8.253  16.463  12.870
92189W        W64614   1.005  25.212   1.162
92190W        W64615  11.763  30.877  12.392
92191W        W64616   8.717   9.801   2.447
92192W        W64617   0.144  21.242  11.037
92193W        W64618  14.092  25.363  13.467
92194W        W64619  16.052   6.236   4.208
92195W        W64620  11.318  19.268  12.929
92196W        W64621  21.671  15.303  14.837
92197W        W64622  15.479   4.909  11.915
92198W        W64623   1.779  16.235   4.654
92199W        W64624   1.353  44.778   1.463
92200W        W64625  24.686  12.717   0.546
92201W        W64626  37.031  30.209   2.794
92202W        W64627  43.462  14.263  14.740
92203W        W64628  32.496  10.148  14.553
92204W        W64629  24.707   0.629   4.926
92205W        W64630  29.032   2.111   4.660
92206W        W64631  24.181  31.601  12.750
92207W        W64632  27.110   2.446  12.266
92208W        W64633  32.542  13.511  14.467
92209W        W64634   3.406  39.761  14.782
92210W        W64635  31.177  18.284   2.404
92211W        W64636   2.860  12.169   1.208
92212W        W64637  25.036   6.477   2.427
92213W        W64638  40.746  16.685   1.843
92214W        W64639  30.527  44.467   2.673
92215W        W64640  37.769   2.725  14.766
92216W        W64641  13.904   9.716   2.379
92217W        W64642  41.452   3.988   1.818
92218W        W64643  36.523  42.919  10.360
92219W        W64644   6.623  42.257   0.696
92220W        W64645  37.159  19.309   4.962
92221W        W64646  28.417  23.003  11.902
92222W        W64647  40.480   0.257  13.794
92223W        W64648  21.706  12.157  12.805
92224W        W64649  41.815  15.814  11.578
92225W        W64650  28.174  38.823   4.594
92226W        W64651  18.052  43.403  12.970
92227W        W64652  15.525  20.334  10.694
92228W        W64653  13.832  21.495  14.973
92229W        W64654   7.609   6.206  12.103
92230W        W64655   2.423  28.105  10.355
92231W        W64656   1.122  10.441   2.899
92232W        W64657  37.993  22.722   0.884
92233W        W64658  17.807  41.932   0.665
92234W        W64659  29.185  28.640  12.918
92235W        W64660  36.558  43.465   4.553
92236W        W64661   3.936  41.693  11.048
92237W        W64662   0.925  36.299  13.414
92238W        W64663   0.973  15.046   3.645
92239W        W64664  29.922  27.067   1.858
92240W        W64665   2.377   5.392   3.355
92241W        W64666   4.461  13.191   1.864
92242W        W64667   7.193  43.558   1.368
92243W        W64668  41.912  39.966  10.520
92244W        W64669   7.298  39.078   1.237
92245W        W64670  29.937   5.871   4.133
92246W        W64671  25.369  22.849   0.676
92247W        W64672  37.911   7.661  14.931
92248W        W64673  13.711  23.236  12.336
92249W        W64674  27.744  38.354  12.575
92250W        W64675  40.390  33.129  13.459
92251W        W64676  37.604  35.924   4.066
92252W        W64677  40.121  39.770   2.384
92253W        W64678   4.775   4.474   4.704
92254W        W64679  43.950  43.503   1.777
92255W        W64680   1.689   2.866   3.632
92256W        W64681  32.441  28.638   3.088
92257W        W64682  10.669   3.188   1.453
92258W        W64683   2.944   0.821   1.819
92259W        W64684  11.820  26.895  10.703
92260W        W64685  13.219  13.682   3.089
92261W        W64686  18.691  33.488   5.036
92262W        W64687  40.748  28.688   4.714
92263W        W64688  10.760   7.701   0.220
92264W        W64689   6.840   9.366  12.345
92265W        W64690   7.174  20.654   1.815
92266W        W64691  31.056  37.647  13.031
92267W        W64692   9.206  34.839   3.666
92268W        W64693  19.565  44.479   0.016
92269W        W64694  32.540   7.067   0.428
92270W        W64695  34.455  17.509   1.904
92271W        W64696  26.114  40.233   2.573
92272W        W64697  28.323   4.739   4.479
92273W        W64698   3.446  11.376   1.338
92274W        W64699  32.040  43.991  11.980
92275W        W64700  40.590   5.676   0.451
92276W        W64701   2.815  15.783  14.386
92277W        W64702  21.064  33.898   2.302
92278W        W64703   5.288  27.164   2.275
92279W        W64704  42.337  22.658  10.537
92280W        W64705   9.576   3.938  13.330
92281W        W64706   0.591  33.903  12.365
92282W        W64707  18.331  19.299  12.484
92283W        W64708   6.962  14.702   2.733
92284W        W64709   7.337  21.556  11.969
92285W        W64710  28.858  11.775  12.948
92286W        W64711   6.828  41.640   3.820
92287W        W64712   1.898  37.315  12.904
92288W        W64713  10.656  42.065  12.865
92289W        W64714  32.100  33.401  12.028
92290W        W64715   2.232   0.812  10.988
92291W        W64716  34.552  20.109  11.179
92292W        W64717  20.705   2.761   3.675
92293W        W64718  24.252  23.257  10.711
92294W        W64719  27.714  19.622  11.106
92295W        W64720  18.544  23.077   0.004
92296W        W64721  11.847  28.165  13.784
92297W        W64722  37.399  29.323  12.806
92298W        W64723  22.018  43.359  12.028
92299W        W64724  27.198  31.926   9.571
92300W        W64725   4.817   8.276  13.511
92301W        W64726  29.859  16.052  14.759
92302W        W64727  36.243   5.819  10.704
92303W        W64728  15.677  22.639  12.342
92304W        W64729  29.351  11.749  11.719
92305W        W64730   6.115  35.069   3.233
92306W        W64731   7.982  36.404   2.896
92307W        W64732  20.492   6.886   2.878
92308W        W64733  43.493  27.102  12.559
92309W        W64734  32.565  31.167  13.525
92310W        W64735  26.022  26.001   1.279
92311W        W64736  32.229   5.762  14.500
92312W        W64737  21.115   5.859  11.523
92313W        W64738   7.995  36.351  11.494
92314W        W64739   9.439  36.731  13.874
92315W        W64740  33.716   5.732   0.232
92316W        W64741  36.060  38.428   1.753
92317W        W64742  44.881  42.952  13.107
92318W        W64743  10.651  24.723  10.717
92319W        W64744  13.329   7.269   3.652
92320W        W64745  38.886   8.713  11.148
92321W        W64746  43.794  32.441  10.220
92322W        W64747  40.917   7.834  12.932
92323W        W64748   8.758  25.502   0.718
92324W        W64749  23.526   9.193  12.057
92325W        W64750  39.300  13.662   2.813
92326W        W64751   7.809  31.150   3.824
92327W        W64752  24.805  18.533  13.216
92328W        W64753  23.181  34.110  10.952
92329W        W64754  42.623  38.315  12.553
92330W        W64755  15.346  18.328   3.148
92331W        W64756   9.352   8.914   4.337
92332W        W64757  28.686  14.777  14.262
92333W        W64758  29.113  31.610   3.135
92334W        W64759  33.542  34.508  11.397
92335W        W64760  26.630   9.875   1.825
92336W        W64761   0.978  20.520  14.697
92337W        W64762  39.327  32.499  14.340
92338W        W64763  42.911  37.605  14.483
92339W        W64764  22.485  13.171   4.586
92340W        W64765  34.784  29.193   2.835
92341W        W64766   6.928  17.266   1.414
92342W        W64767  21.523  18.404  14.729
92343W        W64768  32.471  23.087  14.406
92344W        W64769  12.974  16.497   0.890
92345W        W64770  34.725   8.036   4.740
92346W        W64771  12.251  15.415  14.997
92347W        W64772  16.809  12.222  11.624
92348W        W64773  11.118  16.886   1.865
92349W        W64774   6.880  21.983  13.892
92350W        W64775  27.611  13.309   2.873
92351W        W64776  32.832  37.121   2.381
92352W        W64777  15.775  33.596   2.999
92353W        W64778   8.492  10.720   0.533
92354W        W64779   4.587  36.286   5.054
92355W        W64780  42.622  20.341  13.625
92356W        W64781  32.942  10.461   2.225
92357W        W64782  39.717  20.663  13.385
92358W        W64783  44.251  41.395  12.616
92359W        W64784   4.183  36.118   4.696
92360W        W64785  19.333  10.284   2.823
92361W        W64786   8.614   6.341  13.459
92362W        W64787   6.403  16.282   1.609
92363W        W64788   7.166  12.139   3.667
92364W        W64789  42.872  28.348  11.251
92365W        W64790  23.599   4.297  12.131
92366W        W64791  39.874  42.286  12.126
92367W        W64792  27.111  30.112  14.425
92368W        W64793  26.338  20.858  10.644
92369W        W64794  44.829  21.126   3.624
92370W        W64795  18.542   4.973   5.377
92371W        W64796  39.462  10.843  11.395
92372W        W64797  22.753  34.880   4.644
92373W        W64798   6.207  15.049  14.409
92374W        W64799   2.874   5.744  13.051
92375W        W64800   9.611  13.758  14.729
92376W        W64801  38.918  11.597  12.023
92377W        W64802  10.955  32.092  10.670
92378W        W64803   4.745  11.395   2.193
92379W        W64804   8.875   9.803  14.074
92380W        W64805  25.047  10.280  13.080
92381W        W64806  39.795  11.674   3.228
92382W        W64807  10.740  27.370  11.017
92383W        W64808  30.134  33.835   0.848
92384W        W64809  17.856   6.196   3.788
92385W        W64810  27.802  38.486  14.516
92386W        W64811   8.046  19.328   1.092
92387W        W64812  43.512  16.431   1.487
92388W        W64813  22.526   9.381  10.659
92389W        W64814  37.311  11.572   2.468
92390W        W64815   7.880  24.544  14.297
92391W        W64816  20.925  21.148   2.672
92392W        W64817  14.766  15.623  10.927
92393W        W64818  28.613  29.433   0.677
92394W        W64819   5.994  15.889   0.963
92395W        W64820   6.615  38.557  14.871
92396W        W64821  35.447  20.305  14.329
92397W        W64822  38.417  33.954   2.474
92398W        W64823  24.396  31.442   3.060
92399W        W64824  10.046   0.282   2.755
92400W        W64825   9.121   4.126  13.541
92401W        W64826  29.337  27.150  11.181
92402W        W64827  13.320  17.321  12.965
92403W        W64828   3.034  21.496   4.579
92404W        W64829  35.868  43.848   0.974
92405W        W64830   0.907  43.948  12.211
92406W        W64831  36.999  11.906  14.843
92407W        W64832  28.616  26.501   4.299
92408W        W64833  16.498   0.791   0.635
92409W        W64834  31.608   0.021  11.030
92410W        W64835   2.637  32.974  13.723
92411W        W64836  37.442  29.645   1.199
92412W        W64837  25.949  44.270  14.863
92413W        W64838   3.794  28.899   4.409
92414W        W64839  29.519  21.023   2.740
92415W        W64840   2.925   1.676   3.327
92416W        W64841   1.025  26.546  14.832
92417W        W64842  40.134  30.478  12.473
92418W        W64843  36.855   9.306   5.481
92419W        W64844  11.685  35.069  12.876
92420W        W64845  17.371   0.655   3.092
92421W        W64846  43.654  42.981   3.313
92422W        W64847  43.335   1.019   4.733
92423W        W64848  15.227   2.207  14.936
92424W        W64849  42.281  10.719   4.419
92425W        W64850  22.632  21.590  11.916
92426W        W64851   9.244  11.306  14.382
92427W        W64852   9.188  13.133   3.711
92428W        W64853  12.313  18.789  11.632
92429W        W64854  14.252  35.692   1.861
92430W        W64855   5.641  44.918   3.770
92431W        W64856   6.774  28.147   0.239
92432W        W64857  22.765  26.682   1.253
92433W        W64858   3.363  19.275  14.239
92434W        W64859  24.706  38.923   2.720
92435W        W64860  11.383  35.481  14.918
92436W        W64861  17.201  18.650   2.181
92437W        W64862  10.324  25.083   3.947
92438W        W64863  41.051  11.430   0.782
92439W        W64864  31.696  43.280   4.547
92440W        W64865  44.860  25.229   4.768
92441W        W64866  41.385  41.930  13.102
92442W        W64867  35.556   1.813  12.583
92443W        W64868  28.189  18.484  11.535
92444W        W64869  34.411  39.031  11.465
92445W        W64870  37.485  15.258  10.931
92446W        W64871  22.823   2.552  10.284
92447W        W64872   0.347  27.793   4.278
92448W        W64873  24.962   2.173   4.586
92449W        W64874  32.967  33.372  11.172
92450W        W64875   9.401   4.442  10.650
92451W        W64876  19.658  15.549   2.148
92452W        W64877   0.191   4.404   1.409
92453W        W64878  26.718  24.774  10.664
92454W        W64879  42.750   9.006   3.982
92455W        W64880  38.397   1.474  10.814
92456W        W64881   3.225  38.418  10.686
92457W        W64882   3.898  13.225  14.390
92458W        W64883  33.143  16.046   2.720
92459W        W64884  24.741  36.024  13.348
92460W        W64885  43.510  38.621   2.825
92461W        W64886  10.829  37.972  14.944
92462W        W64887  21.191   8.245   0.557
92463W        W64888  44.884  12.655  12.909
92464W        W64889  32.716  24.438  14.193
92465W        W64890  10.275  31.875   4.566
92466W        W64891   7.977  37.493  12.746
92467W        W64892  29.958  37.589   3.235
92468W        W64893  23.017  40.462   1.945
92469W        W64894  29.721  19.573   2.127
92470W        W64895   7.202  10.209   1.662
92471W        W64896  13.344   0.915  14.513
92472W        W64897   3.165   0.479  12.409
92473W        W64898   6.710  40.429   2.293
92474W        W64899  13.186   9.068  13.080
92475W        W64900  33.877   1.440  10.788
92476W        W64901   5.349  14.156   5.066
92477W        W64902  22.094  44.427  10.618
92478W        W64903  12.687  16.501   3.858
92479W        W64904   5.470  13.205  13.420
92480W        W64905  21.548  39.561   4.539
92481W        W64906   7.481  10.655   0.777
92482W        W64907  36.619  39.399  14.207
92483W        W64908  42.883  19.710   4.925
92484W        W64909  12.826   3.224   3.217
92485W        W64910  17.260   7.480   3.057
92486W        W64911  32.620  25.131  13.539
92487W        W64912  22.745  35.892   0.388
92488W        W64913  27.481  13.312   1.733
92489W        W64914  19.614  15.048   3.705
92490W        W64915  32.064  42.199   3.214
92491W        W64916  10.768  21.091  14.855
92492W        W64917  14.200  13.602   4.826
92493W        W64918  30.094  15.398   3.705
92494W        W64919  32.332   9.651   2.792
92495W        W64920  24.149  10.235   2.678
92496W        W64921   7.599  17.513  11.650
92497W        W64922  32.450  30.679   3.291
92498W        W64923  14.325  38.966  12.117
92499W        W64924  20.611  42.586  10.119
92500W        W64925  38.781  43.872   0.688
92501W        W64926   2.393  43.529   3.764
92502W        W64927  29.145  41.877  14.922
92503W        W64928  20.517  38.917   2.204
92504W        W64929  38.592  36.040  10.476
92505W        W64930   3.460  22.475  10.463
92506W        W64931  42.233   4.854   2.781
92507W        W64932  39.244   0.317  12.134
92508W        W64933  34.667  32.083   1.699
92509W        W64934  39.119   9.380   1.172
92510W        W64935  30.513  10.927  13.509
92511W        W64936  21.717   3.311   3.354
92512W        W64937  34.574  19.791  12.917
92513W        W64938   5.675  25.041  12.079
92514W        W64939   7.994  21.035  11.553
92515W        W64940  34.450  23.145  14.886
92516W        W64941  25.238  42.801  14.290
92517W        W64942  36.615  43.479   1.043
92518W        W64943  21.587  26.479   3.416
92519W        W64944  29.703  41.369   0.959
92520W        W64945  13.590  38.312  14.988
92521W        W64946   4.507  29.865  11.616
92522W        W64947  11.768  33.350   1.214
92523W        W64948  35.880  42.097  12.514
92524W        W64949  36.681  40.146   1.280
92525W        W64950  26.502  29.389   3.750
92526W        W64951   9.647  39.134   2.250
92527W        W64952   4.340  15.662  14.247
92528W        W64953  18.157   7.683  13.376
92529W        W64954  38.090  10.797  11.391
92530W        W64955  14.572  25.483  14.218
92531W        W64956  11.465  20.275   3.813
92532W        W64957  11.619   7.029   0.939
92533W        W64958  23.542  41.297  11.165
92534W        W64959  23.500  34.021  11.548
92535W        W64960  13.157  21.140   0.683
92536W        W64961  29.321   4.489  11.143
92537W        W64962  32.890  43.149  14.468
92538W        W64963   5.389  35.319  13.136
92539W        W64964  25.737  22.921  14.329
92540W        W64965  23.067  30.506  11.678
92541W        W64966  23.081   0.932   3.381
92542W        W64967   6.653  26.082   2.371
92543W        W64968  13.842   9.621   1.327
92544W        W64969  18.520   6.905  13.834
92545W        W64970  37.932  28.380   1.349
92546W        W64971   3.199  23.075   3.109
92547W        W64972   6.248  11.133   2.558
92548W        W64973   1.158  35.602  10.649
92549W        W64974  34.960  38.051  14.539
92550W        W64975   7.855  40.926  10.851
92551W        W64976  12.212   8.827   3.908
92552W        W64977  14.399   9.937   2.307
92553W        W64978  14.580   0.958  14.719
92554W        W64979  20.288  37.479   3.243
92555W        W64980  23.548  44.887  14.414
92556W        W64981  10.941  32.160  12.614
92557W        W64982  42.476  19.423  14.480
92558W        W64983  40.880  32.755   4.211
92559W        W64984  28.028  24.694  12.403
92560W        W64985   4.686  15.668  13.217
92561W        W64986  40.610  30.657   3.245
92562W        W64987  13.675  34.313  14.361
92563W        W64988  43.420   4.727  12.992
92564W        W64989  16.812  32.051  10.438
92565W        W64990  22.423   3.500   4.154
92566W        W64991   9.631  31.922  13.022
92567W        W64992  17.409  27.652  14.305
92568W        W64993  39.976  16.741  12.639
92569W        W64994   3.344   0.301  11.572
92570W        W64995  32.135   4.471   2.476
92571W        W64996   1.995  18.699   1.333
92572W        W64997  15.845  26.905   0.632
92573W        W64998  40.945  16.770   0.402
92574W        W64999  41.960   7.326   4.356
92575W        W65000  31.879  27.433   3.280
92576W        W65001   2.206  20.327   0.811
92577W        W65002   4.232  23.225  11.013
92578W        W65003  12.057  31.699  11.689
92579W        W65004  31.515  14.888   2.614
92580W        W65005  36.570  12.971  12.505
92581W        W65006  22.482  25.430  12.394
92582W        W65007   5.361   9.787  13.051
92583W        W65008  36.046  43.952   2.341
92584W        W65009  18.117  18.705  14.999
92585W        W65010  18.567   6.251   1.739
92586W        W65011   3.375  26.971   0.431
92587W        W65012  27.345  35.676  11.586
92588W        W65013   2.848  44.360  12.173
92589W        W65014  15.078  44.022  13.089
92590W        W65015  23.247  14.530   3.653
92591W        W65016  37.098  27.039  13.416
92592W        W65017  10.605  25.053  12.580
92593W        W65018  24.553  21.581   1.464
92594W        W65019  33.157   2.789  13.351
92595W        W65020  24.913  32.104  13.028
92596W        W65021  29.723  24.156  13.882
92597W        W65022  30.689   2.761   2.045
92598W        W65023  14.217  26.292   1.089
92599W        W65024   9.806  40.979   2.136
92600W        W65025  15.715  17.838  12.917
92601W        W65026  23.972  15.637   3.182
92602W        W65027   6.331  35.173  11.939
92603W        W65028  29.935  34.759  11.440
92604W        W65029   6.484   5.871  10.689
92605W        W65030  37.765   7.431   3.672
92606W        W65031  25.105  21.362  10.281
92607W        W65032  41.676  27.651   4.217
92608W        W65033   5.753   3.880  13.314
92609W        W65034   3.526  33.976   3.882
92610W        W65035  40.132  44.814   1.915
92611W        W65036  34.102   8.271  12.676
92612W        W65037  30.404  39.877   3.966
92613W        W65038  16.312  21.810  10.776
92614W        W65039  25.983  39.565  11.069
92615W        W65040  36.867   3.536   2.278
92616W        W65041   6.252  24.276   4.099
92617W        W65042  33.147  39.445   3.664
92618W        W65043  19.688  27.141  14.941
92619W        W65044  10.894  17.258   1.402
92620W        W65045  41.774  42.184  13.615
92621W        W65046  35.524  29.302   2.290
92622W        W65047  16.155  15.822   2.331
92623W        W65048  16.841  16.755   0.910
92624W        W65049  36.521  21.921  14.077
92625W        W65050  26.345   6.271  14.512
92626W        W65051  28.492  33.403   4.623
92627W        W65052  33.678  18.408  14.366
92628W        W65053  20.015  43.270  11.471
92629W        W65054  44.811  16.724   0.053
92630W        W65055   8.676   5.310   2.420
92631W        W65056   9.209  23.485   3.556
92632W        W65057   5.671   0.276   2.533
92633W        W65058  42.480   7.851  12.087
92634W        W65059   0.010  20.809  13.393
92635W        W65060  42.955  24.217  14.968
92636W        W65061  26.014  35.822   0.431
92637W        W65062  34.603  41.250  11.510
92638W        W65063   2.554   0.346  14.810
92639W        W65064   6.413   5.690   4.621
92640W        W65065  10.334  23.493   2.074
92641W        W65066  38.374  19.060   3.889
92642W        W65067  11.167  32.744  14.385
92643W        W65068  44.361   5.921   1.722
92644W        W65069  19.353   0.259   3.634
92645W        W65070  17.524  43.821   2.152
92646W        W65071  18.145  44.348  11.498
92647W        W65072  42.846  12.887  11.070
92648W        W65073  18.453  12.723   1.341
92649W        W65074  25.644  43.455  12.774
92650W        W65075  12.217  16.993  11.117
92651W        W65076  43.044  18.179  14.313
92652W        W65077  39.477  11.771   2.754
92653W        W65078   9.135  27.089   1.373
92654W        W65079  29.233  12.252   1.039
92655W        W65080   5.175  18.142  14.433
92656W        W65081  17.599  30.118  14.979
92657W        W65082  42.767  33.917  10.722
92658W        W65083  40.493  14.204  10.677
92659W        W65084  25.637  17.627  11.217
92660W        W65085  37.401  14.780   0.840
92661W        W65086  35.655   5.246   0.792
92662W        W65087  30.839  15.086   4.790
92663W        W65088  26.975  22.138   2.314
92664W        W65089  16.025  11.738   2.320
92665W        W65090   3.914  27.483  13.530
92666W        W65091  32.549  26.415   1.737
92667W        W65092  29.193  14.316   1.410
92668W        W65093  13.588  19.608   3.265
92669W        W65094  41.904  33.678   0.232
92670W        W65095  22.293  44.389  12.263
92671W        W65096  30.784   6.113   2.627
92672W        W65097  42.095  19.013  12.819
92673W        W65098  25.879   1.049  13.821
92674W        W65099  26.174   3.745   3.658
92675W        W65100  23.507  15.675   3.442
92676W        W65101   5.793  10.552  13.480
92677W        W65102  37.407  35.471   1.299
92678W        W65103  38.867  13.766   0.761
92679W        W65104   9.929  25.675   1.857
92680W        W65105   2.650  10.316  14.412
92681W        W65106   9.780   9.011  11.034
92682W        W65107  10.557   9.460   4.134
92683W        W65108   4.409   2.528  10.668
92684W        W65109  17.614   3.417  11.206
92685W        W65110   5.265  17.665   4.898
92686W        W65111  22.992   3.417  13.056
92687W        W65112  26.970  14.163  13.392
92688W        W65113   3.320  16.176   4.832
92689W        W65114  31.227   7.844  12.764
92690W        W65115  31.628  18.140  10.532
92691W        W65116   7.001  40.469  11.872
92692W        W65117   5.597   3.201   4.053
92693W        W65118  44.062   4.484  12.853
92694W        W65119  13.329   5.687  13.889
92695W        W65120   0.813  32.034  13.337
92696W        W65121  37.519   6.678  10.723
92697W        W65122  27.948  29.511   1.303
92698W        W65123  33.958  36.016   0.524
92699W        W65124  13.266  28.378  10.780
92700W        W65125   2.201   8.129   1.197
92701W        W65126  11.520   0.195   1.737
92702W        W65127   1.716  38.433   1.548
92703W        W65128  19.942  29.063   4.099
92704W        W65129  22.593   4.778  12.535
92705W        W65130  21.052  19.127  11.638
92706W        W65131  20.184  36.955   3.628
92707W        W65132  24.954  21.700  11.674
92708W        W65133  13.785  32.033  13.870
92709W        W65134  20.147  17.196   9.811
92710W        W65135  15.647  30.660  11.167
92711W        W65136  36.634  36.456  12.601
92712W        W65137  12.192  42.499   3.266
92713W        W65138  19.086   4.788  10.946
92714W        W65139  11.346  42.084   0.499
92715W        W65140  39.584   7.336  11.566
92716W        W65141  42.910  40.050  13.557
92717W        W65142  15.218  10.176   0.374
92718W        W65143  17.493  10.694  13.347
92719W        W65144  32.361  30.553   4.593
92720W        W65145   6.912  34.075   2.217
92721W        W65146  20.680  31.082   2.144
92722W        W65147  37.946   1.475  13.817
92723W        W65148   8.234   3.422   0.497
92724W        W65149  38.054  38.390   1.393
92725W        W65150  14.691   6.634   1.202
92726W        W65151   9.165  39.454  11.496
92727W        W65152  28.604  44.365   3.580
92728W        W65153  13.889   7.700   1.400
92729W        W65154  11.215  41.203  13.750
92730W        W65155  34.529  33.439   4.560
92731W        W65156  37.543  39.326   3.633
92732W        W65157  43.815  32.825  12.323
92733W        W65158  18.717  19.528   2.780
92734W        W65159  28.365   2.963   2.496
92735W        W65160   2.487  26.610   2.435
92736W        W65161  16.063  13.802   3.037
92737W        W65162  16.843  34.054   0.455
92738W        W65163  32.415   4.369   2.909
92739W        W65164  32.666  14.771   0.833
92740W        W65165  35.573  43.270   4.398
92741W        W65166  19.345  21.157  10.714
92742W        W65167  26.331  22.040  12.985
92743W        W65168   7.384  29.870   3.561
92744W        W65169  32.058  38.390   2.709
92745W        W65170  14.325   0.866   3.674
92746W        W65171   2.314  44.284   4.041
92747W        W65172  38.126   6.896   0.693
92748W        W65173  30.125  44.764   0.672
92749W        W65174   6.215   7.448  12.982
92750W        W65175   9.276  43.428  12.861
92751W        W65176  15.035  41.552  11.058
92752W        W65177  43.555  28.677  12.368
92753W        W65178   6.258   2.275   4.216
92754W        W65179  15.226   2.424  13.873
92755W        W65180  36.283  18.253   3.074
92756W        W65181  31.155  40.983   1.812
92757W        W65182  40.830  44.337  11.319
92758W        W65183  17.753   5.239   2.304
92759W        W65184  25.460  33.453  11.480
92760W        W65185  32.638  39.028   3.513
92761W        W65186  23.988  38.471  10.987
92762W        W65187  12.978  38.102   4.453
92763W        W65188   5.406  28.134   4.575
92764W        W65189  44.201  41.902  13.889
92765W        W65190  34.098  10.035  11.091
92766W        W65191  22.134  35.808  12.354
92767W        W65192  39.856   1.901  14.910
92768W        W65193  33.529  36.497  11.446
92769W        W65194  25.527  24.288  13.531
92770W        W65195   5.495   2.762  11.873
92771W        W65196   3.988   1.763  14.342
92772W        W65197   9.570  41.205  14.379
92773W        W65198  29.710  31.360  14.219
92774W        W65199  32.890  23.606  12.783
92775W        W65200  43.896   5.760  12.819
92776W        W65201  34.401  27.216  11.923
92777W        W65202  21.415   5.769  11.095
92778W        W65203  29.720  24.258  10.092
92779W        W65204  38.337  11.847   1.109
92780W        W65205  27.505  29.204   1.445
92781W        W65206  32.511   4.229  11.923
92782W        W65207  43.742  19.869  10.583
92783W        W65208   8.160   8.770  13.445
92784W        W65209   6.327  34.881  14.225
92785W        W65210  24.428  31.179  14.723
92786W        W65211  15.380  33.516  10.956
92787W        W65212  36.571  41.300   4.194
92788W        W65213   6.829   0.641   1.173
92789W        W65214   5.451   6.706  10.975
92790W        W65215   6.873  26.270   4.148
92791W        W65216  43.385  37.891   4.171
92792W        W65217  36.057   8.815   5.321
92793W        W65218   7.772  34.676   3.592
92794W        W65219  36.967  22.666   0.671
92795W        W65220  16.805  34.312  11.559
92796W        W65221  38.081   2.784   3.134
92797W        W65222   2.977  20.212  14.054
92798W        W65223  30.026  15.213  14.487
92799W        W65224  30.208  16.792  11.832
92800W        W65225  20.430  36.797   4.071
92801W        W65226  19.520  16.659   0.724
92802W        W65227  27.997  31.995   0.447
92803W        W65228  29.669  42.354   3.806
92804W        W65229  39.249   5.808   4.521
92805W        W65230   5.303  16.766   4.380
92806W        W65231   4.799  27.474   4.191
92807W        W65232  39.771  13.396  12.476
92808W        W65233  40.237  42.793  10.804
92809W        W65234  21.444   5.658   0.839
92810W        W65235   8.184  19.371   2.714
92811W        W65236  29.964  18.219   0.484
92812W        W65237  15.264  21.728   4.455
92813W        W65238   3.193   1.743  12.078
92814W        W65239   8.774  30.842  14.813
92815W        W65240  26.095  36.919  12.131
92816W        W65241  37.167  15.582   4.039
92817W        W65242  30.531   8.353  10.587
92818W        W65243  37.583  29.793   4.555
92819W        W65244   5.691  17.301   4.382
92820W        W65245  22.809  31.652  10.833
92821W        W65246   1.985  28.970   0.816
92822W        W65247   9.892  43.052  14.943
92823W        W65248  34.406  28.348   2.931
92824W        W65249  14.616   7.944   4.668
92825W        W65250  11.532   3.711   4.610
92826W        W65251  33.876  21.067   1.845
92827W        W65252   3.680  23.685  13.925
92828W        W65253  25.724  38.893   1.272
92829W        W65254  17.771  37.647  11.168
92830W        W65255   9.750   1.148  13.986
92831W        W65256  20.707   3.000   3.147
92832W        W65257   2.458  15.077   3.694
92833W        W65258  19.242  22.121   2.705
92834W        W65259   9.201   4.674   4.642
92835W        W65260  33.672  27.395  13.286
92836W        W65261  27.545   9.842  14.328
92837W        W65262  34.625   1.771  13.394
92838W        W65263  39.652   2.995  14.798
92839W        W65264  42.019  17.739   0.023
92840W        W65265  29.235  24.992   4.633
92841W        W65266  18.276  42.240   3.967
92842W        W65267  41.016  33.067   2.861
92843W        W65268  20.661  16.272   1.417
92844W        W65269  31.155  42.336   4.742
92845W        W65270  19.337  33.533   2.704
92846W        W65271  33.937  27.887   0.757
92847W        W65272  25.754  31.591  12.175
92848W        W65273   9.526  21.637   1.615
92849W        W65274  30.702  27.731  13.267
92850W        W65275  38.762  42.346  13.100
92851W        W65276  32.026  37.991  14.705
92852W        W65277  23.753   4.412   4.126
92853W        W65278   5.706  21.078  12.058
92854W        W65279  44.136   5.654  13.633
92855W        W65280  16.333  37.674   1.812
92856W        W65281   9.605  25.456  13.544
92857W        W65282  34.077  15.864   1.468
92858W        W65283   2.391  10.429   1.388
92859W        W65284  11.240   3.485   0.809
92860W        W65285  25.069  29.484   2.508
92861W        W65286  41.830  36.246   0.480
92862W        W65287  35.534  16.823  11.706
92863W        W65288   9.198  16.199   3.429
92864W        W65289  28.548  40.038  13.761
92865W        W65290  19.268  17.879  12.565
92866W        W65291  15.061  32.545  10.962
92867W        W65292  11.622  12.637  13.312
92868W        W65293  36.411  31.683  13.931
92869W        W65294   1.775   3.159   4.083
92870W        W65295  32.983  41.970   1.340
92871W        W65296  25.136  13.174   3.104
92872W        W65297   6.306  34.093  12.666
92873W        W65298  14.585   6.348  14.921
92874W        W65299   5.946  22.170  13.568
92875W        W65300   0.934  16.113   4.562
92876W        W65301   9.348  25.042   2.487
92877W        W65302  26.918  24.034  12.956
92878W        W65303  17.042  25.602   0.829
92879W        W65304  29.696  12.336   4.914
92880W        W65305  15.651  28.433   1.324
92881W        W65306  35.540  42.734   1.330
92882W        W65307  38.508  37.112   2.298
92883W        W65308   0.253  38.791  10.418
92884W        W65309  36.643  13.590  11.661
92885W        W65310  37.453  28.709  10.500
92886W        W65311  19.168  42.960  14.352
92887W        W65312  29.665  34.048  11.580
92888W        W65313  33.271   7.354  10.397
92889W        W65314  11.801  23.601   0.437
92890W        W65315   6.802  36.896   3.083
92891W        W65316   9.141  32.678   0.050
92892W        W65317  30.452  36.923   0.872
92893W        W65318  31.661  12.374   1.857
92894W        W65319  14.177   1.904  14.758
92895W        W65320   8.757  12.667  10.357
92896W        W65321  17.195   5.881   1.804
92897W        W65322  10.754  24.261  13.966
92898W        W65323  27.629  30.099  14.504
92899W        W65324  20.063  37.411   0.843
92900W        W65325  44.794  19.637   0.174
92901W        W65326   0.667  13.902   5.053
92902W        W65327  19.372  15.024   3.255
92903W        W65328  16.227  43.913   3.119
92904W        W65329  33.132  10.076  13.537
92905W        W65330  19.769   6.221   3.699
92906W        W65331   3.444  10.082   4.557
92907W        W65332  41.584   3.534   4.109
92908W        W65333  12.869  24.616   0.039
92909W        W65334  38.016  35.969   2.812
92910W        W65335  14.797  41.252   1.700
92911W        W65336  29.082  17.337   1.888
92912W        W65337  37.796  41.411   3.729
92913W        W65338  24.966  26.693   0.406
92914W        W65339   8.448  24.465   1.305
92915W        W65340  42.350  32.435   0.525
92916W        W65341   9.137  28.395   0.891
92917W        W65342   9.867  16.297  10.723
92918W        W65343  44.007  34.866  13.059
92919W        W65344  10.533  42.238   1.574
92920W        W65345  14.259  43.295   3.298
92921W        W65346  40.022  42.046  13.597
92922W        W65347  26.985   2.814  13.065
92923W        W65348   7.224  30.839  13.518
92924W        W65349   3.797  17.597  14.294
92925W        W65350  12.709  23.139  11.523
92926W        W65351  24.986  38.596   4.532
92927W        W65352  22.623   1.720   4.102
92928W        W65353  29.222  32.954   3.652
92929W        W65354  14.370  24.951   2.251
92930W        W65355   7.629  13.327  11.095
92931W        W65356  40.611  19.786   4.723
92932W        W65357  30.341  28.517  10.669
92933W        W65358  32.384   0.380   4.822
92934W        W65359  20.970   3.689  14.852
92935W        W65360  32.664  36.951  13.888
92936W        W65361  27.504  36.961  13.824
92937W        W65362   8.737  16.046   3.650
92938W        W65363  41.719  29.705  11.597
92939W        W65364  21.638   9.895   3.653
92940W        W65365  39.858  12.271  13.832
92941W        W65366  14.795  39.444  11.484
92942W        W65367  38.462  24.132   0.333
92943W        W65368  14.573   6.680   1.732
92944W        W65369  32.592  34.381   0.313
92945W        W65370   1.753  36.108  12.515
92946W        W65371  39.621  37.896   4.059
92947W        W65372  24.831  40.832   0.468
92948W        W65373   6.767  11.099   0.375
92949W        W65374  35.276  17.203   0.874
92950W        W65375  10.308  33.707  10.382
92951W        W65376  32.260  20.524  12.696
92952W        W65377  38.577  41.147   4.141
92953W        W65378  36.065  17.743   0.010
92954W        W65379  25.125  31.199   3.873
92955W        W65380  24.784  36.015  14.307
92956W        W65381   2.308  21.187  12.417
92957W        W65382  40.336  16.996   1.802
92958W        W65383  25.089  40.899  10.560
92959W        W65384  21.669  21.598  13.392
92960W        W65385  30.983  30.097   1.850
92961W        W65386  21.245   7.743   5.068
92962W        W65387   8.069  19.816  10.206
92963W        W65388  40.937  37.778   0.765
92964W        W65389  14.747  40.976   1.186
92965W        W65390  28.058   7.388   3.869
92966W        W65391   8.954  13.836  12.089
92967W        W65392  19.524  24.033   2.705
92968W        W65393   1.113   8.044   4.184
92969W        W65394  26.588  43.537   3.904
92970W        W65395   8.740  44.735   0.254
92971W        W65396  21.428  18.001  12.101
92972W        W65397  27.551   7.250   4.571
92973W        W65398  41.343  37.725   3.346
92974W        W65399   9.093   8.074   2.223
92975W        W65400  27.574  42.433   4.090
92976W        W65401   6.421   0.256  13.334
92977W        W65402  10.740  26.138   1.977
92978W        W65403  36.611  38.893  12.007
92979W        W65404   5.704  21.666   1.848
92980W        W65405   6.349  29.007   4.322
92981W        W65406  23.048  39.991  12.060
92982W        W65407  19.311  37.844  11.523
92983W        W65408  21.848  26.722   4.652
92984W        W65409   1.436  20.731  13.461
92985W        W65410  25.557  29.674   9.734
92986W        W65411  20.559  22.219   4.365
92987W        W65412  24.491  30.502   4.873
92988W        W65413  10.937  44.818  10.476
92989W        W65414  36.857  12.309  11.822
92990W        W65415  13.095  18.168   4.095
92991W        W65416  26.495  30.609   4.516
92992W        W65417  18.210  19.220   1.408
92993W        W65418  18.427  10.264   3.151
92994W        W65419  42.032   0.754  12.030
92995W        W65420  36.009  44.428   2.682
92996W        W65421   0.542  37.794  14.919
92997W        W65422  23.156  11.688   2.165
92998W        W65423   0.929  30.732  12.560
92999W        W65424  13.319  11.863   3.211
93000W        W65425  22.548   2.411   3.612
93001W        W65426  27.027   9.852   2.725
93002W        W65427  11.756  39.835  12.442
93003W        W65428   5.688   2.971   2.296
93004W        W65429  22.534  12.357   5.587
93005W        W65430  40.838  19.486  14.847
93006W        W65431  34.544   1.810   3.810
93007W        W65432  21.530   6.384  10.448
93008W        W65433   7.739  28.443  14.759
93009W        W65434  15.740  28.966  13.406
93010W        W65435  14.625  36.928   1.807
93011W        W65436  18.195  29.229   4.708
93012W        W65437   3.652   1.054   1.927
93013W        W65438  41.538  11.129  12.084
93014W        W65439  11.921  43.406  14.318
93015W        W65440  14.856   7.623   1.477
93016W        W65441  17.148  11.773   1.038
93017W        W65442  38.759  17.113   1.323
93018W        W65443  33.076  28.597  14.883
93019W        W65444  28.075  22.300   4.758
93020W        W65445   0.515  27.033   0.191
93021W        W65446  17.556   0.463  14.017
93022W        W65447   6.370   2.242  11.570
93023W        W65448  13.674   2.471   1.739
93024W        W65449   6.224  28.193  10.676
93025W        W65450  20.513  43.277  11.592
93026W        W65451  37.210  38.388   2.942
93027W        W65452  40.494  38.924   4.517
93028W        W65453  39.984  13.717  12.052
93029W        W65454  39.242  36.724   2.927
93030W        W65455  13.190  42.054  12.974
93031W        W65456  11.618  39.547   3.821
93032W        W65457  24.998  27.160  12.205
93033W        W65458  18.855  15.147   3.298
93034W        W65459  12.318  24.598  14.933
93035W        W65460  17.615   1.647   2.237
93036W        W65461  21.365  38.922   1.879
93037W        W65462  12.166   5.250  14.428
93038W        W65463  19.328   6.790   4.304
93039W        W65464  11.293   5.926  13.386
93040W        W65465   4.695   4.036  12.902
93041W        W65466   5.900  21.786   4.279
93042W        W65467  17.642   1.497  11.628
93043W        W65468  15.766  37.649   2.886
93044W        W65469  28.587   5.144  13.290
93045W        W65470  31.288  38.451   1.000
93046W        W65471   2.978  37.953   2.207
93047W        W65472  42.545   4.136  12.108
93048W        W65473   0.881  35.909   0.762
93049W        W65474  15.389  23.659  10.681
93050W        W65475  13.962  19.096  11.982
93051W        W65476  31.007  37.133  14.880
93052W        W65477  11.815  43.264   4.419
93053W        W65478  27.176  22.553   3.109
93054W        W65479  30.038  23.459   0.432
93055W        W65480  10.832  33.590   3.575
93056W        W65481  21.034  26.991   4.932
93057W        W65482  27.230  29.466   4.146
93058W        W65483   4.183  34.488   1.732
93059W        W65484  27.422  23.698   4.360
93060W        W65485  24.755   3.704  13.975
93061W        W65486  28.938   2.014  13.703
93062W        W65487  14.663  30.972   1.444
93063W        W65488   3.874  44.036  12.682
93064W        W65489  22.980   9.079   4.494
93065W        W65490  12.311   0.726   3.206
93066W        W65491  25.090  29.576   3.000
93067W        W65492  23.490  22.124  12.237
93068W        W65493   3.301  13.399   4.058
93069W        W65494   0.166   3.342   4.182
93070W        W65495  18.527  37.545  11.569
93071W        W65496  40.933   7.210   4.038
93072W        W65497  37.335  15.249  14.382
93073W        W65498  12.128  14.085  14.823
93074W        W65499  42.364  28.331   1.254
93075W        W65500  28.674  28.518  13.882
93076W        W65501  37.938  37.893   1.399
93077W        W65502  13.911  40.433  12.642
93078W        W65503   2.324  13.277  13.656
93079W        W65504  38.960  34.342   4.035
93080W        W65505   6.257  28.022   4.517
93081W        W65506  29.010  39.675  14.882
93082W        W65507   5.248  20.268  13.729
93083W        W65508  22.200  41.600  10.626
93084W        W65509  36.637  24.466   1.362
93085W        W65510   8.173  23.013   1.926
93086W        W65511   1.825   0.844  10.638
93087W        W65512  38.584  33.375   0.393
93088W        W65513  19.333  36.899  10.601
93089W        W65514  22.696   9.878   4.336
93090W        W65515   0.180  26.739  12.131
93091W        W65516  37.318  37.075  10.784
93092W        W65517   4.803  23.028   0.817
93093W        W65518   3.331  36.946   1.210
93094W        W65519   6.240   7.189  14.511
93095W        W65520  36.473  40.829   4.006
93096W        W65521  17.107   4.178  14.063
93097W        W65522   7.066  15.586  11.554
93098W        W65523  12.790  13.633  12.472
93099W        W65524   0.385  25.351   4.771
93100W        W65525  36.505  44.999   1.152
93101W        W65526  30.996  14.328   0.050
93102W        W65527  37.409  26.174   4.395
93103W        W65528  38.471   2.667   0.858
93104W        W65529  42.261  20.597   0.282
93105W        W65530  30.827  20.847   2.254
93106W        W65531  39.296  31.157   3.237
93107W        W65532  12.325  25.547  12.457
93108W        W65533  30.084   5.615  11.603
93109W        W65534  26.037   9.901   2.663
93110W        W65535  31.961  29.063  12.804
93111W        W65536  28.071  42.386   4.834
93112W        W65537   4.822  15.780  12.094
93113W        W65538  35.020  11.356   4.872
93114W        W65539  22.401   8.885  11.379
93115W        W65540  23.734  31.341  12.779
93116W        W65541  33.933  13.589  14.512
93117W        W65542   1.047  28.493  11.312
93118W        W65543   4.267  27.417  11.081
93119W        W65544  18.474  20.325   4.643
93120W        W65545  11.555  31.071   3.401
93121W        W65546  24.188  30.057   2.837
93122W        W65547  10.747  12.675   4.090
93123W        W65548  18.786  30.693   2.775
93124W        W65549  19.872   3.728   1.909
93125W        W65550  21.186  31.887   4.356
93126W        W65551  43.943  23.167   0.789
93127W        W65552   3.315  23.722   4.794
93128W        W65553  16.200  21.677   0.259
93129W        W65554   4.752  44.414   4.613
93130W        W65555  32.535  20.664   4.538
93131W        W65556  29.726  22.195   3.333
93132W        W65557   6.722  23.601   3.148
93133W        W65558  13.612   3.314   5.397
93134W        W65559   9.032  12.827   1.967
93135W        W65560  30.140   8.392  14.024
93136W        W65561  33.161  31.526   2.493
93137W        W65562   5.799  36.050   5.010
93138W        W65563  29.480  38.791  11.081
93139W        W65564  11.082  24.199   3.156
93140W        W65565  10.251  10.397  13.417
93141W        W65566  42.996   4.495   4.470
93142W        W65567   7.968  37.027  13.534
93143W        W65568  14.700  32.386   1.325
93144W        W65569  16.539  42.379  11.422
93145W        W65570  35.312  29.924  11.475
93146W        W65571   1.619  36.020   3.680
93147W        W65572   1.873  36.803  12.861
93148W        W65573   4.002  18.346  12.606
93149W        W65574   2.747  38.616   3.395
93150W        W65575  34.996   9.018  13.568
93151W        W65576  37.130  39.500  11.638
93152W        W65577  33.487  34.529   2.407
93153W        W65578  36.288   3.899  14.360
93154W        W65579   8.386  22.372  12.773
93155W        W65580   0.365  32.854  13.484
93156W        W65581  32.681  25.467   1.861
93157W        W65582   6.403   1.368   1.307
93158W        W65583   8.401  19.803   3.254
93159W        W65584  32.865  22.688   0.575
93160W        W65585   0.124   3.318  11.897
93161W        W65586  25.419   8.390  10.608
93162W        W65587  21.866  36.110   2.244
93163W        W65588  24.044  21.208  11.048
93164W        W65589  10.618   0.562   1.701
93165W        W65590  18.966   8.470   2.209
93166W        W65591  25.540  17.562  12.644
93167W        W65592  24.228  42.414   4.175
93168W        W65593   1.679  17.545   2.800
93169W        W65594   6.396  24.699  13.323
93170W        W65595  39.269   5.873   0.782
93171W        W65596  14.841  30.153  14.265
93172W        W65597   2.834  41.279   4.326
93173W        W65598  36.077   1.763  13.398
93174W        W65599  37.913  19.872  10.579
93175W        W65600  10.466  41.559   2.327
93176W        W65601  22.207  29.138   2.550
93177W        W65602  29.268   7.081   0.883
93178W        W65603  32.432  34.133   3.598
93179W        W65604  31.661  28.109   1.029
93180W        W65605  29.559   4.203  13.770
93181W        W65606  34.971  17.597  14.303
93182W        W65607  24.630  44.559   3.315
93183W        W65608  43.653  28.647   2.777
93184W        W65609   6.100  44.460  10.530
93185W        W65610   4.311  19.049  12.889
93186W        W65611  39.462  38.090  12.548
93187W        W65612  36.304  42.290  14.773
93188W        W65613  33.935  15.259   0.237
93189W        W65614   6.209  16.680   0.633
93190W        W65615  44.872  26.206  11.194
93191W        W65616  31.117  18.340  12.512
93192W        W65617   2.310  30.677  12.124
93193W        W65618  24.077  23.152   3.690
93194W        W65619  43.110   5.886   3.045
93195W        W65620   1.728  23.449   2.200
93196W        W65621  19.186  43.742   3.647
93197W        W65622  44.981  42.048   2.193
93198W        W65623  31.446  35.281   2.608
93199W        W65624   9.564  29.944   1.869
93200W        W65625  24.581  32.373   4.732
93201W        W65626  30.057  17.414  14.887
93202W        W65627  31.025  14.598  12.503
93203W        W65628  30.026  36.632   1.956
93204W        W65629  36.023   5.771   5.076
93205W        W65630  22.802  29.014   4.749
93206W        W65631  30.503  34.281  12.172
93207W        W65632  29.438  43.047   0.538
93208W        W65633  40.889   1.934  12.452
93209W        W65634  40.917  12.271   0.262
93210W        W65635  32.151  20.658  13.588
93211W        W65636  42.250  14.475   3.958
93212W        W65637  20.629   4.288   2.291
93213W        W65638  21.432   1.614  12.086
93214W        W65639  44.165  22.328  11.151
93215W        W65640   1.965  43.963   3.357
93216W        W65641  27.034  36.372   1.687
93217W        W65642  13.534  37.344   1.333
93218W        W65643  12.160  12.855   4.717
93219W        W65644  14.699   7.511  11.220
93220W        W65645   9.795   9.246  14.809
93221W        W65646   9.550  22.180  14.475
93222W        W65647   7.895  19.811   4.180
93223W        W65648  43.733  35.052  10.249
93224W        W65649  35.180   4.961   2.783
93225W        W65650  11.863  21.103   4.346
93226W        W65651  13.841  32.958   2.747
93227W        W65652   0.858  40.981   2.719
93228W        W65653  23.962  24.123   2.270
93229W        W65654  11.246  18.912  14.226
93230W        W65655  33.343  23.107  13.547
93231W        W65656  19.227  40.980  11.517
93232W        W65657   0.805   4.940  13.085
93233W        W65658   2.808   0.006  14.536
93234W        W65659   3.275   4.740  12.948
93235W        W65660   6.102  41.033   4.006
93236W        W65661  12.977  18.994   0.300
93237W        W65662   9.607  41.003   3.331
93238W        W65663  23.177  44.940  14.045
93239W        W65664  43.247  44.881  10.445
93240W        W65665   0.536   3.471   1.951
93241W        W65666  35.369  42.651   2.824
93242W        W65667  40.333  23.965  13.370
93243W        W65668   0.120  13.700   2.448
93244W        W65669   0.472  22.720   4.604
93245W        W65670  11.809   3.249   0.024
93246W        W65671  39.891  36.200   1.802
93247W        W65672   3.150  34.565  13.401
93248W        W65673   3.841  37.268   1.948
93249W        W65674   3.725  25.002   1.911
93250W        W65675   7.692   6.729   2.970
93251W        W65676  27.426   4.723   4.955
93252W        W65677  11.736  38.877   4.506
93253W        W65678  30.332  14.821   0.917
93254W        W65679  28.632  29.489  13.045
93255W        W65680   8.481  33.609  10.686
93256W        W65681  14.163  30.607   3.192
93257W        W65682  19.322  36.194   3.168
93258W        W65683  19.156  35.674   3.365
93259W        W65684  31.856  31.427  12.955
93260W        W65685   4.117  38.328   1.794
93261W        W65686   0.989   6.377   3.795
93262W        W65687  28.029  38.273  13.064
93263W        W65688  25.529  30.381   1.851
93264W        W65689  12.177  41.353   2.229
93265W        W65690  42.661  14.193  14.345
93266W        W65691  41.089  36.460  11.639
93267W        W65692  41.027  36.752   3.218
93268W        W65693   9.433  16.184   1.357
93269W        W65694  29.329  12.850   3.268
93270W        W65695  43.814  20.968   9.883
93271W        W65696  33.897  16.230  12.074
93272W        W65697   6.665   3.706  14.298
93273W        W65698  18.283  22.124  12.486
93274W        W65699  26.639  31.476  13.019
93275W        W65700   8.337  22.487   1.232
93276W        W65701   5.538  41.841  11.970
93277W        W65702   6.418  38.466  11.595
93278W        W65703  18.581   2.221  13.330
93279W        W65704  20.628  15.141  12.582
93280W        W65705   0.423   8.643   2.398
93281W        W65706  13.143  15.267  14.826
93282W        W65707   5.379  10.490  10.392
93283W        W65708  38.396  24.643   4.616
93284W        W65709  29.884  19.283   4.220
93285W        W65710  28.022  30.539   1.285
93286W        W65711  15.101  15.694   1.364
93287W        W65712   8.666  24.748   1.714
93288W        W65713  39.581  18.487   1.486
93289W        W65714   5.298  40.338   0.012
93290W        W65715  21.641  39.073   0.535
93291W        W65716  37.026  18.685   2.965
93292W        W65717  28.114  42.884  14.789
93293W        W65718  15.642  23.144   4.766
93294W        W65719   4.425  13.417  13.521
93295W        W65720   5.720  33.154   4.491
93296W        W65721   5.194  36.950   1.922
93297W        W65722  33.471  10.981   3.467
93298W        W65723  24.174  36.865  12.831
93299W        W65724  16.672  18.297  10.766
93300W        W65725  17.559  26.949  10.684
93301W        W65726  10.844  11.876   0.901
93302W        W65727  35.942  12.364   3.428
93303W        W65728   5.695  18.186  14.362
93304W        W65729  22.628  27.062   3.143
93305W        W65730  44.273   6.658  13.961
93306W        W65731  41.833  39.859  14.538
93307W        W65732  30.995  34.016   0.226
93308W        W65733  37.019  12.248  10.394
93309W        W65734  36.066  21.198   9.942
93310W        W65735  11.935  29.722   0.866
93311W        W65736  12.779  19.601  10.313
93312W        W65737  21.729  37.489  11.462
93313W        W65738  36.411  34.347   3.886
93314W        W65739  44.289  14.576   3.130
93315W        W65740   8.017  35.043  14.906
93316W        W65741  27.286  15.797   0.811
93317W        W65742   3.340  17.837   4.160
93318W        W65743   4.156  38.490  14.966
93319W        W65744  35.716   8.739   4.955
93320W        W65745  25.712  29.071   5.076
93321W        W65746   4.615  41.064   1.304
93322W        W65747   6.734  14.891   1.948
93323W        W65748  19.464  13.397   3.009
93324W        W65749  14.353  35.129   2.947
93325W        W65750  38.862  41.542   2.701
93326W        W65751  32.878   7.316  13.452
93327W        W65752  30.019   3.320  11.663
93328W        W65753   3.068  44.956  10.671
93329W        W65754  10.336  15.134  14.369
93330W        W65755  32.095  33.435  10.479
93331W        W65756   7.757  27.530   4.661
93332W        W65757  37.008   0.533  10.990
93333W        W65758  26.749  12.900  13.813
93334W        W65759   0.730  33.448  10.711
93335W        W65760  20.873  23.082  11.135
93336W        W65761  33.875  22.564  11.407
93337W        W65762  13.288  10.134  12.276
93338W        W65763   4.501  14.669  13.177
93339W        W65764   1.697  21.973   1.432
93340W        W65765  27.963   7.394   1.218
93341W        W65766  33.614   0.475  14.050
93342W        W65767  26.766   7.355   3.224
93343W        W65768  38.607  28.727  12.366
93344W        W65769  42.431  23.986  14.010
93345W        W65770  29.537  37.879  12.982
93346W        W65771  28.038  31.078  13.115
93347W        W65772  31.139  13.158   4.386
93348W        W65773  17.036  21.325   2.345
93349W        W65774  27.701  23.245   4.460
93350W        W65775  27.645   3.797  14.091
93351W        W65776  15.609  37.566   2.352
93352W        W65777   1.288  41.967  11.619
93353W        W65778  28.758  35.844  10.742
93354W        W65779  18.982  29.565   2.448
93355W        W65780  18.188  15.180  14.074
93356W        W65781  21.754  32.515   0.704
93357W        W65782  25.028  33.976   2.311
93358W        W65783  37.563   9.928   0.834
93359W        W65784  37.372  15.348  12.833
93360W        W65785   4.726   6.212  10.735
93361W        W65786  13.166  13.628   1.229
93362W        W65787  10.866  37.381   3.169
93363W        W65788   3.309  24.707   4.384
93364W        W65789  14.203   4.170  10.219
93365W        W65790  37.558  13.757  12.132
93366W        W65791  33.185  44.489  11.588
93367W        W65792   6.336  43.411   2.149
93368W        W65793  15.109   7.848  14.744
93369W        W65794  43.962  37.725   1.775
93370W        W65795   0.012   0.531  14.019
93371W        W65796   3.776  18.337   3.769
93372W        W65797   4.476  19.688  11.958
93373W        W65798  29.877  25.213  12.644
93374W        W65799  39.514  19.037  10.557
93375W        W65800  33.109   3.374  12.048
93376W        W65801   2.197  17.828  13.691
93377W        W65802  33.485  23.126   1.715
93378W        W65803  24.592  36.924   1.200
93379W        W65804   2.981  34.083   2.777
93380W        W65805  18.186   2.374   1.098
93381W        W65806   1.825  17.054   4.553
93382W        W65807  26.438   2.949   2.720
93383W        W65808  17.767  36.072   3.255
93384W        W65809  42.849   3.583   2.944
93385W        W65810  44.146  29.818   0.516
93386W        W65811   8.847  22.398  10.559
93387W        W65812  41.951  41.139  14.945
93388W        W65813  17.618   9.244   3.328
93389W        W65814   3.005  28.996   3.974
93390W        W65815  27.369  21.802  12.927
93391W        W65816  27.337  14.731  13.462
93392W        W65817   6.570   4.327  13.937
93393W        W65818   3.713  31.119  13.458
93394W        W65819  14.984  15.037   4.109
93395W        W65820   6.790  11.798   0.962
93396W        W65821  18.751  27.826   3.049
93397W        W65822   9.645  10.331   1.723
93398W        W65823  18.722   9.627   4.657
93399W        W65824  19.155  18.088  12.109
93400W        W65825  31.148  25.096   2.733
93401W        W65826  28.906  29.216   2.150
93402W        W65827  39.544   2.372  12.504
93403W        W65828  12.914  18.090  14.584
93404W        W65829  32.030   1.637  11.636
93405W        W65830  43.233   2.723   0.891
93406W        W65831  27.709  37.757   2.671
93407W        W65832  14.571  25.654   3.106
93408W        W65833  13.614  40.794  13.544
93409W        W65834  32.041   8.565   4.970
93410W        W65835  32.384  13.059  14.683
93411W        W65836   7.793   2.520  14.850
93412W        W65837  41.896   9.473   0.303
93413W        W65838  36.846   1.836   4.681
93414W        W65839  28.579   0.353  12.890
93415W        W65840  18.785   0.094   2.819
93416W        W65841  28.074  24.096  13.363
93417W        W65842  23.992  18.263  13.622
93418W        W65843  15.263  29.944   4.495
93419W        W65844  25.159   2.732  11.551
93420W        W65845  28.454  27.894  14.408
93421W        W65846  22.072  12.263   1.437
93422W        W65847   6.930  27.017   4.834
93423W        W65848   7.489  43.060  12.826
93424W        W65849  29.310   8.593  10.233
93425W        W65850  15.748   2.266   0.043
93426W        W65851   2.817  11.614  12.397
93427W        W65852   3.643  42.280  14.492
93428W        W65853  11.596   2.302   0.124
93429W        W65854  20.820  37.608   2.697
93430W        W65855  32.700   2.268   3.280
93431W        W65856   1.149  33.502  14.491
93432W        W65857  21.234   9.705   4.125
93433W        W65858  21.381  20.068  11.207
93434W        W65859  23.981  22.696  14.873
93435W        W65860  44.402  19.654   5.070
93436W        W65861  23.651  27.411  12.510
93437W        W65862  36.121  40.809  12.949
93438W        W65863   9.052  20.914  10.331
93439W        W65864  29.527   3.930   3.842
93440W        W65865  12.790  32.697   1.902
93441W        W65866  24.462  18.727   3.462
93442W        W65867   6.303  31.366   4.212
93443W        W65868   8.989   5.942   4.148
93444W        W65869   5.365  38.100   1.471
93445W        W65870  30.418   0.002   1.496
93446W        W65871  28.997  16.740  12.970
93447W        W65872  12.325  14.575   2.375
93448W        W65873   7.234  25.622  12.951
93449W        W65874  39.056  41.271   0.631
93450W        W65875  26.196  26.604   0.017
93451W        W65876  38.512  24.048   2.665
93452W        W65877  39.659   6.644   4.312
93453W        W65878  26.880  14.278   0.339
93454W        W65879  17.547  18.589   0.782
93455W        W65880  15.649  41.750  13.819
93456W        W65881  16.052   3.921   0.340
93457W        W65882   2.174  39.579  11.096
93458W        W65883   5.770  11.666  12.532
93459W        W65884   2.469  22.606  12.109
93460W        W65885  28.103  28.519  13.853
93461W        W65886  30.439  27.016   2.344
93462W        W65887  11.776  27.449   3.109
93463W        W65888  32.090  18.072  10.825
93464W        W65889  37.919  32.680   3.772
93465W        W65890  30.474  29.667   0.521
93466W        W65891  16.134  33.898   3.748
93467W        W65892  44.325   0.002  11.526
93468W        W65893  23.194   5.259  14.695
93469W        W65894  21.781  21.106   2.317
93470W        W65895   7.542  33.645   3.298
93471W        W65896   0.109  14.456  11.493
93472W        W65897  38.457   7.345   4.948
93473W        W65898  36.333  23.689   2.670
93474W        W65899  16.141  43.201  10.144
93475W        W65900  34.049  37.338  12.874
93476W        W65901  25.961  31.519   2.657
93477W        W65902  20.195  28.720   1.473
93478W        W65903  31.037   8.858  10.729
93479W        W65904  21.251  22.498  14.870
93480W        W65905  30.934  23.721  14.903
93481W        W65906  30.264   3.466  12.094
93482W        W65907   5.643  22.030  13.991
93483W        W65908  16.868   6.968  12.293
93484W        W65909   7.187  44.826  11.728
93485W        W65910   7.583  17.796  14.237
93486W        W65911   3.886  11.183   2.740
93487W        W65912  29.378  14.247  14.496
93488W        W65913   6.544  32.674  14.287
93489W        W65914  37.842  38.810  10.674
93490W        W65915   4.904  38.831  10.161
93491W        W65916  41.097  21.809   1.183
93492W        W65917  11.064  17.878   1.924
93493W        W65918  13.697  43.445   2.883
93494W        W65919  28.058   5.107   4.151
93495W        W65920   4.279  19.515   2.432
93496W        W65921  24.843  38.181   0.546
93497W        W65922  15.539   1.352   0.832
93498W        W65923  23.443   7.816  14.515
93499W        W65924  10.417  26.880   1.331
93500W        W65925   4.727  27.406   0.439
93501W        W65926  38.175  23.022  13.362
93502W        W65927  17.362   7.842  12.522
93503W        W65928  41.424  37.279   1.361
93504W        W65929  37.448  20.727  13.573
93505W        W65930  39.859  11.048   0.752
93506W        W65931  42.685   4.787  13.923
93507W        W65932  35.966   3.322   0.869
93508W        W65933   7.190  18.732   4.389
93509W        W65934  21.553  33.761  11.101
93510W        W65935   8.773  44.247   3.708
93511W        W65936  22.453  35.538   3.208
93512W        W65937  29.197  37.849  11.578
93513W        W65938  11.379  30.311  14.299
93514W        W65939  38.594   9.264   2.356
93515W        W65940   8.973  23.099  13.487
93516W        W65941  36.545  24.974  13.941
93517W        W65942  10.050  12.293   2.159
93518W        W65943  26.696   8.319  12.622
93519W        W65944  34.866   1.752  10.763
93520W        W65945  43.895  30.814   0.356
93521W        W65946  40.578  26.627   9.962
93522W        W65947  11.325  12.822   3.243
93523W        W65948   0.939   8.757  14.509
93524W        W65949  10.919  43.308  14.751
93525W        W65950   4.203  21.635   3.858
93526W        W65951  22.043  29.614  12.416
93527W        W65952   4.911  20.633  11.972
93528W        W65953  16.522  18.297   1.378
93529W        W65954   9.894  18.011   2.863
93530W        W65955   1.628  38.106   4.602
93531W        W65956  20.514  13.184  11.068
93532W        W65957  42.230  36.962   2.255
93533W        W65958  21.285  38.805  11.902
93534W        W65959   1.242  24.030  11.663
93535W        W65960   4.616  42.569   4.634
93536W        W65961  35.451  39.275   3.852
93537W        W65962  16.811   2.903   4.701
93538W        W65963  31.126   2.164   0.921
93539W        W65964  36.729  13.158   4.425
93540W        W65965   3.884  10.489   9.755
93541W        W65966  35.567  41.435   1.783
93542W        W65967  35.658  18.195   1.847
93543W        W65968  22.279  14.228   4.836
93544W        W65969  25.224  33.933   3.325
93545W        W65970   3.428  26.094  10.930
93546W        W65971  11.605  11.227   3.538
93547W        W65972  26.229  20.113   4.060
93548W        W65973  13.801  16.225   3.711
93549W        W65974   6.630  26.730   0.795
93550W        W65975  34.991  28.638  12.504
93551W        W65976  40.900  10.587   2.436
93552W        W65977  20.103  29.294   5.011
93553W        W65978  16.331  12.747  13.786
93554W        W65979  12.685   2.503   4.154
93555W        W65980  33.651  42.423  14.369
93556W        W65981  42.714   2.716   0.988
93557W        W65982  16.515  24.980   3.752
93558W        W65983  21.460  19.517   4.246
93559W        W65984   7.787  24.453  13.245
93560W        W65985  13.918  26.129   1.977
93561W        W65986  21.486   4.214  14.728
93562W        W65987  12.381   6.294  14.373
93563W        W65988   0.760  19.212  10.636
93564W        W65989   0.821  43.359   4.255
93565W        W65990  33.167  12.705   0.547
93566W        W65991  23.783  34.857   2.015
93567W        W65992   8.342  26.687   4.241
93568W        W65993   6.838  24.385  13.300
93569W        W65994   2.695  21.389  10.927
93570W        W65995  16.717   3.180  12.556
93571W        W65996  16.130  27.234   1.936
93572W        W65997  12.380  29.091   2.747
93573W        W65998   0.368  36.457  11.995
93574W        W65999   8.743   9.583   3.425
93575W        W66000  23.755   5.939   3.754
93576W        W66001  38.480  21.279   2.394
93577W        W66002   4.980  42.325  14.703
93578W        W66003   2.231  24.350  14.485
93579W        W66004   5.793  34.087  13.082
93580W        W66005   4.436  33.774   2.341
93581W        W66006   1.164  40.629  14.050
93582W        W66007  14.671   7.827   0.611
93583W        W66008   3.674  15.116  14.489
93584W        W66009  23.588  29.237  13.905
93585W        W66010  27.951   3.154  12.923
93586W        W66011  40.476  27.052   3.674
93587W        W66012   2.389  14.103   4.546
93588W        W66013   9.482  21.953   3.845
93589W        W66014  17.690   5.210  13.834
93590W        W66015   2.965  16.654   0.928
93591W        W66016  16.810   9.597  12.622
93592W        W66017  34.124  37.930   1.635
93593W        W66018   4.870  11.853  14.814
93594W        W66019  29.498   1.944   3.479
93595W        W66020  12.654  20.619  11.988
93596W        W66021   2.942  29.483  11.989
93597W        W66022  42.851  21.881   9.870
93598W        W66023  22.174  41.980   0.922
93599W        W66024  42.727  32.570   4.184
93600W        W66025  34.056  31.504  10.413
93601W        W66026   1.767   6.778  13.499
93602W        W66027  17.514  44.473  12.103
93603W        W66028  32.910  11.275  11.748
93604W        W66029   0.890  13.248   2.430
93605W        W66030  37.272  29.063  11.340
93606W        W66031  37.823  42.950   4.943
93607W        W66032   6.159  31.266  14.506
93608W        W66033  27.040  36.430  10.805
93609W        W66034  10.805  24.656   3.931
93610W        W66035   7.632  40.304  14.463
93611W        W66036  41.518  13.384  12.460
93612W        W66037  35.867  10.418  11.628
93613W        W66038  40.939  27.248  11.568
93614W        W66039  39.787  12.205   4.163
93615W        W66040  15.752  16.819   1.772
93616W        W66041  30.208  34.070  13.377
93617W        W66042  41.925  27.901   4.596
93618W        W66043  38.564  10.293   0.393
93619W        W66044   0.078   4.274  10.803
93620W        W66045  37.167  44.179  12.846
93621W        W66046  37.622   4.779   2.151
93622W        W66047  32.678  18.151   4.522
93623W        W66048  15.180  16.537   2.672
93624W        W66049  28.792  25.315   3.441
93625W        W66050  17.991  29.572  10.527
93626W        W66051  41.835  22.168  12.703
93627W        W66052  36.048  36.010  13.832
93628W        W66053  23.290  24.470  12.966
93629W        W66054  24.416  40.906  13.011
93630W        W66055  14.641  36.413  14.366
93631W        W66056  42.843  18.892  13.342
93632W        W66057  36.737   9.392   0.452
93633W        W66058  38.492  41.465   1.752
93634W        W66059   8.137  29.321   2.785
93635W        W66060  14.825  16.122   1.285
93636W        W66061  20.151  34.331   3.194
93637W        W66062  18.663   9.078  14.299
93638W        W66063  22.130  16.825  12.316
93639W        W66064   7.151   6.441  10.743
93640W        W66065  21.060  10.448  12.505
93641W        W66066  31.230  37.157   1.108
93642W        W66067   5.681  30.097  11.031
93643W        W66068  42.190   7.120   1.334
93644W        W66069   1.619   4.255  10.592
93645W        W66070  37.408  43.051   1.243
93646W        W66071  20.144   9.303  10.757
93647W        W66072  26.971  44.645   3.096
93648W        W66073  19.342  42.821  11.352
93649W        W66074  16.580   5.235   1.363
93650W        W66075  26.584   4.833   4.279
93651W        W66076   5.632  12.190  14.363
93652W        W66077   4.196  25.935  12.706
93653W        W66078  30.650   3.837  14.370
93654W        W66079   0.997  10.703  11.099
93655W        W66080  34.388  21.274  12.367
93656W        W66081  37.483   9.176  14.056
93657W        W66082   1.470  24.178   1.936
93658W        W66083  26.960  15.622   3.304
93659W        W66084   5.091   3.260   3.904
93660W        W66085  13.648   4.219  10.200
93661W        W66086  41.860  36.117  12.097
93662W        W66087  20.576  24.535   4.766
93663W        W66088  13.334  25.977  11.547
93664W        W66089   4.230  20.721   1.632
93665W        W66090   0.457  34.307   5.253
93666W        W66091   2.471  26.706  11.877
93667W        W66092  32.339  20.123  11.476
93668W        W66093  17.807  28.569   3.293
93669W        W66094  11.195  38.095   3.671
93670W        W66095  27.613  20.766   1.953
93671W        W66096   3.726  12.123   4.241
93672W        W66097  34.985  22.981  11.526
93673W        W66098  27.402  33.828  12.000
93674W        W66099   0.307   2.717  14.267
93675W        W66100  36.659   8.993   9.731
93676W        W66101  28.962  24.324  13.505
93677W        W66102  32.911  39.558  13.035
93678W        W66103  16.053   9.768  12.534
93679W        W66104   4.669   6.136  13.422
93680W        W66105  21.225   8.222  11.078
93681W        W66106  39.284   5.889   2.043
93682W        W66107  32.937  20.495  14.086
93683W        W66108  44.742  13.748   0.915
93684W        W66109  24.973  22.106  13.377
93685W        W66110  37.022  38.124  12.331
93686W        W66111  44.515   0.767   0.451
93687W        W66112  44.941  13.687   1.946
93688W        W66113  35.975  28.422   1.882
93689W        W66114   4.096  26.699   2.148
93690W        W66115   9.540  17.869  10.724
93691W        W66116  19.674  37.444  10.748
93692W        W66117  38.768   9.447   3.541
93693W        W66118  12.633  30.534   3.321
93694W        W66119  19.763  31.924   2.333
93695W        W66120   1.766  28.145   1.766
93696W        W66121  38.460  34.590   4.127
93697W        W66122  28.344  40.098   5.007
93698W        W66123   5.136   9.151  11.388
93699W        W66124  22.938   0.185  11.327
93700W        W66125  22.872  29.682   5.071
93701W        W66126  15.838  22.102   0.286
93702W        W66127  11.124   2.796  13.467
93703W        W66128  28.394  26.945  13.547
93704W        W66129   8.797  41.870  13.533
93705W        W66130  43.938  26.130   3.316
93706W        W66131  34.892  44.368   4.947
93707W        W66132  34.433  37.916  12.591
93708W        W66133  18.187   4.775  11.163
93709W        W66134  42.520  29.996  13.058
93710W        W66135  20.325  38.008  13.061
93711W        W66136  15.660   6.681   0.856
93712W        W66137  10.807  25.083  12.034
93713W        W66138  44.374  39.512  14.823
93714W        W66139  20.471   5.233  11.845
93715W        W66140  14.348  20.644  14.975
93716W        W66141  39.890   8.733   0.968
93717W        W66142  20.742  28.992  13.223
93718W        W66143  38.306  35.041   3.207
93719W        W66144  31.887  31.064  10.591
93720W        W66145  17.588  13.096   2.864
93721W        W66146  38.042  21.271   0.785
93722W        W66147  41.270  38.399  10.741
93723W        W66148   0.872  36.877   3.199
93724W        W66149  38.398  32.323  13.763
93725W        W66150  33.695  20.207   4.070
93726W        W66151  33.353  21.932  10.764
93727W        W66152  16.337  42.241   3.669
93728W        W66153  40.786  31.586  11.130
93729W        W66154  24.796  29.907   2.732
93730W        W66155  24.349   0.068   1.056
93731W        W66156   7.130  27.748   3.621
93732W        W66157  10.341  25.659  14.789
93733W        W66158  40.848   6.154  13.185
93734W        W66159   3.182  14.813   1.214
93735W        W66160  22.165  39.412  13.390
93736W        W66161  25.463  24.158   2.827
93737W        W66162  17.121   8.775  10.149
93738W        W66163  19.263   0.740   3.280
93739W        W66164   3.698  35.482   2.708
93740W        W66165  25.301  27.066   4.096
93741W        W66166  19.344  19.696  11.735
93742W        W66167   9.811  41.294  12.462
93743W        W66168  23.670  37.687   1.717
93744W        W66169  39.818  32.110   3.848
93745W        W66170  39.425  33.376   3.724
93746W        W66171  39.335  14.763  11.225
93747W        W66172  37.074  21.053   3.826
93748W        W66173  42.963  34.080  10.127
93749W        W66174  16.602  20.770   2.779
93750W        W66175  28.157  15.753   2.410
93751W        W66176   5.763  28.137   2.736
93752W        W66177  13.120  11.252   3.892
93753W        W66178  15.747  41.930  11.611
93754W        W66179  22.002  11.183   2.745
93755W        W66180  10.525  31.870  12.435
93756W        W66181  26.616  43.986   4.142
93757W        W66182   0.760  31.533   5.090
93758W        W66183  31.036  22.593  11.684
93759W        W66184   4.483  15.421   4.479
93760W        W66185  28.519   2.381   0.758
93761W        W66186  27.000  28.136  10.906
93762W        W66187  34.300  32.072  11.115
93763W        W66188  20.612  39.209  10.686
93764W        W66189   8.419  22.775   3.225
93765W        W66190  10.745  37.378   1.287
93766W        W66191  19.627  35.114   2.281
93767W        W66192  26.096  43.329  12.076
93768W        W66193  32.759   9.728   3.694
93769W        W66194  34.064  38.458  13.036
93770W        W66195  34.016  34.864   3.274
93771W        W66196  19.280  10.689  11.825
93772W        W66197  23.221  34.868  13.755
93773W        W66198  12.047  19.713   4.599
93774W        W66199  37.951   0.523  12.493
93775W        W66200  23.234  20.113  10.614
93776W        W66201  26.229  28.496   3.651
93777W        W66202  40.307  44.532   4.083
93778W        W66203  36.048  22.109   0.925
93779W        W66204  25.666   7.460  12.436
93780W        W66205  25.639   7.893  13.403
93781W        W66206  38.490  39.319   3.576
93782W        W66207  33.619   0.255  12.391
93783W        W66208  43.764   9.911   4.321
93784W        W66209  25.519  11.273  12.741
93785W        W66210  14.274   8.951  11.154
93786W        W66211  11.117  28.372  14.840
93787W        W66212   9.204  24.215  14.743
93788W        W66213  28.211  41.572   2.366
93789W        W66214  16.323  14.350   1.375
93790W        W66215  30.084  30.802   2.778
93791W        W66216  18.076  39.312  12.143
93792W        W66217   9.206   2.027   1.414
93793W        W66218  14.959  42.246   2.729
93794W        W66219  11.191  27.105   0.237
93795W        W66220   1.167   6.388  10.720
93796W        W66221  28.406  33.400  13.390
93797W        W66222  10.883  19.719   3.226
93798W        W66223  35.560  14.608  14.334
93799W        W66224  35.786   4.962   1.224
93800W        W66225   4.212  19.191   2.038
93801W        W66226   8.304  10.130   2.393
93802W        W66227  30.584  41.384  12.403
93803W        W66228  38.960  43.306  10.894
93804W        W66229   8.493  41.066   1.316
93805W        W66230   2.550  17.354  13.018
93806W        W66231  29.619  31.663  12.014
93807W        W66232   4.958   4.445   2.909
93808W        W66233  40.475  28.219  14.971
93809W        W66234  42.801  23.047   4.593
93810W        W66235  21.085  40.907   3.106
93811W        W66236  38.505  10.563  10.623
93812W        W66237  23.696  30.637   0.947
93813W        W66238   1.989  44.930   3.692
93814W        W66239  18.078  29.599  11.390
93815W        W66240  24.845  12.117  14.938
93816W        W66241  23.598  38.911   0.229
93817W        W66242  35.787  15.726   0.779
93818W        W66243  15.142   1.842  10.575
93819W        W66244  26.086  39.741   4.517
93820W        W66245  20.020  22.005  11.965
93821W        W66246  30.548   8.417  11.910
93822W        W66247  35.472  37.439   4.550
93823W        W66248  22.056   5.763   4.822
93824W        W66249  42.728  44.553   0.571
93825W        W66250   2.239   4.955  12.914
93826W        W66251  24.254  25.011   5.130
93827W        W66252  19.735  38.671   4.128
93828W        W66253  11.153  44.740   1.142
93829W        W66254   6.850  27.508  12.050
93830W        W66255  42.937  29.440  14.009
93831W        W66256   1.260   0.350  14.296
93832W        W66257  21.151   6.799   4.706
93833W        W66258   0.830  10.194   0.953
93834W        W66259  32.252   9.279   4.426
93835W        W66260   8.116  12.436   0.860
93836W        W66261  37.624  11.817   3.264
93837W        W66262  33.318   9.275  11.984
93838W        W66263  16.529  10.684   4.233
93839W        W66264  24.203  12.647   0.246
93840W        W66265  27.479  21.300  13.020
93841W        W66266   1.096  36.026   3.700
93842W        W66267  34.394  12.092  11.047
93843W        W66268  22.308   6.810   1.794
93844W        W66269  17.517  15.635  13.347
93845W        W66270  38.082  13.379   4.381
93846W        W66271  31.034  10.159   3.263
93847W        W66272  27.470  36.806  11.979
93848W        W66273  14.251  29.506   1.890
93849W        W66274  13.973   2.731   0.381
93850W        W66275  27.497   1.285   1.681
93851W        W66276  18.200  33.989   5.531
93852W        W66277  44.717  35.920   2.367
93853W        W66278  36.112  14.754   2.878
93854W        W66279  34.663  18.212  12.969
93855W        W66280  38.109  35.659   4.751
93856W        W66281   8.200  35.589  12.051
93857W        W66282  33.390   1.303   2.775
93858W        W66283  26.445  44.155  10.573
93859W        W66284  13.326  17.816  10.733
93860W        W66285  22.429  19.035  11.735
93861W        W66286   3.243  11.385  11.275
93862W        W66287  16.945  38.576  11.566
93863W        W66288  14.398   0.525   4.092
93864W        W66289  36.038   9.829   4.236
93865W        W66290  18.251  29.151  13.513
93866W        W66291  36.644   6.809   4.900
93867W        W66292  38.227   8.955   9.751
93868W        W66293  19.790  38.146   1.590
93869W        W66294  18.040  20.337   2.276
93870W        W66295  32.841  18.430  12.395
93871W        W66296   3.466  10.374   3.220
93872W        W66297   7.923  28.171   4.104
93873W        W66298  43.988  30.083   2.293
93874W        W66299   6.255   3.184   4.681
93875W        W66300  41.662   1.735   1.610
93876W        W66301   3.206  43.583  14.842
93877W        W66302   9.254  36.057  13.909
93878W        W66303  33.897  21.991  10.674
93879W        W66304  16.491  10.003  12.584
93880W        W66305  26.255  22.144  10.563
93881W        W66306  21.607  22.410   1.714
93882W        W66307  33.436  19.580  11.093
93883W        W66308  12.283   3.162   1.739
93884W        W66309  32.655  21.292   1.157
93885W        W66310   8.967  30.658   2.761
93886W        W66311  42.978   3.110   5.179
93887W        W66312   0.898   5.685  13.632
93888W        W66313  23.493   8.193  13.548
93889W        W66314  38.433   7.941  12.486
93890W        W66315  15.166  30.391  11.303
93891W        W66316  19.158   4.069  12.261
93892W        W66317  29.114  12.356  13.419
93893W        W66318  18.157   1.447   3.132
93894W        W66319  22.200  11.279  13.032
93895W        W66320  36.765  34.373   2.749
93896W        W66321  10.261  28.693  11.138
93897W        W66322  37.830  24.924   1.416
93898W        W66323  30.201  26.765  11.316
93899W        W66324  32.980   1.435  10.701
93900W        W66325  17.718  30.994   0.530
93901W        W66326  28.433  24.406  12.515
93902W        W66327  14.179  26.066   0.629
93903W        W66328  25.817  24.507  12.010
93904W        W66329  13.133   6.447   4.386
93905W        W66330  42.281  28.662   4.070
93906W        W66331  25.424  39.873  14.886
93907W        W66332  13.157  14.138   3.683
93908W        W66333  22.746   2.302   9.842
93909W        W66334  30.274  32.966   3.715
93910W        W66335   9.854  37.334  10.731
93911W        W66336  22.784  31.659  13.012
93912W        W66337  11.556  30.153  11.998
93913W        W66338  30.397   6.120   1.766
93914W        W66339  22.543  43.340  11.414
93915W        W66340   6.184  37.119  13.938
93916W        W66341  13.109  26.103   2.158
93917W        W66342   1.852  24.733   0.773
93918W        W66343  18.707  11.616  10.769
93919W        W66344   4.815   3.525   1.033
93920W        W66345  29.718  24.994  10.692
93921W        W66346  32.979  37.420   1.409
93922W        W66347  27.069  44.240  11.476
93923W        W66348  11.737  37.235   3.693
93924W        W66349  14.072  35.672  11.908
93925W        W66350   1.313  44.248  14.100
93926W        W66351   9.279   2.858  14.415
93927W        W66352  30.879  25.166  14.913
93928W        W66353  29.894  19.762   4.955
93929W        W66354  21.287  29.154  12.397
93930W        W66355  32.895   7.662  11.441
93931W        W66356  22.039  26.043  13.839
93932W        W66357   3.275  44.329   4.104
93933W        W66358  30.069   2.768   3.699
93934W        W66359  32.602  37.829  10.611
93935W        W66360  41.849  16.304   4.162
93936W        W66361   8.731  30.880   4.088
93937W        W66362  43.610  30.964  10.338
93938W        W66363   9.616  26.207   3.739
93939W        W66364  40.553  17.813  10.621
93940W        W66365  13.530   7.918   2.825
93941W        W66366  30.741  34.919   1.484
93942W        W66367  10.821  37.642   0.843
93943W        W66368   6.128  11.743   3.645
93944W        W66369  38.479   6.755  10.591
93945W        W66370   2.905  30.943   1.589
93946W        W66371   2.790   2.579   0.544
93947W        W66372   0.131  40.660  14.225
93948W        W66373  30.054  37.105  13.581
93949W        W66374  44.239  21.245  13.026
93950W        W66375  12.367  16.399  14.799
93951W        W66376  17.509  25.754   0.154
93952W        W66377  44.736  41.246  11.138
93953W        W66378  11.759   2.593  12.605
93954W        W66379  30.924  11.952  12.650
93955W        W66380  19.699  30.345  13.849
93956W        W66381  38.616  43.755   4.529
93957W        W66382  15.208  10.654   1.494
93958W        W66383   1.764   0.372  14.372
93959W        W66384  39.478   6.401   0.676
93960W        W66385  12.790  41.335  13.495
93961W        W66386  13.645  11.438   1.088
93962W        W66387   9.616  39.445   3.190
93963W        W66388  33.708  44.619  13.563
93964W        W66389  31.834  16.093   3.384
93965W        W66390  40.935  34.610   4.183
93966W        W66391  22.370  17.991   1.718
93967W        W66392  14.179   5.911   0.493
93968W        W66393  19.679   1.472   2.397
93969W        W66394  17.574  23.392  13.626
93970W        W66395  41.376  35.515  11.770
93971W        W66396  25.712  35.639   1.201
93972W        W66397  18.951   6.798  14.165
93973W        W66398   0.893  43.055   3.853
93974W        W66399  23.404   9.422  10.223
93975W        W66400   8.341  10.053   5.097
93976W        W66401  18.287  43.510   0.932
93977W        W66402   3.326  42.638  12.895
93978W        W66403  16.853  29.151   4.911
93979W        W66404  18.117   1.179   2.674
93980W        W66405  33.107  42.812   1.931
93981W        W66406  11.279  10.927   4.561
93982W        W66407  23.669  43.325  13.003
93983W        W66408  32.509  32.642   4.221
93984W        W66409  24.234   8.452  12.832
93985W        W66410  19.959  23.070  12.124
93986W        W66411  41.269  25.411  11.531
93987W        W66412  35.908  39.274  11.072
93988W        W66413  40.991  32.635   2.258
93989W        W66414  16.720  42.012  10.700
93990W        W66415   4.868  35.250  11.002
93991W        W66416   4.365  32.640  11.874
93992W        W66417   9.201  39.601  12.400
93993W        W66418  32.581  12.234   0.791
93994W        W66419  16.412  22.126  12.443
93995W        W66420  23.033  26.587   0.412
93996W        W66421  14.703   2.975  12.775
93997W        W66422  26.060   7.106  13.612
93998W        W66423  28.537  19.545  10.735
93999W        W66424   9.008  27.711  13.624
94000W        W66425  20.292   6.891   1.694
94001W        W66426  26.058   5.315  10.655
94002W        W66427   5.781   7.953  14.329
94003W        W66428  29.435   8.188  13.487
94004W        W66429  19.968  25.754   1.422
94005W        W66430  27.223  15.199   3.161
94006W        W66431  23.548  33.814  12.047
94007W        W66432  36.909   2.787   1.968
94008W        W66433  26.087  39.697   2.655
94009W        W66434  25.202  18.767  12.968
94010W        W66435  32.986  20.796   0.876
94011W        W66436  24.398  13.023   4.968
94012W        W66437   8.169   9.377   0.219
94013W        W66438  41.517   1.933   2.681
94014W        W66439  13.986   0.884  12.338
94015W        W66440   9.496  12.146   2.334
94016W        W66441  23.432   5.263   2.647
94017W        W66442   4.037  39.068   4.961
94018W        W66443  43.249  10.112   1.850
94019W        W66444  11.096   7.729  14.328
94020W        W66445  33.353   1.349   1.857
94021W        W66446  14.172  19.591   0.702
94022W        W66447  39.274  16.024  11.157
94023W        W66448  15.321   7.317  10.055
94024W        W66449  31.102  20.956  11.228
94025W        W66450   2.792  34.535  14.462
94026W        W66451  35.172  31.963   1.677
94027W        W66452  22.183  17.531   1.407
94028W        W66453  14.150   8.480   3.710
94029W        W66454  27.220   0.744   1.352
94030W        W66455  28.003  40.900  12.053
94031W        W66456  17.734  32.867  12.441
94032W        W66457  37.040  13.974  10.705
94033W        W66458  43.337  39.718   3.864
94034W        W66459  16.548  11.245  14.919
94035W        W66460  30.048  23.783   4.080
94036W        W66461   7.289  34.626   4.270
94037W        W66462  26.046  40.061   1.703
94038W        W66463   8.882  16.625  13.481
94039W        W66464  25.546   0.044   3.863
94040W        W66465  19.685  37.839   5.168
94041W        W66466  11.100  31.541  12.068
94042W        W66467  35.524  16.269  11.631
94043W        W66468   1.688  16.327   3.230
94044W        W66469  29.700  32.959  11.337
94045W        W66470  25.182   8.296   2.838
94046W        W66471  12.615  27.592   2.453
94047W        W66472   4.906  22.604   0.521
94048W        W66473   2.364  34.269   1.280
94049W        W66474   9.457   3.347  14.098
94050W        W66475  44.794   7.199   3.427
94051W        W66476   5.439  17.241   1.685
94052W        W66477  33.955  25.428  11.126
94053W        W66478  14.560  26.138  11.193
94054W        W66479  44.816   5.010  13.397
94055W        W66480  24.279  40.002   3.212
94056W        W66481  22.790  37.911  10.523
94057W        W66482  40.395  25.727  14.840
94058W        W66483  30.629  42.375  14.283
94059W        W66484  26.688  30.378  10.386
94060W        W66485  15.757  31.338   0.691
94061W        W66486  43.264  10.631  11.597
94062W        W66487  23.648  44.050  12.190
94063W        W66488  31.224   1.476  13.058
94064W        W66489   0.378  41.071   4.262
94065W        W66490   7.093  43.815   0.196
94066W        W66491   2.057  28.884  13.603
94067W        W66492  32.174  43.515  12.119
94068W        W66493  22.924   6.686  12.889
94069W        W66494  16.315  28.966  10.713
94070W        W66495  34.017   9.416   2.250
94071W        W66496   8.739   0.823  11.536
94072W        W66497   6.365  31.020   3.809
94073W        W66498  24.152  43.782  14.938
94074W        W66499  33.049   7.223  11.225
94075W        W66500  24.379  28.569  10.544
94076W        W66501  28.550  43.822   1.877
94077W        W66502  13.356  29.553   3.705
94078W        W66503  22.084  35.639   1.074
94079W        W66504  44.383  16.804   0.888
94080W        W66505   1.867   5.594   3.825
94081W        W66506   0.013   8.642   3.178
94082W        W66507  36.951   9.710  11.461
94083W        W66508  20.682  24.675   0.529
94084W        W66509  22.540  36.630   0.854
94085W        W66510  29.435   6.906  10.658
94086W        W66511  33.421  34.614   2.905
94087W        W66512  25.620   3.327  13.815
94088W        W66513  42.458  12.779  14.293
94089W        W66514  40.947  37.434   1.211
94090W        W66515  35.426  20.963   3.349
94091W        W66516  17.691   4.360  10.395
94092W        W66517  39.582  38.346   1.408
94093W        W66518   8.004   4.975   4.041
94094W        W66519  17.083  36.444  11.516
94095W        W66520   2.354  16.347   4.160
94096W        W66521  24.750   6.424  11.210
94097W        W66522  36.088  31.155   2.381
94098W        W66523   7.821  15.762   3.151
94099W        W66524  11.538  32.376   1.420
94100W        W66525  12.335  26.901   0.338
94101W        W66526  43.973  37.850   1.004
94102W        W66527  22.667  14.604   0.581
94103W        W66528  21.817   3.150  14.492
94104W        W66529  25.667  25.156  14.531
94105W        W66530   9.361  20.101  13.926
94106W        W66531  13.698  28.062  14.781
94107W        W66532  30.899  20.641  11.588
94108W        W66533  34.048  40.448   0.730
94109W        W66534  10.794  15.573   1.967
94110W        W66535  16.822  24.009   4.921
94111W        W66536  27.099   8.823   4.538
94112W        W66537  30.709  33.435  12.953
94113W        W66538  36.910   9.700  10.950
94114W        W66539  41.542  17.601  10.701
94115W        W66540  10.603  40.367  13.806
94116W        W66541  31.956   3.672   0.565
94117W        W66542  30.062  18.709   0.350
94118W        W66543  31.991  11.163  11.670
94119W        W66544  21.099   4.663   0.451
94120W        W66545  32.520  35.149  12.658
94121W        W66546  24.633  10.870  12.492
94122W        W66547   1.280  44.308   3.294
94123W        W66548  37.173  11.131  11.174
94124W        W66549   8.375   8.848  11.681
94125W        W66550  44.751  41.399  14.411
94126W        W66551  11.485  31.654   3.701
94127W        W66552  37.624  36.361   1.757
94128W        W66553  27.072  26.870   0.948
94129W        W66554  44.005  19.637  12.581
94130W        W66555   0.820  24.430  12.470
94131W        W66556  40.585  26.433  14.467
94132W        W66557  27.557   8.338   2.229
94133W        W66558  39.867  10.649  11.683
94134W        W66559   0.243  27.392  12.396
94135W        W66560  30.621   7.256   3.382
94136W        W66561   4.219  14.851  13.569
94137W        W66562  13.736  31.564  10.704
94138W        W66563  17.364  29.444   5.323
94139W        W66564  13.274  36.847   0.438
94140W        W66565  10.367   7.303  11.085
94141W        W66566  13.075  19.298  14.861
94142W        W66567  10.414  24.182  12.273
94143W        W66568  28.060  35.202  14.395
94144W        W66569  22.180  37.145   2.324
94145W        W66570  16.262   2.336  14.004
94146W        W66571  19.147  14.833   2.344
94147W        W66572   3.964  20.623   3.858
94148W        W66573   1.305  17.122  14.542
94149W        W66574  31.492  30.643  14.378
94150W        W66575  27.956  26.599  14.903
94151W        W66576  28.787  42.558   3.689
94152W        W66577  13.213  16.306  12.995
94153W        W66578  16.084  24.806  10.781
94154W        W66579  22.080   7.952   3.573
94155W        W66580   8.440  21.137   2.225
94156W        W66581  26.117  18.569  11.053
94157W        W66582  29.436  42.536  13.876
94158W        W66583  25.234  12.188   2.700
94159W        W66584   4.724   9.190  10.413
94160W        W66585   6.476  22.487   0.222
94161W        W66586   9.215  33.476   5.013
94162W        W66587  25.043   6.351  11.957
94163W        W66588  33.860  27.192  12.854
94164W        W66589  21.066  34.960  12.380
94165W        W66590  39.331  13.230   2.467
94166W        W66591  28.936  38.862   0.357
94167W        W66592  31.387  34.338   4.057
94168W        W66593  33.317  31.509  12.833
94169W        W66594  18.580  21.626   2.789
94170W        W66595  40.496  43.354   0.296
94171W        W66596   3.195  33.439  14.963
94172W        W66597   7.606  41.200   1.790
94173W        W66598  40.342  22.445   2.272
94174W        W66599  36.914  41.996  13.525
94175W        W66600  38.735  39.031  12.904
94176W        W66601   7.576  42.778   5.023
94177W        W66602  24.504  42.883  14.872
94178W        W66603  10.110  24.344   1.906
94179W        W66604  12.102  18.779  13.512
94180W        W66605  21.231   1.314  14.399
94181W        W66606  20.455   7.834   3.307
94182W        W66607  28.954  13.811   1.786
94183W        W66608  30.237  18.228  13.599
94184W        W66609  39.721  14.744   0.246
94185W        W66610  38.446  41.721   2.194
94186W        W66611  15.585   7.003   4.168
94187W        W66612  22.973  17.360  11.188
94188W        W66613  12.157   0.322  10.902
94189W        W66614  20.123  19.625  10.694
94190W        W66615  32.345  30.943   4.254
94191W        W66616   0.858  32.213   4.130
94192W        W66617  21.687  10.874  11.083
94193W        W66618  17.715  18.347   4.634
94194W        W66619   5.913   0.245  13.462
94195W        W66620  37.483  36.823   1.993
94196W        W66621  33.482   0.932   5.124
94197W        W66622   8.074   3.241  14.486
94198W        W66623   0.764  15.313  14.728
94199W        W66624  18.148  22.308  12.953
94200W        W66625  29.528  34.538   1.425
94201W        W66626  27.552  20.948   2.423
94202W        W66627   8.252  43.591  13.800
94203W        W66628  23.310   1.111  14.995
94204W        W66629  41.285  32.616  13.435
94205W        W66630  41.406  32.403   3.681
94206W        W66631   5.810  24.809  10.878
94207W        W66632  43.467   2.208  12.014
94208W        W66633   1.315   3.941   4.042
94209W        W66634  19.155   2.894  11.987
94210W        W66635  24.951   0.907   0.352
94211W        W66636   2.252  26.708  10.658
94212W        W66637   7.063  29.417  13.831
94213W        W66638  26.455  16.772  10.711
94214W        W66639  33.656  25.253   4.159
94215W        W66640  18.568  39.131  10.583
94216W        W66641  37.488   3.214  14.014
94217W        W66642  20.334  33.430  10.530
94218W        W66643  40.604   1.549   3.268
94219W        W66644  16.224  11.575   2.949
94220W        W66645  18.760  13.972  11.033
94221W        W66646  39.806  43.900  13.970
94222W        W66647   2.525  17.128   4.089
94223W        W66648  15.112  23.416   0.370
94224W        W66649  29.452  28.537   4.174
94225W        W66650  37.992  16.096  11.070
94226W        W66651  12.219  43.323   3.711
94227W        W66652  17.337   1.475  12.045
94228W        W66653  24.027  27.912  13.978
94229W        W66654  11.741   8.666  12.485
94230W        W66655  27.407  19.826  12.115
94231W        W66656  22.669  42.822   2.699
94232W        W66657  42.212  42.473  12.169
94233W        W66658  16.677  35.879  13.363
94234W        W66659  40.262  18.597  11.293
94235W        W66660  22.833  34.644  11.035
94236W        W66661  32.594  38.507   0.320
94237W        W66662  29.048   6.303   2.272
94238W        W66663  37.706  36.738  14.001
94239W        W66664  26.707  30.008  11.893
94240W        W66665   1.696  42.809  10.160
94241W        W66666  39.376   1.645  14.018
94242W        W66667  36.154  35.526  12.622
94243W        W66668   6.867  26.170  10.886
94244W        W66669  32.477  13.667  11.507
94245W        W66670  12.317  18.279  11.537
94246W        W66671  44.899   0.571  13.156
94247W        W66672  22.287  44.383  12.773
94248W        W66673   5.132   3.728  12.848
94249W        W66674  30.047  36.847  10.689
94250W        W66675  20.570  16.563  10.962
94251W        W66676   8.286   5.762  11.911
94252W        W66677   4.752  30.966   1.753
94253W        W66678  40.320  43.887  13.987
94254W        W66679  14.786  42.310  13.952
94255W        W66680  27.941  33.850   4.208
94256W        W66681  20.622   3.430   4.083
94257W        W66682  13.117   3.125   4.604
94258W        W66683  36.968  33.455   0.871
94259W        W66684  30.934  24.973   3.676
94260W        W66685   9.877  29.219   2.356
94261W        W66686  34.844   2.348   3.927
94262W        W66687  42.487  38.804  14.214
94263W        W66688  44.062  15.763   3.567
94264W        W66689  23.982  18.164   4.082
94265W        W66690  22.476   6.432  12.984
94266W        W66691  13.907  18.082  14.930
94267W        W66692  29.340   2.512  12.649
94268W        W66693  11.762  17.606   3.566
94269W        W66694  39.798   7.322   3.611
94270W        W66695  29.207  19.399  14.853
94271W        W66696  13.427  14.531   2.060
94272W        W66697  17.730  25.602   3.640
94273W        W66698  30.440  31.134  12.556
94274W        W66699   6.426  11.557   3.271
94275W        W66700  22.035  13.579   1.917
94276W        W66701  12.233  42.731   1.386
94277W        W66702  31.475   7.652  11.624
94278W        W66703  27.954  15.082  11.666
94279W        W66704  17.248  17.650   4.258
94280W        W66705  18.743  36.633   2.633
94281W        W66706  21.221  19.259   1.792
94282W        W66707  27.874  35.438  12.955
94283W        W66708  28.475  13.904   1.569
94284W        W66709  19.879  37.942  12.723
94285W        W66710  16.225  41.223   3.601
94286W        W66711   3.829  15.295  12.388
94287W        W66712  36.689   4.503   4.117
94288W        W66713  35.561  41.841  13.967
94289W        W66714   7.397  30.210   1.199
94290W        W66715   8.129   4.303   0.268
94291W        W66716  25.789  43.096   5.114
94292W        W66717  16.361  19.942   0.249
94293W        W66718  28.668   0.504  12.380
94294W        W66719  39.490   2.238   4.155
94295W        W66720  36.934   1.328   4.695
94296W        W66721  36.814  36.517   2.300
94297W        W66722  32.394   1.739   4.530
94298W        W66723  11.940  17.126   3.422
94299W        W66724  23.406  25.209   4.490
94300W        W66725  23.384  39.431   1.779
94301W        W66726  30.511  43.802  12.555
94302W        W66727  13.019  44.748   2.171
94303W        W66728  41.303  38.496   0.359
94304W        W66729  22.594  25.631   1.468
94305W        W66730  36.372  32.947   4.654
94306W        W66731  22.999  24.892  12.925
94307W        W66732  34.538  14.392   1.096
94308W        W66733  27.244  10.149  12.085
94309W        W66734  26.574  44.884  14.370
94310W        W66735  23.170  33.696   4.715
94311W        W66736   6.439  29.712   2.205
94312W        W66737  27.618  24.637  14.443
94313W        W66738   2.349   6.228   4.531
94314W        W66739  25.495  28.111   2.904
94315W        W66740   8.512  27.086  14.032
94316W        W66741  35.882  39.875   3.710
94317W        W66742  28.102   6.216   4.629
94318W        W66743  27.617  43.753   4.638
94319W        W66744  37.149  21.749  10.435
94320W        W66745  13.638  13.069  11.495
94321W        W66746  44.453  10.481  12.739
94322W        W66747  19.197   3.228   3.188
94323W        W66748  21.146  10.261  14.448
94324W        W66749  20.796  19.013   3.195
94325W        W66750  27.101   0.273  10.486
94326W        W66751   9.162  34.625   3.176
94327W        W66752   2.244  22.989  13.039
94328W        W66753  32.585   3.020  14.692
94329W        W66754  11.409  32.170  10.916
94330W        W66755  32.828  38.509  12.986
94331W        W66756  42.579  21.503   5.086
94332W        W66757  42.976  29.131   4.167
94333W        W66758  25.895   9.520  11.048
94334W        W66759  35.019  21.128   4.080
94335W        W66760   5.826  31.459   4.043
94336W        W66761  26.207   6.202   1.480
94337W        W66762  11.806  29.707  13.308
94338W        W66763   9.133  16.260  14.894
94339W        W66764  44.492  31.879  11.516
94340W        W66765   3.402  16.113   3.774
94341W        W66766  40.098  42.385   0.736
94342W        W66767   1.431  40.799   0.399
94343W        W66768  31.570  17.488   3.202
94344W        W66769   0.006  40.781  12.820
94345W        W66770  32.144  15.199   3.706
94346W        W66771  21.758  22.613   3.770
94347W        W66772   2.631   5.679  14.606
94348W        W66773  12.902  21.750   3.289
94349W        W66774  31.432  37.099  12.462
94350W        W66775  43.301  40.436   3.297
94351W        W66776  37.938  22.313  13.936
94352W        W66777  40.275  40.146   0.418
94353W        W66778  33.535  39.443  10.494
94354W        W66779   7.979  16.351  11.947
94355W        W66780  13.166  39.916   4.022
94356W        W66781  17.164  18.149   3.736
94357W        W66782  22.416  38.772  13.031
94358W        W66783  34.857  14.066   4.069
94359W        W66784  15.390   2.228   0.432
94360W        W66785  19.361  10.863   2.236
94361W        W66786  30.698  34.691   3.360
94362W        W66787  39.421   6.596  14.492
94363W        W66788  28.578  33.075  10.652
94364W        W66789  35.145  21.224   1.284
94365W        W66790  39.643  11.493   0.937
94366W        W66791  37.963  34.070  14.586
94367W        W66792  24.121   8.872  13.095
94368W        W66793   9.474  22.552   4.583
94369W        W66794  37.470  35.900  14.580
94370W        W66795   8.124  41.150   3.456
94371W        W66796  41.954  43.393   4.662
94372W        W66797  40.405  40.743  10.739
94373W        W66798   0.249  38.426   1.427
94374W        W66799  18.170  20.625  12.559
94375W        W66800  25.562  29.548   2.766
94376W        W66801   1.356   6.658  11.180
94377W        W66802   9.140  10.418   0.295
94378W        W66803   0.979  39.597   3.771
94379W        W66804  22.581  44.699   2.322
94380W        W66805   1.638  34.494   0.181
94381W        W66806  21.039  19.650  11.658
94382W        W66807  24.205  16.804   3.661
94383W        W66808  17.070  44.968   0.299
94384W        W66809  17.146  13.111   2.204
94385W        W66810   5.960   0.171   4.604
94386W        W66811  29.893  25.237   4.096
94387W        W66812  11.137  32.426  12.223
94388W        W66813   0.829  35.507   2.926
94389W        W66814   9.248  42.559   4.191
94390W        W66815  38.619  31.919  14.446
94391W        W66816  10.930  15.060   3.120
94392W        W66817  43.960  27.900   0.772
94393W        W66818  43.064  39.486  14.246
94394W        W66819  32.731  44.357   0.788
94395W        W66820   9.353  43.235  12.365
94396W        W66821   4.901  12.536  12.454
94397W        W66822   6.919  11.854   4.111
94398W        W66823  44.885  40.619  13.767
94399W        W66824  41.373  18.809  13.490
94400W        W66825  28.266  26.151   4.536
94401W        W66826  34.921  34.974  12.589
94402W        W66827  17.728  28.403  11.091
94403W        W66828   8.885  12.131   0.315
94404W        W66829  10.453   7.759  11.999
94405W        W66830  35.616  41.290  14.084
94406W        W66831  16.712  39.880   1.647
94407W        W66832  44.932   2.190   2.365
94408W        W66833  21.348  16.948   0.914
94409W        W66834  33.437  32.806  10.744
94410W        W66835   1.902  35.331  12.038
94411W        W66836  42.740   3.689  11.414
94412W        W66837   4.252  37.546   4.327
94413W        W66838   4.939  44.271  11.060
94414W        W66839  21.056   3.448  13.787
94415W        W66840  43.504  10.783   0.779
94416W        W66841  12.252  31.969   2.140
94417W        W66842   6.768   8.310  12.572
94418W        W66843  41.828  19.626  12.502
94419W        W66844  19.252  10.723  10.970
94420W        W66845  43.448  43.536  12.797
94421W        W66846   4.597  26.460   0.623
94422W        W66847   1.985  42.181  10.889
94423W        W66848   3.296  40.509   4.061
94424W        W66849  26.281  38.497   4.129
94425W        W66850   2.416  28.165  13.997
94426W        W66851  27.423  32.523  12.071
94427W        W66852  28.800  44.028   0.955
94428W        W66853  35.269  28.426  11.517
94429W        W66854   4.731  30.027  14.528
94430W        W66855  32.174  27.459  10.548
94431W        W66856  22.220  17.279   2.926
94432W        W66857  24.013  10.567   3.550
94433W        W66858  34.985  41.510   3.125
94434W        W66859  14.114  14.433   2.799
94435W        W66860  40.162  36.955   3.975
94436W        W66861  13.658  20.466   1.730
94437W        W66862   8.191  39.592   1.422
94438W        W66863  39.531  28.034  13.889
94439W        W66864   8.204  36.194   2.428
94440W        W66865  13.217   4.448  14.851
94441W        W66866  25.074  19.979   4.317
94442W        W66867   2.386   5.345   4.399
94443W        W66868  44.707  24.499   2.188
94444W        W66869  43.192  40.952   1.819
94445W        W66870   8.535  34.263   4.292
94446W        W66871  41.038   7.960   2.852
94447W        W66872  28.967  28.774   4.062
94448W        W66873  29.474   3.333  12.538
94449W        W66874  28.572  18.861  12.512
94450W        W66875  15.407  20.239   0.543
94451W        W66876   3.524  38.812   3.601
94452W        W66877  23.053  22.527  12.579
94453W        W66878  27.948   1.359  14.836
94454W        W66879  39.946  43.597  11.730
94455W        W66880  20.066  31.726   4.155
94456W        W66881  30.643   2.390   0.020
94457W        W66882  31.169  16.271   4.694
94458W        W66883   5.449  22.207   2.684
94459W        W66884   5.626   0.653  11.083
94460W        W66885  13.734  42.493  14.703
94461W        W66886  38.898   5.955   4.144
94462W        W66887  36.319  38.480  11.951
94463W        W66888   5.644  29.112  10.677
94464W        W66889  25.083  25.669  11.792
94465W        W66890  40.037  18.029   0.982
94466W        W66891  13.871  35.773   4.220
94467W        W66892  43.016   7.355   5.291
94468W        W66893  23.129  11.383  13.433
94469W        W66894  35.711  44.827   2.860
94470W        W66895  11.274   1.991  14.832
94471W        W66896  33.202   7.880   4.119
94472W        W66897  39.594  24.414   3.681
94473W        W66898   2.307   6.412   9.908
94474W        W66899   6.827  26.213   0.052
94475W        W66900  16.275  16.343  13.536
94476W        W66901   6.393  14.206   1.875
94477W        W66902   5.426  29.225   3.324
94478W        W66903   1.838   7.272  10.698
94479W        W66904  19.078  36.414   4.009
94480W        W66905  28.108  15.237   1.102
94481W        W66906  18.695   9.530  11.625
94482W        W66907  10.614  20.959  11.965
94483W        W66908  41.321   2.464  13.878
94484W        W66909  43.804  29.020   0.584
94485W        W66910  12.310   2.148  10.939
94486W        W66911  23.862   5.033   3.360
94487W        W66912  38.551  35.583   2.137
94488W        W66913  23.059  32.926  14.968
94489W        W66914  11.309  33.002  14.822
94490W        W66915  34.927  37.554  11.509
94491W        W66916  21.037   4.719  13.853
94492W        W66917  27.454  39.997  11.630
94493W        W66918  14.112  23.583  10.122
94494W        W66919   0.175  41.985   4.557
94495W        W66920  26.887   2.459  14.407
94496W        W66921  22.043  29.937  13.922
94497W        W66922  13.917  34.844  14.016
94498W        W66923  29.476  23.942   3.021
94499W        W66924   1.097  11.772   1.317
94500W        W66925  39.345  26.280   0.865
94501W        W66926  26.105  26.262  13.859
94502W        W66927   2.188  18.357  11.547
94503W        W66928  21.225   3.296   3.139
94504W        W66929   4.056   1.961   4.585
94505W        W66930   7.375  19.686  10.730
94506W        W66931  40.387  18.976  12.691
94507W        W66932   8.410  23.340  10.786
94508W        W66933   9.190   5.800   9.779
94509W        W66934  42.031  42.335   0.387
94510W        W66935  27.500  31.256   2.638
94511W        W66936  36.248   0.839   5.064
94512W        W66937  32.234  22.180  14.518
94513W        W66938  43.289  17.228   0.747
94514W        W66939  36.421  25.472  13.883
94515W        W66940  38.573  19.720  13.862
94516W        W66941  29.304  34.539  14.380
94517W        W66942  13.720   4.913   3.673
94518W        W66943   6.860  15.159   0.475
94519W        W66944   1.015  19.127  12.491
94520W        W66945  13.745   0.747  10.749
94521W        W66946  28.943  23.737   5.567
94522W        W66947  40.643  36.164  12.966
94523W        W66948  21.479  15.573   1.006
94524W        W66949  22.613  19.035  13.408
94525W        W66950  22.494   6.978  12.969
94526W        W66951   1.290  20.107   2.481
94527W        W66952   3.445   2.792  10.774
94528W        W66953  35.592  19.679   4.059
94529W        W66954  39.426   3.497   4.896
94530W        W66955  19.324  24.395  14.908
94531W        W66956  28.350   6.236   2.840
94532W        W66957   6.941  30.108   1.447
94533W        W66958  38.034  16.079   1.713
94534W        W66959  40.424  10.401   2.381
94535W        W66960  32.351   2.193   4.761
94536W        W66961  44.880  44.547  14.947
94537W        W66962  11.314  39.464  13.553
94538W        W66963  15.326   1.360   2.674
94539W        W66964  22.681  14.286   4.106
94540W        W66965  40.594   0.840   3.706
94541W        W66966  28.472   0.238  10.977
94542W        W66967  44.471  43.595  12.526
94543W        W66968  21.521   6.821   3.653
94544W        W66969  22.600  42.608  14.460
94545W        W66970  43.439   7.573   2.626
94546W        W66971  30.408   5.323  13.360
94547W        W66972   3.024  12.884  13.324
94548W        W66973  15.557  13.845  14.806
94549W        W66974  12.766  15.434   4.320
94550W        W66975  37.311  31.212  13.833
94551W        W66976  25.270  23.469   2.300
94552W        W66977   5.833  19.784  13.941
94553W        W66978  22.039  22.549  14.126
94554W        W66979  37.647  11.942  12.119
94555W        W66980  37.027   5.372  11.802
94556W        W66981   5.851  14.435   1.693
94557W        W66982  20.680   0.290   4.172
94558W        W66983  28.680  23.988   1.453
94559W        W66984  11.823  33.292   4.397
94560W        W66985  43.211  19.524  12.050
94561W        W66986  21.977  18.515   4.676
94562W        W66987  15.563  27.557   3.747
94563W        W66988  24.220  33.923   3.377
94564W        W66989  39.255  16.343   1.299
94565W        W66990   6.733  20.137  11.002
94566W        W66991  29.644  13.338   4.078
94567W        W66992  14.220  16.768   4.091
94568W        W66993  22.608  24.623  12.109
94569W        W66994  11.863  12.197   3.744
94570W        W66995   3.334  27.623  11.167
94571W        W66996  44.211   5.288   1.160
94572W        W66997  32.085  15.201   2.835
94573W        W66998  15.238   7.266   1.489
94574W        W66999  13.793   9.253  12.498
94575W        W67000  27.707   8.409  10.693
94576W        W67001  29.501  43.446  13.443
94577W        W67002  14.959   3.550   4.500
94578W        W67003  28.106  11.205  10.077
94579W        W67004  14.376  23.991  11.440
94580W        W67005  25.202  30.280  13.342
94581W        W67006  15.216  16.271   3.155
94582W        W67007  33.703  22.112  11.540
94583W        W67008  37.025   7.667  11.091
94584W        W67009  34.544  22.143   2.259
94585W        W67010   8.054  44.844   3.153
94586W        W67011  28.455   1.080   2.748
94587W        W67012   1.053   5.893   0.515
94588W        W67013  34.680  15.675   2.259
94589W        W67014  25.727  25.033  12.072
94590W        W67015  43.530  31.455   1.875
94591W        W67016   4.051   7.223   4.416
94592W        W67017  37.917   8.729   0.442
94593W        W67018  41.866  37.039  11.669
94594W        W67019  32.090  14.215  12.072
94595W        W67020   5.758  30.382  14.319
94596W        W67021  41.180   4.661  14.672
94597W        W67022  34.099   2.739  12.088
94598W        W67023   3.075  23.775   4.300
94599W        W67024   8.939   7.183   2.749
94600W        W67025  33.603  43.460  14.724
94601W        W67026   9.768  19.815   1.440
94602W        W67027  17.836  37.433  13.849
94603W        W67028  20.245  10.848   5.654
94604W        W67029  24.971  27.893   2.175
94605W        W67030  31.131  44.986  14.800
94606W        W67031   2.128   9.770   0.654
94607W        W67032  42.001   9.975   0.335
94608W        W67033  16.232  31.904  12.058
94609W        W67034  42.958  22.662  11.618
94610W        W67035  23.145  28.417  12.967
94611W        W67036  12.271  31.119   1.724
94612W        W67037  27.938  30.052  10.632
94613W        W67038  20.070  43.221   0.466
94614W        W67039  29.546  21.549  12.437
94615W        W67040  19.661  41.909   2.617
94616W        W67041  25.000  37.786   2.416
94617W        W67042  26.383  42.675   2.146
94618W        W67043  34.954  36.788   1.378
94619W        W67044  44.484  37.816   2.892
94620W        W67045  35.815  27.253  11.133
94621W        W67046  29.134  41.538   2.384
94622W        W67047  32.862  21.528   2.301
94623W        W67048  31.926   3.182   1.306
94624W        W67049  31.026  32.455   1.250
94625W        W67050  39.932  41.447  11.213
94626W        W67051   7.616  27.281  12.861
94627W        W67052  27.950  34.340  14.700
94628W        W67053  26.403  14.450   3.962
94629W        W67054   8.849   6.389   3.272
94630W        W67055  37.136  29.631   3.710
94631W        W67056  35.793  18.676  14.928
94632W        W67057  22.646  32.794  14.464
94633W        W67058  24.220  29.974   5.304
94634W        W67059  34.500  39.353  13.605
94635W        W67060  40.281  27.477   2.282
94636W        W67061  16.132  32.016   3.228
94637W        W67062  42.441   5.502  10.830
94638W        W67063  11.410  42.216  13.761
94639W        W67064  40.017  43.058   1.658
94640W        W67065   1.958  20.582   2.655
94641W        W67066  11.733  12.411  12.558
94642W        W67067   0.344  28.475   3.701
94643W        W67068  29.696  13.137   4.547
94644W        W67069  36.079  44.877   2.001
94645W        W67070  14.178   3.738   4.383
94646W        W67071  28.169   6.944   1.069
94647W        W67072   0.858  31.236  12.521
94648W        W67073   9.277   8.379  11.702
94649W        W67074   1.726  16.842  13.760
94650W        W67075  14.769   2.168   9.643
94651W        W67076  16.138  38.836  13.040
94652W        W67077  30.927  13.822  13.316
94653W        W67078  15.411   3.787  14.460
94654W        W67079   8.894   0.747   3.655
94655W        W67080  43.994  10.606  11.098
94656W        W67081  43.762  28.125  11.106
94657W        W67082  28.093  33.102   3.720
94658W        W67083  11.578  42.574  10.957
94659W        W67084  41.756  11.658   2.000
94660W        W67085  42.596   6.892   1.547
94661W        W67086  32.242  36.376   2.239
94662W        W67087  36.626  44.762   4.124
94663W        W67088  30.604  13.462   4.217
94664W        W67089  21.506  39.166   3.175
94665W        W67090  22.771  36.388  12.937
94666W        W67091   8.226   1.890   0.635
94667W        W67092  13.937   5.247  12.549
94668W        W67093  14.876  34.919  11.905
94669W        W67094  30.936  41.327   4.633
94670W        W67095  41.260   5.648  14.647
94671W        W67096   4.865  20.580   0.135
94672W        W67097  40.193  38.751  14.903
94673W        W67098  29.994   9.893   2.882
94674W        W67099  42.378  21.961   4.715
94675W        W67100  32.907  41.064   1.243
94676W        W67101  44.215  39.853  11.104
94677W        W67102  34.595  11.650  11.229
94678W        W67103  44.283  17.710   2.610
94679W        W67104  44.544   7.432   0.853
94680W        W67105  11.342  24.301   1.613
94681W        W67106  14.879  35.039   3.927
94682W        W67107   9.248  30.003   3.268
94683W        W67108  41.608   9.760  11.092
94684W        W67109  14.556  13.907   2.301
94685W        W67110   5.761  15.068  11.248
94686W        W67111  11.664  34.441   4.542
94687W        W67112  35.524  38.514   1.425
94688W        W67113  28.866  24.481   1.382
94689W        W67114  30.841   4.887   0.816
94690W        W67115  34.988  16.467   4.628
94691W        W67116  14.674  15.871   0.504
94692W        W67117  10.702  12.922   2.795
94693W        W67118  37.376   7.238   0.044
94694W        W67119  12.412  11.279  14.294
94695W        W67120  44.832  29.083  12.632
94696W        W67121  24.902  33.554  11.602
94697W        W67122  28.136  12.618   1.752
94698W        W67123  38.475  40.368   0.946
94699W        W67124  28.221   5.472  13.495
94700W        W67125   3.732  33.000  14.323
94701W        W67126  31.128  14.539   3.150
94702W        W67127   9.321  24.276  13.353
94703W        W67128  34.966  12.764   4.552
94704W        W67129  35.602  28.270   3.990
94705W        W67130  12.645  15.153   1.797
94706W        W67131   7.689  42.701  11.149
94707W        W67132  25.089  42.315  10.353
94708W        W67133  11.643  38.369  14.836
94709W        W67134  24.247  19.193  13.814
94710W        W67135  15.383  36.065   3.299
94711W        W67136  30.452  34.071   0.090
94712W        W67137   8.172  23.504   2.130
94713W        W67138  12.556   3.840   4.589
94714W        W67139  25.039  15.495   1.057
94715W        W67140   3.491  42.492  11.509
94716W        W67141  11.343  37.023  12.149
94717W        W67142   1.006  22.023   2.299
94718W        W67143   7.888  37.682   3.431
94719W        W67144  38.362  23.943   0.849
94720W        W67145  25.721  13.338   0.387
94721W        W67146  10.817  15.212  10.613
94722W        W67147  42.869   2.436   0.201
94723W        W67148  22.189   8.897   0.899
94724W        W67149  44.399  31.632   4.233
94725W        W67150  35.912   6.563  12.487
94726W        W67151  13.444   3.826   1.881
94727W        W67152  17.750  43.002  12.680
94728W        W67153   6.808  38.999  11.079
94729W        W67154  37.600   6.764  11.220
94730W        W67155  32.524   7.296  10.989
94731W        W67156  17.956  44.854  14.808
94732W        W67157  40.828   9.839   1.685
94733W        W67158  20.750  22.047   0.388
94734W        W67159  11.787   4.579   3.723
94735W        W67160  14.581  32.115  14.546
94736W        W67161  10.930  38.043  11.436
94737W        W67162  35.365  24.754   2.911
94738W        W67163  13.617   9.955  14.056
94739W        W67164   8.106  22.782  14.894
94740W        W67165   0.356  41.941  10.720
94741W        W67166   5.851  25.479   0.929
94742W        W67167  16.337   0.678  12.491
94743W        W67168  14.667  36.345   0.270
94744W        W67169  21.238  13.302  12.807
94745W        W67170   3.006  33.010  11.076
94746W        W67171  16.780  36.039   1.642
94747W        W67172   6.814  22.900  14.326
94748W        W67173  11.861  12.816  12.854
94749W        W67174  21.662  36.120   1.336
94750W        W67175  20.574   1.717   0.823
94751W        W67176  24.893  41.306   1.366
94752W        W67177  34.581  10.399   2.886
94753W        W67178  14.180   4.705  13.032
94754W        W67179   4.149  18.872  14.810
94755W        W67180  44.465  40.959   3.876
94756W        W67181  22.208  20.842   0.374
94757W        W67182  25.041  23.498  10.613
94758W        W67183   4.190  28.107   0.552
94759W        W67184  38.083  29.216  13.674
94760W        W67185   3.816  30.861   4.257
94761W        W67186  12.874  33.119  11.793
94762W        W67187  29.991   1.560   4.576
94763W        W67188  39.347  21.641   1.805
94764W        W67189  43.003  44.808   1.130
94765W        W67190  21.825  10.909  12.519
94766W        W67191  21.766  28.322   0.829
94767W        W67192   4.438  41.258   3.995
94768W        W67193  41.548  21.051   3.045
94769W        W67194   9.766  36.282  14.771
94770W        W67195  31.973   7.183   1.622
94771W        W67196   3.698  21.260  13.293
94772W        W67197  33.499  35.655  13.434
94773W        W67198  13.092  44.937  11.679
94774W        W67199  26.607  39.542  14.688
94775W        W67200  33.597  40.435   4.864
94776W        W67201   1.203  20.833   1.951
94777W        W67202   3.652   8.846   3.836
94778W        W67203  35.531  21.651  14.934
94779W        W67204  28.762   8.487   4.130
94780W        W67205  38.546  25.554  14.583
94781W        W67206  42.711  24.976   0.452
94782W        W67207  18.936  18.618   4.102
94783W        W67208   3.902  25.486  12.540
94784W        W67209  19.847  18.161   3.060
94785W        W67210  40.843  22.793  13.025
94786W        W67211  17.798  32.835  14.384
94787W        W67212  40.828  24.804   3.192
94788W        W67213  37.971  13.978  11.147
94789W        W67214  37.617  44.405   3.746
94790W        W67215  23.594  19.110   4.231
94791W        W67216  43.053  22.892   2.171
94792W        W67217  37.468  32.368   0.315
94793W        W67218  32.191  11.622   2.868
94794W        W67219   9.126  43.048   4.205
94795W        W67220   0.886  30.464   1.318
94796W        W67221  38.088  26.001  11.606
94797W        W67222  37.014  41.740  14.892
94798W        W67223  10.858  34.728   4.198
94799W        W67224   6.457   5.932  13.802
94800W        W67225  33.551  34.869  11.742
94801W        W67226  43.746   7.222   1.259
94802W        W67227  15.246  33.870  10.181
94803W        W67228  24.476  16.596   0.536
94804W        W67229  35.924  29.014  12.609
94805W        W67230  29.622   2.321   4.621
94806W        W67231  30.409  44.515   1.360
94807W        W67232  16.095  17.128  11.521
94808W        W67233  35.980   6.438   0.307
94809W        W67234  16.671  13.023   0.419
94810W        W67235  13.386  29.878  11.256
94811W        W67236  22.756  33.339   0.601
94812W        W67237  26.754  25.970   4.063
94813W        W67238   4.775   9.663  14.915
94814W        W67239  27.024   4.442   2.810
94815W        W67240  31.173  14.334   1.743
94816W        W67241  39.097  43.447   3.832
94817W        W67242  40.002  39.502   4.738
94818W        W67243   4.230  10.221  12.965
94819W        W67244  42.255  38.426   3.813
94820W        W67245  39.569  33.420   0.720
94821W        W67246   9.822  31.773  13.624
94822W        W67247  44.990   8.503  11.169
94823W        W67248  14.894  35.987  10.549
94824W        W67249  29.834   4.094  12.489
94825W        W67250  37.812  37.904  12.908
94826W        W67251  24.802  38.662   0.356
94827W        W67252   8.635  16.344   4.068
94828W        W67253  29.000   4.789  10.775
94829W        W67254  43.857   0.766   4.610
94830W        W67255  22.031  16.638  13.839
94831W        W67256  39.534  37.498   3.205
94832W        W67257  35.923  41.754  14.315
94833W        W67258   3.347   7.388  13.976
94834W        W67259  16.738   5.734  12.396
94835W        W67260   8.224   2.260   3.756
94836W        W67261  26.452  20.225  13.250
94837W        W67262  13.290  38.863  11.817
94838W        W67263  21.223  28.044  10.665
94839W        W67264  44.794  39.986   1.059
94840W        W67265  25.234  17.744   1.310
94841W        W67266  26.965  36.861   0.443
94842W        W67267  35.038  25.962   3.266
94843W        W67268  39.018  32.887  11.036
94844W        W67269  16.553  21.857   3.650
94845W        W67270  19.083  37.777  13.708
94846W        W67271  30.609  10.233  11.140
94847W        W67272   4.023   9.141   4.132
94848W        W67273  41.195  28.649   2.154
94849W        W67274  44.143   9.304   4.973
94850W        W67275  14.759  10.120  10.398
94851W        W67276  34.942   4.272  13.378
94852W        W67277  22.149  34.495   1.209
94853W        W67278   4.987  35.014   1.843
94854W        W67279  33.618  42.352   2.906
94855W        W67280  19.251  29.528   1.018
94856W        W67281  16.696   5.445   0.789
94857W        W67282  17.523  39.589   3.592
94858W        W67283  11.952   9.884  12.822
94859W        W67284  29.957   2.143   2.674
94860W        W67285  33.036  21.526   4.237
94861W        W67286  39.265  34.016   2.232
94862W        W67287  42.912  40.370   3.668
94863W        W67288   5.351  10.218  12.244
94864W        W67289  14.653  43.018  14.456
94865W        W67290   6.377  15.136   0.724
94866W        W67291  41.331  12.042  10.429
94867W        W67292  31.210  14.754  14.811
94868W        W67293   4.863  25.565   2.619
94869W        W67294  16.156  16.371   3.764
94870W        W67295  30.686  39.416  13.254
94871W        W67296  15.534  38.391   1.831
94872W        W67297  43.841  20.702   0.466
94873W        W67298  36.803  34.649   3.180
94874W        W67299  34.559  44.466  13.005
94875W        W67300  10.667  27.897   1.370
94876W        W67301  21.592  34.431   1.842
94877W        W67302  34.832  24.234   2.340
94878W        W67303  37.362  30.935   3.823
94879W        W67304  13.652  12.826   1.280
94880W        W67305   9.904  14.488   1.711
94881W        W67306   2.620   1.005   1.451
94882W        W67307  25.164  12.816  13.003
94883W        W67308  34.169   6.211  12.801
94884W        W67309  41.690  32.028  14.007
94885W        W67310   3.231  43.009  13.671
94886W        W67311  32.707  13.275  12.846
94887W        W67312  21.238  21.989  12.616
94888W        W67313  15.660  25.947   4.083
94889W        W67314  25.014  21.673   2.587
94890W        W67315  22.550  25.736  10.636
94891W        W67316  32.189  39.932   3.331
94892W        W67317  43.967  11.146  13.548
94893W        W67318  25.527  20.302  14.844
94894W        W67319  35.937   1.512  12.444
94895W        W67320  16.878  11.821   1.896
94896W        W67321  15.092  29.600   4.864
94897W        W67322  43.423  44.118  11.136
94898W        W67323  32.915   6.197  11.553
94899W        W67324  40.570  38.037   4.119
94900W        W67325   2.247  18.075   3.201
94901W        W67326   6.143  33.356   0.380
94902W        W67327  13.065   2.073  13.733
94903W        W67328  25.076  35.316   4.634
94904W        W67329  27.659   3.412  13.285
94905W        W67330   9.260  19.125   3.180
94906W        W67331  38.495  36.392  13.448
94907W        W67332  20.964  40.662   3.893
94908W        W67333   1.386  29.972   4.231
94909W        W67334   4.537  41.038  11.204
94910W        W67335  11.583  25.431  14.811
94911W        W67336   4.951  18.467   0.290
94912W        W67337  30.537   3.290   4.112
94913W        W67338  13.337  43.098   0.910
94914W        W67339  32.287  37.004   3.528
94915W        W67340   5.758  19.212  12.817
94916W        W67341  17.804  42.481   4.051
94917W        W67342  32.408  35.025   0.820
94918W        W67343  22.249  36.586   3.791
94919W        W67344  36.287  34.208   2.847
94920W        W67345   8.713  15.556   0.251
94921W        W67346  35.964  40.823  12.124
94922W        W67347  29.594  12.926   2.816
94923W        W67348  38.954  41.169   0.088
94924W        W67349  32.868  18.455  11.503
94925W        W67350  12.046  11.662  11.141
94926W        W67351  37.968   4.056  13.965
94927W        W67352  37.583  35.875  10.757
94928W        W67353   2.949  32.797   3.698
94929W        W67354  24.973   6.823   4.738
94930W        W67355   6.926  44.412   1.802
94931W        W67356  13.110  29.501   0.919
94932W        W67357   1.734  43.918  14.886
94933W        W67358  25.482  28.870   0.784
94934W        W67359  14.760  43.774  12.366
94935W        W67360   2.563   2.560   4.595
94936W        W67361  41.087  40.196   5.123
94937W        W67362  27.433  25.937  11.472
94938W        W67363  37.349  41.256  13.063
94939W        W67364   4.131  22.090   4.060
94940W        W67365  31.483  25.950  10.757
94941W        W67366  16.575  38.208  11.460
94942W        W67367   4.103  21.473  13.028
94943W        W67368  44.846  20.735  12.501
94944W        W67369  30.950  10.314   1.746
94945W        W67370   8.319  24.205  13.089
94946W        W67371  19.729   4.403   4.340
94947W        W67372  36.366   2.206  12.133
94948W        W67373  35.476   7.778   1.054
94949W        W67374  22.207  18.746  14.123
94950W        W67375  12.317  29.931  10.482
94951W        W67376  28.451   6.547  13.279
94952W        W67377  30.588  31.542   3.254
94953W        W67378  33.145  11.597   2.689
94954W        W67379  11.358  11.232   0.786
94955W        W67380  39.935  38.078  12.020
94956W        W67381  11.194  13.708   3.936
94957W        W67382  24.446   2.004   4.539
94958W        W67383  13.821  29.007  11.064
94959W        W67384  30.971  14.650  11.500
94960W        W67385   0.816  16.855  13.640
94961W        W67386  43.247   6.883  11.625
94962W        W67387   6.777  33.319   0.827
94963W        W67388  44.482  12.268  14.583
94964W        W67389  12.251  30.885   0.291
94965W        W67390  35.562   4.966  13.567
94966W        W67391   5.324  39.016   3.405
94967W        W67392  31.045  23.300   5.565
94968W        W67393   8.340   9.407   3.158
94969W        W67394   3.746  13.509  12.551
94970W        W67395  28.137  39.777   0.749
94971W        W67396  36.345  25.063   0.390
94972W        W67397  20.801  34.917   1.296
94973W        W67398  42.473  24.984   3.442
94974W        W67399  34.576  23.793   2.451
94975W        W67400  40.831  42.539  11.879
94976W        W67401   9.189  25.587  13.234
94977W        W67402  43.021  15.710   2.434
94978W        W67403  28.093  35.945   1.745
94979W        W67404  14.053  15.801   1.184
94980W        W67405   1.333  20.463   0.982
94981W        W67406  30.184  24.156   0.966
94982W        W67407  43.370   7.441   3.581
94983W        W67408  26.686  19.477   4.051
94984W        W67409  37.399  21.775  11.575
94985W        W67410  39.218  31.461  12.588
94986W        W67411  12.321  21.975  11.125
94987W        W67412  31.014   2.952  13.362
94988W        W67413  41.292  12.406   1.774
94989W        W67414  21.607  18.984  14.547
94990W        W67415  41.453  18.269  11.552
94991W        W67416  41.584  12.692   0.500
94992W        W67417  27.323  13.671  11.630
94993W        W67418  30.360  25.180  12.495
94994W        W67419  41.011  42.443  10.961
94995W        W67420   4.090  24.459   2.690
94996W        W67421  34.543  15.070  10.629
94997W        W67422  33.861  15.763  13.104
94998W        W67423  24.502   1.321  11.913
94999W        W67424   0.628  39.994   5.015
95000W        W67425  28.647  29.495   4.303
95001W        W67426   3.849   5.480   0.579
95002W        W67427  30.867  33.070   1.926
95003W        W67428   9.313  10.166   0.774
95004W        W67429   4.267   1.644  11.639
95005W        W67430  43.644  25.169  14.512
95006W        W67431   2.207  29.623   2.444
95007W        W67432  28.349  37.433  10.262
95008W        W67433  44.382  23.958   1.361
95009W        W67434  33.511  35.478  11.051
95010W        W67435  17.025   9.179  12.399
95011W        W67436  13.610   3.684   0.026
95012W        W67437  35.981  19.646  11.478
95013W        W67438  11.735  35.268  13.352
95014W        W67439  15.316  11.877   2.835
95015W        W67440  17.856  13.414   3.277
95016W        W67441   9.115  24.751  13.389
95017W        W67442  17.109  38.644  13.970
95018W        W67443  44.989  22.250   0.895
95019W        W67444  17.584   7.499   3.820
95020W        W67445  34.658   3.935  12.537
95021W        W67446   8.720  25.429  12.365
95022W        W67447  21.223  13.406  12.321
95023W        W67448  12.672  25.231   0.748
95024W        W67449  28.893  33.606  13.833
95025W        W67450   8.298  39.764  10.494
95026W        W67451  43.382   9.653  12.471
95027W        W67452   1.719  15.615   1.340
95028W        W67453  35.599   5.198  14.045
95029W        W67454  40.434   8.802  12.818
95030W        W67455  34.678  23.437   0.856
95031W        W67456  31.691  12.421  12.423
95032W        W67457  41.471  27.162  14.508
95033W        W67458  16.402  12.252  12.994
95034W        W67459  14.557   3.308   3.721
95035W        W67460  12.903   1.390  11.504
95036W        W67461  15.474  10.130  12.300
95037W        W67462  22.741  29.222   1.194
95038W        W67463  15.872  24.975  11.351
95039W        W67464  23.032  31.023  14.928
95040W        W67465  35.427   3.423   0.253
95041W        W67466  33.770  23.186   3.812
95042W        W67467  35.035  13.936   1.790
95043W        W67468  23.110  19.990  14.465
95044W        W67469   8.766   2.389  14.913
95045W        W67470   2.173   6.574  11.940
95046W        W67471   8.613  37.949   2.795
95047W        W67472   0.580  36.901  12.125
95048W        W67473  27.008  36.748   3.759
95049W        W67474  19.512  33.918   2.977
95050W        W67475  28.632   7.608   0.402
95051W        W67476   4.976  24.841   1.283
95052W        W67477   6.087  20.655  14.508
95053W        W67478  43.570  28.585   0.762
95054W        W67479  31.632  35.532  14.341
95055W        W67480  30.459   7.846  14.928
95056W        W67481  37.539  42.061   3.369
95057W        W67482  24.241  33.908  12.500
95058W        W67483  28.638  14.671   0.263
95059W        W67484  31.346  15.772  10.883
95060W        W67485  20.775  44.296  12.478
95061W        W67486   3.447  31.971  11.682
95062W        W67487   6.029  29.167   3.661
95063W        W67488  19.162  39.016  14.869
95064W        W67489   5.048  21.137   4.527
95065W        W67490  18.935  12.146   1.378
95066W        W67491  26.889  17.052   4.281
95067W        W67492   2.931  10.182   3.870
95068W        W67493  36.655  11.404   2.814
95069W        W67494  34.332  37.907   3.550
95070W        W67495  23.471   0.318  11.417
95071W        W67496  17.267  37.176  14.445
95072W        W67497  17.224  27.172  13.628
95073W        W67498  44.786  17.783   2.804
95074W        W67499   7.132  23.243  12.573
95075W        W67500  13.693  22.793  12.845
95076W        W67501  43.925   1.468   1.813
95077W        W67502  28.852  10.335  11.019
95078W        W67503  42.969  29.629  12.039
95079W        W67504  43.374  22.065   5.464
95080W        W67505  31.031  36.101  11.059
95081W        W67506  41.098  36.586   1.873
95082W        W67507  15.953   0.346   3.139
95083W        W67508   5.980  26.001   1.894
95084W        W67509  44.526  10.249   1.322
95085W        W67510  27.059   3.335   1.147
95086W        W67511  14.213  18.158  13.563
95087W        W67512  31.954  30.061  11.526
95088W        W67513  43.846  36.360  11.201
95089W        W67514   0.451   5.927   3.340
95090W        W67515  23.634  22.689  14.462
95091W        W67516  34.131  34.323  14.526
95092W        W67517  32.519  12.646  13.357
95093W        W67518   4.404   6.612  11.658
95094W        W67519  12.929  35.315  12.355
95095W        W67520  13.987  14.914  14.477
95096W        W67521  12.206  17.666   3.274
95097W        W67522   1.237  23.563  14.837
95098W        W67523  36.132  17.832  13.374
95099W        W67524  34.976  24.538  12.579
95100W        W67525   4.849   5.862   0.727
95101W        W67526   5.852  40.253  13.289
95102W        W67527  25.232  30.404  11.513
95103W        W67528  10.216  33.177   2.878
95104W        W67529  41.831  20.472   1.367
95105W        W67530  16.081  41.340  11.115
95106W        W67531  24.858  28.065   1.681
95107W        W67532  23.643  41.969   1.345
95108W        W67533   4.681  24.725  11.275
95109W        W67534  34.446  31.659   0.250
95110W        W67535  24.603  42.401  13.748
95111W        W67536  10.674  19.597  12.192
95112W        W67537  29.386  24.603  10.611
95113W        W67538   4.402  36.826   0.393
95114W        W67539  19.232  20.631  12.026
95115W        W67540  11.647   2.324  14.604
95116W        W67541   2.323  39.090   1.810
95117W        W67542  40.916   0.523   1.040
95118W        W67543  43.423  16.052   2.426
95119W        W67544  33.477  36.659  14.009
95120W        W67545  30.513  16.614   2.825
95121W        W67546  24.937   0.425   2.310
95122W        W67547  37.241  36.658   5.076
95123W        W67548   9.364  21.954  10.750
95124W        W67549   3.348  17.601   0.022
95125W        W67550  14.884  11.642   0.690
95126W        W67551  14.268   3.644  10.284
95127W        W67552  41.525  11.256   0.326
95128W        W67553   2.317  13.062  14.641
95129W        W67554  36.055  44.420   1.744
95130W        W67555  12.863  25.927   3.333
95131W        W67556  35.500   5.940  12.669
95132W        W67557  19.938   2.755  13.566
95133W        W67558   4.287   7.164  12.524
95134W        W67559   9.245  29.149   0.319
95135W        W67560  27.728  19.792   4.069
95136W        W67561  18.612  39.036   3.320
95137W        W67562  29.084  19.727  14.033
95138W        W67563  39.010  24.640  13.767
95139W        W67564  44.319  14.877  12.478
95140W        W67565  24.276  37.507   3.726
95141W        W67566  22.298  17.234  12.027
95142W        W67567  15.556   6.421   1.321
95143W        W67568  13.111  41.402   4.348
95144W        W67569  41.823   0.746  14.013
95145W        W67570  12.619  23.030   1.875
95146W        W67571  39.754  24.174  14.841
95147W        W67572  36.916   8.425  13.977
95148W        W67573  17.492  10.884  13.825
95149W        W67574  36.773  39.351   2.216
95150W        W67575  19.166  33.367   4.126
95151W        W67576  13.317  21.508  14.902
95152W        W67577   0.742  18.717   3.796
95153W        W67578  27.236  17.790  13.852
95154W        W67579  25.199  19.811   3.817
95155W        W67580  18.706  34.645  14.040
95156W        W67581  12.764  32.640  10.583
95157W        W67582   4.583  42.460   1.853
95158W        W67583  27.684  40.275  12.460
95159W        W67584  17.829  42.342  13.509
95160W        W67585  44.205  29.953   1.799
95161W        W67586  22.597   8.174   2.379
95162W        W67587  18.592   0.963   2.585
95163W        W67588  14.173   0.262  10.102
95164W        W67589   0.342  36.805  11.607
95165W        W67590  34.363  20.758   4.104
95166W        W67591   8.939  17.615   4.011
95167W        W67592  27.111   0.531   2.730
95168W        W67593  37.001  44.500   0.592
95169W        W67594   1.245  32.320  14.241
95170W        W67595  41.104  15.184   0.830
95171W        W67596  22.306  34.587  11.075
95172W        W67597  12.804  21.599  11.679
95173W        W67598   6.364  15.757  12.097
95174W        W67599  14.815  27.644   2.451
95175W        W67600  22.554  29.474  12.391
95176W        W67601  19.476  36.500   2.247
95177W        W67602  14.465  12.743  13.998
95178W        W67603  14.174  23.659   0.274
95179W        W67604  22.231  40.534  12.805
95180W        W67605  16.107  36.492  11.637
95181W        W67606  14.662  38.485   0.062
95182W        W67607  44.234  32.556   1.392
95183W        W67608  11.727  38.874   5.045
95184W        W67609  26.100   2.275  13.463
95185W        W67610  22.405   0.363  12.990
95186W        W67611   5.137  41.729   1.811
95187W        W67612  12.829  14.540   3.558
95188W        W67613  17.566  35.137   2.569
95189W        W67614  13.037   3.650  11.474
95190W        W67615  35.883  20.283   0.982
95191W        W67616  42.830  31.428   2.376
95192W        W67617  31.933   9.967  13.988
95193W        W67618   3.702  44.313  10.474
95194W        W67619  18.550  19.367  10.505
95195W        W67620  43.760  18.839  10.733
95196W        W67621  17.044   1.253  12.416
95197W        W67622  29.190  26.104   1.202
95198W        W67623  39.802  14.551   1.190
95199W        W67624  34.476   6.207  14.035
95200W        W67625  18.023  11.205  10.706
95201W        W67626  25.565   7.799  12.031
95202W        W67627  10.827  10.117  13.066
95203W        W67628  37.335  40.832   4.520
95204W        W67629   2.487  15.739  12.450
95205W        W67630   1.829   6.746   3.619
95206W        W67631  12.062  28.872   4.203
95207W        W67632  35.579  12.184   4.051
95208W        W67633  36.260  31.200  13.424
95209W        W67634  25.473  24.709   3.432
95210W        W67635   6.830  11.417   1.898
95211W        W67636  24.196   5.664   2.110
95212W        W67637   0.343  39.073   0.207
95213W        W67638  20.013  44.178  11.613
95214W        W67639  40.731  27.672   4.370
95215W        W67640   8.228  27.642   3.290
95216W        W67641  37.336   2.915   1.676
95217W        W67642  39.901  16.789   0.544
95218W        W67643   5.702  38.489   0.889
95219W        W67644  17.690  20.712   0.916
95220W        W67645  11.060  31.191  14.369
95221W        W67646   1.676  35.198   3.780
95222W        W67647   7.316  29.140   0.739
95223W        W67648  44.880  29.028   4.470
95224W        W67649   7.420  20.279  12.513
95225W        W67650  21.173  35.056   4.542
95226W        W67651   7.851  13.892  10.658
95227W        W67652  32.327  11.821   0.967
95228W        W67653  19.179  13.270   2.509
95229W        W67654  44.282  14.269  13.416
95230W        W67655  42.582  17.009   4.825
95231W        W67656  14.928   0.821   4.375
95232W        W67657  37.838  35.008   3.949
95233W        W67658  33.917  27.540  14.241
95234W        W67659  44.581  42.315   4.160
95235W        W67660  17.211  11.437  12.332
95236W        W67661  36.566  21.985   2.744
95237W        W67662  32.066  23.142  13.067
95238W        W67663   8.185  18.626  11.253
95239W        W67664  30.703   0.511   0.182
95240W        W67665  27.705  15.695   0.391
95241W        W67666   0.447  18.686   4.223
95242W        W67667  36.887   1.844   0.311
95243W        W67668  38.436   4.707   4.319
95244W        W67669  42.358  12.348  14.627
95245W        W67670   1.700  19.090  11.629
95246W        W67671   1.297   6.227   0.046
95247W        W67672  15.780   2.091  13.118
95248W        W67673  11.260  27.108   4.557
95249W        W67674  26.800   6.426  13.512
95250W        W67675  17.565   2.406   1.467
95251W        W67676  23.478  25.742  12.058
95252W        W67677  39.485  41.410   2.101
95253W        W67678  25.233  26.968   0.913
95254W        W67679  13.055  25.570   0.439
95255W        W67680  29.664  29.417  12.894
95256W        W67681  42.042  30.033  12.842
95257W        W67682  20.008  40.242  11.931
95258W        W67683  23.005  42.587  11.973
95259W        W67684  11.697  33.760  13.749
95260W        W67685  43.475  37.235   3.344
95261W        W67686  16.944  36.923  12.502
95262W        W67687  11.155  39.542   4.479
95263W        W67688  39.806  44.708   4.143
95264W        W67689   6.418  13.153   2.331
95265W        W67690  10.964  33.635   2.667
95266W        W67691   1.605  31.488   1.620
95267W        W67692  18.994  14.042   1.344
95268W        W67693  26.237  13.790  12.904
95269W        W67694  22.980  32.591   3.179
95270W        W67695  44.724  38.371   4.219
95271W        W67696  17.044   2.876   2.906
95272W        W67697   1.121  11.309  14.197
95273W        W67698  27.254  32.263   5.068
95274W        W67699  43.118  28.847  14.885
95275W        W67700  18.794  36.411  11.089
95276W        W67701  43.415  21.630   9.773
95277W        W67702  39.017  19.982  12.960
95278W        W67703  27.280  42.623  13.819
95279W        W67704  43.311  18.462   4.879
95280W        W67705   0.314  40.404  12.969
95281W        W67706  19.487  30.505  13.389
95282W        W67707  21.224  14.749   0.261
95283W        W67708  42.289   7.893  13.099
95284W        W67709  13.684  38.736   1.593
95285W        W67710  20.881  36.385   2.835
95286W        W67711  13.521   6.220   2.418
95287W        W67712   1.269  16.125   2.182
95288W        W67713   5.286  32.653   4.226
95289W        W67714   1.315  25.684   3.864
95290W        W67715  44.755  20.786  14.216
95291W        W67716  14.261  42.488   1.543
95292W        W67717  22.255  20.022  12.548
95293W        W67718  19.789  23.589   1.835
95294W        W67719  32.512  30.716  11.919
95295W        W67720  10.366  22.710   5.139
95296W        W67721  29.020  23.346  10.616
95297W        W67722   2.782  22.909   3.714
95298W        W67723  26.291  16.026   4.575
95299W        W67724   3.251  29.394  14.950
95300W        W67725  30.068  28.388   3.634
95301W        W67726  36.601  29.766   2.242
95302W        W67727  33.144   1.210   2.322
95303W        W67728  16.936  25.851  11.588
95304W        W67729   3.329  20.638   2.157
95305W        W67730  10.616  37.346   0.349
95306W        W67731  44.338   6.477   4.600
95307W        W67732  22.557  21.050  10.185
95308W        W67733   9.763  13.543   0.182
95309W        W67734  17.112  38.324   0.088
95310W        W67735  16.898  37.532  14.308
95311W        W67736  44.151  23.450   4.222
95312W        W67737  32.813  37.383   1.911
95313W        W67738  10.653  17.878  13.053
95314W        W67739  29.777  15.855   5.262
95315W        W67740  12.966  35.948   1.392
95316W        W67741   1.262  16.834  14.985
95317W        W67742   7.621  41.575   1.398
95318W        W67743  20.981  41.524  11.672
95319W        W67744  19.058  20.605  11.527
95320W        W67745   6.216  16.356   3.610
95321W        W67746  38.300  10.285   4.663
95322W        W67747  19.959  40.367  12.810
95323W        W67748  25.444  10.975   0.423
95324W        W67749   8.523  21.611   1.427
95325W        W67750  44.032  17.510   2.157
95326W        W67751  20.302  33.505  11.838
95327W        W67752  43.063  15.522   1.388
95328W        W67753  19.343  38.749  11.129
95329W        W67754  39.619   1.996  12.959
95330W        W67755  19.768  11.313   4.136
95331W        W67756   8.077   5.214   3.579
95332W        W67757  36.851  35.469   4.753
95333W        W67758  27.189  34.127  11.512
95334W        W67759  35.495  22.256  11.637
95335W        W67760   5.378  25.133  11.616
95336W        W67761  16.617  19.501   0.833
95337W        W67762  31.915  43.617  14.891
95338W        W67763  10.336   0.088  12.626
95339W        W67764  13.949  18.253   3.267
95340W        W67765  22.118   9.054  13.569
95341W        W67766  19.131  18.495   4.581
95342W        W67767   8.306   8.372   3.165
95343W        W67768  13.877  39.604  14.401
95344W        W67769  25.704  30.154   3.640
95345W        W67770  15.510  12.189  11.626
95346W        W67771  16.550  28.020  14.462
95347W        W67772  43.088  34.343  10.552
95348W        W67773   5.567  43.942  14.881
95349W        W67774   9.728  29.046   4.282
95350W        W67775  21.119   9.142   0.348
95351W        W67776  36.027  40.003  14.027
95352W        W67777  38.941  42.739   4.218
95353W        W67778  27.381  35.071  13.396
95354W        W67779  20.794  43.377  14.984
95355W        W67780   5.836  41.019  12.588
95356W        W67781   8.502  44.070  14.467
95357W        W67782  16.749  28.685  13.517
95358W        W67783  30.413  16.100   2.844
95359W        W67784  40.446  10.929   2.383
95360W        W67785  13.643  25.132  10.451
95361W        W67786  44.587  17.933  14.393
95362W        W67787  11.431  27.905  13.952
95363W        W67788  34.666  40.828   1.267
95364W        W67789  29.131   5.438  12.886
95365W        W67790  29.079  11.527  13.387
95366W        W67791  43.861   6.227  11.887
95367W        W67792  42.493  25.467  14.671
95368W        W67793  20.105  30.006   1.146
95369W        W67794  18.062  14.197  12.543
95370W        W67795  40.450  41.396   2.325
95371W        W67796  34.573  20.089   3.771
95372W        W67797  42.989  11.837   3.165
95373W        W67798   0.112  40.366   1.858
95374W        W67799  43.689   0.777   0.885
95375W        W67800  16.883  23.774  12.548
95376W        W67801   3.331  39.741   3.766
95377W        W67802  11.244  16.653  11.751
95378W        W67803   7.651  12.838  14.158
95379W        W67804  36.471  29.042   1.334
95380W        W67805  41.980  22.538  13.993
95381W        W67806   9.340  43.224   3.588
95382W        W67807   8.835  17.290  14.467
95383W        W67808  19.467   7.260  13.419
95384W        W67809  36.871  30.953   0.567
95385W        W67810  38.180  13.530  13.436
95386W        W67811   3.137  14.370   2.780
95387W        W67812   8.474   7.726  12.631
95388W        W67813  40.746  34.914   3.254
95389W        W67814  12.652  43.860   4.614
95390W        W67815  22.826  27.996  10.358
95391W        W67816  42.881  13.122   0.961
95392W        W67817  40.848  29.166  14.378
95393W        W67818  20.288  23.051   3.886
95394W        W67819  26.465  10.954   4.688
95395W        W67820  39.515  13.806  12.258
95396W        W67821   8.830  17.170   1.258
95397W        W67822  11.072   0.145   1.473
95398W        W67823  10.106  20.804  12.030
95399W        W67824   9.424  15.278  12.289
95400W        W67825  30.592   4.845  13.279
95401W        W67826   4.828  21.775  12.523
95402W        W67827  22.717  26.704  14.754
95403W        W67828  42.998  17.808  14.973
95404W        W67829  38.473  23.585   3.547
95405W        W67830  35.103  32.539   1.405
95406W        W67831  22.092   1.333  13.427
95407W        W67832  11.820  37.526   4.119
95408W        W67833  33.142  33.419  14.991
95409W        W67834  20.689  38.116  11.796
95410W        W67835  31.828  25.986   4.667
95411W        W67836   3.580  10.911  13.383
95412W        W67837  14.591  20.728  11.269
95413W        W67838  16.851  15.262   4.520
95414W        W67839  11.668  26.542  11.501
95415W        W67840  18.862  39.595  10.382
95416W        W67841  38.211  44.985   0.866
95417W        W67842   4.283   2.417   3.162
95418W        W67843  29.753  10.126  14.320
95419W        W67844  39.028  11.427  14.398
95420W        W67845  44.154  26.547  12.141
95421W        W67846  26.813  21.845  12.952
95422W        W67847  18.149  18.562   3.304
95423W        W67848   4.580  38.660  12.779
95424W        W67849  26.442  29.845  10.286
95425W        W67850  42.186   5.833   2.856
95426W        W67851  31.174  13.754  12.031
95427W        W67852  17.575   2.571  10.769
95428W        W67853  11.319  30.937  14.748
95429W        W67854  11.265  28.277   0.330
95430W        W67855  13.080  38.359   3.375
95431W        W67856  35.481  32.467  11.454
95432W        W67857  29.025   7.434  13.217
95433W        W67858  16.182  38.985  10.309
95434W        W67859  41.028  15.389  12.423
95435W        W67860   3.785   6.798   2.317
95436W        W67861   4.162   8.438  11.769
95437W        W67862  29.992  25.975  13.049
95438W        W67863  28.048   1.616   4.584
95439W        W67864   0.653  15.650   0.522
95440W        W67865  34.069   0.160  14.117
95441W        W67866   8.849   1.534  11.016
95442W        W67867  28.176   5.816  10.950
95443W        W67868  36.341  39.000  14.527
95444W        W67869  15.624   9.891   0.318
95445W        W67870  31.427  31.984  14.985
95446W        W67871  27.081  21.632  10.636
95447W        W67872  43.015  10.920  12.016
95448W        W67873  36.599  14.908   2.181
95449W        W67874  36.417   5.872  14.740
95450W        W67875  15.880  37.980   1.856
95451W        W67876  43.362  37.952  11.013
95452W        W67877  19.738  42.295  13.047
95453W        W67878  44.040  40.833  14.090
95454W        W67879  13.572   6.766   4.530
95455W        W67880   4.434  10.222   2.930
95456W        W67881  34.669  40.373   0.001
95457W        W67882  16.129   6.198   3.392
95458W        W67883  43.464  37.925  12.788
95459W        W67884   5.462  34.495  13.055
95460W        W67885  17.559  22.092  11.127
95461W        W67886   2.980  38.501  13.493
95462W        W67887  37.999  31.631   1.383
95463W        W67888  31.059  24.815   4.538
95464W        W67889  25.944   1.804  11.088
95465W        W67890  30.103  31.301   4.421
95466W        W67891  19.714   0.547  13.419
95467W        W67892   4.429  31.569  12.285
95468W        W67893  23.166   5.326   0.206
95469W        W67894  26.993  43.029   0.781
95470W        W67895  43.837  42.473   4.636
95471W        W67896  36.505  44.298   2.770
95472W        W67897   2.215  32.023   1.313
95473W        W67898  24.043   9.786  10.746
95474W        W67899  42.059  34.532  10.624
95475W        W67900   2.579  11.448   1.414
95476W        W67901  36.112  37.522   0.811
95477W        W67902   6.087  14.620   2.470
95478W        W67903  23.879  36.126   4.010
95479W        W67904  26.464  32.391   2.873
95480W        W67905  40.848  37.314  12.660
95481W        W67906  23.021  43.374  14.049
95482W        W67907  26.128  31.897   2.288
95483W        W67908  16.322   7.236   2.102
95484W        W67909   2.735  18.258  14.982
95485W        W67910  14.729   0.151   0.971
95486W        W67911   1.732  39.014  14.010
95487W        W67912  10.821  27.680  11.547
95488W        W67913  37.073  30.826   1.015
95489W        W67914  35.357   5.640   3.627
95490W        W67915  33.960  42.629  14.755
95491W        W67916  39.026  37.066  11.894
95492W        W67917  32.094  44.977  10.715
95493W        W67918  33.516  41.173  14.891
95494W        W67919  10.278  36.144  10.614
95495W        W67920  43.757  30.544  13.891
95496W        W67921   2.700  26.507  12.441
95497W        W67922  35.019  20.487  11.246
95498W        W67923  18.540  43.998   1.949
95499W        W67924  37.935  26.928   1.273
95500W        W67925   7.387  10.161  11.975
95501W        W67926  17.106  41.782   1.217
95502W        W67927  17.268  21.597   0.584
95503W        W67928  24.528  38.783   4.892
95504W        W67929  18.436   6.671   0.332
95505W        W67930  11.161  14.221   2.470
95506W        W67931  40.841  34.298  12.548
95507W        W67932   4.544  23.790  11.527
95508W        W67933   9.038  18.824   1.749
95509W        W67934  24.747  36.777  12.079
95510W        W67935  20.278  11.829   0.333
95511W        W67936  44.208  16.600   4.510
95512W        W67937  14.315  40.722  13.011
95513W        W67938  25.664  34.283   1.748
95514W        W67939  18.867   6.955   4.112
95515W        W67940  20.161   6.424  12.549
95516W        W67941   5.325   9.107  13.584
95517W        W67942  41.914  23.475  10.885
95518W        W67943  13.031   5.664  13.021
95519W        W67944  23.501  10.156  12.211
95520W        W67945  24.019  43.704   2.227
95521W        W67946   3.557  36.395   5.412
95522W        W67947  37.582   7.750   0.759
95523W        W67948  21.548  25.478   2.908
95524W        W67949  43.398  11.590   3.442
95525W        W67950   8.856  29.362  11.077
95526W        W67951  34.590  39.704   2.688
95527W        W67952  17.788  17.240   2.681
95528W        W67953  21.522  43.302   3.212
95529W        W67954  16.792   8.445   0.400
95530W        W67955  24.933  30.913  12.790
95531W        W67956  24.504  25.124  12.925
95532W        W67957  44.421   2.661  11.135
95533W        W67958   4.931  36.974   2.895
95534W        W67959  29.683  44.499   0.883
95535W        W67960  15.615  10.685   3.671
95536W        W67961  40.743  22.512  13.469
95537W        W67962  20.639   8.686   0.931
95538W        W67963  44.367  43.001  11.633
95539W        W67964  23.764  11.337  10.571
95540W        W67965  39.884  13.234  13.442
95541W        W67966  38.475   9.484   9.648
95542W        W67967  34.660  20.632   1.768
95543W        W67968  11.209  16.356  11.036
95544W        W67969  18.238  16.026  14.405
95545W        W67970  29.648  25.864   4.120
95546W        W67971  24.758   2.246   0.363
95547W        W67972  41.141  11.167  13.399
95548W        W67973  28.055  24.206  11.448
95549W        W67974  42.401  38.451   0.125
95550W        W67975   3.464  39.030   0.331
95551W        W67976   0.381  43.442   0.284
95552W        W67977  20.832  30.691  13.013
95553W        W67978  19.626   1.972  13.124
95554W        W67979  41.996  22.334   1.753
95555W        W67980  39.865  18.050   1.461
95556W        W67981  33.552   3.181  12.266
95557W        W67982  33.140  18.567  11.984
95558W        W67983   5.411  42.591  13.744
95559W        W67984  24.739  36.359  11.150
95560W        W67985  20.509  29.106  14.168
95561W        W67986  21.954   4.917   0.988
95562W        W67987  29.933   7.762  13.377
95563W        W67988  21.145  39.864   2.785
95564W        W67989  17.753  31.197  13.037
95565W        W67990  28.878  43.533   0.847
95566W        W67991  44.597  30.652  10.139
95567W        W67992  23.994   0.300  11.608
95568W        W67993  27.534   5.688   3.636
95569W        W67994  33.061  38.585  10.434
95570W        W67995  41.882  30.183   3.732
95571W        W67996   3.840   0.907  11.198
95572W        W67997  37.305  34.944  12.814
95573W        W67998  40.367  28.448   4.411
95574W        W67999  17.604  32.275  10.624
95575W        W68000  36.703  12.844   3.612
95576W        W68001  12.644  38.374   1.410
95577W        W68002   8.049  29.091  12.850
95578W        W68003  22.503   1.731  13.383
95579W        W68004  26.105   2.296   1.676
95580W        W68005  21.757  12.910   0.433
95581W        W68006  30.910   8.841   4.046
95582W        W68007  22.339  11.190   3.606
95583W        W68008   1.930  27.670  10.883
95584W        W68009  44.819  32.944   4.494
95585W        W68010  26.149  27.976   3.563
95586W        W68011  16.619  30.467  11.392
95587W        W68012   8.884  14.578  11.612
95588W        W68013   0.574  31.537   3.639
95589W        W68014   8.187  33.142   1.017
95590W        W68015  39.637  28.533  12.374
95591W        W68016  10.278   4.303   2.667
95592W        W68017  38.559  10.707   1.896
95593W        W68018  27.115   0.725  14.051
95594W        W68019  23.468  36.393  14.490
95595W        W68020   5.635  12.139   0.375
95596W        W68021  35.244   5.754   4.511
95597W        W68022  29.264  19.606  11.398
95598W        W68023   9.815  23.494   2.283
95599W        W68024  24.427   0.887  12.656
95600W        W68025   9.879  14.176  10.543
95601W        W68026  19.319  29.527  10.970
95602W        W68027  25.186  14.143  11.986
95603W        W68028  22.006  32.550   2.217
95604W        W68029  34.108  22.909  13.023
95605W        W68030  38.490  13.885  12.550
95606W        W68031   1.391  36.903  13.004
95607W        W68032  37.128  13.624   1.852
95608W        W68033  19.460   2.790  13.303
95609W        W68034  19.281  33.317   3.575
95610W        W68035   7.393  37.973   4.690
95611W        W68036  39.561  21.277  11.201
95612W        W68037  24.020  13.577  12.581
95613W        W68038  20.819  31.951  13.512
95614W        W68039   3.279  26.040  13.079
95615W        W68040  23.673   1.169   2.347
95616W        W68041  26.671  22.358  14.885
95617W        W68042  40.871  36.892  14.011
95618W        W68043  34.494  16.277  13.910
95619W        W68044  36.834  32.370  14.435
95620W        W68045  39.480   6.310   2.276
95621W        W68046  14.120  44.004  11.224
95622W        W68047  27.122  11.750  12.115
95623W        W68048  26.787  29.547   3.270
95624W        W68049  37.322  43.676   4.566
95625W        W68050  42.377  35.091   1.947
95626W        W68051  40.279  32.990   0.444
95627W        W68052   6.934  41.933  14.580
95628W        W68053  17.013  27.069   2.082
95629W        W68054  19.672  28.183  12.171
95630W        W68055  30.650  43.926  12.054
95631W        W68056  42.593  31.545  11.607
95632W        W68057  11.797   4.127  14.454
95633W        W68058  43.366  21.469   3.684
95634W        W68059  15.034   7.740   1.005
95635W        W68060  22.681   5.807  11.636
95636W        W68061   5.468  22.813  14.291
95637W        W68062  32.167  11.324  13.944
95638W        W68063   4.205   5.861   1.938
95639W        W68064  13.290  27.875   4.152
95640W        W68065  34.373  29.221   1.445
95641W        W68066   0.337  12.871  13.055
95642W        W68067  20.755  10.879   4.957
95643W        W68068  32.552   1.290  13.278
95644W        W68069   9.584  26.003   1.659
95645W        W68070  10.840  27.110  10.556
95646W        W68071  42.937  24.825   4.603
95647W        W68072  44.352  17.321   0.837
95648W        W68073  39.872  12.304   0.445
95649W        W68074  18.653  23.167  11.181
95650W        W68075  32.074  28.364  10.493
95651W        W68076  32.580  44.778  13.064
95652W        W68077  27.970  30.638   2.338
95653W        W68078  10.531  23.223  14.873
95654W        W68079  44.191   4.815   2.173
95655W        W68080  43.973   4.340   4.630
95656W        W68081  44.101  23.136  12.252
95657W        W68082  32.527  26.534  10.632
95658W        W68083  34.035  42.070  14.219
95659W        W68084  30.533  39.852   1.005
95660W        W68085   5.230   5.805  11.207
95661W        W68086   3.440  21.622  13.568
95662W        W68087  37.587  12.883  12.032
95663W        W68088  43.538   9.337  12.899
95664W        W68089  23.980  40.933  12.018
95665W        W68090  21.773  12.768  11.243
95666W        W68091  10.620  36.361  11.001
95667W        W68092  12.673   0.934   2.855
95668W        W68093  18.592  37.942   2.447
95669W        W68094  27.026  27.733  10.597
95670W        W68095  23.483  41.434  14.410
95671W        W68096   5.881   2.476   2.335
95672W        W68097  36.410  22.698   4.167
95673W        W68098  41.404  13.670   0.274
95674W        W68099   7.478  42.440  10.740
95675W        W68100   9.640   3.667   2.882
95676W        W68101  36.837  16.316   3.638
95677W        W68102  10.306  10.275   1.597
95678W        W68103   0.789  32.561   3.754
95679W        W68104  24.134  26.204   2.790
95680W        W68105  33.352  10.340  11.376
95681W        W68106  18.849  41.031   4.131
95682W        W68107  28.936   6.833  10.535
95683W        W68108  19.000  11.842   0.926
95684W        W68109  20.476   3.814   2.123
95685W        W68110  19.311  10.418  12.974
95686W        W68111   7.965  43.235  14.268
95687W        W68112  14.867  10.727  14.515
95688W        W68113  21.593   2.931   1.266
95689W        W68114  15.346  21.192   4.522
95690W        W68115  10.203   8.322  12.949
95691W        W68116   7.946  42.742  10.705
95692W        W68117  27.925  39.455   1.922
95693W        W68118  25.312   4.178  13.807
95694W        W68119   0.831   8.245   1.187
95695W        W68120  41.279  23.118   3.125
95696W        W68121  32.657  31.369  10.745
95697W        W68122  12.413  22.452   3.155
95698W        W68123  41.779  31.671   4.216
95699W        W68124  15.261  29.118   0.043
95700W        W68125  23.213   3.227   0.913
95701W        W68126  32.408   4.467  11.469
95702W        W68127   9.322  32.669   0.943
95703W        W68128  30.583  32.363   2.282
95704W        W68129  42.359  19.818  13.416
95705W        W68130  40.616  25.037  12.089
95706W        W68131  25.993   5.768   2.699
95707W        W68132  34.086   6.881  12.558
95708W        W68133  26.556  18.664   2.661
95709W        W68134  12.807  20.319   1.775
95710W        W68135   3.814  33.811   2.178
95711W        W68136  39.300   4.318   2.805
95712W        W68137  42.389  30.348   2.958
95713W        W68138   8.687  44.236  12.868
95714W        W68139  33.020  24.213   1.348
95715W        W68140  24.652  33.540  12.523
95716W        W68141  11.747  20.230   0.161
95717W        W68142   1.663  32.883   3.300
95718W        W68143  23.243  36.180   2.742
95719W        W68144  36.133   9.206   4.152
95720W        W68145  26.017  24.056   4.016
95721W        W68146  32.106  42.312   0.426
95722W        W68147   2.201  17.619   0.008
95723W        W68148  21.351  43.246  12.498
95724W        W68149  39.940  22.290  14.681
95725W        W68150  43.817  38.688   3.305
95726W        W68151   6.385   2.432  13.313
95727W        W68152  16.492   3.342   4.631
95728W        W68153  13.169  16.450  14.058
95729W        W68154  20.349  30.962  11.435
95730W        W68155  18.158   8.254   1.215
95731W        W68156   2.648  12.157   3.265
95732W        W68157  31.356  22.969  13.525
95733W        W68158   9.745  10.579  14.466
95734W        W68159  33.695  15.857  14.935
95735W        W68160  36.020  26.950  10.726
95736W        W68161  33.180   3.818  10.657
95737W        W68162  23.969  38.983   1.444
95738W        W68163  36.043  21.998   2.835
95739W        W68164  39.916  13.255  14.084
95740W        W68165   8.093  11.355   4.850
95741W        W68166  19.152  11.654   1.397
95742W        W68167  41.554  28.095   3.233
95743W        W68168  39.055   6.178  13.873
95744W        W68169  35.425  32.103  13.186
95745W        W68170  12.625   1.349  12.454
95746W        W68171  24.537  25.336   0.411
95747W        W68172  20.718  28.890   3.616
95748W        W68173   1.587   6.324  11.539
95749W        W68174  34.016  36.270  11.293
95750W        W68175  26.473  12.827  12.452
95751W        W68176  15.678   7.179  10.996
95752W        W68177  21.517  21.115   1.871
95753W        W68178   1.795   1.466   1.302
95754W        W68179  37.870  43.392  12.010
95755W        W68180  35.543  18.511   1.191
95756W        W68181  32.020  30.962   2.268
95757W        W68182  12.000  31.836  13.982
95758W        W68183  21.298  33.628  12.047
95759W        W68184  19.256   0.924   1.243
95760W        W68185  16.401   3.295   2.903
95761W        W68186  16.273  36.403   3.667
95762W        W68187  25.911   9.892  14.535
95763W        W68188  20.120  38.492   3.356
95764W        W68189  23.520  30.578  11.421
95765W        W68190  43.823  30.448  14.770
95766W        W68191  24.217  11.992   3.099
95767W        W68192  35.033  42.029   3.186
95768W        W68193  27.072  37.997   1.856
95769W        W68194  24.943  38.970   1.031
95770W        W68195  22.930  36.359   0.163
95771W        W68196   0.882   4.256  14.853
95772W        W68197  17.567  22.123   0.299
95773W        W68198  11.814  29.121  14.881
95774W        W68199  40.597  40.145   3.713
95775W        W68200  14.690   9.859   1.345
95776W        W68201  32.541  40.845  10.651
95777W        W68202  43.501  10.955  12.829
95778W        W68203  18.221  30.470  13.849
95779W        W68204   0.354   2.438  14.756
95780W        W68205  20.544   0.813   0.795
95781W        W68206  31.419   6.737  14.484
95782W        W68207  10.640  26.563  11.550
95783W        W68208   4.889   2.104  13.420
95784W        W68209  34.410   0.995   1.281
95785W        W68210  10.844   5.680  10.721
95786W        W68211  40.226  29.021  11.663
95787W        W68212  24.133  42.455   2.852
95788W        W68213   3.752  17.253   4.591
95789W        W68214  41.348  42.486  11.774
95790W        W68215   8.907  21.789   3.238
95791W        W68216  22.116  42.808  14.337
95792W        W68217  33.083   5.754  11.356
95793W        W68218  26.804  15.611   0.745
95794W        W68219   8.438   9.244  14.305
95795W        W68220  25.024  34.569  13.324
95796W        W68221  17.525   5.436  14.285
95797W        W68222  16.361  36.356  11.205
95798W        W68223  17.181   4.493   0.044
95799W        W68224  28.092  22.515  12.933
95800W        W68225   1.846   9.237  11.651
95801W        W68226  38.213  25.216   5.093
95802W        W68227   9.896  44.506  14.860
95803W        W68228  26.761  20.566   2.516
95804W        W68229   4.185  21.171   3.660
95805W        W68230  34.430  31.454   2.165
95806W        W68231  15.165  30.765   1.277
95807W        W68232  21.543  43.902   4.494
95808W        W68233  42.859   0.831   4.509
95809W        W68234  34.158  14.637  12.548
95810W        W68235   2.250  15.532   3.697
95811W        W68236   8.238  17.688  14.935
95812W        W68237  23.685  19.384   3.777
95813W        W68238  45.000  22.630   4.378
95814W        W68239  12.545   6.235  13.865
95815W        W68240  40.087  44.996  13.279
95816W        W68241  43.183   9.963   1.349
95817W        W68242  29.191   2.943  14.569
95818W        W68243  35.439  24.518   3.336
95819W        W68244   0.043  21.257   2.207
95820W        W68245  41.332  19.846   3.179
95821W        W68246  22.244   9.748  11.923
95822W        W68247   2.896  43.777   4.710
95823W        W68248   7.420  16.363  12.630
95824W        W68249  29.602  22.275  13.347
95825W        W68250  14.317  21.326   3.666
95826W        W68251   0.251  19.040   2.390
95827W        W68252   6.880  42.655   3.848
95828W        W68253  20.460  28.088  12.008
95829W        W68254  32.411  26.943   2.583
95830W        W68255  25.872  41.882   0.940
95831W        W68256  21.132  25.771   2.830
95832W        W68257   1.439   3.347  12.309
95833W        W68258   5.188   7.865  12.014
95834W        W68259   1.518  28.029  13.322
95835W        W68260  42.745  36.794   3.117
95836W        W68261  16.986   5.438   1.678
95837W        W68262  40.541  34.451  14.946
95838W        W68263  44.225  43.170   1.471
95839W        W68264   0.443  36.514   1.198
95840W        W68265  15.656  16.540   3.251
95841W        W68266  21.653  42.528   2.800
95842W        W68267  37.139  36.386   1.921
95843W        W68268   3.438  41.551   4.079
95844W        W68269  12.241  24.947  13.905
95845W        W68270  21.706   0.482   0.192
95846W        W68271  22.658  40.792   1.188
95847W        W68272  12.098  23.606  13.911
95848W        W68273   9.846  38.697   3.180
95849W        W68274   6.073  38.532  14.887
95850W        W68275   3.905  24.567  13.502
95851W        W68276  42.946  24.033  11.360
95852W        W68277   9.184  22.269   4.156
95853W        W68278  11.422  16.727   0.901
95854W        W68279  44.125  36.965   4.091
95855W        W68280  11.763  25.282   2.413
95856W        W68281  31.354  36.637   2.740
95857W        W68282   6.612  17.870  12.968
95858W        W68283  30.228  20.586  14.843
95859W        W68284  32.157  19.307   9.822
95860W        W68285  10.389  28.579  12.908
95861W        W68286  19.021  18.501   3.266
95862W        W68287  43.710  29.852   1.887
95863W        W68288  30.660  16.702   1.017
95864W        W68289  38.427   4.677  12.936
95865W        W68290  14.375  37.329   2.846
95866W        W68291   8.915   8.728  13.007
95867W        W68292  25.459  28.878   4.201
95868W        W68293  40.017  42.214  13.021
95869W        W68294  36.643   6.450  13.920
95870W        W68295   5.295  37.829   4.042
95871W        W68296   3.670  22.170   3.853
95872W        W68297  31.667  21.567   4.071
95873W        W68298  25.484   2.033   3.889
95874W        W68299  25.889  12.123  13.905
95875W        W68300  11.314  39.083   4.253
95876W        W68301  44.856  34.131  13.382
95877W        W68302  21.159  10.744   1.791
95878W        W68303  36.985  39.757   1.335
95879W        W68304  27.500   1.540   3.140
95880W        W68305   3.491  35.907  10.786
95881W        W68306  27.922  19.398  11.884
95882W        W68307  23.722  13.854  10.752
95883W        W68308  37.604  15.676   4.555
95884W        W68309   2.356  23.455   0.690
95885W        W68310  16.333  31.013  12.969
95886W        W68311  23.665  21.021   0.159
95887W        W68312  32.978  38.304  13.453
95888W        W68313  19.102  26.322  11.284
95889W        W68314  12.661  36.986   1.400
95890W        W68315   2.563  29.515  12.842
95891W        W68316  43.845  34.322  13.969
95892W        W68317  19.817   9.148  13.024
95893W        W68318  19.492  24.090   0.788
95894W        W68319   9.772  18.212   2.334
95895W        W68320   2.012  33.903   1.946
95896W        W68321  39.911  37.863  13.419
95897W        W68322   7.298   3.787  11.664
95898W        W68323   0.039  28.431   3.239
95899W        W68324  33.279  13.103   2.693
95900W        W68325  42.189   1.501   4.339
95901W        W68326  34.324  24.516  10.671
95902W        W68327  12.813   1.365  13.930
95903W        W68328  39.953  24.701  13.650
95904W        W68329  19.030  14.251  10.256
95905W        W68330   5.407  39.825   2.342
95906W        W68331  32.224  31.624   4.705
95907W        W68332  23.674   8.736  13.971
95908W        W68333   3.219  33.330   1.519
95909W        W68334  25.532  42.216  11.579
95910W        W68335   0.207   2.290   2.893
95911W        W68336  15.263  11.873   4.400
95912W        W68337  17.065  29.581  11.560
95913W        W68338  27.728  36.907  14.335
95914W        W68339  17.745  30.972   2.776
95915W        W68340  20.273  42.932   2.902
95916W        W68341  27.555  21.848   4.646
95917W        W68342  11.840   4.987  11.214
95918W        W68343  31.487  28.098  10.453
95919W        W68344  15.265   4.415   0.687
95920W        W68345  31.031  21.658  11.912
95921W        W68346  12.232  37.081  11.739
95922W        W68347  40.073  38.991  10.687
95923W        W68348  13.371  35.162  12.081
95924W        W68349   7.585   8.409  14.794
95925W        W68350  28.123   3.423   2.288
95926W        W68351  29.463  20.695   1.736
95927W        W68352  37.079  10.634   4.010
95928W        W68353  23.524  30.193  14.787
95929W        W68354   4.380  18.839   4.130
95930W        W68355   4.422  26.536  11.906
95931W        W68356  36.733  37.672  10.246
95932W        W68357  34.170  13.124   4.484
95933W        W68358   3.897  25.206   3.285
95934W        W68359   2.803   1.277   0.327
95935W        W68360   9.073  18.259   4.879
95936W        W68361  17.569   5.917  13.370
95937W        W68362  41.296  13.633   0.789
95938W        W68363  21.009   9.876   3.208
95939W        W68364  22.460  24.442  14.838
95940W        W68365  21.802  31.459  11.543
95941W        W68366  32.507  23.166   4.342
95942W        W68367  42.546   0.977  11.131
95943W        W68368  31.123  25.740  13.853
95944W        W68369  44.877  32.686   3.707
95945W        W68370   5.599   2.722   2.771
95946W        W68371  37.197  29.721   1.902
95947W        W68372  13.416  11.753  10.711
95948W        W68373   1.423  20.981   0.816
95949W        W68374  35.356   9.706  13.078
95950W        W68375  17.696  18.090   0.754
95951W        W68376  25.772  30.088  11.301
95952W        W68377  25.929  11.235  13.460
95953W        W68378  32.107   6.283  11.597
95954W        W68379  32.355  22.152  13.881
95955W        W68380  12.158  15.012   3.745
95956W        W68381  26.346  38.935   0.928
95957W        W68382  40.233  10.326  11.456
95958W        W68383  22.757   4.736  10.555
95959W        W68384  31.188  16.051  13.075
95960W        W68385  39.318  35.499   0.264
95961W        W68386  26.501  44.357   0.944
95962W        W68387  17.990  27.234   4.857
95963W        W68388  33.980   3.321   4.870
95964W        W68389  33.337  13.674   4.318
95965W        W68390  24.135  41.087   2.813
95966W        W68391  12.305  15.746   4.274
95967W        W68392  34.530  13.147  13.121
95968W        W68393  33.333  12.055  10.824
95969W        W68394  44.353  41.375  10.247
95970W        W68395  12.549  27.593   4.766
95971W        W68396  28.432  34.804   4.714
95972W        W68397  35.111   4.880   4.539
95973W        W68398   9.214  19.173  11.498
95974W        W68399  26.987   9.935  12.473
95975W        W68400   4.898   5.450  14.797
95976W        W68401  42.015  27.011  10.375
95977W        W68402  37.881  13.601   1.242
95978W        W68403   5.845  18.885   0.268
95979W        W68404  29.240  16.102   4.592
95980W        W68405  16.304  33.064   1.902
95981W        W68406  31.882  13.915  10.777
95982W        W68407   6.001  21.048   3.647
95983W        W68408  40.596  40.650   1.179
95984W        W68409   5.962  23.834   2.623
95985W        W68410  42.396   4.978  12.425
95986W        W68411  23.300  22.097  12.747
95987W        W68412  22.798  15.321  12.191
95988W        W68413  15.399  22.281  14.409
95989W        W68414  11.151  24.309   9.587
95990W        W68415  10.172  33.539  13.303
95991W        W68416   1.199  39.014  14.040
95992W        W68417   1.208  38.850   3.266
95993W        W68418   9.897  30.354  14.461
95994W        W68419   0.249  19.039   3.348
95995W        W68420  41.918  26.535  13.505
95996W        W68421  37.570  38.110  13.842
95997W        W68422  17.214  17.348  13.905
95998W        W68423  28.068  43.338   3.741
95999W        W68424  35.568  26.505   0.637
96000W        W68425   9.499  26.713  13.914
96001W        W68426  30.784  26.470  13.591
96002W        W68427  16.560   1.400   1.253
96003W        W68428  17.683  18.785   4.958
96004W        W68429  26.590  43.485  13.467
96005W        W68430  43.283   3.345   3.229
96006W        W68431  20.155   2.441  14.874
96007W        W68432  43.013  43.030   0.310
96008W        W68433  37.867  25.544   4.854
96009W        W68434  20.431  17.635   4.312
96010W        W68435  15.095  43.625  12.771
96011W        W68436  37.442  15.504  13.447
96012W        W68437  37.608  38.186  14.724
96013W        W68438  27.643  38.922   3.211
96014W        W68439  40.933   9.152   3.130
96015W        W68440  10.103   1.404  13.395
96016W        W68441  30.522  42.276  14.792
96017W        W68442  26.396  30.589  14.404
96018W        W68443  15.276  23.612   3.997
96019W        W68444  38.239  10.713   3.334
96020W        W68445  39.218  37.878   2.245
96021W        W68446  26.567  14.237   0.795
96022W        W68447  35.429   0.996  14.965
96023W        W68448  22.305  26.055   2.919
96024W        W68449  22.684  26.088  12.110
96025W        W68450  40.291   4.302  10.788
96026W        W68451   7.962   9.290  12.133
96027W        W68452  41.042   2.394   2.224
96028W        W68453  25.689  11.347   1.371
96029W        W68454  27.965  23.622   3.387
96030W        W68455   0.527   9.776   3.283
96031W        W68456  25.622   6.822  11.755
96032W        W68457  26.003  27.128   0.025
96033W        W68458  44.374  12.046   0.594
96034W        W68459  37.313  12.042  14.447
96035W        W68460  13.061   0.971   2.104
96036W        W68461   6.164   1.722  13.536
96037W        W68462   3.380  18.228   1.857
96038W        W68463  18.116  43.729   0.472
96039W        W68464  15.157  27.488   1.473
96040W        W68465  32.358  10.359  11.992
96041W        W68466  18.696  43.472   1.268
96042W        W68467   4.396  36.330  12.323
96043W        W68468   1.335   0.989  10.475
96044W        W68469   1.260  27.086   2.317
96045W        W68470  32.962  39.982  14.711
96046W        W68471  40.891  12.073  13.252
96047W        W68472   0.982  39.552  11.417
96048W        W68473  37.741  43.349   4.584
96049W        W68474  18.449   1.728  13.254
96050W        W68475  37.596  13.299   4.562
96051W        W68476  32.391  16.869   2.417
96052W        W68477   0.135  44.314   0.371
96053W        W68478  16.726   8.790   0.835
96054W        W68479  22.199  11.700   0.495
96055W        W68480  28.302  12.466   0.872
96056W        W68481  41.848   8.935  10.804
96057W        W68482   9.686  34.736   2.469
96058W        W68483  30.282  42.023  14.427
96059W        W68484  19.077  26.183  12.230
96060W        W68485  41.948   6.314   3.799
96061W        W68486  16.148  17.198   4.311
96062W        W68487  14.605  31.893   1.714
96063W        W68488  33.659  21.084   2.348
96064W        W68489  40.936  34.103  14.953
96065W        W68490  28.759  23.569   3.843
96066W        W68491   4.314  32.079   2.726
96067W        W68492   7.192  36.941  12.150
96068W        W68493  25.203  16.226   4.592
96069W        W68494  24.184  29.069  12.531
96070W        W68495   3.852  37.105  12.823
96071W        W68496  36.795  32.186  10.221
96072W        W68497   3.589  36.652  11.995
96073W        W68498  22.084  25.651   1.465
96074W        W68499   6.405  41.074  10.684
96075W        W68500  18.696  24.689   4.224
96076W        W68501  16.050   3.890  12.563
96077W        W68502  18.231  40.495   3.711
96078W        W68503   2.471  42.029  12.506
96079W        W68504  28.123  37.974   3.925
96080W        W68505  35.778  12.293   1.866
96081W        W68506  25.942  24.836   3.245
96082W        W68507  17.237  14.308   1.389
96083W        W68508  35.308  19.112  10.541
96084W        W68509   7.585   1.671   2.363
96085W        W68510  37.055  44.608   1.947
96086W        W68511   2.403   0.747  11.527
96087W        W68512   8.181   3.560  10.431
96088W        W68513  10.723  13.532   0.550
96089W        W68514  32.266  25.108   4.535
96090W        W68515  19.679  41.336  13.922
96091W        W68516  40.383   2.478   4.072
96092W        W68517  44.959  30.489  11.145
96093W        W68518  14.992  21.157  14.791
96094W        W68519  17.252  19.140  11.940
96095W        W68520   7.313  42.424   0.455
96096W        W68521  32.706  25.187   2.777
96097W        W68522   9.565  12.235  13.067
96098W        W68523  23.240   2.821   4.162
96099W        W68524  38.069   3.982   2.129
96100W        W68525   2.365  44.924   0.689
96101W        W68526  29.096   4.968  12.051
96102W        W68527  42.341  15.109   0.888
96103W        W68528  16.611   9.324   3.322
96104W        W68529  27.574  30.681   4.642
96105W        W68530  14.639  16.729   4.620
96106W        W68531  22.527  36.347  13.400
96107W        W68532   1.985  23.678   3.059
96108W        W68533  11.656  19.948   1.031
96109W        W68534  19.021  15.420   4.696
96110W        W68535  39.320  16.610  13.848
96111W        W68536  22.521  11.550  10.658
96112W        W68537  38.971  13.911   4.641
96113W        W68538  38.848  22.435   0.404
96114W        W68539  35.304  43.397  13.827
96115W        W68540   0.532  34.076   4.216
96116W        W68541  28.469  28.604  14.846
96117W        W68542   2.067  36.428   3.278
96118W        W68543  34.127  12.288  13.938
96119W        W68544  10.775  25.258  10.549
96120W        W68545  18.312   5.110   0.380
96121W        W68546   4.337   9.705   3.673
96122W        W68547  24.770  22.739   3.326
96123W        W68548  10.362  21.144  12.388
96124W        W68549   4.334  21.204   5.124
96125W        W68550  28.219   6.304  10.291
96126W        W68551  17.491  19.619  14.840
96127W        W68552  15.994   3.287   9.969
96128W        W68553   7.320   2.516  14.233
96129W        W68554   5.839  12.914   0.766
96130W        W68555  15.337   1.854   5.130
96131W        W68556  44.026  31.197   0.688
96132W        W68557  23.726  41.399  10.658
96133W        W68558  24.626  19.032   0.260
96134W        W68559  22.622  36.876  10.741
96135W        W68560  36.925  10.193  10.653
96136W        W68561  32.359  26.056  12.599
96137W        W68562  40.931  41.724   2.264
96138W        W68563  30.457  10.554   0.387
96139W        W68564  36.029  28.144   4.258
96140W        W68565  26.811  40.108   2.936
96141W        W68566   7.722  12.764   0.712
96142W        W68567  28.752  23.879   5.118
96143W        W68568  38.722  37.999   2.381
96144W        W68569   4.011  25.436  13.895
96145W        W68570  23.286  34.959   1.839
96146W        W68571  19.652  32.913   1.313
96147W        W68572  29.212  38.902  10.117
96148W        W68573   4.963  13.674   4.554
96149W        W68574  18.492  19.731   0.782
96150W        W68575  11.215   1.262   0.469
96151W        W68576  40.694  39.336  14.558
96152W        W68577   2.423   4.275   2.817
96153W        W68578  38.562  28.302  12.035
96154W        W68579   5.797  43.732   1.210
96155W        W68580  22.513  22.730  13.924
96156W        W68581   9.654  12.827  10.375
96157W        W68582  24.210   3.011   3.812
96158W        W68583  32.885  41.443  10.466
96159W        W68584  15.966   1.791  11.069
96160W        W68585   5.776   9.402  10.674
96161W        W68586  21.706  34.007   1.405
96162W        W68587  24.681   0.426   3.599
96163W        W68588  24.420  12.850  11.026
96164W        W68589   0.524  36.912   0.865
96165W        W68590  41.223  22.744  11.892
96166W        W68591  21.150   4.692   4.422
96167W        W68592  14.690  35.357   1.642
96168W        W68593  11.194  43.481  12.028
96169W        W68594  26.760  44.323   4.785
96170W        W68595  32.556  31.649  14.314
96171W        W68596   1.496  19.199  13.370
96172W        W68597  19.574  26.979  10.966
96173W        W68598  10.295  15.153  10.667
96174W        W68599  22.209  20.799   1.260
96175W        W68600   8.387   6.473   4.090
96176W        W68601  18.526  42.349   0.521
96177W        W68602  43.627   7.278   0.765
96178W        W68603   7.890   9.885   3.588
96179W        W68604  13.316  14.316   0.372
96180W        W68605  38.980  33.976   2.648
96181W        W68606  20.107  24.137  10.765
96182W        W68607  20.796  44.891  11.064
96183W        W68608  18.282  35.080   1.986
96184W        W68609  27.557  29.700  11.402
96185W        W68610  41.336  34.387  12.459
96186W        W68611  13.213  18.754   4.713
96187W        W68612  36.550   8.426  13.549
96188W        W68613  17.078  40.595   0.242
96189W        W68614   0.970  23.194  12.601
96190W        W68615  30.720  36.378  12.888
96191W        W68616  40.287  32.495   2.851
96192W        W68617  42.406  35.441  12.967
96193W        W68618  34.831  17.243  13.510
96194W        W68619  43.786  19.357  10.652
96195W        W68620  13.221  29.675   0.398
96196W        W68621  10.713  38.776  13.316
96197W        W68622  12.513  13.998  13.923
96198W        W68623  35.654  37.994   0.248
96199W        W68624  31.447  38.115   1.374
96200W        W68625  23.048  26.908  13.863
96201W        W68626  37.006  25.234  12.067
96202W        W68627  14.748   7.374   3.644
96203W        W68628  38.884   7.693  11.064
96204W        W68629  10.743   0.945  13.973
96205W        W68630  36.914  38.901  11.140
96206W        W68631  17.045   3.703   0.420
96207W        W68632   8.222  32.284  12.831
96208W        W68633  11.335  11.676   3.464
96209W        W68634   6.536  26.329  13.535
96210W        W68635  25.314  27.964  11.136
96211W        W68636  21.068  13.918   2.627
96212W        W68637   4.758  21.129  13.525
96213W        W68638  27.487  18.088  11.900
96214W        W68639  26.631  25.244   2.338
96215W        W68640  44.750   2.003  14.003
96216W        W68641  31.492  27.988  10.961
96217W        W68642   0.296   7.547   1.269
96218W        W68643  37.820  18.113   0.398
96219W        W68644  25.200   3.182   0.890
96220W        W68645  12.754   0.416   4.848
96221W        W68646  20.776  32.206  12.254
96222W        W68647  43.392  43.414   2.249
96223W        W68648  29.605   4.369   0.674
96224W        W68649  38.820  44.953   2.247
96225W        W68650  35.000   3.483  12.351
96226W        W68651   9.333   6.447  10.575
96227W        W68652  27.979   4.913  13.977
96228W        W68653  30.436  25.000   1.207
96229W        W68654   0.776  34.747  11.179
96230W        W68655   0.040   6.385  14.252
96231W        W68656   7.485   0.336  12.634
96232W        W68657  21.016   9.705  11.782
96233W        W68658  28.751  44.643  14.900
96234W        W68659   8.282  14.551   1.728
96235W        W68660  34.674  36.867  11.186
96236W        W68661  24.034  24.452  12.071
96237W        W68662  22.006  14.235  11.117
96238W        W68663  38.984   7.384   0.451
96239W        W68664   8.057   2.673   4.002
96240W        W68665  26.183  35.609   1.427
96241W        W68666  40.931  37.368  13.794
96242W        W68667  35.081   2.925  14.424
96243W        W68668  32.422  12.802  11.478
96244W        W68669  19.834  42.502  12.074
96245W        W68670   3.208  33.620   2.898
96246W        W68671  15.268  20.603  11.763
96247W        W68672  41.452  17.667   3.841
96248W        W68673   0.840  26.588   0.318
96249W        W68674  27.758   2.736   3.629
96250W        W68675  24.568  23.440  12.343
96251W        W68676  13.308  37.571   2.127
96252W        W68677  11.759  38.534   0.914
96253W        W68678   1.944  41.805  13.252
96254W        W68679   5.306  42.923   1.194
96255W        W68680  23.688  30.699  14.793
96256W        W68681  28.037   5.352  10.720
96257W        W68682  40.295  42.831   0.915
96258W        W68683   2.938  31.990   0.838
96259W        W68684  30.475  11.754   3.699
96260W        W68685  24.728  16.356   1.897
96261W        W68686  44.707  13.286  12.094
96262W        W68687   3.715  19.710  11.452
96263W        W68688   7.073  23.610   0.714
96264W        W68689   7.189   8.844   3.759
96265W        W68690  35.276   2.414   4.228
96266W        W68691   3.939  31.712   3.924
96267W        W68692   0.193  42.326  13.196
96268W        W68693  16.153  35.919  13.375
96269W        W68694  24.420  14.173  13.139
96270W        W68695  20.565  41.422  11.409
96271W        W68696  15.516  30.657  12.971
96272W        W68697   2.579  37.575  11.128
96273W        W68698  30.034  24.705   9.384
96274W        W68699  17.525  21.294   2.894
96275W        W68700  37.497  32.744  14.053
96276W        W68701  35.014  23.666   4.630
96277W        W68702   0.939  25.805  11.007
96278W        W68703   4.796  31.494  14.234
96279W        W68704  21.067  33.171  13.123
96280W        W68705  32.393  36.861   4.021
96281W        W68706  18.354  19.806  12.411
96282W        W68707  12.818   6.148   0.732
96283W        W68708  18.017   7.187   3.751
96284W        W68709  31.011  41.152  13.871
96285W        W68710   1.306  25.433   3.424
96286W        W68711  11.270  27.464  11.691
96287W        W68712  16.877  29.331  13.878
96288W        W68713  24.911  34.796  14.997
96289W        W68714  32.520  15.452   4.569
96290W        W68715   4.200   5.207  13.472
96291W        W68716  15.581  27.978  11.218
96292W        W68717  19.127   6.932  11.455
96293W        W68718   0.540   7.683   3.589
96294W        W68719  18.814  15.642   2.537
96295W        W68720  43.610  30.442  10.223
96296W        W68721  23.000  21.594   4.142
96297W        W68722  44.007  15.612  13.328
96298W        W68723   2.234  26.425   2.847
96299W        W68724  25.901  15.744  12.511
96300W        W68725  11.614   4.005  14.965
96301W        W68726  30.867  31.869   4.977
96302W        W68727  34.915  12.890  12.858
96303W        W68728  30.090  43.786  14.756
96304W        W68729  24.984  34.039   3.769
96305W        W68730  25.455  17.701  14.459
96306W        W68731   7.459  36.954  13.634
96307W        W68732   0.067  10.775   1.842
96308W        W68733  38.940  38.566  14.521
96309W        W68734  43.403  24.705   2.294
96310W        W68735  44.787  22.645  14.034
96311W        W68736  30.696  20.603   0.644
96312W        W68737  22.439  33.064   1.819
96313W        W68738  20.261  21.640   0.228
96314W        W68739  22.333  34.983   1.349
96315W        W68740  16.659  35.260  13.069
96316W        W68741  33.003  14.003   0.764
96317W        W68742   2.995  42.423  11.372
96318W        W68743   1.728  18.260   1.412
96319W        W68744  42.249  21.737   5.452
96320W        W68745  23.611  27.758   1.215
96321W        W68746  20.310  44.346   2.852
96322W        W68747   5.727  18.081  10.719
96323W        W68748  41.828  12.779   0.956
96324W        W68749   3.931  27.189   0.565
96325W        W68750  32.498   6.686   2.326
96326W        W68751   2.109   4.842  11.552
96327W        W68752  32.875  37.304   0.311
96328W        W68753  43.994  10.657  12.895
96329W        W68754  27.868  20.019  11.970
96330W        W68755  30.685   8.274   2.654
96331W        W68756  25.046   2.863   3.082
96332W        W68757  36.224  36.864  11.158
96333W        W68758  17.546   3.068  10.581
96334W        W68759  33.312  19.520  10.176
96335W        W68760   6.663   2.866   0.810
96336W        W68761  33.500  19.847   2.610
96337W        W68762  35.359   7.170   3.666
96338W        W68763  36.594   7.026  11.721
96339W        W68764   8.383   6.416   1.902
96340W        W68765   2.655  14.243   3.718
96341W        W68766  34.518  13.534   4.562
96342W        W68767   3.219   9.103  13.655
96343W        W68768  26.571  14.261  14.414
96344W        W68769  30.350   3.748   3.910
96345W        W68770   6.134  16.854   3.699
96346W        W68771  20.704  23.442   0.691
96347W        W68772  19.001   6.106   5.133
96348W        W68773  42.846  27.405   3.731
96349W        W68774  11.630  41.444  11.147
96350W        W68775  34.559  13.579   3.071
96351W        W68776  40.495   7.782   1.834
96352W        W68777  40.016  10.183  11.001
96353W        W68778  30.919  37.879  10.745
96354W        W68779  41.815   8.203   1.892
96355W        W68780  14.325  28.391  12.404
96356W        W68781  30.119  22.111  11.496
96357W        W68782  26.766  22.213  10.614
96358W        W68783   8.188  36.772  12.770
96359W        W68784  44.467   7.713   1.276
96360W        W68785  28.137  33.438   0.248
96361W        W68786  26.006  14.600  13.594
96362W        W68787   2.975   2.927  10.581
96363W        W68788  18.230  28.969   3.243
96364W        W68789  16.830  40.602   2.489
96365W        W68790   9.378  13.174  14.432
96366W        W68791   3.833   4.993   1.770
96367W        W68792  23.581  33.107   4.262
96368W        W68793  32.082  16.982  12.121
96369W        W68794  37.373  44.335   2.380
96370W        W68795  42.474  28.667   2.242
96371W        W68796  26.491  11.767  11.392
96372W        W68797  18.928  36.420  14.362
96373W        W68798   0.333  33.468   2.367
96374W        W68799  31.842  10.412   1.337
96375W        W68800  25.217  25.571  14.301
96376W        W68801  10.386  11.239   0.936
96377W        W68802   8.682  11.116  13.047
96378W        W68803   5.786  11.897  12.058
96379W        W68804  11.919  16.629   0.907
96380W        W68805  19.189  41.380  14.734
96381W        W68806  42.371   9.726  13.515
96382W        W68807  29.000  20.709   2.382
96383W        W68808   0.554  34.917  14.116
96384W        W68809   3.020  17.031  11.621
96385W        W68810  22.628  12.696  12.573
96386W        W68811  44.087  17.042  12.955
96387W        W68812  37.395  18.516  11.803
96388W        W68813   4.961   0.703   0.864
96389W        W68814  20.564  27.005   4.706
96390W        W68815  25.185  37.070  11.977
96391W        W68816  40.022   6.429   0.663
96392W        W68817  25.086  30.933  11.502
96393W        W68818  23.567  16.281   1.297
96394W        W68819  35.858   6.920  13.065
96395W        W68820  30.718   0.156  13.906
96396W        W68821   8.438   1.488  12.651
96397W        W68822  30.554   5.078   2.700
96398W        W68823  43.453  39.930   3.399
96399W        W68824  31.502  23.988   1.110
96400W        W68825  44.923   9.658   4.593
96401W        W68826  42.972  27.654   4.543
96402W        W68827   2.891   0.377  13.898
96403W        W68828  10.404   9.343  14.273
96404W        W68829  41.637   1.790  12.054
96405W        W68830  25.450   2.404   4.690
96406W        W68831  19.365  15.130   1.955
96407W        W68832   8.658  22.952   3.705
96408W        W68833  25.246  18.472  13.489
96409W        W68834  29.224  37.108  12.592
96410W        W68835  20.386  34.496  12.961
96411W        W68836  12.252  28.732  13.404
96412W        W68837   6.844  25.181  11.556
96413W        W68838  23.296   8.910  11.041
96414W        W68839   2.473  29.707  11.051
96415W        W68840  18.724  44.987   1.174
96416W        W68841   0.391  26.034   1.984
96417W        W68842   9.784  18.616  12.547
96418W        W68843  26.314  36.363   3.242
96419W        W68844   4.100  43.812  12.107
96420W        W68845  39.013  21.109  11.987
96421W        W68846  28.089  41.086  13.487
96422W        W68847  21.778  28.993   0.344
96423W        W68848  19.809  37.955  10.651
96424W        W68849  12.127  16.705  10.708
96425W        W68850   3.364  27.933  12.883
96426W        W68851  26.579   8.327  13.577
96427W        W68852  15.090  30.116  13.804
96428W        W68853  10.587  31.585  11.981
96429W        W68854  30.325  12.789  12.475
96430W        W68855  42.369   8.215  10.398
96431W        W68856  32.436  11.776  14.056
96432W        W68857  18.615  10.645  14.914
96433W        W68858  38.335  14.554  14.566
96434W        W68859  31.435   2.398   2.968
96435W        W68860  12.685  40.306   0.780
96436W        W68861  40.439  32.530   3.356
96437W        W68862  17.814  30.669  13.023
96438W        W68863   5.701  44.780  13.568
96439W        W68864  31.109  26.488   2.723
96440W        W68865  23.084  32.080   3.737
96441W        W68866  37.416   8.304  10.674
96442W        W68867  39.948  29.481  11.637
96443W        W68868  12.727  32.870   3.566
96444W        W68869  38.778  40.781  13.017
96445W        W68870   8.330  11.558   0.251
96446W        W68871  31.345  41.099   0.236
96447W        W68872  31.119  14.228   3.807
96448W        W68873   4.468  15.152  10.566
96449W        W68874  13.442  41.898  12.534
96450W        W68875  13.279  25.137  13.522
96451W        W68876   8.329   2.398  14.463
96452W        W68877  31.691  42.038  14.159
96453W        W68878  13.690   7.355   1.814
96454W        W68879  26.009  39.975  13.259
96455W        W68880  18.160  39.827   4.478
96456W        W68881  21.138  44.793  10.627
96457W        W68882  10.258  14.208   2.374
96458W        W68883  24.446   1.654   4.156
96459W        W68884  19.867  36.953   0.097
96460W        W68885  26.595  25.193   3.674
96461W        W68886   9.427  11.648   4.528
96462W        W68887   4.498  38.023  10.774
96463W        W68888  18.819  43.961   1.487
96464W        W68889  40.316  21.261   5.000
96465W        W68890  42.447  12.154  12.879
96466W        W68891  40.031  39.083   1.794
96467W        W68892  20.655  22.163   1.410
96468W        W68893  39.126   3.797   1.867
96469W        W68894  16.818  12.153   0.010
96470W        W68895  44.447  11.387   2.069
96471W        W68896  28.623  42.599   2.775
96472W        W68897  11.259   0.794   4.365
96473W        W68898  42.676  15.817   5.120
96474W        W68899  42.851  17.875   4.414
96475W        W68900   7.763  37.276   4.981
96476W        W68901  15.417  28.399  10.637
96477W        W68902   2.005  39.933   1.892
96478W        W68903  25.135  10.358   2.763
96479W        W68904  23.047  17.159  13.307
96480W        W68905   3.657   9.674   4.287
96481W        W68906   8.764   5.436  13.077
96482W        W68907  39.319  13.482   0.723
96483W        W68908  38.446   6.432   1.182
96484W        W68909   5.398  17.602  12.533
96485W        W68910  32.184  20.103  12.365
96486W        W68911  15.775  34.988   0.738
96487W        W68912  10.865  34.608   2.679
96488W        W68913   6.159  22.084  12.017
96489W        W68914  41.331  36.246  12.919
96490W        W68915   8.897  19.714  14.720
96491W        W68916  40.031  44.066  13.518
96492W        W68917  42.338  34.399   3.081
96493W        W68918  13.563  21.718   1.311
96494W        W68919  25.955  31.912  11.045
96495W        W68920  17.205  35.062  13.025
96496W        W68921  25.935   4.930  14.524
96497W        W68922   2.428  11.298   2.340
96498W        W68923  10.112  44.055   3.220
96499W        W68924  32.837  43.896  14.966
96500W        W68925  17.046  33.367  10.747
96501W        W68926  19.690   1.075  13.037
96502W        W68927  12.376  25.046   0.186
96503W        W68928  12.566  34.964   2.354
96504W        W68929   9.232   0.230  12.050
96505W        W68930  33.909  24.420  12.986
96506W        W68931  42.994   7.345   2.762
96507W        W68932  25.933  27.506  12.534
96508W        W68933   4.472  42.454  14.795
96509W        W68934  34.829  14.743   1.333
96510W        W68935  34.680  20.041  13.913
96511W        W68936  24.657  38.301  12.034
96512W        W68937  36.047  39.986   4.751
96513W        W68938  15.195   0.391  13.962
96514W        W68939  32.109  24.516  11.688
96515W        W68940  29.521  43.888   3.603
96516W        W68941  25.550  24.041   4.271
96517W        W68942  11.803  33.314  13.490
96518W        W68943  30.567  39.419  14.210
96519W        W68944   3.240  27.049  14.882
96520W        W68945  39.408  24.546   4.623
96521W        W68946   4.827  16.753  12.358
96522W        W68947   8.847  36.170  12.569
96523W        W68948  12.916   6.789  13.293
96524W        W68949   8.425  12.641   4.756
96525W        W68950  25.872   1.805   3.679
96526W        W68951   7.948  10.627   4.014
96527W        W68952  20.792  40.295   4.197
96528W        W68953  12.602   4.910   0.371
96529W        W68954  26.423  35.819  11.588
96530W        W68955  44.380  41.803  14.397
96531W        W68956  37.570  43.079  13.566
96532W        W68957  13.664  22.156  10.400
96533W        W68958  13.347   2.774   2.617
96534W        W68959  28.388  30.342   0.927
96535W        W68960  34.165  17.087   2.791
96536W        W68961  12.889  21.543  13.068
96537W        W68962  28.958  23.313   3.423
96538W        W68963  13.265   8.164   4.136
96539W        W68964  31.358  15.568   4.227
96540W        W68965  30.288  22.545  13.870
96541W        W68966   2.135  35.030   0.852
96542W        W68967  35.556  22.586   4.791
96543W        W68968  42.926  41.150   4.205
96544W        W68969  25.261   0.422   2.721
96545W        W68970  15.172  36.301  10.878
96546W        W68971  22.568  15.772   2.148
96547W        W68972  33.486  13.605   2.692
96548W        W68973   9.344   7.831   0.226
96549W        W68974   1.921  40.982  13.883
96550W        W68975  28.596  18.277   0.867
96551W        W68976  42.798  29.578   3.199
96552W        W68977  17.836  11.946   3.186
96553W        W68978  25.997  22.034   0.497
96554W        W68979  32.918  20.049   0.007
96555W        W68980  32.108  41.391   4.151
96556W        W68981  28.959  40.988  13.361
96557W        W68982   6.886  33.532  13.877
96558W        W68983  33.939  16.057  10.698
96559W        W68984  44.771   1.881   4.104
96560W        W68985  15.679   1.302  12.646
96561W        W68986   4.380   9.287  12.788
96562W        W68987  19.147   0.384  12.518
96563W        W68988  34.162   1.956  13.251
96564W        W68989  33.086  42.748   4.538
96565W        W68990  43.074  29.530  14.505
96566W        W68991   3.518   4.762   1.166
96567W        W68992  25.586  10.767  14.571
96568W        W68993  14.117   3.622  12.042
96569W        W68994  13.806  27.524  12.182
96570W        W68995  16.815  21.766  11.958
96571W        W68996  24.411   9.025   0.959
96572W        W68997   3.118  42.414   2.356
96573W        W68998  30.890  24.096  11.738
96574W        W68999  35.002  40.818  12.643
96575W        W69000   6.770  38.825  14.422
96576W        W69001  24.419  26.519   3.665
96577W        W69002  11.801   5.216  11.686
96578W        W69003  10.662   1.380   0.533
96579W        W69004  19.655  11.226   4.634
96580W        W69005  25.713  15.197  13.303
96581W        W69006  26.092  22.318   0.929
96582W        W69007  36.368  40.854  12.457
96583W        W69008   9.844  20.528  13.693
96584W        W69009  37.829  12.089  14.349
96585W        W69010  15.240  37.911  11.572
96586W        W69011  18.098  33.953  12.984
96587W        W69012  21.815  11.862   9.676
96588W        W69013  28.082  24.514   2.361
96589W        W69014   7.855  19.354   4.924
96590W        W69015  11.362  39.082  12.024
96591W        W69016   1.934  29.974  14.820
96592W        W69017  33.127  41.076  12.884
96593W        W69018   5.940   8.913   3.365
96594W        W69019   4.776  32.792   4.254
96595W        W69020  35.302   7.392  14.809
96596W        W69021   7.737  39.807   1.658
96597W        W69022   9.681   1.828   3.246
96598W        W69023  10.177  17.017  11.825
96599W        W69024  26.735  28.211   2.392
96600W        W69025  44.058  42.965  12.040
96601W        W69026  18.351   5.357   2.962
96602W        W69027  41.736  20.707  10.221
96603W        W69028  43.293  19.104   3.701
96604W        W69029  20.372   4.270  10.668
96605W        W69030  21.727  36.564  11.992
96606W        W69031  13.357  11.092   2.272
96607W        W69032  12.186  41.953  10.664
96608W        W69033  38.090   1.652  14.285
96609W        W69034  26.693  31.076  14.487
96610W        W69035  39.673  10.528   4.493
96611W        W69036   5.750  41.276   4.860
96612W        W69037  33.431  21.225   2.794
96613W        W69038  16.291   6.161   4.652
96614W        W69039   7.967  18.151  11.136
96615W        W69040   4.482  18.680  14.447
96616W        W69041  19.519   1.145   3.666
96617W        W69042  40.251  41.835   3.967
96618W        W69043  21.327   2.018   2.616
96619W        W69044  27.473   7.905  12.334
96620W        W69045   9.761  32.522   3.614
96621W        W69046   4.230  13.044  10.981
96622W        W69047  11.048  31.569   0.886
96623W        W69048  32.943   8.725   0.041
96624W        W69049  36.705   5.511  11.425
96625W        W69050  11.946   5.826   4.110
96626W        W69051  17.593   3.888  10.644
96627W        W69052  34.004  20.382   1.400
96628W        W69053   4.723  10.276  11.220
96629W        W69054  20.618  18.827   0.815
96630W        W69055  35.903  42.668   0.293
96631W        W69056  15.830  41.730  10.733
96632W        W69057  40.855  14.082   2.926
96633W        W69058  32.028   7.484  14.189
96634W        W69059  11.628  25.252  13.443
96635W        W69060  32.018   8.624  10.988
96636W        W69061  28.461  10.230  10.208
96637W        W69062   5.965  11.834  12.962
96638W        W69063  30.584  34.769  13.927
96639W        W69064  26.433  17.200  14.971
96640W        W69065  39.821  29.036   1.365
96641W        W69066  42.364  29.108   0.847
96642W        W69067  43.751  10.227   1.921
96643W        W69068  22.781  19.115   3.156
96644W        W69069  12.884  16.250   2.650
96645W        W69070  11.675  22.440   1.689
96646W        W69071  38.841  26.833   0.074
96647W        W69072  44.932   1.728   0.308
96648W        W69073  10.082  41.731   0.064
96649W        W69074  44.923  19.509  14.008
96650W        W69075  10.283  40.317   0.800
96651W        W69076  28.555  16.958  13.894
96652W        W69077  16.695   0.947  12.181
96653W        W69078  37.411   5.644  12.510
96654W        W69079  43.523  37.011  10.643
96655W        W69080   2.167   9.803  11.088
96656W        W69081  12.051  36.412  14.852
96657W        W69082  34.571  33.368   1.534
96658W        W69083   7.380  44.874  14.377
96659W        W69084  21.213  22.720  10.981
96660W        W69085   3.352  33.895  11.118
96661W        W69086  39.064  25.582  13.164
96662W        W69087   0.482  11.640   0.677
96663W        W69088  11.928  24.078  14.043
96664W        W69089  41.172  11.390   3.189
96665W        W69090  33.363  35.103   0.798
96666W        W69091  12.479   4.346   2.724
96667W        W69092   7.867  40.747   2.699
96668W        W69093  40.431  25.429  14.279
96669W        W69094   6.566  30.864  11.435
96670W        W69095  24.088  44.803  14.605
96671W        W69096  19.543   6.963   0.288
96672W        W69097   2.371   7.362  13.078
96673W        W69098  38.489  29.406   1.775
96674W        W69099  44.341   0.264  13.244
96675W        W69100   8.087  36.551   0.304
96676W        W69101  41.920   8.773   4.471
96677W        W69102  34.863  12.330  10.686
96678W        W69103   6.148  33.069  14.194
96679W        W69104  38.948  44.448  11.439
96680W        W69105  31.500   7.630  12.382
96681W        W69106   3.684  23.189   0.841
96682W        W69107  38.444  30.970   0.905
96683W        W69108   3.891  19.967   4.545
96684W        W69109  18.553   3.076   9.988
96685W        W69110  22.025  44.036   3.215
96686W        W69111  39.479  16.137  12.964
96687W        W69112  36.373   9.287  12.558
96688W        W69113  10.377  10.067  12.396
96689W        W69114   7.751  38.121  12.531
96690W        W69115  26.461  11.822   4.569
96691W        W69116   0.813  38.636  12.986
96692W        W69117  18.062   7.236  14.652
96693W        W69118   5.387   9.626   3.187
96694W        W69119   9.129  15.812   4.737
96695W        W69120  26.303  11.210  11.839
96696W        W69121  10.705  41.603   3.581
96697W        W69122   1.044   2.779  12.570
96698W        W69123  24.720  15.176  14.408
96699W        W69124  42.809  23.281   3.593
96700W        W69125  12.083  31.225  12.613
96701W        W69126  25.064   4.182   1.652
96702W        W69127  26.411  44.268  11.091
96703W        W69128  10.726  43.304  11.874
96704W        W69129  37.689  25.453   3.719
96705W        W69130  24.217  28.639  14.295
96706W        W69131   6.411  27.030   4.191
96707W        W69132  42.920  38.822   3.321
96708W        W69133  12.877   7.195  14.453
96709W        W69134  39.799  42.431  13.895
96710W        W69135  13.139  43.240   0.462
96711W        W69136   4.746  32.048   1.379
96712W        W69137   7.770   2.266  14.376
96713W        W69138  43.023  22.721   0.755
96714W        W69139  24.030  31.737   1.851
96715W        W69140  18.687  33.612   4.147
96716W        W69141  38.436   7.902  11.204
96717W        W69142   7.426  20.377   1.293
96718W        W69143  27.605   8.660   5.058
96719W        W69144  10.055   5.947   4.118
96720W        W69145  25.347  29.710   1.349
96721W        W69146   7.704  35.602  11.992
96722W        W69147  32.579   7.250  11.983
96723W        W69148  12.728  32.231   0.752
96724W        W69149  37.088  10.768  13.536
96725W        W69150  22.551  18.963   1.224
96726W        W69151  27.926  20.082  11.010
96727W        W69152  30.052  22.381   0.432
96728W        W69153  31.885   7.281  12.479
96729W        W69154  19.048  19.554  14.974
96730W        W69155  43.222  25.033  11.985
96731W        W69156  30.391   7.464  14.589
96732W        W69157  12.473  40.051   1.598
96733W        W69158   8.159  36.579  13.745
96734W        W69159  12.167   4.333   3.146
96735W        W69160   6.147   3.765   1.362
96736W        W69161  28.977  11.685  14.738
96737W        W69162  11.688  12.305  14.874
96738W        W69163  21.759   4.429   1.710
96739W        W69164  25.675  33.100  14.934
96740W        W69165  15.547  25.084  10.389
96741W        W69166   4.150  24.732   0.330
96742W        W69167   3.225  25.644   3.362
96743W        W69168  29.112  36.879  14.063
96744W        W69169  25.997   9.321   0.366
96745W        W69170   3.779   7.027   3.624
96746W        W69171  43.593  16.412  13.435
96747W        W69172  35.324  14.503   1.338
96748W        W69173  28.100  32.931  13.262
96749W        W69174  21.519  41.508   2.737
96750W        W69175   2.466  18.079   3.848
96751W        W69176  33.127  37.482   3.752
96752W        W69177  40.805  41.077   4.665
96753W        W69178  29.190   5.719   2.770
96754W        W69179  10.802  23.620   2.791
96755W        W69180  40.443  34.646   4.026
96756W        W69181  27.056  35.111  10.113
96757W        W69182  24.699  29.122   2.395
96758W        W69183  15.284   5.132   3.896
96759W        W69184  44.360  22.620  10.220
96760W        W69185  26.970  37.498  13.462
96761W        W69186  37.580  29.898  10.908
96762W        W69187  32.878  38.477   0.755
96763W        W69188  31.766  20.940  14.857
96764W        W69189  41.405  22.664  12.816
96765W        W69190  33.184  33.319   4.250
96766W        W69191  34.890  36.119   1.651
96767W        W69192  11.309  37.757  11.620
96768W        W69193  24.481  27.153   3.709
96769W        W69194  31.891  37.527   0.462
96770W        W69195  14.864  29.678  14.515
96771W        W69196  13.198  22.215  11.530
96772W        W69197  24.012  26.706   4.546
96773W        W69198  19.860  31.885  13.255
96774W        W69199  21.789   2.837   3.573
96775W        W69200   1.264   1.268   0.393
96776W        W69201   8.340  43.878   2.686
96777W        W69202  41.450  36.640  11.146
96778W        W69203  41.990  17.461   4.140
96779W        W69204   9.947   7.813  12.053
96780W        W69205   4.708  23.668  12.900
96781W        W69206   0.871  28.691   4.400
96782W        W69207  43.558  40.725   2.412
96783W        W69208   4.695  12.363  11.509
96784W        W69209  21.345  12.772   0.028
96785W        W69210  25.637  10.296  14.358
96786W        W69211  14.629  44.396  13.554
96787W        W69212  24.717  30.783  14.567
96788W        W69213   0.324   9.657  10.919
96789W        W69214  35.108  34.308  10.781
96790W        W69215  39.062  16.761   1.079
96791W        W69216  15.586  27.083  14.253
96792W        W69217  12.181  38.876   1.045
96793W        W69218  33.636  36.828  10.989
96794W        W69219  28.814  26.660  13.259
96795W        W69220  37.967  33.543  11.284
96796W        W69221  21.098  37.451   3.781
96797W        W69222  23.597  10.796  10.541
96798W        W69223  42.475   5.229  13.681
96799W        W69224  12.056  29.986   2.245
96800W        W69225  25.888  15.330  12.817
96801W        W69226  42.524  35.576  14.723
96802W        W69227  16.233  23.176   1.287
96803W        W69228  11.083  35.572   0.414
96804W        W69229   7.427  30.211  11.098
96805W        W69230   9.784   8.279   4.293
96806W        W69231  43.023  16.159   2.756
96807W        W69232  32.340  33.876   1.491
96808W        W69233  32.443   0.849   1.125
96809W        W69234  36.113  34.642  11.525
96810W        W69235   2.213  30.521   1.826
96811W        W69236  42.841  30.412   2.295
96812W        W69237  30.655  34.924   0.500
96813W        W69238  41.854   5.184   3.726
96814W        W69239  34.556  33.073  10.819
96815W        W69240   9.243  44.938  11.207
96816W        W69241  18.070  14.690  14.225
96817W        W69242  18.610  31.175  12.841
96818W        W69243   5.716  32.052   0.507
96819W        W69244  18.049  32.575  10.675
96820W        W69245  17.205  10.773   1.470
96821W        W69246  26.649  12.674  14.265
96822W        W69247  27.125  29.504  12.136
96823W        W69248   4.204  10.224   4.991
96824W        W69249  29.985  11.915   4.828
96825W        W69250   1.854  13.928  10.617
96826W        W69251  42.376  32.252   2.704
96827W        W69252   3.936  33.692   4.117
96828W        W69253  24.115   1.858  11.468
96829W        W69254  29.151   4.983  13.105
96830W        W69255  26.435  20.655  12.021
96831W        W69256  38.072   7.450   4.567
96832W        W69257  18.553   2.200  12.015
96833W        W69258   2.450  28.608  10.499
96834W        W69259  34.085  31.860   3.772
96835W        W69260  21.518  43.664   0.030
96836W        W69261  22.919  21.847  13.072
96837W        W69262  10.796  22.281   4.529
96838W        W69263   5.282  42.577  12.856
96839W        W69264  32.078  10.225   2.968
96840W        W69265  32.373  42.800   1.288
96841W        W69266  14.336  36.037   2.818
96842W        W69267  12.460  30.519  14.374
96843W        W69268  38.308  19.585   1.258
96844W        W69269  22.262  16.366  10.487
96845W        W69270  24.893  26.696   3.731
96846W        W69271  27.059   0.418   2.222
96847W        W69272  43.544  38.055   0.740
96848W        W69273  40.579  34.460   1.343
96849W        W69274  43.494  20.493   9.991
96850W        W69275   1.454   3.200  10.931
96851W        W69276  27.185  25.980  14.711
96852W        W69277  13.674  32.434  14.156
96853W        W69278  10.272  27.219   0.414
96854W        W69279  35.949  39.262  13.441
96855W        W69280  31.573  21.453  14.879
96856W        W69281   8.642  44.335  10.697
96857W        W69282   3.282  22.911   3.583
96858W        W69283  19.245  26.648  11.984
96859W        W69284   6.291  32.047  11.668
96860W        W69285  40.969   7.610   1.416
96861W        W69286   2.999   6.750   2.027
96862W        W69287  30.636  12.728   3.724
96863W        W69288   6.222  38.406   0.928
96864W        W69289  21.202  33.503  10.796
96865W        W69290   7.335  17.405  10.538
96866W        W69291   7.774   7.837  11.248
96867W        W69292  39.735   7.187   2.699
96868W        W69293   2.138  13.684   0.757
96869W        W69294  29.568   3.862   1.479
96870W        W69295  22.575  22.959  14.919
96871W        W69296   9.910  21.747   4.073
96872W        W69297  42.819  38.093  10.810
96873W        W69298  32.459  40.349   3.227
96874W        W69299  44.354   9.021  10.742
96875W        W69300  21.114  39.379   1.964
96876W        W69301  17.576  32.898   5.308
96877W        W69302  27.657   0.025   0.416
96878W        W69303  40.281  12.367   1.321
96879W        W69304  39.287  35.025  13.307
96880W        W69305  43.888  40.249  10.656
96881W        W69306  11.151  34.332  13.098
96882W        W69307  42.848  23.928   2.255
96883W        W69308  24.720  31.648  12.874
96884W        W69309  35.870   2.439  14.420
96885W        W69310   7.454  27.193   1.889
96886W        W69311  38.268  39.528  13.371
96887W        W69312  36.007  26.003   3.633
96888W        W69313  13.097   7.407   2.357
96889W        W69314  11.740  33.314  13.997
96890W        W69315   0.822  44.868   1.454
96891W        W69316  37.292  21.630  12.046
96892W        W69317  13.705  23.858   0.312
96893W        W69318  16.679   4.305   3.792
96894W        W69319  42.194  32.779  14.293
96895W        W69320   5.715  10.052  13.357
96896W        W69321  37.517  27.171   3.826
96897W        W69322  43.482  13.652  11.768
96898W        W69323  24.309  25.864  14.286
96899W        W69324  19.809  37.849  14.766
96900W        W69325  33.577  44.770   1.780
96901W        W69326  42.806  40.981  13.921
96902W        W69327  44.359  16.042   1.394
96903W        W69328  32.780   5.827  13.601
96904W        W69329  39.387  16.346   3.269
96905W        W69330  22.206  37.616   3.559
96906W        W69331   2.189  11.833   3.231
96907W        W69332  26.054  11.668  11.125
96908W        W69333  29.913  26.761   3.210
96909W        W69334   1.944  44.736   2.140
96910W        W69335   1.913  25.162   1.719
96911W        W69336  15.377  14.840   4.386
96912W        W69337  33.079  37.579  13.006
96913W        W69338  22.577  41.488   1.435
96914W        W69339  35.572  17.306  12.013
96915W        W69340  24.516  28.408  13.292
96916W        W69341   7.940  35.514  14.043
96917W        W69342  17.519  30.218   2.282
96918W        W69343  13.707  25.594   4.836
96919W        W69344  19.287  38.860   3.713
96920W        W69345  34.141  33.642   1.777
96921W        W69346   0.342  19.197   2.865
96922W        W69347   2.634   2.241  12.244
96923W        W69348  15.822  18.337   9.884
96924W        W69349  40.364  13.686  10.617
96925W        W69350  25.882   1.782  13.389
96926W        W69351  21.812  34.250   0.906
96927W        W69352   3.130  33.586  12.378
96928W        W69353  40.635  34.794  11.895
96929W        W69354  24.630   6.368   1.156
96930W        W69355  28.719   5.844  13.969
96931W        W69356  32.211  38.550   1.295
96932W        W69357   2.225   9.815   3.396
96933W        W69358  39.407  23.986  11.488
96934W        W69359  40.394  20.062  14.378
96935W        W69360  20.692  11.754   2.645
96936W        W69361  34.969  12.731   0.917
96937W        W69362   5.909  39.756   2.930
96938W        W69363  41.509   0.378  11.607
96939W        W69364   5.822  38.584  14.037
96940W        W69365  33.261  24.265   4.983
96941W        W69366  16.836  23.870  13.479
96942W        W69367   1.980  38.153   4.147
96943W        W69368   3.204   7.701  11.891
96944W        W69369  23.210  42.834   5.037
96945W        W69370  25.339  32.889   9.714
96946W        W69371   0.107  23.144  12.399
96947W        W69372  17.857  34.328   1.983
96948W        W69373  43.034   6.679  13.957
96949W        W69374   2.441  17.944  14.674
96950W        W69375   0.206  44.529  14.392
96951W        W69376  18.236  31.499   3.264
96952W        W69377  26.047   6.748  12.474
96953W        W69378  20.135   8.666  11.486
96954W        W69379  33.874  40.347   3.553
96955W        W69380  16.667  24.248   3.091
96956W        W69381  15.976  10.063   0.901
96957W        W69382  12.391  42.359  14.569
96958W        W69383  22.079  22.577   1.861
96959W        W69384   1.003   5.447  11.194
96960W        W69385  10.875   5.160   3.294
96961W        W69386   4.634  26.528  14.190
96962W        W69387  12.935  36.786   2.621
96963W        W69388   8.963  30.872   3.249
96964W        W69389  41.110  19.034   3.085
96965W        W69390  34.905  24.139  12.890
96966W        W69391  23.332  11.570  10.984
96967W        W69392  19.660  15.644  14.365
96968W        W69393  44.903  20.067   0.481
96969W        W69394   3.896  12.793  13.093
96970W        W69395   7.761  38.206   2.107
96971W        W69396  28.970   2.612  12.307
96972W        W69397   0.736  37.667   1.505
96973W        W69398  17.513  37.780  12.655
96974W        W69399  28.127  31.145  10.559
96975W        W69400  30.432  27.219   1.859
96976W        W69401  14.824   3.182   4.165
96977W        W69402  13.296  21.418   3.335
96978W        W69403   1.491  21.562   2.659
96979W        W69404  10.918  37.092  10.669
96980W        W69405  18.193  42.434  10.665
96981W        W69406   5.118  18.220   1.731
96982W        W69407   0.504   2.642   3.233
96983W        W69408  42.940  12.785  14.540
96984W        W69409   0.224   0.482   2.248
96985W        W69410  11.143  44.485   0.310
96986W        W69411  42.955  23.791   3.627
96987W        W69412   6.478   1.700  11.602
96988W        W69413  38.896   9.419   1.910
96989W        W69414  42.440  36.032   2.640
96990W        W69415  29.674  30.301   3.624
96991W        W69416  34.785  40.818  11.224
96992W        W69417  23.615  44.103  10.370
96993W        W69418  10.724   0.296  14.694
96994W        W69419  24.562  19.128   2.692
96995W        W69420  39.050  31.453  14.782
96996W        W69421  37.615  36.852   4.227
96997W        W69422   3.324  24.457  11.594
96998W        W69423  21.817  38.662   3.652
96999W        W69424  25.965  35.123   3.785
97000W        W69425  20.826   1.276  11.882
97001W        W69426  21.206  27.055   1.402
97002W        W69427  33.813   0.815   3.338
97003W        W69428  25.076  32.754   5.465
97004W        W69429  15.818  29.164   4.545
97005W        W69430  17.708  28.907  10.909
97006W        W69431   6.826  15.940  12.935
97007W        W69432   7.539   3.200   5.095
97008W        W69433  15.260   9.293   2.627
97009W        W69434  21.486  42.503  13.749
97010W        W69435  26.616   0.990  13.305
97011W        W69436  38.840  10.220   0.842
97012W        W69437  23.900   8.321  10.867
97013W        W69438  18.664  18.805   4.498
97014W        W69439  43.363  42.791  12.490
97015W        W69440  37.244  32.202   4.466
97016W        W69441  14.651  19.973  10.764
97017W        W69442   0.352  28.400   0.217
97018W        W69443   1.280   4.811   3.383
97019W        W69444  27.458  25.452  11.635
97020W        W69445  44.956  36.715   4.073
97021W        W69446   3.430  22.748   0.027
97022W        W69447  17.286   2.816  12.476
97023W        W69448  25.538  16.762  10.635
97024W        W69449  43.147  21.274   4.136
97025W        W69450  14.714   9.797  14.381
97026W        W69451  27.636  36.251   0.450
97027W        W69452  19.533  13.133  12.483
97028W        W69453   3.909  35.458   4.088
97029W        W69454  24.575  39.169  13.859
97030W        W69455  24.101  34.906   0.626
97031W        W69456   3.186  40.200  11.936
97032W        W69457  33.261  24.305   9.704
97033W        W69458  31.848  11.171   1.273
97034W        W69459  44.401  23.706  11.671
97035W        W69460  29.418  20.621   4.648
97036W        W69461   5.801  24.769   4.634
97037W        W69462  42.773  15.399  14.990
97038W        W69463  23.219  19.697   4.523
97039W        W69464  44.828  11.422  13.474
97040W        W69465  16.864  35.859  10.238
97041W        W69466  24.932   4.828  14.342
97042W        W69467   3.696  30.911  13.926
97043W        W69468  38.675  21.508   0.438
97044W        W69469  20.313  29.141   2.332
97045W        W69470   8.599   3.031   1.884
97046W        W69471  44.253   1.221  13.008
97047W        W69472  11.362   6.250  12.417
97048W        W69473   7.528   2.861   3.218
97049W        W69474  15.594  14.440   5.106
97050W        W69475   9.034  31.971   2.953
97051W        W69476  16.528  16.308  13.989
97052W        W69477   3.273  25.141  12.111
97053W        W69478  33.079  40.286   0.251
97054W        W69479  17.647  26.110   3.310
97055W        W69480  28.202  22.767  12.464
97056W        W69481  37.918  17.852  13.526
97057W        W69482  31.002  43.794   2.372
97058W        W69483  18.850  22.276   2.024
97059W        W69484  16.742  20.277  13.508
97060W        W69485  11.723  43.926  12.481
97061W        W69486  30.078  43.324   0.467
97062W        W69487  29.978  32.854   1.671
97063W        W69488  41.322  27.585  13.226
97064W        W69489   1.285  32.490  14.728
97065W        W69490   2.943  32.593  13.899
97066W        W69491  42.518   7.721  10.647
97067W        W69492  14.224   9.146   1.862
97068W        W69493  33.139  37.121   0.991
97069W        W69494  18.170  30.028  10.682
97070W        W69495   6.964  13.223   3.285
97071W        W69496  13.730   6.219   0.487
97072W        W69497   8.944  28.747   0.566
97073W        W69498  17.852  11.118   0.465
97074W        W69499  36.468  16.730   1.741
97075W        W69500  35.952  12.270  13.771
97076W        W69501   7.012  44.779  10.608
97077W        W69502  43.758  38.158   3.391
97078W        W69503  22.153  40.550  11.369
97079W        W69504  21.593  38.100  13.856
97080W        W69505   1.743  27.498  14.687
97081W        W69506  27.709  34.842  14.309
97082W        W69507   8.909  41.028  13.752
97083W        W69508   2.194   0.709   1.337
97084W        W69509  14.832  42.808   3.513
97085W        W69510   9.628   4.321   3.711
97086W        W69511   5.813  17.874   0.453
97087W        W69512  36.527  39.811  13.921
97088W        W69513  43.903  27.970   2.202
97089W        W69514  36.807  37.852  12.752
97090W        W69515  29.466   3.002   4.831
97091W        W69516   3.789  36.921   4.921
97092W        W69517  30.696  22.631   1.182
97093W        W69518   6.325   7.229   1.773
97094W        W69519   3.482   2.440  12.416
97095W        W69520  35.459  13.086   2.433
97096W        W69521  30.611  39.509  10.290
97097W        W69522  31.436  37.843  10.657
97098W        W69523  32.583  12.195  14.824
97099W        W69524   3.379  28.944  13.005
97100W        W69525   3.079   8.631   3.367
97101W        W69526  40.287  26.973  11.819
97102W        W69527   9.023  41.590  11.143
97103W        W69528  17.716  29.105   3.279
97104W        W69529  26.111  35.656   2.291
97105W        W69530   9.062   3.897   3.449
97106W        W69531  12.804   0.894  10.752
97107W        W69532  28.193  42.874   1.204
97108W        W69533   1.790  42.033   4.658
97109W        W69534   6.664  28.377  11.849
97110W        W69535  16.766  11.277  13.541
97111W        W69536  37.060  12.327   3.742
97112W        W69537  29.036   1.410  11.640
97113W        W69538   7.220  18.092   2.793
97114W        W69539  30.993   0.278   0.915
97115W        W69540   4.876  14.694   1.289
97116W        W69541  30.451  26.211  13.024
97117W        W69542  29.239  38.941   1.745
97118W        W69543  35.557   3.173  13.860
97119W        W69544   9.222  28.781  12.405
97120W        W69545  33.803  37.660  13.433
97121W        W69546  12.061  17.837  10.648
97122W        W69547  10.691  22.261  11.078
97123W        W69548   7.887  19.337   2.267
97124W        W69549   4.250  22.705  12.873
97125W        W69550  29.038  24.487  14.029
97126W        W69551  22.605   8.322   2.886
97127W        W69552  23.498  40.611   4.126
97128W        W69553  25.088  42.338  11.822
97129W        W69554   4.808  42.393   5.148
97130W        W69555   5.762  35.119   2.342
97131W        W69556  43.863  37.901   4.412
97132W        W69557  30.687  12.792  11.490
97133W        W69558   6.866  15.897   4.215
97134W        W69559   0.656   6.164  10.718
97135W        W69560  23.719   2.317   1.211
97136W        W69561  34.400  43.897  12.454
97137W        W69562  26.639   8.595   3.798
97138W        W69563  19.824  12.382  14.373
97139W        W69564  33.487  11.488  14.800
97140W        W69565  18.613   4.135  11.519
97141W        W69566   9.815  19.165  11.832
97142W        W69567   0.161  23.967  14.058
97143W        W69568  15.375  39.142   2.221
97144W        W69569   8.691  30.110  14.265
97145W        W69570  40.553  10.123  11.105
97146W        W69571  37.834  42.131  11.545
97147W        W69572  40.545   3.430   1.264
97148W        W69573  15.759   0.967   4.660
97149W        W69574  13.504  21.986   2.616
97150W        W69575  17.205  16.292  12.068
97151W        W69576  17.661  34.840  12.941
97152W        W69577  40.754  18.838   0.424
97153W        W69578  15.856  26.190  10.687
97154W        W69579  43.259  13.915   1.013
97155W        W69580   9.344  12.403   0.329
97156W        W69581  24.453  25.050  13.792
97157W        W69582  15.249  34.590  10.683
97158W        W69583  14.674  15.234  13.851
97159W        W69584  26.176  44.531   0.275
97160W        W69585   4.597   6.810   0.947
97161W        W69586  26.698   9.866  11.217
97162W        W69587  14.712  39.638   4.250
97163W        W69588  35.571  18.325   4.201
97164W        W69589  25.391   6.253   4.748
97165W        W69590  19.221  44.837  10.936
97166W        W69591  31.713  27.706  12.559
97167W        W69592  35.237  30.184   1.673
97168W        W69593  38.382  20.644   3.024
97169W        W69594   4.836   4.290   3.728
97170W        W69595  14.183  12.292   3.414
97171W        W69596  34.927  44.214  11.154
97172W        W69597   1.262   0.379   0.318
97173W        W69598  17.760  42.331   1.390
97174W        W69599  37.763  20.481   1.340
97175W        W69600  19.915  28.385   1.745
97176W        W69601  11.664  27.959  13.334
97177W        W69602  19.034   7.334   3.720
97178W        W69603  27.588  37.332   3.246
97179W        W69604   6.913   9.453   1.374
97180W        W69605  14.418   1.075  12.080
97181W        W69606  19.087  42.601   3.318
97182W        W69607  17.890  33.092   3.390
97183W        W69608   1.579   6.721  10.732
97184W        W69609  11.226  42.046   2.222
97185W        W69610  29.436  20.293  12.027
97186W        W69611  26.551  34.007   1.942
97187W        W69612  38.855   1.294  10.928
97188W        W69613  26.846   7.946  14.505
97189W        W69614  34.919  41.520   4.048
97190W        W69615  41.014  13.611  11.166
97191W        W69616  43.250  14.600   0.331
97192W        W69617  16.453  31.052   4.612
97193W        W69618  18.233   9.054  11.521
97194W        W69619   7.295  31.435  12.168
97195W        W69620  27.955  30.912   4.120
97196W        W69621   2.398   0.174  13.826
97197W        W69622  18.302   7.010  12.598
97198W        W69623  43.998  37.206   1.705
97199W        W69624  38.766  44.816   4.072
97200W        W69625  34.949  25.721   0.760
97201W        W69626  36.121  37.279  12.092
97202W        W69627  29.652  41.424  12.390
97203W        W69628  30.919  27.206  14.076
97204W        W69629  23.012  12.249   1.444
97205W        W69630   2.998  32.477   2.307
97206W        W69631   7.299  17.354  13.074
97207W        W69632  15.258  19.607   2.846
97208W        W69633  27.046  32.874   1.398
97209W        W69634  39.594  28.043  11.149
97210W        W69635  34.090  20.386   2.752
97211W        W69636  43.744  16.610  14.368
97212W        W69637  32.529  10.219   3.694
97213W        W69638  13.210  41.988  10.619
97214W        W69639  27.944  25.543   1.442
97215W        W69640  18.212  12.229   2.914
97216W        W69641  10.304  14.709   4.061
97217W        W69642  29.576   9.229   3.811
97218W        W69643  17.646  27.213  13.895
97219W        W69644   0.312  43.985   0.831
97220W        W69645  41.371  27.149   1.045
97221W        W69646  31.978  16.226  10.491
97222W        W69647  17.243  29.242  11.204
97223W        W69648  13.725  37.362   1.838
97224W        W69649   9.339  15.250   1.736
97225W        W69650   1.715   1.470   3.822
97226W        W69651  15.182  41.840  14.554
97227W        W69652  43.755  23.131  12.629
97228W        W69653  13.846  16.671   3.270
97229W        W69654  28.078  10.246   0.499
97230W        W69655  15.932  23.023   1.684
97231W        W69656  43.966  35.819  12.339
97232W        W69657   9.223  28.821   4.238
97233W        W69658  18.766  26.084  14.435
97234W        W69659  36.397  29.238  14.222
97235W        W69660  32.988  41.531   1.016
97236W        W69661   0.563  28.543  11.148
97237W        W69662  31.483  11.158   4.209
97238W        W69663   4.863  26.519   2.833
97239W        W69664  37.821   4.261  12.013
97240W        W69665  35.946   1.797   0.167
97241W        W69666  32.784  38.314   1.727
97242W        W69667  12.364  25.475   9.986
97243W        W69668  14.210  36.683  12.024
97244W        W69669  30.998  23.321  12.775
97245W        W69670  42.057  19.805   0.821
97246W        W69671   9.121   4.195   0.945
97247W        W69672  20.198   3.162  13.014
97248W        W69673  43.770  28.391  13.956
97249W        W69674  25.215  30.917  14.569
97250W        W69675  39.961   1.513   0.972
97251W        W69676  21.641   5.824  11.588
97252W        W69677  28.162  44.436   2.120
97253W        W69678   0.904  38.970   0.353
97254W        W69679   8.738   7.709   2.846
97255W        W69680  37.654  13.152   1.402
97256W        W69681  40.906  39.374   2.499
97257W        W69682  43.210   5.688   2.537
97258W        W69683  38.895  36.975   3.665
97259W        W69684  16.815  22.428  14.755
97260W        W69685   3.695  15.060   2.484
97261W        W69686  24.478  27.138  13.742
97262W        W69687  27.887  32.047  11.581
97263W        W69688   8.759  17.617  14.897
97264W        W69689  10.692  30.122  13.049
97265W        W69690  40.733  36.049  14.248
97266W        W69691  39.646  39.825   3.193
97267W        W69692  10.602  34.954  12.509
97268W        W69693  24.938  33.560   0.030
97269W        W69694  37.301  40.643   3.747
97270W        W69695   3.677  14.425   0.855
97271W        W69696  16.829  34.742  13.113
97272W        W69697  24.540   5.795  11.971
97273W        W69698  12.775  43.904  12.645
97274W        W69699  21.459   6.416   4.179
97275W        W69700  37.258  16.020  10.457
97276W        W69701  11.928  19.965   1.465
97277W        W69702   8.263  38.831   0.831
97278W        W69703  29.177  36.621  10.682
97279W        W69704   5.405   9.120   3.782
97280W        W69705  40.904  31.123   0.524
97281W        W69706  28.490  14.214  14.759
97282W        W69707  30.988  36.843  12.607
97283W        W69708  17.584  29.164  14.769
97284W        W69709  40.137  34.845  11.988
97285W        W69710  18.152  26.728   1.800
97286W        W69711  44.366  37.171  12.598
97287W        W69712  11.031  12.417  14.385
97288W        W69713  42.532  12.175   4.215
97289W        W69714  19.355  15.583  13.945
97290W        W69715  38.783  37.080  14.510
97291W        W69716  39.499   6.930   0.798
97292W        W69717  38.287  24.730  12.066
97293W        W69718  15.304  16.262  12.485
97294W        W69719  19.560  26.052  13.901
97295W        W69720  35.038  32.436   1.896
97296W        W69721  37.840  37.007   2.909
97297W        W69722   2.825  14.362  10.833
97298W        W69723  26.615  32.601   9.919
97299W        W69724  15.695  27.668   3.259
97300W        W69725   8.357  19.631  13.018
97301W        W69726  13.801  34.908   1.858
97302W        W69727   4.801  20.842   4.190
97303W        W69728  26.100  34.066  13.748
97304W        W69729  37.361  21.599   1.777
97305W        W69730  11.758  32.115   1.960
97306W        W69731  17.179  24.286   1.451
97307W        W69732   5.882  14.566  14.708
97308W        W69733  31.076  10.808   4.062
97309W        W69734  13.166   8.348  12.489
97310W        W69735  14.616   6.976  11.208
97311W        W69736   5.243   8.770   2.660
97312W        W69737  43.224  28.311   3.712
97313W        W69738   0.595  10.383   2.775
97314W        W69739  30.416  12.916   3.254
97315W        W69740  43.714  40.756  10.679
97316W        W69741  21.126  21.070  14.796
97317W        W69742  41.371  44.923   0.509
97318W        W69743  12.397  11.374  12.893
97319W        W69744   8.601  44.649  14.764
97320W        W69745  30.414  43.480  13.382
97321W        W69746   0.074  30.082   4.958
97322W        W69747  27.771  31.126  12.136
97323W        W69748  13.142  15.639  11.451
97324W        W69749  13.079  19.685   4.513
97325W        W69750  36.488  41.622   5.151
97326W        W69751  19.795   6.874   1.925
97327W        W69752  28.654  12.267   4.604
97328W        W69753  36.525   7.454  13.507
97329W        W69754  22.531  26.057  11.027
97330W        W69755  36.549  25.497  10.934
97331W        W69756  12.635  33.586   2.304
97332W        W69757  44.662  21.224  13.915
97333W        W69758   3.682  23.340  10.257
97334W        W69759  19.020  22.581  14.355
97335W        W69760  36.542  35.543   1.880
97336W        W69761  41.938  42.444  11.303
97337W        W69762  13.171  32.005   3.151
97338W        W69763  16.270  26.157  14.269
97339W        W69764  41.802  33.519  14.726
97340W        W69765   5.347   3.251  13.725
97341W        W69766  10.141  40.607   1.367
97342W        W69767  19.984  23.066   0.028
97343W        W69768   3.479  20.836  13.983
97344W        W69769  41.985  19.592  10.678
97345W        W69770   3.798  27.446  11.332
97346W        W69771  23.693   7.134  11.174
97347W        W69772   0.764  16.209   2.217
97348W        W69773  10.741  27.028   0.486
97349W        W69774  18.977   3.384   2.722
97350W        W69775   9.823  13.055   2.315
97351W        W69776  20.274   0.684  10.725
97352W        W69777  37.385  32.377  12.488
97353W        W69778  21.236   7.107  10.585
97354W        W69779  23.091   8.193   2.232
97355W        W69780  12.731   4.214  14.794
97356W        W69781  36.302   1.839  12.913
97357W        W69782  44.996  12.918   1.256
97358W        W69783  36.907  43.238  11.623
97359W        W69784  41.867  21.719   0.011
97360W        W69785  17.571  29.688  14.696
97361W        W69786  33.774   1.675   1.875
97362W        W69787  16.137  43.491  12.138
97363W        W69788   1.504  28.243  14.811
97364W        W69789   0.333   7.905   1.778
97365W        W69790  30.811  40.073   2.275
97366W        W69791  42.096  26.361   0.403
97367W        W69792  11.881  30.875  12.919
97368W        W69793  37.984   3.355  13.291
97369W        W69794  44.426   3.200   0.794
97370W        W69795  44.943   3.911   1.293
97371W        W69796  44.467  10.374  11.191
97372W        W69797  39.442   5.909   3.074
97373W        W69798  42.344  15.165  13.818
97374W        W69799  39.878  25.843  14.989
97375W        W69800  31.112  17.791   2.522
97376W        W69801   8.666  16.627   2.340
97377W        W69802   8.412  42.545  10.489
97378W        W69803  25.202  41.070  11.022
97379W        W69804  40.446  35.620   1.413
97380W        W69805   3.196  25.871   4.741
97381W        W69806  17.667  15.543   0.747
97382W        W69807  31.648   2.823  11.936
97383W        W69808  36.549  43.396   0.531
97384W        W69809  26.080  18.170  11.343
97385W        W69810  29.493  13.249   0.864
97386W        W69811   6.903  42.913  11.577
97387W        W69812  26.550   5.455   3.417
97388W        W69813  34.385  24.406   1.098
97389W        W69814  34.495  28.416   0.037
97390W        W69815  36.033   9.951  14.249
97391W        W69816   0.393  30.914   5.053
97392W        W69817   8.699  29.464   4.991
97393W        W69818  12.784   9.605  10.933
97394W        W69819   4.871   7.473   4.059
97395W        W69820  43.074  18.834   4.096
97396W        W69821   6.435  23.808  12.985
97397W        W69822  34.991   2.682   1.172
97398W        W69823  17.301  41.620  11.661
97399W        W69824  15.800  18.777   1.961
97400W        W69825   5.375  12.034  11.171
97401W        W69826  24.884  22.233   3.335
97402W        W69827  19.060  38.957  11.497
97403W        W69828  11.586  20.519  12.905
97404W        W69829  29.551  31.146  12.026
97405W        W69830  40.782  13.915   4.865
97406W        W69831  35.976  35.095  14.881
97407W        W69832  25.230  38.003   4.738
97408W        W69833  10.160  16.158   3.721
97409W        W69834  41.900  10.799   2.159
97410W        W69835  12.210   4.163  11.010
97411W        W69836  38.445  24.668   5.128
97412W        W69837  18.660   2.631   4.825
97413W        W69838  37.582  40.096  12.426
97414W        W69839   8.230  10.255   2.913
97415W        W69840   0.911   3.673  11.972
97416W        W69841  33.189  41.073   2.705
97417W        W69842  14.179  15.047  11.059
97418W        W69843  16.274   4.221  12.116
97419W        W69844  15.863   8.160  14.429
97420W        W69845   3.484   1.661  14.375
97421W        W69846  39.974  14.396  12.337
97422W        W69847  22.489  25.064   2.779
97423W        W69848  44.519  27.564   4.817
97424W        W69849  39.791   9.634  11.534
97425W        W69850  39.311   6.674   1.630
97426W        W69851  19.078  28.576   3.342
97427W        W69852  18.485  16.827  12.158
97428W        W69853   4.252  15.461  10.942
97429W        W69854  20.708  10.357   3.757
97430W        W69855   4.990   4.351  10.250
97431W        W69856  21.674  24.619   2.371
97432W        W69857  14.418  30.638   0.582
97433W        W69858  28.559   5.145  11.529
97434W        W69859  42.032  17.664  10.464
97435W        W69860  19.721  13.764  12.082
97436W        W69861  12.154  22.649   0.874
97437W        W69862  26.452  33.317  13.784
97438W        W69863   0.068  27.580   4.963
97439W        W69864   3.350  30.946  11.568
97440W        W69865   2.399  33.577  12.204
97441W        W69866  11.859  24.646  12.239
97442W        W69867   2.457  37.034  14.838
97443W        W69868  33.037   9.032  11.624
97444W        W69869  37.415   0.463  12.508
97445W        W69870   1.879  39.980   3.268
97446W        W69871   1.128  35.095   3.832
97447W        W69872  18.433  31.803  13.268
97448W        W69873  14.193  40.993  14.815
97449W        W69874  18.137  12.328  11.872
97450W        W69875  11.710  22.158   1.238
97451W        W69876  35.202  43.199  12.396
97452W        W69877  24.747   7.631  13.893
97453W        W69878  15.864  27.421   2.793
97454W        W69879  38.607   0.435  14.556
97455W        W69880  18.475  31.660   3.830
97456W        W69881  31.680  25.532   2.194
97457W        W69882   3.729   8.180   4.156
97458W        W69883  15.612  43.283   2.189
97459W        W69884  29.900   0.169  11.138
97460W        W69885  20.467  20.709   1.889
97461W        W69886  11.175  22.679   2.780
97462W        W69887  28.050  16.524  10.138
97463W        W69888  12.975   4.426   1.687
97464W        W69889  17.801  24.783   0.059
97465W        W69890   4.214  35.511  10.513
97466W        W69891  23.124   1.181   4.655
97467W        W69892  36.773   4.815  11.179
97468W        W69893   6.418  23.295   4.216
97469W        W69894  31.056  30.185   3.664
97470W        W69895  22.312  29.626   4.200
97471W        W69896  37.768  31.082  14.738
97472W        W69897   3.420  23.247  12.031
97473W        W69898  13.696  14.167  11.073
97474W        W69899  12.280  31.153   3.839
97475W        W69900  37.446   7.704  11.922
97476W        W69901  29.742  23.687  11.459
97477W        W69902  20.799  20.621  11.845
97478W        W69903  38.331  22.671   4.639
97479W        W69904  14.116   4.447   2.021
97480W        W69905  42.977  25.246   3.293
97481W        W69906  28.450  22.689  13.890
97482W        W69907   2.334   9.762  14.733
97483W        W69908  15.286  19.186  12.522
97484W        W69909  30.274  11.235  13.839
97485W        W69910  18.556  39.757  14.298
97486W        W69911  25.193   7.371   0.854
97487W        W69912  44.843   2.405  12.540
97488W        W69913  35.889   1.242   0.072
97489W        W69914  31.826  12.812   3.248
97490W        W69915  23.266  32.424   2.801
97491W        W69916   8.941  22.541   4.538
97492W        W69917   4.677   1.564   3.200
97493W        W69918  34.951   6.370  13.772
97494W        W69919  13.820  28.141   3.260
97495W        W69920   3.743  42.417   1.733
97496W        W69921  12.799   6.964   1.879
97497W        W69922  27.917   7.233  12.175
97498W        W69923  20.673  22.341   3.308
97499W        W69924  34.582  25.968  13.773
97500W        W69925  44.968   6.724   0.447
97501W        W69926   6.358   3.449  14.628
97502W        W69927  42.500  17.802  14.873
97503W        W69928  22.606  25.329   5.142
97504W        W69929   9.819   7.666  11.583
97505W        W69930  29.150  37.856  14.812
97506W        W69931  12.554  25.004  10.072
97507W        W69932  26.151  25.341   4.065
97508W        W69933  38.303  41.918  14.663
97509W        W69934  26.454  36.925  12.973
97510W        W69935  22.987  30.396  10.330
97511W        W69936  38.492  32.567  10.444
97512W        W69937  20.514   8.146  14.695
97513W        W69938  34.552  31.562   1.180
97514W        W69939  18.671   5.245   4.089
97515W        W69940  13.568  17.510   3.725
97516W        W69941  31.411  27.650   3.222
97517W        W69942  12.038  24.164  14.926
97518W        W69943  12.595  25.990  12.524
97519W        W69944  14.718  27.689  14.089
97520W        W69945  15.360   8.327  13.529
97521W        W69946  13.511  41.131   4.119
97522W        W69947  17.050  24.559   0.481
97523W        W69948  23.429  40.011  12.788
97524W        W69949  20.674  27.460  13.604
97525W        W69950  32.068  30.634   1.163
97526W        W69951  23.105  11.806   1.167
97527W        W69952   2.265  12.649  10.569
97528W        W69953  30.910  41.456  13.362
97529W        W69954  37.527  44.839  11.272
97530W        W69955  35.142   5.283  13.524
97531W        W69956  33.476  33.307  10.654
97532W        W69957  16.164   9.123   0.922
97533W        W69958  15.510  34.973  14.765
97534W        W69959  27.350   9.154  11.216
97535W        W69960  12.875  26.145  12.111
97536W        W69961  29.187  42.222  11.205
97537W        W69962   6.297  38.700  11.135
97538W        W69963  42.974  27.711   0.918
97539W        W69964  28.490  41.094  12.225
97540W        W69965  13.634  32.386  12.898
97541W        W69966   8.593  14.654  14.311
97542W        W69967   8.407   9.371  11.643
97543W        W69968  40.353  30.334  10.678
97544W        W69969  29.129   6.509   3.661
97545W        W69970  18.354  25.740  14.983
97546W        W69971  35.463  39.436   4.347
97547W        W69972  44.882  18.189  10.862
97548W        W69973   8.496  28.121  10.405
97549W        W69974   3.848  28.708   2.086
97550W        W69975  28.111  22.940   4.209
97551W        W69976  21.442  10.647  14.871
97552W        W69977  13.102  21.057   2.924
97553W        W69978  36.462  22.047   1.822
97554W        W69979  29.644  43.651  11.450
97555W        W69980   1.955  38.089   0.029
97556W        W69981  12.298  33.494  13.346
97557W        W69982  21.000  19.371  12.101
97558W        W69983  26.795  33.538   5.083
97559W        W69984  12.300  31.979  11.010
97560W        W69985  43.401  13.821   2.712
97561W        W69986  22.133   0.239  12.560
97562W        W69987  23.009   2.443   3.352
97563W        W69988  43.372   1.866   4.328
97564W        W69989  34.949  38.087  11.649
97565W        W69990  26.187  14.319   4.419
97566W        W69991  44.966  42.190   3.856
97567W        W69992  17.258  40.890   1.906
97568W        W69993  24.120  14.845   1.112
97569W        W69994  36.465  37.309  11.209
97570W        W69995  20.612  18.366   2.665
97571W        W69996   8.622  22.741  13.544
97572W        W69997  26.169  37.433  11.981
97573W        W69998  33.832  43.256   0.431
97574W        W69999  25.067   3.763  14.390
97575W        W70000   6.082  28.871  12.942
97576W        W70001  32.088   3.379  12.471
97577W        W70002  32.200  19.348  11.527
97578W        W70003  19.696  21.573   2.271
97579W        W70004  39.553  42.416  14.946
97580W        W70005  19.681  30.417  12.510
97581W        W70006  16.660   9.364  13.059
97582W        W70007  38.181  23.305   1.723
97583W        W70008  21.568  43.086  12.958
97584W        W70009  17.376  18.790   1.291
97585W        W70010   6.216  33.055   1.881
97586W        W70011  16.582   4.795  12.568
97587W        W70012  20.212  33.063   1.855
97588W        W70013  28.853  44.853   1.223
97589W        W70014  26.743  29.945  14.069
97590W        W70015   2.985   8.710   2.839
97591W        W70016  26.965  29.047  13.475
97592W        W70017  25.198   9.004  13.779
97593W        W70018  38.834   2.838   2.591
97594W        W70019  20.901  37.492  11.137
97595W        W70020  16.760  11.393  10.502
97596W        W70021  36.612   0.986  12.951
97597W        W70022  21.785  20.478   1.313
97598W        W70023  42.254  34.097  10.839
97599W        W70024  42.711  39.807  13.986
97600W        W70025  33.360  29.502  10.612
97601W        W70026  26.952   3.690   2.278
97602W        W70027  31.595  35.953   1.860
97603W        W70028  11.815  26.424   2.839
97604W        W70029  43.297  29.909  11.165
97605W        W70030  24.647  15.142  13.474
97606W        W70031  43.415  44.173  13.755
97607W        W70032  28.552  14.126  11.104
97608W        W70033  16.805  33.120  14.900
97609W        W70034  16.121  20.049  12.969
97610W        W70035  28.915  18.830  10.718
97611W        W70036   6.777  20.073   3.084
97612W        W70037   6.064  34.702  11.986
97613W        W70038  25.650  20.916  11.654
97614W        W70039  15.616  35.963   1.100
97615W        W70040   2.410   4.700   0.741
97616W        W70041   0.917  27.739  10.307
97617W        W70042  10.152  24.701  10.535
97618W        W70043   5.855  28.490  11.333
97619W        W70044  35.909  34.700   0.242
97620W        W70045  33.127  12.655   1.432
97621W        W70046  43.926  32.032  11.531
97622W        W70047   2.996   1.267   1.114
97623W        W70048  11.211  21.795   3.350
97624W        W70049   7.858  44.205  11.939
97625W        W70050  22.055  39.310  11.903
97626W        W70051  44.602  19.056   1.349
97627W        W70052  11.109   3.306  14.426
97628W        W70053   1.637  34.185  12.469
97629W        W70054  30.216  12.802  14.480
97630W        W70055  19.324   0.062   1.814
97631W        W70056   6.573  26.701   2.992
97632W        W70057  27.595   8.341  11.507
97633W        W70058  22.806  29.933   4.613
97634W        W70059  44.938  13.876   4.638
97635W        W70060  30.707   9.247  14.876
97636W        W70061  37.323   9.831   3.842
97637W        W70062  13.079  18.676   3.911
97638W        W70063  29.625  40.076   5.071
97639W        W70064  19.233  15.037  12.024
97640W        W70065  17.289  18.297   1.129
97641W        W70066  16.028  16.667  12.319
97642W        W70067  35.393  25.986  12.836
97643W        W70068  44.281   1.165  10.808
97644W        W70069  22.647   4.027  11.143
97645W        W70070  29.163  23.022  14.059
97646W        W70071   4.041  41.758   0.988
97647W        W70072  28.073  44.936  13.353
97648W        W70073  22.956  16.821  12.410
97649W        W70074  43.049  33.999   3.648
97650W        W70075   2.044  31.269  12.977
97651W        W70076  17.351  24.309   0.121
97652W        W70077  15.501  11.848   2.357
97653W        W70078  27.975  35.005   1.692
97654W        W70079  41.057  34.776  11.132
97655W        W70080  42.952   5.970   0.776
97656W        W70081  38.369  40.847   3.773
97657W        W70082  43.869   8.578  13.406
97658W        W70083  10.256  40.236   1.893
97659W        W70084  32.073  43.100   0.974
97660W        W70085  11.848  10.250   4.735
97661W        W70086   9.680  13.693  11.478
97662W        W70087  34.629  13.830   0.283
97663W        W70088  39.479  44.241  13.199
97664W        W70089   6.464  34.913  10.724
97665W        W70090  36.382  17.289   3.361
97666W        W70091   6.232  22.608  11.961
97667W        W70092  13.734  26.498   9.836
97668W        W70093  14.891  21.029   1.646
97669W        W70094  38.110   9.174  11.917
97670W        W70095   2.522  44.367   1.879
97671W        W70096   4.990  10.672   4.911
97672W        W70097  21.689  32.950   3.222
97673W        W70098   9.499  13.756  12.835
97674W        W70099  27.864  43.861  12.374
97675W        W70100  41.974  30.179  14.332
97676W        W70101  44.378  31.167   5.132
97677W        W70102  16.282   8.495   0.359
97678W        W70103   5.575   2.114  14.989
97679W        W70104  12.684  18.057   2.753
97680W        W70105  34.100  22.460   1.882
97681W        W70106   2.264  24.964   0.234
97682W        W70107  12.345   3.787  14.562
97683W        W70108  32.573  35.054  10.780
97684W        W70109  43.110  17.175  11.115
97685W        W70110  17.254  16.835  11.175
97686W        W70111  12.157   3.282  14.454
97687W        W70112  26.668  10.085   4.771
97688W        W70113  37.535  14.063  13.856
97689W        W70114  31.602  40.324  14.880
97690W        W70115  16.050  26.182   3.243
97691W        W70116   5.122  19.713  14.445
97692W        W70117  35.042  30.860   0.185
97693W        W70118  40.510  18.154   2.305
97694W        W70119   0.042   1.532  11.489
97695W        W70120   4.204  43.744   4.083
97696W        W70121  18.648  31.428  14.079
97697W        W70122   8.755  37.462  13.440
97698W        W70123  38.625  41.654   4.243
97699W        W70124  24.368  22.797   4.763
97700W        W70125  35.324  38.873  14.313
97701W        W70126  38.058  26.144  13.883
97702W        W70127  43.568  39.889  14.898
97703W        W70128  21.032  34.160  11.867
97704W        W70129  24.532  20.676  11.513
97705W        W70130  10.346  38.330   0.449
97706W        W70131  27.844  21.693  13.097
97707W        W70132  27.152  16.635  13.407
97708W        W70133  17.128  19.992   2.687
97709W        W70134  13.049  22.369  13.342
97710W        W70135  31.927  15.046   2.363
97711W        W70136  31.457  19.506   2.596
97712W        W70137  22.691   5.350  11.066
97713W        W70138  31.435   1.257  13.493
97714W        W70139  10.041   5.102   2.350
97715W        W70140  22.178  26.574  14.872
97716W        W70141  20.080  31.068  12.804
97717W        W70142  33.446  26.035  11.682
97718W        W70143  27.605  17.215  12.151
97719W        W70144  44.587  37.840  11.993
97720W        W70145  26.106  12.224   0.246
97721W        W70146  36.855   0.484   4.575
97722W        W70147  14.281  16.045   4.771
97723W        W70148  12.196  14.581  14.752
97724W        W70149  15.874  30.552  10.702
97725W        W70150  18.864   7.435   1.227
97726W        W70151  36.604  28.712  14.999
97727W        W70152   4.215  36.720   3.690
97728W        W70153   3.964  30.988  12.292
97729W        W70154  28.383  43.582   4.153
97730W        W70155  27.168  33.356   0.175
97731W        W70156  16.628   5.017  14.389
97732W        W70157   2.008  16.241  11.743
97733W        W70158  11.257   5.924   3.587
97734W        W70159  20.548  18.226  14.997
97735W        W70160  18.232   0.725   1.298
97736W        W70161  43.737  13.219  11.112
97737W        W70162   5.862  19.740  12.986
97738W        W70163  41.997  24.600   2.744
97739W        W70164  26.256  30.436   2.378
97740W        W70165   0.011  29.746  11.158
97741W        W70166  27.406  31.116   1.780
97742W        W70167  44.440  39.390  13.850
97743W        W70168   0.883   0.281   1.825
97744W        W70169  38.515   7.833   1.169
97745W        W70170  31.911   9.659   4.239
97746W        W70171   5.275   3.563  12.058
97747W        W70172   1.882  14.575  14.391
97748W        W70173  16.022  40.483  12.273
97749W        W70174  33.517  26.397   9.906
97750W        W70175  23.695   9.930  13.851
97751W        W70176   8.252  33.724  14.533
97752W        W70177  38.148  38.038  11.982
97753W        W70178  23.840  17.208  12.862
97754W        W70179  23.698  32.093   2.059
97755W        W70180  14.124  13.611   1.260
97756W        W70181   6.427  13.742  14.789
97757W        W70182  40.275   3.665  13.436
97758W        W70183   2.211   5.204  12.460
97759W        W70184   7.907  35.197   3.664
97760W        W70185   6.578  35.897   0.825
97761W        W70186  10.176   9.095   4.057
97762W        W70187  33.383   9.254  14.568
97763W        W70188  43.250  17.603   2.342
97764W        W70189  20.159  40.234   0.162
97765W        W70190  35.128  41.569  13.923
97766W        W70191   6.460  40.424  11.031
97767W        W70192  43.394  21.989   3.683
97768W        W70193  32.579  37.361  11.230
97769W        W70194   3.820  37.733  14.401
97770W        W70195  11.863  37.989   3.151
97771W        W70196   6.978  37.990   0.861
97772W        W70197  38.918  43.446   0.993
97773W        W70198  28.703  16.354  12.720
97774W        W70199   6.743   6.579  11.473
97775W        W70200   7.702   9.495  10.819
97776W        W70201   8.331   5.505   4.556
97777W        W70202   2.313   8.847  10.925
97778W        W70203  13.299  11.614   2.288
97779W        W70204  11.817  37.288   0.898
97780W        W70205   3.539  13.239   3.176
97781W        W70206  30.487  29.189  11.688
97782W        W70207   1.047   7.436  14.351
97783W        W70208  24.626  26.597   1.374
97784W        W70209  30.316   8.791  12.175
97785W        W70210  35.532  12.582  14.880
97786W        W70211  20.292   1.274   0.742
97787W        W70212  15.311  41.797  13.425
97788W        W70213   3.786   4.941  11.668
97789W        W70214  33.129  30.061   3.226
97790W        W70215   0.857  33.615  13.534
97791W        W70216  15.359  25.707   0.079
97792W        W70217   3.255  16.190  11.093
97793W        W70218  37.820   3.188  10.746
97794W        W70219  28.405   5.358  11.094
97795W        W70220   9.404  44.411  11.909
97796W        W70221  14.755  15.364   0.498
97797W        W70222  36.875  18.535   3.815
97798W        W70223  14.123  38.412  11.943
97799W        W70224  44.212  21.716   4.507
97800W        W70225   7.573  41.892   3.103
97801W        W70226  11.873  34.473  12.473
97802W        W70227  23.726  22.796   0.383
97803W        W70228  19.746  33.521  12.420
97804W        W70229  32.533   9.581   0.489
97805W        W70230  10.412  12.560  14.751
97806W        W70231  13.825  39.793   3.284
97807W        W70232  24.521  30.098  10.161
97808W        W70233  19.241   5.018   1.707
97809W        W70234  25.740  22.651   2.457
97810W        W70235  20.770   1.492   3.239
97811W        W70236  41.293  40.980   0.751
97812W        W70237  33.477   9.658  10.548
97813W        W70238   7.307   7.847  11.595
97814W        W70239  25.736  41.765  13.832
97815W        W70240  19.861  14.866  13.458
97816W        W70241  16.258  33.381   3.739
97817W        W70242   6.836   3.792   0.724
97818W        W70243  42.598  25.518  13.076
97819W        W70244  12.822  29.645  13.564
97820W        W70245   2.309  40.472   1.290
97821W        W70246   7.128  43.450   2.755
97822W        W70247  34.537  43.223   1.793
97823W        W70248  35.617  19.717  12.534
97824W        W70249  37.932  41.220   2.758
97825W        W70250  37.033  31.196  10.980
97826W        W70251  39.869  35.913   3.095
97827W        W70252  15.316  11.930  13.344
97828W        W70253  26.772  39.532  13.465
97829W        W70254  41.426  23.634   3.139
97830W        W70255  33.406   5.435  11.107
97831W        W70256  10.127   0.852  11.518
97832W        W70257  29.126  38.112  12.760
97833W        W70258  34.436  21.997  14.856
97834W        W70259  16.621  28.720   4.255
97835W        W70260  24.212  24.522   4.293
97836W        W70261   0.825  26.631   2.873
97837W        W70262  39.649  30.704  12.532
97838W        W70263  28.452   6.982  12.869
97839W        W70264  10.852  28.552   2.025
97840W        W70265   7.997   6.177   3.594
97841W        W70266  10.030  42.600  12.562
97842W        W70267   7.087  37.803  13.646
97843W        W70268  36.578  26.369  10.958
97844W        W70269  15.152  25.673   1.887
97845W        W70270  38.040  24.946  13.385
97846W        W70271  16.956  19.527   0.056
97847W        W70272   4.481  42.486  13.408
97848W        W70273  34.928  15.103  11.421
97849W        W70274   9.231  27.006   4.641
97850W        W70275  35.441  20.960  11.057
97851W        W70276  41.286  11.152   1.218
97852W        W70277  23.606  42.584  12.498
97853W        W70278  42.020  44.540  10.118
97854W        W70279  13.682  33.884   0.961
97855W        W70280  19.113   0.034  11.510
97856W        W70281  31.984   9.533  12.915
97857W        W70282  32.636  18.312   3.708
97858W        W70283  37.787  43.889   0.386
97859W        W70284  30.524   6.680   1.719
97860W        W70285   1.435   9.974   2.841
97861W        W70286  15.745  37.077  14.905
97862W        W70287  36.673  29.449  12.556
97863W        W70288  29.784  40.559   9.832
97864W        W70289  44.403  18.441   3.250
97865W        W70290  34.208  25.080   4.143
97866W        W70291  24.053  37.857  10.810
97867W        W70292  14.769  21.219  11.192
97868W        W70293   7.364   6.793  13.308
97869W        W70294  21.656  39.865  13.956
97870W        W70295  38.063  39.403  13.833
97871W        W70296   9.302  42.262   0.470
97872W        W70297  41.160  26.606  12.823
97873W        W70298  44.502  28.008   5.105
97874W        W70299  22.088  25.981  10.783
97875W        W70300  21.187  35.833   3.438
97876W        W70301  24.281  16.685   0.066
97877W        W70302  15.045  41.386   1.264
97878W        W70303  17.292  40.486   2.731
97879W        W70304  26.559  41.938  13.910
97880W        W70305  27.593   9.621   0.931
97881W        W70306  17.555   0.502   0.840
97882W        W70307   1.327  28.425   1.918
97883W        W70308   8.209  29.214  13.349
97884W        W70309  20.721  29.662   1.448
97885W        W70310  26.949  26.973  13.528
97886W        W70311  43.926   6.309   4.368
97887W        W70312  44.760  19.221  14.403
97888W        W70313  10.894  29.697  11.588
97889W        W70314  16.996  10.845   3.698
97890W        W70315  17.124  35.120   3.695
97891W        W70316   1.729  38.307  11.896
97892W        W70317  39.912   4.708   0.976
97893W        W70318   5.249  14.609   0.279
97894W        W70319  18.366  23.927   4.692
97895W        W70320  36.022  23.897  12.564
97896W        W70321   7.188   2.407   1.184
97897W        W70322  35.332   6.791  12.034
97898W        W70323  21.979  36.143   3.840
97899W        W70324   3.465  21.996  12.476
97900W        W70325  38.945  19.164   1.472
97901W        W70326  21.052  27.876  12.822
97902W        W70327   5.299  13.147   3.109
97903W        W70328  26.844  43.433  11.612
97904W        W70329   3.599   8.810   1.995
97905W        W70330  43.024  30.110  12.934
97906W        W70331  14.805  26.059   3.759
97907W        W70332  26.169   5.301  12.121
97908W        W70333  44.872   3.010  10.616
97909W        W70334  31.548  37.778   1.755
97910W        W70335  44.383  32.825   3.707
97911W        W70336  13.997  19.563   4.216
97912W        W70337  41.925  15.682  14.758
97913W        W70338  35.852   6.885  12.077
97914W        W70339  39.436  14.488   4.344
97915W        W70340   1.768  38.004   1.836
97916W        W70341  27.180  25.025   4.742
97917W        W70342  19.192   7.773   4.018
97918W        W70343  18.771   9.920  12.482
97919W        W70344  11.272  32.508   1.947
97920W        W70345  39.003  27.902  12.935
97921W        W70346  12.270  34.591   3.864
97922W        W70347   5.536   2.902   4.872
97923W        W70348  12.216  24.009   3.552
97924W        W70349  11.792   0.020  13.392
97925W        W70350  19.184  44.721  12.666
97926W        W70351  31.089   0.482  11.661
97927W        W70352  34.642  22.054   3.234
97928W        W70353  13.884  33.320  12.473
97929W        W70354  26.168  29.889  11.042
97930W        W70355  15.644  10.775   4.190
97931W        W70356   9.373  27.892   3.173
97932W        W70357  23.299  19.213  12.848
97933W        W70358  39.310  28.382  13.582
97934W        W70359   9.239  13.447  11.895
97935W        W70360  32.319  32.931   1.894
97936W        W70361  26.577  38.816  12.910
97937W        W70362  42.382  37.743   4.821
97938W        W70363  17.077   7.237  14.186
97939W        W70364  39.510  36.339   3.478
97940W        W70365   0.976  32.708   1.348
97941W        W70366   2.482   5.469   2.312
97942W        W70367   1.425   9.987  13.790
97943W        W70368  23.908  12.751  14.230
97944W        W70369   5.742   6.015   1.165
97945W        W70370  10.599  10.644  10.843
97946W        W70371  28.570  32.546  14.820
97947W        W70372   6.456  43.747  11.587
97948W        W70373  22.682  12.529  14.599
97949W        W70374  36.547  42.134   1.252
97950W        W70375  24.506   8.380  12.392
97951W        W70376  37.276  23.560   1.545
97952W        W70377  15.305  26.136  11.394
97953W        W70378  32.817  28.409  11.963
97954W        W70379   7.152   6.076   4.079
97955W        W70380  32.736  20.711   2.738
97956W        W70381  38.831  23.979  12.527
97957W        W70382  38.025   7.605  13.179
97958W        W70383  42.527   6.209   4.607
97959W        W70384  19.503   2.124   3.906
97960W        W70385  14.581   7.299   5.105
97961W        W70386  40.401   1.262   1.860
97962W        W70387  26.393  32.938  14.416
97963W        W70388  15.764  17.462  13.581
97964W        W70389  16.050  40.462  10.854
97965W        W70390   8.053   6.409  12.620
97966W        W70391  26.962   9.065   0.028
97967W        W70392  15.564  31.005  14.840
97968W        W70393   0.548  39.501   1.766
97969W        W70394  30.658  44.513   0.894
97970W        W70395  20.125   1.067   4.624
97971W        W70396  39.560   0.371  14.201
97972W        W70397  14.207  11.955   0.045
97973W        W70398  30.558  37.574  13.316
97974W        W70399  35.928  16.018   1.271
97975W        W70400   1.808  13.090  13.123
97976W        W70401  20.686  13.641   2.810
97977W        W70402   7.802  37.410   4.142
97978W        W70403   3.881  19.986   1.264
97979W        W70404  34.598   3.257   1.731
97980W        W70405  43.545  18.256   1.121
97981W        W70406  10.608  21.832   5.435
97982W        W70407  37.432  16.869   0.372
97983W        W70408  22.185  33.059   4.086
97984W        W70409  33.968  44.170   1.171
97985W        W70410  28.957   3.386  13.831
97986W        W70411  40.601  28.190   1.352
97987W        W70412  27.533   9.759   1.770
97988W        W70413  41.001   6.870  10.967
97989W        W70414  11.753  24.713  13.843
97990W        W70415  43.724  32.521   1.415
97991W        W70416  24.492  15.693   3.627
97992W        W70417  28.676  16.734   4.105
97993W        W70418  11.683  35.449   4.720
97994W        W70419  13.698   4.381   4.365
97995W        W70420  20.677   5.905   4.654
97996W        W70421  30.640  35.223   3.238
97997W        W70422   2.608   3.004   1.319
97998W        W70423  15.122  38.662   1.351
97999W        W70424  10.207  16.511  10.380
98000W        W70425  29.476  40.989   9.801
98001W        W70426  18.317  24.717  14.989
98002W        W70427  41.464  38.743   0.819
98003W        W70428  33.640  41.746   3.268
98004W        W70429  17.151   3.739  14.504
98005W        W70430  38.433  37.593  11.940
98006W        W70431  31.490  12.864   2.668
98007W        W70432  33.318  14.101  13.028
98008W        W70433  34.938  18.866   0.307
98009W        W70434  32.358   5.102   1.331
98010W        W70435  13.802   9.638   4.717
98011W        W70436  12.304   8.738   1.176
98012W        W70437  40.480  42.780  13.560
98013W        W70438  39.339   6.793   2.160
98014W        W70439  19.631  29.530   1.814
98015W        W70440  10.247  25.489  13.462
98016W        W70441  29.726   9.730   2.089
98017W        W70442  39.281  27.919  13.378
98018W        W70443  29.935  14.908  11.152
98019W        W70444  28.486  26.795  12.880
98020W        W70445  20.630   8.799  10.791
98021W        W70446  39.527  18.180  11.994
98022W        W70447  18.112  16.767  11.722
98023W        W70448  35.680  29.232   0.950
98024W        W70449  38.036   9.910   0.992
98025W        W70450  23.141  14.615   0.323
98026W        W70451  40.576   5.261  13.339
98027W        W70452  26.256  17.565   1.282
98028W        W70453  29.324  15.550  11.224
98029W        W70454  21.025  30.381  10.726
98030W        W70455  36.396  19.470   4.518
98031W        W70456   4.907  18.349  12.468
98032W        W70457   1.730   2.779   4.552
98033W        W70458  43.935  36.523   4.312
98034W        W70459  38.444  23.667  13.954
98035W        W70460  20.171   7.650   2.843
98036W        W70461  32.442   4.261   1.496
98037W        W70462  18.253   2.131  10.475
98038W        W70463   5.404  16.868  14.876
98039W        W70464  20.748   5.097  10.957
98040W        W70465  18.900  26.753   1.670
98041W        W70466  34.340  12.154  14.898
98042W        W70467  16.214  30.411  14.281
98043W        W70468  33.330  11.618  11.891
98044W        W70469  42.458  15.755  10.476
98045W        W70470   3.320  34.637  12.478
98046W        W70471  40.886  38.338  12.628
98047W        W70472  42.383  38.650  12.879
98048W        W70473  31.953   2.365   0.665
98049W        W70474   1.425  23.090   4.623
98050W        W70475  35.684  23.379  10.952
98051W        W70476   1.821  38.452   3.755
98052W        W70477  21.043   7.015   1.295
98053W        W70478  16.277  18.514  14.796
98054W        W70479  33.839   1.424   3.640
98055W        W70480  18.745  17.176  14.756
98056W        W70481  41.385  10.673   2.216
98057W        W70482  43.063  18.426   2.461
98058W        W70483  37.189  10.144   1.647
98059W        W70484   3.954  26.519  13.017
98060W        W70485  20.323   1.046   1.235
98061W        W70486   4.170  23.045  13.239
98062W        W70487  43.915  12.307   1.271
98063W        W70488  44.316  39.023  10.600
98064W        W70489  28.232  43.759  14.940
98065W        W70490  38.084  39.777  11.615
98066W        W70491  29.429  11.237  14.058
98067W        W70492   9.637  44.920  11.542
98068W        W70493   7.914   3.844   4.742
98069W        W70494  35.175  22.592  11.155
98070W        W70495  28.191  29.437   3.558
98071W        W70496  23.952  35.345   1.879
98072W        W70497  17.276  22.249  14.569
98073W        W70498   0.944  20.546  11.643
98074W        W70499  27.583  33.517   3.335
98075W        W70500  29.076  41.223   4.161
98076W        W70501  34.010  16.230  14.757
98077W        W70502  37.064  25.589  14.316
98078W        W70503  36.406  10.121  10.588
98079W        W70504  35.552  39.487  10.742
98080W        W70505  28.113  21.721  10.734
98081W        W70506   9.191  10.660  12.029
98082W        W70507  27.710  35.846   0.770
98083W        W70508  44.409  24.466  11.647
98084W        W70509   0.428  14.653   4.027
98085W        W70510  26.605  41.359   0.713
98086W        W70511   3.837  26.739   0.301
98087W        W70512  32.945  13.509   2.694
98088W        W70513   9.320  44.442  14.461
98089W        W70514   2.858  30.896   0.134
98090W        W70515  42.891  18.163  11.075
98091W        W70516  17.558  13.664  13.488
98092W        W70517  31.022  27.888  11.703
98093W        W70518  14.380   5.228  13.107
98094W        W70519   0.029  44.593  11.215
98095W        W70520  13.687  33.130   4.282
98096W        W70521  44.355  35.551  10.787
98097W        W70522  18.812   8.818   1.250
98098W        W70523  42.962  24.185   0.882
98099W        W70524  43.905  13.701  11.014
98100W        W70525  13.186  42.873  11.685
98101W        W70526   5.381  24.049   3.678
98102W        W70527  27.948  39.823  10.584
98103W        W70528  27.344  17.047   0.916
98104W        W70529   1.813   0.838  13.528
98105W        W70530  41.272  14.521  14.388
98106W        W70531  18.652  24.434   0.311
98107W        W70532  25.253   3.688  13.894
98108W        W70533  32.697  40.148  13.383
98109W        W70534  17.751  16.783   2.901
98110W        W70535  26.116  10.749  10.628
98111W        W70536   8.722  43.447  13.602
98112W        W70537   1.984  37.315  11.996
98113W        W70538  21.071  28.681   1.461
98114W        W70539  27.622  44.968   4.155
98115W        W70540   5.708   1.336   0.481
98116W        W70541  22.100   9.045  11.867
98117W        W70542  30.514  18.458   0.278
98118W        W70543  16.773   2.692  12.449
98119W        W70544  17.547  28.134  12.961
98120W        W70545  32.659  23.109  11.861
98121W        W70546   4.321  14.138  14.631
98122W        W70547  28.532  13.576   1.986
98123W        W70548  13.352  34.667   1.964
98124W        W70549  34.745  28.220  13.835
98125W        W70550  10.122  21.073   0.518
98126W        W70551  19.696  33.829   5.263
98127W        W70552  20.358  38.527  11.095
98128W        W70553  33.727  19.043  12.312
98129W        W70554  24.154  38.827   2.691
98130W        W70555   6.041  16.401   1.071
98131W        W70556  27.421  41.390   3.091
98132W        W70557  12.928   4.180  11.538
98133W        W70558   2.435  28.143   4.189
98134W        W70559  12.382  29.184   3.671
98135W        W70560   6.672  43.950  14.219
98136W        W70561   9.216  12.602  10.593
98137W        W70562  25.735  13.898   3.626
98138W        W70563  23.434  42.900  10.559
98139W        W70564   3.273  11.701   3.673
98140W        W70565  10.772  11.106  13.550
98141W        W70566  18.824   1.208  11.972
98142W        W70567  37.056  13.752  12.376
98143W        W70568  37.575  11.163  10.823
98144W        W70569  18.343  37.337   5.051
98145W        W70570   0.683  32.054   3.665
98146W        W70571  15.664  25.652  12.541
98147W        W70572  19.942   5.954  12.492
98148W        W70573  12.620  27.419   0.357
98149W        W70574  27.122   6.702   0.497
98150W        W70575   9.116   4.479  11.950
98151W        W70576   2.731  35.371   1.713
98152W        W70577  38.521  21.615  14.928
98153W        W70578  26.246  16.726  14.949
98154W        W70579  15.138  40.085   1.420
98155W        W70580  36.641  34.712  11.194
98156W        W70581  23.529  11.401  13.778
98157W        W70582  39.097   4.645   0.741
98158W        W70583  30.040  10.815   3.481
98159W        W70584   9.006   2.404   1.740
98160W        W70585  33.388  29.727  12.006
98161W        W70586  30.494  21.065   3.627
98162W        W70587  27.467  40.855   0.440
98163W        W70588  13.538  24.593   3.702
98164W        W70589  22.329  12.289   5.131
98165W        W70590   3.973   5.967  14.678
98166W        W70591  27.930  40.589   5.600
98167W        W70592   2.856   3.669   1.122
98168W        W70593   4.667  35.998  12.619
98169W        W70594   9.329   1.024   2.697
98170W        W70595  28.051  20.659  10.896
98171W        W70596   6.123  24.501  11.134
98172W        W70597  40.219  23.552  12.739
98173W        W70598  13.774   0.266   3.690
98174W        W70599  42.572  23.116   2.543
98175W        W70600  43.075  33.992   1.689
98176W        W70601  30.602  39.424   1.732
98177W        W70602  15.106  27.097  10.971
98178W        W70603   8.433   5.420  13.872
98179W        W70604  25.904  34.877   1.812
98180W        W70605  33.664  19.646  13.067
98181W        W70606  23.684   3.084   3.676
98182W        W70607  31.121  28.284   2.199
98183W        W70608   1.729  23.276  13.001
98184W        W70609   3.762  19.411   2.656
98185W        W70610   8.663  14.858   3.298
98186W        W70611  40.551   5.319   0.922
98187W        W70612   3.811  32.305  11.552
98188W        W70613  37.539  24.194  14.811
98189W        W70614  20.994  29.587   3.179
98190W        W70615  21.026  14.764   4.544
98191W        W70616  29.886  34.370   0.942
98192W        W70617  17.017  15.625   1.396
98193W        W70618  37.433  26.683   3.946
98194W        W70619   6.727  44.872   0.002
98195W        W70620  28.435   3.965   3.892
98196W        W70621  21.009  12.783   0.420
98197W        W70622  22.667   2.303  14.015
98198W        W70623   7.911   8.296  13.537
98199W        W70624  20.681  10.824   4.063
98200W        W70625   2.735  30.587   1.935
98201W        W70626   3.837  20.482   4.349
98202W        W70627  20.113  35.055   3.660
98203W        W70628  16.261  28.521   0.327
98204W        W70629  42.402   2.805   4.470
98205W        W70630  10.357   2.451   5.038
98206W        W70631   8.463  44.339  11.191
98207W        W70632  41.766  11.304   5.125
98208W        W70633  35.290  39.894   0.457
98209W        W70634  15.367  14.723  10.935
98210W        W70635   7.269  25.648   1.675
98211W        W70636  31.219  38.633  11.115
98212W        W70637  43.472  44.283   1.705
98213W        W70638  31.530  22.928   2.690
98214W        W70639  29.064  44.237  13.305
98215W        W70640   8.360  22.097   0.588
98216W        W70641  44.331  16.525   0.295
98217W        W70642  34.116  43.979  11.285
98218W        W70643  42.515   7.451   3.582
98219W        W70644  26.142  40.008   0.284
98220W        W70645   0.809  10.894  14.090
98221W        W70646  41.286  17.740  14.326
98222W        W70647  14.352  17.790   4.108
98223W        W70648   0.529  21.489  13.846
98224W        W70649  24.873  26.144  11.639
98225W        W70650  31.036  37.064  13.946
98226W        W70651  35.027  14.780  13.635
98227W        W70652   1.526  44.926  14.517
98228W        W70653  19.749  31.471  14.807
98229W        W70654  39.813  44.582  14.563
98230W        W70655   5.486   8.475   1.735
98231W        W70656  36.679   1.188  14.495
98232W        W70657  27.460  36.622  14.723
98233W        W70658   3.870  34.226  11.296
98234W        W70659  39.034  22.591   0.865
98235W        W70660  42.583  39.686  12.830
98236W        W70661  18.725  22.144   3.780
98237W        W70662  39.072  27.125   0.435
98238W        W70663  30.215  13.165   4.461
98239W        W70664  15.009  41.326   4.516
98240W        W70665  35.993  21.189   2.052
98241W        W70666  25.012  13.629  11.091
98242W        W70667  37.887  23.112  12.852
98243W        W70668  16.075   6.238  11.619
98244W        W70669  44.713  16.127   0.481
98245W        W70670  12.687  43.018   0.310
98246W        W70671  25.903  20.028   0.083
98247W        W70672  24.225  10.864  11.118
98248W        W70673  32.242  32.203  12.366
98249W        W70674  41.442  13.643  12.021
98250W        W70675  29.696  32.423   4.548
98251W        W70676  41.521  32.528   0.486
98252W        W70677  21.157  13.109   1.473
98253W        W70678  41.974  15.035  12.835
98254W        W70679  16.924   1.997  14.295
98255W        W70680  31.596  17.135   1.895
98256W        W70681  12.444   4.334  11.448
98257W        W70682  12.788  37.458  12.411
98258W        W70683   0.099  33.943   0.931
98259W        W70684  14.322  32.701   2.628
98260W        W70685  35.135   7.877  14.805
98261W        W70686   5.811  40.296  14.818
98262W        W70687  12.653  15.869   4.626
98263W        W70688  19.325  21.322  12.543
98264W        W70689  43.014  41.552  10.651
98265W        W70690  13.786   7.084   1.383
98266W        W70691  29.960  20.514   1.335
98267W        W70692  43.083  10.227  10.418
98268W        W70693   3.011  12.458  12.824
98269W        W70694   1.252  12.826   2.860
98270W        W70695   1.120  25.618  12.941
98271W        W70696  14.592  23.584  13.339
98272W        W70697  14.130  44.762   2.158
98273W        W70698  17.470   3.691  12.045
98274W        W70699   2.425  29.012   2.734
98275W        W70700  30.226   7.368   4.198
98276W        W70701  41.476  30.950  14.301
98277W        W70702  27.196  20.565   2.808
98278W        W70703  14.802  16.287  12.523
98279W        W70704  40.024  42.210  14.897
98280W        W70705  41.011  32.080   1.714
98281W        W70706  13.222  19.515   0.876
98282W        W70707  37.565  21.279   2.907
98283W        W70708   3.933  19.104   4.219
98284W        W70709  20.029  26.201  14.034
98285W        W70710   6.233  10.673   3.732
98286W        W70711  29.395  16.587   4.731
98287W        W70712  23.039  34.977   3.209
98288W        W70713  14.879  28.201   3.781
98289W        W70714   3.743  21.479  10.609
98290W        W70715  39.372  28.045  11.619
98291W        W70716  21.792  29.467  12.875
98292W        W70717  14.152  29.030  14.228
98293W        W70718  18.840   3.405  13.046
98294W        W70719   8.429  21.763  13.289
98295W        W70720  44.704  12.235   2.932
98296W        W70721  35.403   3.676   2.785
98297W        W70722  36.834  11.752  13.467
98298W        W70723  21.420  12.223   5.567
98299W        W70724  15.554  23.155  12.417
98300W        W70725  22.315   9.320  12.603
98301W        W70726   5.909   9.587  12.407
98302W        W70727  17.579  28.028   0.349
98303W        W70728  20.460  17.762  13.743
98304W        W70729  10.528  23.883   5.603
98305W        W70730   9.288  33.034   4.103
98306W        W70731  40.876  11.329   4.401
98307W        W70732   0.442  11.153   0.859
98308W        W70733  17.907  27.756  13.001
98309W        W70734  34.898   7.110   4.553
98310W        W70735  23.892  41.769   1.781
98311W        W70736   3.338  12.686  11.475
98312W        W70737  37.103  13.680   3.102
98313W        W70738   4.577  33.538  14.574
98314W        W70739  35.028  29.591   1.225
98315W        W70740  23.138  41.885   3.244
98316W        W70741  39.067  20.915  14.938
98317W        W70742   5.227   6.553   2.205
98318W        W70743  35.639  13.404  11.218
98319W        W70744  12.710  19.568   0.699
98320W        W70745  34.211  29.969   4.509
98321W        W70746  16.969  15.281   0.956
98322W        W70747  19.031  20.271  12.322
98323W        W70748  42.481  44.482   1.844
98324W        W70749  42.483  35.362  11.913
98325W        W70750  43.021  32.995   0.406
98326W        W70751  10.241  21.551   2.791
98327W        W70752  22.366  21.002  10.673
98328W        W70753   9.202  40.058  12.625
98329W        W70754  35.552  25.919  11.977
98330W        W70755   7.325  35.622   1.907
98331W        W70756   2.943   3.479  13.552
98332W        W70757  34.994   0.540  12.407
98333W        W70758  12.788  39.362   2.815
98334W        W70759   6.818  29.143   1.505
98335W        W70760   6.316  31.428  10.762
98336W        W70761  30.421  37.651   0.140
98337W        W70762  31.888   7.284  13.327
98338W        W70763  15.682  16.157   3.655
98339W        W70764   8.703   4.625  14.783
98340W        W70765  29.552  44.460  13.123
98341W        W70766  22.035  17.994  13.302
98342W        W70767   0.748  22.189   0.513
98343W        W70768  25.491  26.757   2.853
98344W        W70769  13.789  36.302   1.239
98345W        W70770  23.556  38.017   0.959
98346W        W70771  37.239  33.558  10.563
98347W        W70772  16.701  38.031  13.429
98348W        W70773   6.822  26.277   0.577
98349W        W70774  23.346   7.721   3.004
98350W        W70775  22.577  44.940  13.411
98351W        W70776  19.367   2.536   4.256
98352W        W70777  12.133  29.048   3.218
98353W        W70778  38.778   7.220   1.427
98354W        W70779   4.959  13.266   2.138
98355W        W70780  32.484  35.641   4.559
98356W        W70781   0.956   9.182  14.949
98357W        W70782   5.501   5.862   4.653
98358W        W70783  33.543  26.941   0.876
98359W        W70784  37.115   9.649   1.754
98360W        W70785  13.641  30.704   4.194
98361W        W70786  28.439  14.188  11.614
98362W        W70787   0.249  31.602   1.432
98363W        W70788  33.530  41.315   3.635
98364W        W70789  22.712  36.426  13.876
98365W        W70790  35.963  33.396  10.406
98366W        W70791  13.858  27.765   2.879
98367W        W70792   2.720  42.263  13.736
98368W        W70793  33.840  24.737   4.244
98369W        W70794  37.876  29.933  11.729
98370W        W70795  26.867   6.345  11.207
98371W        W70796  17.702  39.826  10.727
98372W        W70797  19.164  28.038  13.029
98373W        W70798  38.971  11.859   4.117
98374W        W70799   5.194  12.126   0.717
98375W        W70800  42.276   6.701  13.266
98376W        W70801  34.039  32.549   1.981
98377W        W70802  19.703   8.713   1.969
98378W        W70803  28.308  34.069  14.975
98379W        W70804  37.912  22.493   0.315
98380W        W70805  36.350  20.552   1.314
98381W        W70806  27.358  35.430   4.175
98382W        W70807   2.260  39.008  14.064
98383W        W70808  26.293  14.909  10.763
98384W        W70809  35.285   5.463  14.862
98385W        W70810  29.091  30.941  10.717
98386W        W70811  22.227  25.329  14.592
98387W        W70812  10.442  20.969   1.982
98388W        W70813   7.543  40.552  12.656
98389W        W70814   4.207  12.968   3.859
98390W        W70815  25.153   9.486   3.368
98391W        W70816   9.272   9.658  12.145
98392W        W70817  44.234  32.324   3.701
98393W        W70818  41.460  36.353   0.825
98394W        W70819  13.321  31.575  14.809
98395W        W70820  18.699  14.001   0.888
98396W        W70821  25.372  33.696  10.098
98397W        W70822  37.491  22.741  12.547
98398W        W70823  20.722  34.883   4.305
98399W        W70824  27.500  43.498  11.112
98400W        W70825  30.045  42.000   2.927
98401W        W70826   7.915  12.297  11.562
98402W        W70827   3.255   9.889   3.103
98403W        W70828  14.874  26.412  10.423
98404W        W70829  33.789  44.713   2.263
98405W        W70830  23.471  20.758  11.457
98406W        W70831  23.662   4.453   1.667
98407W        W70832  15.852  31.883  12.518
98408W        W70833   4.219  28.574  14.788
98409W        W70834  30.066  39.109   9.902
98410W        W70835  31.960   0.806  12.929
98411W        W70836  39.602  21.580  13.390
98412W        W70837   8.121  15.386   2.429
98413W        W70838  32.020  43.110  12.981
98414W        W70839   5.964  15.774   3.296
98415W        W70840  40.964   4.370   2.582
98416W        W70841  11.727   0.333  11.166
98417W        W70842  15.610  26.545   1.632
98418W        W70843  17.873   6.848  12.374
98419W        W70844  11.632  36.847  14.887
98420W        W70845   6.275  40.092  14.477
98421W        W70846   5.652  37.482   4.437
98422W        W70847  44.041   6.290   2.843
98423W        W70848  25.621  23.967  14.497
98424W        W70849  25.455  36.517  13.383
98425W        W70850  13.549  38.856   2.783
98426W        W70851   3.415   3.940   3.175
98427W        W70852  19.716  21.078  13.234
98428W        W70853  16.841  10.294   4.170
98429W        W70854  26.375  26.246   0.394
98430W        W70855  39.259  37.980  13.955
98431W        W70856  11.778  22.502   2.613
98432W        W70857   3.145  37.488   2.379
98433W        W70858  14.133  23.303   4.727
98434W        W70859   8.250  11.121  11.490
98435W        W70860   5.526  14.186   0.421
98436W        W70861   3.513   4.137   3.725
98437W        W70862  36.006  26.816   1.371
98438W        W70863  37.067   6.140   2.765
98439W        W70864   0.218  32.511  14.546
98440W        W70865  11.176  31.578   1.942
98441W        W70866  18.307  11.255   0.686
98442W        W70867  10.975  21.054   4.244
98443W        W70868  18.157  10.322  10.625
98444W        W70869  18.655  41.031  12.116
98445W        W70870  17.107  12.247   4.546
98446W        W70871   8.242  41.451   2.178
98447W        W70872  13.575  38.160  13.223
98448W        W70873  17.267  25.745  13.764
98449W        W70874  37.427   0.214   2.267
98450W        W70875  32.893  16.722  14.431
98451W        W70876  17.187  41.580  14.858
98452W        W70877  36.025  33.830   2.622
98453W        W70878  27.882  34.951   0.286
98454W        W70879   3.944  28.096   3.756
98455W        W70880  39.354  39.338  14.855
98456W        W70881  25.498  32.993  14.055
98457W        W70882  18.065  40.976   4.544
98458W        W70883  42.537  29.029   3.851
98459W        W70884   1.906  44.414   3.617
98460W        W70885   7.351  16.148   1.717
98461W        W70886  29.346  12.141  12.062
98462W        W70887  32.529   3.392   1.856
98463W        W70888  21.644  43.412  10.740
98464W        W70889  26.969  42.973   1.333
98465W        W70890  19.566  26.535   5.035
98466W        W70891  25.542  11.573  11.505
98467W        W70892   0.205  42.910   3.263
98468W        W70893  11.091   7.654   3.120
98469W        W70894  14.887  16.079  11.102
98470W        W70895   0.494  42.033   3.325
98471W        W70896   6.410  11.499   4.002
98472W        W70897  44.400  32.339   2.434
98473W        W70898  32.132   8.952   0.415
98474W        W70899  31.238   9.341  10.715
98475W        W70900  10.012   2.494   1.638
98476W        W70901  35.360   1.926   4.569
98477W        W70902  35.182  30.138   0.852
98478W        W70903  20.798   1.310  14.787
98479W        W70904  21.570   1.272  13.974
98480W        W70905  26.176  38.385   1.830
98481W        W70906  33.117  21.168   4.603
98482W        W70907   1.244  18.035  13.421
98483W        W70908  18.513  24.201   0.767
98484W        W70909  30.065   6.377  14.860
98485W        W70910  26.478  36.043   1.440
98486W        W70911  38.351  16.049  12.545
98487W        W70912   8.498   9.283   2.650
98488W        W70913  35.497   0.344  12.436
98489W        W70914   0.478  39.565   0.958
98490W        W70915  23.773  12.211   1.839
98491W        W70916  17.548  29.015   1.696
98492W        W70917   8.886  30.250   0.751
98493W        W70918  25.978  13.791   3.183
98494W        W70919  20.768  36.846   1.904
98495W        W70920  38.756  35.838  12.584
98496W        W70921   8.393  44.962   2.781
98497W        W70922  10.539  12.264  12.967
98498W        W70923  39.334  39.346  13.395
98499W        W70924   3.755  26.761  12.184
98500W        W70925  44.984  28.947   0.987
98501W        W70926  31.066  12.789  12.952
98502W        W70927  23.648  10.749  13.018
98503W        W70928   7.453  17.893  10.350
98504W        W70929  16.411  38.102   4.194
98505W        W70930  27.011  11.023  10.587
98506W        W70931  12.195  18.114  12.900
98507W        W70932  43.886   7.837  14.067
98508W        W70933  22.477  44.190  10.914
98509W        W70934  40.437  23.685   3.723
98510W        W70935   8.770   4.301   3.687
98511W        W70936  44.878   3.549  12.387
98512W        W70937  12.884  28.634  14.579
98513W        W70938  15.853   3.582  14.291
98514W        W70939  22.219  11.074  13.514
98515W        W70940  30.067  29.468   0.225
98516W        W70941  31.195  34.030  13.459
98517W        W70942  44.698  30.927  14.054
98518W        W70943  34.843  27.643  11.043
98519W        W70944  24.563  23.010   2.442
98520W        W70945  16.628  20.688   4.783
98521W        W70946  27.558  15.331  10.828
98522W        W70947   0.646  41.913  11.386
98523W        W70948  38.793  23.852   5.103
98524W        W70949  39.661  39.668  11.070
98525W        W70950  33.921  33.858   3.584
98526W        W70951  10.214  24.017   0.324
98527W        W70952  26.165  19.088  14.953
98528W        W70953   0.211  34.293  12.557
98529W        W70954   4.297  34.443  13.711
98530W        W70955  17.745  37.913  14.031
98531W        W70956   2.276   6.589  14.273
98532W        W70957  11.238   6.660   4.753
98533W        W70958  19.944  36.026   2.882
98534W        W70959  24.356   4.399  13.523
98535W        W70960  40.028  14.811  14.785
98536W        W70961  39.953   8.724  14.925
98537W        W70962   8.002  36.956   3.939
98538W        W70963  44.903  16.710   1.916
98539W        W70964  40.503  14.435  12.166
98540W        W70965  16.041  31.083   1.285
98541W        W70966  42.551   6.336   0.845
98542W        W70967  15.388   7.112  13.108
98543W        W70968   1.922  20.454  14.822
98544W        W70969  38.359   8.474   4.605
98545W        W70970   9.692  32.658  10.561
98546W        W70971   6.265  35.491   4.081
98547W        W70972  13.279   3.730   2.359
98548W        W70973  44.271  10.816   2.839
98549W        W70974  35.538  38.304   0.769
98550W        W70975  26.937  44.318  12.936
98551W        W70976   5.384  25.566  12.899
98552W        W70977  15.704  21.704  10.976
98553W        W70978  11.373  30.848   4.016
98554W        W70979  36.983  40.357  11.953
98555W        W70980   1.584  41.255   2.274
98556W        W70981   6.343  44.874   0.838
98557W        W70982  29.105  15.612   2.224
98558W        W70983  42.570  43.045  14.433
98559W        W70984  17.003  35.411  10.502
98560W        W70985  11.148   8.319   1.949
98561W        W70986  12.101   9.695   3.649
98562W        W70987   1.825   9.304   1.549
98563W        W70988  18.064  11.862   1.357
98564W        W70989   7.854  13.924   3.708
98565W        W70990  40.760  41.993   2.738
98566W        W70991  44.367  22.242   2.327
98567W        W70992   7.882  20.137   1.458
98568W        W70993  37.287  35.199  12.024
98569W        W70994  38.187  26.945   0.800
98570W        W70995   1.352   6.053  12.420
98571W        W70996  44.879  39.779   2.260
98572W        W70997   1.484  29.981   1.799
98573W        W70998   6.763  25.570   2.474
98574W        W70999  42.473  10.883   2.415
98575W        W71000  38.823  21.564  13.841
98576W        W71001  27.698   6.681  14.753
98577W        W71002  29.353  41.667   1.204
98578W        W71003  19.587   7.365  14.244
98579W        W71004  32.860  43.679  14.464
98580W        W71005  16.264   5.154  14.750
98581W        W71006  16.040  27.934  14.424
98582W        W71007  20.768  13.787  14.415
98583W        W71008  36.622  19.199   1.572
98584W        W71009  21.819  27.365  11.150
98585W        W71010  14.364  19.051  14.365
98586W        W71011  41.584  39.506  12.860
98587W        W71012   5.286  13.021  14.998
98588W        W71013  28.831   3.459   1.180
98589W        W71014  34.910  43.336  12.008
98590W        W71015  43.170  41.577   2.832
98591W        W71016  43.392  11.915  11.844
98592W        W71017  31.077  21.593  14.761
98593W        W71018  30.916  31.132  14.000
98594W        W71019  23.975   8.774   5.027
98595W        W71020  24.460   4.868  12.377
98596W        W71021  22.909   9.444   4.140
98597W        W71022   0.319   9.607   0.129
98598W        W71023   3.025  31.268  14.784
98599W        W71024   9.918   3.050  14.854
98600W        W71025   1.225   5.634  14.111
98601W        W71026  39.309  14.163  11.119
98602W        W71027   5.747  13.667  12.592
98603W        W71028   5.205   1.804  10.761
98604W        W71029  29.966  39.929  13.906
98605W        W71030  11.711   2.887  10.997
98606W        W71031  16.679  31.901   3.911
98607W        W71032  20.206  19.960  11.148
98608W        W71033  17.731   5.948   0.422
98609W        W71034  39.029  39.399   2.641
98610W        W71035  33.635  24.836  10.478
98611W        W71036   3.533  43.308   2.223
98612W        W71037  43.973  13.741   3.888
98613W        W71038  10.138  15.314  11.138
98614W        W71039  20.081  21.740  12.475
98615W        W71040  29.526  25.441   4.502
98616W        W71041  42.302  28.708   0.501
98617W        W71042  43.759  30.120   4.627
98618W        W71043   4.616   3.651   0.340
98619W        W71044  25.666  16.083   4.236
98620W        W71045  37.818  38.421   3.806
98621W        W71046   6.396   4.965   0.980
98622W        W71047   0.782  16.766  12.614
98623W        W71048  16.539  19.787  12.827
98624W        W71049  14.946  26.237  14.945
98625W        W71050  10.865  29.514   2.510
98626W        W71051  23.184  27.632  12.517
98627W        W71052  27.347   4.232  12.554
98628W        W71053  39.615  18.349  12.488
98629W        W71054   7.329  33.899  11.975
98630W        W71055  30.913  23.140  13.284
98631W        W71056  25.694  15.299  14.389
98632W        W71057  22.509  31.639   3.347
98633W        W71058  17.852  17.347   1.792
98634W        W71059  35.072  11.660  12.484
98635W        W71060  39.721  12.167  14.331
98636W        W71061   3.656   0.014  13.496
98637W        W71062  10.336  33.953  12.295
98638W        W71063  15.686  25.232  12.219
98639W        W71064  43.551   1.222   2.965
98640W        W71065  38.762   3.365   0.514
98641W        W71066  36.361  15.714  14.364
98642W        W71067  32.510  23.088   2.988
98643W        W71068  40.073  17.581   1.233
98644W        W71069  32.191  12.272  10.686
98645W        W71070  38.868   1.939  14.928
98646W        W71071   9.369   8.130  13.021
98647W        W71072  10.345   0.800   0.023
98648W        W71073   7.947  25.146   1.626
98649W        W71074   7.452   8.463  11.952
98650W        W71075  21.057  12.854  11.352
98651W        W71076  29.615  23.136   1.914
98652W        W71077   8.388  23.476   4.511
98653W        W71078  12.829  22.037  14.325
98654W        W71079  12.298  23.906   2.262
98655W        W71080  22.905  43.728   1.807
98656W        W71081  15.263   9.203   2.123
98657W        W71082  34.752  13.153   2.819
98658W        W71083  37.614  29.199   2.707
98659W        W71084  11.601  19.926  10.353
98660W        W71085  11.726  35.868  14.842
98661W        W71086  14.822   0.490   1.351
98662W        W71087   8.734  35.428  12.926
98663W        W71088   6.288  39.326  13.939
98664W        W71089  14.846  15.138   2.529
98665W        W71090   4.864   0.860  14.969
98666W        W71091  39.063  27.401  13.088
98667W        W71092  28.908  38.475   5.002
98668W        W71093   8.134   1.816  13.574
98669W        W71094   6.348  26.269   2.829
98670W        W71095  14.789   6.877   3.750
98671W        W71096  18.778  23.921   0.325
98672W        W71097  17.617  21.586  10.431
98673W        W71098  39.351  10.910  14.892
98674W        W71099  25.550  38.885   2.448
98675W        W71100  18.174  38.808  13.778
98676W        W71101  44.063  44.847  11.113
98677W        W71102  16.446  34.114   1.808
98678W        W71103  22.190  12.097   0.846
98679W        W71104  36.616  21.943   1.322
98680W        W71105   9.841  17.652  11.103
98681W        W71106   3.980   8.135  12.358
98682W        W71107  23.871  28.626  10.413
98683W        W71108   9.592   1.437  13.464
98684W        W71109   5.636  22.637   3.172
98685W        W71110   1.073  11.181  10.914
98686W        W71111  40.935  34.857   1.349
98687W        W71112  19.853  22.084  10.447
98688W        W71113  25.003  41.098   3.296
98689W        W71114  21.344  14.869  12.442
98690W        W71115  21.172  24.434  10.997
98691W        W71116   8.463  26.500   4.726
98692W        W71117  29.591  33.094   1.921
98693W        W71118  41.505  29.628  12.508
98694W        W71119  21.109  26.416  14.440
98695W        W71120   4.700  25.276   4.074
98696W        W71121   2.372   4.295  10.329
98697W        W71122  42.318  12.109   3.736
98698W        W71123  17.208  44.692   4.145
98699W        W71124  40.429   3.800  11.453
98700W        W71125  12.588   3.812  10.150
98701W        W71126  11.462  38.186  14.357
98702W        W71127  30.835   8.692  11.563
98703W        W71128  31.561   6.305   4.754
98704W        W71129  41.487  11.639  10.724
98705W        W71130  33.104   5.238  14.288
98706W        W71131  38.501   2.549  12.253
98707W        W71132  18.871  17.847   3.195
98708W        W71133  14.115  16.942  10.612
98709W        W71134  22.083   9.369   4.962
98710W        W71135  11.207  42.534   5.138
98711W        W71136  11.070  40.383  14.003
98712W        W71137   8.703  40.910   2.690
98713W        W71138  13.601  41.090  14.486
98714W        W71139  36.090  20.499  10.480
98715W        W71140  24.510   4.371   1.014
98716W        W71141  39.767  20.799  11.204
98717W        W71142  33.580  29.412   5.354
98718W        W71143  17.963  14.380   0.159
98719W        W71144  11.532   9.704   2.352
98720W        W71145  31.095  16.804  11.557
98721W        W71146  11.593  38.962  13.316
98722W        W71147   7.388   5.114  11.109
98723W        W71148  33.800   1.054   4.683
98724W        W71149  13.705  40.343  12.164
98725W        W71150   6.611  12.276   0.863
98726W        W71151  35.056  37.446   2.806
98727W        W71152  44.817  26.479   3.291
98728W        W71153  30.678  30.647   0.894
98729W        W71154   3.255  12.580  12.366
98730W        W71155  43.483   1.476   3.417
98731W        W71156  21.094  31.499  13.509
98732W        W71157  25.649  41.239   4.611
98733W        W71158   2.205  24.142  13.757
98734W        W71159  27.962   1.210  11.479
98735W        W71160  14.129   0.237   4.446
98736W        W71161  16.166  38.587   4.097
98737W        W71162  29.989  11.727  11.067
98738W        W71163   4.372  41.859  14.615
98739W        W71164  39.797   7.707  12.553
98740W        W71165  36.314  34.623   1.884
98741W        W71166  37.333  22.996  12.118
98742W        W71167  33.063  44.077   0.408
98743W        W71168  17.832   3.899  11.098
98744W        W71169  21.180   2.666   1.449
98745W        W71170  12.304  37.577   2.449
98746W        W71171  34.439  42.791   4.260
98747W        W71172  16.937   0.707   0.924
98748W        W71173   9.086  20.293  12.129
98749W        W71174  31.978   1.465  12.111
98750W        W71175  20.848  44.069   2.493
98751W        W71176  40.391  14.711  10.603
98752W        W71177  39.484  21.263   0.633
98753W        W71178  20.348  10.911   3.248
98754W        W71179  17.863  23.761   3.256
98755W        W71180  40.148  24.735  11.535
98756W        W71181   0.312  37.594   2.199
98757W        W71182  32.635  35.116  13.471
98758W        W71183  15.303  17.842  12.161
98759W        W71184  34.788  12.134   3.729
98760W        W71185  41.276   3.646   4.540
98761W        W71186  22.351  11.119  10.408
98762W        W71187  41.847   2.794   4.591
98763W        W71188  34.331   4.483   4.686
98764W        W71189  33.563  26.704   0.311
98765W        W71190   9.196   2.294   3.520
98766W        W71191  43.303  17.590   3.252
98767W        W71192   8.109  17.251   0.973
98768W        W71193  25.712  31.969  11.495
98769W        W71194  38.599  14.082   4.124
98770W        W71195  12.885   2.640   1.360
98771W        W71196  31.396  35.694  13.078
98772W        W71197  33.411  44.880  12.939
98773W        W71198   2.305   4.845   1.632
98774W        W71199  43.111  14.785   2.450
98775W        W71200  42.312  17.630  14.413
98776W        W71201  34.410  21.509   3.298
98777W        W71202  36.417  40.411  12.781
98778W        W71203  36.329  15.224  14.204
98779W        W71204  15.019  16.602   1.346
98780W        W71205  35.727  35.627  12.917
98781W        W71206  36.979  15.145   4.806
98782W        W71207  26.516   0.328   0.057
98783W        W71208   2.528  12.867   4.049
98784W        W71209  24.440  30.375  12.468
98785W        W71210  21.073  41.261   1.847
98786W        W71211  32.538  41.998  12.054
98787W        W71212  20.030  38.776   2.590
98788W        W71213  30.099   3.531  13.360
98789W        W71214  43.445  42.260   3.572
98790W        W71215  21.498  40.823  13.842
98791W        W71216  14.816  41.396   4.018
98792W        W71217   5.887  18.311   4.758
98793W        W71218  39.513  29.937  11.908
98794W        W71219  23.150  32.051   2.007
98795W        W71220  14.785  44.942   1.453
98796W        W71221  11.807   1.028  11.623
98797W        W71222  44.924  38.938  12.788
98798W        W71223   3.884  40.781   0.947
98799W        W71224  19.029  39.852   2.147
98800W        W71225  33.002   3.157   2.910
98801W        W71226  39.950  15.220   2.928
98802W        W71227  31.608  29.798   1.184
98803W        W71228  17.276  22.767  10.675
98804W        W71229   4.465  19.029  10.677
98805W        W71230   9.699  15.086   0.079
98806W        W71231  22.409   2.824   4.818
98807W        W71232  10.372  16.209  10.784
98808W        W71233  11.171  17.510  13.834
98809W        W71234  14.190  33.908   5.127
98810W        W71235  19.570   0.840   1.694
98811W        W71236  11.114  30.056  13.901
98812W        W71237  41.574  30.454   4.182
98813W        W71238  26.225  25.059  10.614
98814W        W71239  38.961   8.763   1.529
98815W        W71240  26.470  27.614  12.910
98816W        W71241  28.358  16.550  10.709
98817W        W71242  12.827  17.671  10.688
98818W        W71243  30.368  21.647   2.470
98819W        W71244   4.914  14.730   0.676
98820W        W71245  29.552  11.765   0.385
98821W        W71246   7.093   2.933  12.622
98822W        W71247   9.870  16.712  13.492
98823W        W71248   5.475  23.993  11.429
98824W        W71249  27.706  37.232   2.743
98825W        W71250   6.123  30.503   4.464
98826W        W71251   1.864  36.447   1.683
98827W        W71252   1.304   1.925  10.657
98828W        W71253  15.950   9.218   3.923
98829W        W71254  37.657  12.091   3.725
98830W        W71255   6.265   2.402  12.814
98831W        W71256  15.529  10.865  14.796
98832W        W71257  16.176  39.592  12.625
98833W        W71258  23.913  22.065   1.837
98834W        W71259  34.497   7.256  10.973
98835W        W71260  33.653   2.799   0.703
98836W        W71261  33.354  43.290  14.297
98837W        W71262   2.436  39.612   1.818
98838W        W71263  17.045   1.285  14.781
98839W        W71264   4.961   0.361  14.903
98840W        W71265  26.197  25.274  12.991
98841W        W71266  15.139  24.795   2.247
98842W        W71267   4.344  12.651   1.906
98843W        W71268  31.233  41.614  13.911
98844W        W71269   0.920  16.386   4.101
98845W        W71270  22.145  43.994   2.207
98846W        W71271  11.930  23.299  14.695
98847W        W71272  20.713  17.678  13.293
98848W        W71273  10.257  31.458  12.577
98849W        W71274   2.274  34.975   4.519
98850W        W71275  19.646  38.459   3.662
98851W        W71276  21.219   8.688  12.980
98852W        W71277  13.436  34.138  10.713
98853W        W71278  35.211  21.183   5.070
98854W        W71279  24.426   6.753  13.340
98855W        W71280  21.847   0.472   1.767
98856W        W71281   9.089  14.842  13.586
98857W        W71282  33.955  22.510  10.618
98858W        W71283   4.760   1.027  12.507
98859W        W71284  24.703  11.796  13.467
98860W        W71285  26.942  21.900  14.983
98861W        W71286  16.249  10.339  13.828
98862W        W71287  40.522   9.596   2.809
98863W        W71288  34.129   3.492  12.942
98864W        W71289   9.685  29.587  12.249
98865W        W71290  13.114  15.919   4.393
98866W        W71291   1.673  19.116   3.950
98867W        W71292  33.783   3.491   0.238
98868W        W71293   8.405   8.804  14.868
98869W        W71294  17.137  37.794  13.551
98870W        W71295  22.401  29.014   9.796
98871W        W71296  36.400  20.289  11.619
98872W        W71297  33.243  30.565  11.471
98873W        W71298  27.445  11.026  11.134
98874W        W71299  24.944   9.732   0.750
98875W        W71300  10.270  26.554  13.370
98876W        W71301  42.676  18.547   2.117
98877W        W71302  26.340  38.592   5.335
98878W        W71303   5.303  35.546  14.548
98879W        W71304  32.891  28.930   3.707
98880W        W71305   0.871  17.811   4.218
98881W        W71306  24.966  12.626   1.437
98882W        W71307   6.848  28.649   0.188
98883W        W71308  37.452  19.677  10.245
98884W        W71309   9.923  22.514  14.794
98885W        W71310   4.808  43.099   1.377
98886W        W71311  10.469   2.234   1.607
98887W        W71312  24.526  39.070   0.180
98888W        W71313  16.109  25.715  13.473
98889W        W71314   5.683  15.594  12.692
98890W        W71315  23.647  41.560  11.678
98891W        W71316  13.668  11.849  14.014
98892W        W71317  39.487  36.809  11.968
98893W        W71318  26.599   1.300   2.782
98894W        W71319  42.258   0.350   3.173
98895W        W71320  31.984  39.020  13.205
98896W        W71321  31.509   0.688   3.314
98897W        W71322  30.091  23.271   1.719
98898W        W71323  30.538  36.860  12.864
98899W        W71324  37.437  30.999  12.946
98900W        W71325  22.486  15.680  14.918
98901W        W71326  20.753  22.762  13.518
98902W        W71327  41.282   0.865   0.522
98903W        W71328  41.895  42.831   0.215
98904W        W71329  22.537  32.994  14.968
98905W        W71330  15.084  22.541  12.525
98906W        W71331  21.519  25.026   1.845
98907W        W71332   4.293  24.304   3.204
98908W        W71333  13.910  35.074   2.704
98909W        W71334  27.542  38.968  13.012
98910W        W71335  31.087  36.331  11.643
98911W        W71336   1.796  25.197   0.367
98912W        W71337  36.953  42.240   4.169
98913W        W71338   9.442  40.887   0.945
98914W        W71339   0.974  33.577   3.109
98915W        W71340   8.866  42.729  14.915
98916W        W71341  42.564  16.658  11.288
98917W        W71342  40.774  38.880  14.335
98918W        W71343   5.616  27.668  11.011
98919W        W71344   6.323  10.141   1.161
98920W        W71345  30.204   3.349   0.022
98921W        W71346  44.280  15.707   5.090
98922W        W71347   6.911  44.830  12.929
98923W        W71348  13.534  43.987  10.700
98924W        W71349  43.979  39.718  10.631
98925W        W71350  26.999   2.279   4.674
98926W        W71351  15.176   7.214   2.868
98927W        W71352   0.347   7.063   0.474
98928W        W71353  31.031  16.821  12.421
98929W        W71354  19.605  32.588  11.475
98930W        W71355  34.287   5.215  13.960
98931W        W71356  18.380  30.648   2.338
98932W        W71357  18.792  22.184   1.016
98933W        W71358  27.522  26.128   1.902
98934W        W71359   7.699  12.771   4.230
98935W        W71360  23.243  21.522  14.351
98936W        W71361   9.713  29.428  12.952
98937W        W71362  13.296  36.107  10.090
98938W        W71363  41.913  14.627   4.797
98939W        W71364  36.208  24.574   3.829
98940W        W71365  21.205  18.347   2.231
98941W        W71366   6.795   3.957  10.394
98942W        W71367  35.260  39.540   4.818
98943W        W71368  21.733   4.870  12.945
98944W        W71369   2.254   5.329   2.792
98945W        W71370  25.467  32.321   4.609
98946W        W71371   6.573  40.778   4.076
98947W        W71372  12.649  17.992   0.911
98948W        W71373  25.975  27.544  13.088
98949W        W71374  42.841  25.370   4.457
98950W        W71375  31.997   5.891  14.043
98951W        W71376   7.395  42.032  11.725
98952W        W71377  24.174   5.693  13.911
98953W        W71378  19.055  35.314  12.060
98954W        W71379   4.809  15.138   0.974
98955W        W71380  35.307   1.563  14.455
98956W        W71381  34.056  29.185  10.983
98957W        W71382  29.240  41.468   0.741
98958W        W71383  42.969   9.010   1.874
98959W        W71384  19.158  29.929   0.240
98960W        W71385   9.092  38.013  11.547
98961W        W71386  36.094  40.763  11.271
98962W        W71387   3.572  43.923  11.243
98963W        W71388  24.596  20.673   2.720
98964W        W71389  20.802   1.613  14.358
98965W        W71390  11.730  33.926   1.084
98966W        W71391  16.285  33.680   4.216
98967W        W71392  32.590  11.682  10.196
98968W        W71393   4.583  17.267  11.608
98969W        W71394  32.113  31.616   0.545
98970W        W71395  28.486  10.350  14.789
98971W        W71396   0.225  24.475   2.356
98972W        W71397  28.623   7.042  13.365
98973W        W71398   7.313  21.178   1.802
98974W        W71399   0.747  43.720   2.089
98975W        W71400  10.189  13.632  14.819
98976W        W71401   9.112  10.306   4.041
98977W        W71402  41.486  42.154   1.714
98978W        W71403  37.449  18.048  13.455
98979W        W71404   7.891  41.823  12.573
98980W        W71405  16.343   3.119   4.162
98981W        W71406   6.236   2.683  14.382
98982W        W71407  28.082  44.334  10.611
98983W        W71408  19.138  42.146   3.729
98984W        W71409  27.101  41.415  10.674
98985W        W71410   1.062   1.274  10.889
98986W        W71411   2.915   1.770  13.436
98987W        W71412  29.558  23.734  13.322
98988W        W71413  16.596  39.295  12.306
98989W        W71414  24.613  11.324   0.400
98990W        W71415   0.178   5.604  14.803
98991W        W71416   6.022  10.941   4.149
98992W        W71417  38.535  19.670  11.268
98993W        W71418  23.443  39.531  12.008
98994W        W71419  32.367  23.319   3.858
98995W        W71420  29.732   2.537  11.070
98996W        W71421  36.993   4.016  13.858
98997W        W71422  13.410  20.472   3.633
98998W        W71423  11.263  32.662  12.653
98999W        W71424  19.839  42.910  10.457
99000W        W71425  18.151  20.309  14.046
99001W        W71426   9.648   5.650  11.118
99002W        W71427  44.286  44.690   2.740
99003W        W71428   5.775  14.273  13.961
99004W        W71429  43.416  35.586  12.504
99005W        W71430  37.301  33.105   4.819
99006W        W71431  22.726  34.987  13.936
99007W        W71432  29.912  43.315   2.878
99008W        W71433   5.676   5.474   0.273
99009W        W71434  22.450  42.960   4.064
99010W        W71435  13.582  12.273  11.513
99011W        W71436  25.683  12.056  11.529
99012W        W71437  26.596  20.332  13.741
99013W        W71438  27.450  43.228   1.410
99014W        W71439  34.814  11.928  12.122
99015W        W71440  41.560   8.239   1.454
99016W        W71441   8.792  12.381  12.473
99017W        W71442  28.442  44.859   3.656
99018W        W71443  23.143  18.527   0.011
99019W        W71444  30.049   1.288  11.883
99020W        W71445   7.989   1.208  11.068
99021W        W71446  23.293   8.442   0.312
99022W        W71447   4.388  35.433  13.978
99023W        W71448  27.699   1.897   3.491
99024W        W71449  21.990  15.725  14.947
99025W        W71450  33.808  34.965   2.354
99026W        W71451  27.056  23.461   2.386
99027W        W71452  23.331  30.031  13.405
99028W        W71453   5.745  12.244   4.053
99029W        W71454  19.805   0.018   1.987
99030W        W71455  14.516  28.039   2.213
99031W        W71456  12.784  23.003  10.549
99032W        W71457  40.259   4.846  10.821
99033W        W71458  35.916  27.481  10.676
99034W        W71459  39.061  22.715  10.648
99035W        W71460   8.429  29.525  12.604
99036W        W71461   5.199   3.403  11.151
99037W        W71462  37.629  29.052  14.059
99038W        W71463  41.811  17.191  10.392
99039W        W71464  43.271  21.602   5.682
99040W        W71465  16.051  27.190   3.205
99041W        W71466  18.104  38.390  10.631
99042W        W71467  38.472  14.687  14.082
99043W        W71468   1.209   0.833   0.037
99044W        W71469   9.463  29.016  10.667
99045W        W71470  18.507   6.142  13.518
99046W        W71471  16.674  22.081   0.796
99047W        W71472  26.546   8.471   2.361
99048W        W71473  11.008  43.771  13.107
99049W        W71474  25.896   6.835   0.723
99050W        W71475  20.650  24.461   0.994
99051W        W71476   5.465  40.557   0.819
99052W        W71477  12.214  30.373  10.733
99053W        W71478   6.713   0.407  14.902
99054W        W71479  37.906  14.830   0.784
99055W        W71480  29.937  41.743  10.421
99056W        W71481  22.022  44.988   4.050
99057W        W71482  17.582   8.676  12.407
99058W        W71483  28.826  36.635  11.952
99059W        W71484  41.094  14.654   4.175
99060W        W71485  23.647  17.221  13.828
99061W        W71486   1.334  30.643   1.520
99062W        W71487   9.589   8.235   2.395
99063W        W71488  26.990  35.939   2.706
99064W        W71489   4.901  13.400   1.639
99065W        W71490  24.468   1.816   1.021
99066W        W71491  38.845  28.273   0.453
99067W        W71492  22.198  34.104   0.546
99068W        W71493  38.386  33.709  11.549
99069W        W71494  23.960  41.533  13.350
99070W        W71495   4.217  43.837   2.094
99071W        W71496  18.274  20.084   1.110
99072W        W71497  26.116  21.568  13.646
99073W        W71498  41.893  34.420  11.095
99074W        W71499  41.573  25.514  12.938
99075W        W71500   0.461  28.182   1.158
99076W        W71501  36.738  16.539  13.886
99077W        W71502  24.519  41.512  13.429
99078W        W71503  11.229  43.362  11.108
99079W        W71504  21.186  24.661  14.318
99080W        W71505  41.517  25.532   0.252
99081W        W71506  11.354   3.304   4.912
99082W        W71507  12.760  33.167   2.714
99083W        W71508   2.257  36.425   1.346
99084W        W71509  42.528  18.560  11.026
99085W        W71510  29.429  32.139   4.157
99086W        W71511  32.339  23.615   2.146
99087W        W71512  32.552  27.997   1.700
99088W        W71513   7.261  15.157   4.571
99089W        W71514  41.232  35.036   0.442
99090W        W71515  21.120  24.828  12.316
99091W        W71516   7.195  16.563  13.442
99092W        W71517  25.557  21.001   0.760
99093W        W71518  23.282  29.198  12.529
99094W        W71519  14.043  23.496   4.243
99095W        W71520  35.374  29.586   0.022
99096W        W71521  40.543   0.255   4.535
99097W        W71522  28.380  37.986   2.417
99098W        W71523  32.858  17.438   0.176
99099W        W71524  38.749   8.393   0.543
99100W        W71525  43.839   2.287  14.807
99101W        W71526  12.658  10.795   3.220
99102W        W71527  33.808   9.163   3.157
99103W        W71528   2.383  29.750  11.892
99104W        W71529  39.450   7.620  13.756
99105W        W71530  22.637  37.678  12.511
99106W        W71531  29.755  35.894   2.274
99107W        W71532  21.566  37.958  11.675
99108W        W71533  24.171  25.157   2.778
99109W        W71534  19.556   2.004  14.812
99110W        W71535  11.366  33.075  10.515
99111W        W71536  31.516  32.401   0.944
99112W        W71537  23.895  34.601   3.117
99113W        W71538  13.376   2.972   3.460
99114W        W71539   5.863   7.617  14.793
99115W        W71540  14.869  25.333   4.352
99116W        W71541  40.309  12.172   4.130
99117W        W71542  39.759  36.032  14.494
99118W        W71543   6.752   7.362  13.718
99119W        W71544  37.056  29.656  11.911
99120W        W71545  44.339  11.443  11.157
99121W        W71546  33.215  41.985  14.845
99122W        W71547   9.443  18.446  11.524
99123W        W71548  36.824  27.493   2.421
99124W        W71549  41.113  29.683  12.837
99125W        W71550  34.434  32.445   2.329
99126W        W71551  28.029  33.052  12.760
99127W        W71552  25.289  25.437   0.716
99128W        W71553  42.359  23.649   1.261
99129W        W71554  37.607  29.544  11.983
99130W        W71555  29.047  21.866  10.532
99131W        W71556   8.282  30.668   1.558
99132W        W71557  12.683  25.067  12.226
99133W        W71558   2.413  11.793  10.779
99134W        W71559  15.159  23.550   2.430
99135W        W71560   3.748  25.158  12.995
99136W        W71561  40.308  13.122  13.772
99137W        W71562  31.431  42.416   1.573
99138W        W71563  43.166   5.709  11.997
99139W        W71564  27.600   2.582   1.361
99140W        W71565   7.886   9.409   1.268
99141W        W71566  17.547  44.552  14.864
99142W        W71567  14.468   0.874  12.557
99143W        W71568  16.112  40.377  13.053
99144W        W71569  18.344  33.496   5.482
99145W        W71570  36.811  36.453  13.122
99146W        W71571  20.440  28.937  14.660
99147W        W71572  19.300  22.301  12.478
99148W        W71573  15.614   3.021   0.086
99149W        W71574   1.180  39.395   3.317
99150W        W71575  37.710   9.946  13.685
99151W        W71576  42.564  14.666  11.987
99152W        W71577  37.632  44.369   2.823
99153W        W71578   0.164  34.634  13.859
99154W        W71579  27.553   1.468  11.617
99155W        W71580  32.445  28.077  11.249
99156W        W71581  43.843  42.572  11.072
99157W        W71582  17.060  11.875   2.787
99158W        W71583  33.528  14.769   4.975
99159W        W71584  12.205  30.298   4.554
99160W        W71585  11.203  28.506  11.080
99161W        W71586  17.788  14.510  13.814
99162W        W71587  44.705   5.759  10.515
99163W        W71588   3.997   7.611  12.459
99164W        W71589  22.272  12.691  11.389
99165W        W71590  10.639  15.245   0.327
99166W        W71591  40.472  35.239  12.095
99167W        W71592  23.985  17.774   3.756
99168W        W71593  11.337  14.375  11.043
99169W        W71594  40.841  37.775  13.494
99170W        W71595  28.713  10.128   3.018
99171W        W71596  25.533   5.793  14.815
99172W        W71597  39.061  28.089   2.401
99173W        W71598  25.248  12.409  12.388
99174W        W71599  17.172   6.831  14.517
99175W        W71600  26.024   4.376   2.876
99176W        W71601   1.698   6.353   1.688
99177W        W71602  31.942  40.332   0.748
99178W        W71603   3.001   6.645   3.039
99179W        W71604  20.781  34.892  13.520
99180W        W71605  12.779  24.461   5.151
99181W        W71606   0.374  31.679  11.389
99182W        W71607  36.017  35.522   1.881
99183W        W71608  41.188  39.528  14.631
99184W        W71609  23.221  31.404  11.707
99185W        W71610   8.787   3.323  12.125
99186W        W71611  15.724  21.738  12.592
99187W        W71612   1.753  14.693  13.420
99188W        W71613  23.266  29.925   4.840
99189W        W71614   2.270   9.595  12.079
99190W        W71615   4.972  22.627  13.605
99191W        W71616   5.379  38.043   2.984
99192W        W71617  33.347   9.066  13.554
99193W        W71618  10.651  16.813   1.309
99194W        W71619  18.015  10.797  13.335
99195W        W71620   4.958  44.804   0.773
99196W        W71621  41.497  15.662  12.617
99197W        W71622  20.522  15.046   2.809
99198W        W71623  29.658  43.975  12.942
99199W        W71624  16.170   5.928   3.825
99200W        W71625  37.588  43.352   1.820
99201W        W71626  12.035  20.085   2.727
99202W        W71627  20.304  40.020  13.027
99203W        W71628  24.040  27.989   1.009
99204W        W71629  14.928   6.323   4.631
99205W        W71630  19.278  31.048   0.820
99206W        W71631  12.837  39.518   4.638
99207W        W71632   7.606  12.146   4.632
99208W        W71633  19.310  32.065   3.821
99209W        W71634  44.348  18.243   1.809
99210W        W71635  34.666  41.729   0.352
99211W        W71636  20.650  21.593   2.649
99212W        W71637  15.116  34.423   3.781
99213W        W71638   1.832  22.683   1.157
99214W        W71639  32.592  41.474   1.336
99215W        W71640  22.722  33.596  13.928
99216W        W71641  39.057  10.851   5.076
99217W        W71642  11.555   2.564   2.819
99218W        W71643  36.821  33.531  11.426
99219W        W71644  10.819   0.262   3.342
99220W        W71645  40.284   4.847   4.200
99221W        W71646  17.579   9.725  10.598
99222W        W71647   7.462  29.694  14.787
99223W        W71648   9.253  44.832   0.955
99224W        W71649  32.048  13.152   2.601
99225W        W71650  16.531  11.744  13.633
99226W        W71651  12.158  21.651  12.425
99227W        W71652  41.271   2.317   4.001
99228W        W71653  35.111  28.939  13.076
99229W        W71654   4.695  36.045  11.326
99230W        W71655   1.970  26.517  14.806
99231W        W71656   0.824  38.141   2.825
99232W        W71657  33.907   0.307  12.822
99233W        W71658  13.310  34.358   2.397
99234W        W71659  39.139   7.393   5.039
99235W        W71660  28.765  27.482  14.396
99236W        W71661  41.315   3.969   4.130
99237W        W71662  43.861  39.057   1.861
99238W        W71663  13.090  35.476   3.144
99239W        W71664  43.926  29.947  14.787
99240W        W71665  34.179  37.818  13.932
99241W        W71666  10.116  15.342   3.380
99242W        W71667   3.443   5.684   0.843
99243W        W71668  41.811  21.999   4.083
99244W        W71669  30.387  10.980  12.129
99245W        W71670  44.261  32.252  10.279
99246W        W71671  11.182  23.613   2.207
99247W        W71672   8.692   7.183   3.701
99248W        W71673  27.225  41.434  13.062
99249W        W71674   0.294   6.892  10.719
99250W        W71675  22.677   2.431   1.238
99251W        W71676  37.418  41.572  13.563
99252W        W71677  32.137  43.269  14.578
99253W        W71678   6.992  42.302  12.012
99254W        W71679  11.903  28.615   3.357
99255W        W71680  17.715  35.369  14.742
99256W        W71681  41.782  18.683   1.235
99257W        W71682  10.385   4.718  10.975
99258W        W71683  38.611  34.556   1.813
99259W        W71684   8.249  23.935  11.675
99260W        W71685   2.291  14.173  13.699
99261W        W71686   0.863   2.901  13.063
99262W        W71687  39.648  39.903  12.535
99263W        W71688  10.358   1.976   2.167
99264W        W71689  23.597   8.805   1.350
99265W        W71690  31.452  34.626   4.509
99266W        W71691  11.246   2.399  10.591
99267W        W71692  20.227   0.933  11.160
99268W        W71693   6.472  29.225   0.945
99269W        W71694  36.902  21.968  12.638
99270W        W71695  27.437  36.473   3.830
99271W        W71696  40.014  29.350   2.334
99272W        W71697  34.719   0.826  12.877
99273W        W71698  15.256  15.748  10.915
99274W        W71699   1.359  23.176  13.588
99275W        W71700  40.230  37.343  10.745
99276W        W71701  16.337  24.014   3.416
99277W        W71702   2.864  34.094   1.222
99278W        W71703  29.184  21.063   0.783
99279W        W71704  39.909  28.100  11.598
99280W        W71705  10.651  41.591   0.313
99281W        W71706  32.397  37.500   0.343
99282W        W71707  25.507  31.955   4.263
99283W        W71708   4.060  16.363  13.005
99284W        W71709   4.774   2.745  14.859
99285W        W71710  27.746  30.585  10.091
99286W        W71711  32.118  32.582   4.647
99287W        W71712   1.325  41.901   2.685
99288W        W71713  13.707  19.276  11.571
99289W        W71714   3.286  20.634   2.682
99290W        W71715  31.294  40.708  12.317
99291W        W71716  26.820  27.032  14.021
99292W        W71717  26.967  12.042  10.681
99293W        W71718  18.819  15.618   3.047
99294W        W71719  16.697  14.393   4.302
99295W        W71720  17.194  35.393   3.254
99296W        W71721  40.096   0.717   2.798
99297W        W71722  14.417   4.413  10.597
99298W        W71723   1.990   3.795   1.594
99299W        W71724  17.153   1.716   9.798
99300W        W71725   5.748   1.428  13.489
99301W        W71726  22.077  15.011   3.666
99302W        W71727   1.269  14.083  12.042
99303W        W71728  30.626  16.549  11.648
99304W        W71729  43.243  30.245  11.550
99305W        W71730  21.617  35.401   2.702
99306W        W71731  38.723   8.121   3.720
99307W        W71732   6.898  39.407   1.221
99308W        W71733  12.816  18.230  11.360
99309W        W71734  37.947  14.347  11.961
99310W        W71735  39.847   9.456  12.947
99311W        W71736  42.856  10.895  12.504
99312W        W71737  44.257  41.232  14.378
99313W        W71738   8.619  23.030  11.168
99314W        W71739   6.581   7.841  13.585
99315W        W71740   4.185  12.136  14.418
99316W        W71741  23.234  37.513  11.039
99317W        W71742  16.078   2.646   4.164
99318W        W71743  39.996  15.167   0.256
99319W        W71744  35.970  10.335   3.209
99320W        W71745  11.623  44.717  13.009
99321W        W71746  22.002  36.309  10.749
99322W        W71747  41.075  37.583  13.042
99323W        W71748   1.306  29.917  12.384
99324W        W71749  37.540  35.416   1.794
99325W        W71750  17.158  15.308  11.971
99326W        W71751   2.452  12.869   3.269
99327W        W71752  24.070  24.882   0.919
99328W        W71753  30.778  40.288   1.158
99329W        W71754  12.322   8.068  10.646
99330W        W71755  37.445  22.643   0.092
99331W        W71756  11.836   1.966   1.568
99332W        W71757   3.209   0.532   0.934
99333W        W71758   2.329   5.287   4.963
99334W        W71759  12.672  44.979   4.544
99335W        W71760  26.819  34.016  11.165
99336W        W71761  12.702  20.040  10.624
99337W        W71762  16.665  14.802   0.002
99338W        W71763  17.716   7.723   3.146
99339W        W71764  40.499  26.469  11.953
99340W        W71765  23.529  39.955   4.553
99341W        W71766  30.521  37.950   4.654
99342W        W71767   7.857  43.262  13.121
99343W        W71768   5.409  18.468  14.024
99344W        W71769  34.965   4.642  14.895
99345W        W71770  19.805   3.496  12.902
99346W        W71771   4.510  42.930   3.794
99347W        W71772   5.440  14.212   2.242
99348W        W71773   7.283   4.946   0.941
99349W        W71774  15.111  10.891  13.428
99350W        W71775  10.780  34.511  11.445
99351W        W71776  11.331  33.873  14.822
99352W        W71777  33.954   3.195   3.290
99353W        W71778  35.424   3.311   4.651
99354W        W71779  11.295   0.724  14.196
99355W        W71780  31.793  14.158  12.488
99356W        W71781  36.856  28.047   3.157
99357W        W71782  22.642  22.100  12.133
99358W        W71783  30.939  17.562  12.033
99359W        W71784  30.385   5.739   0.764
99360W        W71785   1.960  44.807   0.364
99361W        W71786  11.693  10.191   1.459
99362W        W71787  33.001  17.577  10.709
99363W        W71788  29.405  27.580  10.914
99364W        W71789  16.093  43.004   3.216
99365W        W71790   1.942  23.973  14.753
99366W        W71791  12.183  21.763   0.514
99367W        W71792   2.460   4.906   3.586
99368W        W71793  11.375  19.598   0.309
99369W        W71794  28.041  27.232  10.975
99370W        W71795  24.107  44.742  11.872
99371W        W71796  41.239   3.856  14.457
99372W        W71797  44.801  14.013   3.299
99373W        W71798  26.696  17.232  10.083
99374W        W71799  40.835   0.976   3.252
99375W        W71800   6.330  27.563   1.356
99376W        W71801  34.317   3.449   1.305
99377W        W71802  28.842  38.845  13.521
99378W        W71803  21.014  27.961   4.134
99379W        W71804  19.659  33.172  11.112
99380W        W71805  34.674   6.310   0.786
99381W        W71806  21.410  14.307   2.696
99382W        W71807  11.795  14.034  11.037
99383W        W71808  18.692  42.552  10.371
99384W        W71809  42.745  10.126   4.921
99385W        W71810  43.490   2.885  11.255
99386W        W71811   1.322   4.946  13.583
99387W        W71812  31.633  38.609   4.342
99388W        W71813  32.622  36.861  11.187
99389W        W71814   9.456  33.010  13.431
99390W        W71815  43.917  14.250  12.983
99391W        W71816  17.215  29.590   4.339
99392W        W71817   2.657  18.853  12.679
99393W        W71818  17.301  17.082   2.752
99394W        W71819  10.919  13.213   3.253
99395W        W71820  30.914   4.442  13.208
99396W        W71821  25.318  40.048   0.711
99397W        W71822  40.810  30.236   4.570
99398W        W71823   6.835  33.366   3.105
99399W        W71824  21.362  35.195  10.949
99400W        W71825   4.474  33.230   2.256
99401W        W71826   6.817   9.301   4.920
99402W        W71827  36.098  18.066  10.172
99403W        W71828   2.792   5.209   4.705
99404W        W71829  37.685  35.235  13.016
99405W        W71830  22.012   1.090  12.488
99406W        W71831  44.969  32.204  13.024
99407W        W71832  22.532   4.410  12.941
99408W        W71833  38.939  36.959   0.740
99409W        W71834  24.613  30.853  13.779
99410W        W71835   2.769   4.141  11.902
99411W        W71836  16.518  43.404  11.414
99412W        W71837   4.766  31.876   4.569
99413W        W71838  39.670  15.250  13.777
99414W        W71839   7.247   8.232  10.516
99415W        W71840   6.896   2.271  14.471
99416W        W71841  29.569  40.471  10.290
99417W        W71842  30.354   4.853   4.617
99418W        W71843  25.439  36.876  13.900
99419W        W71844  19.882  35.273   0.855
99420W        W71845   7.196  41.870   1.331
99421W        W71846  37.879  25.979  14.426
99422W        W71847  38.286  27.065   3.298
99423W        W71848  22.486  23.200   4.773
99424W        W71849  27.252  41.819   4.548
99425W        W71850  16.343  41.320  11.555
99426W        W71851  37.718  36.528   3.732
99427W        W71852  35.360  42.962   0.906
99428W        W71853   5.677  31.140   1.783
99429W        W71854  18.598  26.145  12.008
99430W        W71855  19.805  22.638   4.155
99431W        W71856  13.944  38.407  12.886
99432W        W71857  16.256  17.952   4.949
99433W        W71858  17.722  36.831   0.946
99434W        W71859   0.550  43.923   2.523
99435W        W71860  27.265  40.869  10.411
99436W        W71861   9.601  44.026  10.425
99437W        W71862   8.991  43.025  11.021
99438W        W71863  39.417   9.237   4.118
99439W        W71864   9.293  27.324  12.590
99440W        W71865  42.373  40.849  10.792
99441W        W71866   0.680  11.704   3.619
99442W        W71867  30.929  13.421   0.879
99443W        W71868  36.508  18.057  12.411
99444W        W71869  36.960  20.034  12.518
99445W        W71870  17.051   0.528  14.077
99446W        W71871  23.559  30.796   3.690
99447W        W71872  31.997  32.342   4.204
99448W        W71873  43.871  28.934   1.895
99449W        W71874  37.019  17.041   4.052
99450W        W71875   4.435  35.417   0.807
99451W        W71876  14.953  23.697   1.215
99452W        W71877  12.139   0.517  14.777
99453W        W71878  37.047   7.287  11.912
99454W        W71879  14.268   5.818   1.499
99455W        W71880  21.674  34.854   2.740
99456W        W71881  32.973  30.616   1.628
99457W        W71882   0.271  18.458  12.482
99458W        W71883  22.067   2.726   1.463
99459W        W71884  40.309   9.259  12.058
99460W        W71885   1.719  18.718  13.343
99461W        W71886   2.659  34.544  13.578
99462W        W71887  19.281  31.034  10.739
99463W        W71888  20.694  12.715   3.570
99464W        W71889  38.756   8.862  12.981
99465W        W71890  38.263   1.001  11.017
99466W        W71891  43.366  15.215   4.565
99467W        W71892  37.527  14.274   0.815
99468W        W71893  38.217  10.645   0.259
99469W        W71894  36.669  30.171  14.069
99470W        W71895  37.075  17.908  12.660
99471W        W71896   7.808  10.625   1.934
99472W        W71897  35.914  22.148   4.775
99473W        W71898   1.397  17.665   0.350
99474W        W71899  29.173  33.505   2.921
99475W        W71900   3.361  39.403  13.474
99476W        W71901  19.826  11.607   2.191
99477W        W71902  43.188  10.358   1.025
99478W        W71903  20.082  22.870   0.689
99479W        W71904   5.702  11.929   0.892
99480W        W71905  30.578  35.358   0.751
99481W        W71906  36.041  22.606   2.323
99482W        W71907   3.374   2.429  13.312
99483W        W71908  39.629   3.854   2.873
99484W        W71909  21.036  15.302   4.706
99485W        W71910  15.594  18.580   0.953
99486W        W71911  28.601  11.385  14.978
99487W        W71912  33.309   2.665  12.527
99488W        W71913  34.433  15.375  12.117
99489W        W71914  24.236  33.931  13.365
99490W        W71915  13.659  21.041   5.295
99491W        W71916   2.418  18.979  11.135
99492W        W71917  28.926   8.387   1.406
99493W        W71918  39.554  27.171   0.763
99494W        W71919  14.278  32.495  14.811
99495W        W71920   2.764   9.892   2.152
99496W        W71921  35.951  30.062  13.858
99497W        W71922  33.681  19.262  14.045
99498W        W71923  42.008  33.683   5.043
99499W        W71924  25.848   8.352   1.204
99500W        W71925  27.932  13.859  10.850
99501W        W71926   7.535  27.552   3.268
99502W        W71927  16.509   7.636   0.036
99503W        W71928  43.570  33.933   1.767
99504W        W71929  30.055   5.082  14.469
99505W        W71930  44.950  23.935   2.665
99506W        W71931  31.132   5.349   4.107
99507W        W71932  35.090  18.653   0.822
99508W        W71933  34.548  44.192   4.598
99509W        W71934  19.861  10.204   2.884
99510W        W71935  30.172   6.166   3.792
99511W        W71936  39.161  42.340   3.281
99512W        W71937  39.958  24.465   4.472
99513W        W71938  43.852  43.843   0.931
99514W        W71939  42.394  16.465  14.539
99515W        W71940  14.356  39.853  12.964
99516W        W71941   8.188   4.251   2.370
99517W        W71942  36.398   3.804   1.738
99518W        W71943  21.270  42.651   3.764
99519W        W71944   0.421  20.390  14.507
99520W        W71945  23.518  18.696   0.363
99521W        W71946  33.653  12.091   0.414
99522W        W71947  24.646  17.072  10.517
99523W        W71948  20.165  19.592   2.691
99524W        W71949  28.388  41.069   1.483
99525W        W71950  43.033   9.822   3.171
99526W        W71951  19.227  17.146  14.897
99527W        W71952  42.949   5.326  10.749
99528W        W71953  19.835   7.779   1.936
99529W        W71954  33.100  25.585   4.219
99530W        W71955  32.162   9.245  10.698
99531W        W71956   7.469  33.256   2.137
99532W        W71957  37.127   1.509   3.418
99533W        W71958  26.919   5.237   0.294
99534W        W71959  11.212  32.824   2.945
99535W        W71960  26.416  29.240   2.680
99536W        W71961  36.687  22.861   3.351
99537W        W71962   5.880  26.519  12.973
99538W        W71963  13.539  22.527  13.272
99539W        W71964  17.713  38.710  14.497
99540W        W71965   1.734  10.088  14.219
99541W        W71966  31.064  40.497   2.081
99542W        W71967   0.340  38.417  13.038
99543W        W71968   6.480   7.736  12.610
99544W        W71969   4.488  30.072   3.774
99545W        W71970   4.906   4.099  13.922
99546W        W71971  22.393  18.643   4.382
99547W        W71972  16.845  11.565  14.003
99548W        W71973   3.381  16.697  11.829
99549W        W71974   6.727  43.947   0.661
99550W        W71975  15.872   3.309  13.825
99551W        W71976  29.177  42.067   2.493
99552W        W71977  10.724  42.468  14.394
99553W        W71978   6.226  34.551  11.018
99554W        W71979  14.755   2.123  13.474
99555W        W71980   2.299   6.293   5.060
99556W        W71981   7.412  10.702  14.920
99557W        W71982  18.488  36.048  12.402
99558W        W71983   5.802   2.761  12.268
99559W        W71984  37.616   5.911   0.316
99560W        W71985  22.681   9.096   0.730
99561W        W71986   0.772  24.726  12.064
99562W        W71987  24.008  36.936   2.093
99563W        W71988  17.121  10.219  10.013
99564W        W71989  30.738   4.224  12.510
99565W        W71990  23.396   4.783   3.409
99566W        W71991  17.702   7.925  13.404
99567W        W71992  32.201  30.027  14.332
99568W        W71993   5.508  42.873  12.469
99569W        W71994  42.003  19.285   4.646
99570W        W71995   0.206   4.751   0.013
99571W        W71996   4.769  13.377  11.782
99572W        W71997  27.185  19.891  12.821
99573W        W71998  36.025  40.916   1.294
99574W        W71999  39.555  25.501   1.761
99575W        W72000  24.664  18.239  11.447
99576W        W72001  34.107  30.904  13.142
99577W        W72002  10.058  33.197  14.931
99578W        W72003   6.369  39.057   4.180
99579W        W72004  12.322  26.510   9.954
99580W        W72005  35.422  38.466   0.284
99581W        W72006  38.125   3.955   3.638
99582W        W72007   4.315   6.828   2.262
99583W        W72008  26.750  12.114   2.773
99584W        W72009  43.407  18.606   2.062
99585W        W72010   5.133  19.232  13.570
99586W        W72011  20.747  21.714  10.462
99587W        W72012  14.730  14.390   0.350
99588W        W72013  20.761  27.068   0.476
99589W        W72014  22.668   1.490   2.190
99590W        W72015   0.414  17.788   4.535
99591W        W72016  17.184   9.726   2.341
99592W        W72017  20.234  27.626  13.379
99593W        W72018  20.836  41.794   2.646
99594W        W72019   1.746   6.284  13.691
99595W        W72020  24.169  40.431  12.988
99596W        W72021  24.079  33.409  14.468
99597W        W72022  35.376  32.975  14.869
99598W        W72023  20.543  38.817   3.219
99599W        W72024  30.945  41.396   0.425
99600W        W72025  25.494   9.254   1.315
99601W        W72026  10.668   4.099   1.871
99602W        W72027  29.540  23.965   9.712
99603W        W72028   6.444  43.330   1.657
99604W        W72029  30.472  25.361  11.624
99605W        W72030  15.568   4.350  10.426
99606W        W72031   8.220  33.861   2.307
99607W        W72032  27.488  16.656  12.845
99608W        W72033  12.003  17.673   4.533
99609W        W72034  41.757  25.674   3.385
99610W        W72035  11.298  33.576  13.978
99611W        W72036  21.692  11.365   2.072
99612W        W72037   9.553  29.405   0.732
99613W        W72038   8.433   8.338  13.370
99614W        W72039  17.578  19.255   0.459
99615W        W72040  27.174  13.357  12.986
99616W        W72041  39.494  37.080   4.532
99617W        W72042   0.427   3.967   1.161
99618W        W72043  42.507   4.774  14.436
99619W        W72044  19.506  27.061  13.840
99620W        W72045  28.570   1.847   0.843
99621W        W72046  25.045  35.063   1.458
99622W        W72047  39.917  20.078  12.188
99623W        W72048  26.071   6.752   3.183
99624W        W72049  12.300  17.223  10.646
99625W        W72050   6.160  22.711  14.868
99626W        W72051  33.542  15.272   0.756
99627W        W72052   5.640   9.193  11.481
99628W        W72053  20.278  12.531   4.264
99629W        W72054  34.451  40.107   2.378
99630W        W72055  11.071  16.497   1.257
99631W        W72056  15.362  12.342   4.734
99632W        W72057   9.306  18.442   4.184
99633W        W72058  19.104  19.710  13.017
99634W        W72059  11.900  25.202   4.084
99635W        W72060  22.042  25.147  13.774
99636W        W72061  33.196  20.660  11.656
99637W        W72062   9.925  29.361  11.856
99638W        W72063  13.131   4.186  14.415
99639W        W72064   8.674  25.600   3.046
99640W        W72065  30.022  31.599   3.645
99641W        W72066  19.114  10.249  11.207
99642W        W72067  42.966  25.963   2.229
99643W        W72068   3.425  19.787  11.997
99644W        W72069   2.488  43.749   0.487
99645W        W72070  33.824  41.441   0.247
99646W        W72071  25.664  11.225   4.115
99647W        W72072  19.667  31.949   1.399
99648W        W72073  10.603  17.048   1.776
99649W        W72074  30.222   9.632  12.053
99650W        W72075  37.853  14.444   5.128
99651W        W72076  33.653  17.072  11.421
99652W        W72077  17.868  13.150  13.291
99653W        W72078   5.747  29.870  14.377
99654W        W72079  18.552  10.767   2.837
99655W        W72080   3.824  23.964   1.951
99656W        W72081   9.812  36.018   0.849
99657W        W72082   0.847  23.438  11.903
99658W        W72083  42.913  38.895   4.783
99659W        W72084  36.484  13.299  14.757
99660W        W72085   5.218  11.163  12.418
99661W        W72086  16.001  15.862  11.099
99662W        W72087   3.363  37.356  10.697
99663W        W72088   0.290  31.421  10.374
99664W        W72089  29.204  32.045   1.430
99665W        W72090  40.449  43.844   0.479
99666W        W72091  12.082  36.238   4.812
99667W        W72092  22.131  43.253   4.746
99668W        W72093  41.846  21.486   3.130
99669W        W72094  44.188  22.117   4.834
99670W        W72095  25.971  20.133  14.587
99671W        W72096   7.247   4.872   2.471
99672W        W72097   2.645   5.298  12.827
99673W        W72098   0.713  17.759   1.769
99674W        W72099   6.281  41.546   1.700
99675W        W72100   8.173  12.890   4.368
99676W        W72101  28.561  44.480   1.739
99677W        W72102   5.880   1.513   1.347
99678W        W72103  40.286   1.983   3.199
99679W        W72104   1.000  37.071  11.212
99680W        W72105  13.555  44.880  12.989
99681W        W72106  21.349   2.211   1.631
99682W        W72107  32.318  23.137  13.525
99683W        W72108   9.435  21.694  12.399
99684W        W72109  11.700  28.383   2.957
99685W        W72110   7.561  31.028  11.448
99686W        W72111   6.921  28.672  13.313
99687W        W72112   3.955   7.412   0.829
99688W        W72113  11.245  14.567  14.971
99689W        W72114   5.199  13.307  10.797
99690W        W72115  19.350   3.659   0.015
99691W        W72116  42.000  29.164   0.454
99692W        W72117  34.837  28.035  12.051
99693W        W72118  26.435  36.718  12.502
99694W        W72119  33.943  44.408  10.943
99695W        W72120  43.773  13.101  13.541
99696W        W72121  31.610  17.660  12.453
99697W        W72122  25.546  25.266  11.627
99698W        W72123  39.417  15.949   5.007
99699W        W72124  37.351  41.452   2.840
99700W        W72125  16.690  13.765  11.392
99701W        W72126  24.657  34.918   1.815
99702W        W72127   5.318  15.510  13.476
99703W        W72128  12.451  20.242   3.654
99704W        W72129  33.625  26.589   2.938
99705W        W72130   9.252  30.580   1.731
99706W        W72131  41.608  14.660  12.835
99707W        W72132  34.844  10.249  12.844
99708W        W72133  40.818   1.446   0.574
99709W        W72134   5.719  31.591  14.526
99710W        W72135  15.550  24.393   1.424
99711W        W72136  27.119  10.177  11.264
99712W        W72137   7.384   7.810  13.979
99713W        W72138  24.198  27.173  10.875
99714W        W72139  37.603  10.365   1.862
99715W        W72140  30.579  29.625   1.886
99716W        W72141  36.422  42.861   3.879
99717W        W72142  18.925  27.029   0.791
99718W        W72143  12.712   9.229   4.684
99719W        W72144  10.108  20.136   3.383
99720W        W72145  41.858  29.536   2.268
99721W        W72146  21.688  20.644   2.580
99722W        W72147  17.653  17.782  13.486
99723W        W72148   9.238  30.035   4.334
99724W        W72149  38.776  24.647   4.202
99725W        W72150  37.820  12.676  11.591
99726W        W72151  37.819   7.000   9.786
99727W        W72152  22.204   1.621   3.261
99728W        W72153  21.938  33.814  14.765
99729W        W72154  11.588   2.848   1.257
99730W        W72155  27.422  38.539   2.260
99731W        W72156  21.792  16.703  11.089
99732W        W72157  13.745  20.094  12.129
99733W        W72158  20.159  42.888  12.176
99734W        W72159  14.404   5.379  14.814
99735W        W72160  41.527  21.617  13.763
99736W        W72161  41.016  27.061  13.014
99737W        W72162  42.232  25.543   1.305
99738W        W72163  25.624  42.724  13.845
99739W        W72164  24.086  19.789   3.052
99740W        W72165   7.864  31.350  13.019
99741W        W72166  42.991   4.964  14.462
99742W        W72167  44.321  12.398   0.966
99743W        W72168  38.801  41.449   3.775
99744W        W72169   2.994  25.619   1.123
99745W        W72170  14.346  27.144   1.273
99746W        W72171  13.228  11.048  12.372
99747W        W72172  24.061  40.901  14.970
99748W        W72173  31.299  18.435   3.572
99749W        W72174  15.184  44.352   5.091
99750W        W72175   9.042  38.239  12.347
99751W        W72176  31.938  38.084   1.187
99752W        W72177  31.624  39.535  10.002
99753W        W72178   7.386   7.638   4.096
99754W        W72179   8.161  16.611   4.298
99755W        W72180  23.523  30.962  10.571
99756W        W72181  10.618  35.793  14.454
99757W        W72182  39.467  42.926  11.855
99758W        W72183  29.169  43.064  13.498
99759W        W72184  28.195  40.916   3.185
99760W        W72185  17.771  23.511  12.509
99761W        W72186  12.647  26.209   2.886
99762W        W72187  11.540   0.060   1.244
99763W        W72188  44.806  34.549   2.086
99764W        W72189  44.378  28.718   0.202
99765W        W72190   1.393  41.608   3.124
99766W        W72191   9.585  22.915  14.668
99767W        W72192  13.323  18.589   0.406
99768W        W72193   1.357  33.881  13.277
99769W        W72194   0.330   4.833   3.339
99770W        W72195   6.263  27.705   3.865
99771W        W72196  37.032  38.908   1.423
99772W        W72197  17.279   7.160  11.985
99773W        W72198   1.524  38.967   3.674
99774W        W72199  42.929  17.573  12.506
99775W        W72200  10.253  15.854  11.184
99776W        W72201  33.089  18.525   0.424
99777W        W72202  18.236  27.976  11.068
99778W        W72203  15.402  18.577  11.101
99779W        W72204  37.722  22.684  13.064
99780W        W72205  10.528  21.055   5.109
99781W        W72206  22.606  26.462   4.816
99782W        W72207  42.984  36.540   2.249
99783W        W72208  27.342   7.857  14.567
99784W        W72209  24.262   9.802  10.274
99785W        W72210  20.268   6.306   1.240
99786W        W72211  43.919  28.592  11.894
99787W        W72212  42.836   6.764   2.393
99788W        W72213  19.549  37.781  12.370
99789W        W72214  32.555  27.062  14.888
99790W        W72215  12.766  12.432   1.858
99791W        W72216  19.053  38.856   3.136
99792W        W72217  23.656  28.458  13.425
99793W        W72218  43.419  41.474  14.461
99794W        W72219  22.931  32.974   1.759
99795W        W72220  44.812   9.273  11.549
99796W        W72221   5.169  37.631   1.415
99797W        W72222  32.967  10.621  14.815
99798W        W72223  22.702  38.501  14.339
99799W        W72224  25.150   4.456  14.617
99800W        W72225  16.681  33.619  14.764
99801W        W72226  26.125  32.476  13.015
99802W        W72227  21.632  43.327   1.485
99803W        W72228  39.454  14.884  14.061
99804W        W72229  37.463  38.796  11.415
99805W        W72230  40.823  17.712   2.375
99806W        W72231  31.030  41.995  13.473
99807W        W72232  12.148   9.594  14.341
99808W        W72233  12.725  35.810  14.994
99809W        W72234  23.807  11.583  11.118
99810W        W72235  19.182  10.630   1.799
99811W        W72236  11.397   3.537  14.920
99812W        W72237  20.601  28.474   0.325
99813W        W72238  40.926   6.706   3.186
99814W        W72239  40.332  21.913  12.924
99815W        W72240  35.507  22.027  12.098
99816W        W72241  29.460   8.195   2.194
99817W        W72242  34.914   0.248  11.087
99818W        W72243  10.321  19.509  12.552
99819W        W72244  32.608  11.126   1.604
99820W        W72245  34.947   8.134   4.284
99821W        W72246   9.222  24.453   1.057
99822W        W72247  44.646  41.452   2.783
99823W        W72248  22.655  41.326  14.839
99824W        W72249  22.454  42.845   3.156
99825W        W72250  14.269  29.487  11.103
99826W        W72251   0.809  41.472  13.646
99827W        W72252  40.746   0.322  12.044
99828W        W72253  40.153  34.739   1.308
99829W        W72254  42.455  32.822  10.846
99830W        W72255  22.268  42.281   3.593
99831W        W72256   5.463  26.736  11.378
99832W        W72257  30.546  12.883  12.965
99833W        W72258  40.249  34.584  13.470
99834W        W72259  12.822  36.888  13.622
99835W        W72260  22.752  33.649   4.419
99836W        W72261  20.122  11.599   3.880
99837W        W72262  20.539  36.891   1.439
99838W        W72263   3.427  33.123   4.338
99839W        W72264  29.266   7.895  14.230
99840W        W72265  30.614   4.710  11.079
99841W        W72266  44.899  21.290  14.381
99842W        W72267  32.134   9.844   0.054
99843W        W72268  18.024  16.726  14.934
99844W        W72269  24.206  25.012  14.306
99845W        W72270  18.172  19.754   3.813
99846W        W72271  38.098  43.684  11.033
99847W        W72272  25.262  21.583   4.522
99848W        W72273  32.646   7.819   4.714
99849W        W72274  44.215  23.252  14.429
99850W        W72275  17.054  44.978  10.493
99851W        W72276  14.686  16.050   3.327
99852W        W72277  31.579  44.305  14.412
99853W        W72278  23.985   1.875  10.694
99854W        W72279  37.709  18.251   0.973
99855W        W72280  17.647  13.435  11.880
99856W        W72281  42.319  29.036  11.581
99857W        W72282  34.449   9.233  14.119
99858W        W72283  14.382  42.995   4.275
99859W        W72284  33.575  10.718   2.231
99860W        W72285  26.790  39.786  12.275
99861W        W72286  27.651  19.749   0.942
99862W        W72287  36.045   6.886  14.403
99863W        W72288  39.247  13.386  14.255
99864W        W72289  16.225  15.822   3.312
99865W        W72290  27.907   1.946  12.112
99866W        W72291   0.750   6.810   3.674
99867W        W72292  16.230  13.882  10.696
99868W        W72293   1.283  10.870  12.487
99869W        W72294   9.499  29.600   0.248
99870W        W72295  30.194  19.635   1.171
99871W        W72296  42.645   5.450   1.759
99872W        W72297  41.795  12.778   1.793
99873W        W72298  30.483  12.742  14.937
99874W        W72299  34.756  19.857   2.075
99875W        W72300  24.447  41.509   1.948
99876W        W72301  42.602  30.465   4.197
99877W        W72302  13.899   0.307   9.660
99878W        W72303  26.719  18.090  10.720
99879W        W72304  40.749  15.365   3.759
99880W        W72305   5.661  26.656  13.855
99881W        W72306  21.360  26.646  10.451
99882W        W72307  20.396  39.061  13.133
99883W        W72308  11.574   6.993   5.156
99884W        W72309  16.670  37.531   0.246
99885W        W72310  44.791  27.237  13.023
99886W        W72311  28.253  14.066   4.863
99887W        W72312   3.205  31.215   0.406
99888W        W72313  32.642  42.295   0.289
99889W        W72314  14.712   9.155  12.044
99890W        W72315  38.456  38.879   2.657
99891W        W72316  22.772  24.579   4.699
99892W        W72317  14.667   2.725   2.893
99893W        W72318  30.475  31.919  12.903
99894W        W72319  15.019  27.597  13.659
99895W        W72320  24.631  12.411  14.072
99896W        W72321  16.604   7.950   0.449
99897W        W72322  29.123  34.744  13.913
99898W        W72323   5.677   7.267   2.314
99899W        W72324  23.153  12.139   4.219
99900W        W72325  28.595  14.076  13.496
99901W        W72326  36.789  16.364  14.452
99902W        W72327  40.284  11.816   3.231
99903W        W72328  35.313  28.559  14.481
99904W        W72329  33.373   9.177  10.345
99905W        W72330  36.410  28.860   0.496
99906W        W72331  19.188  41.357   0.270
99907W        W72332  28.591  17.417   2.699
99908W        W72333  35.490  30.087  14.505
99909W        W72334  35.428  11.387   2.782
99910W        W72335  25.488  41.782   3.202
99911W        W72336  10.484  36.980   3.871
99912W        W72337  35.244  44.747   3.570
99913W        W72338  29.632  42.301  14.304
99914W        W72339  42.421  26.394   4.281
99915W        W72340  16.324  32.887   0.566
99916W        W72341  21.612  40.568  12.146
99917W        W72342   4.765  20.123  13.485
99918W        W72343  24.969  17.343   0.981
99919W        W72344  31.081  35.067   2.318
99920W        W72345  28.087   0.952  11.900
99921W        W72346  27.357  24.814   2.235
99922W        W72347  26.240  19.584  11.126
99923W        W72348  34.106   3.398  10.415
99924W        W72349  14.065  35.907   1.052
99925W        W72350  15.144   8.300   2.191
99926W        W72351  13.247  37.881  12.828
99927W        W72352  35.619  41.882   1.469
99928W        W72353  10.798  43.295  12.394
99929W        W72354  11.139  23.979   2.560
99930W        W72355  23.215  13.392  12.522
99931W        W72356  24.794  35.575  14.027
99932W        W72357  26.752  13.068  12.110
99933W        W72358   1.915  24.184  11.998
99934W        W72359  12.382  34.478   1.227
99935W        W72360  15.546  36.788  12.437
99936W        W72361  18.058  29.179   2.414
99937W        W72362  18.051  27.490   4.303
99938W        W72363  34.295  31.405  14.830
99939W        W72364  43.259  21.555  12.987
99940W        W72365  35.818   7.341   3.864
99941W        W72366  10.668  14.589  12.544
99942W        W72367  31.233  21.149  13.014
99943W        W72368   0.582   7.849   2.632
99944W        W72369  20.643  19.541   4.157
99945W        W72370  44.972  16.216   4.958
99946W        W72371  42.332  40.535  14.295
99947W        W72372  31.535  25.032  12.960
99948W        W72373  34.765  37.149   3.225
99949W        W72374   0.583   4.219  10.705
99950W        W72375   9.769  40.476   3.899
99951W        W72376  30.592  35.304   2.330
99952W        W72377   8.365  39.792   3.221
99953W        W72378   0.018   8.105  12.516
99954W        W72379  43.395  20.750   2.851
99955W        W72380  22.732  11.596   4.595
99956W        W72381   1.447   8.192  14.525
99957W        W72382  24.251   6.692   1.794
99958W        W72383  24.074  42.376  10.707
99959W        W72384  12.673   5.925  14.581
99960W        W72385   4.186  10.220  10.593
99961W        W72386  34.959  36.912  14.464
99962W        W72387  21.600  44.309   2.309
99963W        W72388  10.759  20.792   2.462
99964W        W72389   7.148  31.440  14.187
99965W        W72390   0.212   1.918  14.810
99966W        W72391   8.781  31.874  14.764
99967W        W72392  37.813  14.586   0.325
99968W        W72393   3.832  43.294   4.109
99969W        W72394   7.194   2.423   1.772
99970W        W72395  15.810  15.046  14.507
99971W        W72396  17.833   0.374   1.275
99972W        W72397  44.655  10.045  12.894
99973W        W72398  32.731  30.473   0.077
99974W        W72399   5.706  36.719  12.757
99975W        W72400  35.539  35.925  10.649
99976W        W72401  37.501  30.447  14.268
99977W        W72402  31.828   1.194   4.739
99978W        W72403  30.641  28.447  13.983
99979W        W72404  28.070  19.247   3.347
99980W        W72405  30.900  43.389   1.748
99981W        W72406   1.343   6.365  14.025
99982W        W72407  29.382  21.494  11.524
99983W        W72408  34.564   5.992  13.055
99984W        W72409  35.454  41.449   3.310
99985W        W72410   8.915   8.397   0.984
99986W        W72411  35.167  31.997  13.839
99987W        W72412  32.652  28.713  14.020
99988W        W72413   9.001  11.144   0.856
99989W        W72414  34.358  31.078  14.428
99990W        W72415  32.531   2.738   3.180
99991W        W72416  28.641  12.217   1.886
99992W        W72417  43.753  26.616  10.626
99993W        W72418   9.192  14.376   0.312
99994W        W72419   6.887   0.055  12.420
99995W        W72420   1.990  41.980   0.218
99996W        W72421  17.405  41.398   0.903
99997W        W72422  44.916   8.712   1.879
99998W        W72423  22.974  17.702  10.553
99999W        W72424  33.509   2.711  12.045
    0W        W72425   8.287  38.416  10.507
    1W        W72426   8.631  38.933   3.193
    2W        W72427  44.419  26.204   0.888
    3W        W72428  39.245  31.899   4.897
    4W        W72429  29.024  38.528   2.747
    5W        W72430  22.058  17.244  11.580
    6W        W72431  30.636   3.002  14.324
    7W        W72432  19.504  16.158   0.868
    8W        W72433  35.077  12.343   0.566
    9W        W72434  41.026  20.995  13.316
   10W        W72435   2.974  27.147  10.699
   11W        W72436  20.558  42.799  14.499
   12W        W72437  44.058  16.780   3.508
   13W        W72438  22.929   8.412  14.937
   14W        W72439  16.265  13.403  11.645
   15W        W72440  30.428   5.350   2.262
   16W        W72441   9.684  32.906   1.496
   17W        W72442  35.753  10.387  14.899
   18W        W72443  40.525  15.212   2.316
   19W        W72444  28.541   6.684   3.716
   20W        W72445   0.022  17.878  11.681
   21W        W72446  37.281  32.565  11.973
   22W        W72447  28.304   9.772   2.174
   23W        W72448   3.127  29.991  12.017
   24W        W72449   2.476  10.603  12.067
   25W        W72450  18.069   1.673   2.542
   26W        W72451  29.180   8.982   3.591
   27W        W72452  27.925  35.525   2.884
   28W        W72453  35.548  33.751  14.777
   29W        W72454  13.764  13.290  10.590
   30W        W72455  32.466  15.170   4.115
   31W        W72456  39.941  40.541  14.276
   32W        W72457  19.341  11.138   2.879
   33W        W72458   0.676  13.529  11.931
   34W        W72459  10.307  23.310  11.076
   35W        W72460  36.129  38.881   9.827
   36W        W72461  36.632  13.795   3.809
   37W        W72462  41.369  35.699   4.286
   38W        W72463  39.553  43.245   3.607
   39W        W72464   4.222   7.197   0.345
   40W        W72465  38.377  42.367  10.322
   41W        W72466  33.815  39.137   3.113
   42W        W72467  13.859  44.248   0.942
   43W        W72468  34.276   2.010   0.318
   44W        W72469   2.206  24.915  13.049
   45W        W72470  39.870  15.158   1.933
   46W        W72471  44.495  38.317   2.887
   47W        W72472   4.689   7.824  11.076
   48W        W72473  34.616   5.352  14.403
   49W        W72474  41.086  17.529   1.956
   50W        W72475  30.826   3.928   3.846
   51W        W72476  26.030  25.515   4.552
   52W        W72477  42.017  20.422  14.468
   53W        W72478  35.477  19.651  11.643
   54W        W72479  20.479   1.468   4.635
   55W        W72480  18.736  10.136   4.609
   56W        W72481   4.992  25.472  12.592
   57W        W72482  14.064  23.617  13.530
   58W        W72483   4.091  18.157   3.399
   59W        W72484   0.842  11.724  14.330
   60W        W72485  31.513  10.799   4.755
   61W        W72486  42.261   7.854   4.529
   62W        W72487  20.608   6.942  12.882
   63W        W72488  42.467   5.107  11.169
   64W        W72489   5.950  23.192  11.330
   65W        W72490  10.099  30.038  14.844
   66W        W72491  43.688  41.028   0.452
   67W        W72492  19.893  14.799  15.000
   68W        W72493  24.885  38.062  10.521
   69W        W72494  21.967  41.861   4.215
   70W        W72495  16.612  25.260   0.807
   71W        W72496  43.681  25.419  14.027
   72W        W72497  34.868  15.076   4.345
   73W        W72498  33.538  22.129   1.004
   74W        W72499  41.401  16.786   3.640
   75W        W72500  36.895   6.278  14.375
   76W        W72501  33.587  32.571  11.190
   77W        W72502  40.931  35.302   3.708
   78W        W72503  41.254  28.724  10.813
   79W        W72504   0.216  42.953   0.253
   80W        W72505  35.523  16.018   3.674
   81W        W72506  41.930  13.858  13.939
   82W        W72507  30.465  20.850  13.960
   83W        W72508   7.707  31.754  11.584
   84W        W72509   9.427  30.566  14.241
   85W        W72510   2.889  27.367  11.169
   86W        W72511   6.157  11.982   3.190
   87W        W72512   9.233  22.626  14.412
   88W        W72513  15.108   3.910   9.724
   89W        W72514   5.694  28.434  11.836
   90W        W72515  28.485  15.569   4.537
   91W        W72516   8.588  31.499   4.628
   92W        W72517  14.791  21.195   3.520
   93W        W72518  23.091  32.557  12.000
   94W        W72519  32.039  44.744   4.646
   95W        W72520  43.493   5.946   0.791
   96W        W72521  17.032  20.340  10.734
   97W        W72522  18.551  33.828  12.522
   98W        W72523   3.368   0.894  13.826
   99W        W72524  38.472  36.416  10.817
  100W        W72525  40.557  17.306   2.580
  101W        W72526  17.300  10.982   1.957
  102W        W72527   2.753  35.925  13.588
  103W        W72528  35.925  10.548   0.692
  104W        W72529  33.523  43.285   2.863
  105W        W72530  30.429   9.179  11.849
  106W        W72531  31.715  42.461  11.489
  107W        W72532  10.179  26.187  12.156
  108W        W72533  15.601  29.482   4.946
  109W        W72534  36.344  22.167   2.311
  110W        W72535  27.700  29.689   3.712
  111W        W72536  44.522  42.801  10.703
  112W        W72537  27.240  36.515  12.900
  113W        W72538  35.077  16.804   3.644
  114W        W72539  13.782  14.912  13.321
  115W        W72540  43.448  35.303   3.897
  116W        W72541  16.511  35.924   4.671
  117W        W72542  28.389  18.816  14.932
  118W        W72543  36.154  22.213   3.295
  119W        W72544  17.183  19.639   3.618
  120W        W72545  22.670  12.191  12.436
  121W        W72546   6.166   4.268   1.491
  122W        W72547  38.592  41.323  11.192
  123W        W72548  32.601   0.340   4.355
  124W        W72549  44.411  19.196  13.523
  125W        W72550  38.591  32.068   3.392
  126W        W72551  14.597  21.638   3.342
  127W        W72552  23.596   7.685  13.664
  128W        W72553  31.012  35.561   4.461
  129W        W72554  36.178  36.668  14.761
  130W        W72555  34.450  11.247   2.765
  131W        W72556  37.426  40.613   1.575
  132W        W72557  32.556  43.364   3.351
  133W        W72558   2.194   4.728  13.817
  134W        W72559  21.486  23.144   1.382
  135W        W72560  40.765  33.079   0.060
  136W        W72561  25.440   1.712  11.100
  137W        W72562  43.831  18.295   1.969
  138W        W72563  44.348  36.045   1.059
  139W        W72564  44.812  10.864   3.615
  140W        W72565  17.339   6.267   3.653
  141W        W72566  24.234  25.043   4.152
  142W        W72567   6.619  27.297   2.250
  143W        W72568   0.343  12.126  14.474
  144W        W72569  12.386  34.430  14.947
  145W        W72570   9.289  34.947  12.404
  146W        W72571   8.244  18.925   1.362
  147W        W72572   2.135  36.285  11.854
  148W        W72573   7.419   1.350   2.844
  149W        W72574  18.115  21.501  14.931
  150W        W72575  28.999   0.011   4.736
  151W        W72576  26.383  17.176   4.166
  152W        W72577  30.194  35.097   0.323
  153W        W72578  37.410  37.893   2.137
  154W        W72579  33.418   3.133   1.226
  155W        W72580  39.426  43.452   4.314
  156W        W72581  33.318  37.613  10.801
  157W        W72582  31.314  25.576   4.872
  158W        W72583  21.081   7.821   0.847
  159W        W72584  21.080  34.632  14.990
  160W        W72585   4.432  38.914  14.249
  161W        W72586  20.757  16.237  14.047
  162W        W72587  18.623  38.829   1.359
  163W        W72588  40.306  25.966  13.337
  164W        W72589  19.047  30.918   2.337
  165W        W72590  41.026  16.210  13.403
  166W        W72591  11.103  28.678  13.610
  167W        W72592  25.706  24.969   3.822
  168W        W72593  34.947  30.633  11.615
  169W        W72594  40.705  28.071  11.048
  170W        W72595  43.755   4.841  12.577
  171W        W72596   8.674   8.349  14.850
  172W        W72597  22.294  40.683  14.516
  173W        W72598   3.205  26.626   3.324
  174W        W72599  21.859  38.976   1.966
  175W        W72600  43.172  11.372   3.057
  176W        W72601  14.070  11.425  12.815
  177W        W72602  42.797  42.862   1.249
  178W        W72603  44.743  26.909  14.756
  179W        W72604  26.987  23.276  12.288
  180W        W72605   7.315   3.321  10.907
  181W        W72606  44.244  15.305   1.010
  182W        W72607  33.933  34.700   2.781
  183W        W72608  34.620   8.112  13.495
  184W        W72609  27.144  38.961  12.655
  185W        W72610  40.562  38.592  12.311
  186W        W72611  27.976  12.320  13.046
  187W        W72612  10.796  42.875   5.074
  188W        W72613  37.824  40.734   3.775
  189W        W72614  35.997   5.825   0.087
  190W        W72615  29.119   2.911  12.896
  191W        W72616  23.244  25.588  11.149
  192W        W72617   8.456   2.239  13.528
  193W        W72618  17.107  19.115  13.980
  194W        W72619  10.318  22.537   2.444
  195W        W72620  35.676  33.022  14.199
  196W        W72621  23.450   3.481  13.363
  197W        W72622  19.724  31.835   0.352
  198W        W72623  18.265   0.913   4.764
  199W        W72624  35.888  20.273   2.869
  200W        W72625  41.236   8.894  13.591
  201W        W72626  17.209  16.575  11.628
  202W        W72627  21.521  17.374  14.894
  203W        W72628   5.331  25.866   4.084
  204W        W72629  33.888  43.841   4.014
  205W        W72630  27.634  22.254  12.946
  206W        W72631  40.721  27.535   1.966
  207W        W72632   3.323  25.921   0.467
  208W        W72633   2.804  13.205  14.459
  209W        W72634   2.772   8.267  13.104
  210W        W72635   0.267   3.847  11.606
  211W        W72636  11.794  15.162  12.889
  212W        W72637  20.009  43.930  11.152
  213W        W72638  39.384   3.121  13.865
  214W        W72639  43.791  41.892  10.637
  215W        W72640  25.424  41.739  12.919
  216W        W72641  38.559  33.001  14.375
  217W        W72642  39.818  16.901   1.881
  218W        W72643   2.827   3.349   4.372
  219W        W72644  12.627  16.737   1.416
  220W        W72645  16.533  13.807   2.191
  221W        W72646   3.760  38.584   2.244
  222W        W72647  14.251  41.731  14.309
  223W        W72648  32.394  10.598   1.948
  224W        W72649   4.164   4.790  11.359
  225W        W72650  14.142  22.601   4.036
  226W        W72651  41.260  19.625  11.311
  227W        W72652  30.895  17.766   1.059
  228W        W72653  26.919  28.039   4.184
  229W        W72654  40.952  23.806   3.365
  230W        W72655  21.212  23.630  10.973
  231W        W72656  26.512  10.366  10.614
  232W        W72657  23.196  44.871  10.950
  233W        W72658  42.966  33.855  14.035
  234W        W72659  36.034  10.156   5.089
  235W        W72660  33.987   1.984   2.287
  236W        W72661   7.950   0.402   4.718
  237W        W72662  12.951  12.115  14.452
  238W        W72663  10.593  31.522   2.768
  239W        W72664  29.676   8.263  14.916
  240W        W72665  27.615  29.065   2.877
  241W        W72666  12.118   2.869   3.210
  242W        W72667  28.928   2.964  11.136
  243W        W72668  24.709  10.891   4.222
  244W        W72669  13.075  37.417  13.083
  245W        W72670  36.015  35.020   4.533
  246W        W72671   2.891  22.209  14.020
  247W        W72672  42.351   1.652   3.848
  248W        W72673  29.987  34.526  12.789
  249W        W72674  35.492  13.485   4.467
  250W        W72675  31.248   8.011  11.040
  251W        W72676  14.325  11.605  13.378
  252W        W72677  32.898  32.602  12.870
  253W        W72678  30.650  19.694  10.675
  254W        W72679  44.051  19.855   0.940
  255W        W72680  44.296  41.860   3.952
  256W        W72681  22.976  41.261  13.539
  257W        W72682  40.088  34.645  14.752
  258W        W72683  14.355  20.568   0.925
  259W        W72684   2.201  32.530  11.635
  260W        W72685  10.162   8.131   2.749
  261W        W72686  11.691  37.673   2.144
  262W        W72687  29.669  14.841   2.394
  263W        W72688  25.808  32.099   3.855
  264W        W72689  39.997   1.207   2.791
  265W        W72690   4.917   9.094   1.385
  266W        W72691  22.201   9.364   1.147
  267W        W72692   4.510  40.447  10.953
  268W        W72693   1.843  13.993   2.186
  269W        W72694   0.555  35.579   2.432
  270W        W72695   3.296  19.259   2.879
  271W        W72696  43.274  28.172  12.885
  272W        W72697  24.920  20.555  13.414
  273W        W72698  29.998  29.519   0.739
  274W        W72699  13.832   3.964   4.101
  275W        W72700  34.557  36.805   0.832
  276W        W72701   6.317  11.644  13.757
  277W        W72702   1.989  24.958   3.104
  278W        W72703   2.477   0.580   1.801
  279W        W72704  20.116  17.984  11.546
  280W        W72705  17.240  27.451  11.967
  281W        W72706  20.870   2.145  14.392
  282W        W72707   1.461  11.319   3.711
  283W        W72708  41.821  34.309   1.956
  284W        W72709  12.801  12.397   0.925
  285W        W72710  29.632   7.420  11.579
  286W        W72711  15.817  23.481  12.133
  287W        W72712  23.524  41.779  14.814
  288W        W72713  29.689  18.824  11.163
  289W        W72714   3.736  15.562  10.637
  290W        W72715  34.960   3.237   4.868
  291W        W72716   5.294  26.879   1.797
  292W        W72717  26.651  15.284  10.684
  293W        W72718   9.404  18.969  12.374
  294W        W72719  13.082  22.649  14.481
  295W        W72720   1.270   9.507  13.941
  296W        W72721  31.205   7.200  11.612
  297W        W72722  40.771  28.450  12.069
  298W        W72723   0.757  28.020   5.002
  299W        W72724  30.849  15.257   0.464
  300W        W72725  26.205  29.889   0.999
  301W        W72726   8.697  18.536  12.542
  302W        W72727  31.595  21.686   0.336
  303W        W72728  30.077  20.214   4.229
  304W        W72729   8.760  11.181  14.557
  305W        W72730  31.481  14.778   1.714
  306W        W72731  25.753  42.128  10.930
  307W        W72732  29.325  26.586   1.331
  308W        W72733  13.112  18.710   1.472
  309W        W72734  16.333  10.228   4.118
  310W        W72735  26.244   1.358  13.404
  311W        W72736  43.046  32.327  13.699
  312W        W72737  14.184  18.645   1.092
  313W        W72738  20.908  20.920  13.496
  314W        W72739  44.842  25.744  10.384
  315W        W72740  21.401  38.804   4.930
  316W        W72741  19.087  36.832   2.288
  317W        W72742  44.180  41.919  14.982
  318W        W72743   2.944  15.448  12.038
  319W        W72744  44.251  24.258  14.420
  320W        W72745  25.250  31.891   2.334
  321W        W72746  27.086  22.110   3.383
  322W        W72747  13.915  31.531   2.670
  323W        W72748  15.650   7.412   2.839
  324W        W72749   7.464  14.645   0.732
  325W        W72750  35.412  29.138   3.541
  326W        W72751  34.587  14.734   3.780
  327W        W72752   6.274  17.789   4.942
  328W        W72753  24.076  35.030  13.870
  329W        W72754  15.939  10.866   1.779
  330W        W72755  27.622  34.536   1.414
  331W        W72756  37.998  10.653  10.868
  332W        W72757  15.773  11.219  14.506
  333W        W72758  27.520  18.254   4.208
  334W        W72759  12.211   7.191   3.259
  335W        W72760  24.603  32.080   1.817
  336W        W72761   5.453  15.192  12.138
  337W        W72762   9.964  32.302   4.555
  338W        W72763   2.812  15.376   1.808
  339W        W72764  38.393   3.133  13.550
  340W        W72765  14.907  37.314  13.418
  341W        W72766  11.160  11.058  14.896
  342W        W72767  12.282  23.863   4.076
  343W        W72768  40.434  39.826   4.738
  344W        W72769  42.014  42.313   2.772
  345W        W72770   4.060  29.900  13.787
  346W        W72771  19.294  24.926  14.961
  347W        W72772  31.652  27.449  10.572
  348W        W72773  25.784  25.605   0.790
  349W        W72774  34.137  20.057  12.967
  350W        W72775   4.821   6.269  10.195
  351W        W72776  12.322  26.758   2.146
  352W        W72777  18.320  11.241   2.757
  353W        W72778  14.055  26.661  11.957
  354W        W72779   1.832  32.981   1.312
  355W        W72780   2.239  28.144  12.625
  356W        W72781  12.686  33.436  14.798
  357W        W72782  43.502  15.921   1.380
  358W        W72783  36.229  29.632   3.919
  359W        W72784  42.399  17.276   2.749
  360W        W72785   0.500  17.278   0.238
  361W        W72786  32.620  11.051   2.133
  362W        W72787  32.517  33.437   1.263
  363W        W72788  19.613  32.684  13.310
  364W        W72789  27.085  22.116  12.629
  365W        W72790  44.810  40.826  11.938
  366W        W72791   0.692  38.327   0.870
  367W        W72792  18.119  18.039   2.828
  368W        W72793  12.045  10.641  11.645
  369W        W72794  41.006  26.644  10.725
  370W        W72795  44.912  37.793   2.468
  371W        W72796  21.244  12.121   3.862
  372W        W72797  20.110  17.067   3.620
  373W        W72798   7.497   7.049  12.355
  374W        W72799  35.653  21.132   1.196
  375W        W72800  37.556  40.986   0.060
  376W        W72801  39.803  40.023   1.764
  377W        W72802  26.052   1.056   1.239
  378W        W72803  13.110   0.928  11.473
  379W        W72804  20.834  16.274  14.597
  380W        W72805  19.178  16.819  14.381
  381W        W72806  37.190  14.979  11.729
  382W        W72807  19.556  23.136   4.880
  383W        W72808   5.401  14.284  10.696
  384W        W72809  21.529  42.222   3.195
  385W        W72810  43.249   7.189  11.185
  386W        W72811   6.853  18.125  14.728
  387W        W72812   4.968  43.815  10.311
  388W        W72813  14.023   0.943   5.057
  389W        W72814  24.787   2.070   4.111
  390W        W72815  10.194   1.326  12.349
  391W        W72816   3.813  26.064  14.468
  392W        W72817  28.237  13.260   2.321
  393W        W72818   9.692  11.257   4.787
  394W        W72819  23.181  38.572   2.787
  395W        W72820  38.473  35.497  14.791
  396W        W72821   4.181  34.562   4.042
  397W        W72822  23.040  38.000   0.846
  398W        W72823  15.609  26.168   1.077
  399W        W72824  27.327  14.179   1.236
  400W        W72825   7.606  18.661   3.633
  401W        W72826  20.965   2.968  14.706
  402W        W72827  22.469   8.661   0.550
  403W        W72828  30.999  29.072  12.900
  404W        W72829  37.576  21.517   2.314
  405W        W72830  29.341  24.342   1.507
  406W        W72831  24.143  19.696  13.140
  407W        W72832  17.744  27.275  12.976
  408W        W72833   9.732  33.953  10.651
  409W        W72834  30.663  34.567  14.408
  410W        W72835  26.629  41.798   3.176
  411W        W72836  16.097  44.148  11.187
  412W        W72837  37.397  13.818  14.966
  413W        W72838   0.909  19.395   5.097
  414W        W72839   7.245  41.566   0.740
  415W        W72840  16.971  20.028   4.529
  416W        W72841  31.483  37.207   3.809
  417W        W72842   5.196  34.495   1.707
  418W        W72843   9.406   2.796   3.874
  419W        W72844  19.750  10.330   1.327
  420W        W72845  40.917  18.088  14.338
  421W        W72846  20.304  15.152   1.728
  422W        W72847  38.988  29.189   1.701
  423W        W72848   4.632  34.662   4.265
  424W        W72849   1.181  19.552  10.715
  425W        W72850  33.461  43.218  13.254
  426W        W72851  17.085   2.325  12.607
  427W        W72852  14.258  39.760   3.042
  428W        W72853   3.920   9.327  10.797
  429W        W72854   8.592  15.595  10.667
  430W        W72855  14.804   0.673   2.326
  431W        W72856  37.039  38.958   2.430
  432W        W72857  11.707   7.119  11.190
  433W        W72858  31.189  12.682  14.488
  434W        W72859  15.528  16.617   1.320
  435W        W72860  15.322  36.322   2.866
  436W        W72861  15.083   5.395   1.777
  437W        W72862  39.320  20.887   4.455
  438W        W72863  42.324  31.024   0.364
  439W        W72864  24.571  11.898  14.015
  440W        W72865  26.682  20.570   3.014
  441W        W72866   6.649  14.222  14.857
  442W        W72867  18.718  11.398   0.959
  443W        W72868  38.362  34.723  11.685
  444W        W72869  14.254  32.152   4.876
  445W        W72870  11.387   1.729   0.788
  446W        W72871  30.815   6.640  13.057
  447W        W72872  13.193  18.318   2.754
  448W        W72873  28.830  14.190  12.417
  449W        W72874  34.363  37.822  12.095
  450W        W72875  22.533  32.951  10.710
  451W        W72876  27.707  43.354   3.330
  452W        W72877  30.144  14.172  14.433
  453W        W72878  41.286  33.674  13.552
  454W        W72879  32.030  41.514  14.728
  455W        W72880   5.677  40.410   0.364
  456W        W72881  31.855   6.249  12.442
  457W        W72882  15.447  37.484   4.598
  458W        W72883  30.839  26.037   0.714
  459W        W72884  20.767  35.616  12.957
  460W        W72885  39.868  13.899   4.523
  461W        W72886  44.169  27.637   3.128
  462W        W72887  31.482  12.848  12.622
  463W        W72888  15.250  34.882   3.598
  464W        W72889  18.076  20.484   4.072
  465W        W72890   8.705  25.548   3.632
  466W        W72891  18.190   0.684  12.596
  467W        W72892  27.069  37.309   1.225
  468W        W72893   2.013  40.924  12.905
  469W        W72894  17.833  35.875  14.867
  470W        W72895  31.050  15.091  13.172
  471W        W72896  28.493  21.920  14.769
  472W        W72897  21.297  28.653   4.094
  473W        W72898  44.967  21.801   1.759
  474W        W72899  41.230  15.049   2.916
  475W        W72900  43.345  22.975   4.550
  476W        W72901  18.085  24.704  13.748
  477W        W72902  14.234  18.391  11.129
  478W        W72903   8.671  24.605   3.593
  479W        W72904  41.833  27.892  12.548
  480W        W72905   1.950  43.037   2.666
  481W        W72906   6.800  28.220  11.325
  482W        W72907  30.349  21.654  11.266
  483W        W72908  42.460  25.513   1.764
  484W        W72909  14.384   8.295  13.332
  485W        W72910  15.794  25.573   0.400
  486W        W72911   2.197   6.382   3.116
  487W        W72912  27.476  25.703   1.292
  488W        W72913  33.631  17.044   2.652
  489W        W72914  10.704  31.113  10.450
  490W        W72915  25.639  18.500  13.133
  491W        W72916  15.755  34.319  13.918
  492W        W72917  18.104  32.895  10.264
  493W        W72918  25.236  19.452  11.121
  494W        W72919   9.723   5.187   2.771
  495W        W72920  11.151   2.781   5.131
  496W        W72921   6.750  33.630  12.976
  497W        W72922   5.260   6.806   1.026
  498W        W72923  14.631  24.169   5.466
  499W        W72924  33.496   3.281   2.673
  500W        W72925  28.798  41.022   1.783
  501W        W72926  39.421  16.791  11.575
  502W        W72927  16.206  34.630  10.921
  503W        W72928  10.136  11.893   5.074
  504W        W72929  38.966  18.735  10.615
  505W        W72930   7.127  32.954   0.930
  506W        W72931  16.041  18.659   0.720
  507W        W72932  27.106  20.176  12.393
  508W        W72933   0.636  20.762  10.313
  509W        W72934  31.857  29.707  13.438
  510W        W72935  36.611  17.901   4.183
  511W        W72936   7.959  25.991  12.365
  512W        W72937   0.434  25.090   3.095
  513W        W72938   9.765  14.369  13.113
  514W        W72939  29.845  19.518  12.390
  515W        W72940  30.886  10.256   2.272
  516W        W72941  38.267   1.116   0.895
  517W        W72942  33.102  22.474   4.239
  518W        W72943  35.548  24.770   2.134
  519W        W72944   9.030   1.004   4.110
  520W        W72945  44.726  42.330  13.457
  521W        W72946  23.705  15.232  13.642
  522W        W72947  19.648   7.807   2.786
  523W        W72948  32.512  28.456   4.105
  524W        W72949  37.926   0.110   3.797
  525W        W72950  19.052   2.487  10.979
  526W        W72951  31.375  44.232   4.489
  527W        W72952  21.249  33.261  11.642
  528W        W72953  23.021   8.653   2.757
  529W        W72954  28.242  21.016  13.509
  530W        W72955   9.313  16.834  14.389
  531W        W72956   2.721   0.260  13.397
  532W        W72957   2.355  33.859   0.072
  533W        W72958  30.716  42.370   0.912
  534W        W72959   3.272  23.101   1.798
  535W        W72960  11.850   4.615  12.737
  536W        W72961  11.758  13.677  12.772
  537W        W72962  40.474  19.926  10.249
  538W        W72963  23.217  10.221  11.197
  539W        W72964   7.124  22.514  12.104
  540W        W72965   8.417  36.965  10.933
  541W        W72966  31.728  33.888   2.068
  542W        W72967  12.060  32.803   2.332
  543W        W72968   1.019  26.957  12.357
  544W        W72969  15.995  43.405   0.216
  545W        W72970  27.839  13.629  13.491
  546W        W72971  22.640  31.858   3.800
  547W        W72972  36.166  24.983   3.356
  548W        W72973  35.813   3.050   1.276
  549W        W72974  19.311  28.548  12.935
  550W        W72975  10.947  21.749  11.249
  551W        W72976  12.015  38.213   2.257
  552W        W72977  30.056  38.558   0.927
  553W        W72978  34.854  42.986  14.545
  554W        W72979  29.937  31.021  13.837
  555W        W72980   2.962  11.049  11.027
  556W        W72981  35.425  35.871   3.241
  557W        W72982  26.916  32.400   2.628
  558W        W72983  37.644  44.735  12.106
  559W        W72984   9.633  23.993   2.181
  560W        W72985  43.623  42.535   1.876
  561W        W72986  18.273  17.832  14.251
  562W        W72987  40.594  13.883   4.129
  563W        W72988  12.010  29.213  13.407
  564W        W72989  11.876  18.520  12.977
  565W        W72990  17.655  14.412  12.301
  566W        W72991   6.860  39.451  14.744
  567W        W72992  23.946  13.761   4.631
  568W        W72993  38.506  44.482  14.026
  569W        W72994  23.185   9.897   4.205
  570W        W72995  13.696   9.885   4.284
  571W        W72996   8.842  15.616  13.866
  572W        W72997  10.938   2.333   5.015
  573W        W72998   1.990  18.686   2.732
  574W        W72999   1.493  39.229   1.999
  575W        W73000   8.913  43.563  12.232
  576W        W73001   4.709  38.619  13.282
  577W        W73002  25.022  42.602   0.327
  578W        W73003  20.996  13.634  14.851
  579W        W73004  11.190  40.777   0.882
  580W        W73005  35.060   1.343  14.851
  581W        W73006  29.144  17.303   2.767
  582W        W73007  33.111  39.146  11.006
  583W        W73008  41.969  29.841  12.381
  584W        W73009   9.455  29.204  11.969
  585W        W73010   2.394  43.804   4.176
  586W        W73011  42.261  38.487   1.683
  587W        W73012  22.659  41.017  14.424
  588W        W73013  13.222  10.394   4.882
  589W        W73014   8.359  12.396   4.288
  590W        W73015  41.852  34.775   1.686
  591W        W73016  32.459  25.289   2.321
  592W        W73017  42.576  31.073   0.812
  593W        W73018  36.912  16.690   0.292
  594W        W73019   6.684   7.977  12.175
  595W        W73020  42.798  41.532   0.332
  596W        W73021  27.522   9.292  10.759
  597W        W73022  37.396  30.056   3.601
  598W        W73023   8.098   3.833   2.672
  599W        W73024  33.416  10.578   3.127
  600W        W73025  32.086   0.747   5.051
  601W        W73026  38.261  18.572   3.734
  602W        W73027  16.175  32.058  12.951
  603W        W73028  22.150  40.286  14.798
  604W        W73029  21.187  31.166   4.824
  605W        W73030   5.594  37.869  13.467
  606W        W73031  19.842   3.175   0.537
  607W        W73032  32.073  31.476   2.408
  608W        W73033  15.362  15.801   4.070
  609W        W73034  13.809  15.855   2.874
  610W        W73035   0.297  35.395   2.842
  611W        W73036  34.599  25.933  11.005
  612W        W73037  31.424  42.891   0.486
  613W        W73038  39.855  25.528   4.616
  614W        W73039   1.748  34.923  11.321
  615W        W73040  36.242   3.659   3.678
  616W        W73041  30.586  38.644   2.322
  617W        W73042   0.503  29.113   4.486
  618W        W73043  28.212  38.832  11.354
  619W        W73044  16.186  33.141  12.563
  620W        W73045   5.918  30.960   3.156
  621W        W73046   1.672   1.184   3.378
  622W        W73047   8.810   3.239   4.715
  623W        W73048  13.808  39.764  12.106
  624W        W73049  21.901  13.083  11.640
  625W        W73050  32.144  32.480   1.674
  626W        W73051  44.996  44.809   0.412
  627W        W73052  11.218   2.793  12.467
  628W        W73053   9.110   0.403  13.418
  629W        W73054  17.627   7.200  14.976
  630W        W73055  33.403  29.410   2.246
  631W        W73056  30.218   8.198   3.382
  632W        W73057   1.397  11.301  11.886
  633W        W73058  10.826  16.393  11.929
  634W        W73059  20.497  15.609   0.708
  635W        W73060  33.959  12.873  10.681
  636W        W73061   3.760  14.326  11.132
  637W        W73062   4.784  27.066   2.217
  638W        W73063  28.869   1.401   2.869
  639W        W73064  43.169  36.355   0.418
  640W        W73065  18.761   9.179  13.003
  641W        W73066  14.369  15.654   4.139
  642W        W73067  44.920   5.403  13.929
  643W        W73068  25.554   7.338   2.801
  644W        W73069  11.554  18.127   2.737
  645W        W73070  13.532   8.275  12.859
  646W        W73071  37.020   9.602   3.276
  647W        W73072  26.723  40.885   2.462
  648W        W73073   4.750  21.609  10.502
  649W        W73074  16.615  28.167   4.412
  650W        W73075  16.057  19.664   2.372
  651W        W73076   9.823  35.063   4.406
  652W        W73077  30.894   5.112  10.906
  653W        W73078  18.920   0.908  14.981
  654W        W73079   0.081   0.757  11.119
  655W        W73080  10.377  22.092  11.492
  656W        W73081  17.689  41.986  11.688
  657W        W73082  18.693  29.409  12.643
  658W        W73083  33.153  29.426  11.079
  659W        W73084  36.128  18.545  10.413
  660W        W73085   5.340  11.815  13.073
  661W        W73086  19.044  13.804  12.554
  662W        W73087   1.972   5.190   1.789
  663W        W73088  20.342  10.270  10.218
  664W        W73089  43.932  27.302  14.873
  665W        W73090  25.419  34.499  14.879
  666W        W73091   5.106  34.564  13.581
  667W        W73092   2.370  41.951  14.510
  668W        W73093  22.532   7.809   4.165
  669W        W73094  28.174  33.090  11.817
  670W        W73095  17.190   8.615  14.284
  671W        W73096   5.360  31.969  14.385
  672W        W73097  42.005   9.940  14.498
  673W        W73098  12.553  18.954  14.406
  674W        W73099   4.154  38.379   3.799
  675W        W73100  37.909  27.405   0.987
  676W        W73101   1.663   9.944  11.102
  677W        W73102  13.749   1.927   2.794
  678W        W73103  32.846  31.377   0.575
  679W        W73104  43.073  30.518   1.393
  680W        W73105  32.094  22.007   4.790
  681W        W73106  34.061  20.521  14.024
  682W        W73107   4.741  20.694   1.734
  683W        W73108  28.802  40.464   3.012
  684W        W73109  12.604  12.122  14.827
  685W        W73110   9.755  13.529  11.971
  686W        W73111  32.109  28.021   0.786
  687W        W73112   1.275  12.542   1.440
  688W        W73113  33.087   5.111   1.866
  689W        W73114  37.581  20.586  12.630
  690W        W73115  19.932  36.609  14.292
  691W        W73116  20.490  28.003   0.974
  692W        W73117  15.748  36.821   3.693
  693W        W73118   1.719  15.082  14.369
  694W        W73119  35.961  40.478  10.469
  695W        W73120  33.328  26.149  10.795
  696W        W73121   4.715  14.699   0.202
  697W        W73122  42.297  10.749  10.708
  698W        W73123  12.723   2.159  11.957
  699W        W73124   0.609   6.734   2.804
  700W        W73125  14.208  19.798  14.285
  701W        W73126  42.020  41.931  11.554
  702W        W73127   5.197  11.572  12.060
  703W        W73128  24.839  29.112  13.878
  704W        W73129  38.693  35.425   9.867
  705W        W73130  30.990   0.731   0.552
  706W        W73131  32.402  41.603  12.367
  707W        W73132  25.258  38.496   4.107
  708W        W73133   9.893  18.300   1.839
  709W        W73134  33.060   8.388   1.349
  710W        W73135  10.424  25.520  11.114
  711W        W73136  23.964   6.670  11.071
  712W        W73137  17.705   4.851   3.329
  713W        W73138  15.621   0.084  12.521
  714W        W73139   9.785   7.477  13.268
  715W        W73140   1.735  11.775  13.553
  716W        W73141  30.151  10.363  10.962
  717W        W73142  39.500  17.535   4.181
  718W        W73143  27.959  22.184  13.329
  719W        W73144   2.795  36.994   0.870
  720W        W73145  22.032   0.816  13.324
  721W        W73146   5.912  18.774   1.855
  722W        W73147  10.470  22.512  14.880
  723W        W73148   4.213   8.316   2.439
  724W        W73149   9.651  13.651   0.681
  725W        W73150   7.327  24.314  13.034
  726W        W73151  12.317  37.117  14.339
  727W        W73152  20.768  27.468  12.596
  728W        W73153  26.306  37.938   4.571
  729W        W73154  32.139  11.853  10.377
  730W        W73155   2.673   6.988  10.109
  731W        W73156  20.338  33.538  14.130
  732W        W73157  19.054  22.988   0.915
  733W        W73158  30.623  35.782  11.104
  734W        W73159  30.527  11.781   0.049
  735W        W73160   9.976  31.898  12.447
  736W        W73161   8.198  42.948  12.004
  737W        W73162  39.333   3.133   3.407
  738W        W73163  38.476  27.106   0.341
  739W        W73164  11.674  27.192   0.893
  740W        W73165  12.906   1.422  10.686
  741W        W73166  34.058  44.571   0.256
  742W        W73167   5.384   9.218  14.072
  743W        W73168   2.794  13.208   1.415
  744W        W73169  30.659  26.463  14.961
  745W        W73170  26.167  20.114  14.114
  746W        W73171  30.777  40.571  12.334
  747W        W73172  12.700  26.610  11.955
  748W        W73173   0.904  44.985   3.467
  749W        W73174  16.186  32.431   1.437
  750W        W73175  27.388  44.066   3.696
  751W        W73176  21.957  33.928   3.244
  752W        W73177  19.614   5.904  13.052
  753W        W73178  38.375  25.779  12.607
  754W        W73179  40.792   1.303  12.854
  755W        W73180  11.666  14.104   4.598
  756W        W73181  35.042   5.316   1.933
  757W        W73182  17.724  18.081   1.270
  758W        W73183  40.875   0.489   3.459
  759W        W73184  44.382  15.016   2.272
  760W        W73185  20.847   9.183  13.779
  761W        W73186  39.006  42.068   2.570
  762W        W73187  43.928  41.950  12.047
  763W        W73188  32.234  15.201   1.667
  764W        W73189  21.132  32.444   5.091
  765W        W73190  42.342  18.340  12.568
  766W        W73191  38.933   2.730   4.506
  767W        W73192  32.930  29.189   2.339
  768W        W73193  22.727  25.561  12.842
  769W        W73194  41.887  18.213  12.835
  770W        W73195   5.739   2.178   4.189
  771W        W73196  23.301  31.430  10.485
  772W        W73197  40.946  18.037  11.441
  773W        W73198   1.651  31.320  10.596
  774W        W73199  32.170  17.577  10.673
  775W        W73200   0.991  18.276  12.010
  776W        W73201  42.440  32.839   1.422
  777W        W73202   8.461   5.907   4.157
  778W        W73203  36.849  26.712   0.773
  779W        W73204  15.282   3.035  12.495
  780W        W73205  33.596  10.230   2.779
  781W        W73206  38.419  40.499  11.412
  782W        W73207   0.683  19.554   4.622
  783W        W73208  26.706  27.455  14.735
  784W        W73209   2.989  37.889   1.269
  785W        W73210   3.740  35.458   1.662
  786W        W73211  32.277   3.395  14.875
  787W        W73212  41.582  36.283  14.163
  788W        W73213  20.563  44.498   2.414
  789W        W73214   8.890   9.688   1.432
  790W        W73215  26.225  42.581   3.124
  791W        W73216   1.254   6.234   1.459
  792W        W73217  14.907   3.691   2.810
  793W        W73218  30.162  32.903   4.587
  794W        W73219  35.348  13.641  11.611
  795W        W73220  41.238  41.843   2.678
  796W        W73221  44.751  14.722   3.248
  797W        W73222  18.207  10.859   2.009
  798W        W73223  33.789   5.417   2.276
  799W        W73224  18.073  44.151   4.109
  800W        W73225  20.546  42.986   4.404
  801W        W73226  26.183   8.746   4.903
  802W        W73227  18.008   1.472   3.649
  803W        W73228  22.985  18.301   3.132
  804W        W73229  39.345  20.353   1.809
  805W        W73230  25.079  37.418   0.318
  806W        W73231   8.965  40.379  11.098
  807W        W73232  11.022  12.913  11.936
  808W        W73233  12.675  27.889  12.477
  809W        W73234  38.637  37.316   2.754
  810W        W73235  42.573  14.860  14.767
  811W        W73236  25.106  42.952  11.545
  812W        W73237  27.263  16.137  12.521
  813W        W73238  18.528  18.686  12.089
  814W        W73239   2.363  20.601   4.365
  815W        W73240   4.752   9.886  11.556
  816W        W73241   5.195  15.777   1.685
  817W        W73242  22.667  11.880   3.119
  818W        W73243  20.714  37.051   4.500
  819W        W73244  38.475  34.913  12.198
  820W        W73245  21.126  34.503   3.189
  821W        W73246  31.103  18.309  13.439
  822W        W73247  44.330  36.049  12.041
  823W        W73248  33.793  19.144  12.825
  824W        W73249  42.841  16.577  13.887
  825W        W73250  18.770  34.094  11.523
  826W        W73251  23.025  28.156   4.671
  827W        W73252  23.211  41.381   3.178
  828W        W73253  44.293  12.824  12.460
  829W        W73254   8.184  34.084  12.293
  830W        W73255   6.856  38.025   1.417
  831W        W73256  25.221  38.723  13.581
  832W        W73257   3.365  21.436   3.289
  833W        W73258  43.812  26.858  13.899
  834W        W73259  33.387  34.081   0.025
  835W        W73260  22.551  15.146  12.763
  836W        W73261   6.409  42.380   1.159
  837W        W73262  31.918  27.573   0.945
  838W        W73263   7.910  23.656  14.382
  839W        W73264  24.172   6.924   0.171
  840W        W73265   6.277  33.973   3.883
  841W        W73266   9.424  38.104   1.011
  842W        W73267   8.612  31.938  11.165
  843W        W73268  22.155  26.244   4.582
  844W        W73269   9.727  43.907   0.941
  845W        W73270  15.688  19.520  12.487
  846W        W73271  24.291  40.074   2.319
  847W        W73272   5.348  31.561  14.038
  848W        W73273   2.675  38.483  11.532
  849W        W73274  41.807  25.301  11.388
  850W        W73275   6.891  16.178   1.436
  851W        W73276  15.090  36.848  13.593
  852W        W73277  24.991   7.795   1.048
  853W        W73278   3.412   3.908  13.540
  854W        W73279  32.441  15.835   2.279
  855W        W73280  37.336  28.212  10.601
  856W        W73281  38.350  30.482  14.279
  857W        W73282  24.817  20.313   1.863
  858W        W73283  24.888  23.550   4.664
  859W        W73284  32.539  23.962  13.996
  860W        W73285   9.629  34.834   1.328
  861W        W73286  44.165   3.820  11.848
  862W        W73287  42.235  35.555  13.904
  863W        W73288   3.953  21.295  10.163
  864W        W73289  18.830   0.356   3.768
  865W        W73290  17.029  36.988  13.950
  866W        W73291  25.541  17.641   0.896
  867W        W73292  38.305  20.151  11.981
  868W        W73293   6.561  34.460   3.107
  869W        W73294   2.379   7.267  13.581
  870W        W73295  29.142  35.396  11.122
  871W        W73296  40.276  28.350  11.887
  872W        W73297   3.728  44.645  11.301
  873W        W73298  24.866  43.904   4.469
  874W        W73299  37.076  27.741   2.801
  875W        W73300   7.211   2.486  12.862
  876W        W73301  28.868  17.103  11.409
  877W        W73302   1.879  18.197  12.876
  878W        W73303  38.462   5.206   3.235
  879W        W73304  12.932  34.903   0.984
  880W        W73305  24.175  15.788  12.032
  881W        W73306  19.167   1.102  12.926
  882W        W73307  33.853  29.370  14.794
  883W        W73308  13.125   6.905  11.554
  884W        W73309  30.894  42.835  14.323
  885W        W73310  14.101  12.512   1.453
  886W        W73311   9.890  11.685   1.809
  887W        W73312  30.319  17.312   1.284
  888W        W73313  15.291  33.468   2.799
  889W        W73314   5.403   7.838  12.906
  890W        W73315  29.905   6.615   0.957
  891W        W73316  29.726  38.177   9.794
  892W        W73317  34.692  29.189   3.357
  893W        W73318  10.360  29.200  11.096
  894W        W73319   1.565   9.325   2.514
  895W        W73320  28.760  32.428   1.912
  896W        W73321  40.353  16.131  14.358
  897W        W73322  15.211   5.723   1.319
  898W        W73323  29.145  29.489   4.830
  899W        W73324  32.468  30.423   2.848
  900W        W73325  30.792  40.420   5.588
  901W        W73326  12.596  44.828   2.423
  902W        W73327  36.155   1.418  10.480
  903W        W73328  36.050  11.813   1.482
  904W        W73329   6.943  17.667   2.819
  905W        W73330   2.779   5.766   3.473
  906W        W73331  44.508  38.980  14.769
  907W        W73332  24.144  42.819  11.632
  908W        W73333   9.610  12.135   4.465
  909W        W73334  19.514  10.554  11.370
  910W        W73335   8.919  33.278   2.277
  911W        W73336  16.579  14.925   0.921
  912W        W73337  10.787  20.112  12.373
  913W        W73338  21.215  14.191  13.347
  914W        W73339  11.727  28.625  11.986
  915W        W73340  10.507   7.287  10.035
  916W        W73341  40.042  21.543   4.626
  917W        W73342  15.142  39.454  14.010
  918W        W73343  12.299  35.455   2.134
  919W        W73344  44.667  21.771  10.527
  920W        W73345   6.835  34.391   4.150
  921W        W73346  44.224  34.448   0.839
  922W        W73347  39.905  35.592   1.234
  923W        W73348  39.550   5.316  12.336
  924W        W73349  34.408  30.491   3.717
  925W        W73350  13.210   1.242   4.734
  926W        W73351  25.912  24.159   0.767
  927W        W73352  13.080   9.339  11.668
  928W        W73353  25.625  29.630  13.911
  929W        W73354  41.553  43.973  11.438
  930W        W73355  31.605  17.833  13.060
  931W        W73356  44.314  19.445  14.508
  932W        W73357  17.310  19.040   0.844
  933W        W73358  18.529  35.652   2.714
  934W        W73359   9.727  26.325  11.957
  935W        W73360  33.687   3.740   4.994
  936W        W73361   5.279   1.214  13.466
  937W        W73362  21.707  14.105  14.748
  938W        W73363  35.886  36.159   4.247
  939W        W73364  23.928  14.298  10.583
  940W        W73365  19.044  21.033   1.868
  941W        W73366  33.220  25.078   2.776
  942W        W73367  28.204  22.097  10.354
  943W        W73368  35.623  37.788   0.714
  944W        W73369   5.340  38.966   4.275
  945W        W73370   2.913  17.036   2.430
  946W        W73371  42.058  14.721   2.719
  947W        W73372  40.953  34.824  12.792
  948W        W73373  14.641   3.793  14.159
  949W        W73374  37.753  16.211  11.936
  950W        W73375  39.747   7.856   3.759
  951W        W73376  29.184  27.535  13.051
  952W        W73377  41.416  40.847  11.840
  953W        W73378   6.870  22.105   1.660
  954W        W73379  11.141  36.103  13.746
  955W        W73380  24.028  18.304   0.880
  956W        W73381  23.615  39.428   2.258
  957W        W73382   6.730  33.540   3.585
  958W        W73383  30.127  11.384  11.727
  959W        W73384   1.326   0.858   2.393
  960W        W73385   5.397  10.248   4.590
  961W        W73386  10.789  42.401   4.273
  962W        W73387  26.437  20.854   3.822
  963W        W73388  29.390  44.773   1.227
  964W        W73389  19.029  44.518   4.152
  965W        W73390  34.468  14.342  14.794
  966W        W73391  28.655  23.528  11.947
  967W        W73392  44.062  40.099   1.733
  968W        W73393  15.381  35.381   3.703
  969W        W73394  33.668  20.443   3.618
  970W        W73395  26.864  42.834   2.282
  971W        W73396  25.768   2.694  13.436
  972W        W73397  30.905  16.630  14.759
  973W        W73398   4.329  26.190   2.171
  974W        W73399  15.401  22.140  12.439
  975W        W73400  29.443  33.197  11.699
  976W        W73401   9.602   3.197  12.139
  977W        W73402  13.472  21.660   5.076
  978W        W73403   5.268  41.090  11.536
  979W        W73404  18.675   3.559   1.705
  980W        W73405  11.324  32.069  11.927
  981W        W73406  12.050  44.131  13.527
  982W        W73407  40.719  11.588  11.842
  983W        W73408  19.124  29.984  11.156
  984W        W73409  21.941  24.196  11.184
  985W        W73410   2.282  35.173  14.955
  986W        W73411   6.630  12.932  11.166
  987W        W73412  40.385  37.880  14.950
  988W        W73413   1.458  12.178  13.749
  989W        W73414  38.211   7.342  13.983
  990W        W73415  11.220  31.106   0.717
  991W        W73416  27.153  38.116   4.238
  992W        W73417  37.503  41.632   1.393
  993W        W73418  29.603  25.109   2.822
  994W        W73419  13.282  23.994  11.918
  995W        W73420   9.819  14.364  11.585
  996W        W73421  11.719  16.537  11.928
  997W        W73422  34.632   7.386   3.189
  998W        W73423  32.887  37.444   4.617
  999W        W73424  24.304  20.705   4.058
 1000W        W73425  16.520  22.603   3.755
 1001W        W73426   7.210  23.907  12.135
 1002W        W73427  37.613   9.175  10.988
 1003W        W73428  31.598  16.342   2.379
 1004W        W73429  25.619  32.849   5.383
 1005W        W73430  25.281   9.262  14.521
 1006W        W73431  36.949  37.953   1.845
 1007W        W73432  32.991  27.207  14.639
 1008W        W73433  29.638   8.716   3.655
 1009W        W73434  16.791  20.836   0.650
 1010W        W73435   9.745  31.872   0.387
 1011W        W73436  26.337  30.109   0.010
 1012W        W73437  24.777  26.859  13.378
 1013W        W73438  39.025   1.960   2.781
 1014W        W73439  26.693  22.261   4.557
 1015W        W73440  21.982   6.098   2.225
 1016W        W73441  34.400   1.501  10.773
 1017W        W73442  32.398  26.448  14.218
 1018W        W73443   0.478  15.696   3.825
 1019W        W73444  14.051  33.125   1.743
 1020W        W73445  24.889  30.022  14.315
 1021W        W73446  42.917  36.436  11.672
 1022W        W73447   8.790  41.367   0.010
 1023W        W73448  12.291   5.727   2.630
 1024W        W73449   1.185  24.969  11.861
 1025W        W73450   2.321  28.120   0.717
 1026W        W73451  10.193  24.193   3.903
 1027W        W73452   4.246   2.752   2.675
 1028W        W73453  31.240  35.869  13.595
 1029W        W73454  39.837  10.117   1.283
 1030W        W73455  28.752  21.040  13.402
 1031W        W73456  17.296   2.507   2.612
 1032W        W73457  23.550   9.868   1.287
 1033W        W73458  44.366   1.675   3.878
 1034W        W73459  20.099  11.144   1.052
 1035W        W73460  14.246  15.148   0.488
 1036W        W73461  35.988  18.492  13.946
 1037W        W73462  38.289   0.033   4.144
 1038W        W73463  10.125  40.547  13.881
 1039W        W73464  36.649  15.274   4.360
 1040W        W73465  30.005  12.335  14.409
 1041W        W73466  30.533  31.990   0.839
 1042W        W73467  40.791   5.744   2.265
 1043W        W73468  26.934  44.070   0.873
 1044W        W73469  10.183  42.129  12.376
 1045W        W73470  15.059  26.493  12.586
 1046W        W73471  31.550   5.308  13.348
 1047W        W73472  24.279  20.754  11.054
 1048W        W73473  17.667  34.518   3.830
 1049W        W73474  12.866  19.527  12.066
 1050W        W73475   0.396  30.953   0.384
 1051W        W73476  36.372  29.745  14.090
 1052W        W73477  20.781  38.006  13.835
 1053W        W73478  38.853  42.771   3.224
 1054W        W73479  29.491  22.654  10.294
 1055W        W73480   5.420  44.465   3.857
 1056W        W73481  39.816  11.378  13.806
 1057W        W73482  25.025  26.996  11.197
 1058W        W73483  20.205  38.599  13.331
 1059W        W73484  41.710  11.531  14.198
 1060W        W73485   7.233  34.922  12.947
 1061W        W73486  20.141  34.304  10.980
 1062W        W73487  26.200  37.412  14.757
 1063W        W73488  12.722  26.380   4.291
 1064W        W73489  29.452  38.134   4.453
 1065W        W73490  42.023   9.138   4.103
 1066W        W73491  30.976  12.418  11.699
 1067W        W73492  23.774  44.852  12.908
 1068W        W73493  30.453  20.036  12.156
 1069W        W73494  35.031  34.517   0.771
 1070W        W73495  13.645  30.736   3.182
 1071W        W73496   8.426  10.672  11.281
 1072W        W73497  43.399  28.508   1.508
 1073W        W73498  23.503   9.750  10.595
 1074W        W73499  17.862   3.513   1.275
 1075W        W73500  16.818  39.859   3.743
 1076W        W73501   1.317   6.185   1.983
 1077W        W73502   2.164  18.929   1.770
 1078W        W73503  28.137  13.592   4.144
 1079W        W73504   6.357  20.477  11.054
 1080W        W73505  43.681   4.373   1.369
 1081W        W73506  43.014   4.246  14.828
 1082W        W73507  22.334  12.807   2.278
 1083W        W73508  30.957  27.266  13.161
 1084W        W73509  14.370  38.905   3.181
 1085W        W73510  41.723   8.766   3.126
 1086W        W73511  14.578   8.707  14.342
 1087W        W73512  36.098  41.028   0.719
 1088W        W73513  36.795   0.784   1.771
 1089W        W73514  14.570  37.700   1.446
 1090W        W73515  34.145   3.843  12.553
 1091W        W73516  28.700  30.402  11.503
 1092W        W73517  40.780  30.980   1.558
 1093W        W73518  43.311  18.120   0.687
 1094W        W73519  23.269   4.187   4.272
 1095W        W73520  35.431  14.652   2.155
 1096W        W73521  36.724  41.874  12.288
 1097W        W73522  27.708   1.767   2.755
 1098W        W73523  11.066  22.642  12.265
 1099W        W73524  41.085  17.183  14.037
 1100W        W73525  24.577   6.142   2.310
 1101W        W73526  10.801  15.076  11.116
 1102W        W73527  28.603  24.251   1.003
 1103W        W73528  14.077   4.729   1.343
 1104W        W73529  25.084  20.383  11.128
 1105W        W73530  24.706  13.093  10.666
 1106W        W73531  12.737  34.955  11.594
 1107W        W73532  43.404  40.868  11.089
 1108W        W73533  19.737  28.244   0.295
 1109W        W73534  24.938  15.784  10.536
 1110W        W73535   4.485  16.284  10.554
 1111W        W73536  19.793  21.560  13.447
 1112W        W73537  16.359   0.072  14.408
 1113W        W73538  42.524  14.678  11.174
 1114W        W73539  36.042  23.989  14.336
 1115W        W73540  20.606  14.705   4.237
 1116W        W73541  33.818   3.908  12.964
 1117W        W73542  31.322   8.009  11.974
 1118W        W73543  15.130  36.607  14.074
 1119W        W73544  38.408  27.156   1.239
 1120W        W73545   2.803   5.677   4.497
 1121W        W73546  13.837  33.859   1.871
 1122W        W73547  32.367  21.683   1.385
 1123W        W73548  15.749  37.068  12.809
 1124W        W73549  40.854  41.523   1.368
 1125W        W73550   2.144  22.130   0.939
 1126W        W73551  19.238  30.485   2.092
 1127W        W73552  21.682  39.813  13.029
 1128W        W73553   2.308  43.304   0.172
 1129W        W73554  15.420  41.551  14.958
 1130W        W73555  35.335  30.459  14.886
 1131W        W73556  41.879   2.882  10.272
 1132W        W73557  38.243   9.857  13.775
 1133W        W73558  43.257  20.974   3.681
 1134W        W73559  10.863  41.541  14.566
 1135W        W73560  10.982  31.296  13.434
 1136W        W73561  40.109   8.239  14.795
 1137W        W73562  23.845  10.373   5.076
 1138W        W73563  39.084   4.493  13.991
 1139W        W73564  32.379  22.684   0.379
 1140W        W73565   6.965  37.772  14.133
 1141W        W73566  10.832  23.131   9.894
 1142W        W73567  43.908   9.458   4.078
 1143W        W73568  33.994  41.998  11.144
 1144W        W73569   2.272  17.610  10.474
 1145W        W73570  22.974  32.293   1.531
 1146W        W73571   9.966   6.162   3.647
 1147W        W73572  22.372  38.932  13.515
 1148W        W73573  17.774  26.659   0.518
 1149W        W73574   6.794  31.377  11.432
 1150W        W73575  28.837  42.241   0.211
 1151W        W73576  31.516  15.840  11.377
 1152W        W73577   1.953  29.852   0.681
 1153W        W73578  36.563   1.849   3.365
 1154W        W73579   0.283  12.878   1.817
 1155W        W73580  14.578  30.112   1.740
 1156W        W73581  28.452  19.160   3.839
 1157W        W73582  30.637  14.699   3.812
 1158W        W73583  18.114  23.214  14.743
 1159W        W73584   8.617  23.070  14.412
 1160W        W73585  20.736   9.320   1.262
 1161W        W73586  17.287  38.145  13.944
 1162W        W73587  25.973  23.733  12.471
 1163W        W73588  42.596  20.069   4.679
 1164W        W73589  27.204  33.597  14.220
 1165W        W73590  21.035  17.957   0.870
 1166W        W73591  24.585   9.690  13.907
 1167W        W73592  30.673  29.581  13.836
 1168W        W73593  42.426  14.495   4.864
 1169W        W73594  44.567  24.596  11.182
 1170W        W73595  11.292  28.578   2.682
 1171W        W73596  42.560  34.470  13.049
 1172W        W73597  43.566   8.809   3.731
 1173W        W73598  23.618   6.388  10.760
 1174W        W73599   0.482  39.080   4.458
 1175W        W73600  18.184  40.806  12.029
 1176W        W73601  27.962  37.116   0.937
 1177W        W73602  35.320  22.132   4.387
 1178W        W73603   3.057  18.004  12.427
 1179W        W73604  30.567  37.366  14.721
 1180W        W73605  29.492  11.020   1.490
 1181W        W73606  17.281   1.288   4.108
 1182W        W73607  39.486  44.854  12.080
 1183W        W73608  35.089  38.929  12.105
 1184W        W73609  44.858  28.635   0.424
 1185W        W73610  34.831  24.191  14.301
 1186W        W73611  39.998  32.884   4.293
 1187W        W73612   2.055  23.669  10.301
 1188W        W73613   9.093  40.217   1.530
 1189W        W73614  31.336   3.028  13.784
 1190W        W73615  40.231  42.619  10.313
 1191W        W73616   5.426  17.943   3.374
 1192W        W73617  22.138  22.311   1.404
 1193W        W73618  26.707  26.211  14.058
 1194W        W73619  29.566  23.066   4.475
 1195W        W73620  35.580  15.236  13.111
 1196W        W73621  33.159  40.331  13.254
 1197W        W73622   1.838  36.373   2.810
 1198W        W73623  43.961   8.707   1.806
 1199W        W73624   3.458  18.594   0.311
 1200W        W73625  44.389  41.841  12.386
 1201W        W73626   0.223  39.883   1.300
 1202W        W73627  30.685  20.551  13.431
 1203W        W73628  41.947  20.925  12.079
 1204W        W73629  39.770  22.186   0.244
 1205W        W73630  39.585  15.376   0.508
 1206W        W73631  23.654  30.596   3.131
 1207W        W73632  40.998  10.628  12.035
 1208W        W73633  39.465  13.728  12.768
 1209W        W73634   6.396   3.839  13.862
 1210W        W73635  18.879  19.839   3.295
 1211W        W73636  26.703  13.079   4.540
 1212W        W73637  15.712  41.913   2.189
 1213W        W73638  12.795  14.250  11.119
 1214W        W73639   1.496  39.725  11.850
 1215W        W73640  35.147  40.706   1.453
 1216W        W73641  24.129  27.570  12.602
 1217W        W73642  35.856  28.324   1.130
 1218W        W73643   5.148  24.380  13.964
 1219W        W73644  13.798  17.234   1.364
 1220W        W73645  32.912   0.920  13.288
 1221W        W73646  10.763  40.099  10.691
 1222W        W73647  44.467  31.512   9.760
 1223W        W73648   2.423  23.511  10.665
 1224W        W73649  37.371  18.087  12.086
 1225W        W73650  38.636  16.580   1.368
 1226W        W73651   1.724   5.779  10.671
 1227W        W73652  27.189  10.387   1.315
 1228W        W73653  17.960  24.683  11.168
 1229W        W73654  28.453   1.145  11.621
 1230W        W73655  30.864  21.305   1.288
 1231W        W73656   0.331  16.125  14.549
 1232W        W73657  17.830  40.799   3.212
 1233W        W73658  20.662  30.970   0.698
 1234W        W73659  28.904   3.161   3.174
 1235W        W73660  14.296  35.534  13.407
 1236W        W73661  30.606  27.714  11.375
 1237W        W73662  29.511  18.273  12.968
 1238W        W73663   1.818   6.423   4.360
 1239W        W73664  25.075  44.551  11.334
 1240W        W73665  18.268  30.606  12.765
 1241W        W73666   8.919   5.449   3.341
 1242W        W73667   6.286   3.922   0.869
 1243W        W73668  20.619  41.787  13.495
 1244W        W73669  42.596   8.640   1.695
 1245W        W73670   4.959  29.042  11.595
 1246W        W73671  31.426  11.113   2.442
 1247W        W73672  12.276  40.029   2.073
 1248W        W73673  14.686  26.758  13.947
 1249W        W73674  20.065  33.536   0.939
 1250W        W73675  17.789  27.908   0.840
 1251W        W73676  22.251   2.709  13.484
 1252W        W73677  28.995  21.784   0.312
 1253W        W73678   1.210  44.496  14.558
 1254W        W73679  41.752  41.290   3.194
 1255W        W73680  33.448   5.023  14.944
 1256W        W73681   7.257   9.950   4.326
 1257W        W73682  17.901  31.890   3.238
 1258W        W73683   6.367  15.167   2.219
 1259W        W73684  19.894  13.323   4.777
 1260W        W73685  36.257  23.731  11.616
 1261W        W73686  35.201  44.866   2.695
 1262W        W73687  42.309  43.099  12.680
 1263W        W73688  16.377  33.951  14.468
 1264W        W73689  25.939  21.173  10.378
 1265W        W73690  43.564  18.267  14.405
 1266W        W73691  10.902   1.947   2.829
 1267W        W73692  43.230  35.319  13.067
 1268W        W73693   5.812  42.253   3.731
 1269W        W73694   9.377   9.417  11.643
 1270W        W73695  39.553  19.117   3.228
 1271W        W73696  36.382   5.864  13.869
 1272W        W73697  21.293  38.362   0.555
 1273W        W73698  36.544  16.343   4.317
 1274W        W73699  40.266   1.414  12.883
 1275W        W73700  37.376  20.761  12.166
 1276W        W73701  21.753  30.962  11.467
 1277W        W73702   4.022  29.462  12.471
 1278W        W73703  21.601  38.750   2.359
 1279W        W73704   8.126  19.706  13.525
 1280W        W73705  30.975   1.030  12.977
 1281W        W73706  35.032  25.611  12.051
 1282W        W73707  13.881  40.462   0.299
 1283W        W73708   2.557  12.872   0.923
 1284W        W73709  43.480  25.959   2.719
 1285W        W73710  37.524  24.915  10.708
 1286W        W73711  25.789  28.820  14.513
 1287W        W73712  11.207   5.597   4.895
 1288W        W73713  15.831  33.132  10.257
 1289W        W73714  24.767  41.499   0.902
 1290W        W73715  27.618  43.425   2.279
 1291W        W73716  38.456  42.569  10.803
 1292W        W73717  22.195  21.810  12.026
 1293W        W73718  12.178  35.360   1.148
 1294W        W73719  39.968   9.895   4.033
 1295W        W73720  23.893  14.293   3.489
 1296W        W73721  34.543   1.948   3.262
 1297W        W73722  13.663  33.167   3.182
 1298W        W73723  37.463  39.362  14.226
 1299W        W73724   1.248  30.493  14.082
 1300W        W73725  26.697  18.502   4.566
 1301W        W73726  42.250  25.957  11.603
 1302W        W73727  35.531  23.951  14.913
 1303W        W73728  27.455  34.982   1.213
 1304W        W73729  12.206  21.143  11.702
 1305W        W73730   9.392  42.984   2.745
 1306W        W73731  25.062  30.660  11.948
 1307W        W73732  36.881  12.408  14.838
 1308W        W73733  42.004  22.864  11.550
 1309W        W73734  29.089  11.353   1.637
 1310W        W73735   8.866   7.648   0.494
 1311W        W73736  22.784  23.978  14.953
 1312W        W73737   7.404  41.902  14.339
 1313W        W73738  18.285  10.072   1.301
 1314W        W73739  11.541  42.174  10.625
 1315W        W73740  35.598  15.110  12.612
 1316W        W73741  18.352  15.272   3.308
 1317W        W73742  37.643  29.435   0.413
 1318W        W73743  42.427   0.247  13.392
 1319W        W73744  21.201  31.519  12.672
 1320W        W73745  42.165   5.699  12.131
 1321W        W73746  14.663  29.354   3.196
 1322W        W73747  28.899   5.784  12.080
 1323W        W73748  17.458  20.186   4.457
 1324W        W73749  22.212   7.047   4.025
 1325W        W73750   8.211  38.125  11.800
 1326W        W73751  20.514   7.810  10.754
 1327W        W73752   8.334  38.376   2.914
 1328W        W73753  41.816   8.972   4.929
 1329W        W73754  29.487  13.809   3.289
 1330W        W73755  17.065  34.136  11.122
 1331W        W73756  23.920  23.125   4.737
 1332W        W73757  22.729  33.288   3.238
 1333W        W73758  25.149  19.320   0.908
 1334W        W73759  23.314  36.602  11.989
 1335W        W73760  19.577  33.022   0.791
 1336W        W73761  27.885  33.938  12.124
 1337W        W73762  42.493  29.506   4.032
 1338W        W73763  43.847  39.846  12.910
 1339W        W73764  25.439  27.792   0.012
 1340W        W73765   7.565  17.008   3.772
 1341W        W73766  34.372  12.761   3.948
 1342W        W73767  28.462  25.673   4.751
 1343W        W73768   4.781  31.381   2.939
 1344W        W73769  33.916  11.819   3.082
 1345W        W73770  30.241  32.852   0.829
 1346W        W73771  22.735  16.861   3.760
 1347W        W73772   1.281  17.511   0.851
 1348W        W73773  10.369  33.631   4.553
 1349W        W73774  10.923   5.652   3.180
 1350W        W73775  25.454  20.655   4.650
 1351W        W73776  28.585   9.562   1.010
 1352W        W73777  12.188  11.850  12.959
 1353W        W73778   0.536   1.855   1.596
 1354W        W73779  26.039  27.571   1.475
 1355W        W73780  40.793  41.919  12.418
 1356W        W73781  26.671  28.228  12.429
 1357W        W73782  32.138   5.339   1.801
 1358W        W73783   1.878   0.591   0.791
 1359W        W73784  15.527  40.055  13.251
 1360W        W73785  16.360  36.076  12.482
 1361W        W73786  21.611   0.627  12.330
 1362W        W73787  25.637  27.919  12.346
 1363W        W73788  22.503  38.352  13.315
 1364W        W73789  21.546   3.444  14.159
 1365W        W73790  11.859  34.477  14.285
 1366W        W73791  24.760  12.240   1.779
 1367W        W73792   0.823   6.976  10.099
 1368W        W73793  18.485  18.327   1.904
 1369W        W73794   0.035  25.718   4.671
 1370W        W73795  26.141  30.852   2.100
 1371W        W73796  31.389  27.581   3.742
 1372W        W73797   4.935  12.594  14.355
 1373W        W73798  21.528  30.825   4.585
 1374W        W73799  24.481  32.614   0.180
 1375W        W73800  15.141  32.149  14.396
 1376W        W73801  31.117  18.040  12.978
 1377W        W73802  33.614  28.406   1.230
 1378W        W73803  39.803  26.168  13.331
 1379W        W73804  41.460  34.120   2.816
 1380W        W73805  26.527  11.729   3.069
 1381W        W73806  24.039  11.815   0.221
 1382W        W73807  17.845  23.973   4.595
 1383W        W73808  16.338  14.299   2.189
 1384W        W73809  23.297  35.428   3.347
 1385W        W73810  23.492  31.775  11.904
 1386W        W73811  11.717  18.102   3.687
 1387W        W73812  42.293  24.433   2.337
 1388W        W73813  29.603  30.067  13.721
 1389W        W73814   5.210   6.253   0.875
 1390W        W73815  33.033   4.223   4.939
 1391W        W73816   2.986  37.386   0.320
 1392W        W73817  17.610  20.041   2.319
 1393W        W73818  21.109  11.608  10.337
 1394W        W73819  42.072  37.352   5.001
 1395W        W73820  35.387  26.541  13.871
 1396W        W73821  22.602  17.247   2.156
 1397W        W73822  43.519  32.994   0.516
 1398W        W73823  10.257  36.101   1.213
 1399W        W73824  19.227  31.732   1.164
 1400W        W73825   6.903  21.026  11.604
 1401W        W73826  24.086  31.786  10.256
 1402W        W73827  24.927  19.572  12.476
 1403W        W73828  16.321  41.289   2.495
 1404W        W73829   7.248  30.698  11.144
 1405W        W73830  14.634  27.267   4.656
 1406W        W73831   5.973  41.598  12.002
 1407W        W73832  16.433  30.834   2.919
 1408W        W73833   8.114  34.132  14.243
 1409W        W73834   4.135  25.080  10.612
 1410W        W73835  25.663  21.487  13.376
 1411W        W73836  30.770   7.891  14.509
 1412W        W73837  12.152  11.322  10.481
 1413W        W73838  41.242  32.990   0.489
 1414W        W73839  20.229   3.205  13.543
 1415W        W73840  32.495   1.686   4.043
 1416W        W73841  31.941  29.967   1.843
 1417W        W73842   1.200   6.771  14.892
 1418W        W73843   0.864  25.371   3.183
 1419W        W73844   1.956  25.356  13.045
 1420W        W73845   5.600  38.879   4.732
 1421W        W73846   6.788  34.975  13.928
 1422W        W73847  40.391  27.772  13.285
 1423W        W73848  42.263   9.867   3.996
 1424W        W73849  31.755  30.120   2.828
 1425W        W73850  23.185  42.249   0.265
 1426W        W73851  42.315  38.466   0.639
 1427W        W73852  21.731  28.041  10.650
 1428W        W73853  35.716   2.126  11.196
 1429W        W73854  26.185  28.184  10.688
 1430W        W73855  24.844  12.092  10.919
 1431W        W73856  35.043   0.929  13.341
 1432W        W73857  38.489  36.445  14.034
 1433W        W73858  21.489  41.074   4.561
 1434W        W73859  17.694  28.933  11.895
 1435W        W73860  28.576  44.409  13.402
 1436W        W73861  22.137   9.297   3.564
 1437W        W73862  12.666   3.252  14.531
 1438W        W73863  38.524  42.640  11.299
 1439W        W73864  25.659  17.159  11.944
 1440W        W73865  27.909   2.638  12.869
 1441W        W73866  35.415   2.903   0.313
 1442W        W73867  42.705  21.473   0.070
 1443W        W73868   0.084   7.374  13.147
 1444W        W73869  37.491  15.581  11.578
 1445W        W73870  13.110  37.468  10.233
 1446W        W73871  43.533  27.012  13.484
 1447W        W73872  28.262   8.351   4.126
 1448W        W73873  19.318  37.443   5.005
 1449W        W73874  35.547  23.549   0.772
 1450W        W73875  26.568   4.522   3.201
 1451W        W73876   2.892  44.779  14.077
 1452W        W73877   1.673  40.523  12.942
 1453W        W73878  36.589   2.824  10.651
 1454W        W73879  14.104  18.260   3.757
 1455W        W73880  36.016   6.847  10.590
 1456W        W73881   6.392   7.367   4.100
 1457W        W73882  23.338  37.766  13.194
 1458W        W73883  13.757   6.711   2.333
 1459W        W73884   9.407  21.056   2.206
 1460W        W73885  18.577  14.528   0.961
 1461W        W73886  18.142   2.344   4.699
 1462W        W73887  19.357  33.042  13.923
 1463W        W73888  23.658  20.735  13.369
 1464W        W73889  22.658  34.182  11.118
 1465W        W73890  15.332  28.007   3.521
 1466W        W73891   5.188  22.336   3.117
 1467W        W73892  37.452   9.882  10.640
 1468W        W73893   8.182  13.899  14.092
 1469W        W73894  43.270  35.946  14.441
 1470W        W73895  21.670  32.580   1.209
 1471W        W73896  26.836  17.639  12.502
 1472W        W73897  22.547  30.896   2.692
 1473W        W73898  29.353   5.127   1.844
 1474W        W73899   1.175   8.390  13.754
 1475W        W73900  15.546  23.627   4.936
 1476W        W73901  20.609  19.757  11.941
 1477W        W73902  19.743  28.592   4.197
 1478W        W73903   9.910  29.105   1.425
 1479W        W73904  43.948   3.559   3.687
 1480W        W73905  37.450  38.576   4.169
 1481W        W73906  38.820  12.632  12.879
 1482W        W73907   9.735  31.529  12.708
 1483W        W73908  31.124   4.288   3.608
 1484W        W73909  13.196   3.229   2.852
 1485W        W73910   5.582  40.824   1.423
 1486W        W73911  18.993  18.347   1.757
 1487W        W73912  35.763  10.662   4.621
 1488W        W73913  35.003  14.630  11.602
 1489W        W73914  20.252  32.853  13.502
 1490W        W73915  26.778  43.800  13.067
 1491W        W73916  30.963  12.266  13.049
 1492W        W73917  33.061  18.607   2.591
 1493W        W73918  37.959  28.896  14.921
 1494W        W73919  35.164  37.029   1.810
 1495W        W73920  27.541  21.569  10.177
 1496W        W73921  16.104  23.371  13.604
 1497W        W73922  42.401   6.931  14.671
 1498W        W73923  34.951  35.544   0.907
 1499W        W73924  21.635  15.303   3.644
 1500W        W73925   3.674  36.961  12.379
 1501W        W73926  15.588  35.551  14.379
 1502W        W73927  26.951  26.150   3.626
 1503W        W73928   5.669   0.286   4.136
 1504W        W73929  10.687  11.229   1.396
 1505W        W73930  23.507  43.843   2.271
 1506W        W73931  42.859  16.854   4.375
 1507W        W73932   6.234   4.742  14.047
 1508W        W73933   4.852  24.056  14.277
 1509W        W73934   9.335   6.337   3.062
 1510W        W73935   0.452  43.358   3.355
 1511W        W73936  17.807  13.270   4.597
 1512W        W73937  28.160  32.995   0.990
 1513W        W73938  12.629  22.999  14.360
 1514W        W73939  30.526  43.926   2.650
 1515W        W73940  11.068  33.477   0.799
 1516W        W73941  28.343   2.566  14.512
 1517W        W73942  19.860   3.546   0.937
 1518W        W73943  19.006   3.816  11.403
 1519W        W73944  39.587  28.028  12.096
 1520W        W73945  16.511  35.550  13.967
 1521W        W73946  27.233  12.248   4.535
 1522W        W73947  27.010  39.046   1.757
 1523W        W73948  43.305  40.867  11.585
 1524W        W73949  37.579  11.589   3.785
 1525W        W73950  21.224  42.813   2.880
 1526W        W73951  43.120  23.354   4.308
 1527W        W73952  28.660  30.690  14.462
 1528W        W73953  43.396  29.018   1.628
 1529W        W73954  30.743  44.476   1.782
 1530W        W73955  40.914  33.052  14.507
 1531W        W73956  23.564   0.478  13.420
 1532W        W73957  38.343  24.027   3.822
 1533W        W73958  39.471  14.283  13.093
 1534W        W73959  39.458  23.340  13.943
 1535W        W73960  23.802  14.671  14.251
 1536W        W73961  43.997   2.439  13.769
 1537W        W73962  34.476  11.808   4.385
 1538W        W73963  39.821  23.421   1.552
 1539W        W73964  21.053  17.098   2.745
 1540W        W73965  13.057  35.371   1.311
 1541W        W73966  17.772   2.838  13.395
 1542W        W73967  25.761   4.839  10.549
 1543W        W73968  43.905  43.058   0.279
 1544W        W73969  32.043  43.504  11.592
 1545W        W73970  44.555  39.615  11.418
 1546W        W73971  22.172  26.202   3.789
 1547W        W73972  38.368   8.726  11.997
 1548W        W73973   2.021  31.111   0.081
 1549W        W73974   8.259   3.096  13.338
 1550W        W73975  26.890   6.829   2.655
 1551W        W73976   0.182  42.346   0.907
 1552W        W73977  25.351  34.191   1.312
 1553W        W73978  16.141  40.950  14.514
 1554W        W73979  38.479  41.494   3.041
 1555W        W73980  26.256  27.056   3.146
 1556W        W73981  29.439  41.459  11.397
 1557W        W73982  14.308  12.565   2.343
 1558W        W73983  10.500  17.288  12.140
 1559W        W73984  30.454  43.918   0.958
 1560W        W73985  38.317  37.879  11.509
 1561W        W73986  15.293   5.946   4.590
 1562W        W73987  37.538   2.305   2.425
 1563W        W73988  26.570  28.525  12.876
 1564W        W73989  18.078  34.849   9.610
 1565W        W73990   2.483  18.434  11.103
 1566W        W73991   1.213  37.910   1.247
 1567W        W73992   6.650  15.798  13.816
 1568W        W73993  29.922   4.208  14.141
 1569W        W73994  26.477  29.159  12.039
 1570W        W73995  17.125  32.396  14.753
 1571W        W73996   0.944  14.390  12.597
 1572W        W73997  36.498   4.989   1.309
 1573W        W73998  26.733  37.605   3.770
 1574W        W73999  13.139  14.034  12.376
 1575W        W74000  15.405  20.130   3.538
 1576W        W74001  37.027   9.603   4.195
 1577W        W74002  44.701  36.241  11.193
 1578W        W74003   3.996  27.065   1.099
 1579W        W74004  13.746  19.962   1.761
 1580W        W74005  11.688   1.946   3.430
 1581W        W74006  22.926  35.736  14.012
 1582W        W74007  37.660  29.613  12.488
 1583W        W74008   1.802  29.482  14.540
 1584W        W74009   5.654  30.839   2.734
 1585W        W74010   3.364   3.232   2.119
 1586W        W74011  31.505  20.985   3.778
 1587W        W74012  22.729  23.196   0.703
 1588W        W74013  22.529  40.592   1.873
 1589W        W74014  42.262  34.223   2.216
 1590W        W74015   7.436   0.439   4.693
 1591W        W74016  29.116   6.947  14.880
 1592W        W74017  29.701  25.608  12.328
 1593W        W74018  12.719   3.728  11.854
 1594W        W74019  34.686  41.292  13.967
 1595W        W74020  25.084  40.973  14.614
 1596W        W74021   8.319  10.552  12.516
 1597W        W74022  39.348  10.625  10.407
 1598W        W74023   5.357  41.541   4.086
 1599W        W74024  41.982   9.389  14.392
 1600W        W74025  17.551  28.672   0.850
 1601W        W74026  43.713  21.806  14.409
 1602W        W74027  13.423  29.483  14.874
 1603W        W74028  24.238  10.852   4.405
 1604W        W74029   1.413  22.230  13.294
 1605W        W74030   7.820  14.388   1.891
 1606W        W74031  42.326  31.006   1.269
 1607W        W74032  22.010  32.963   0.017
 1608W        W74033  19.190  15.863  12.416
 1609W        W74034  28.375  25.262  13.383
 1610W        W74035  33.572   5.439   4.666
 1611W        W74036  40.111   9.158  12.556
 1612W        W74037  13.166  14.574  12.192
 1613W        W74038  18.575  34.191   3.797
 1614W        W74039   9.016  43.553   4.163
 1615W        W74040  23.677   4.939   3.846
 1616W        W74041   7.836  17.293   3.354
 1617W        W74042   9.179   9.956   0.047
 1618W        W74043  15.526  14.988  14.048
 1619W        W74044   8.896  37.428   4.265
 1620W        W74045  41.793  38.908  12.095
 1621W        W74046  32.986  13.725  14.857
 1622W        W74047   0.681   7.677  14.947
 1623W        W74048  23.008  12.631  10.784
 1624W        W74049   8.176  29.817   2.902
 1625W        W74050  39.803  38.568   0.440
 1626W        W74051  37.069  27.385  14.948
 1627W        W74052   8.286  11.717   1.946
 1628W        W74053   8.758  44.544  13.817
 1629W        W74054  27.609  25.533   0.777
 1630W        W74055  44.056  16.574  12.090
 1631W        W74056  19.571   4.230  12.504
 1632W        W74057   6.947   1.327   3.723
 1633W        W74058  21.251  32.529   0.910
 1634W        W74059  13.635   7.241   2.331
 1635W        W74060  42.368  20.292  14.841
 1636W        W74061  38.521  21.093  12.106
 1637W        W74062  10.798  11.913  13.999
 1638W        W74063  22.477  36.068  12.064
 1639W        W74064   1.840   0.852  11.311
 1640W        W74065  10.539  37.832  14.498
 1641W        W74066  12.885  42.079   0.446
 1642W        W74067  35.308  31.665  14.923
 1643W        W74068  18.775  22.267  12.567
 1644W        W74069   8.231  38.040  14.516
 1645W        W74070   5.459  42.358  12.398
 1646W        W74071  39.408  21.023  12.428
 1647W        W74072  22.322  26.763   4.487
 1648W        W74073  12.054  32.420  11.140
 1649W        W74074  19.257  37.028  12.869
 1650W        W74075  29.682  39.384   1.362
 1651W        W74076  12.778   4.256  13.904
 1652W        W74077  37.988  42.886   4.464
 1653W        W74078  33.970  14.573  14.738
 1654W        W74079  36.481   6.499   4.069
 1655W        W74080   4.772  43.763  10.785
 1656W        W74081  33.067  33.684  12.112
 1657W        W74082  20.483   0.706  12.548
 1658W        W74083  39.179  35.050   1.381
 1659W        W74084  41.932   1.279  14.010
 1660W        W74085   2.756  17.437   0.200
 1661W        W74086  12.080  44.587  13.272
 1662W        W74087   0.455  22.075  10.549
 1663W        W74088   8.827  35.058   1.156
 1664W        W74089  21.553  22.158  12.093
 1665W        W74090  40.442   9.370   1.437
 1666W        W74091  24.720  28.649   4.650
 1667W        W74092  31.179   5.268   0.057
 1668W        W74093  15.140   2.156  12.861
 1669W        W74094  29.036  32.320  14.978
 1670W        W74095   3.443  37.871  11.584
 1671W        W74096  13.569  10.360  11.915
 1672W        W74097  11.732   2.368   1.972
 1673W        W74098  40.778  11.160   1.162
 1674W        W74099   9.301  27.519   0.751
 1675W        W74100   8.952   8.189  11.334
 1676W        W74101  13.059  14.051  14.013
 1677W        W74102  42.035  42.436   4.084
 1678W        W74103  31.155  21.766  10.087
 1679W        W74104  43.023  44.829   1.652
 1680W        W74105   5.676   2.436  14.547
 1681W        W74106  44.218  25.246  11.900
 1682W        W74107  13.165  36.575  10.303
 1683W        W74108  13.194  39.138   4.638
 1684W        W74109  17.478  19.099   2.664
 1685W        W74110  42.076  35.428  13.393
 1686W        W74111  20.467  13.619  10.693
 1687W        W74112  18.732  42.599   0.917
 1688W        W74113  25.017  37.476  10.758
 1689W        W74114  17.263  31.350   4.191
 1690W        W74115   7.207  31.959   1.868
 1691W        W74116   0.896   4.133   0.909
 1692W        W74117   8.752   4.905  13.237
 1693W        W74118   7.847  42.953   1.013
 1694W        W74119  27.871   2.341  14.492
 1695W        W74120  33.953  23.574  11.363
 1696W        W74121  42.509  42.636  10.701
 1697W        W74122   7.747   4.044  11.737
 1698W        W74123  21.720  26.251  10.414
 1699W        W74124  10.765  35.009  10.584
 1700W        W74125  32.806  29.637   3.245
 1701W        W74126  26.509  20.090   3.235
 1702W        W74127  29.602   9.236   1.374
 1703W        W74128  24.973  31.941  11.139
 1704W        W74129  39.288  32.928  10.552
 1705W        W74130   3.716  44.393   4.394
 1706W        W74131  13.557  22.395   0.166
 1707W        W74132  43.064  18.722   3.435
 1708W        W74133   6.630  32.169  11.007
 1709W        W74134   3.010   5.852   0.547
 1710W        W74135  17.066   4.002  12.600
 1711W        W74136  42.737  23.617   4.555
 1712W        W74137  39.528  32.560   2.323
 1713W        W74138  31.424   9.134   3.263
 1714W        W74139   0.889   8.525   3.601
 1715W        W74140  33.827  37.510   1.784
 1716W        W74141  34.199  35.482   1.581
 1717W        W74142  41.802  10.708  13.709
 1718W        W74143   7.152  29.178  14.320
 1719W        W74144  39.843  29.071   1.917
 1720W        W74145   8.811  41.875   3.639
 1721W        W74146   4.445  19.829  13.791
 1722W        W74147  43.050  15.780   3.790
 1723W        W74148  27.451  36.976   2.317
 1724W        W74149  25.986  43.598  13.162
 1725W        W74150  35.126  26.976  13.959
 1726W        W74151  22.682  13.172   2.299
 1727W        W74152  32.718   4.841   3.660
 1728W        W74153  27.821  41.906   1.158
 1729W        W74154  10.686  10.361   3.687
 1730W        W74155  13.283  10.253  13.724
 1731W        W74156  12.752  27.119   3.732
 1732W        W74157  27.673  13.155  13.937
 1733W        W74158  26.221  10.147  12.934
 1734W        W74159  22.283  27.133   4.118
 1735W        W74160  44.939  12.111  14.938
 1736W        W74161  22.035  29.416   4.578
 1737W        W74162   1.817  18.542  14.743
 1738W        W74163  33.476  10.834   3.963
 1739W        W74164  25.515  32.275  11.089
 1740W        W74165  30.449  32.534   1.322
 1741W        W74166  25.643   2.246  14.990
 1742W        W74167  23.121   7.162  12.863
 1743W        W74168  13.741   7.705  13.482
 1744W        W74169  11.117  38.298   3.081
 1745W        W74170  21.744  11.393   0.515
 1746W        W74171  14.365  42.356   0.166
 1747W        W74172  29.514  13.282  10.672
 1748W        W74173  39.709  25.962  12.346
 1749W        W74174  19.563  25.263  11.712
 1750W        W74175  12.697  40.126  10.977
 1751W        W74176  14.933  39.130   5.101
 1752W        W74177  40.093  22.135  11.967
 1753W        W74178  30.858  24.169   4.453
 1754W        W74179  14.378  16.511  14.245
 1755W        W74180   7.391  14.652   4.704
 1756W        W74181   4.413   5.711  11.647
 1757W        W74182  44.406  37.003   0.823
 1758W        W74183  13.464   5.769   3.087
 1759W        W74184   2.390   1.466   1.247
 1760W        W74185  29.960   3.844   0.698
 1761W        W74186  27.773  43.910  12.883
 1762W        W74187  34.914  25.331  10.699
 1763W        W74188   3.973   9.131   5.017
 1764W        W74189  16.038   8.877   0.071
 1765W        W74190  39.444  34.223  14.076
 1766W        W74191  17.306  34.234  11.970
 1767W        W74192  37.621  18.713  13.978
 1768W        W74193   0.533   5.411  11.435
 1769W        W74194  27.200  34.106  14.281
 1770W        W74195  12.114  42.075  12.726
 1771W        W74196  27.350   3.809  14.566
 1772W        W74197  44.899  23.311   1.671
 1773W        W74198  31.543   2.059   4.454
 1774W        W74199  27.928  24.943   1.061
 1775W        W74200   1.014  32.435   0.915
 1776W        W74201  15.841   7.211  13.317
 1777W        W74202   1.611  37.914   0.839
 1778W        W74203  33.546  39.059   0.272
 1779W        W74204  36.745  14.746   1.658
 1780W        W74205  40.505  11.654  13.867
 1781W        W74206  12.282  24.734   9.661
 1782W        W74207  43.291  22.316  10.975
 1783W        W74208  35.523  20.509  12.953
 1784W        W74209  31.610  11.811  11.089
 1785W        W74210  21.211   7.631  10.518
 1786W        W74211  41.332  35.865   1.950
 1787W        W74212  31.665   2.396   3.441
 1788W        W74213   2.874  33.549   3.279
 1789W        W74214   3.269  29.482   0.797
 1790W        W74215  27.413  40.531  13.995
 1791W        W74216   2.396  37.592  11.888
 1792W        W74217  14.399  27.159   4.212
 1793W        W74218  20.603   2.873  10.752
 1794W        W74219  32.508   4.296   0.979
 1795W        W74220  32.129  26.547   2.954
 1796W        W74221  29.691   5.234   3.707
 1797W        W74222  14.070   1.971   4.595
 1798W        W74223   5.228  19.505   3.975
 1799W        W74224   8.266  30.122  14.934
 1800W        W74225   4.974   1.932   0.312
 1801W        W74226  42.407  18.356   1.712
 1802W        W74227  28.622  15.195   1.251
 1803W        W74228  17.266   8.662  13.777
 1804W        W74229   9.755  33.464   1.309
 1805W        W74230   1.796  32.198   3.803
 1806W        W74231   4.335  39.901  11.241
 1807W        W74232   6.298  27.122  12.480
 1808W        W74233   4.488  14.266  10.528
 1809W        W74234  24.516  14.803   0.748
 1810W        W74235  18.973  36.136   3.545
 1811W        W74236  40.245  29.453  13.539
 1812W        W74237  39.270  11.207   2.901
 1813W        W74238   8.712  16.319  13.032
 1814W        W74239  21.667  37.660   4.813
 1815W        W74240  21.305  33.897   0.470
 1816W        W74241   4.729  20.433   2.283
 1817W        W74242  31.147  10.900   2.844
 1818W        W74243   7.354  44.366   2.865
 1819W        W74244  18.047   8.241   4.119
 1820W        W74245  11.199   8.440  13.651
 1821W        W74246  22.580  16.546   3.344
 1822W        W74247  31.930  34.364  10.706
 1823W        W74248  17.197  32.629   3.419
 1824W        W74249  17.814  43.958  13.902
 1825W        W74250  20.725   5.301  13.279
 1826W        W74251  39.507  43.631   3.262
 1827W        W74252  26.044  15.207  13.701
 1828W        W74253  43.339   5.167   3.476
 1829W        W74254  15.739  38.491  14.166
 1830W        W74255  24.019  28.938   1.459
 1831W        W74256  30.612  15.304   0.932
 1832W        W74257  36.420  11.875   4.383
 1833W        W74258  19.531   5.128  11.459
 1834W        W74259  20.132  36.166   1.774
 1835W        W74260  31.079  13.127  11.694
 1836W        W74261  21.188  36.062  14.767
 1837W        W74262  41.253  33.845   1.218
 1838W        W74263  11.537  37.665  14.226
 1839W        W74264  39.008  33.405   0.028
 1840W        W74265  44.419  23.206  10.942
 1841W        W74266  16.597  10.948   3.373
 1842W        W74267  13.884  37.398   2.734
 1843W        W74268  22.483  22.214  13.984
 1844W        W74269  35.742  15.789   3.274
 1845W        W74270   7.538  29.206  12.804
 1846W        W74271  14.134  37.944  14.060
 1847W        W74272   5.349  25.705   4.587
 1848W        W74273  39.861   1.951  14.049
 1849W        W74274  39.079  23.430  14.983
 1850W        W74275  37.541  43.657   9.968
 1851W        W74276  17.787  27.051  11.126
 1852W        W74277   8.864   0.987   0.821
 1853W        W74278   5.440   4.930  13.661
 1854W        W74279   3.755  19.571  14.394
 1855W        W74280   3.207  16.129   3.190
 1856W        W74281   0.674  12.620  14.846
 1857W        W74282  28.653  14.871  13.063
 1858W        W74283  40.271   7.124   3.621
 1859W        W74284  19.957  26.995   2.002
 1860W        W74285  28.292  23.736   2.964
 1861W        W74286  18.613   5.733   1.882
 1862W        W74287   9.674  30.244   2.311
 1863W        W74288  23.303  38.477   0.922
 1864W        W74289  33.629  42.024  11.490
 1865W        W74290  17.293   2.526   0.108
 1866W        W74291  35.142   8.630  13.255
 1867W        W74292  36.041  25.473   4.692
 1868W        W74293  12.206   0.442   2.777
 1869W        W74294  42.404   3.014  12.650
 1870W        W74295  43.381  26.405  12.059
 1871W        W74296   1.709  23.116   1.814
 1872W        W74297  18.856  35.166  14.056
 1873W        W74298   6.298   6.948  14.065
 1874W        W74299  34.559  42.947   2.237
 1875W        W74300   7.849  14.596  11.644
 1876W        W74301  18.358  28.498  12.064
 1877W        W74302  21.253  14.122  14.350
 1878W        W74303  20.780  40.480   3.179
 1879W        W74304  27.430  15.110  13.817
 1880W        W74305  30.549  33.148   3.193
 1881W        W74306   7.126  10.223  12.807
 1882W        W74307  32.919   3.071   1.869
 1883W        W74308  13.089  26.398  11.708
 1884W        W74309   8.942   8.267  14.413
 1885W        W74310  28.138  13.354  13.808
 1886W        W74311  44.465  34.074  14.589
 1887W        W74312   1.625  43.986  13.099
 1888W        W74313  23.697  29.133  11.143
 1889W        W74314   7.682  25.779  11.507
 1890W        W74315   3.849   3.786  13.291
 1891W        W74316  39.007  11.001  11.153
 1892W        W74317  18.830  19.630  12.554
 1893W        W74318   0.661  33.204   3.293
 1894W        W74319  28.380  28.420  14.314
 1895W        W74320  34.352  41.350   0.235
 1896W        W74321  39.109  40.552  14.362
 1897W        W74322  12.700  10.077   0.523
 1898W        W74323  11.502  29.615   3.114
 1899W        W74324  32.814  15.503  11.886
 1900W        W74325  18.862  16.388   1.272
 1901W        W74326   1.785  33.448   4.323
 1902W        W74327  39.751  15.695  12.883
 1903W        W74328   5.612  16.578   2.330
 1904W        W74329  34.859   8.683   3.407
 1905W        W74330  14.067  41.386   0.730
 1906W        W74331  20.267   3.916   2.827
 1907W        W74332   3.181  24.065  10.814
 1908W        W74333  41.090  30.532  12.485
 1909W        W74334  39.812   1.838   1.799
 1910W        W74335  23.131   7.219  14.949
 1911W        W74336  20.591   7.347   4.553
 1912W        W74337  30.844   0.796   1.544
 1913W        W74338  43.042  30.189   4.087
 1914W        W74339  19.854   2.371   4.184
 1915W        W74340  32.467   7.447   3.885
 1916W        W74341  30.003  44.767  12.093
 1917W        W74342   8.948  32.767   2.192
 1918W        W74343  33.098  14.916  10.576
 1919W        W74344  36.913  34.452   4.579
 1920W        W74345  42.699  29.657  11.422
 1921W        W74346   0.083  34.009   4.476
 1922W        W74347  17.461  32.457  12.345
 1923W        W74348  20.605  28.466  14.808
 1924W        W74349   6.897  40.391   4.182
 1925W        W74350  19.553  41.077  12.343
 1926W        W74351  16.355  41.121  13.544
 1927W        W74352  19.064  35.064   0.779
 1928W        W74353  13.678  35.592  11.252
 1929W        W74354  42.026  24.759  11.495
 1930W        W74355   6.394  33.616  13.998
 1931W        W74356  36.098   5.937   1.431
 1932W        W74357  26.076  37.896   0.929
 1933W        W74358  40.287  18.300  10.603
 1934W        W74359  27.565   3.062  11.612
 1935W        W74360  26.125  19.791  12.190
 1936W        W74361  30.225  38.014   0.447
 1937W        W74362  19.401  38.366  11.461
 1938W        W74363   1.948  38.380  12.367
 1939W        W74364  16.288  15.178   2.233
 1940W        W74365  30.853  38.017  14.235
 1941W        W74366  11.198   6.811  14.834
 1942W        W74367   7.618  27.790   4.242
 1943W        W74368  33.032   2.458  12.146
 1944W        W74369  21.931  25.562   0.979
 1945W        W74370  39.267  40.964  13.015
 1946W        W74371  37.498  37.349  14.437
 1947W        W74372  36.560  15.403   2.319
 1948W        W74373   8.175  27.998   0.362
 1949W        W74374  26.494  22.225  11.623
 1950W        W74375  39.828  17.659   3.163
 1951W        W74376   1.987  27.539  12.483
 1952W        W74377   9.490  18.690  12.962
 1953W        W74378  15.381  21.038  11.525
 1954W        W74379  19.268   4.260   3.129
 1955W        W74380  23.812   8.867   1.838
 1956W        W74381  23.733  42.799  13.845
 1957W        W74382  19.631   3.260   1.857
 1958W        W74383  23.159  21.819   2.758
 1959W        W74384  20.170  13.838   3.100
 1960W        W74385   5.402  42.098   0.873
 1961W        W74386  44.806  39.027   1.437
 1962W        W74387  40.586  41.455  14.993
 1963W        W74388  27.601  14.528   0.914
 1964W        W74389   9.456  41.305   2.314
 1965W        W74390  15.797  41.382  11.542
 1966W        W74391  19.850  22.749  12.577
 1967W        W74392  41.790  11.809  11.173
 1968W        W74393  10.931   6.523  12.498
 1969W        W74394  16.036   6.115  12.528
 1970W        W74395  13.794  11.960   0.365
 1971W        W74396  28.164  32.500  14.419
 1972W        W74397  30.963  11.157   2.177
 1973W        W74398  41.726  39.784  13.596
 1974W        W74399  17.973  19.971  13.180
 1975W        W74400  19.664  13.655   0.972
 1976W        W74401   9.105   3.729  13.188
 1977W        W74402  23.638  10.226   2.463
 1978W        W74403   1.772  39.558  13.025
 1979W        W74404   9.219   3.442  12.360
 1980W        W74405  15.365  37.709  10.537
 1981W        W74406  39.021  18.615  13.881
 1982W        W74407  37.696  16.770   3.554
 1983W        W74408  13.639  30.169  12.442
 1984W        W74409  40.420  23.578   0.150
 1985W        W74410   6.216  21.245  13.875
 1986W        W74411   9.231  31.963   0.384
 1987W        W74412  31.968  34.089  13.402
 1988W        W74413  34.221  10.342  11.957
 1989W        W74414  41.985  19.230  10.204
 1990W        W74415  13.743  40.679   4.219
 1991W        W74416   6.583  16.778   0.198
 1992W        W74417  20.074  43.540   3.218
 1993W        W74418  42.488   2.885  11.593
 1994W        W74419  33.972  10.314   1.145
 1995W        W74420   6.502   2.932   0.317
 1996W        W74421  31.834  15.535   1.479
 1997W        W74422  35.790   2.762  13.627
 1998W        W74423  34.564  16.750   1.402
 1999W        W74424  34.339  14.677   1.461
 2000W        W74425   1.489  11.595   4.685
 2001W        W74426  17.148  19.793   4.931
 2002W        W74427  28.971   5.358  12.385
 2003W        W74428  17.124   4.064  12.071
 2004W        W74429  26.094   9.759  11.811
 2005W        W74430  35.377  19.273  14.415
 2006W        W74431  23.980  43.078  11.136
 2007W        W74432  35.382  22.735  14.422
 2008W        W74433   9.736  20.780   2.663
 2009W        W74434   7.162   4.152   2.250
 2010W        W74435  27.813  17.817   1.911
 2011W        W74436   2.017  21.568   2.777
 2012W        W74437  29.573  44.714  11.451
 2013W        W74438  42.729  24.714  14.099
 2014W        W74439   9.846   1.648  13.867
 2015W        W74440  11.928   9.672  13.314
 2016W        W74441  31.852  23.770  14.575
 2017W        W74442  12.042  29.573   1.507
 2018W        W74443  19.338  28.549  13.950
 2019W        W74444  13.445  21.214   4.847
 2020W        W74445  25.011  27.951  11.574
 2021W        W74446  31.097  44.494  14.413
 2022W        W74447  32.161  27.982   4.851
 2023W        W74448  30.978  29.459  13.247
 2024W        W74449  12.654   9.977  12.023
 2025W        W74450  21.182   8.018  12.613
 2026W        W74451  22.835  11.607  11.082
 2027W        W74452   8.399  15.364  13.964
 2028W        W74453  41.477  35.001  13.545
 2029W        W74454  41.818  32.116  11.037
 2030W        W74455  30.096  20.102  11.721
 2031W        W74456  23.484  13.197   4.812
 2032W        W74457  41.411  36.368  14.667
 2033W        W74458  44.574  32.686  10.222
 2034W        W74459  30.165  32.461   3.105
 2035W        W74460  22.896   7.346  13.286
 2036W        W74461  38.414  28.670  14.758
 2037W        W74462   8.468   1.274  11.294
 2038W        W74463   9.552   1.815   0.502
 2039W        W74464  33.368   5.943  10.984
 2040W        W74465   6.754   4.863  13.817
 2041W        W74466  18.108  16.423  12.092
 2042W        W74467  34.459  11.593  13.043
 2043W        W74468  40.322   7.549   0.277
 2044W        W74469  39.529   4.964   3.678
 2045W        W74470  34.102  14.576   4.568
 2046W        W74471  14.100  25.012  10.657
 2047W        W74472   8.299  18.367  12.119
 2048W        W74473  18.998  23.923  11.667
 2049W        W74474  23.487  43.077   4.165
 2050W        W74475  21.597  26.357  12.789
 2051W        W74476  31.105  10.739  14.177
 2052W        W74477   2.758  20.254  11.087
 2053W        W74478  27.008  25.870   3.213
 2054W        W74479  42.354  22.241  11.015
 2055W        W74480  11.261   2.463   2.202
 2056W        W74481   9.920  39.926  11.165
 2057W        W74482  43.910  19.196  13.777
 2058W        W74483  36.321  27.616   0.819
 2059W        W74484  24.700  31.365   1.221
 2060W        W74485  40.354  37.479  10.064
 2061W        W74486  13.642  27.073  11.973
 2062W        W74487  12.754  41.042   0.498
 2063W        W74488  42.034   8.598  14.880
 2064W        W74489  20.310  27.569  14.450
 2065W        W74490  27.609  11.830   1.656
 2066W        W74491  31.894  16.004  13.921
 2067W        W74492  31.088  26.857   1.431
 2068W        W74493  10.669   8.952   4.068
 2069W        W74494  34.264  25.103   0.326
 2070W        W74495  29.073   0.890  10.538
 2071W        W74496   9.876   7.393   2.426
 2072W        W74497  42.278  15.340  10.703
 2073W        W74498  27.091  33.876  13.797
 2074W        W74499   0.720  20.618  12.092
 2075W        W74500   9.111  15.388  14.283
 2076W        W74501  32.397  20.617   3.121
 2077W        W74502  20.351  30.093   2.868
 2078W        W74503  10.122  12.789  11.559
 2079W        W74504   1.891  19.550  14.526
 2080W        W74505   1.294  28.047   0.255
 2081W        W74506  32.526  14.851  12.415
 2082W        W74507  20.637  17.724  12.775
 2083W        W74508  22.271  26.472  10.885
 2084W        W74509   8.324   5.844  12.430
 2085W        W74510  18.213  33.670   9.791
 2086W        W74511   0.525   7.209   0.930
 2087W        W74512  17.804  43.494  12.542
 2088W        W74513  33.392   6.404  10.782
 2089W        W74514  27.254  32.496   4.609
 2090W        W74515  42.462  10.761  13.409
 2091W        W74516   6.950  27.075  14.988
 2092W        W74517  43.653  17.621   4.674
 2093W        W74518  17.225  39.569   3.118
 2094W        W74519  23.569  23.094   3.888
 2095W        W74520  30.934  24.369   3.663
 2096W        W74521  44.007  12.622  13.406
 2097W        W74522   1.442   2.018  13.500
 2098W        W74523  11.859  37.810  12.512
 2099W        W74524   3.252   4.702   0.124
 2100W        W74525  10.686  15.099  12.655
 2101W        W74526  26.993  11.576   1.850
 2102W        W74527  37.938  42.472  12.987
 2103W        W74528  29.699  38.574   4.354
 2104W        W74529   6.300  40.043  11.540
 2105W        W74530  20.202   6.804   4.195
 2106W        W74531   0.268  11.625  14.304
 2107W        W74532  38.862   6.228   4.573
 2108W        W74533   4.969   4.643  14.267
 2109W        W74534  13.669  26.918  14.858
 2110W        W74535  16.848  29.096  12.549
 2111W        W74536  19.708  34.306  14.045
 2112W        W74537  26.494   6.710  14.831
 2113W        W74538  40.935  14.347  10.427
 2114W        W74539  37.701  33.701   0.597
 2115W        W74540   1.260  20.027  14.162
 2116W        W74541  35.946  32.130  11.191
 2117W        W74542   7.827  26.949  13.557
 2118W        W74543  20.822  30.130  14.848
 2119W        W74544  14.242   5.944  10.472
 2120W        W74545  34.425  25.805  12.856
 2121W        W74546  42.978  35.498  14.492
 2122W        W74547  22.034  27.595  10.713
 2123W        W74548  16.288  39.357  11.579
 2124W        W74549  44.554  36.911   4.388
 2125W        W74550  33.761  36.691  14.437
 2126W        W74551  35.132  39.064   4.202
 2127W        W74552  16.694  39.935  14.215
 2128W        W74553   6.234  36.355  12.961
 2129W        W74554  20.656  32.133  13.066
 2130W        W74555  42.788  11.736   0.391
 2131W        W74556  30.732  26.794  13.167
 2132W        W74557   5.398  37.367   2.218
 2133W        W74558   6.966  36.819  13.535
 2134W        W74559  21.777  33.428   0.077
 2135W        W74560  37.639  32.502  11.590
 2136W        W74561  13.591  43.020   1.368
 2137W        W74562   2.315  10.143  14.049
 2138W        W74563  16.802  29.608  12.489
 2139W        W74564   3.672  25.067   4.532
 2140W        W74565  13.737  16.584  10.335
 2141W        W74566  20.589   1.714   3.684
 2142W        W74567  10.186  36.378   0.773
 2143W        W74568  21.535   5.882  13.869
 2144W        W74569  31.628   8.107  12.968
 2145W        W74570  35.444  18.521   2.694
 2146W        W74571  24.695  20.051   0.921
 2147W        W74572   6.187  30.546   3.639
 2148W        W74573   0.872   3.245   0.838
 2149W        W74574  20.933  14.785   1.212
 2150W        W74575  19.568  27.179   3.485
 2151W        W74576  14.114  26.022   0.055
 2152W        W74577  30.425  33.598  13.391
 2153W        W74578  31.640  18.177  14.873
 2154W        W74579   9.219  41.988  12.945
 2155W        W74580   5.114  35.793   2.835
 2156W        W74581   9.745  11.727  10.658
 2157W        W74582   2.634   3.902  14.842
 2158W        W74583   1.251  15.797  11.112
 2159W        W74584  40.819  12.202   4.274
 2160W        W74585  14.758   4.493  10.972
 2161W        W74586  38.498   5.409  14.839
 2162W        W74587   9.337   1.918   1.908
 2163W        W74588  12.811  44.156   3.836
 2164W        W74589   1.282  35.712  14.330
 2165W        W74590  43.274  26.465  14.736
 2166W        W74591  10.330  42.051  11.077
 2167W        W74592  43.343  13.302   2.780
 2168W        W74593  12.035   0.236   1.868
 2169W        W74594  41.908  29.933   0.818
 2170W        W74595   2.290  44.309   2.343
 2171W        W74596  11.199   2.554  13.938
 2172W        W74597   0.715   2.040  14.744
 2173W        W74598  12.796  24.918   3.096
 2174W        W74599  14.843   5.864   3.835
 2175W        W74600  10.053  17.671  10.643
 2176W        W74601  38.531  31.429  14.686
 2177W        W74602  24.301  35.479   3.267
 2178W        W74603  12.623  24.221   3.767
 2179W        W74604  37.791  10.877  13.837
 2180W        W74605  28.995  12.300  12.922
 2181W        W74606   9.935  32.449   1.659
 2182W        W74607  12.458   9.692   4.920
 2183W        W74608   3.155   1.209   2.110
 2184W        W74609  11.149  38.629   4.507
 2185W        W74610  13.690  16.132   0.956
 2186W        W74611  19.720  44.226   1.003
 2187W        W74612  28.140   7.858   4.078
 2188W        W74613   4.829  24.635   0.828
 2189W        W74614  23.290  11.248  14.402
 2190W        W74615  20.032   4.655   1.907
 2191W        W74616  42.528  26.089   2.948
 2192W        W74617  24.159  34.931   1.651
 2193W        W74618  16.086   2.054   3.344
 2194W        W74619  22.057  37.113  11.334
 2195W        W74620  35.613  10.753  14.425
 2196W        W74621  27.166  20.616   0.233
 2197W        W74622  20.042   1.736   0.712
 2198W        W74623  24.172  22.411   1.203
 2199W        W74624  31.418   4.401   3.047
 2200W        W74625  37.956  30.053   1.780
 2201W        W74626   9.451  37.681  12.991
 2202W        W74627   8.268  34.006  12.808
 2203W        W74628  39.944  31.375  13.546
 2204W        W74629  33.600   7.416  12.896
 2205W        W74630  24.898  15.791  12.414
 2206W        W74631   3.253  17.959  14.043
 2207W        W74632  39.019  11.349  12.459
 2208W        W74633  40.487  16.294   2.184
 2209W        W74634  21.594  24.653  11.193
 2210W        W74635  16.214  17.758   4.064
 2211W        W74636  42.853  10.598   5.144
 2212W        W74637   5.193  30.560   0.560
 2213W        W74638  28.061  24.877   1.994
 2214W        W74639  30.907  23.971   0.410
 2215W        W74640  30.923  27.747   3.423
 2216W        W74641  44.285  42.845   1.064
 2217W        W74642   9.941  10.949  13.802
 2218W        W74643  24.943  10.176  12.480
 2219W        W74644  17.607  36.122   0.253
 2220W        W74645  44.755   4.694  10.727
 2221W        W74646  36.822   7.187  10.998
 2222W        W74647  42.215  21.221   2.370
 2223W        W74648  24.516  12.603  11.865
 2224W        W74649  15.255  38.890   1.789
 2225W        W74650  41.359   1.585  11.242
 2226W        W74651  43.995  33.309  14.134
 2227W        W74652  41.372   4.077  11.077
 2228W        W74653   3.681  18.122  14.321
 2229W        W74654  11.148  41.818   0.896
 2230W        W74655   1.701  36.108   5.006
 2231W        W74656  23.155   7.244   3.150
 2232W        W74657  19.521  33.080  12.933
 2233W        W74658  35.626  17.672  12.470
 2234W        W74659  27.045   8.373   3.316
 2235W        W74660  24.153  42.603  11.165
 2236W        W74661  37.593  19.748   3.278
 2237W        W74662  24.691   9.404  11.465
 2238W        W74663  23.437   0.227  12.985
 2239W        W74664   0.474  17.381  14.132
 2240W        W74665  39.196  30.319   4.571
 2241W        W74666  24.566  27.355  12.447
 2242W        W74667  40.416  41.842   4.452
 2243W        W74668   1.928  32.041  11.562
 2244W        W74669   6.816  19.515  13.944
 2245W        W74670  39.387  22.944  14.335
 2246W        W74671   6.669  36.673   0.358
 2247W        W74672   5.749  22.307   4.863
 2248W        W74673  12.441   4.654  14.941
 2249W        W74674  19.274  32.972  12.433
 2250W        W74675  20.124   1.499   4.263
 2251W        W74676  18.706  18.891  12.929
 2252W        W74677  19.367   1.890  13.602
 2253W        W74678  30.469  22.980   2.497
 2254W        W74679  37.856  43.970  11.416
 2255W        W74680  39.646   8.704  11.563
 2256W        W74681  26.164  31.051   2.578
 2257W        W74682   0.015   5.348  11.546
 2258W        W74683  13.772  21.205  12.081
 2259W        W74684  31.077  17.540   2.045
 2260W        W74685   0.924  14.826  11.641
 2261W        W74686  43.522  24.146   0.938
 2262W        W74687  18.835  24.220  14.867
 2263W        W74688  17.228  33.871   1.400
 2264W        W74689   0.957   7.634  13.640
 2265W        W74690   3.432  30.428   0.105
 2266W        W74691  36.990  42.581   0.472
 2267W        W74692  17.868   7.806  12.381
 2268W        W74693  36.442  12.294   1.866
 2269W        W74694  28.464  32.023   1.704
 2270W        W74695  23.490   8.836  11.628
 2271W        W74696  30.555  32.454  10.581
 2272W        W74697  24.950  31.110   3.395
 2273W        W74698  36.484  19.645   1.774
 2274W        W74699   8.338  13.778   4.889
 2275W        W74700  19.161  41.843  14.488
 2276W        W74701  27.245  36.474  13.808
 2277W        W74702  19.346   7.124  11.912
 2278W        W74703   4.921  33.849  14.820
 2279W        W74704  41.372  44.391   0.499
 2280W        W74705   9.988  13.504   4.974
 2281W        W74706  23.713   5.268  11.100
 2282W        W74707   3.726  25.728   3.280
 2283W        W74708  18.509   0.556   5.024
 2284W        W74709  22.057  15.667   2.328
 2285W        W74710  17.966  36.080   0.805
 2286W        W74711  32.345  17.133   3.796
 2287W        W74712   6.347  29.633  14.502
 2288W        W74713  34.027  38.612   3.170
 2289W        W74714   1.170  15.634   0.436
 2290W        W74715  42.300  44.002  13.003
 2291W        W74716  18.130  33.970  13.549
 2292W        W74717   8.774  12.242  11.949
 2293W        W74718  41.319  20.826   3.709
 2294W        W74719  44.819  42.751   4.673
 2295W        W74720  28.469   6.398   4.157
 2296W        W74721  27.061   2.490  10.634
 2297W        W74722  29.473  24.085  14.319
 2298W        W74723  35.965  23.691   2.279
 2299W        W74724   4.882   0.408   4.565
 2300W        W74725  25.253  19.023  13.941
 2301W        W74726  28.986   2.164   1.575
 2302W        W74727  44.022  18.194  12.085
 2303W        W74728  38.105   6.281   1.904
 2304W        W74729  26.540   1.228  12.026
 2305W        W74730  23.441   0.837  12.371
 2306W        W74731  26.999  39.372  11.825
 2307W        W74732   3.225   2.513  14.303
 2308W        W74733  16.072  10.691   0.845
 2309W        W74734   8.062  35.442  11.578
 2310W        W74735  14.797  25.457   0.625
 2311W        W74736  14.285   8.185   4.110
 2312W        W74737   0.845  34.634   5.115
 2313W        W74738  34.251  18.256   1.411
 2314W        W74739  18.184  11.858   1.885
 2315W        W74740  33.808   6.141   2.694
 2316W        W74741  36.072  16.542   4.314
 2317W        W74742   9.925  23.061  14.130
 2318W        W74743  29.035  19.785   2.445
 2319W        W74744  38.647  13.251   1.373
 2320W        W74745  43.477  17.731  12.533
 2321W        W74746  20.652  40.064   2.886
 2322W        W74747  40.740  18.650   4.733
 2323W        W74748  28.941  37.302   3.277
 2324W        W74749  32.086  14.762   0.128
 2325W        W74750  22.045  44.315  11.827
 2326W        W74751  10.461  31.372  13.494
 2327W        W74752  23.694  16.051   3.751
 2328W        W74753   9.164  26.338  13.716
 2329W        W74754   3.829  41.282   1.835
 2330W        W74755  44.112  33.635  13.121
 2331W        W74756  30.006  24.068  11.180
 2332W        W74757  42.879  18.244   3.394
 2333W        W74758  12.242  25.255  10.431
 2334W        W74759  20.159  17.570   3.616
 2335W        W74760  10.842  39.080   4.042
 2336W        W74761   4.377  20.299   3.670
 2337W        W74762  33.102  43.453  14.847
 2338W        W74763  10.099  21.380   4.905
 2339W        W74764  31.047  21.542  12.725
 2340W        W74765  17.467  27.619   1.774
 2341W        W74766  14.156   0.802  10.443
 2342W        W74767   5.386  21.985  13.116
 2343W        W74768  20.817   2.014   2.379
 2344W        W74769  38.283  41.697   0.174
 2345W        W74770  10.913  22.779  11.626
 2346W        W74771  34.433   1.175   4.320
 2347W        W74772  25.155  36.874  12.440
 2348W        W74773   2.373  22.492  13.031
 2349W        W74774   7.369   8.383   3.578
 2350W        W74775   5.162  11.580   2.449
 2351W        W74776   7.777  20.201   1.948
 2352W        W74777  25.649  24.518   0.213
 2353W        W74778   7.729  15.663   1.143
 2354W        W74779  30.730  40.938   3.789
 2355W        W74780   8.472  19.521  12.485
 2356W        W74781  21.011   3.414  12.020
 2357W        W74782  14.722  19.079   2.202
 2358W        W74783  22.536  29.665  10.677
 2359W        W74784  10.659  34.922   3.314
 2360W        W74785  42.856   4.763  12.401
 2361W        W74786  30.420  27.699  10.881
 2362W        W74787  36.367   5.229  12.061
 2363W        W74788  33.734  37.665   3.206
 2364W        W74789  38.881  16.616  14.166
 2365W        W74790  31.427  37.996  13.328
 2366W        W74791  31.889  28.315  11.928
 2367W        W74792  28.671  28.670   0.320
 2368W        W74793  31.623  12.106   4.393
 2369W        W74794  25.689   4.197  13.066
 2370W        W74795  15.295  41.847  10.721
 2371W        W74796  41.590  21.722   4.841
 2372W        W74797   4.820   8.964  14.468
 2373W        W74798  38.011  36.566   0.879
 2374W        W74799   7.781  15.261  14.993
 2375W        W74800  27.575  33.514   4.332
 2376W        W74801  29.930   2.424   3.139
 2377W        W74802  27.430   4.249  10.741
 2378W        W74803  38.529  18.769   2.785
 2379W        W74804  16.104  16.127   2.764
 2380W        W74805  39.506   7.723  11.889
 2381W        W74806  26.751  13.571  12.101
 2382W        W74807  25.540  15.069  13.871
 2383W        W74808  14.322  29.838  13.367
 2384W        W74809   1.425  41.536  10.672
 2385W        W74810  35.424   6.860   2.716
 2386W        W74811  32.438  36.030  14.479
 2387W        W74812  37.004  40.482  14.067
 2388W        W74813  27.743  41.733  12.322
 2389W        W74814  30.385  16.823   1.426
 2390W        W74815  38.939  39.910   4.491
 2391W        W74816   0.061  37.968  13.929
 2392W        W74817  32.615   3.323   0.896
 2393W        W74818  20.226  33.592   1.811
 2394W        W74819   0.869  30.202  12.484
 2395W        W74820  38.885  31.103  13.885
 2396W        W74821  23.658  30.116   0.780
 2397W        W74822   4.658   2.871  13.814
 2398W        W74823  38.914  20.936   0.845
 2399W        W74824   5.193  22.257   0.798
 2400W        W74825   5.379  19.507  13.995
 2401W        W74826  14.098  20.718  11.435
 2402W        W74827   4.488  24.283  14.884
 2403W        W74828  40.823  41.756  14.321
 2404W        W74829  17.140  23.226  14.253
 2405W        W74830   2.909   2.996   0.859
 2406W        W74831  11.656  11.688   1.265
 2407W        W74832  31.916  24.639  12.986
 2408W        W74833  25.729  13.911  12.996
 2409W        W74834  26.562  19.062   3.763
 2410W        W74835  33.088   1.303   0.003
 2411W        W74836  27.290   9.687  12.822
 2412W        W74837   0.583  11.614  12.901
 2413W        W74838  13.387  26.179   1.319
 2414W        W74839  10.542  23.768  14.805
 2415W        W74840  43.197  41.193   4.874
 2416W        W74841   4.717  11.538   3.658
 2417W        W74842  42.857  32.634   1.212
 2418W        W74843  16.449  30.649  10.437
 2419W        W74844  13.829   0.937   2.688
 2420W        W74845  23.894  16.609  12.526
 2421W        W74846  22.144   1.659  13.025
 2422W        W74847   5.831  10.907  12.003
 2423W        W74848  27.914  22.899  11.975
 2424W        W74849  22.183  31.516  12.475
 2425W        W74850  15.243   6.770  13.943
 2426W        W74851   8.881  34.179   3.403
 2427W        W74852  27.616  32.895  13.034
 2428W        W74853  20.267  10.709   3.752
 2429W        W74854   0.009  12.724  11.172
 2430W        W74855  27.559  14.553   4.954
 2431W        W74856  33.618  33.912   3.145
 2432W        W74857  43.592   3.312  10.950
 2433W        W74858  27.957  21.265   3.256
 2434W        W74859  37.675  32.753   3.306
 2435W        W74860  14.364  37.410   1.868
 2436W        W74861  12.440  22.027   3.481
 2437W        W74862  28.587  43.064   0.457
 2438W        W74863   7.722  25.143  10.778
 2439W        W74864   6.636  29.679  12.043
 2440W        W74865  28.242   0.900   0.341
 2441W        W74866  43.643  44.632   0.400
 2442W        W74867  31.164   2.631  12.000
 2443W        W74868  41.363  29.371   2.310
 2444W        W74869  42.919  31.491   3.461
 2445W        W74870   1.166  11.359  12.361
 2446W        W74871  38.314  11.412   1.446
 2447W        W74872  16.302  18.784  14.356
 2448W        W74873  25.494  39.553  12.524
 2449W        W74874  25.997  26.898   2.122
 2450W        W74875  24.797  28.132   4.575
 2451W        W74876  33.520   1.009   3.709
 2452W        W74877  20.755  44.355   4.469
 2453W        W74878  14.783  12.374   1.698
 2454W        W74879   5.366  18.425   3.189
 2455W        W74880  33.357  36.925  12.276
 2456W        W74881  15.075  22.042   0.731
 2457W        W74882   5.351   5.196  10.662
 2458W        W74883  37.245  37.802   3.731
 2459W        W74884  25.236  19.742   0.195
 2460W        W74885  39.350  41.601   2.848
 2461W        W74886  23.912   8.284  13.855
 2462W        W74887  29.999  22.666   4.109
 2463W        W74888  41.017   8.539   3.659
 2464W        W74889  38.503  36.113   3.026
 2465W        W74890  24.939   0.960  12.564
 2466W        W74891  17.517  10.188   2.278
 2467W        W74892  27.725  39.229   2.763
 2468W        W74893  32.838  37.915   3.692
 2469W        W74894  11.316   6.167  14.309
 2470W        W74895  30.940   7.626  10.906
 2471W        W74896  26.473  18.780  13.588
 2472W        W74897  40.939  42.385  14.044
 2473W        W74898  13.037  16.629  11.508
 2474W        W74899  31.939  33.801  11.274
 2475W        W74900  20.277  37.907  14.019
 2476W        W74901  21.605  25.336   1.406
 2477W        W74902   0.279  22.449  12.495
 2478W        W74903  24.018  21.683  14.992
 2479W        W74904  18.237  27.148   3.560
 2480W        W74905   5.365  39.759  10.532
 2481W        W74906  30.458  31.190  11.163
 2482W        W74907   6.801  17.236  10.714
 2483W        W74908   6.421   4.393   1.924
 2484W        W74909   8.713  30.823  13.905
 2485W        W74910  38.461   5.802  12.397
 2486W        W74911  24.534  21.007   3.602
 2487W        W74912  26.425  11.285  11.168
 2488W        W74913  26.470  23.251   0.023
 2489W        W74914  26.059   7.247  13.123
 2490W        W74915  42.540  42.396   0.491
 2491W        W74916  16.064   1.272   3.727
 2492W        W74917  25.170  34.799  14.539
 2493W        W74918   5.996   5.261   2.184
 2494W        W74919   4.119  22.020   2.173
 2495W        W74920  35.422  26.597   2.160
 2496W        W74921  31.555  20.249   3.140
 2497W        W74922   0.399   9.842   0.560
 2498W        W74923  10.154   8.303  12.026
 2499W        W74924   6.151   2.958   0.728
 2500W        W74925  19.173   9.927  12.873
 2501W        W74926   4.849   3.790  12.320
 2502W        W74927  20.943  40.867  11.203
 2503W        W74928   2.407  35.604  13.988
 2504W        W74929  21.057   5.769   2.374
 2505W        W74930  22.346   9.361   2.204
 2506W        W74931  16.701  41.842   0.885
 2507W        W74932  43.874  27.118   3.784
 2508W        W74933  12.523   7.223  13.161
 2509W        W74934   4.359  37.552   0.677
 2510W        W74935  21.070  19.761   3.831
 2511W        W74936   4.802  22.243   1.981
 2512W        W74937   5.453   7.036  11.447
 2513W        W74938  32.712   0.315   2.708
 2514W        W74939  42.436  29.300  12.839
 2515W        W74940  27.099  20.136   2.355
 2516W        W74941  40.027  29.876   2.364
 2517W        W74942  42.995   4.009   4.651
 2518W        W74943  35.918  22.631   3.995
 2519W        W74944  25.451   9.179   0.451
 2520W        W74945  29.171  39.041   0.784
 2521W        W74946  32.428  19.622   0.376
 2522W        W74947   3.472  29.586  12.050
 2523W        W74948  39.804  23.733   2.473
 2524W        W74949   1.506  26.974   4.061
 2525W        W74950  23.865  42.718   1.561
 2526W        W74951  28.140  41.899   3.244
 2527W        W74952  28.875   9.524   1.809
 2528W        W74953  39.388  11.416  14.849
 2529W        W74954  39.270  35.011   3.190
 2530W        W74955  37.624  35.986  11.691
 2531W        W74956  25.177  12.843  10.693
 2532W        W74957   1.090  24.012   2.913
 2533W        W74958   7.602   1.875  13.417
 2534W        W74959   6.897  17.788   1.718
 2535W        W74960  25.555   6.627   3.208
 2536W        W74961  22.047  13.688   1.402
 2537W        W74962   8.711   1.941   0.790
 2538W        W74963  30.086  20.644  14.327
 2539W        W74964  35.181   8.303   2.659
 2540W        W74965  18.261  37.408   4.088
 2541W        W74966  41.114   5.482   4.180
 2542W        W74967  10.849  40.295  11.946
 2543W        W74968  43.418  11.272   0.146
 2544W        W74969  34.377  12.140  11.944
 2545W        W74970  39.540  12.803   2.696
 2546W        W74971   4.831  25.455  13.601
 2547W        W74972  16.318  15.106  13.583
 2548W        W74973  27.237  23.689  12.085
 2549W        W74974  36.045  40.551   0.901
 2550W        W74975  41.449  16.274  12.993
 2551W        W74976  10.286   9.024  11.544
 2552W        W74977  31.586  38.348   4.782
 2553W        W74978  34.827  31.484  14.947
 2554W        W74979  28.830  43.383  11.816
 2555W        W74980  18.129   9.743  13.058
 2556W        W74981  14.229  29.399  11.603
 2557W        W74982  33.681  39.844   1.897
 2558W        W74983  14.193  20.441   4.140
 2559W        W74984  13.864  31.554  12.614
 2560W        W74985   1.975  39.493   3.118
 2561W        W74986  25.961   5.748  12.321
 2562W        W74987  12.120   4.933   0.249
 2563W        W74988  28.478  39.498  13.001
 2564W        W74989  35.989  22.260   1.919
 2565W        W74990  39.009  19.323  11.279
 2566W        W74991  23.738   5.152   0.769
 2567W        W74992  33.026  10.172   3.600
 2568W        W74993  30.703  40.370  14.438
 2569W        W74994  14.019   3.340   1.337
 2570W        W74995  37.071  17.649  11.201
 2571W        W74996   9.752  26.436  13.482
 2572W        W74997  22.547  42.932  13.007
 2573W        W74998  41.142  22.267   2.429
 2574W        W74999  32.045  16.909   1.708
 2575W        W75000  24.489   4.834  10.021
 2576W        W75001  42.961  41.365   2.407
 2577W        W75002  34.038  21.975   1.751
 2578W        W75003  38.828  22.020   4.136
 2579W        W75004  19.994   1.689   2.047
 2580W        W75005  16.986   3.475   0.880
 2581W        W75006  41.349   4.996   1.905
 2582W        W75007  32.224  42.230   4.416
 2583W        W75008  12.333  42.191  11.097
 2584W        W75009  17.012  34.380  10.657
 2585W        W75010  15.396   4.786   1.655
 2586W        W75011  37.457  30.130   1.685
 2587W        W75012  20.625  11.321   2.332
 2588W        W75013  25.540   9.453  12.372
 2589W        W75014   3.323   0.418  10.674
 2590W        W75015  31.625   9.620   0.153
 2591W        W75016  41.933  35.302   3.276
 2592W        W75017  28.928  30.614   2.217
 2593W        W75018   1.923  33.860   3.301
 2594W        W75019  29.659   8.436  11.498
 2595W        W75020  40.794   8.386  12.163
 2596W        W75021  29.600  38.905   2.153
 2597W        W75022  16.319   1.895  12.387
 2598W        W75023   7.102  30.003  13.372
 2599W        W75024  36.874   3.350   2.769
 2600W        W75025  10.156   3.429  12.790
 2601W        W75026  34.439  25.564   0.024
 2602W        W75027  19.011   2.457   2.700
 2603W        W75028  37.518  15.732   3.579
 2604W        W75029  16.510  34.946  11.730
 2605W        W75030  25.031  10.791  10.687
 2606W        W75031   8.467  40.210  13.061
 2607W        W75032  28.676  44.802  11.214
 2608W        W75033  22.692  25.544   0.498
 2609W        W75034  44.726  21.148   2.616
 2610W        W75035  11.815   2.784   3.632
 2611W        W75036  13.697  19.752  14.568
 2612W        W75037  33.050  33.618  10.733
 2613W        W75038  11.885  42.747   2.261
 2614W        W75039  18.543  12.149   4.934
 2615W        W75040  34.902   1.261   2.878
 2616W        W75041  24.423  15.232   3.855
 2617W        W75042  10.423  10.050  14.639
 2618W        W75043  21.129   4.293   2.466
 2619W        W75044  31.917  15.105  11.475
 2620W        W75045  16.555   5.518  14.503
 2621W        W75046  10.812  39.477  14.374
 2622W        W75047  40.858  20.261  14.505
 2623W        W75048  24.072   6.173  10.812
 2624W        W75049  36.690   4.381  13.484
 2625W        W75050   6.683   5.729   0.962
 2626W        W75051   4.836  21.538  11.009
 2627W        W75052   3.893   8.858   0.103
 2628W        W75053  38.714  26.471   2.730
 2629W        W75054  26.163  10.823  11.138
 2630W        W75055  31.903  35.058   3.640
 2631W        W75056   9.145  35.823  14.353
 2632W        W75057  20.584  40.838   1.232
 2633W        W75058  22.093  30.670  14.477
 2634W        W75059  13.260   4.949   3.375
 2635W        W75060  15.153  21.724   1.922
 2636W        W75061  16.018   2.676   0.197
 2637W        W75062  16.923  14.311  11.120
 2638W        W75063  42.466  41.964  14.394
 2639W        W75064  32.891  33.083   4.605
 2640W        W75065  12.705  29.463  11.683
 2641W        W75066  11.732  25.931  10.482
 2642W        W75067  24.138  30.595  13.825
 2643W        W75068   3.856   8.432   4.625
 2644W        W75069  15.713   0.983  10.790
 2645W        W75070  26.106   3.301  12.369
 2646W        W75071  38.805  38.544   0.854
 2647W        W75072   6.738   6.329   2.691
 2648W        W75073   3.016  33.064   4.664
 2649W        W75074   0.957  25.549  14.732
 2650W        W75075  19.358  21.804   0.240
 2651W        W75076   8.759  17.331   0.365
 2652W        W75077  38.759  29.933   3.314
 2653W        W75078  44.975  17.099  13.813
 2654W        W75079  12.752  28.179   4.763
 2655W        W75080   3.847  41.108   3.620
 2656W        W75081   9.076  39.070  13.907
 2657W        W75082  16.581  32.074  13.470
 2658W        W75083  24.979  10.337  14.959
 2659W        W75084  32.721   0.771  11.115
 2660W        W75085  20.552  19.347  12.671
 2661W        W75086  34.282  11.814  13.556
 2662W        W75087  17.767  37.910   4.567
 2663W        W75088  14.803  42.731   2.698
 2664W        W75089  21.753  12.743   3.111
 2665W        W75090   4.174  25.149   4.530
 2666W        W75091  39.369  35.470  13.548
 2667W        W75092  21.654  44.206  13.933
 2668W        W75093  11.719   7.533   0.996
 2669W        W75094  21.221  34.019   3.654
 2670W        W75095  29.643  38.410  10.673
 2671W        W75096  36.786  13.858   2.224
 2672W        W75097  33.338   9.804   2.668
 2673W        W75098   1.292  13.581   1.349
 2674W        W75099  21.608   7.223   1.885
 2675W        W75100  19.123  25.489   1.155
 2676W        W75101  39.224  13.722  11.386
 2677W        W75102  24.237  23.538  13.404
 2678W        W75103  10.251  34.336   0.340
 2679W        W75104  24.416  22.998  14.896
 2680W        W75105  26.201  21.466  14.636
 2681W        W75106  10.326  36.974   3.372
 2682W        W75107   0.265  19.170  13.783
 2683W        W75108  41.699  33.472  12.807
 2684W        W75109  42.960  30.825  12.079
 2685W        W75110   9.788  16.300   2.247
 2686W        W75111  37.662   6.159  13.965
 2687W        W75112  36.980  31.180  10.468
 2688W        W75113  21.275  20.189   1.861
 2689W        W75114  18.582   0.396   4.218
 2690W        W75115   3.758  14.097   2.116
 2691W        W75116  26.028  14.845  14.067
 2692W        W75117  33.474  25.976   1.405
 2693W        W75118  37.418   7.299  10.067
 2694W        W75119  23.671   0.320   0.707
 2695W        W75120   3.407  40.347  12.380
 2696W        W75121   5.428   1.743   4.144
 2697W        W75122   8.159  16.852  11.064
 2698W        W75123   0.480   4.027  11.163
 2699W        W75124  36.781   7.848   2.386
 2700W        W75125   0.266  29.665   4.664
 2701W        W75126  44.863  42.438  14.997
 2702W        W75127  37.396  16.542  10.621
 2703W        W75128  40.905   4.046   0.522
 2704W        W75129   2.423  37.986  10.584
 2705W        W75130  37.853  15.174  14.441
 2706W        W75131   1.808  25.374   2.203
 2707W        W75132  42.873  35.679  13.151
 2708W        W75133  26.969  42.376  13.039
 2709W        W75134  29.987  16.042  12.544
 2710W        W75135  14.614  26.643   1.143
 2711W        W75136  36.976   3.247  11.772
 2712W        W75137  44.743  15.248  14.414
 2713W        W75138  30.932  31.703   1.787
 2714W        W75139   8.396  24.578  14.438
 2715W        W75140  13.748  21.476   1.809
 2716W        W75141  13.384  27.584  12.522
 2717W        W75142  17.289  33.342  11.200
 2718W        W75143  22.584  24.124   3.124
 2719W        W75144  29.139   3.097   1.726
 2720W        W75145  17.346  10.369   4.088
 2721W        W75146  35.411  31.069   3.124
 2722W        W75147  37.429  34.027  12.848
 2723W        W75148   0.282  40.251  12.467
 2724W        W75149  23.004  35.394   1.958
 2725W        W75150   9.273   2.967  12.570
 2726W        W75151  10.581  23.558   0.275
 2727W        W75152  36.000  13.451  11.578
 2728W        W75153   0.865   3.751   3.832
 2729W        W75154  23.016  38.398   0.480
 2730W        W75155  22.246  16.018   0.981
 2731W        W75156  22.601  22.624   1.935
 2732W        W75157  28.258  38.018   1.297
 2733W        W75158   8.807   2.226  14.426
 2734W        W75159   5.949  35.935   2.272
 2735W        W75160   0.750  39.451   0.284
 2736W        W75161  31.821   3.502  12.947
 2737W        W75162  10.793  32.920   1.698
 2738W        W75163   2.192   6.297   2.580
 2739W        W75164   8.791  14.077  14.368
 2740W        W75165  30.103  28.007   0.266
 2741W        W75166  31.784  15.827   4.230
 2742W        W75167  12.840  43.259   2.858
 2743W        W75168  28.555  24.162  11.265
 2744W        W75169  14.805  40.817   3.124
 2745W        W75170  24.489   5.310  10.636
 2746W        W75171  37.126  18.947  13.388
 2747W        W75172  25.459   5.187   4.215
 2748W        W75173  15.205  23.597  13.872
 2749W        W75174  25.736  33.657   2.810
 2750W        W75175  32.103  42.727  11.256
 2751W        W75176  11.216   9.610   3.711
 2752W        W75177  21.263  16.566  14.529
 2753W        W75178  26.952   4.285  10.498
 2754W        W75179  20.626  19.771   0.855
 2755W        W75180   7.196  21.043  12.021
 2756W        W75181   8.622  38.372  13.440
 2757W        W75182  31.892   9.313   2.869
 2758W        W75183  44.004  42.365  10.595
 2759W        W75184  24.422  39.978  12.848
 2760W        W75185   6.384  39.378   0.190
 2761W        W75186  39.317  30.833  11.660
 2762W        W75187  24.603  12.853   4.070
 2763W        W75188  17.644   3.657  14.716
 2764W        W75189  27.933  37.175   2.270
 2765W        W75190   7.486  44.817   3.086
 2766W        W75191  34.560   5.464   2.866
 2767W        W75192  25.119  30.238   3.215
 2768W        W75193   4.056  11.255  14.073
 2769W        W75194  28.583  17.762   0.829
 2770W        W75195   8.905  44.424  12.039
 2771W        W75196   8.378  10.013  13.919
 2772W        W75197   7.628  34.205   2.374
 2773W        W75198  42.890  11.733   4.623
 2774W        W75199  24.960  16.495   3.346
 2775W        W75200  35.160  26.372  10.055
 2776W        W75201   2.695  38.415  10.644
 2777W        W75202  44.741  22.035   3.111
 2778W        W75203   2.977  10.725  11.475
 2779W        W75204  41.201  24.609  13.009
 2780W        W75205  42.934  11.834  12.952
 2781W        W75206   4.956   6.604   2.674
 2782W        W75207  24.617  44.247   2.680
 2783W        W75208  15.157  42.329  13.445
 2784W        W75209  20.757  11.974  10.263
 2785W        W75210  31.708  16.351   4.661
 2786W        W75211   2.390   3.048  14.868
 2787W        W75212  31.891   0.873   4.082
 2788W        W75213  22.098  19.010  13.391
 2789W        W75214  19.488  20.080  12.101
 2790W        W75215  29.913  40.257  10.655
 2791W        W75216  37.357   1.289   4.410
 2792W        W75217  34.843  40.324   1.300
 2793W        W75218   9.640  35.112  14.051
 2794W        W75219  33.855  10.735  12.065
 2795W        W75220  28.711   3.014   3.781
 2796W        W75221   9.653  33.837  14.489
 2797W        W75222  12.119   7.659  14.792
 2798W        W75223   4.403   5.430   2.329
 2799W        W75224   4.718   5.476  12.028
 2800W        W75225  41.832  43.058  10.022
 2801W        W75226  35.992  13.730   2.762
 2802W        W75227  21.091  40.337   4.633
 2803W        W75228  40.546  21.193  12.151
 2804W        W75229  35.124  38.490  14.845
 2805W        W75230  11.916  16.060  11.943
 2806W        W75231  33.704  26.032  13.582
 2807W        W75232  17.983  32.045  10.871
 2808W        W75233  35.482  20.579  10.671
 2809W        W75234   0.016  24.989  12.357
 2810W        W75235  14.680  25.876  12.462
 2811W        W75236  39.837  33.372  12.687
 2812W        W75237  27.548  37.090  11.170
 2813W        W75238  27.710  30.965  14.475
 2814W        W75239  17.894  34.404   2.591
 2815W        W75240  38.564  33.596   1.855
 2816W        W75241  29.951  34.392  11.810
 2817W        W75242  39.615  28.531   3.454
 2818W        W75243  24.427  35.381  10.596
 2819W        W75244  37.419  33.637   4.876
 2820W        W75245  33.946  40.671  13.437
 2821W        W75246   2.216  16.644  11.499
 2822W        W75247  26.386  30.981  14.897
 2823W        W75248  24.010  42.231  12.454
 2824W        W75249  21.044  34.344  14.564
 2825W        W75250  10.550  18.775  12.065
 2826W        W75251  18.063  36.911   4.181
 2827W        W75252  23.971  24.431  14.417
 2828W        W75253  30.178  23.928  13.950
 2829W        W75254   3.466  23.325   1.301
 2830W        W75255   8.439  32.127   1.016
 2831W        W75256  27.496  31.642   2.987
 2832W        W75257  15.311  44.289  11.629
 2833W        W75258   0.630   2.525  12.817
 2834W        W75259  34.386  24.472  14.203
 2835W        W75260  33.583   8.967   2.722
 2836W        W75261  27.653  14.112  11.218
 2837W        W75262  41.364  25.155  11.100
 2838W        W75263  10.322  38.599   2.724
 2839W        W75264  29.391  17.215  13.833
 2840W        W75265  34.201  14.228   1.661
 2841W        W75266   7.712  32.215  10.166
 2842W        W75267  33.495  33.373  14.207
 2843W        W75268  38.052   1.857  10.087
 2844W        W75269  28.886  38.861  10.511
 2845W        W75270  42.085  36.940  14.524
 2846W        W75271  13.323  27.449  13.983
 2847W        W75272   9.139  15.681  12.452
 2848W        W75273  21.968  21.162   2.803
 2849W        W75274  27.521   9.358   2.157
 2850W        W75275  29.608  23.207  14.325
 2851W        W75276  35.625   4.164  11.612
 2852W        W75277  16.755  10.237   1.292
 2853W        W75278  30.924   3.428  14.546
 2854W        W75279  28.070  37.513  11.652
 2855W        W75280  34.627  21.706  14.046
 2856W        W75281  30.646  23.569  13.074
 2857W        W75282  33.053  16.246   4.708
 2858W        W75283  20.595   4.899   1.342
 2859W        W75284  12.323  39.954   2.601
 2860W        W75285   5.010   0.939   4.538
 2861W        W75286  37.879  30.206   0.835
 2862W        W75287   7.765   1.998  13.926
 2863W        W75288  35.101  19.509  10.289
 2864W        W75289  34.972  40.903  14.844
 2865W        W75290  29.492  11.868   1.868
 2866W        W75291  37.806  21.718  11.998
 2867W        W75292  18.444   3.791  11.906
 2868W        W75293   5.217   5.326   4.619
 2869W        W75294  34.611  18.845   0.913
 2870W        W75295  19.630  26.909  14.351
 2871W        W75296  39.444  31.509  12.136
 2872W        W75297   3.538  29.042  11.115
 2873W        W75298   4.230   0.517   2.289
 2874W        W75299  34.010  11.651  10.608
 2875W        W75300  31.240  43.897  14.459
 2876W        W75301  38.158  17.278   2.529
 2877W        W75302  19.592   8.002  11.836
 2878W        W75303  37.926  34.457  14.923
 2879W        W75304  32.170   0.625  14.310
 2880W        W75305  30.867   6.718   4.168
 2881W        W75306  20.438  39.016   4.531
 2882W        W75307  39.848  36.452   1.279
 2883W        W75308  36.719  42.114  11.072
 2884W        W75309  44.728   3.281  12.877
 2885W        W75310   1.875   9.459   2.063
 2886W        W75311  13.829  43.235   0.914
 2887W        W75312  44.187  13.790   1.426
 2888W        W75313  15.557   3.366  14.711
 2889W        W75314  32.954  29.982  12.060
 2890W        W75315   9.404  43.545  13.359
 2891W        W75316  31.456  42.473   3.291
 2892W        W75317   3.745  28.478   4.058
 2893W        W75318  21.143  20.602   4.615
 2894W        W75319  14.037  30.716  11.990
 2895W        W75320  20.804  24.612   3.155
 2896W        W75321  20.353  37.975  12.529
 2897W        W75322   3.495  12.324  11.143
 2898W        W75323  43.468  12.202   0.503
 2899W        W75324  28.955  23.597   4.754
 2900W        W75325  20.978   5.509   0.284
 2901W        W75326  25.624  38.326   0.668
 2902W        W75327  21.954  22.748   2.337
 2903W        W75328  43.954  39.922   2.208
 2904W        W75329  35.377  10.217   0.832
 2905W        W75330  34.320  33.660  13.035
 2906W        W75331  17.797   2.650  12.553
 2907W        W75332  22.150  18.633  12.053
 2908W        W75333  18.814  16.354  14.318
 2909W        W75334  30.639  14.265  14.180
 2910W        W75335  29.050  28.509   2.682
 2911W        W75336  29.408  39.357   9.922
 2912W        W75337  12.763  20.937   4.263
 2913W        W75338   7.156  41.224  12.523
 2914W        W75339  20.270  42.735   1.874
 2915W        W75340  22.709  38.626   4.768
 2916W        W75341   3.975  32.662   0.482
 2917W        W75342  22.036   8.839  10.385
 2918W        W75343  29.023  41.751   4.204
 2919W        W75344   0.513  39.286   2.887
 2920W        W75345  11.475  12.081   2.227
 2921W        W75346  43.028  17.489  11.584
 2922W        W75347   5.208  13.110  12.969
 2923W        W75348  10.692  16.539   1.756
 2924W        W75349   5.227  17.196   4.093
 2925W        W75350  21.669  14.346   1.646
 2926W        W75351   2.385  30.997   1.828
 2927W        W75352   3.646  41.510   2.705
 2928W        W75353  36.958   9.453  14.972
 2929W        W75354  40.843   0.965   0.789
 2930W        W75355  24.098  39.345   0.243
 2931W        W75356  19.278  21.618  13.491
 2932W        W75357  39.923  20.870   9.657
 2933W        W75358  18.271  28.142  14.194
 2934W        W75359  25.753  18.368   0.144
 2935W        W75360  22.255  28.581  13.370
 2936W        W75361   8.498  11.054  12.549
 2937W        W75362   4.688  21.971  10.154
 2938W        W75363  16.212  36.957   3.421
 2939W        W75364  11.160  28.369  14.078
 2940W        W75365  24.681  34.668  14.357
 2941W        W75366   0.855   9.213  11.887
 2942W        W75367  15.880  23.587  10.812
 2943W        W75368  29.151  17.846  13.029
 2944W        W75369  27.621  33.047   3.579
 2945W        W75370  39.750  25.754   4.159
 2946W        W75371  35.855   0.872   0.883
 2947W        W75372  28.402  44.343  11.944
 2948W        W75373  18.888  12.310   0.722
 2949W        W75374  28.519  15.635  14.309
 2950W        W75375  36.282   6.699   3.629
 2951W        W75376  41.686  42.871  11.873
 2952W        W75377  36.638  16.104   1.869
 2953W        W75378  16.009  24.522   0.419
 2954W        W75379   9.898   1.742   3.740
 2955W        W75380  25.496  17.177  11.472
 2956W        W75381  44.850  44.342  13.542
 2957W        W75382  40.552  26.688   4.249
 2958W        W75383   2.182  39.574   0.926
 2959W        W75384  37.549  23.470  12.147
 2960W        W75385   2.319   7.444   0.471
 2961W        W75386  16.194  38.287  14.429
 2962W        W75387   7.797  19.307  13.102
 2963W        W75388  11.288  32.024   2.237
 2964W        W75389  37.268   0.434  12.001
 2965W        W75390   5.156   6.466   3.141
 2966W        W75391  28.497   4.223  14.870
 2967W        W75392   1.934   0.857  14.472
 2968W        W75393  42.547  27.534   2.821
 2969W        W75394  11.680   9.878  11.943
 2970W        W75395   0.156  11.764   3.741
 2971W        W75396  11.734   2.062   2.939
 2972W        W75397  29.101  36.542  11.491
 2973W        W75398  26.336  22.781  14.831
 2974W        W75399  38.027  36.318  14.947
 2975W        W75400  39.308   0.818  14.380
 2976W        W75401  13.357  38.427  10.668
 2977W        W75402  12.597  33.848  13.586
 2978W        W75403  28.551  22.818   1.897
 2979W        W75404  16.591  14.381   0.932
 2980W        W75405  20.818   2.952  12.230
 2981W        W75406   4.703   8.678  14.901
 2982W        W75407  43.338  15.391  13.400
 2983W        W75408  10.800  20.709  11.540
 2984W        W75409  20.042  29.672  14.300
 2985W        W75410  38.285  11.809  12.831
 2986W        W75411  35.857  43.447  13.818
 2987W        W75412  25.973   2.676  14.387
 2988W        W75413  20.547  15.315  12.097
 2989W        W75414  28.411  22.087   0.271
 2990W        W75415   9.092  42.374   1.400
 2991W        W75416  18.487  20.165   0.422
 2992W        W75417  36.896  28.492  14.053
 2993W        W75418  13.808  18.284  14.448
 2994W        W75419   5.898  40.143  12.101
 2995W        W75420   2.366  34.147   3.348
 2996W        W75421  11.906   4.657  10.828
 2997W        W75422   8.560  16.837   0.374
 2998W        W75423  26.527  13.373  10.711
 2999W        W75424  31.053  12.028   4.370
 3000W        W75425  31.902  25.960   0.214
 3001W        W75426  24.060   3.472   3.597
 3002W        W75427  10.715   5.149   0.303
 3003W        W75428  35.644   3.146  11.500
 3004W        W75429  18.297   7.513  12.452
 3005W        W75430  21.637  42.031   1.675
 3006W        W75431  16.319  15.287   3.210
 3007W        W75432  23.085  31.006   0.444
 3008W        W75433  29.514  35.674   3.766
 3009W        W75434  40.986  37.845  14.374
 3010W        W75435  26.515  26.654   1.229
 3011W        W75436  43.697  42.911   1.510
 3012W        W75437  37.336  19.842   3.719
 3013W        W75438   3.192   8.153   3.227
 3014W        W75439  16.506  11.904  12.574
 3015W        W75440  39.284   4.268  14.948
 3016W        W75441  42.875  44.600  12.307
 3017W        W75442  29.330  16.166  11.497
 3018W        W75443   6.871  22.030  13.052
 3019W        W75444  31.122   2.573  13.748
 3020W        W75445  24.500  31.199  12.816
 3021W        W75446  10.572  20.441  12.000
 3022W        W75447  43.690   1.106   4.227
 3023W        W75448  35.552  11.694  10.611
 3024W        W75449  19.491   5.699  12.583
 3025W        W75450  10.575  20.113   0.410
 3026W        W75451  35.796   8.032   2.111
 3027W        W75452  33.638  27.575  10.654
 3028W        W75453  16.198   4.327   1.777
 3029W        W75454  32.935  30.874   0.448
 3030W        W75455   1.662  38.522   4.922
 3031W        W75456  25.139  26.600   4.197
 3032W        W75457  41.761  36.932   4.940
 3033W        W75458  41.622  20.141  13.357
 3034W        W75459  24.551   4.404  11.132
 3035W        W75460  27.517  31.202   1.261
 3036W        W75461  26.780  39.565  14.181
 3037W        W75462  17.083  19.048   1.741
 3038W        W75463  21.764  33.034   0.458
 3039W        W75464   8.826  41.743   2.701
 3040W        W75465  20.644  17.190  11.576
 3041W        W75466  15.109  20.235  11.009
 3042W        W75467  18.202  29.573   2.004
 3043W        W75468  17.259  11.339  13.740
 3044W        W75469  30.538   3.358  11.615
 3045W        W75470   5.268  11.669  12.578
 3046W        W75471  38.936  22.814  11.924
 3047W        W75472  15.523   8.535  12.620
 3048W        W75473  29.935  23.457  13.560
 3049W        W75474  33.454  29.359  14.452
 3050W        W75475   0.556  42.499  13.523
 3051W        W75476  29.668   2.880   3.387
 3052W        W75477  12.279  38.085   2.814
 3053W        W75478   3.061  16.607  12.484
 3054W        W75479  32.038  25.589  10.614
 3055W        W75480  25.509  13.538   3.160
 3056W        W75481  19.146  39.742  11.133
 3057W        W75482  30.949  29.921   0.689
 3058W        W75483  34.321   4.998   2.272
 3059W        W75484  43.307  18.727  11.552
 3060W        W75485  20.572   1.668  12.122
 3061W        W75486  40.347  30.556   3.683
 3062W        W75487   4.095  41.076  12.063
 3063W        W75488   6.090  15.887  12.504
 3064W        W75489   6.876   3.341   2.865
 3065W        W75490  37.321   1.334  12.069
 3066W        W75491   8.589  24.568  11.967
 3067W        W75492   2.436  23.132  13.916
 3068W        W75493  43.536  34.938  13.279
 3069W        W75494  35.213   3.793  11.114
 3070W        W75495  42.460  33.922  11.727
 3071W        W75496  10.137  10.299   0.224
 3072W        W75497  43.427   9.845   2.341
 3073W        W75498  42.497  19.314  11.361
 3074W        W75499  30.602  30.561   4.229
 3075W        W75500  21.919  29.341  14.567
 3076W        W75501   9.696  12.944   1.412
 3077W        W75502   2.901  33.918   4.470
 3078W        W75503  31.053  13.636  11.540
 3079W        W75504   8.306  30.199   3.235
 3080W        W75505  20.083  40.960  13.460
 3081W        W75506  30.668  34.170  11.503
 3082W        W75507  24.162  29.011   2.465
 3083W        W75508   5.474  20.563  10.638
 3084W        W75509  40.104  21.715  13.382
 3085W        W75510  25.173  39.701  13.270
 3086W        W75511  44.580  32.977   1.860
 3087W        W75512   2.815  12.947   4.916
 3088W        W75513  33.645  40.831   3.436
 3089W        W75514  24.615  18.082   2.419
 3090W        W75515   6.626  40.124   0.362
 3091W        W75516  20.337  39.075   3.631
 3092W        W75517  23.010   5.257   2.923
 3093W        W75518   3.258  19.696   2.605
 3094W        W75519  40.078  43.049  12.584
 3095W        W75520  14.160  30.195   0.508
 3096W        W75521  40.985   8.402  13.516
 3097W        W75522  40.667  33.470  10.274
 3098W        W75523  23.036  10.817   2.660
 3099W        W75524   3.851   0.543   1.884
 3100W        W75525  37.663  17.188   2.337
 3101W        W75526   0.065  35.515   2.239
 3102W        W75527  34.553  10.857  13.358
 3103W        W75528   3.118  35.580  11.483
 3104W        W75529  27.016  39.846  10.539
 3105W        W75530  18.336   4.636  13.814
 3106W        W75531  21.237  30.940  12.175
 3107W        W75532   9.252  34.549   1.662
 3108W        W75533  28.580  22.781   3.636
 3109W        W75534  40.600  30.017   1.182
 3110W        W75535   2.987  38.505   2.950
 3111W        W75536  22.224   1.206  14.284
 3112W        W75537  26.150   2.963  14.782
 3113W        W75538  20.281  23.947  12.098
 3114W        W75539  16.596  37.549   3.535
 3115W        W75540  30.689  18.077  10.734
 3116W        W75541  24.049  40.011   4.525
 3117W        W75542  42.770  21.107   3.788
 3118W        W75543  18.334  32.886  14.419
 3119W        W75544  19.984  28.991  14.877
 3120W        W75545  20.677  16.274  11.761
 3121W        W75546   8.882   7.699   1.916
 3122W        W75547  41.569   8.195   4.702
 3123W        W75548  36.463  27.204   2.207
 3124W        W75549  24.522  28.416   4.210
 3125W        W75550  17.294  14.816   1.312
 3126W        W75551   1.989   5.860   0.310
 3127W        W75552   4.283  18.408   3.835
 3128W        W75553  42.000  41.268  11.622
 3129W        W75554  33.666  29.677  11.562
 3130W        W75555  42.707   0.487  11.128
 3131W        W75556  34.407  35.030  10.648
 3132W        W75557   3.911  39.585  14.654
 3133W        W75558  10.929   0.038   2.891
 3134W        W75559   1.819   1.654  14.811
 3135W        W75560  17.100  23.138  13.712
 3136W        W75561   0.362  22.101  11.055
 3137W        W75562  23.530  28.192  13.857
 3138W        W75563  30.018  14.560  12.461
 3139W        W75564  21.519   4.362   2.151
 3140W        W75565   1.285  25.269  13.964
 3141W        W75566  21.851  11.216   3.440
 3142W        W75567  43.798  34.706   1.782
 3143W        W75568  13.050  21.427   3.780
 3144W        W75569  17.196  17.343  14.840
 3145W        W75570  10.121  15.972  11.666
 3146W        W75571  41.287  20.574   1.506
 3147W        W75572  25.108  25.494   2.816
 3148W        W75573  10.986  39.661   4.983
 3149W        W75574  30.909  33.413  13.934
 3150W        W75575  31.956  21.686   3.195
 3151W        W75576  17.626  15.235  11.793
 3152W        W75577   7.207  32.878   1.860
 3153W        W75578   5.482   5.281   1.277
 3154W        W75579  26.249  35.504  14.110
 3155W        W75580  25.844   4.339  10.425
 3156W        W75581  27.064  26.237  13.044
 3157W        W75582  23.735  12.119   4.184
 3158W        W75583  37.485  31.880  12.508
 3159W        W75584  22.449  18.563  12.551
 3160W        W75585  43.392  28.377  11.992
 3161W        W75586  35.512  11.228  14.224
 3162W        W75587   6.416  25.440  11.880
 3163W        W75588  18.808  19.186  13.375
 3164W        W75589  32.658  38.342  14.382
 3165W        W75590  39.427  21.094  13.309
 3166W        W75591  27.258  20.035   4.259
 3167W        W75592  15.628  16.960  13.573
 3168W        W75593  29.333   1.661  12.495
 3169W        W75594  36.063   1.947   2.203
 3170W        W75595  26.674  30.493  12.118
 3171W        W75596  19.172  38.310  12.373
 3172W        W75597  22.798  28.941   3.831
 3173W        W75598  43.770  40.589   3.458
 3174W        W75599  36.650   4.747   5.060
 3175W        W75600  14.678  29.220  10.942
 3176W        W75601  37.614  28.654  12.138
 3177W        W75602  28.393  22.302   3.674
 3178W        W75603  30.430   4.828   2.171
 3179W        W75604  16.646  13.876  10.329
 3180W        W75605  37.002  28.227  12.189
 3181W        W75606   1.407  15.643  13.917
 3182W        W75607  38.487  30.486  11.199
 3183W        W75608  30.905  40.772   4.658
 3184W        W75609  34.640  37.021   1.800
 3185W        W75610  19.051  11.553   3.067
 3186W        W75611  36.378  23.912  12.998
 3187W        W75612  25.197  18.302   3.800
 3188W        W75613  41.064  31.112   2.411
 3189W        W75614   0.583   7.291   2.150
 3190W        W75615  32.711  32.055  12.523
 3191W        W75616  23.735   5.764  11.598
 3192W        W75617  11.740  18.556   4.418
 3193W        W75618  38.903  43.611  13.697
 3194W        W75619   8.274  14.426   5.056
 3195W        W75620   1.048  32.058  11.048
 3196W        W75621  25.952  28.686   0.911
 3197W        W75622  35.652  43.018  12.607
 3198W        W75623  21.648  11.633   3.051
 3199W        W75624  29.191   8.251  11.183
 3200W        W75625  23.918  28.354  12.623
 3201W        W75626  36.994   4.217   3.157
 3202W        W75627   8.282  41.638  11.563
 3203W        W75628  15.571  28.742   0.920
 3204W        W75629   6.465  30.381  10.126
 3205W        W75630  16.773   3.705   4.398
 3206W        W75631  27.478  37.895  13.811
 3207W        W75632  21.445  20.114   3.743
 3208W        W75633  10.615  20.218  13.330
 3209W        W75634  30.416  34.568  11.733
 3210W        W75635  18.080  28.625  14.679
 3211W        W75636  34.508  36.042  14.029
 3212W        W75637   0.845  14.789  13.946
 3213W        W75638  30.582  21.073   2.649
 3214W        W75639  29.919  17.739   0.710
 3215W        W75640   5.811  16.320   0.524
 3216W        W75641   2.178  24.613  13.982
 3217W        W75642  12.711  30.119   3.623
 3218W        W75643  36.918  32.194   2.160
 3219W        W75644  37.397  44.039  11.625
 3220W        W75645  33.006  31.066   4.890
 3221W        W75646  33.950  38.368  11.463
 3222W        W75647  38.711  15.231   0.697
 3223W        W75648  29.058   3.418  14.381
 3224W        W75649  35.953  17.064   3.120
 3225W        W75650   2.498  42.455  11.526
 3226W        W75651   1.538  37.068   3.740
 3227W        W75652  14.621  33.096   4.966
 3228W        W75653  31.029  13.314  10.703
 3229W        W75654  24.771   1.262  11.470
 3230W        W75655   5.450  33.427  11.181
 3231W        W75656  18.682   9.603   3.770
 3232W        W75657  44.448  24.504   1.382
 3233W        W75658  15.600  15.238   0.775
 3234W        W75659  33.914   1.303   2.667
 3235W        W75660   5.367  13.115   0.879
 3236W        W75661   2.198  27.694   4.074
 3237W        W75662  44.823  17.538  12.650
 3238W        W75663  43.441  39.508   3.084
 3239W        W75664   5.879  30.953   2.272
 3240W        W75665   7.723  23.609  13.276
 3241W        W75666  35.511  25.587   2.503
 3242W        W75667  10.671   1.900  13.798
 3243W        W75668  39.931  31.935   1.514
 3244W        W75669  34.466  41.888   0.781
 3245W        W75670  30.851  34.846  11.663
 3246W        W75671  29.575  27.159  14.333
 3247W        W75672  22.299  44.460   0.733
 3248W        W75673  31.294  19.358  13.302
 3249W        W75674   4.978   5.828   4.646
 3250W        W75675  38.577  37.409   3.771
 3251W        W75676  38.316  33.630   3.842
 3252W        W75677  19.017  36.341  11.555
 3253W        W75678  21.594  22.386  13.920
 3254W        W75679   3.928  40.956  14.459
 3255W        W75680  26.020   8.374   0.358
 3256W        W75681  30.961   4.329   2.634
 3257W        W75682  28.664   3.893  14.506
 3258W        W75683  12.945  11.882  12.024
 3259W        W75684  19.663  19.751   3.578
 3260W        W75685  18.808   1.685   0.412
 3261W        W75686  23.879   7.806  14.789
 3262W        W75687  32.994  31.076   2.305
 3263W        W75688   9.175  17.294  14.886
 3264W        W75689   6.412  20.923  10.724
 3265W        W75690   0.320  37.789   4.618
 3266W        W75691  20.130  27.198   1.303
 3267W        W75692  19.340  16.951   4.559
 3268W        W75693  33.587   3.275   1.730
 3269W        W75694  30.327   0.172  10.810
 3270W        W75695  33.166  44.479   2.886
 3271W        W75696  24.273  14.622   0.170
 3272W        W75697  39.758  32.645   2.811
 3273W        W75698   0.156   0.395   4.366
 3274W        W75699  39.794   5.776  13.043
 3275W        W75700   9.205   1.888   2.444
 3276W        W75701   6.482  10.837  12.561
 3277W        W75702  41.561  20.185   1.713
 3278W        W75703  33.378  43.964   2.338
 3279W        W75704  13.599  23.604  10.243
 3280W        W75705  15.068  24.404   4.667
 3281W        W75706  31.652   4.446   0.729
 3282W        W75707  11.565  31.988   4.615
 3283W        W75708  14.667  34.251  11.450
 3284W        W75709   9.287  18.961   4.192
 3285W        W75710  12.789  26.133   3.820
 3286W        W75711  20.232  19.095   1.459
 3287W        W75712  18.099  38.591  13.304
 3288W        W75713  44.081   8.351  14.062
 3289W        W75714  11.850  16.092   4.274
 3290W        W75715  26.060  13.282  11.301
 3291W        W75716  42.325  17.574  11.265
 3292W        W75717  35.680  17.243   2.357
 3293W        W75718  34.625   4.862   0.868
 3294W        W75719  38.419   3.205   0.898
 3295W        W75720  40.019   1.416  12.412
 3296W        W75721  33.219  43.443   4.989
 3297W        W75722  35.688  15.243   1.500
 3298W        W75723  24.351  22.183   3.307
 3299W        W75724   1.980  37.961   1.388
 3300W        W75725  20.690  38.673  14.419
 3301W        W75726  38.867   5.275   1.263
 3302W        W75727  39.241   6.946   0.335
 3303W        W75728  14.220   5.325   4.169
 3304W        W75729  40.888  14.744   2.662
 3305W        W75730   1.969  36.565  12.417
 3306W        W75731  29.906   7.353   1.444
 3307W        W75732  11.402  16.357  10.565
 3308W        W75733  23.038   2.394   4.865
 3309W        W75734   7.818  31.543  12.097
 3310W        W75735   5.204  15.668  12.446
 3311W        W75736  26.920  29.379   2.800
 3312W        W75737  39.513   0.350   1.180
 3313W        W75738  33.599  12.301  11.191
 3314W        W75739  34.626  17.529  12.482
 3315W        W75740  13.743  34.257   4.993
 3316W        W75741  13.572   2.029   4.506
 3317W        W75742  40.360   5.971   3.104
 3318W        W75743   6.139  23.454   0.441
 3319W        W75744  22.769  11.112  10.919
 3320W        W75745  44.908  38.384   1.865
 3321W        W75746   1.964  15.784   0.708
 3322W        W75747   8.392  25.130   2.900
 3323W        W75748  34.549  37.133  12.770
 3324W        W75749  40.991  44.178  14.423
 3325W        W75750  24.136   0.832  13.088
 3326W        W75751   0.036  43.344  11.655
 3327W        W75752   5.570  18.732   2.415
 3328W        W75753  35.454  30.413   0.400
 3329W        W75754  33.876  21.571   2.361
 3330W        W75755  29.460  38.392  13.091
 3331W        W75756   8.039   7.372  10.378
 3332W        W75757  23.252  31.482  12.595
 3333W        W75758  43.597  25.639  11.141
 3334W        W75759  22.591   4.006  11.659
 3335W        W75760   0.554  31.106  12.937
 3336W        W75761  37.329   4.260  12.633
 3337W        W75762  27.134  20.534  12.784
 3338W        W75763   8.266  22.202  14.074
 3339W        W75764  21.111  40.892  14.801
 3340W        W75765  12.964  30.730  12.978
 3341W        W75766  36.811  43.458   2.348
 3342W        W75767  36.367  30.986  12.182
 3343W        W75768  13.560  17.754  11.894
 3344W        W75769  39.037  40.338  13.873
 3345W        W75770  27.610  34.250  11.799
 3346W        W75771   8.507  33.424   2.549
 3347W        W75772  14.940  34.978  10.569
 3348W        W75773   0.545  36.109  11.055
 3349W        W75774  34.639  31.480  12.533
 3350W        W75775  29.056  32.749  13.541
 3351W        W75776  25.083   2.757   4.592
 3352W        W75777  23.518  37.949  11.623
 3353W        W75778  10.394  15.702   1.663
 3354W        W75779  35.468   3.931   4.296
 3355W        W75780  12.118  44.915   4.665
 3356W        W75781  25.475   8.613   2.510
 3357W        W75782   0.001  26.749  13.028
 3358W        W75783  38.826  21.975   3.080
 3359W        W75784  16.236   3.909   3.694
 3360W        W75785   5.400  41.077  12.867
 3361W        W75786   5.944  34.877   2.773
 3362W        W75787  22.403   2.884  14.823
 3363W        W75788  27.110  19.791  11.432
 3364W        W75789  27.481  28.436  12.430
 3365W        W75790  22.245   5.243   0.685
 3366W        W75791  14.149   4.876  13.512
 3367W        W75792  20.100   2.731  10.710
 3368W        W75793   0.223  31.493   4.982
 3369W        W75794  35.855  28.157  12.124
 3370W        W75795  37.109   7.622   0.996
 3371W        W75796  38.134  21.807   2.599
 3372W        W75797   1.891  27.697  11.406
 3373W        W75798  25.729  13.735   2.728
 3374W        W75799  12.205  29.901  13.010
 3375W        W75800  39.150  21.640   2.839
 3376W        W75801  17.092  30.367  12.104
 3377W        W75802   4.933  19.699  12.881
 3378W        W75803  16.828  34.995   3.272
 3379W        W75804  19.283  28.244   3.659
 3380W        W75805  33.513  17.734   1.527
 3381W        W75806  23.270   4.644   2.010
 3382W        W75807  13.689  33.515  14.997
 3383W        W75808  36.405  17.713  10.621
 3384W        W75809  12.157  25.039   4.702
 3385W        W75810  20.815  43.033   2.640
 3386W        W75811  31.090  25.997  11.468
 3387W        W75812  18.304   0.646  10.835
 3388W        W75813  36.009  28.887  13.098
 3389W        W75814   1.927   4.402  12.099
 3390W        W75815  15.171  37.097   0.794
 3391W        W75816   1.770  27.531  11.974
 3392W        W75817   8.351  36.520  11.872
 3393W        W75818  10.730  30.182  11.585
 3394W        W75819  15.177   5.313  11.791
 3395W        W75820  21.278  10.680  12.914
 3396W        W75821  16.651   9.682  11.164
 3397W        W75822   0.706   5.276   1.246
 3398W        W75823  30.913   8.821  12.983
 3399W        W75824  13.852  23.028   4.113
 3400W        W75825   9.963   5.200  11.668
 3401W        W75826  16.410  44.728  11.618
 3402W        W75827  26.571  32.969   0.885
 3403W        W75828  43.957   4.291   4.039
 3404W        W75829   8.794  12.132   4.147
 3405W        W75830  23.210   1.713   4.612
 3406W        W75831  33.847  26.517   0.855
 3407W        W75832   9.271  37.373  13.381
 3408W        W75833  10.081   2.885   1.981
 3409W        W75834   1.806  44.293   4.098
 3410W        W75835  15.374  36.924  14.437
 3411W        W75836  39.252  34.479  13.180
 3412W        W75837  42.514  18.851   1.683
 3413W        W75838   8.553   1.922   3.376
 3414W        W75839  28.746  35.377   1.550
 3415W        W75840   4.657  35.416   2.722
 3416W        W75841  43.286   5.615  11.061
 3417W        W75842  35.609   5.461   2.795
 3418W        W75843  38.854  22.455  12.467
 3419W        W75844  10.040  20.530   0.477
 3420W        W75845  38.352  39.616  14.983
 3421W        W75846  27.611  24.726  12.094
 3422W        W75847  44.483  21.526   0.466
 3423W        W75848  38.397  38.418   3.854
 3424W        W75849  25.197  33.956  13.392
 3425W        W75850  10.607  30.698  12.204
 3426W        W75851  29.307   9.459  10.680
 3427W        W75852   7.134  34.624  11.967
 3428W        W75853  16.298  43.681   0.517
 3429W        W75854   4.953  38.200   4.233
 3430W        W75855  28.989  15.869  14.351
 3431W        W75856  22.713   3.973   1.768
 3432W        W75857  25.152  27.602  13.595
 3433W        W75858  19.054  22.606   2.705
 3434W        W75859   1.114  14.832  13.490
 3435W        W75860   2.834  34.876   2.844
 3436W        W75861   2.541   6.272   3.484
 3437W        W75862  31.366  43.918   3.402
 3438W        W75863  39.979   9.401  14.215
 3439W        W75864  16.351  29.126  11.720
 3440W        W75865  38.382  14.455   1.974
 3441W        W75866   1.395  40.959   1.311
 3442W        W75867   6.660  36.378   2.297
 3443W        W75868  36.827  32.320  11.835
 3444W        W75869  33.194  10.807   1.255
 3445W        W75870  33.682  15.282  14.341
 3446W        W75871   8.330  23.513   0.421
 3447W        W75872   2.854  26.641   2.924
 3448W        W75873  22.997  24.600  13.382
 3449W        W75874  42.818  40.128  10.679
 3450W        W75875  36.055  23.968  13.440
 3451W        W75876  31.617   0.043  14.948
 3452W        W75877  34.651  44.827   2.756
 3453W        W75878  34.588   5.595  14.883
 3454W        W75879  31.694   4.846  14.443
 3455W        W75880  35.279  26.625   3.585
 3456W        W75881  44.958  33.041  10.331
 3457W        W75882  12.692  37.290  13.947
 3458W        W75883  44.179   5.964  10.738
 3459W        W75884  19.594  38.999   1.212
 3460W        W75885  29.881  29.117  14.889
 3461W        W75886  18.350   6.656  12.231
 3462W        W75887   9.386  44.535   3.318
 3463W        W75888   3.926  36.610   0.465
 3464W        W75889  22.660   8.627  14.531
 3465W        W75890  29.616  41.328   1.480
 3466W        W75891   7.282  37.426  11.946
 3467W        W75892  12.640  17.603   3.738
 3468W        W75893   2.021   1.334  10.495
 3469W        W75894  40.824  21.812   5.525
 3470W        W75895  12.150  43.921   3.727
 3471W        W75896   4.664  10.648   2.697
 3472W        W75897  18.732  15.187   2.290
 3473W        W75898  22.032  11.376  10.728
 3474W        W75899  14.280  42.926  12.372
 3475W        W75900  23.088  37.258   2.248
 3476W        W75901   6.775  36.387   0.789
 3477W        W75902  14.347  41.526  13.378
 3478W        W75903   9.321  28.551  11.951
 3479W        W75904  31.131  20.804  13.398
 3480W        W75905   0.157  29.664   0.761
 3481W        W75906  32.491   7.656   2.193
 3482W        W75907  26.465  18.987  12.393
 3483W        W75908  38.607   5.176   0.311
 3484W        W75909  31.042  37.621   2.417
 3485W        W75910  15.670   5.764  12.284
 3486W        W75911  39.032  31.661  13.787
 3487W        W75912  43.076  30.520   0.375
 3488W        W75913  25.783  34.431  13.484
 3489W        W75914  14.479  39.596  11.103
 3490W        W75915  44.840  25.276  11.538
 3491W        W75916  30.402  42.732  11.679
 3492W        W75917  38.063  22.243   0.740
 3493W        W75918   2.957  26.450   1.203
 3494W        W75919   1.360  22.601   3.219
 3495W        W75920  15.600  27.981  10.206
 3496W        W75921  29.510  21.989   2.771
 3497W        W75922  33.879  17.608   4.442
 3498W        W75923  40.857  44.549  12.716
 3499W        W75924   2.855  38.309  11.968
 3500W        W75925  33.456   6.802   0.061
 3501W        W75926  13.786  32.696   3.360
 3502W        W75927   7.422  11.918   2.790
 3503W        W75928  19.654  10.340   3.327
 3504W        W75929  21.284  17.722   1.835
 3505W        W75930   0.308   9.272  13.757
 3506W        W75931  21.091   0.585   4.267
 3507W        W75932   7.463   5.847   2.456
 3508W        W75933  10.006  14.217  10.035
 3509W        W75934  30.594  44.251   4.921
 3510W        W75935  27.920  18.567   4.107
 3511W        W75936  38.097  33.146  14.572
 3512W        W75937  19.332  22.785  12.614
 3513W        W75938  34.839   5.847   0.955
 3514W        W75939  11.754   1.782  14.397
 3515W        W75940  32.919  29.367  14.372
 3516W        W75941  30.215  36.045   3.215
 3517W        W75942   8.973  17.806  14.341
 3518W        W75943  39.994  39.642  13.921
 3519W        W75944  13.531  30.260  13.844
 3520W        W75945  21.525  38.237   3.594
 3521W        W75946  14.587  39.362  13.965
 3522W        W75947  18.611  16.348  11.962
 3523W        W75948  27.948  42.797   3.762
 3524W        W75949  38.688   5.983  11.952
 3525W        W75950  27.599  35.461   2.483
 3526W        W75951  21.041  18.535  13.361
 3527W        W75952   2.466  20.045   4.242
 3528W        W75953   5.252  21.388  12.399
 3529W        W75954  33.991  18.019   2.783
 3530W        W75955  26.630  37.778   1.596
 3531W        W75956  15.202  27.569  13.171
 3532W        W75957  28.912  19.001   2.948
 3533W        W75958  32.634  12.124   1.325
 3534W        W75959  16.851  41.850   2.935
 3535W        W75960  32.358   6.293  12.436
 3536W        W75961  12.337   9.234  13.996
 3537W        W75962  35.944  12.325  11.565
 3538W        W75963  13.526  43.536   4.333
 3539W        W75964   9.553  39.461   1.790
 3540W        W75965  21.032   0.403   0.068
 3541W        W75966  15.977  10.691  12.883
 3542W        W75967  18.115  29.187  11.668
 3543W        W75968  15.014  44.174  12.562
 3544W        W75969  24.732  31.232   2.241
 3545W        W75970   9.672  31.357   0.829
 3546W        W75971  18.308   1.478   4.086
 3547W        W75972  30.431  29.255   0.904
 3548W        W75973  26.272   9.545  14.367
 3549W        W75974   4.459  28.048  13.357
 3550W        W75975  33.408   9.769  12.066
 3551W        W75976  13.173   9.787  12.632
 3552W        W75977   3.691   9.912   2.294
 3553W        W75978  34.936  23.136   4.626
 3554W        W75979  32.526  28.644  14.921
 3555W        W75980  39.303  14.280   1.265
 3556W        W75981  10.876   7.785  11.695
 3557W        W75982   0.752   1.785   4.881
 3558W        W75983  35.445  28.195  10.720
 3559W        W75984  16.270  13.575  14.966
 3560W        W75985  19.618  18.516   1.816
 3561W        W75986   1.019  20.556  10.640
 3562W        W75987  38.385  14.746  12.232
 3563W        W75988  26.823  29.474   4.442
 3564W        W75989   1.853  41.320   0.069
 3565W        W75990  19.488   3.428   2.816
 3566W        W75991  15.462  36.921   0.337
 3567W        W75992   6.203  30.693   0.759
 3568W        W75993  28.073  33.153  10.533
 3569W        W75994  39.866  31.107   1.006
 3570W        W75995  32.412  26.650  11.560
 3571W        W75996   7.946   9.066  11.423
 3572W        W75997  39.471  23.456  14.434
 3573W        W75998  11.103  26.746  11.361
 3574W        W75999  24.178  12.270  12.118
 3575W        W76000  17.095   5.245  13.048
 3576W        W76001  10.643   3.643  10.705
 3577W        W76002  13.856  26.469   0.685
 3578W        W76003  14.364  34.560  12.453
 3579W        W76004   2.535  44.076   2.736
 3580W        W76005  35.136  22.521   5.107
 3581W        W76006  27.914   9.646  11.579
 3582W        W76007  40.085   2.746  14.675
 3583W        W76008  10.599  39.036   2.712
 3584W        W76009  21.503  17.119  11.035
 3585W        W76010  25.675  17.596  13.144
 3586W        W76011  42.984  15.050  14.023
 3587W        W76012  40.854  38.047  13.062
 3588W        W76013   7.340  44.512   4.803
 3589W        W76014  37.609  16.568  14.961
 3590W        W76015   7.795   8.861   0.764
 3591W        W76016  17.276   6.932   4.782
 3592W        W76017   8.815  39.597  14.823
 3593W        W76018  23.860  14.858  12.310
 3594W        W76019  42.510   4.266  14.625
 3595W        W76020  24.383  15.705   1.904
 3596W        W76021  38.062  25.093   4.609
 3597W        W76022  12.120  34.451  12.922
 3598W        W76023  31.651  36.058  13.305
 3599W        W76024  13.143  28.593  13.347
 3600W        W76025  42.148  35.460   2.836
 3601W        W76026  19.029   9.839   2.851
 3602W        W76027  43.820  44.985  11.539
 3603W        W76028  10.292   4.845   0.217
 3604W        W76029  26.336  43.035  13.354
 3605W        W76030  18.835  43.803   2.345
 3606W        W76031  31.857  21.331  11.580
 3607W        W76032   6.393  34.743   3.524
 3608W        W76033  25.914  24.631  10.568
 3609W        W76034   5.320  25.487   2.392
 3610W        W76035  23.463  27.669   4.116
 3611W        W76036   9.820  34.629   0.462
 3612W        W76037  28.867  42.318  14.714
 3613W        W76038  17.783  42.915   3.256
 3614W        W76039   0.495  40.883  13.013
 3615W        W76040  41.368  40.744  12.368
 3616W        W76041  34.505   8.259   0.230
 3617W        W76042  27.106   7.739  14.100
 3618W        W76043  18.423  18.514   4.134
 3619W        W76044   0.357  14.142   2.675
 3620W        W76045   2.934  17.572   0.711
 3621W        W76046   7.745  21.911  13.814
 3622W        W76047   5.946  30.478  13.041
 3623W        W76048  20.114   0.066  14.855
 3624W        W76049  25.012  44.992   0.501
 3625W        W76050  34.342  18.818  13.418
 3626W        W76051  10.352  38.502  12.500
 3627W        W76052  26.737  11.307  11.590
 3628W        W76053  30.999  26.227   2.253
 3629W        W76054   7.952   4.793   0.407
 3630W        W76055  43.107  22.157   3.037
 3631W        W76056  14.340   1.126   0.152
 3632W        W76057  38.494  17.745  11.194
 3633W        W76058  30.149  43.875   4.266
 3634W        W76059  11.634  44.591  11.212
 3635W        W76060  21.915  38.015   3.854
 3636W        W76061  19.734   6.202  13.955
 3637W        W76062  35.408  14.059   3.358
 3638W        W76063  40.617  41.344  10.136
 3639W        W76064  24.020  44.427   1.886
 3640W        W76065  18.292   2.937   2.338
 3641W        W76066   2.768  10.087  14.861
 3642W        W76067  23.915  29.659  14.181
 3643W        W76068  25.983  42.365  11.850
 3644W        W76069   4.518  24.524  12.107
 3645W        W76070   0.562   5.043  11.080
 3646W        W76071  36.970  11.161   1.438
 3647W        W76072  27.213   7.674   4.551
 3648W        W76073  14.240  37.922   4.334
 3649W        W76074  43.379   7.153  13.789
 3650W        W76075  10.964  42.246  13.994
 3651W        W76076  10.460  28.694   0.310
 3652W        W76077  16.124  43.931   4.588
 3653W        W76078  24.405  14.223   3.393
 3654W        W76079  42.034  33.596   1.251
 3655W        W76080  26.179  26.015  10.671
 3656W        W76081   4.770  43.188  12.559
 3657W        W76082  10.113   5.604  13.027
 3658W        W76083   1.982  27.217   4.085
 3659W        W76084  40.403  38.060  13.566
 3660W        W76085  23.491  35.584   1.905
 3661W        W76086  21.988  24.401   4.178
 3662W        W76087  11.252  10.660   0.841
 3663W        W76088   9.648   3.401   1.143
 3664W        W76089   5.355  19.575   2.019
 3665W        W76090  41.611  35.099  11.926
 3666W        W76091  14.289  19.714   1.764
 3667W        W76092  25.965  38.508  11.892
 3668W        W76093  24.779  19.828   1.699
 3669W        W76094  18.179  11.351  11.640
 3670W        W76095  39.960  27.064   4.566
 3671W        W76096  44.945  27.524  11.433
 3672W        W76097   2.330   6.094  12.165
 3673W        W76098  29.085  21.970  11.449
 3674W        W76099  32.528  21.214  11.981
 3675W        W76100  15.093  17.484   1.348
 3676W        W76101  19.117  33.481  10.649
 3677W        W76102  13.728  18.482  13.987
 3678W        W76103   7.231  38.601   4.307
 3679W        W76104  29.425   2.424   3.312
 3680W        W76105  25.536   5.269  10.707
 3681W        W76106  32.347  29.655  14.859
 3682W        W76107  39.439   7.514   4.597
 3683W        W76108   4.749  17.569  14.971
 3684W        W76109  43.914  36.006  14.202
 3685W        W76110  20.150  33.814   2.295
 3686W        W76111   2.106   2.954  14.441
 3687W        W76112  38.154   7.220  12.833
 3688W        W76113  20.762  43.441   5.149
 3689W        W76114  28.718  32.200  12.331
 3690W        W76115  14.091  43.032   4.697
 3691W        W76116   1.480  26.791  14.042
 3692W        W76117  11.746  34.082  12.826
 3693W        W76118  33.142  33.986   4.605
 3694W        W76119  28.255  18.786   3.155
 3695W        W76120  13.558  26.510   4.664
 3696W        W76121  16.649  33.445   3.147
 3697W        W76122  29.529  31.159  12.898
 3698W        W76123  44.464  13.281  12.620
 3699W        W76124  15.014  25.295  13.949
 3700W        W76125  24.020  19.676  14.886
 3701W        W76126  24.785  22.690   2.795
 3702W        W76127  44.792  44.328   2.699
 3703W        W76128  36.942  23.927  12.532
 3704W        W76129   8.765  30.640  13.416
 3705W        W76130  12.027   3.796  14.106
 3706W        W76131   1.328  35.902   3.247
 3707W        W76132  43.399  34.398   3.644
 3708W        W76133  30.839  32.474  11.208
 3709W        W76134  23.264   1.381  13.995
 3710W        W76135  15.766  31.761   5.161
 3711W        W76136  23.038  19.438  14.487
 3712W        W76137  25.206  28.576  12.772
 3713W        W76138  26.636   5.251  10.547
 3714W        W76139  17.303  35.422   2.208
 3715W        W76140  12.385  13.887   0.224
 3716W        W76141  16.227  18.518  12.767
 3717W        W76142  27.025  23.381  13.876
 3718W        W76143  36.026  44.557   0.498
 3719W        W76144  37.193  37.377   0.960
 3720W        W76145  44.270  42.717  10.229
 3721W        W76146  19.534  40.020  10.886
 3722W        W76147   4.650  28.662   4.584
 3723W        W76148  31.302  36.523  14.918
 3724W        W76149   3.472  29.585  11.081
 3725W        W76150   3.190  10.135   1.949
 3726W        W76151  19.522   8.267  13.341
 3727W        W76152   6.697   5.481  13.321
 3728W        W76153  27.797  44.473  11.077
 3729W        W76154  42.342   3.401  11.691
 3730W        W76155  28.544  38.672   0.066
 3731W        W76156  22.253  36.079   0.851
 3732W        W76157   2.507  27.739  12.493
 3733W        W76158  38.528   6.934  13.887
 3734W        W76159  22.737  17.768  11.397
 3735W        W76160  40.920  10.254   4.339
 3736W        W76161   9.744  17.836  10.246
 3737W        W76162  23.901  42.736  10.357
 3738W        W76163  32.787  15.154   1.643
 3739W        W76164  24.599   8.442  14.406
 3740W        W76165   1.800  25.790   4.545
 3741W        W76166  43.672  24.584  11.153
 3742W        W76167  38.909  12.706   1.812
 3743W        W76168   7.287   3.734  14.813
 3744W        W76169  31.922  30.984  12.336
 3745W        W76170  35.490   0.422   4.163
 3746W        W76171  14.827  29.297   4.553
 3747W        W76172  40.412  40.491   2.168
 3748W        W76173  16.467  27.659   1.827
 3749W        W76174  27.149  13.571   2.714
 3750W        W76175   4.892  11.357   0.854
 3751W        W76176  33.519  41.283   1.730
 3752W        W76177  44.453  42.229   1.308
 3753W        W76178  38.189   3.974   2.626
 3754W        W76179  35.678   0.195  10.744
 3755W        W76180  40.584   1.462   1.392
 3756W        W76181  38.534  24.737  13.979
 3757W        W76182  20.554  22.940   2.677
 3758W        W76183  29.331  22.209  11.840
 3759W        W76184  33.635  29.151   4.159
 3760W        W76185  21.323  41.262   0.080
 3761W        W76186   7.435  16.716  13.008
 3762W        W76187  42.201   6.085   3.313
 3763W        W76188   3.433  39.939   0.754
 3764W        W76189  41.107  38.955  10.777
 3765W        W76190  19.401   9.280   0.841
 3766W        W76191  17.056  12.839  14.344
 3767W        W76192  16.964   4.680  10.885
 3768W        W76193  40.036  17.418   2.727
 3769W        W76194  18.671  20.998   4.092
 3770W        W76195  11.280  11.175  13.902
 3771W        W76196  31.511  39.467  13.860
 3772W        W76197   3.467  17.774   0.477
 3773W        W76198  25.187  36.958  10.737
 3774W        W76199   9.908  32.196   2.824
 3775W        W76200  42.156  35.992   4.076
 3776W        W76201  14.300  16.588  12.849
 3777W        W76202   8.772  42.637   2.227
 3778W        W76203   9.375  29.133   1.707
 3779W        W76204   9.859  43.295   3.648
 3780W        W76205   2.503  17.235   0.753
 3781W        W76206  14.791  12.945  11.909
 3782W        W76207  19.545  18.650  13.560
 3783W        W76208  19.324  18.616   2.868
 3784W        W76209  14.095  22.753  10.887
 3785W        W76210   0.441  21.742   3.678
 3786W        W76211  36.446  21.081   3.772
 3787W        W76212  20.215  31.996   0.332
 3788W        W76213  10.028  26.692  13.957
 3789W        W76214  16.323   4.685  14.027
 3790W        W76215   3.995  15.297  11.901
 3791W        W76216  16.761  41.890  13.285
 3792W        W76217   8.455  23.981  13.547
 3793W        W76218  29.226  13.135   4.801
 3794W        W76219  24.881  12.263   3.708
 3795W        W76220  16.075  14.628  14.339
 3796W        W76221   5.680  15.884   4.207
 3797W        W76222  35.507  12.639   3.328
 3798W        W76223  32.929   5.851   0.877
 3799W        W76224  32.936  26.127  14.036
 3800W        W76225   7.652  42.776   1.892
 3801W        W76226  11.857  14.733   2.194
 3802W        W76227   2.665  37.539   2.143
 3803W        W76228  13.347  42.507   3.353
 3804W        W76229  13.375  41.503  10.623
 3805W        W76230   9.116  35.973   1.888
 3806W        W76231  17.956   8.939  11.104
 3807W        W76232  38.046  22.492   3.280
 3808W        W76233  33.041  44.472  14.431
 3809W        W76234  40.125   2.247   1.596
 3810W        W76235   7.489  30.532  14.441
 3811W        W76236  30.196   2.976  12.020
 3812W        W76237  37.565  21.294   3.785
 3813W        W76238   5.467  18.724  14.497
 3814W        W76239   6.792  10.362   9.920
 3815W        W76240  15.779  28.188   1.755
 3816W        W76241  33.288  32.329   0.990
 3817W        W76242  39.382  12.576   3.798
 3818W        W76243  25.019  27.203   3.679
 3819W        W76244  10.106  37.742  13.124
 3820W        W76245  36.204  17.855   2.754
 3821W        W76246  32.678  18.840  11.018
 3822W        W76247  31.895  30.218  13.470
 3823W        W76248  30.685  38.514  10.731
 3824W        W76249  37.272   1.352   0.886
 3825W        W76250  41.307  21.720  10.993
 3826W        W76251  35.402  17.803  11.458
 3827W        W76252   0.000   1.548  10.601
 3828W        W76253  44.930  30.729   3.088
 3829W        W76254  22.751  18.171  12.773
 3830W        W76255  13.592  36.941  12.947
 3831W        W76256  36.616  32.784  11.855
 3832W        W76257   1.288  32.509  11.068
 3833W        W76258   9.712  22.126  13.208
 3834W        W76259  44.795  38.085   4.653
 3835W        W76260  13.217  14.846   2.413
 3836W        W76261  43.768  31.824  14.427
 3837W        W76262  35.233  29.099  14.934
 3838W        W76263  25.222  35.116   5.142
 3839W        W76264  28.688  38.556   4.128
 3840W        W76265  10.868  26.078  11.674
 3841W        W76266  19.641  36.982  14.623
 3842W        W76267   2.121  42.034   4.262
 3843W        W76268   6.356   1.705  10.141
 3844W        W76269  17.428  19.753  13.438
 3845W        W76270  41.446  43.368   0.448
 3846W        W76271  14.693   9.368   0.402
 3847W        W76272   7.965   3.601  11.890
 3848W        W76273  37.914  19.697   4.561
 3849W        W76274  39.035  23.615  14.106
 3850W        W76275  25.951  28.021   2.705
 3851W        W76276  13.631  26.953  11.062
 3852W        W76277  23.454  14.075  11.917
 3853W        W76278  19.706  22.430   1.848
 3854W        W76279  18.021  13.102   3.714
 3855W        W76280  43.488   0.629   0.452
 3856W        W76281  13.722  23.533   2.774
 3857W        W76282  28.997  16.487   3.766
 3858W        W76283   7.758  32.900  13.404
 3859W        W76284   8.350  10.427  14.251
 3860W        W76285   2.633  36.174   3.857
 3861W        W76286  41.482  31.172  12.408
 3862W        W76287   8.752  17.038  13.804
 3863W        W76288   1.121   3.290   2.450
 3864W        W76289  15.325  22.998  14.500
 3865W        W76290  10.355  11.291   4.417
 3866W        W76291  26.508  13.918   0.390
 3867W        W76292  36.336  39.413   2.874
 3868W        W76293   1.890  19.803  13.466
 3869W        W76294  28.617  12.425  12.538
 3870W        W76295  40.035  21.095   3.678
 3871W        W76296   1.746  31.166   4.825
 3872W        W76297  35.395  29.528   4.381
 3873W        W76298  31.153  44.333   3.173
 3874W        W76299  20.435   0.993  12.112
 3875W        W76300  35.205   8.857   2.327
 3876W        W76301   9.808  11.790   0.837
 3877W        W76302   8.694  28.030  13.401
 3878W        W76303  10.633  15.526   0.902
 3879W        W76304  34.155   7.463   3.546
 3880W        W76305  11.070  30.351  13.385
 3881W        W76306  15.060   1.545   4.768
 3882W        W76307  29.118  37.055  12.117
 3883W        W76308  17.130  23.609  11.641
 3884W        W76309  42.369  36.583  14.784
 3885W        W76310   8.644   2.795   4.516
 3886W        W76311  28.177  20.054   4.208
 3887W        W76312   8.418  40.160   2.322
 3888W        W76313  30.217  40.950  11.513
 3889W        W76314   4.486  20.243   1.857
 3890W        W76315  41.256  23.267  12.000
 3891W        W76316  44.848  24.792  11.693
 3892W        W76317  15.271  27.657  14.761
 3893W        W76318  43.311   0.336   3.323
 3894W        W76319  36.127   6.308  13.879
 3895W        W76320   3.890  15.161   3.755
 3896W        W76321   5.850   9.350  11.949
 3897W        W76322  36.329   5.435   0.009
 3898W        W76323  23.495  10.896  14.027
 3899W        W76324  19.860  35.523  14.114
 3900W        W76325  26.149  28.482   4.678
 3901W        W76326  27.482  24.482   1.737
 3902W        W76327  12.935   6.798  10.965
 3903W        W76328  37.971   5.072  14.017
 3904W        W76329  43.034  20.089  10.113
 3905W        W76330  42.989  36.267   5.018
 3906W        W76331  25.087   0.510   4.576
 3907W        W76332  21.437  41.800   4.150
 3908W        W76333   2.938  13.493  11.945
 3909W        W76334  13.848  38.583   0.368
 3910W        W76335  17.741  23.001  10.713
 3911W        W76336   0.440  36.036   1.009
 3912W        W76337  38.228  15.850  14.056
 3913W        W76338  44.854  29.140  11.202
 3914W        W76339  12.262  36.998   3.234
 3915W        W76340  37.068  44.061  12.042
 3916W        W76341   3.449   0.197  12.056
 3917W        W76342  26.257   8.225   2.710
 3918W        W76343   8.263   4.250   3.797
 3919W        W76344   5.041  23.554  14.036
 3920W        W76345  37.521  27.923  12.819
 3921W        W76346   1.940  26.726   0.279
 3922W        W76347  23.219  30.897   1.491
 3923W        W76348  42.751   9.940  10.719
 3924W        W76349  35.094  42.389  10.727
 3925W        W76350  13.797  40.834  13.035
 3926W        W76351   2.123  25.650   4.115
 3927W        W76352  15.303  39.290  14.461
 3928W        W76353   8.204  40.028   4.127
 3929W        W76354  34.771  33.465   0.495
 3930W        W76355  43.744   9.126   3.156
 3931W        W76356   4.371  23.189   2.800
 3932W        W76357  31.248   3.645  13.088
 3933W        W76358  27.881   2.761   2.629
 3934W        W76359  28.567  15.111  11.521
 3935W        W76360  37.068  27.064   4.147
 3936W        W76361  22.819   1.938   2.673
 3937W        W76362  44.404  28.809   4.600
 3938W        W76363  31.503  24.174   2.102
 3939W        W76364  20.182  40.134  14.062
 3940W        W76365  35.599  22.893  11.096
 3941W        W76366  24.945  37.414  13.246
 3942W        W76367  20.433  42.987   3.910
 3943W        W76368  16.104  32.485  10.877
 3944W        W76369  38.455  30.529   0.636
 3945W        W76370   1.914   0.015  14.044
 3946W        W76371   0.006  26.460  13.922
 3947W        W76372  21.280  37.530  12.430
 3948W        W76373  39.474   2.281   1.014
 3949W        W76374  17.270  34.454  14.873
 3950W        W76375   1.556  22.470  12.488
 3951W        W76376   0.028  25.470  14.040
 3952W        W76377  33.049   2.968  10.323
 3953W        W76378  30.484  26.394   0.885
 3954W        W76379  30.510   2.470  10.643
 3955W        W76380  33.722  25.257   2.815
 3956W        W76381  26.363  12.944  13.445
 3957W        W76382  12.870  22.482  11.998
 3958W        W76383  21.566   6.209  12.518
 3959W        W76384  34.108  30.954   0.029
 3960W        W76385   2.196  18.251   4.933
 3961W        W76386  40.947  43.256   2.294
 3962W        W76387  22.131  20.501   4.243
 3963W        W76388  38.068   5.845  14.628
 3964W        W76389   9.867  44.432  12.134
 3965W        W76390   1.996  39.494  14.008
 3966W        W76391  40.452  17.276   0.747
 3967W        W76392  19.067  22.921  11.443
 3968W        W76393  40.099  36.426  11.541
 3969W        W76394  11.563  32.619   0.328
 3970W        W76395  39.344  15.304   1.333
 3971W        W76396  32.411  32.480   2.178
 3972W        W76397   0.976  35.464   4.169
 3973W        W76398  18.622  34.130  13.536
 3974W        W76399  40.054  43.356   2.063
 3975W        W76400  12.219  22.302  10.733
 3976W        W76401  34.375  40.454   3.408
 3977W        W76402  26.535  39.017  13.435
 3978W        W76403  13.138  27.516   3.602
 3979W        W76404   7.879  14.423   2.396
 3980W        W76405  34.106  42.422   2.634
 3981W        W76406  42.707  19.714  12.117
 3982W        W76407  10.157  43.409  10.592
 3983W        W76408  33.271   1.875  13.573
 3984W        W76409   9.393  29.224   3.935
 3985W        W76410  19.253   6.135   2.904
 3986W        W76411  40.989  31.034  12.647
 3987W        W76412  30.714  22.027  10.602
 3988W        W76413   1.188  16.528   0.428
 3989W        W76414  27.714  20.631   1.009
 3990W        W76415  43.466  13.131   1.333
 3991W        W76416  42.496  29.517  14.890
 3992W        W76417  29.451  23.527   4.703
 3993W        W76418  11.590  11.171   1.281
 3994W        W76419   8.087  42.900   4.943
 3995W        W76420  44.293  15.761  12.311
 3996W        W76421  11.712  18.584   0.838
 3997W        W76422   1.496  38.477  12.613
 3998W        W76423  22.031   6.932   0.466
 3999W        W76424  43.382   7.653   4.079
 4000W        W76425  29.390   5.702   0.917
 4001W        W76426  30.548  30.867  12.977
 4002W        W76427  19.552  42.774  10.863
 4003W        W76428  31.120  38.145  14.667
 4004W        W76429  29.952   3.399   3.214
 4005W        W76430   1.471  22.185   4.096
 4006W        W76431  11.112  25.052  12.450
 4007W        W76432  30.218   0.329   2.410
 4008W        W76433  43.890  36.500   1.393
 4009W        W76434   7.638  42.907  13.460
 4010W        W76435  32.428  33.612   3.630
 4011W        W76436   6.704  16.296   2.926
 4012W        W76437   1.266  40.508  14.545
 4013W        W76438  21.347  44.416  13.161
 4014W        W76439  34.940   4.458  13.882
 4015W        W76440  18.135  30.491   0.436
 4016W        W76441  39.809   4.370   4.544
 4017W        W76442  31.259  29.164   1.874
 4018W        W76443  29.338  20.715  10.230
 4019W        W76444  22.082  42.274   1.329
 4020W        W76445  19.536  32.583   4.601
 4021W        W76446  12.136  28.216  11.145
 4022W        W76447  40.031  37.435   2.269
 4023W        W76448  20.583  14.018  13.957
 4024W        W76449  20.583  17.140  14.453
 4025W        W76450   9.675   7.779  14.347
 4026W        W76451  32.332  18.582  10.724
 4027W        W76452  15.781   2.304  11.018
 4028W        W76453  23.764  37.549   3.680
 4029W        W76454  39.079  44.387   1.356
 4030W        W76455  42.237  26.470   3.798
 4031W        W76456  20.954  40.096  11.576
 4032W        W76457  29.315  22.468  13.920
 4033W        W76458  37.043   7.190   1.803
 4034W        W76459   1.876  22.414   4.950
 4035W        W76460  43.729  40.817  12.849
 4036W        W76461  42.484  34.836  13.400
 4037W        W76462  21.594  24.930  12.108
 4038W        W76463  43.550  37.538  10.648
 4039W        W76464  34.503   0.930  13.854
 4040W        W76465  24.426  34.395  13.019
 4041W        W76466  30.024  31.672  10.624
 4042W        W76467  14.143  33.587  14.727
 4043W        W76468  44.074   9.113   4.499
 4044W        W76469  44.337   7.667  14.854
 4045W        W76470  44.397  29.520  13.853
 4046W        W76471  43.042  43.894   4.150
 4047W        W76472  42.019   7.679   0.786
 4048W        W76473  44.981   4.281   0.919
 4049W        W76474  35.441   3.891  12.023
 4050W        W76475  22.097  40.254   3.681
 4051W        W76476  32.606  16.679   1.763
 4052W        W76477  16.366   6.370  13.456
 4053W        W76478  12.583  44.906   0.947
 4054W        W76479  17.669  24.925  12.522
 4055W        W76480  42.715  41.210  13.465
 4056W        W76481  44.806  44.126   0.770
 4057W        W76482   9.402  42.305   3.715
 4058W        W76483  22.971  43.815  12.880
 4059W        W76484  18.613  19.500  12.072
 4060W        W76485   1.426  39.270  11.595
 4061W        W76486  18.366  30.965   1.710
 4062W        W76487  23.621  18.402  10.644
 4063W        W76488  37.659  30.504   4.664
 4064W        W76489   1.928  25.110  12.583
 4065W        W76490   7.456   3.261   4.251
 4066W        W76491  23.490  21.379   4.017
 4067W        W76492   1.424  14.322   3.750
 4068W        W76493   8.452   3.541   4.128
 4069W        W76494  42.518  25.564  11.360
 4070W        W76495  27.276  34.765  12.624
 4071W        W76496  15.359  23.982  13.530
 4072W        W76497  13.048  13.837  14.833
 4073W        W76498  28.379   3.422   3.730
 4074W        W76499   6.261   0.020  12.124
 4075W        W76500  10.727   8.601  11.111
 4076W        W76501   3.322  15.275   1.937
 4077W        W76502  16.351  24.096   0.407
 4078W        W76503  26.713  21.738   4.629
 4079W        W76504   3.530   7.415   2.219
 4080W        W76505   6.618   1.390   0.835
 4081W        W76506   4.625   0.627  13.504
 4082W        W76507  25.314  34.392  13.707
 4083W        W76508  10.133  28.945   3.226
 4084W        W76509  11.729  10.657   2.790
 4085W        W76510  38.855  23.335   1.841
 4086W        W76511   0.416  14.240   0.653
 4087W        W76512   1.891  34.317   3.543
 4088W        W76513  14.168  38.546   2.185
 4089W        W76514  27.379  23.273   4.074
 4090W        W76515  41.145  15.794  10.384
 4091W        W76516   3.739  31.176  12.849
 4092W        W76517  32.784  13.623  11.929
 4093W        W76518   6.609   4.245   2.401
 4094W        W76519   3.934  16.518  13.963
 4095W        W76520  25.122  26.668   5.091
 4096W        W76521  35.914   8.371  11.951
 4097W        W76522  16.199   2.765  14.279
 4098W        W76523  38.356  16.170   4.074
 4099W        W76524  34.225  28.769   0.592
 4100W        W76525  36.436  30.140  13.118
 4101W        W76526  25.532   0.464  13.031
 4102W        W76527  34.319  27.280  13.934
 4103W        W76528   5.150  37.788  14.212
 4104W        W76529  28.140  25.885   4.107
 4105W        W76530   2.747  37.526   2.693
 4106W        W76531   9.185  26.514  11.728
 4107W        W76532  36.925  16.233  12.183
 4108W        W76533   3.048  23.444  11.605
 4109W        W76534  33.468  30.191   4.195
 4110W        W76535  17.188  28.938  13.581
 4111W        W76536  37.801   6.827  12.793
 4112W        W76537  16.068  31.440  12.242
 4113W        W76538  19.599  41.350   3.699
 4114W        W76539  13.535  36.819  13.446
 4115W        W76540  23.947   5.821  13.455
 4116W        W76541  19.068  29.099   0.762
 4117W        W76542   4.198   9.815  13.989
 4118W        W76543   3.258  14.800   3.660
 4119W        W76544  29.917   9.190   0.930
 4120W        W76545  28.129   8.215  13.332
 4121W        W76546  39.362  16.472  14.330
 4122W        W76547  28.131   0.225   2.844
 4123W        W76548  22.046   7.715  12.995
 4124W        W76549  30.774  22.960  14.968
 4125W        W76550  24.110   7.866   4.462
 4126W        W76551  25.730  22.201  13.799
 4127W        W76552  43.225  36.069   2.298
 4128W        W76553  26.384  41.714  12.447
 4129W        W76554  41.166  40.972   3.692
 4130W        W76555   3.825   1.289  14.172
 4131W        W76556  12.642   1.049  11.220
 4132W        W76557   0.803   2.798  14.056
 4133W        W76558   8.961  36.171  14.672
 4134W        W76559  25.742  23.038  10.554
 4135W        W76560   1.729  26.093  11.504
 4136W        W76561  44.261  28.905  10.385
 4137W        W76562  37.975  27.476  12.352
 4138W        W76563   2.226  24.206   2.303
 4139W        W76564  31.798  23.204  10.208
 4140W        W76565  15.728  32.689  14.816
 4141W        W76566   6.002   2.979   3.145
 4142W        W76567  13.191  27.017   2.257
 4143W        W76568  39.042  18.766   2.747
 4144W        W76569  17.133  21.161  13.516
 4145W        W76570  11.279  11.653   2.439
 4146W        W76571   2.101  28.618  11.178
 4147W        W76572  21.508  16.065  13.298
 4148W        W76573  44.418  10.957   2.360
 4149W        W76574  20.787  16.697  11.415
 4150W        W76575  13.495  34.645  10.822
 4151W        W76576  24.280   9.641  11.644
 4152W        W76577  26.766   5.472  10.997
 4153W        W76578  20.085  29.504  11.592
 4154W        W76579  18.827  17.235  11.007
 4155W        W76580  26.220   4.006  13.923
 4156W        W76581  32.611  27.028   4.103
 4157W        W76582  23.527  26.153  12.358
 4158W        W76583  22.272  14.301   0.841
 4159W        W76584  18.283  37.592  11.107
 4160W        W76585  13.073   0.945   5.153
 4161W        W76586   4.395  25.668  12.299
 4162W        W76587   8.699  26.612  11.540
 4163W        W76588  41.719  15.137   2.766
 4164W        W76589  26.253  35.934  10.374
 4165W        W76590  18.481  13.651   4.893
 4166W        W76591  36.145  38.919   0.995
 4167W        W76592  13.841  36.339  14.832
 4168W        W76593  34.879  44.989  10.594
 4169W        W76594  16.845  22.315   1.236
 4170W        W76595  32.453  32.960   0.874
 4171W        W76596  41.530   4.818  12.135
 4172W        W76597   0.755  44.506  12.906
 4173W        W76598  16.506  27.760  13.552
 4174W        W76599  28.059  30.050   1.490
 4175W        W76600  42.065  37.012   0.922
 4176W        W76601  32.387  34.309  14.009
 4177W        W76602  42.921  44.070  13.954
 4178W        W76603  36.961  28.469  11.725
 4179W        W76604   0.905  23.454  13.451
 4180W        W76605  18.656  41.026  13.554
 4181W        W76606   1.743  30.193  11.547
 4182W        W76607  38.533  44.283   4.562
 4183W        W76608  38.718  11.753   4.610
 4184W        W76609   8.812  40.387  12.685
 4185W        W76610   7.643  29.175   2.897
 4186W        W76611  33.904  41.320   0.772
 4187W        W76612   4.436  16.523   0.364
 4188W        W76613   2.368  36.906  13.409
 4189W        W76614  18.766  43.011  11.704
 4190W        W76615  24.451  17.686  14.235
 4191W        W76616   9.870  17.240   4.345
 4192W        W76617  34.912   6.406   3.591
 4193W        W76618  43.759  20.970  12.971
 4194W        W76619  10.002  29.524   0.355
 4195W        W76620  37.088   3.221  13.167
 4196W        W76621  38.315  17.601   3.324
 4197W        W76622  20.771  24.095  12.061
 4198W        W76623   6.995  10.236   4.657
 4199W        W76624   9.316   0.948  13.777
 4200W        W76625   2.917   1.299  12.046
 4201W        W76626  42.841   6.425   2.807
 4202W        W76627  15.800   6.277  12.052
 4203W        W76628  12.723  32.432   4.325
 4204W        W76629  14.349  18.125  13.017
 4205W        W76630   6.309  20.185  14.423
 4206W        W76631  23.503  11.440   4.777
 4207W        W76632  39.852  42.573  11.678
 4208W        W76633  37.869  11.119  12.762
 4209W        W76634  19.560  37.407  14.933
 4210W        W76635  18.653  30.528   3.257
 4211W        W76636  25.729  36.415  13.840
 4212W        W76637  15.482  33.262   3.284
 4213W        W76638  27.217   2.472   4.193
 4214W        W76639  15.252  42.128  11.613
 4215W        W76640  34.525  37.067  10.740
 4216W        W76641  13.847  35.432   3.808
 4217W        W76642   7.774  14.606   0.263
 4218W        W76643  16.195  18.012  13.022
 4219W        W76644  12.648  11.149   4.107
 4220W        W76645   2.386  40.445  13.330
 4221W        W76646  27.751  32.449   0.311
 4222W        W76647  34.449  18.269   2.791
 4223W        W76648  25.036  24.243   1.295
 4224W        W76649  39.442  11.591  13.493
 4225W        W76650  23.660  32.710  11.061
 4226W        W76651   6.642  13.770   4.125
 4227W        W76652  23.548  31.107   0.738
 4228W        W76653  21.517  10.665  11.653
 4229W        W76654   2.653  39.437  12.796
 4230W        W76655  33.065  41.344   3.892
 4231W        W76656  15.150  16.429  13.922
 4232W        W76657  41.423   7.339   4.187
 4233W        W76658  26.993  14.809  13.868
 4234W        W76659  37.049  19.166   1.855
 4235W        W76660   3.696   6.395  14.887
 4236W        W76661  11.383   3.974  10.641
 4237W        W76662  11.140   9.734   1.933
 4238W        W76663  25.060  30.098  13.803
 4239W        W76664  38.377  29.197   1.315
 4240W        W76665  36.012  31.009  14.881
 4241W        W76666  22.500  18.199  11.417
 4242W        W76667  42.300  13.103  12.977
 4243W        W76668  20.092  19.241  11.877
 4244W        W76669  40.036  22.616   3.147
 4245W        W76670  28.698  35.973  14.435
 4246W        W76671  13.379  24.497   3.201
 4247W        W76672  19.314   6.698  12.219
 4248W        W76673  18.324   9.920  11.343
 4249W        W76674  11.700  24.318   2.433
 4250W        W76675  43.076  20.296   4.751
 4251W        W76676  11.533  40.305   2.657
 4252W        W76677  13.160  27.863  10.871
 4253W        W76678  32.908  26.866   3.687
 4254W        W76679   9.142  27.809  11.645
 4255W        W76680   1.827  13.065   3.674
 4256W        W76681  26.560  36.075  11.168
 4257W        W76682  22.130  12.306   3.834
 4258W        W76683  11.817  44.569   2.728
 4259W        W76684  37.487  23.182  11.287
 4260W        W76685  16.865  44.357  12.986
 4261W        W76686  32.298  18.670   3.845
 4262W        W76687  13.647  28.843   3.090
 4263W        W76688  27.636  24.554   4.099
 4264W        W76689  25.141  13.376  12.408
 4265W        W76690   0.277  37.947   0.709
 4266W        W76691   2.790  23.015  12.095
 4267W        W76692  31.258  40.580   5.065
 4268W        W76693  31.656  14.433  12.906
 4269W        W76694  23.852  38.707  13.371
 4270W        W76695  29.346  35.441   4.217
 4271W        W76696  14.670  33.064  13.334
 4272W        W76697  28.831  11.492  13.886
 4273W        W76698  31.584  14.126  11.161
 4274W        W76699  44.679  41.166  12.877
 4275W        W76700  35.990  41.260  14.447
 4276W        W76701  18.469  19.080   2.825
 4277W        W76702  44.286  27.136  13.020
 4278W        W76703   9.452  27.557   3.573
 4279W        W76704  27.672  21.677   1.608
 4280W        W76705  26.732  33.116   3.538
 4281W        W76706  28.909  20.167  13.259
 4282W        W76707  12.232  11.120   0.660
 4283W        W76708   7.870  30.424   1.319
 4284W        W76709  44.324  26.282   4.584
 4285W        W76710  28.320  19.715  13.501
 4286W        W76711  17.123  36.668  14.450
 4287W        W76712  10.232   5.443  13.872
 4288W        W76713   6.761   4.491  14.767
 4289W        W76714  30.192   3.299   3.668
 4290W        W76715  28.518  23.609  13.982
 4291W        W76716  12.754  44.483   1.802
 4292W        W76717  40.562  23.463   3.278
 4293W        W76718  13.706  17.912  11.439
 4294W        W76719  14.860  15.569   2.242
 4295W        W76720  15.332  28.543   2.166
 4296W        W76721  43.050  29.117  12.046
 4297W        W76722  13.572  39.298  10.665
 4298W        W76723  18.669  16.828   1.474
 4299W        W76724  22.617  28.531   2.162
 4300W        W76725  21.981  43.543   3.319
 4301W        W76726  14.232  24.512  14.794
 4302W        W76727  12.950  19.161  13.508
 4303W        W76728   0.543  25.110   0.884
 4304W        W76729  41.801   8.964  11.760
 4305W        W76730  14.147  18.888  11.174
 4306W        W76731  12.815  22.141  10.963
 4307W        W76732  10.153  44.901  11.542
 4308W        W76733   1.858  35.960   3.220
 4309W        W76734  18.458  11.201  12.042
 4310W        W76735   9.972  38.122  12.567
 4311W        W76736  30.968  21.068  12.542
 4312W        W76737   0.796  44.029  12.721
 4313W        W76738  27.204  32.988  12.717
 4314W        W76739  28.745  21.036   3.124
 4315W        W76740   2.296  32.010  13.410
 4316W        W76741  37.567   9.329   3.337
 4317W        W76742  19.494  29.242  13.044
 4318W        W76743  17.693  29.044  11.395
 4319W        W76744  10.139  41.930  12.861
 4320W        W76745  18.530  36.889  14.044
 4321W        W76746  32.171  30.519  11.576
 4322W        W76747   0.731  15.711   1.347
 4323W        W76748  10.082  36.944  11.644
 4324W        W76749  16.735  17.766   3.077
 4325W        W76750  14.265   5.712   2.867
 4326W        W76751  10.362  34.036   4.242
 4327W        W76752   6.425   0.777  10.660
 4328W        W76753   6.917  18.578  14.021
 4329W        W76754  43.789  43.882   4.637
 4330W        W76755   6.821  36.470  14.496
 4331W        W76756  27.862  31.682   1.295
 4332W        W76757  43.529  24.201  13.409
 4333W        W76758  10.417  32.060  10.687
 4334W        W76759  26.748  43.612   2.085
 4335W        W76760  21.187  32.916  10.818
 4336W        W76761  40.431  38.126   4.614
 4337W        W76762   6.721  13.354  12.876
 4338W        W76763  20.237  30.580   5.149
 4339W        W76764  39.590   5.737  14.028
 4340W        W76765  43.399  44.084  12.876
 4341W        W76766  24.709  19.724   4.044
 4342W        W76767  42.860  41.325   3.266
 4343W        W76768  36.337   5.864   1.905
 4344W        W76769  35.804   5.967  10.506
 4345W        W76770  34.438  18.555  12.498
 4346W        W76771   6.114  27.094   1.406
 4347W        W76772  19.815   6.916  12.089
 4348W        W76773  26.161  35.888  12.103
 4349W        W76774  28.893  28.994  13.824
 4350W        W76775  36.969   9.804   2.213
 4351W        W76776  17.749   3.991   1.141
 4352W        W76777  19.778   9.211  11.081
 4353W        W76778  24.241   1.337  11.478
 4354W        W76779   0.753  42.536  12.110
 4355W        W76780   6.682  42.942   4.758
 4356W        W76781  31.128  36.302  10.593
 4357W        W76782  20.723  13.278  11.915
 4358W        W76783  18.045  34.379   3.089
 4359W        W76784  33.984  18.652   1.592
 4360W        W76785  30.423  31.700   0.427
 4361W        W76786  19.576  35.402   3.184
 4362W        W76787  34.798  42.949  13.059
 4363W        W76788   0.915  10.377  13.096
 4364W        W76789  36.990  23.595   2.082
 4365W        W76790  30.069  18.698  14.444
 4366W        W76791  20.635  27.632   3.175
 4367W        W76792  24.203  31.405   2.190
 4368W        W76793   8.690  21.982  13.899
 4369W        W76794  27.753  16.350  14.418
 4370W        W76795   3.200  31.071  10.687
 4371W        W76796  41.366   0.589   2.411
 4372W        W76797  34.153   8.850   4.649
 4373W        W76798   2.908  27.710  12.829
 4374W        W76799  32.427   5.289  14.937
 4375W        W76800  36.980  26.529   4.166
 4376W        W76801  31.047  30.867   2.526
 4377W        W76802   0.857  18.704  14.849
 4378W        W76803  16.903   7.902  14.823
 4379W        W76804  15.800   4.729   3.370
 4380W        W76805  42.827  31.924  12.445
 4381W        W76806  15.595  38.030   4.503
 4382W        W76807   2.376  39.277   0.408
 4383W        W76808   3.272  44.479   3.601
 4384W        W76809  15.184  17.240  11.478
 4385W        W76810   5.435  20.648   1.385
 4386W        W76811   1.682  20.793   1.806
 4387W        W76812  34.464  42.333   3.421
 4388W        W76813  24.643   5.402   1.886
 4389W        W76814  18.715   2.318  10.619
 4390W        W76815   4.405  42.837   1.163
 4391W        W76816  17.246  27.011  11.162
 4392W        W76817  29.643  21.082   3.278
 4393W        W76818  14.896  44.177  13.954
 4394W        W76819  41.011  31.508  12.434
 4395W        W76820   9.588   8.983  13.823
 4396W        W76821  33.201  18.070  11.400
 4397W        W76822  12.668   7.231   0.294
 4398W        W76823  13.151  23.209  13.543
 4399W        W76824  37.995  12.732   1.461
 4400W        W76825  43.774   8.389   2.764
 4401W        W76826  17.530   8.452   0.710
 4402W        W76827   0.749   7.186  13.431
 4403W        W76828  18.650  36.345   1.798
 4404W        W76829  40.324  36.015   0.875
 4405W        W76830  26.132   4.964   0.027
 4406W        W76831   0.895   9.316  10.459
 4407W        W76832   8.716   9.122   3.624
 4408W        W76833  42.205  22.988   2.882
 4409W        W76834  37.114  10.689   2.458
 4410W        W76835  43.451   8.000   0.354
 4411W        W76836   6.170   3.331  10.324
 4412W        W76837  24.242  34.729   4.630
 4413W        W76838  15.329  25.467  11.145
 4414W        W76839  38.187  25.177   3.185
 4415W        W76840   2.318  43.453  13.136
 4416W        W76841  27.216  36.425  11.283
 4417W        W76842   8.672  27.421  11.034
 4418W        W76843  30.562  34.023   0.583
 4419W        W76844  43.060   1.660   1.331
 4420W        W76845  44.277  39.083   4.542
 4421W        W76846  30.117  27.656  11.597
 4422W        W76847  18.737   8.286  12.346
 4423W        W76848  33.940   4.795  14.937
 4424W        W76849  31.535  18.810   0.375
 4425W        W76850   4.101   2.240   1.845
 4426W        W76851  13.217  28.411   4.302
 4427W        W76852  29.696  37.605   1.641
 4428W        W76853   1.644  41.158   3.255
 4429W        W76854  17.743  20.323  12.410
 4430W        W76855  24.184  21.297   0.839
 4431W        W76856   4.623  31.442   0.452
 4432W        W76857  36.066  43.461  11.932
 4433W        W76858  31.578  10.871   3.769
 4434W        W76859  18.241  36.927   4.682
 4435W        W76860  19.544  43.557   3.202
 4436W        W76861  39.421  26.409  13.041
 4437W        W76862  15.698   0.909  14.887
 4438W        W76863  24.898  30.800  10.636
 4439W        W76864  37.834   3.670  12.071
 4440W        W76865  32.371  20.385   2.666
 4441W        W76866   0.450  34.356  12.113
 4442W        W76867  41.852  29.024  10.659
 4443W        W76868  12.805  14.132  10.593
 4444W        W76869  26.133  30.478  13.923
 4445W        W76870  25.896   3.739  12.009
 4446W        W76871  31.918  30.399  14.528
 4447W        W76872   4.166  13.667   0.351
 4448W        W76873  33.045  21.295   3.644
 4449W        W76874  14.280  30.567  14.458
 4450W        W76875  33.032  31.508   4.300
 4451W        W76876  13.844  10.187  11.502
 4452W        W76877  37.117  13.626   4.611
 4453W        W76878   0.285  36.043   3.298
 4454W        W76879   6.417  26.485   0.280
 4455W        W76880   1.907   4.262  13.795
 4456W        W76881  17.674   5.431  12.464
 4457W        W76882  43.830  36.748   1.877
 4458W        W76883  24.684  25.678  12.097
 4459W        W76884  41.315   0.943   1.559
 4460W        W76885  39.336   8.933   4.873
 4461W        W76886  36.092   8.156  13.614
 4462W        W76887  28.116  41.749  14.535
 4463W        W76888   6.313  13.088  14.303
 4464W        W76889  23.893  32.185  13.059
 4465W        W76890   3.942  32.892   3.213
 4466W        W76891  37.826   6.314  11.073
 4467W        W76892  29.999   5.486  13.067
 4468W        W76893  40.290  17.108   4.166
 4469W        W76894   3.274  42.952  11.471
 4470W        W76895   2.560  17.437  14.637
 4471W        W76896   9.705  18.392  12.103
 4472W        W76897  35.997  10.325   4.087
 4473W        W76898  25.278  42.424   0.823
 4474W        W76899  21.546  27.521   2.908
 4475W        W76900   9.043  16.878   0.810
 4476W        W76901  39.779  44.052  11.904
 4477W        W76902  16.508   6.489   4.223
 4478W        W76903  17.589   4.676  14.757
 4479W        W76904  30.638  38.797  13.853
 4480W        W76905  26.428  37.295  10.279
 4481W        W76906  25.952  28.920   4.236
 4482W        W76907  28.268  31.929  11.951
 4483W        W76908  12.274  37.049   0.264
 4484W        W76909   9.351  41.580  10.734
 4485W        W76910  18.184  42.874   4.069
 4486W        W76911  10.465  31.664   1.294
 4487W        W76912   1.287  26.145  11.158
 4488W        W76913   9.184  31.835   4.413
 4489W        W76914  27.706  23.744   1.154
 4490W        W76915   4.150  24.388   4.192
 4491W        W76916  32.837  29.455  10.685
 4492W        W76917  11.936  22.088   3.619
 4493W        W76918  40.574  40.277   0.844
 4494W        W76919   6.715  15.778  10.312
 4495W        W76920  34.855  40.269   2.800
 4496W        W76921  33.601  26.067   0.908
 4497W        W76922  23.587   5.750   4.743
 4498W        W76923   5.473  15.240  13.994
 4499W        W76924  28.107  42.986   0.293
 4500W        W76925   4.453  32.440   0.485
 4501W        W76926  26.630  40.105  11.393
 4502W        W76927  38.781  42.340   1.809
 4503W        W76928  37.574  38.424   4.684
 4504W        W76929  43.317   3.497  12.537
 4505W        W76930   4.660  11.716   1.779
 4506W        W76931  15.710  30.368   1.044
 4507W        W76932  12.114  20.835   1.225
 4508W        W76933   0.377  31.503  14.265
 4509W        W76934  27.907  44.878  12.356
 4510W        W76935   4.336  38.976   3.101
 4511W        W76936  30.958  12.396  13.989
 4512W        W76937  41.078  35.099  11.923
 4513W        W76938  26.456  12.637  11.445
 4514W        W76939  22.998  19.332  13.258
 4515W        W76940  41.066  39.490   3.463
 4516W        W76941  16.087   8.158   2.284
 4517W        W76942   5.490  16.043  12.905
 4518W        W76943  35.409  41.043  10.574
 4519W        W76944  43.819  16.227   3.770
 4520W        W76945  44.627   0.479  11.529
 4521W        W76946  24.204  10.001   4.190
 4522W        W76947   2.718   8.762   3.714
 4523W        W76948  18.878  30.155   4.129
 4524W        W76949  16.758  33.608  11.136
 4525W        W76950  44.470  26.186  10.892
 4526W        W76951  32.998   0.958   4.903
 4527W        W76952   4.963  30.122  11.602
 4528W        W76953  36.017  25.695  12.057
 4529W        W76954   0.123   3.747   0.808
 4530W        W76955   2.681  30.895   3.272
 4531W        W76956  11.625   0.470  14.891
 4532W        W76957   7.184  24.943  13.879
 4533W        W76958  44.859  37.883  10.706
 4534W        W76959  27.183  43.363  12.985
 4535W        W76960  31.318   1.359  14.941
 4536W        W76961  29.969   8.845  10.614
 4537W        W76962  26.508  37.024   2.373
 4538W        W76963  44.916   6.970  14.955
 4539W        W76964   2.213  38.003  11.087
 4540W        W76965  38.874  20.159   1.874
 4541W        W76966  22.588  43.726   2.213
 4542W        W76967  15.259  15.234  10.749
 4543W        W76968  21.144  28.138   2.555
 4544W        W76969   6.868  44.490  11.028
 4545W        W76970   8.749  24.415  13.453
 4546W        W76971   1.530  26.988   0.430
 4547W        W76972  33.055  25.707  12.291
 4548W        W76973  23.899  30.545   9.719
 4549W        W76974  14.550   6.654  12.945
 4550W        W76975  33.722  34.575   3.729
 4551W        W76976  19.144  26.266   4.312
 4552W        W76977  13.259   6.950   2.136
 4553W        W76978   7.312  22.586   0.365
 4554W        W76979  32.466  13.617   4.322
 4555W        W76980  13.391  34.244  12.385
 4556W        W76981  27.145  28.031   1.555
 4557W        W76982  12.237  20.236  12.489
 4558W        W76983   2.807  37.085   2.396
 4559W        W76984  28.587  26.488   4.814
 4560W        W76985   5.408  10.660   3.123
 4561W        W76986  23.154  37.594   1.822
 4562W        W76987  20.105  20.770  11.612
 4563W        W76988  24.006   7.959  13.484
 4564W        W76989  11.813  39.436  13.108
 4565W        W76990  39.021  13.238  14.742
 4566W        W76991   9.157  29.531   2.617
 4567W        W76992  38.011  24.148   0.030
 4568W        W76993  14.293   4.146  14.258
 4569W        W76994  35.790  40.380   3.638
 4570W        W76995  23.319   6.748   3.265
 4571W        W76996   5.355  37.525  14.627
 4572W        W76997  16.842   2.484   0.364
 4573W        W76998  13.769  12.090  14.801
 4574W        W76999  22.451  17.774   3.773
 4575W        W77000   1.880  11.638   0.864
 4576W        W77001  13.783  10.190  13.560
 4577W        W77002  32.843   3.948  14.389
 4578W        W77003   9.923  10.762   2.864
 4579W        W77004  43.597   1.860  12.473
 4580W        W77005  34.190  31.995  14.018
 4581W        W77006  18.197  22.834  13.862
 4582W        W77007  43.721  38.438   1.150
 4583W        W77008  19.145  10.700  13.812
 4584W        W77009  44.700  18.761   4.457
 4585W        W77010   2.137   7.458  11.103
 4586W        W77011  36.072   2.242  14.856
 4587W        W77012  34.853  31.915  12.347
 4588W        W77013  25.198   2.008   1.790
 4589W        W77014  16.742  38.269   2.270
 4590W        W77015   0.200   1.252  14.442
 4591W        W77016   9.887   6.234   0.906
 4592W        W77017  25.484  13.280  13.607
 4593W        W77018  32.444  27.025   0.905
 4594W        W77019  28.870   0.967  11.848
 4595W        W77020  29.986  34.165  14.308
 4596W        W77021  15.105   7.940   1.833
 4597W        W77022   0.923  32.362  11.463
 4598W        W77023  38.590  33.956  14.093
 4599W        W77024  27.432  24.122   3.681
 4600W        W77025  44.486   3.270   2.720
 4601W        W77026  11.973  28.141   4.940
 4602W        W77027  17.215  36.608   4.034
 4603W        W77028   4.125  41.243   2.711
 4604W        W77029  42.608   4.133  11.216
 4605W        W77030  16.544  42.828   0.855
 4606W        W77031  10.610  30.017  14.777
 4607W        W77032  33.030  42.497   1.250
 4608W        W77033   0.954  43.225  13.247
 4609W        W77034  18.568  34.477  10.857
 4610W        W77035  23.040  28.410   3.368
 4611W        W77036  39.061  30.552  14.808
 4612W        W77037  18.577  11.777   1.261
 4613W        W77038   8.572   3.287  14.215
 4614W        W77039   7.594   7.194  11.141
 4615W        W77040   3.895   5.247  14.027
 4616W        W77041  19.037  13.587   2.091
 4617W        W77042  36.430  30.360  11.597
 4618W        W77043  34.097  34.948  13.509
 4619W        W77044   3.762  20.701   2.441
 4620W        W77045  28.718  16.913   2.789
 4621W        W77046   6.404  30.234   2.168
 4622W        W77047  35.205  41.108   0.732
 4623W        W77048  24.902  14.130  12.963
 4624W        W77049  44.826  14.678  13.101
 4625W        W77050  37.913  27.612  13.398
 4626W        W77051   2.451  11.679  14.689
 4627W        W77052  27.879  39.847   1.184
 4628W        W77053  17.870  27.888  14.398
 4629W        W77054  19.128   6.755   1.165
 4630W        W77055  12.889  25.995   1.286
 4631W        W77056  26.424  34.088  12.060
 4632W        W77057  16.738  34.913  10.867
 4633W        W77058  21.449   2.818  14.521
 4634W        W77059  30.103  28.578   4.661
 4635W        W77060   8.831  19.330   2.406
 4636W        W77061   4.753  40.570   4.772
 4637W        W77062  23.906   8.271   4.695
 4638W        W77063  30.019  13.816   3.294
 4639W        W77064  22.038  11.276   5.045
 4640W        W77065  13.892   1.566  11.528
 4641W        W77066  44.837  28.124   0.455
 4642W        W77067   0.798  12.671   2.659
 4643W        W77068  21.266  19.951   5.142
 4644W        W77069  40.311   3.211  13.870
 4645W        W77070  26.461  17.076   3.363
 4646W        W77071  40.877   2.816  13.292
 4647W        W77072  30.642  21.617   4.158
 4648W        W77073  26.639  40.602  11.534
 4649W        W77074   0.852  13.047   4.551
 4650W        W77075  24.463  39.553   0.924
 4651W        W77076  15.836  34.464   2.580
 4652W        W77077  21.523  16.711   3.301
 4653W        W77078   2.482  42.857   0.451
 4654W        W77079  39.987  18.672  12.634
 4655W        W77080  12.791   5.201  10.492
 4656W        W77081  40.457   4.974   4.677
 4657W        W77082  38.523  31.935   2.910
 4658W        W77083  34.979  39.175  13.467
 4659W        W77084  35.212   2.820   4.568
 4660W        W77085  31.629  29.271   1.319
 4661W        W77086   3.907  33.746  10.577
 4662W        W77087  37.394   6.635   1.978
 4663W        W77088  39.520  33.057   2.498
 4664W        W77089  17.273   5.923   3.237
 4665W        W77090  23.027   6.136   1.275
 4666W        W77091  17.105  26.697   3.820
 4667W        W77092  31.648  12.906   0.454
 4668W        W77093  42.001  42.942   2.238
 4669W        W77094   1.206   7.859  11.524
 4670W        W77095  35.268  43.441   0.230
 4671W        W77096  29.935  38.615   3.183
 4672W        W77097   4.979  31.308  12.746
 4673W        W77098  35.911   7.171  13.975
 4674W        W77099   1.644  37.576   1.226
 4675W        W77100   7.190  12.195   3.158
 4676W        W77101  13.496  24.716   4.653
 4677W        W77102  10.281  31.108  13.965
 4678W        W77103  16.842  39.762   4.669
 4679W        W77104   8.228  19.764  12.083
 4680W        W77105  34.586  16.583  11.569
 4681W        W77106  14.369   7.646   0.176
 4682W        W77107  10.754  12.243   3.787
 4683W        W77108  17.787  11.221   3.633
 4684W        W77109  20.290  32.492   1.903
 4685W        W77110  13.393  10.937   3.563
 4686W        W77111   9.910   3.161  13.907
 4687W        W77112  39.125  39.807   3.195
 4688W        W77113  12.891  25.800  11.669
 4689W        W77114  14.306  19.795   2.748
 4690W        W77115   3.206  15.284   0.960
 4691W        W77116   6.219  33.750  10.609
 4692W        W77117   2.668  12.307  10.655
 4693W        W77118   1.778  39.830  14.367
 4694W        W77119  18.648  40.058   2.584
 4695W        W77120  25.690  43.567  11.533
 4696W        W77121  24.893  32.403   2.162
 4697W        W77122  37.217   3.791   3.347
 4698W        W77123  11.521  43.479  13.979
 4699W        W77124  35.486  21.330  14.511
 4700W        W77125  26.264  40.810  13.401
 4701W        W77126  15.976  34.454  13.440
 4702W        W77127   5.418  18.641   0.422
 4703W        W77128  31.280  27.822   1.331
 4704W        W77129  18.291  17.221  11.854
 4705W        W77130  21.170  11.698   4.168
 4706W        W77131  40.873  44.818   4.138
 4707W        W77132  40.336   1.794   1.741
 4708W        W77133  43.325   2.436  13.584
 4709W        W77134  14.776  17.802   3.744
 4710W        W77135  40.579  39.766  11.378
 4711W        W77136  17.507  43.263  14.402
 4712W        W77137  28.350  12.022   0.561
 4713W        W77138  19.640  15.750  12.212
 4714W        W77139  19.676  17.119  14.529
 4715W        W77140  44.474  22.225   0.710
 4716W        W77141  29.415  14.724   3.271
 4717W        W77142  39.281  38.862  11.054
 4718W        W77143  43.038  35.910  11.567
 4719W        W77144  28.367   0.884  12.690
 4720W        W77145  25.674  39.238   1.641
 4721W        W77146   5.251  17.997   3.987
 4722W        W77147  41.280  42.552   4.519
 4723W        W77148  15.178  37.894   0.986
 4724W        W77149  40.298   4.411  12.175
 4725W        W77150  10.908  39.340  14.865
 4726W        W77151  39.939  35.936  14.020
 4727W        W77152  34.942  29.166  11.257
 4728W        W77153  22.361  18.048   5.192
 4729W        W77154  12.084  36.519   3.124
 4730W        W77155  39.525  35.563   1.730
 4731W        W77156   2.795  17.103   3.627
 4732W        W77157  35.892   0.732  14.996
 4733W        W77158   4.934   5.984  12.954
 4734W        W77159  41.792  21.992   3.043
 4735W        W77160  28.495  30.435   0.418
 4736W        W77161   9.260  30.092  12.957
 4737W        W77162  21.274  25.451  11.698
 4738W        W77163  37.162   9.106   4.157
 4739W        W77164   6.820  25.261   0.441
 4740W        W77165  25.008  20.996  13.980
 4741W        W77166  38.695  38.504  10.670
 4742W        W77167  34.994  28.766  10.295
 4743W        W77168   6.462   1.213  13.927
 4744W        W77169  32.855  20.976  13.932
 4745W        W77170  30.906   7.587  14.909
 4746W        W77171  13.118  13.286   1.820
 4747W        W77172  44.436  25.632  12.195
 4748W        W77173   6.235  22.566   4.938
 4749W        W77174  24.609   6.684  13.885
 4750W        W77175  39.288  19.778  13.365
 4751W        W77176  33.697  17.733   2.335
 4752W        W77177  22.535  41.560  13.619
 4753W        W77178  41.538  26.169   3.297
 4754W        W77179  14.053  33.069  12.034
 4755W        W77180   8.744   0.087   4.138
 4756W        W77181  26.714  19.673   1.015
 4757W        W77182  37.980   2.834   0.979
 4758W        W77183  33.148  23.248   4.795
 4759W        W77184  17.868  35.406  13.441
 4760W        W77185   8.399  24.024   0.296
 4761W        W77186  38.767   4.222   2.757
 4762W        W77187  40.021   9.620   2.287
 4763W        W77188  13.642  17.717   2.680
 4764W        W77189  20.919  20.588  14.706
 4765W        W77190  31.812  28.959   0.741
 4766W        W77191   0.736  33.719   1.226
 4767W        W77192  33.495  35.127  10.123
 4768W        W77193  25.562   6.750   4.648
 4769W        W77194  36.122  42.982  12.878
 4770W        W77195  35.571  38.420   3.187
 4771W        W77196  31.806  40.487  10.869
 4772W        W77197   7.186  41.386   1.215
 4773W        W77198   9.116  40.850   3.214
 4774W        W77199  13.251  14.833  12.970
 4775W        W77200  23.029  21.184   1.291
 4776W        W77201  14.967  34.619   5.019
 4777W        W77202   8.811  16.587   5.010
 4778W        W77203  13.381  42.267  14.388
 4779W        W77204  36.268  27.388   4.267
 4780W        W77205   2.785  32.627  14.875
 4781W        W77206   4.891   9.456  14.289
 4782W        W77207  33.989  25.019  13.892
 4783W        W77208  41.342   3.920  11.570
 4784W        W77209  15.281  11.069  14.311
 4785W        W77210  36.593  36.546   4.604
 4786W        W77211  11.330   3.351   3.344
 4787W        W77212  41.903  24.083   2.767
 4788W        W77213  27.041  44.462  14.861
 4789W        W77214  20.974  11.115  13.886
 4790W        W77215  25.036  44.343  10.874
 4791W        W77216   9.504  40.569  10.568
 4792W        W77217  19.356  35.471   0.864
 4793W        W77218  36.342   9.677  14.933
 4794W        W77219  29.516  43.163   1.447
 4795W        W77220  33.628  11.855  12.774
 4796W        W77221   9.963   9.402  13.323
 4797W        W77222  35.893   0.412  14.058
 4798W        W77223  38.930  35.836  11.271
 4799W        W77224  33.013  11.841  10.450
 4800W        W77225  36.006  44.310  14.508
 4801W        W77226  41.779   2.802  11.143
 4802W        W77227  24.014   9.613   1.378
 4803W        W77228  15.213  40.499   4.208
 4804W        W77229  19.704   6.714  12.577
 4805W        W77230   5.887  12.498  10.599
 4806W        W77231   4.233  25.840   3.325
 4807W        W77232  17.119  13.124   0.692
 4808W        W77233  14.725  19.190  12.430
 4809W        W77234  30.433  13.238   1.733
 4810W        W77235  23.032  36.580   0.642
 4811W        W77236  23.382  15.056  13.036
 4812W        W77237  42.266  34.559  13.978
 4813W        W77238  33.517  32.644   4.580
 4814W        W77239  31.003  37.613  10.304
 4815W        W77240   6.441   7.916   1.176
 4816W        W77241  37.431  33.140   2.594
 4817W        W77242  29.891  29.111   1.074
 4818W        W77243  19.331   4.733  14.418
 4819W        W77244  12.657  21.013   2.625
 4820W        W77245  28.039   3.254   0.837
 4821W        W77246  18.446  29.031   2.722
 4822W        W77247  18.950  33.425   1.865
 4823W        W77248  14.635  35.367  14.578
 4824W        W77249  26.477   5.466   0.405
 4825W        W77250  17.760  42.769  11.214
 4826W        W77251  32.165  19.673  12.041
 4827W        W77252  14.209  22.074  12.606
 4828W        W77253   8.898   4.831   0.261
 4829W        W77254  42.088  19.652  13.963
 4830W        W77255  35.647  16.072   1.901
 4831W        W77256  23.796   6.657  11.564
 4832W        W77257  44.823  44.575  14.038
 4833W        W77258  11.595  25.143  11.503
 4834W        W77259  37.287  11.880   0.757
 4835W        W77260  11.405  13.286   4.178
 4836W        W77261  14.733  25.712   1.577
 4837W        W77262  19.669   9.713   3.225
 4838W        W77263  30.220  32.401   4.710
 4839W        W77264   2.770  22.063  13.344
 4840W        W77265  21.597  26.057  10.900
 4841W        W77266  23.496  21.102   1.541
 4842W        W77267   0.088  10.336   2.702
 4843W        W77268  18.387  13.234  13.235
 4844W        W77269  43.936  26.798   2.762
 4845W        W77270  22.118  19.802  14.433
 4846W        W77271  16.078  15.288  10.471
 4847W        W77272  42.494   6.526  12.670
 4848W        W77273  23.186  13.108  12.957
 4849W        W77274  20.683  33.539   4.132
 4850W        W77275   0.572  43.366  12.463
 4851W        W77276  39.116   9.278   4.541
 4852W        W77277  29.177  39.543  10.709
 4853W        W77278  35.625  33.673  11.182
 4854W        W77279  16.684  39.601   3.172
 4855W        W77280   5.368   0.450  14.180
 4856W        W77281  33.647   5.651  13.493
 4857W        W77282   3.650  28.138   0.439
 4858W        W77283  18.888  29.876  13.912
 4859W        W77284  20.786  15.355   1.682
 4860W        W77285  39.553  23.999   4.602
 4861W        W77286  42.892   5.280   2.671
 4862W        W77287  28.873  16.977   4.541
 4863W        W77288   6.738  15.646  14.880
 4864W        W77289  25.883  13.263   3.697
 4865W        W77290  14.633  40.319  13.131
 4866W        W77291  40.487   6.980  12.148
 4867W        W77292   1.783  44.989  12.584
 4868W        W77293  29.789  21.511  14.982
 4869W        W77294   5.181  38.461   0.956
 4870W        W77295  28.632  11.880   0.076
 4871W        W77296  17.477   3.005   2.649
 4872W        W77297   4.483  13.911   3.726
 4873W        W77298   6.832   8.630  11.630
 4874W        W77299  32.511  32.615  14.279
 4875W        W77300  44.375   9.030  11.647
 4876W        W77301  29.606  20.080   2.909
 4877W        W77302   8.677  39.830  11.362
 4878W        W77303  43.002  33.889   0.792
 4879W        W77304  26.458  15.509  11.511
 4880W        W77305   0.016  13.952  11.547
 4881W        W77306   0.069  43.323  13.503
 4882W        W77307   3.977  37.869   0.817
 4883W        W77308  42.662  13.168   5.012
 4884W        W77309  22.512  10.738  11.381
 4885W        W77310   0.866  13.596   2.862
 4886W        W77311   9.713  15.393  13.013
 4887W        W77312  30.130  38.506   4.085
 4888W        W77313  12.266  13.322   3.072
 4889W        W77314  23.633  12.327  13.553
 4890W        W77315  36.031  18.621   0.415
 4891W        W77316  25.532  30.886   1.795
 4892W        W77317  21.795  29.531   2.599
 4893W        W77318  37.409  33.571   1.807
 4894W        W77319   3.140  12.205  11.545
 4895W        W77320  39.052   6.386   1.962
 4896W        W77321  32.971  13.110  11.189
 4897W        W77322  10.585  21.068  10.266
 4898W        W77323   4.296  27.934  11.055
 4899W        W77324   2.306   7.398  12.540
 4900W        W77325  29.595  27.463   0.917
 4901W        W77326   9.668  43.832  13.785
 4902W        W77327  34.425   8.316   5.101
 4903W        W77328  44.405   3.935   2.232
 4904W        W77329  42.896  23.021  14.731
 4905W        W77330  41.385   2.878  11.545
 4906W        W77331   3.746  30.251  12.799
 4907W        W77332  42.337  10.805   0.508
 4908W        W77333  16.120  12.964  13.353
 4909W        W77334  24.425  21.616  13.114
 4910W        W77335  36.001  38.772  13.671
 4911W        W77336  16.893   0.829   3.208
 4912W        W77337  22.330  24.141  12.953
 4913W        W77338   6.275  35.890   1.272
 4914W        W77339  26.007  25.528  10.757
 4915W        W77340  16.239  38.029  11.979
 4916W        W77341  28.707   7.186  13.959
 4917W        W77342  42.066  33.059   1.155
 4918W        W77343   9.273   9.140   0.706
 4919W        W77344  24.741   2.248   0.903
 4920W        W77345  34.008   5.842  12.452
 4921W        W77346  19.134   3.741   2.247
 4922W        W77347  11.343  35.422   0.843
 4923W        W77348  38.531  39.985  11.478
 4924W        W77349  36.248  39.231   1.446
 4925W        W77350   2.626  42.108   4.230
 4926W        W77351  25.455   3.275  12.812
 4927W        W77352  41.907  27.469   2.446
 4928W        W77353   6.637  20.916  13.788
 4929W        W77354  26.648  29.145   1.323
 4930W        W77355   5.168  23.107   0.443
 4931W        W77356  42.016  31.017  10.665
 4932W        W77357  44.010  25.622   1.684
 4933W        W77358  31.302  27.474  11.871
 4934W        W77359   0.726  41.415   5.034
 4935W        W77360   5.535  20.922   0.361
 4936W        W77361  32.756   1.150  14.584
 4937W        W77362  21.210  40.566   3.466
 4938W        W77363  15.115  20.741  13.068
 4939W        W77364  32.397   6.334  13.369
 4940W        W77365  18.771  15.683  14.791
 4941W        W77366  37.362   1.880  14.562
 4942W        W77367  25.668   7.381  13.427
 4943W        W77368  13.278  12.236   0.765
 4944W        W77369   4.449   6.901  13.065
 4945W        W77370  16.746  14.684  10.364
 4946W        W77371   0.269  33.208   9.941
 4947W        W77372  18.836   7.322  12.175
 4948W        W77373  38.578   0.022   1.784
 4949W        W77374   7.392  27.075  13.271
 4950W        W77375  20.255  16.542   0.274
 4951W        W77376  11.326  36.662   4.615
 4952W        W77377  29.228  32.525  12.829
 4953W        W77378  14.611   6.866  14.810
 4954W        W77379  24.516  36.595  11.642
 4955W        W77380  16.705  27.070   4.548
 4956W        W77381  31.937  29.231  12.305
 4957W        W77382  41.071   5.427  10.477
 4958W        W77383  20.260  36.708  10.780
 4959W        W77384  40.674  29.664  12.409
 4960W        W77385  30.551  17.041   0.386
 4961W        W77386  42.988  31.803  12.917
 4962W        W77387  35.637   1.960  14.452
 4963W        W77388  26.414   3.860  12.096
 4964W        W77389  37.926  25.579  12.427
 4965W        W77390  28.823  35.548   4.244
 4966W        W77391  35.461  15.820  14.500
 4967W        W77392  11.777  34.989  12.378
 4968W        W77393  38.248  27.028  10.737
 4969W        W77394  11.128  36.429   0.956
 4970W        W77395  17.279  41.932   2.125
 4971W        W77396  39.912  30.662  11.208
 4972W        W77397   4.817  22.800  14.645
 4973W        W77398  11.917  14.178   4.128
 4974W        W77399  14.683  35.753  12.428
 4975W        W77400  13.833  19.242  13.262
 4976W        W77401  40.344  12.160  13.954
 4977W        W77402  18.988  31.485  14.489
 4978W        W77403  37.569  29.929  14.225
 4979W        W77404  16.135  16.669  14.001
 4980W        W77405  15.330   3.148   4.172
 4981W        W77406   1.382  14.432   0.979
 4982W        W77407   7.917  26.636   2.431
 4983W        W77408  24.952  33.038   1.817
 4984W        W77409  24.545  16.011   1.513
 4985W        W77410   4.229   4.857  14.905
 4986W        W77411  37.156  43.904  13.884
 4987W        W77412  44.151  27.005  11.733
 4988W        W77413  37.883  15.682   1.355
 4989W        W77414  29.912   6.364   0.488
 4990W        W77415  12.724  14.277   4.555
 4991W        W77416  18.019  13.530  10.770
 4992W        W77417  10.156   5.223   3.636
 4993W        W77418  19.056  42.377   0.487
 4994W        W77419  13.387  17.314   2.966
 4995W        W77420   1.111  33.872   0.889
 4996W        W77421  22.751  18.850  13.932
 4997W        W77422   6.437  35.926   2.393
 4998W        W77423   9.555   7.221   5.126
 4999W        W77424  32.448  30.987  14.496
 5000W        W77425  12.993  24.701   4.727
 5001W        W77426  11.082  37.825   4.106
 5002W        W77427  39.875  36.048  13.499
 5003W        W77428  35.353  20.732   1.315
 5004W        W77429  13.582   5.329  11.490
 5005W        W77430  15.381  40.325   1.804
 5006W        W77431  43.370   4.770   1.487
 5007W        W77432   2.480  18.726   3.024
 5008W        W77433  44.539  39.200   0.752
 5009W        W77434  30.385  15.671  14.492
 5010W        W77435  28.988  40.562   3.472
 5011W        W77436  33.943  34.590  14.920
 5012W        W77437  33.519  32.539   1.411
 5013W        W77438   1.741  34.639  10.558
 5014W        W77439   4.773  37.265  12.527
 5015W        W77440   7.014  15.414   4.182
 5016W        W77441  19.232  28.672  10.985
 5017W        W77442  29.935  35.867  14.232
 5018W        W77443  17.593  11.593   0.294
 5019W        W77444  26.817  15.940   0.305
 5020W        W77445  31.477  10.120  12.566
 5021W        W77446  17.284  35.975  14.010
 5022W        W77447  42.664   2.580   3.726
 5023W        W77448   0.295  10.567  13.397
 5024W        W77449  29.637  37.387   1.166
 5025W        W77450  36.362  31.592   2.432
 5026W        W77451   9.359   0.390   4.721
 5027W        W77452   4.784  17.689   0.863
 5028W        W77453  35.165  40.328  12.866
 5029W        W77454  43.319  30.435  12.024
 5030W        W77455  42.759   3.237   2.059
 5031W        W77456   7.791  32.539  13.005
 5032W        W77457  13.389   5.058   2.387
 5033W        W77458  34.417  32.163   0.304
 5034W        W77459  24.377  40.993  11.649
 5035W        W77460  20.535  40.933  12.988
 5036W        W77461  44.020  12.121   1.733
 5037W        W77462   8.134   9.703  13.436
 5038W        W77463  17.994  44.310   3.212
 5039W        W77464  27.201  32.394  13.917
 5040W        W77465  18.881   3.843  13.338
 5041W        W77466  10.922  33.487  12.901
 5042W        W77467   8.590  43.231   4.228
 5043W        W77468  36.390  15.580   2.765
 5044W        W77469  44.826   7.340   1.288
 5045W        W77470  16.807  35.089   4.993
 5046W        W77471  26.551   7.316  12.952
 5047W        W77472  17.298  43.421  12.592
 5048W        W77473  24.786  36.881   1.711
 5049W        W77474  17.981  17.082  12.659
 5050W        W77475  33.996  24.124   3.393
 5051W        W77476  41.052  35.331   3.202
 5052W        W77477  41.347   3.310   1.917
 5053W        W77478  14.415  10.309   3.209
 5054W        W77479  17.535   1.123  14.704
 5055W        W77480  22.282  22.805   1.440
 5056W        W77481  29.513  37.369  13.017
 5057W        W77482  33.167  28.582  13.981
 5058W        W77483  41.891  26.869   3.786
 5059W        W77484   7.831  35.777  12.844
 5060W        W77485  17.540  21.755   1.449
 5061W        W77486  22.737   3.985   0.376
 5062W        W77487  33.089  25.537  12.778
 5063W        W77488   8.004  25.495   2.875
 5064W        W77489  11.668  22.922   4.695
 5065W        W77490  17.871   3.464  10.759
 5066W        W77491  40.966  15.329   0.291
 5067W        W77492   8.933  13.333   4.111
 5068W        W77493  35.055  41.931  14.623
 5069W        W77494  25.990  36.383   3.663
 5070W        W77495  16.306  16.221   4.271
 5071W        W77496  41.508  28.984  13.285
 5072W        W77497  28.994  36.784   3.260
 5073W        W77498  10.204  10.178   3.623
 5074W        W77499  38.327  29.477   4.210
 5075W        W77500  35.319  21.720  13.619
 5076W        W77501  37.468   3.866  14.012
 5077W        W77502   1.202   0.785   1.357
 5078W        W77503  11.907   1.553   2.951
 5079W        W77504  19.514  20.791   2.723
 5080W        W77505   5.200  14.802  12.387
 5081W        W77506  15.519  21.006  13.464
 5082W        W77507  31.993   1.860  11.185
 5083W        W77508  15.798  36.990   0.740
 5084W        W77509  38.517  37.776  11.026
 5085W        W77510  43.233  11.048  14.195
 5086W        W77511   8.581  39.683  13.092
 5087W        W77512  15.852   8.212   4.617
 5088W        W77513  36.095  19.518  12.450
 5089W        W77514  36.839  29.919  12.401
 5090W        W77515  30.935   6.221   3.999
 5091W        W77516  29.075  28.007   0.879
 5092W        W77517  14.572  26.116   0.282
 5093W        W77518  38.880  33.419  11.149
 5094W        W77519   1.940  22.385  14.722
 5095W        W77520  27.243  21.091  13.508
 5096W        W77521  17.435  22.199  10.165
 5097W        W77522  10.228  33.652   5.057
 5098W        W77523  10.185   8.226   4.635
 5099W        W77524  31.182  16.247   2.735
 5100W        W77525  21.178  16.759   3.673
 5101W        W77526  31.208   7.169  10.750
 5102W        W77527   6.159   6.896   1.357
 5103W        W77528  37.406   8.238   0.925
 5104W        W77529  21.695  26.480   0.738
 5105W        W77530  17.886   0.367   0.367
 5106W        W77531   1.311  25.200   2.934
 5107W        W77532  25.564  14.739   4.566
 5108W        W77533  20.125  28.498   0.509
 5109W        W77534  43.591   6.558   2.808
 5110W        W77535  44.398   5.651  12.115
 5111W        W77536   8.218  30.677  12.128
 5112W        W77537  15.311  17.108   1.698
 5113W        W77538  34.893   1.561  11.641
 5114W        W77539  42.311  24.783  11.047
 5115W        W77540  32.590  11.766  13.267
 5116W        W77541   7.324  30.070   2.700
 5117W        W77542  21.979  15.853  12.543
 5118W        W77543  37.975  13.612  12.514
 5119W        W77544  19.171   4.337   4.597
 5120W        W77545  30.422  23.960   3.131
 5121W        W77546  44.898   5.955   0.042
 5122W        W77547  38.647  23.465   0.924
 5123W        W77548  43.883  22.918   4.576
 5124W        W77549  30.051  36.446  12.413
 5125W        W77550  11.366   9.727   1.423
 5126W        W77551  15.553   9.724   0.797
 5127W        W77552  18.156  22.051   1.660
 5128W        W77553  36.022   1.894   4.240
 5129W        W77554  26.888  41.593  12.550
 5130W        W77555  35.001  37.573  14.289
 5131W        W77556   4.088  30.550   1.058
 5132W        W77557  40.030  35.547  12.875
 5133W        W77558  22.844  22.837   4.961
 5134W        W77559   5.873  32.668  11.123
 5135W        W77560  20.273  41.418  13.660
 5136W        W77561   0.526  11.306   2.857
 5137W        W77562  21.627  23.922   1.705
 5138W        W77563  28.525  18.905  11.588
 5139W        W77564  21.131  43.626   4.817
 5140W        W77565  17.153  35.101  10.095
 5141W        W77566  38.611  25.025  14.790
 5142W        W77567  31.219   5.596   1.837
 5143W        W77568   6.922   5.569   1.432
 5144W        W77569  30.049   3.549   4.289
 5145W        W77570   6.332  33.288  10.421
 5146W        W77571   5.568  43.814  11.033
 5147W        W77572  43.855  44.108   0.450
 5148W        W77573  34.474  15.751   2.719
 5149W        W77574  31.071   4.080  12.876
 5150W        W77575  26.754   5.206   3.899
 5151W        W77576  17.794  14.771   4.301
 5152W        W77577   6.263  40.186   2.421
 5153W        W77578  22.783  13.696  14.363
 5154W        W77579  35.719  13.414  13.365
 5155W        W77580  27.987   7.327   0.317
 5156W        W77581  35.367  17.117   1.967
 5157W        W77582  39.348   0.947   1.254
 5158W        W77583  11.586  22.684  13.943
 5159W        W77584   4.015   3.975   3.790
 5160W        W77585  12.983  27.499   2.101
 5161W        W77586  16.664  36.914  11.628
 5162W        W77587  18.275  22.738   2.222
 5163W        W77588  24.994  11.333  11.572
 5164W        W77589  30.642  22.629  12.043
 5165W        W77590  11.393  19.759   3.160
 5166W        W77591  20.579  17.573  14.203
 5167W        W77592  30.635   7.771   4.124
 5168W        W77593  15.245   6.972  14.924
 5169W        W77594   7.189  18.275  14.345
 5170W        W77595   3.810  10.958  14.589
 5171W        W77596  28.014  42.387  14.596
 5172W        W77597  37.464  35.194   2.711
 5173W        W77598  43.243  17.214  13.473
 5174W        W77599   4.800   3.402   1.533
 5175W        W77600  17.280  43.473   4.911
 5176W        W77601  34.812   9.761   2.368
 5177W        W77602  10.799  11.628  13.514
 5178W        W77603  39.004  34.400   0.776
 5179W        W77604  17.061  43.449   2.153
 5180W        W77605  24.559  16.100   0.574
 5181W        W77606   9.052  19.275  14.324
 5182W        W77607  12.838   8.993  14.307
 5183W        W77608  24.787   2.311   1.826
 5184W        W77609   0.947  10.712  11.603
 5185W        W77610  27.923  29.953   4.362
 5186W        W77611  26.039   2.530  12.986
 5187W        W77612  17.274  36.178   4.297
 5188W        W77613   9.056  17.724  13.050
 5189W        W77614  25.009  19.308   3.796
 5190W        W77615  33.407  29.361   1.453
 5191W        W77616  11.200  43.703  12.498
 5192W        W77617  14.501  15.190   3.335
 5193W        W77618  36.364  12.614   3.255
 5194W        W77619  40.860   5.126  12.932
 5195W        W77620   6.318  19.671   1.272
 5196W        W77621   4.384  19.531  10.679
 5197W        W77622  20.129   8.362   4.573
 5198W        W77623  19.229  42.790   2.749
 5199W        W77624  22.517   4.248   4.507
 5200W        W77625  35.361   0.728   0.851
 5201W        W77626   9.190  29.622   1.716
 5202W        W77627   6.924  36.888  12.608
 5203W        W77628   0.189  40.796   1.472
 5204W        W77629  25.747  37.789  11.134
 5205W        W77630   1.457  32.844  12.032
 5206W        W77631  27.597  29.996  13.558
 5207W        W77632  24.476   9.343   1.331
 5208W        W77633  39.269   0.037   3.206
 5209W        W77634  20.518  38.371  14.812
 5210W        W77635  25.577  36.678   3.650
 5211W        W77636  12.243  16.814   2.318
 5212W        W77637  39.467  44.760  13.059
 5213W        W77638   3.947   8.648   2.850
 5214W        W77639  28.734  31.436  14.022
 5215W        W77640   8.437  34.213  13.839
 5216W        W77641  30.125   5.600   2.687
 5217W        W77642   1.413  18.347  13.022
 5218W        W77643  14.824  36.103   4.117
 5219W        W77644  27.147  34.318  12.401
 5220W        W77645  34.324  37.511  10.556
 5221W        W77646  36.843  18.631   0.017
 5222W        W77647   0.018  39.378  12.064
 5223W        W77648  28.703   6.903  10.996
 5224W        W77649  25.423  43.039   2.976
 5225W        W77650  31.472  17.332   0.242
 5226W        W77651  35.179  36.973  11.286
 5227W        W77652  15.895  29.419  12.420
 5228W        W77653  25.846   5.871   4.071
 5229W        W77654  40.403  30.927   4.118
 5230W        W77655  24.757   5.715  11.485
 5231W        W77656   0.675  32.402   9.703
 5232W        W77657  23.508  23.074   4.408
 5233W        W77658   4.000  37.798  12.465
 5234W        W77659  26.990  25.022  14.311
 5235W        W77660   8.328  16.495  14.427
 5236W        W77661  27.539  29.804   2.232
 5237W        W77662   9.210  26.152   4.106
 5238W        W77663  24.965  30.448   2.741
 5239W        W77664   3.517   6.251  12.421
 5240W        W77665  25.920  24.261  11.085
 5241W        W77666  41.749   3.202   4.944
 5242W        W77667  29.422   6.504   1.192
 5243W        W77668  22.600   1.275  10.556
 5244W        W77669  35.369  41.138   2.912
 5245W        W77670  20.481  15.286   1.264
 5246W        W77671  22.142  24.636   0.238
 5247W        W77672   9.898  12.675   1.815
 5248W        W77673  12.870   7.599  13.909
 5249W        W77674  38.778  19.240   2.789
 5250W        W77675  26.732  24.526  11.683
 5251W        W77676  25.305  19.656  11.581
 5252W        W77677  27.936  24.133   3.758
 5253W        W77678  33.476  22.421  12.492
 5254W        W77679  38.368  12.137   4.645
 5255W        W77680  16.370  25.469   1.250
 5256W        W77681  38.481  12.656   4.019
 5257W        W77682  15.845   6.291  13.437
 5258W        W77683  35.146   2.728   3.593
 5259W        W77684  33.038  44.265  11.103
 5260W        W77685  11.183  14.056  13.359
 5261W        W77686  38.080  10.920  13.387
 5262W        W77687  39.002  39.037  10.007
 5263W        W77688  40.785  31.541   0.801
 5264W        W77689  25.498  33.419   4.602
 5265W        W77690  19.674  20.245   4.531
 5266W        W77691  26.058  16.543   0.399
 5267W        W77692   8.932  42.961  14.455
 5268W        W77693  20.303   6.672   0.342
 5269W        W77694  31.224  35.379   1.272
 5270W        W77695   8.859  18.173   1.819
 5271W        W77696  44.869  19.143  10.490
 5272W        W77697   5.801  39.908  10.770
 5273W        W77698  39.161  42.433   0.914
 5274W        W77699  28.579  21.510   2.310
 5275W        W77700   4.853  18.503   3.177
 5276W        W77701  29.643  34.678  13.539
 5277W        W77702   8.402  25.901  12.098
 5278W        W77703  18.625  23.685   2.109
 5279W        W77704  12.201  32.156   1.648
 5280W        W77705  14.603  35.846   0.330
 5281W        W77706  10.418  24.898   0.790
 5282W        W77707  17.918  43.044  13.709
 5283W        W77708  29.688  28.243   0.465
 5284W        W77709  28.828   6.202  13.259
 5285W        W77710  15.791  39.820   3.403
 5286W        W77711  44.059  38.414  12.629
 5287W        W77712   6.883   0.030   0.888
 5288W        W77713  36.838  10.374   0.656
 5289W        W77714  31.103  42.903   3.265
 5290W        W77715   5.991  33.389   3.095
 5291W        W77716  40.843  25.984  13.552
 5292W        W77717  29.753  33.529   4.042
 5293W        W77718  33.524  42.237   3.387
 5294W        W77719  12.312   1.854  14.463
 5295W        W77720   1.672  32.606   4.090
 5296W        W77721   4.934  36.057   3.295
 5297W        W77722  21.398  13.849  12.132
 5298W        W77723  35.590   3.353   1.631
 5299W        W77724   5.414  39.995   1.863
 5300W        W77725   0.071   7.325  14.584
 5301W        W77726  31.022   2.901   3.358
 5302W        W77727  28.594   5.954  14.480
 5303W        W77728  39.368  39.791  14.565
 5304W        W77729  19.641   4.911  13.107
 5305W        W77730   4.326  10.431  13.826
 5306W        W77731  24.546  10.979  11.589
 5307W        W77732  37.130   4.660   3.405
 5308W        W77733  36.603  33.384  12.645
 5309W        W77734   3.876   0.976   2.813
 5310W        W77735  19.517  32.084   0.895
 5311W        W77736  40.922  24.361   3.720
 5312W        W77737  22.198  26.984  10.788
 5313W        W77738   1.958  44.555   0.808
 5314W        W77739  26.151  10.134   4.561
 5315W        W77740  12.615  24.516  14.056
 5316W        W77741  12.047  39.444   3.079
 5317W        W77742  40.802  16.703  14.154
 5318W        W77743  33.565   3.528  11.880
 5319W        W77744  36.832  11.204  14.069
 5320W        W77745  27.741  18.490  12.531
 5321W        W77746  34.571  38.619  13.079
 5322W        W77747  41.065  40.800  14.507
 5323W        W77748  29.595  26.917   4.179
 5324W        W77749  13.623  10.772   4.754
 5325W        W77750  28.135  13.462   3.644
 5326W        W77751  33.144  31.258  12.391
 5327W        W77752  40.450  29.159   0.668
 5328W        W77753  19.022  20.302   1.308
 5329W        W77754  24.495   2.310  14.432
 5330W        W77755  28.509  20.177   3.523
 5331W        W77756  23.192  16.063   3.949
 5332W        W77757  31.444  37.335  11.973
 5333W        W77758  38.081  42.375  14.395
 5334W        W77759  22.706  33.846   1.473
 5335W        W77760   5.771  11.403  14.218
 5336W        W77761  29.678   9.650  11.167
 5337W        W77762  41.636  39.373  14.389
 5338W        W77763   2.379   8.609  14.374
 5339W        W77764  19.068  21.332  13.931
 5340W        W77765  42.478  18.857  13.745
 5341W        W77766  34.561  13.148   2.226
 5342W        W77767   7.288  18.804  14.287
 5343W        W77768  16.189  21.544   2.651
 5344W        W77769   1.177  14.156   3.335
 5345W        W77770  26.511   0.758   5.106
 5346W        W77771  38.937  42.049   1.195
 5347W        W77772  25.577  26.733  10.595
 5348W        W77773  41.954  22.418   3.301
 5349W        W77774  28.239  40.609   4.267
 5350W        W77775  30.976  20.191   4.700
 5351W        W77776   8.727   3.992   4.117
 5352W        W77777   2.136  13.386   1.488
 5353W        W77778   2.211  44.395  11.018
 5354W        W77779   2.404  41.287  12.060
 5355W        W77780  15.231  20.511   3.852
 5356W        W77781  19.739  44.502  11.945
 5357W        W77782   1.178  37.944   4.811
 5358W        W77783  41.281  22.554   9.810
 5359W        W77784  29.099   9.213  11.920
 5360W        W77785  38.650  20.177   0.253
 5361W        W77786  28.487   5.958   2.436
 5362W        W77787  44.443   9.274  10.270
 5363W        W77788  38.412  43.542  13.514
 5364W        W77789  17.058  24.317  10.413
 5365W        W77790   7.149  29.988  10.695
 5366W        W77791  42.263   8.343  13.949
 5367W        W77792   4.418  37.935   3.030
 5368W        W77793  33.582  33.345   5.131
 5369W        W77794  31.019  26.410  11.781
 5370W        W77795  16.917  30.675  12.486
 5371W        W77796   0.748  14.038  12.037
 5372W        W77797  22.707  18.578  10.656
 5373W        W77798  30.011  18.545  12.869
 5374W        W77799  30.380   0.414  14.774
 5375W        W77800  40.994   1.817   3.935
 5376W        W77801  43.870  34.009   3.098
 5377W        W77802  10.253   4.879  12.044
 5378W        W77803  10.352  42.730   2.741
 5379W        W77804  37.436   5.668   0.769
 5380W        W77805  20.971  12.721   1.140
 5381W        W77806  38.932  33.456  14.525
 5382W        W77807  21.587   9.338   4.717
 5383W        W77808  30.621   6.221  14.943
 5384W        W77809  25.063  16.119   0.374
 5385W        W77810  22.620  24.773   3.405
 5386W        W77811  30.000   8.653   0.970
 5387W        W77812   3.803   3.270   2.388
 5388W        W77813  33.368   8.225   2.253
 5389W        W77814  31.051  19.316   3.696
 5390W        W77815  22.492   2.934   1.197
 5391W        W77816  25.067  22.756  11.092
 5392W        W77817  18.731  28.113   1.791
 5393W        W77818  44.002  21.192   4.089
 5394W        W77819  35.233  39.027   2.303
 5395W        W77820  40.332  25.651   2.955
 5396W        W77821  36.940  30.480  11.539
 5397W        W77822  19.184  19.562  11.007
 5398W        W77823  25.928   7.214   0.345
 5399W        W77824  13.770  24.297  10.108
 5400W        W77825  24.416  38.210  10.732
 5401W        W77826   1.553  42.498   4.615
 5402W        W77827  36.621  31.596   3.733
 5403W        W77828  43.418  44.481  10.146
 5404W        W77829  32.238  39.506  12.433
 5405W        W77830  36.578  26.453   1.535
 5406W        W77831  29.836  37.456   2.316
 5407W        W77832   2.443   0.176  11.579
 5408W        W77833   7.953  39.223   4.885
 5409W        W77834  29.951  19.768   2.687
 5410W        W77835  22.169  37.898  12.523
 5411W        W77836  39.949  21.493  14.490
 5412W        W77837  41.993  13.047  13.428
 5413W        W77838  36.629  40.308   3.270
 5414W        W77839  20.446  40.100  11.663
 5415W        W77840  41.503  17.402   0.979
 5416W        W77841   6.791  11.802  11.868
 5417W        W77842  16.817  25.231  10.666
 5418W        W77843  38.449  39.108  14.985
 5419W        W77844   8.227  16.962  14.211
 5420W        W77845  14.109  21.006  10.096
 5421W        W77846   6.613  18.857  13.728
 5422W        W77847  35.647  23.181   1.746
 5423W        W77848  13.054  35.994   4.436
 5424W        W77849  15.745  12.211   4.390
 5425W        W77850  16.786  35.083  13.970
 5426W        W77851  15.260  16.175  11.987
 5427W        W77852   8.638  32.320   2.218
 5428W        W77853   5.742  21.260  12.552
 5429W        W77854  18.024   0.986  14.639
 5430W        W77855  26.538  11.767  12.414
 5431W        W77856  19.480  16.722  14.811
 5432W        W77857   4.167  41.402  13.408
 5433W        W77858  36.929  38.439  10.897
 5434W        W77859  21.715  31.711   3.735
 5435W        W77860  28.435  19.177   2.875
 5436W        W77861  19.708   5.332   3.201
 5437W        W77862   9.396  25.656   2.614
 5438W        W77863  44.072  18.662   0.695
 5439W        W77864   8.649  24.868  12.650
 5440W        W77865  27.395  16.646   3.587
 5441W        W77866  13.699  31.906  14.380
 5442W        W77867  34.388  24.499  12.418
 5443W        W77868   7.649  25.025   0.708
 5444W        W77869  26.621   6.420   2.836
 5445W        W77870  43.981   1.710  11.731
 5446W        W77871  12.078  14.309   1.988
 5447W        W77872  20.158   0.752   2.120
 5448W        W77873  27.529   6.657  12.319
 5449W        W77874  33.393  17.267   3.995
 5450W        W77875  42.854   3.274  11.651
 5451W        W77876   4.220  32.658   4.208
 5452W        W77877  10.762  31.024   2.691
 5453W        W77878  13.177  28.210  11.259
 5454W        W77879  41.309  41.344   0.394
 5455W        W77880  14.547  26.541   3.623
 5456W        W77881   9.344  37.584  14.918
 5457W        W77882  20.962  12.800  11.848
 5458W        W77883   0.420  29.195   2.281
 5459W        W77884  40.815  36.547  10.796
 5460W        W77885  44.700  16.777  10.013
 5461W        W77886  10.234  13.656  13.960
 5462W        W77887  15.546  40.422  10.900
 5463W        W77888   8.158  25.577   0.347
 5464W        W77889  39.720  41.325  10.755
 5465W        W77890  33.976  16.311   4.644
 5466W        W77891  10.712   4.413  13.850
 5467W        W77892   7.364   7.113   2.732
 5468W        W77893  34.678  40.553   2.351
 5469W        W77894   7.889  13.268   0.869
 5470W        W77895   0.840  12.127   4.902
 5471W        W77896  36.812  43.819  10.748
 5472W        W77897   1.110  23.606  12.351
 5473W        W77898  18.778  10.378  13.667
 5474W        W77899  17.133  13.372   2.828
 5475W        W77900  32.010  27.676   0.412
 5476W        W77901  33.480  12.792   4.107
 5477W        W77902  11.353  23.996   1.202
 5478W        W77903  27.525  42.783   0.593
 5479W        W77904  44.235  27.535  10.614
 5480W        W77905  18.082   9.342   0.752
 5481W        W77906  37.769  42.818   0.929
 5482W        W77907  36.558  21.096   1.336
 5483W        W77908  39.558  30.497  13.476
 5484W        W77909  13.578   1.943  10.853
 5485W        W77910   2.748   0.773  13.006
 5486W        W77911  25.549   6.458  12.115
 5487W        W77912  27.424  23.000  13.487
 5488W        W77913  26.718  35.958   4.505
 5489W        W77914  37.462  17.675  13.806
 5490W        W77915   7.919  44.992  13.992
 5491W        W77916  18.586  19.621   4.185
 5492W        W77917  12.644  40.453  12.205
 5493W        W77918  10.996  11.387   2.769
 5494W        W77919   1.703  33.144  10.618
 5495W        W77920  35.332   4.803   1.437
 5496W        W77921  40.112   1.988   0.334
 5497W        W77922  32.236   2.543   2.432
 5498W        W77923  22.594  41.964   3.232
 5499W        W77924  38.542  24.873  11.152
 5500W        W77925  42.310  42.794  13.104
 5501W        W77926  11.729  27.941   3.193
 5502W        W77927   3.487  31.980  14.747
 5503W        W77928  26.649  38.182   0.239
 5504W        W77929  35.835  21.253   3.150
 5505W        W77930  41.252   8.186  13.993
 5506W        W77931  17.620  30.055  11.424
 5507W        W77932  11.358  29.692   0.196
 5508W        W77933   3.042  26.324  13.453
 5509W        W77934  24.125  42.946   0.753
 5510W        W77935  31.522  23.251   1.754
 5511W        W77936  43.619  28.900   3.257
 5512W        W77937  32.118   9.854   2.178
 5513W        W77938  38.896  32.688  12.594
 5514W        W77939  39.832  13.690  10.633
 5515W        W77940   6.403  22.230  13.844
 5516W        W77941   3.215   4.372  13.357
 5517W        W77942  44.078  25.019   3.774
 5518W        W77943  14.192  29.935  14.461
 5519W        W77944   6.661  42.009   0.028
 5520W        W77945  38.718   8.292  12.857
 5521W        W77946  35.970  21.229   4.574
 5522W        W77947   9.192  38.096  10.783
 5523W        W77948  20.226   4.423  13.199
 5524W        W77949  40.197  24.642  12.950
 5525W        W77950  29.070   9.490   3.675
 5526W        W77951  21.263  34.160  13.415
 5527W        W77952   9.340  21.093   1.194
 5528W        W77953  42.757  14.161   4.253
 5529W        W77954  30.045  16.339  12.073
 5530W        W77955   2.966  29.655  13.123
 5531W        W77956   8.667  27.623  11.494
 5532W        W77957  34.557   7.254   2.162
 5533W        W77958  10.361  20.298  13.987
 5534W        W77959  44.808  14.008  10.752
 5535W        W77960   9.278  17.286  12.916
 5536W        W77961  15.262   8.832   0.763
 5537W        W77962   1.847  24.118  13.375
 5538W        W77963  15.145  27.428  14.321
 5539W        W77964  35.061   9.720  14.768
 5540W        W77965  42.768   0.978   0.203
 5541W        W77966  24.242  12.435   1.785
 5542W        W77967   5.581   6.206   3.065
 5543W        W77968   7.349  19.526   5.018
 5544W        W77969   2.793  20.905   2.745
 5545W        W77970   5.445  27.518  12.369
 5546W        W77971  20.237  18.897   1.948
 5547W        W77972  37.548  44.493  12.979
 5548W        W77973   2.029   7.738   2.133
 5549W        W77974  25.700  28.144  10.546
 5550W        W77975  16.425   9.465   0.250
 5551W        W77976  29.079  10.103  12.939
 5552W        W77977  38.809  13.531   2.977
 5553W        W77978  23.421  40.274   1.690
 5554W        W77979   0.504  20.678  14.927
 5555W        W77980  41.311   4.843  14.183
 5556W        W77981  39.625  24.200  13.906
 5557W        W77982  39.388  24.649  14.969
 5558W        W77983  43.775  42.776   1.017
 5559W        W77984  36.293  37.916   4.625
 5560W        W77985  17.504  13.083  11.505
 5561W        W77986  14.170   2.720  10.290
 5562W        W77987  11.111  33.121  11.571
 5563W        W77988   8.411  15.575   4.306
 5564W        W77989  18.207   2.874   4.668
 5565W        W77990  26.877  42.392  14.569
 5566W        W77991   0.018  44.927  10.802
 5567W        W77992   8.587  44.789   4.592
 5568W        W77993   8.712  32.619  10.790
 5569W        W77994   8.129  29.772  10.739
 5570W        W77995  32.873  21.134   1.922
 5571W        W77996  30.681   7.281   4.738
 5572W        W77997   3.979  13.223   2.892
 5573W        W77998  21.835   1.209  11.540
 5574W        W77999  18.538  21.661   3.624
 5575W        W78000   9.107  40.516   2.769
 5576W        W78001   1.941  15.615   3.245
 5577W        W78002  28.400   8.334   1.378
 5578W        W78003  10.491  18.809  12.892
 5579W        W78004  24.178  17.099  11.636
 5580W        W78005  14.720  21.465  10.730
 5581W        W78006  10.607  22.762  10.190
 5582W        W78007  20.615  37.346   1.833
 5583W        W78008  37.928  42.231  13.465
 5584W        W78009  42.490  17.077  13.080
 5585W        W78010  11.231  35.443   2.922
 5586W        W78011  18.808  21.693  11.383
 5587W        W78012   9.399  22.054  12.001
 5588W        W78013  19.422  35.833   3.775
 5589W        W78014   1.729  44.581  11.728
 5590W        W78015   3.893  17.094   0.851
 5591W        W78016  26.080  21.638  10.635
 5592W        W78017  36.485  35.130  13.434
 5593W        W78018  43.761  30.471  12.455
 5594W        W78019   5.268  12.807  12.192
 5595W        W78020  44.562  10.671   0.935
 5596W        W78021  33.851  18.247   2.346
 5597W        W78022  44.564  15.668  11.860
 5598W        W78023  42.839  27.529   2.301
 5599W        W78024   4.210  11.077   0.074
 5600W        W78025  16.841  25.529  13.934
 5601W        W78026  39.396   1.168  13.038
 5602W        W78027  30.289  44.897  13.402
 5603W        W78028  31.629  10.309   2.740
 5604W        W78029  25.116  26.471  14.822
 5605W        W78030  12.492  39.985  13.465
 5606W        W78031  27.698   5.844   3.186
 5607W        W78032  26.556   8.727  13.258
 5608W        W78033  29.070  25.574  10.708
 5609W        W78034   1.523  39.505  14.870
 5610W        W78035   8.144  32.544  13.420
 5611W        W78036  12.456  17.127   4.833
 5612W        W78037   1.475  35.961  10.380
 5613W        W78038  38.735  33.929  11.860
 5614W        W78039  14.899  32.574   2.345
 5615W        W78040  38.998   0.725   4.330
 5616W        W78041   9.894   2.680   2.839
 5617W        W78042  12.172   1.924  12.870
 5618W        W78043  34.424  29.969   3.708
 5619W        W78044  40.186  27.671  11.445
 5620W        W78045  29.175   8.318  11.712
 5621W        W78046  11.977  30.431   4.107
 5622W        W78047  29.396  29.085   1.344
 5623W        W78048  23.194  23.016  12.458
 5624W        W78049  32.951  30.996  11.474
 5625W        W78050   4.835  30.464  14.261
 5626W        W78051  20.924  21.046   4.476
 5627W        W78052  21.518  43.467  12.065
 5628W        W78053  29.635  27.443  14.767
 5629W        W78054  10.038   9.519  11.613
 5630W        W78055   2.389  24.951   1.733
 5631W        W78056  25.957   3.326   3.311
 5632W        W78057  28.206   4.260   2.874
 5633W        W78058  13.133  30.863   3.322
 5634W        W78059  36.349  20.799  11.604
 5635W        W78060  26.477  42.269  11.607
 5636W        W78061  10.305  12.557   2.639
 5637W        W78062  16.603  35.367   4.250
 5638W        W78063  11.254  31.041  12.234
 5639W        W78064  39.469  44.798   0.479
 5640W        W78065  25.613  18.657  11.153
 5641W        W78066  28.854  20.744  12.009
 5642W        W78067  44.995   7.231  11.493
 5643W        W78068  23.238  20.053   0.847
 5644W        W78069  34.284  42.792  11.475
 5645W        W78070  35.015  39.941  14.920
 5646W        W78071  24.788  43.588  14.451
 5647W        W78072  23.655   7.337  14.732
 5648W        W78073   7.383  14.180   2.387
 5649W        W78074   3.936  44.685   0.920
 5650W        W78075   1.747  26.606  10.623
 5651W        W78076  13.745  34.630   2.380
 5652W        W78077   6.269  36.874  10.652
 5653W        W78078  21.637  32.388   1.714
 5654W        W78079  22.689  39.151  10.898
 5655W        W78080  33.412  26.587   3.797
 5656W        W78081  29.979  12.171  10.784
 5657W        W78082  39.090  26.413  13.447
 5658W        W78083   3.196   1.807   3.762
 5659W        W78084  22.770  40.108   0.486
 5660W        W78085   2.416  16.774   3.422
 5661W        W78086   4.005  21.029  10.597
 5662W        W78087  24.603  13.720  12.974
 5663W        W78088  39.745   2.868  10.753
 5664W        W78089  32.955  36.084  14.305
 5665W        W78090   0.841   0.905   2.652
 5666W        W78091  22.765  31.904   0.369
 5667W        W78092  20.913  21.962   4.673
 5668W        W78093  10.949  34.828  14.268
 5669W        W78094   3.492   9.610   2.680
 5670W        W78095  38.434  40.380   2.313
 5671W        W78096  15.261  38.122  10.826
 5672W        W78097  29.343  32.646  11.154
 5673W        W78098  28.548  11.537   0.466
 5674W        W78099   7.592  42.323  13.894
 5675W        W78100  43.961   3.803  13.296
 5676W        W78101   6.990   8.696   3.292
 5677W        W78102   2.615  20.117   0.570
 5678W        W78103  22.255   5.869   2.767
 5679W        W78104   0.356   1.245  13.132
 5680W        W78105  25.734  19.062   2.463
 5681W        W78106  18.212   2.318  14.675
 5682W        W78107  28.754  42.074   2.768
 5683W        W78108  43.798  31.472  12.764
 5684W        W78109  40.162  29.593   2.795
 5685W        W78110  11.379  32.520   4.575
 5686W        W78111  23.924  34.649  12.916
 5687W        W78112  14.567  42.374  10.819
 5688W        W78113  35.226  12.847   3.705
 5689W        W78114  17.358  40.622  14.803
 5690W        W78115  24.092  42.788  12.503
 5691W        W78116  11.308   8.785   3.300
 5692W        W78117  22.263  18.095  10.985
 5693W        W78118  25.096  37.284   3.176
 5694W        W78119   4.196  23.736  12.976
 5695W        W78120  21.989  40.774  10.918
 5696W        W78121  30.540  26.137  10.990
 5697W        W78122  34.760  11.873  13.442
 5698W        W78123  19.622  28.957  12.605
 5699W        W78124  14.093   2.159   1.716
 5700W        W78125  15.293  17.575   2.703
 5701W        W78126  25.568   3.664   3.208
 5702W        W78127  23.916   6.265  12.161
 5703W        W78128   5.239  11.898  10.643
 5704W        W78129  44.736  34.398  14.037
 5705W        W78130  33.498  17.713  13.919
 5706W        W78131  10.629   5.401   3.725
 5707W        W78132  16.364  36.506  12.147
 5708W        W78133  42.388   3.547   3.182
 5709W        W78134  35.257  10.590   4.577
 5710W        W78135  13.385  44.573   3.509
 5711W        W78136  21.010   4.365   1.948
 5712W        W78137  14.915  32.812   9.961
 5713W        W78138   7.271  29.994  11.559
 5714W        W78139  30.915  30.855   3.022
 5715W        W78140  15.293  43.404   1.769
 5716W        W78141  44.225  23.296  12.755
 5717W        W78142  39.155  38.927   4.024
 5718W        W78143  21.450  12.111   4.358
 5719W        W78144   7.915   2.772  10.439
 5720W        W78145   8.992  16.121  13.422
 5721W        W78146  42.300  23.720  11.434
 5722W        W78147   6.766  34.378  11.575
 5723W        W78148  21.227  31.851   1.277
 5724W        W78149  19.379   3.771  13.222
 5725W        W78150  10.457  10.277   0.647
 5726W        W78151   3.586  33.378  12.432
 5727W        W78152  39.330  36.286   2.634
 5728W        W78153  15.568  35.844   3.733
 5729W        W78154  27.563  44.744   1.494
 5730W        W78155  10.334  27.472   0.859
 5731W        W78156  40.835  10.136   2.146
 5732W        W78157   8.148  44.037   3.162
 5733W        W78158  25.189  25.150   3.683
 5734W        W78159  19.315   7.548  13.851
 5735W        W78160  39.290  20.221   3.240
 5736W        W78161  44.269  40.505  14.474
 5737W        W78162   7.595  37.886  13.505
 5738W        W78163  20.180  40.549  13.748
 5739W        W78164  34.463   4.766  14.855
 5740W        W78165  41.805  27.031   0.773
 5741W        W78166  22.690   7.286   3.963
 5742W        W78167  34.496  29.976   2.183
 5743W        W78168   2.384  40.559   0.238
 5744W        W78169  37.346  42.736   5.053
 5745W        W78170  14.148  24.051  12.871
 5746W        W78171  28.676  40.342   2.044
 5747W        W78172  21.669  39.515  13.459
 5748W        W78173  15.760  32.276   2.386
 5749W        W78174  17.042  19.072  10.583
 5750W        W78175  25.742  22.006  12.096
 5751W        W78176   4.888  23.437  11.584
 5752W        W78177   4.220  42.443   0.870
 5753W        W78178   9.897  15.226  14.613
 5754W        W78179  43.433  37.099  12.497
 5755W        W78180  18.215  20.832  13.934
 5756W        W78181  21.825  17.842   1.786
 5757W        W78182  44.335  28.975   2.751
 5758W        W78183  22.219   9.817   0.869
 5759W        W78184  10.860  42.076   0.309
 5760W        W78185   8.852  23.872   0.042
 5761W        W78186  40.518  21.655   3.284
 5762W        W78187  23.438   7.678   0.042
 5763W        W78188   6.401  35.190   1.982
 5764W        W78189   9.804  26.379  12.470
 5765W        W78190  24.005   9.878  11.279
 5766W        W78191  40.065  38.560  11.456
 5767W        W78192  43.337  14.337   2.787
 5768W        W78193  20.494  19.312  10.537
 5769W        W78194  16.527  39.424   3.761
 5770W        W78195  16.207  11.473  12.433
 5771W        W78196  38.386  40.560  10.533
 5772W        W78197  20.173   6.822   3.289
 5773W        W78198  36.961  24.950  12.533
 5774W        W78199   1.416  10.783  14.895
 5775W        W78200  37.444  17.839   1.873
 5776W        W78201  22.778  29.988  11.030
 5777W        W78202  33.606  38.463  12.609
 5778W        W78203  16.797  34.252  12.952
 5779W        W78204   6.444  12.049   2.673
 5780W        W78205  43.331  19.267   0.958
 5781W        W78206  39.451  41.812  13.554
 5782W        W78207  33.997  24.671   3.378
 5783W        W78208   9.768  22.600  14.287
 5784W        W78209  40.951  26.114   0.390
 5785W        W78210  37.137   4.819  14.932
 5786W        W78211  12.370  40.619  14.665
 5787W        W78212  34.457  30.492   4.590
 5788W        W78213  35.870  32.109  10.295
 5789W        W78214  10.194  34.637  14.741
 5790W        W78215  14.375  34.131   2.617
 5791W        W78216  30.524  40.963  11.099
 5792W        W78217  34.208  25.974  13.384
 5793W        W78218  11.363  11.826   4.451
 5794W        W78219  42.797  18.566   1.344
 5795W        W78220   1.273  12.177  14.272
 5796W        W78221  29.204   8.742  11.059
 5797W        W78222  41.983  39.243   3.290
 5798W        W78223  20.189   7.731  14.708
 5799W        W78224  10.140   4.783   2.819
 5800W        W78225  19.944  43.090  10.927
 5801W        W78226  27.197  35.975  10.570
 5802W        W78227  23.562  19.986   0.428
 5803W        W78228  35.846   2.397   2.355
 5804W        W78229  44.503  25.770  13.372
 5805W        W78230  37.056  36.522  10.742
 5806W        W78231  44.889  33.631  13.449
 5807W        W78232   6.729   2.230  13.003
 5808W        W78233  42.788  18.194  12.836
 5809W        W78234  42.318  13.644   0.577
 5810W        W78235  39.840  15.658   2.118
 5811W        W78236  14.128  35.494  11.018
 5812W        W78237  17.237  40.318  14.405
 5813W        W78238  24.229   6.298  12.570
 5814W        W78239  39.310  26.686   4.512
 5815W        W78240  43.229   0.253  14.399
 5816W        W78241  37.930  42.843   1.472
 5817W        W78242   7.723  19.918   5.123
 5818W        W78243  13.745  42.639   5.215
 5819W        W78244   4.084  15.490   2.298
 5820W        W78245   0.896   9.125  13.604
 5821W        W78246   6.419  44.357   0.837
 5822W        W78247  25.171  28.035  12.585
 5823W        W78248  38.287  25.150  10.810
 5824W        W78249   2.257  39.446  13.146
 5825W        W78250  33.538  18.645   2.364
 5826W        W78251  18.330  37.299  13.770
 5827W        W78252  12.357  36.171  11.676
 5828W        W78253  26.809  22.586  12.530
 5829W        W78254  23.089   1.799   2.202
 5830W        W78255   7.815  24.806  10.399
 5831W        W78256  38.611  44.002  11.097
 5832W        W78257  29.134  23.279   0.081
 5833W        W78258  20.564  39.077  11.545
 5834W        W78259  14.778  12.395   0.272
 5835W        W78260  28.086  33.341   4.195
 5836W        W78261   4.813   3.409  11.945
 5837W        W78262  37.962  40.491   2.121
 5838W        W78263   4.174  33.538   1.951
 5839W        W78264  11.235  15.636  11.672
 5840W        W78265  26.177  40.311   0.722
 5841W        W78266  38.609   0.956   2.616
 5842W        W78267  14.810  11.549   4.465
 5843W        W78268  44.986   0.541  12.497
 5844W        W78269  44.501   7.980  12.455
 5845W        W78270  36.420  40.578   1.270
 5846W        W78271   9.218  37.928   4.141
 5847W        W78272   7.806  11.578   2.818
 5848W        W78273  21.804  25.761  13.471
 5849W        W78274  28.472  32.931   4.902
 5850W        W78275  23.879  17.224   4.095
 5851W        W78276  15.523  14.127   1.264
 5852W        W78277   2.893  19.372  11.976
 5853W        W78278  30.185  11.736  10.586
 5854W        W78279  12.335  21.198   4.052
 5855W        W78280   0.021   6.578   1.595
 5856W        W78281  20.625  37.843   1.647
 5857W        W78282  22.517  31.905   0.844
 5858W        W78283  23.974  21.170   1.787
 5859W        W78284   6.943  30.553   2.316
 5860W        W78285  44.089  37.965  11.905
 5861W        W78286  27.512   3.749  11.020
 5862W        W78287  42.384  20.726   1.741
 5863W        W78288  44.304  39.034  12.875
 5864W        W78289  39.220  11.307   3.398
 5865W        W78290  37.302  22.196  10.204
 5866W        W78291  14.785  17.957  11.479
 5867W        W78292  33.974  18.519  13.648
 5868W        W78293  24.144   6.367   0.963
 5869W        W78294  35.745  12.183   4.925
 5870W        W78295  15.737  35.445  14.916
 5871W        W78296  40.400  25.542  11.926
 5872W        W78297  39.129  44.449   2.805
 5873W        W78298  11.583  37.321  11.783
 5874W        W78299   8.754  42.273  12.645
 5875W        W78300   8.247  25.057  10.931
 5876W        W78301  23.916  43.520  11.382
 5877W        W78302   0.186  44.507   0.864
 5878W        W78303  19.068  40.669  12.001
 5879W        W78304  15.363  27.188   1.089
 5880W        W78305  36.331  41.393  11.435
 5881W        W78306  23.379  14.850  12.489
 5882W        W78307  20.844  41.895  13.963
 5883W        W78308  43.809   8.138  13.663
 5884W        W78309   4.362  44.771   4.390
 5885W        W78310   7.718   2.788  10.913
 5886W        W78311   6.906  36.169   1.227
 5887W        W78312  14.974   7.083   4.804
 5888W        W78313  25.733  15.903  11.176
 5889W        W78314   8.130  35.804   0.893
 5890W        W78315  18.974  41.242  11.088
 5891W        W78316  18.091   8.116  11.137
 5892W        W78317  13.734  30.088   1.416
 5893W        W78318   8.542  12.710   1.868
 5894W        W78319  23.941  11.222   4.607
 5895W        W78320   6.714  28.296  14.742
 5896W        W78321  11.115  21.244  11.978
 5897W        W78322  41.053  29.414   1.896
 5898W        W78323   4.326  44.408   9.969
 5899W        W78324  35.799  14.904   3.272
 5900W        W78325   2.833  43.125  14.506
 5901W        W78326   9.178  37.047   1.285
 5902W        W78327  31.154  43.826  11.432
 5903W        W78328  18.487   0.299   3.378
 5904W        W78329   0.131  36.802  14.391
 5905W        W78330  25.745  31.833   4.683
 5906W        W78331  16.808   2.007   4.825
 5907W        W78332  16.519  32.663  14.168
 5908W        W78333  40.327  31.072  11.985
 5909W        W78334  22.635  31.414   0.454
 5910W        W78335   9.140  35.534   1.366
 5911W        W78336   2.413   3.221   9.983
 5912W        W78337   8.274  17.517   0.555
 5913W        W78338   1.986  28.728  13.109
 5914W        W78339  17.534  32.087  14.861
 5915W        W78340  33.446  14.546  13.899
 5916W        W78341  38.522  15.296   1.163
 5917W        W78342   3.095  12.206  13.284
 5918W        W78343  12.819  42.337   0.941
 5919W        W78344  29.807  30.883   1.695
 5920W        W78345  15.680  16.084  10.755
 5921W        W78346  40.804   3.706  12.689
 5922W        W78347  12.246  19.625  14.148
 5923W        W78348  44.857  11.136  14.985
 5924W        W78349  31.355  19.301   3.280
 5925W        W78350  34.273  14.711  13.859
 5926W        W78351  16.573   4.263   2.116
 5927W        W78352   3.479  13.601   3.602
 5928W        W78353  24.764  28.632   3.796
 5929W        W78354  30.463   6.867   4.461
 5930W        W78355  34.185  11.257  13.742
 5931W        W78356  10.689  31.869  10.263
 5932W        W78357  17.193  15.192   4.115
 5933W        W78358  17.317  43.428   4.389
 5934W        W78359   6.742  41.572   1.436
 5935W        W78360  33.558  36.979   0.216
 5936W        W78361   1.982  10.065   2.778
 5937W        W78362   4.096   4.349  11.607
 5938W        W78363  30.573  23.505  12.544
 5939W        W78364  35.062   8.866   4.160
 5940W        W78365  37.137  36.497  12.739
 5941W        W78366  33.106  34.970   0.372
 5942W        W78367  16.275   0.029  12.005
 5943W        W78368   5.389  20.006  14.128
 5944W        W78369  12.460  24.776   2.337
 5945W        W78370  34.030  29.316  13.851
 5946W        W78371  10.630  32.397  10.362
 5947W        W78372  14.650  32.681  12.965
 5948W        W78373  37.811  37.816  11.540
 5949W        W78374  20.138  12.806   0.720
 5950W        W78375  12.100  13.240   3.548
 5951W        W78376  22.678  38.371   2.869
 5952W        W78377   2.868  28.642  13.145
 5953W        W78378  32.057  20.561   0.916
 5954W        W78379  14.191  36.989  11.609
 5955W        W78380  36.031  18.600   1.358
 5956W        W78381   1.380  42.565  10.507
 5957W        W78382  13.677   5.295   2.016
 5958W        W78383   6.157  40.761   3.157
 5959W        W78384  18.308  23.050   1.787
 5960W        W78385  41.433  13.691  12.901
 5961W        W78386  22.798  23.625   1.419
 5962W        W78387  43.411  30.112   0.641
 5963W        W78388  14.782  23.643  11.834
 5964W        W78389  23.595   1.937   4.347
 5965W        W78390  10.555  20.375  12.833
 5966W        W78391   4.737  31.393   4.337
 5967W        W78392  13.754   1.396   2.989
 5968W        W78393   2.968  39.481   4.075
 5969W        W78394  42.534   7.179  13.363
 5970W        W78395   1.406  15.174   0.212
 5971W        W78396  37.011  40.072  12.378
 5972W        W78397   4.188   3.977  10.642
 5973W        W78398  11.601  14.695  10.714
 5974W        W78399  30.656   7.731   1.264
 5975W        W78400  34.591  35.556   1.910
 5976W        W78401  26.531  22.428  12.120
 5977W        W78402  44.961   3.952  11.189
 5978W        W78403  26.184  40.603   1.208
 5979W        W78404   0.948  43.351   3.094
 5980W        W78405  14.266  28.413   1.876
 5981W        W78406   1.557  19.818  14.822
 5982W        W78407  21.537  14.786  10.987
 5983W        W78408  28.809  40.852   1.269
 5984W        W78409  36.605   7.756  14.768
 5985W        W78410   4.796  23.655   3.837
 5986W        W78411  35.377  20.181   0.756
 5987W        W78412  26.444  11.244  13.099
 5988W        W78413  14.545  24.231   3.930
 5989W        W78414  19.049  29.555  10.524
 5990W        W78415  24.195  24.072  10.368
 5991W        W78416  29.159  37.530   2.850
 5992W        W78417  32.985  18.081  13.431
 5993W        W78418   5.861  41.870  13.955
 5994W        W78419  20.459  34.334   0.596
 5995W        W78420  42.986   6.957  13.483
 5996W        W78421  20.583  26.642  13.042
 5997W        W78422  31.494  14.857   4.869
 5998W        W78423  42.979  33.171  12.930
 5999W        W78424  26.028   1.940   2.723
 6000W        W78425  39.793  36.034   0.951
 6001W        W78426  42.828  14.440  13.469
 6002W        W78427  32.692  27.982  12.542
 6003W        W78428  37.011  23.501   4.344
 6004W        W78429  20.356  27.486   4.552
 6005W        W78430  24.485   4.794   0.706
 6006W        W78431  11.208  31.979  13.023
 6007W        W78432  38.897  26.980   4.489
 6008W        W78433  23.015   2.107   0.740
 6009W        W78434  39.853  17.713  13.341
 6010W        W78435  17.784  10.194   0.458
 6011W        W78436  15.207  26.189  13.582
 6012W        W78437  41.778  23.206   3.098
 6013W        W78438  41.732  22.668  11.967
 6014W        W78439   5.948  10.694  12.600
 6015W        W78440  44.269  39.335   0.315
 6016W        W78441  15.761  13.166  14.327
 6017W        W78442   9.152   4.861  11.573
 6018W        W78443   5.431   4.077   0.370
 6019W        W78444   3.860  23.195  13.939
 6020W        W78445  16.765  42.289  13.596
 6021W        W78446  12.144  23.440   2.368
 6022W        W78447   0.825  44.756   4.507
 6023W        W78448  30.472   9.547   3.318
 6024W        W78449   4.473   5.892  14.937
 6025W        W78450  32.616  28.095   4.583
 6026W        W78451  32.675  33.154   4.125
 6027W        W78452  36.384   6.906   0.850
 6028W        W78453  18.641  11.470  14.356
 6029W        W78454  32.301   4.336  14.002
 6030W        W78455  18.029  18.615   1.936
 6031W        W78456  31.135   0.900   4.850
 6032W        W78457   0.842  19.211   3.663
 6033W        W78458  22.024  34.966   0.913
 6034W        W78459  10.925  16.219   2.920
 6035W        W78460  13.341  27.342  14.790
 6036W        W78461   8.581  19.528  14.311
 6037W        W78462  41.513   9.940   3.330
 6038W        W78463  13.089  14.088   2.810
 6039W        W78464  37.294  43.824   0.287
 6040W        W78465  12.233  21.493  14.874
 6041W        W78466  43.068  15.178   4.121
 6042W        W78467  39.825  19.277  10.934
 6043W        W78468  19.632   0.971  14.040
 6044W        W78469  25.936  25.102   0.604
 6045W        W78470  21.150  22.247   1.204
 6046W        W78471  26.014  26.024   2.393
 6047W        W78472   4.424   0.245   2.679
 6048W        W78473  30.322  26.445   4.631
 6049W        W78474  24.227  15.414  14.448
 6050W        W78475  17.023  23.990   2.785
 6051W        W78476  17.851  21.985   2.420
 6052W        W78477   7.702  31.919   4.149
 6053W        W78478  32.197  24.590   1.317
 6054W        W78479  29.552  28.864  12.170
 6055W        W78480  37.482  15.548   2.324
 6056W        W78481  19.475  20.247   2.656
 6057W        W78482  36.547   8.682  14.973
 6058W        W78483  23.491  36.426   2.224
 6059W        W78484  12.269   6.928  12.438
 6060W        W78485  29.613  18.560  12.523
 6061W        W78486  43.519  15.645  11.926
 6062W        W78487  23.781  23.539   3.187
 6063W        W78488  17.721  40.084  11.174
 6064W        W78489  17.568  32.779  10.656
 6065W        W78490  34.201   7.227   2.545
 6066W        W78491  34.952  20.882   2.213
 6067W        W78492   2.288  28.039   3.692
 6068W        W78493  39.825   8.460  11.986
 6069W        W78494  16.215   2.371   0.999
 6070W        W78495  24.452  11.740   0.670
 6071W        W78496  14.316  43.426  10.672
 6072W        W78497  39.413  40.287   3.281
 6073W        W78498  43.829  19.306  11.935
 6074W        W78499  43.884  19.329   4.509
 6075W        W78500  25.460  31.587  10.346
 6076W        W78501   5.074  31.312   0.236
 6077W        W78502  35.768  23.944  11.775
 6078W        W78503   2.689  41.029  14.963
 6079W        W78504   6.455  26.910   5.221
 6080W        W78505  44.000  18.602   3.725
 6081W        W78506   2.931  39.815   1.737
 6082W        W78507  36.373  16.602   0.273
 6083W        W78508  17.323  42.999  11.876
 6084W        W78509   9.434  37.586   1.727
 6085W        W78510  23.455  40.935  12.124
 6086W        W78511  13.054  15.480   1.812
 6087W        W78512  25.537  11.875   1.364
 6088W        W78513   8.370   6.168  11.103
 6089W        W78514  41.416   9.154   2.926
 6090W        W78515  42.748  19.602   0.355
 6091W        W78516   7.220  31.477   4.192
 6092W        W78517  44.311  40.738   0.887
 6093W        W78518  31.242   0.507  12.155
 6094W        W78519  27.694  17.245   4.151
 6095W        W78520  16.531   1.041   3.538
 6096W        W78521   6.719  14.340  13.071
 6097W        W78522  28.821   3.781  14.984
 6098W        W78523  11.870  32.552  12.483
 6099W        W78524  10.422  36.115   3.099
 6100W        W78525  15.091   4.922   3.232
 6101W        W78526  15.306  36.960   3.428
 6102W        W78527  31.095  16.685   1.334
 6103W        W78528   2.342  14.627   4.620
 6104W        W78529  11.699  26.161   1.513
 6105W        W78530  27.145  30.957   2.871
 6106W        W78531  32.823  22.535   4.690
 6107W        W78532  35.473   8.135  12.090
 6108W        W78533   5.931  18.660  11.392
 6109W        W78534   9.488  18.294  11.031
 6110W        W78535  38.366  28.690   1.249
 6111W        W78536  18.072   9.636  14.004
 6112W        W78537  10.169  12.781  14.338
 6113W        W78538  10.767  10.010   1.606
 6114W        W78539   5.172  10.170   3.659
 6115W        W78540   9.750  10.176   3.314
 6116W        W78541  14.216  29.235   1.443
 6117W        W78542  25.436  40.762  12.813
 6118W        W78543   0.890  28.456   1.275
 6119W        W78544  22.017  42.532   3.198
 6120W        W78545  38.396   9.182   1.888
 6121W        W78546  37.418  24.748  11.593
 6122W        W78547   9.653  42.786   3.654
 6123W        W78548  16.309  23.491   3.174
 6124W        W78549   4.953  42.900   0.355
 6125W        W78550   8.392  20.769  13.422
 6126W        W78551   6.912   6.827  12.874
 6127W        W78552  29.673  27.192   2.844
 6128W        W78553  23.626   8.690  12.114
 6129W        W78554  16.289  34.833  14.362
 6130W        W78555  32.346  24.196  14.979
 6131W        W78556  26.009  16.141  13.308
 6132W        W78557  25.541  21.956   0.247
 6133W        W78558  41.330  25.623   1.210
 6134W        W78559   5.431   4.807   0.975
 6135W        W78560   6.859  23.863  13.356
 6136W        W78561  35.826   9.281  11.639
 6137W        W78562   3.264  26.108   2.244
 6138W        W78563  18.668  28.891   3.496
 6139W        W78564  41.880  20.808   0.962
 6140W        W78565  40.998   4.214  13.049
 6141W        W78566  29.181  32.033   0.915
 6142W        W78567  34.428  29.207  10.618
 6143W        W78568  35.483  22.257   3.908
 6144W        W78569  17.403   1.851  12.386
 6145W        W78570  11.286   6.456   1.961
 6146W        W78571  32.866  18.508  10.677
 6147W        W78572   3.938  38.112   2.359
 6148W        W78573  31.348  13.142  14.318
 6149W        W78574  12.903  31.589   4.635
 6150W        W78575  20.245  11.027  12.223
 6151W        W78576  11.062  23.184  12.992
 6152W        W78577   2.946  21.928  14.899
 6153W        W78578  12.871  32.820   0.446
 6154W        W78579  14.058  20.605   1.380
 6155W        W78580  12.494  11.061   3.623
 6156W        W78581   8.654  30.495   4.658
 6157W        W78582  37.452  13.015  10.687
 6158W        W78583  44.902  36.725  13.418
 6159W        W78584  29.145   9.565  11.151
 6160W        W78585  42.219   4.887   0.400
 6161W        W78586  15.553  20.640   4.329
 6162W        W78587  25.225  15.388  12.416
 6163W        W78588  17.121  11.067  10.724
 6164W        W78589  28.225  13.873  13.849
 6165W        W78590  27.931  24.982   3.360
 6166W        W78591  10.071  34.166  14.503
 6167W        W78592   0.742  12.366  11.461
 6168W        W78593   5.933   6.022  13.133
 6169W        W78594  22.706   6.409  14.840
 6170W        W78595   7.757  29.042  11.499
 6171W        W78596  14.677   9.855   3.148
 6172W        W78597  17.713  44.734  11.696
 6173W        W78598  33.204  35.935  12.507
 6174W        W78599   5.403   7.741  14.626
 6175W        W78600  44.250  21.290   3.619
 6176W        W78601   7.391  22.816   1.281
 6177W        W78602  17.285  38.011  13.087
 6178W        W78603  10.625  37.505  13.982
 6179W        W78604   6.985  35.460  11.586
 6180W        W78605  12.172  18.862  10.515
 6181W        W78606   3.921  23.456   2.866
 6182W        W78607  36.501  38.331  12.820
 6183W        W78608   7.192   3.710   3.145
 6184W        W78609  43.308  25.750  10.711
 6185W        W78610  14.684  25.841  14.692
 6186W        W78611  23.622  19.525   0.203
 6187W        W78612  13.892  27.164   4.223
 6188W        W78613  24.597  32.365   3.409
 6189W        W78614  26.722   3.891   1.749
 6190W        W78615  42.845   2.582  14.272
 6191W        W78616   4.314   9.378  11.744
 6192W        W78617   8.970  40.509   0.304
 6193W        W78618  17.065  20.683   0.121
 6194W        W78619  29.260  28.180   4.594
 6195W        W78620  31.625  40.925  13.462
 6196W        W78621   9.148  28.054  13.135
 6197W        W78622  43.952  35.139  13.555
 6198W        W78623  35.400  38.056  14.814
 6199W        W78624  15.025  18.549  11.431
 6200W        W78625  35.361   1.610  10.688
 6201W        W78626  18.631  11.580  11.621
 6202W        W78627  14.298  22.474   1.345
 6203W        W78628   6.414  26.507   4.239
 6204W        W78629   3.116  38.799   1.269
 6205W        W78630  28.846  41.397   4.605
 6206W        W78631   3.676  22.631  11.433
 6207W        W78632  41.548  19.999  11.510
 6208W        W78633  31.495  33.046  14.936
 6209W        W78634  39.852  17.759   4.496
 6210W        W78635  35.518   1.567  14.942
 6211W        W78636  15.084   6.922  13.462
 6212W        W78637  32.173  11.346  11.081
 6213W        W78638  40.386  32.638  13.074
 6214W        W78639  11.187  38.057   4.541
 6215W        W78640  34.120  30.988  11.196
 6216W        W78641  40.967  18.213   4.557
 6217W        W78642   6.678  36.972  13.928
 6218W        W78643  34.570  14.568  13.429
 6219W        W78644  40.548  38.450   1.154
 6220W        W78645  26.551   3.991   3.154
 6221W        W78646  26.272  28.783   5.380
 6222W        W78647  17.645  43.832   4.817
 6223W        W78648  20.705   2.594   1.230
 6224W        W78649   3.850  41.774  14.752
 6225W        W78650   4.461  28.418   0.241
 6226W        W78651  37.067  35.873  10.699
 6227W        W78652  28.973  23.981  13.091
 6228W        W78653  30.400  17.700   0.918
 6229W        W78654  10.860  42.958  13.484
 6230W        W78655  41.617  23.071   2.084
 6231W        W78656  34.098  36.321   2.075
 6232W        W78657  22.934  29.172  14.436
 6233W        W78658  22.477  44.688   4.162
 6234W        W78659  16.079  22.534  10.230
 6235W        W78660  18.640  44.122  13.477
 6236W        W78661  33.954  32.466   3.293
 6237W        W78662   7.228  43.489   3.613
 6238W        W78663  37.562  13.480   3.313
 6239W        W78664  24.500  34.591   5.104
 6240W        W78665  30.412  19.224  13.034
 6241W        W78666  34.051   5.313  13.514
 6242W        W78667  37.886  35.982  11.158
 6243W        W78668  26.630   2.424  13.601
 6244W        W78669  18.137   7.432   4.693
 6245W        W78670   6.934  28.961  12.046
 6246W        W78671  23.241  14.239   4.671
 6247W        W78672  32.073  44.248  11.043
 6248W        W78673  43.232  35.837   0.332
 6249W        W78674   0.890  27.944   1.306
 6250W        W78675  33.390  21.116   0.571
 6251W        W78676  17.019  44.497  10.771
 6252W        W78677  31.447  36.613  12.589
 6253W        W78678  24.474  44.059   1.347
 6254W        W78679  26.180  37.363  13.892
 6255W        W78680   4.281  40.495   2.437
 6256W        W78681   1.177  16.794  11.531
 6257W        W78682  12.312  40.601  12.813
 6258W        W78683  28.225  27.021   4.161
 6259W        W78684  35.615  33.870   1.733
 6260W        W78685  13.210  42.390  14.901
 6261W        W78686   4.817  29.916   2.495
 6262W        W78687   6.601  30.359   0.925
 6263W        W78688  40.803  43.043  11.834
 6264W        W78689   3.259   7.751  10.872
 6265W        W78690   4.294  12.077   1.876
 6266W        W78691  42.895  19.091  12.180
 6267W        W78692  22.174  23.997  13.442
 6268W        W78693   6.879  37.342   1.962
 6269W        W78694  13.233  10.337   2.478
 6270W        W78695   1.874  10.205  13.332
 6271W        W78696  22.128   8.653  12.992
 6272W        W78697  10.323  16.605  13.001
 6273W        W78698  24.944  16.689  12.560
 6274W        W78699  35.441  18.964  13.025
 6275W        W78700   0.744  34.814   0.834
 6276W        W78701   8.958   7.642   3.641
 6277W        W78702  38.872  36.134  14.892
 6278W        W78703  31.141  16.145   1.305
 6279W        W78704   3.268  24.927   2.693
 6280W        W78705   1.385  10.372  10.977
 6281W        W78706  14.121  35.312  10.545
 6282W        W78707  38.628  13.137  13.043
 6283W        W78708  33.102  31.258  11.054
 6284W        W78709  20.649  27.614  13.083
 6285W        W78710  15.286  13.596   0.386
 6286W        W78711  10.346  34.745  11.598
 6287W        W78712  32.517  23.938   0.826
 6288W        W78713  33.981  35.999  14.079
 6289W        W78714   4.728  35.540  10.587
 6290W        W78715  20.427  30.536  11.146
 6291W        W78716  17.105  12.827   2.781
 6292W        W78717  44.844  41.399   3.869
 6293W        W78718  35.843  35.518   4.475
 6294W        W78719  25.153  36.955  13.402
 6295W        W78720  31.383  13.761   3.776
 6296W        W78721   7.477  41.021  12.877
 6297W        W78722  29.637  20.928   9.853
 6298W        W78723  20.120  43.292   4.537
 6299W        W78724  32.010   8.462  13.761
 6300W        W78725  11.141  10.735  13.588
 6301W        W78726  42.120  33.206   0.250
 6302W        W78727  11.490  33.121   0.282
 6303W        W78728  25.922  38.631   2.203
 6304W        W78729  24.957   6.775  10.913
 6305W        W78730  35.533   5.508   4.112
 6306W        W78731  21.220   6.872   4.198
 6307W        W78732   4.727  29.188   4.634
 6308W        W78733  35.440  12.079  12.826
 6309W        W78734  14.415  15.295   2.294
 6310W        W78735  19.338  33.042  11.545
 6311W        W78736  19.552  42.489  11.666
 6312W        W78737  17.836  36.621  13.465
 6313W        W78738  13.713  12.205   1.651
 6314W        W78739  39.393   2.609  13.905
 6315W        W78740  43.430  32.664   4.696
 6316W        W78741  21.214   5.731  10.536
 6317W        W78742   7.697   1.710  14.356
 6318W        W78743  17.747   3.167   2.186
 6319W        W78744  33.137  26.664  12.259
 6320W        W78745  19.121  22.362   1.384
 6321W        W78746   1.574  19.934  10.687
 6322W        W78747  25.048  20.182  14.987
 6323W        W78748   0.312  19.513   2.178
 6324W        W78749  32.060   8.375   2.478
 6325W        W78750  36.244  35.597  11.269
 6326W        W78751   6.461   0.271   1.137
 6327W        W78752  11.569  25.697   0.916
 6328W        W78753  12.272   3.492   2.372
 6329W        W78754  16.689  12.660  12.836
 6330W        W78755  31.207  24.268   2.814
 6331W        W78756  37.096  22.414  12.483
 6332W        W78757  17.724   0.631   2.212
 6333W        W78758  27.901  35.993   3.121
 6334W        W78759  15.246  34.539   0.005
 6335W        W78760   6.710   9.888   2.810
 6336W        W78761  37.113   6.848   1.127
 6337W        W78762   9.455   9.316  13.418
 6338W        W78763  44.420  11.365   4.143
 6339W        W78764  19.932  23.808  11.132
 6340W        W78765  29.729  18.153   1.392
 6341W        W78766  27.858  18.482   5.015
 6342W        W78767   6.160  31.843   0.360
 6343W        W78768  35.068  38.577   3.194
 6344W        W78769  40.733  33.349  13.902
 6345W        W78770  31.133  10.085  12.960
 6346W        W78771  38.455  36.858  13.190
 6347W        W78772  30.040  32.958   3.229
 6348W        W78773  11.140  35.074  14.688
 6349W        W78774  20.612  43.444   4.635
 6350W        W78775   1.766  36.556   3.722
 6351W        W78776   6.445   1.750  13.983
 6352W        W78777   7.904  32.852   3.164
 6353W        W78778  12.736   6.895  11.952
 6354W        W78779   8.705  21.123   1.299
 6355W        W78780  42.484  12.825  13.404
 6356W        W78781  17.787  29.411  11.004
 6357W        W78782  37.564  36.544  14.850
 6358W        W78783  44.606  25.956   4.305
 6359W        W78784  29.948   6.139  12.530
 6360W        W78785   8.296  32.838  11.997
 6361W        W78786  42.346   3.793  14.372
 6362W        W78787  29.081  39.293  13.386
 6363W        W78788  26.149  31.391   2.173
 6364W        W78789  13.758  14.675  12.817
 6365W        W78790  18.487  21.115   2.760
 6366W        W78791   3.550  23.549   4.334
 6367W        W78792  35.720   0.738  12.794
 6368W        W78793  24.742  31.426   5.067
 6369W        W78794  26.203  37.459  11.083
 6370W        W78795  44.744  11.593  12.984
 6371W        W78796  30.411  13.048  11.158
 6372W        W78797  40.890  25.204  13.144
 6373W        W78798   0.964  13.074  13.073
 6374W        W78799  19.062  22.261  10.626
 6375W        W78800  13.867   5.330  13.976
 6376W        W78801  39.461   4.969   2.121
 6377W        W78802  32.107  32.461   0.271
 6378W        W78803  22.190  43.461  14.950
 6379W        W78804   2.770  37.341  12.668
 6380W        W78805  40.326  12.549  11.614
 6381W        W78806  37.649  43.398  14.431
 6382W        W78807  28.650   2.790  12.659
 6383W        W78808  11.530   9.601   0.022
 6384W        W78809  41.862  43.410   2.423
 6385W        W78810   0.766  13.201   1.939
 6386W        W78811  27.050  18.045  14.510
 6387W        W78812  41.105  37.647  11.617
 6388W        W78813   8.466   4.883   0.549
 6389W        W78814  18.961  14.340   3.952
 6390W        W78815  22.046  39.886  10.526
 6391W        W78816  34.393  29.719  13.882
 6392W        W78817  18.650   5.513  11.052
 6393W        W78818   0.894  25.258  12.155
 6394W        W78819  19.156  29.200  12.671
 6395W        W78820  28.089   5.131   2.903
 6396W        W78821  15.824  30.419  12.458
 6397W        W78822  42.025  13.359  12.573
 6398W        W78823  29.169  42.168   3.065
 6399W        W78824  24.592  14.225   2.191
 6400W        W78825  31.980  15.349   4.306
 6401W        W78826  34.157  30.091  14.291
 6402W        W78827  28.456  40.488  13.980
 6403W        W78828   9.261  37.555   1.210
 6404W        W78829  15.049   2.864  11.229
 6405W        W78830   1.343   7.099  12.612
 6406W        W78831  14.085  28.658   4.101
 6407W        W78832  36.260  36.973  12.909
 6408W        W78833  38.627  27.794   5.021
 6409W        W78834  23.935   4.883   1.491
 6410W        W78835   1.017  36.012   2.853
 6411W        W78836   9.845  35.528  11.585
 6412W        W78837  36.008  40.794  14.798
 6413W        W78838  14.621  24.035   4.935
 6414W        W78839   5.720  32.797  13.373
 6415W        W78840  27.416  39.224   4.607
 6416W        W78841  43.921   8.898  11.497
 6417W        W78842  33.017  27.676   3.285
 6418W        W78843   3.595  34.976  14.441
 6419W        W78844  17.186  31.919   0.655
 6420W        W78845  41.916  44.279   4.553
 6421W        W78846  28.730  31.968  13.502
 6422W        W78847   4.372  28.548   1.749
 6423W        W78848   8.923  23.150   3.251
 6424W        W78849  32.714  44.466  13.438
 6425W        W78850  14.951   9.454  11.001
 6426W        W78851  15.385  44.940   2.337
 6427W        W78852  32.581  27.543  14.705
 6428W        W78853  28.715  25.626   0.435
 6429W        W78854  15.590   4.835  12.420
 6430W        W78855   0.359  26.166  14.155
 6431W        W78856  10.196  12.900  13.378
 6432W        W78857   1.003  23.901   0.734
 6433W        W78858  34.444  40.364   4.217
 6434W        W78859   5.264   9.905   4.150
 6435W        W78860  35.364  38.993  10.617
 6436W        W78861  25.136  20.725  14.957
 6437W        W78862  10.337  22.903   3.255
 6438W        W78863  13.551  23.058  11.885
 6439W        W78864  34.226   0.491   1.272
 6440W        W78865  13.863   1.242  10.666
 6441W        W78866  17.702  13.778   3.626
 6442W        W78867  12.856  14.639   1.638
 6443W        W78868  13.796  26.096   4.910
 6444W        W78869  33.725   7.362  14.462
 6445W        W78870  42.781  31.780  11.094
 6446W        W78871  31.074   8.347  10.631
 6447W        W78872   7.920   9.669   1.807
 6448W        W78873  34.400  38.817  14.442
 6449W        W78874  12.701   1.507  13.404
 6450W        W78875   5.553  35.951  14.301
 6451W        W78876   8.595  43.080  10.134
 6452W        W78877   9.146   6.765   0.387
 6453W        W78878  34.311  13.223   3.725
 6454W        W78879  22.038  14.697   1.973
 6455W        W78880  41.610   9.615  12.012
 6456W        W78881  40.263  14.709  11.483
 6457W        W78882  26.332   2.225   1.213
 6458W        W78883  34.091  33.549  14.976
 6459W        W78884   8.677  12.650  11.647
 6460W        W78885   9.412  16.121  12.416
 6461W        W78886  16.592  36.464  14.042
 6462W        W78887  39.720  28.570   0.191
 6463W        W78888  38.509  40.892  14.959
 6464W        W78889   6.067  19.194  14.933
 6465W        W78890  24.433  11.980  10.483
 6466W        W78891   7.614   6.844  11.516
 6467W        W78892   6.941  21.203   2.229
 6468W        W78893  21.540  24.542   1.001
 6469W        W78894  21.740  13.099  14.942
 6470W        W78895  23.034  17.833  12.418
 6471W        W78896  34.327  22.565   3.355
 6472W        W78897  13.248  22.107   4.517
 6473W        W78898  40.380  24.915  14.360
 6474W        W78899  27.593  25.254  12.093
 6475W        W78900  36.481  15.656  14.858
 6476W        W78901   7.470  18.624   0.819
 6477W        W78902   5.401  11.671   0.519
 6478W        W78903  31.212  27.676  13.343
 6479W        W78904  12.384  43.240  14.171
 6480W        W78905   4.486  31.739   3.221
 6481W        W78906   9.797  28.926   2.797
 6482W        W78907  31.060  29.611   1.705
 6483W        W78908  15.786  27.906   2.653
 6484W        W78909  34.049  31.684   2.471
 6485W        W78910  26.033  20.172   0.547
 6486W        W78911   7.602  30.619   0.889
 6487W        W78912  37.453  11.087   2.520
 6488W        W78913  10.736  41.018   0.943
 6489W        W78914  43.009  36.350   0.924
 6490W        W78915  41.238  38.048  12.348
 6491W        W78916   3.138   3.789  12.069
 6492W        W78917   3.484  37.262   1.584
 6493W        W78918   5.541   1.297  13.938
 6494W        W78919  11.083   6.488  12.009
 6495W        W78920  27.500  15.634   3.213
 6496W        W78921  13.408  33.513  13.466
 6497W        W78922   4.832  28.231   1.783
 6498W        W78923  32.838  26.378  11.434
 6499W        W78924  11.592  15.192   2.274
 6500W        W78925  30.982   7.658   0.819
 6501W        W78926  44.945  31.580  12.198
 6502W        W78927  44.957  37.405   4.741
 6503W        W78928  25.497  24.656  14.397
 6504W        W78929  32.309  11.641   3.369
 6505W        W78930  14.106  20.959   3.345
 6506W        W78931  32.480  24.222  13.282
 6507W        W78932  28.479  38.017  12.238
 6508W        W78933  12.393  30.609  13.375
 6509W        W78934   4.433  19.554  12.848
 6510W        W78935  28.999  30.170   0.357
 6511W        W78936  39.205  20.638  13.229
 6512W        W78937  36.430   8.418  10.344
 6513W        W78938  23.235  29.882   4.336
 6514W        W78939  13.438  16.311   4.534
 6515W        W78940  25.655  25.460   0.301
 6516W        W78941  31.549   7.738   2.579
 6517W        W78942  32.018  17.491   2.897
 6518W        W78943  20.746  12.227   2.818
 6519W        W78944  19.965  27.699   1.323
 6520W        W78945   8.848  16.553   3.638
 6521W        W78946   7.236  23.228   2.161
 6522W        W78947  35.411  10.158  10.870
 6523W        W78948  33.317  31.847   1.164
 6524W        W78949  17.569   6.839   0.352
 6525W        W78950   3.879  37.814   3.806
 6526W        W78951  31.151  41.760  10.956
 6527W        W78952  27.955  22.614  14.050
 6528W        W78953  34.617  11.033  13.879
 6529W        W78954   1.705  12.218  13.264
 6530W        W78955  13.610  13.790   4.862
 6531W        W78956  22.136  39.552  11.401
 6532W        W78957  30.559  14.712   1.861
 6533W        W78958  12.319  23.043   4.434
 6534W        W78959  36.832  24.263   3.746
 6535W        W78960  18.853  24.401  12.027
 6536W        W78961   8.654  34.049  14.280
 6537W        W78962  11.787   2.253  12.989
 6538W        W78963  22.147   8.092   2.600
 6539W        W78964  17.274  10.263  12.196
 6540W        W78965  23.475  11.196  14.910
 6541W        W78966  35.941  33.942  12.091
 6542W        W78967  32.502  35.658  14.864
 6543W        W78968  42.580  24.615  12.878
 6544W        W78969  35.114   6.650   3.161
 6545W        W78970  11.714  37.066  10.349
 6546W        W78971  24.964  22.183   1.713
 6547W        W78972  24.536  32.811  10.081
 6548W        W78973  42.820  42.134   4.028
 6549W        W78974  31.960  10.457   0.435
 6550W        W78975  21.574  26.190   1.725
 6551W        W78976  30.633  20.550   3.573
 6552W        W78977  33.708  28.716   1.966
 6553W        W78978   8.234  28.817   1.788
 6554W        W78979   3.272   6.601  12.719
 6555W        W78980  27.477  19.532  12.596
 6556W        W78981  28.515  42.449  11.842
 6557W        W78982   8.341  12.389   2.651
 6558W        W78983  15.347  14.574   0.319
 6559W        W78984  43.279  31.191  14.788
 6560W        W78985  15.110  28.495  12.931
 6561W        W78986  38.060  16.624   3.905
 6562W        W78987  39.446  17.597  12.019
 6563W        W78988  21.606  15.506  12.472
 6564W        W78989  11.785  14.897  13.349
 6565W        W78990  24.063  22.579   4.418
 6566W        W78991  33.725   6.823  11.082
 6567W        W78992  14.018  30.084  13.042
 6568W        W78993  17.829  33.590   5.468
 6569W        W78994   8.147  39.294  10.662
 6570W        W78995  41.356  28.725   3.604
 6571W        W78996  33.042  15.929  12.063
 6572W        W78997   4.377  35.551  12.483
 6573W        W78998  26.024   9.346  12.609
 6574W        W78999  40.915   4.255  14.565
 6575W        W79000  29.903  28.182   1.328
 6576W        W79001  36.109  37.640   4.195
 6577W        W79002  10.621   6.604  10.737
 6578W        W79003  20.205  13.834   0.367
 6579W        W79004  34.524   5.827  10.551
 6580W        W79005  21.922   0.255  13.083
 6581W        W79006   7.281   3.653   2.119
 6582W        W79007  11.812  21.707  13.357
 6583W        W79008  38.419   8.813  10.219
 6584W        W79009  42.560   7.845   1.738
 6585W        W79010  32.320  32.058  11.831
 6586W        W79011  15.167  17.189   0.666
 6587W        W79012   1.191  40.838  11.130
 6588W        W79013  28.631  32.728  14.323
 6589W        W79014  12.795  23.943  12.052
 6590W        W79015  24.211  39.841  14.611
 6591W        W79016  27.506  18.754  14.891
 6592W        W79017  28.414  10.319   2.139
 6593W        W79018  16.787  16.597  12.035
 6594W        W79019  21.436  38.921  13.342
 6595W        W79020   3.862   8.641  12.569
 6596W        W79021  24.917  39.789  14.825
 6597W        W79022  41.948  20.189  10.209
 6598W        W79023  30.945  43.393  11.553
 6599W        W79024  36.059  33.529   3.756
 6600W        W79025  23.193   2.840   3.607
 6601W        W79026  17.817  20.867   1.997
 6602W        W79027  27.546  29.046  13.447
 6603W        W79028  16.320  20.046   0.759
 6604W        W79029  25.496  40.493   3.714
 6605W        W79030  33.110  35.932   0.214
 6606W        W79031  38.839  34.332   3.180
 6607W        W79032   9.216  38.433   0.645
 6608W        W79033  28.938  16.194  11.833
 6609W        W79034  39.423  14.555   3.314
 6610W        W79035  40.893  43.372  14.045
 6611W        W79036   2.107  27.771  13.856
 6612W        W79037  39.913  31.885   3.367
 6613W        W79038  35.938  29.494   4.753
 6614W        W79039   2.810  25.505   4.680
 6615W        W79040  44.295  31.492   2.673
 6616W        W79041  40.578  14.819  11.856
 6617W        W79042   0.011  34.822  11.744
 6618W        W79043   2.500  39.495  14.090
 6619W        W79044  37.968  38.812  10.163
 6620W        W79045  29.449  20.257  11.105
 6621W        W79046  16.745   4.778   3.101
 6622W        W79047  35.920  26.686  13.813
 6623W        W79048   6.298  42.804   2.869
 6624W        W79049  23.135  38.555  12.106
 6625W        W79050  31.238  37.956   3.234
 6626W        W79051  28.373   1.532   2.998
 6627W        W79052  10.192  35.483  12.908
 6628W        W79053   7.780  16.797   3.145
 6629W        W79054  27.913  22.938   0.950
 6630W        W79055  30.154  22.783  11.558
 6631W        W79056  44.932  43.816   4.628
 6632W        W79057  38.842  11.210   3.750
 6633W        W79058  37.876   6.418   4.447
 6634W        W79059  18.802  43.005   3.138
 6635W        W79060  27.141  26.359   0.940
 6636W        W79061  44.527   8.790   3.281
 6637W        W79062  13.684  13.661  12.999
 6638W        W79063   6.469  15.771   3.087
 6639W        W79064  35.740  36.913  11.306
 6640W        W79065   6.441  16.217  12.322
 6641W        W79066  37.810  26.088  12.526
 6642W        W79067  13.987  33.190  14.420
 6643W        W79068  37.879  27.625  11.267
 6644W        W79069  25.466  30.520   2.720
 6645W        W79070  36.040   6.332   2.929
 6646W        W79071  30.337  12.884   2.285
 6647W        W79072  13.722  15.889  14.991
 6648W        W79073   0.722  11.742   0.225
 6649W        W79074  25.475   3.573  11.635
 6650W        W79075  37.496  36.341  13.731
 6651W        W79076  21.284  20.908  13.847
 6652W        W79077   4.857   7.313  13.837
 6653W        W79078   3.689  43.627   0.901
 6654W        W79079   4.349   2.317  13.555
 6655W        W79080  26.776  40.276  12.334
 6656W        W79081   6.252  36.614  14.023
 6657W        W79082  22.279   8.229   0.306
 6658W        W79083  12.893  44.799  12.418
 6659W        W79084  23.785  44.191  10.845
 6660W        W79085   6.439  30.879   4.312
 6661W        W79086   8.819  32.356  12.912
 6662W        W79087   3.480   0.380  13.868
 6663W        W79088  23.069  33.909   2.681
 6664W        W79089  27.980  10.161  12.466
 6665W        W79090  33.128  32.110   1.796
 6666W        W79091   7.274  27.760   4.660
 6667W        W79092  20.019  13.878  10.789
 6668W        W79093  23.469   4.905  11.935
 6669W        W79094  34.146  33.512  11.464
 6670W        W79095   5.255  23.617   0.523
 6671W        W79096  19.312  12.383  14.482
 6672W        W79097  39.471  16.694  14.770
 6673W        W79098  16.112  26.144  13.777
 6674W        W79099  21.829  21.266  11.141
 6675W        W79100  41.078   8.212   0.877
 6676W        W79101  21.774  40.929  11.370
 6677W        W79102  14.648  37.614   3.649
 6678W        W79103  34.858  16.110  13.351
 6679W        W79104   0.816  41.376  12.697
 6680W        W79105  25.283  22.215  12.968
 6681W        W79106  23.388  37.649  14.051
 6682W        W79107   1.981  42.764  13.892
 6683W        W79108  16.139  30.975   0.677
 6684W        W79109  10.874  43.289   1.386
 6685W        W79110  18.763  11.014  10.328
 6686W        W79111  36.453  44.518  11.563
 6687W        W79112  28.640  10.372   1.208
 6688W        W79113   9.909   1.941  14.935
 6689W        W79114  16.703  18.777   3.487
 6690W        W79115   6.790  14.422  13.892
 6691W        W79116  44.810   5.782  12.427
 6692W        W79117   3.366  23.663  12.587
 6693W        W79118   8.637   4.249  11.898
 6694W        W79119  44.940  31.444   5.415
 6695W        W79120  21.519  29.519  10.694
 6696W        W79121  11.183  37.153  14.138
 6697W        W79122  26.928  35.546   2.224
 6698W        W79123  22.786  16.650  14.861
 6699W        W79124  39.790  14.336  11.251
 6700W        W79125  23.838  31.977  14.404
 6701W        W79126   4.521   1.195  11.949
 6702W        W79127  17.236  33.317   2.252
 6703W        W79128  31.400  41.445   1.654
 6704W        W79129  10.943  11.887  14.520
 6705W        W79130  23.638   5.521   0.363
 6706W        W79131  20.031   5.718   2.585
 6707W        W79132  18.127   3.921  11.517
 6708W        W79133  25.013  42.761  14.791
 6709W        W79134  26.347  40.498   1.754
 6710W        W79135  28.840  20.647  14.068
 6711W        W79136  33.676  20.227  13.815
 6712W        W79137   1.555   3.484   1.588
 6713W        W79138  41.436  22.169  14.589
 6714W        W79139  10.772  31.744   3.209
 6715W        W79140  20.253  11.128   4.104
 6716W        W79141  26.658  20.227  14.244
 6717W        W79142  14.535  28.111  14.521
 6718W        W79143  32.350  40.470  13.577
 6719W        W79144   0.737  26.207  13.099
 6720W        W79145  23.578  23.170   2.398
 6721W        W79146  28.924  31.749   0.199
 6722W        W79147  44.209  36.401  12.966
 6723W        W79148   4.509   6.824   0.015
 6724W        W79149   5.853  16.139  10.801
 6725W        W79150  23.640  22.657  10.880
 6726W        W79151  24.061  18.159  12.577
 6727W        W79152   3.785  41.494   4.551
 6728W        W79153  39.338  32.971  13.587
 6729W        W79154   0.284  31.943  13.417
 6730W        W79155  23.571  28.159  12.974
 6731W        W79156  36.390  30.473   1.906
 6732W        W79157  17.098  28.330   4.269
 6733W        W79158  31.696  20.641  11.044
 6734W        W79159  40.068   3.204  13.399
 6735W        W79160  10.837  25.692  14.652
 6736W        W79161  28.866  28.979   0.746
 6737W        W79162  44.784  40.499   0.905
 6738W        W79163  24.101  20.122   4.221
 6739W        W79164  32.359  37.475  11.674
 6740W        W79165  11.745  44.342  10.322
 6741W        W79166  32.649  21.626   1.824
 6742W        W79167  17.222  12.741   3.673
 6743W        W79168  12.236   2.364  11.991
 6744W        W79169  13.197  40.722   1.262
 6745W        W79170  41.465  16.033  11.972
 6746W        W79171   0.903  25.873   2.211
 6747W        W79172  26.149   8.556  11.115
 6748W        W79173  12.940  11.218  14.299
 6749W        W79174  24.002  33.485   3.221
 6750W        W79175  10.721  34.617  14.682
 6751W        W79176  26.138   1.245   0.644
 6752W        W79177  15.712   8.467   2.863
 6753W        W79178   7.417   8.175   0.339
 6754W        W79179  37.322  15.093   0.435
 6755W        W79180  37.971  28.028   4.183
 6756W        W79181  25.600  21.129  14.676
 6757W        W79182   8.585  32.449  11.680
 6758W        W79183   2.417  15.109  13.317
 6759W        W79184   4.158   8.884  11.065
 6760W        W79185  40.092  34.308  12.973
 6761W        W79186  30.292  31.686  11.090
 6762W        W79187  20.715   9.369   3.691
 6763W        W79188  13.973  12.392  12.940
 6764W        W79189  27.633  31.898   3.851
 6765W        W79190  28.961  41.192   2.766
 6766W        W79191  24.542  16.818  13.370
 6767W        W79192  26.294   6.275   0.063
 6768W        W79193  28.468   5.797   1.911
 6769W        W79194  40.870  11.936   3.797
 6770W        W79195   0.452  40.515   2.348
 6771W        W79196  19.205  44.797  13.362
 6772W        W79197  41.540  25.951  12.349
 6773W        W79198  34.342   8.750   1.436
 6774W        W79199  10.243  24.048   3.412
 6775W        W79200   1.483  36.573  13.408
 6776W        W79201  36.021   4.321  12.880
 6777W        W79202  27.346  11.693   3.066
 6778W        W79203  41.913  40.373   4.752
 6779W        W79204  12.568   2.298  12.418
 6780W        W79205  18.792   8.721   1.767
 6781W        W79206  21.632  37.547   1.721
 6782W        W79207  29.432  41.381   5.458
 6783W        W79208  17.717   9.290   4.839
 6784W        W79209  22.504  26.576   9.992
 6785W        W79210  37.431  41.988   1.784
 6786W        W79211  21.266  21.363  11.782
 6787W        W79212  33.565   4.342  14.566
 6788W        W79213  42.345   7.303  11.055
 6789W        W79214  40.936   0.834   4.598
 6790W        W79215  10.835  37.794   4.944
 6791W        W79216  41.466  44.824   3.677
 6792W        W79217  44.219   8.210  13.260
 6793W        W79218  14.163  25.005  12.051
 6794W        W79219   2.312  22.127   0.440
 6795W        W79220  31.461  15.054  12.071
 6796W        W79221  14.491  41.285   4.412
 6797W        W79222  31.010   0.626  14.241
 6798W        W79223  31.875   5.266  12.862
 6799W        W79224  28.070  19.473   1.960
 6800W        W79225  12.120  37.346  12.975
 6801W        W79226   4.287  23.948   0.727
 6802W        W79227  44.491  37.619   4.659
 6803W        W79228  29.299  17.554   3.211
 6804W        W79229  32.157  15.664   3.391
 6805W        W79230  16.173  21.475  11.159
 6806W        W79231  32.780  22.731   0.074
 6807W        W79232  12.343  10.678  14.377
 6808W        W79233  40.633  18.629  10.965
 6809W        W79234   4.080  22.614   1.712
 6810W        W79235  12.729  32.027  12.345
 6811W        W79236   9.294  35.544  11.586
 6812W        W79237  14.415   1.263  13.448
 6813W        W79238  23.630   4.423   3.069
 6814W        W79239  22.249  44.120  11.402
 6815W        W79240  28.950  15.691   0.695
 6816W        W79241   5.717  18.699   4.436
 6817W        W79242  36.104  12.383   0.785
 6818W        W79243  30.440  40.488  12.928
 6819W        W79244   7.375  23.930   4.463
 6820W        W79245  32.545  41.075   0.373
 6821W        W79246  21.468   9.231   4.203
 6822W        W79247  37.133  43.367  10.739
 6823W        W79248  29.955   1.011   4.603
 6824W        W79249   9.695  14.755   2.690
 6825W        W79250  30.438  25.535  14.064
 6826W        W79251  27.239  39.266  13.341
 6827W        W79252   7.378   5.671   0.089
 6828W        W79253  16.821   1.532  11.990
 6829W        W79254   2.675  19.491   1.255
 6830W        W79255  31.024  22.576   5.014
 6831W        W79256  23.584  31.485  14.370
 6832W        W79257  32.457  38.287  12.082
 6833W        W79258  32.066   6.757  12.523
 6834W        W79259  25.353  10.030   5.212
 6835W        W79260   2.024  30.862   2.632
 6836W        W79261  10.675   8.993   3.260
 6837W        W79262  31.906  39.894  12.505
 6838W        W79263  37.046  20.191   2.795
 6839W        W79264  16.907   4.939   1.693
 6840W        W79265  20.739  18.710  14.977
 6841W        W79266  22.664  29.981  12.338
 6842W        W79267  10.803  28.051   0.287
 6843W        W79268  17.382  37.945  14.844
 6844W        W79269  24.909  31.205  14.987
 6845W        W79270  17.680   0.586   4.851
 6846W        W79271  38.910  25.260   2.233
 6847W        W79272  13.740  25.877  14.278
 6848W        W79273  26.052   0.750  14.475
 6849W        W79274  23.824  35.638  13.098
 6850W        W79275  18.159  24.170  11.426
 6851W        W79276  21.600   3.237   3.856
 6852W        W79277  38.954  11.704   3.606
 6853W        W79278  27.903  38.022  10.358
 6854W        W79279  18.127   5.814   4.106
 6855W        W79280   3.549  31.864  11.200
 6856W        W79281   1.232  22.511  12.892
 6857W        W79282   0.435  23.683  14.394
 6858W        W79283  18.970  44.502  14.941
 6859W        W79284  12.429  13.150  12.551
 6860W        W79285  31.566  32.423   3.867
 6861W        W79286  26.668  27.991   3.381
 6862W        W79287  32.955  14.208   2.237
 6863W        W79288  35.834  17.252   1.787
 6864W        W79289  40.421  23.649   2.805
 6865W        W79290  14.754  21.137  13.902
 6866W        W79291  29.462  44.803   4.606
 6867W        W79292  28.179  23.605  10.251
 6868W        W79293   9.100  17.562  10.741
 6869W        W79294  24.584  11.900   4.301
 6870W        W79295  33.704  18.723   3.243
 6871W        W79296   0.998  43.988   3.766
 6872W        W79297  42.491   4.681   4.495
 6873W        W79298   7.442  17.598   3.089
 6874W        W79299  44.241  43.424  12.963
 6875W        W79300  24.538  19.112  11.600
 6876W        W79301  25.464  19.619   0.642
 6877W        W79302  38.837  42.533   1.322
 6878W        W79303  43.070  29.045   2.128
 6879W        W79304  23.074   5.997   0.778
 6880W        W79305  39.776  32.342  10.177
 6881W        W79306  14.582   9.854   0.517
 6882W        W79307   3.878   1.397  11.047
 6883W        W79308  31.860  44.846   1.359
 6884W        W79309  24.083  12.561  13.445
 6885W        W79310  10.214  26.871  14.547
 6886W        W79311  42.878   3.812  11.887
 6887W        W79312  31.693  44.231   3.146
 6888W        W79313  17.347   5.999   0.058
 6889W        W79314  39.332  30.038   0.966
 6890W        W79315  14.197  24.713   0.298
 6891W        W79316   9.527   3.986   1.404
 6892W        W79317  42.378  41.465  10.452
 6893W        W79318  20.404  35.429   4.565
 6894W        W79319   0.755  21.982   4.689
 6895W        W79320   0.272   1.749   4.626
 6896W        W79321  25.954  11.063   0.367
 6897W        W79322  10.731   8.700  12.103
 6898W        W79323  22.220  44.202   4.301
 6899W        W79324   9.508  43.396   4.055
 6900W        W79325  17.576  39.469  12.057
 6901W        W79326   8.427  23.026  13.931
 6902W        W79327  44.862   4.637   3.240
 6903W        W79328  20.009  30.195  14.287
 6904W        W79329  36.024  34.342  13.454
 6905W        W79330  44.247  34.450  12.609
 6906W        W79331  19.070  14.123  12.954
 6907W        W79332   2.319  29.055  10.260
 6908W        W79333  19.023  34.595  11.136
 6909W        W79334  17.080  30.484   4.151
 6910W        W79335  41.152  18.597   3.790
 6911W        W79336   0.785   6.157   4.199
 6912W        W79337  35.852  17.520  11.582
 6913W        W79338   0.898  22.399  13.373
 6914W        W79339  34.030  34.501   2.290
 6915W        W79340  13.753  11.073  13.112
 6916W        W79341  40.369   3.415   5.048
 6917W        W79342   1.040  10.892   1.679
 6918W        W79343   5.325  18.471  13.111
 6919W        W79344  39.794   1.399  14.914
 6920W        W79345  20.674  22.619  11.008
 6921W        W79346  17.308  24.025  13.324
 6922W        W79347  12.701  30.989   3.577
 6923W        W79348  14.030  28.644  12.035
 6924W        W79349  33.155  12.408  11.654
 6925W        W79350  10.729  21.490   4.106
 6926W        W79351  33.357  21.838   1.461
 6927W        W79352  11.439  31.616  10.078
 6928W        W79353   3.952   8.934   2.386
 6929W        W79354   2.451  18.130  14.028
 6930W        W79355  44.743  30.099  11.461
 6931W        W79356   6.151   0.490   0.770
 6932W        W79357  35.900  39.393  14.731
 6933W        W79358  39.274  14.204  12.075
 6934W        W79359   2.339  42.436   3.259
 6935W        W79360  37.793  12.247   1.691
 6936W        W79361  15.653  44.392  11.123
 6937W        W79362  21.635  28.208  14.242
 6938W        W79363   0.163  25.634   1.674
 6939W        W79364  25.665  13.004   2.069
 6940W        W79365  26.611   4.475   5.144
 6941W        W79366  24.998  44.685   0.072
 6942W        W79367  26.656  34.991   0.981
 6943W        W79368   9.127  30.206  11.962
 6944W        W79369  15.384   5.713  14.879
 6945W        W79370  10.118  16.365  14.900
 6946W        W79371  44.332  11.096  11.982
 6947W        W79372   9.513  28.016   0.830
 6948W        W79373   6.436  39.979   4.252
 6949W        W79374  11.120  43.744   1.244
 6950W        W79375  22.180  10.326  10.629
 6951W        W79376  11.112  44.462   4.017
 6952W        W79377  40.901  13.637   1.784
 6953W        W79378  37.601   5.093   4.193
 6954W        W79379   8.751  43.382  10.696
 6955W        W79380  17.711  22.027  14.404
 6956W        W79381  38.385  20.142   3.151
 6957W        W79382  37.779  38.348  10.408
 6958W        W79383  42.947  42.511  10.937
 6959W        W79384   6.937  22.165  10.999
 6960W        W79385  33.099  31.380   2.984
 6961W        W79386  33.886  14.083  14.255
 6962W        W79387   4.442  22.932  11.995
 6963W        W79388  35.474  32.623   2.175
 6964W        W79389  17.656  24.657  14.555
 6965W        W79390  32.206  44.418  13.321
 6966W        W79391  35.196  13.899  13.951
 6967W        W79392  31.563  34.331   2.228
 6968W        W79393  21.698  25.234   4.652
 6969W        W79394  44.218   3.719   2.696
 6970W        W79395  30.958  19.231  10.707
 6971W        W79396   2.903  20.718  10.330
 6972W        W79397   1.477  26.033   2.934
 6973W        W79398  14.214  30.047   4.441
 6974W        W79399   7.749   8.861   3.840
 6975W        W79400  12.827  32.150  14.221
 6976W        W79401   0.737  23.152   1.068
 6977W        W79402  32.072  35.678   1.427
 6978W        W79403   1.772   5.449  12.374
 6979W        W79404  23.777   4.672  14.912
 6980W        W79405  44.699  31.410  12.608
 6981W        W79406  10.103  36.331  14.336
 6982W        W79407  14.236  19.165  10.743
 6983W        W79408   3.842  41.937  12.733
 6984W        W79409  28.657  21.707   4.547
 6985W        W79410  30.641  39.052   0.393
 6986W        W79411  43.977  24.411   2.754
 6987W        W79412  18.853  38.956  11.032
 6988W        W79413  28.156   9.438   1.273
 6989W        W79414  36.405   3.981  13.039
 6990W        W79415  44.449  14.286   2.690
 6991W        W79416  19.570   0.108  12.353
 6992W        W79417  24.072  22.173  14.789
 6993W        W79418  37.711   8.774  13.287
 6994W        W79419  13.639  29.896   0.182
 6995W        W79420  34.999  29.868  14.354
 6996W        W79421   8.387  33.925  11.131
 6997W        W79422   7.274  41.246   2.399
 6998W        W79423  25.520   7.497  11.042
 6999W        W79424  18.303   1.294  12.005
 7000W        W79425  11.172  34.371  11.124
 7001W        W79426  41.937  34.098   2.573
 7002W        W79427   0.340   8.746   3.805
 7003W        W79428  27.398  24.273  14.095
 7004W        W79429  41.467  14.187   9.852
 7005W        W79430   2.690  24.484   3.188
 7006W        W79431  26.088  18.373   0.795
 7007W        W79432   2.495  26.006   2.687
 7008W        W79433  30.226  42.497  10.913
 7009W        W79434  40.163  42.538  12.483
 7010W        W79435  13.570  13.288   3.091
 7011W        W79436   8.421  25.418  11.928
 7012W        W79437   0.750  27.503   3.769
 7013W        W79438  17.796  11.180   2.754
 7014W        W79439  41.033   7.226  13.014
 7015W        W79440  43.999  14.492  14.328
 7016W        W79441  36.643   9.305   4.024
 7017W        W79442  42.414  39.989  10.358
 7018W        W79443   5.354   4.719  10.337
 7019W        W79444   3.370  13.130   0.269
 7020W        W79445  10.733   2.878  14.881
 7021W        W79446  40.546  15.335   0.999
 7022W        W79447  25.668  11.810  14.367
 7023W        W79448  32.952   0.250  12.148
 7024W        W79449  37.586  28.125   3.618
 7025W        W79450  39.908  31.511  10.783
 7026W        W79451  11.251  10.148  11.833
 7027W        W79452  24.127  11.794   4.049
 7028W        W79453  40.298  44.879   2.405
 7029W        W79454  29.377  37.978  10.719
 7030W        W79455   3.869  31.845   4.468
 7031W        W79456  43.406  23.292   1.978
 7032W        W79457  37.429   8.189   4.303
 7033W        W79458  25.152  11.303  10.662
 7034W        W79459  44.383  44.255   1.243
 7035W        W79460  34.126  34.853   0.337
 7036W        W79461  16.276  10.992  12.579
 7037W        W79462  10.239  11.536   1.334
 7038W        W79463  22.170  42.939  14.855
 7039W        W79464  44.205   1.741  13.087
 7040W        W79465  40.484  31.157  11.044
 7041W        W79466  44.576  20.385   1.316
 7042W        W79467  19.030  37.811  12.390
 7043W        W79468  35.796  38.031   3.802
 7044W        W79469  23.693  34.489   2.425
 7045W        W79470  33.998  38.100   1.172
 7046W        W79471  23.064  39.439   0.680
 7047W        W79472  34.236   4.859   0.415
 7048W        W79473  11.265  33.027  13.927
 7049W        W79474  35.319  29.382  12.821
 7050W        W79475   5.178  30.171   1.490
 7051W        W79476   9.675  29.210   3.251
 7052W        W79477  15.221  13.079   0.401
 7053W        W79478  24.617   8.417   2.842
 7054W        W79479  25.229   8.309  11.119
 7055W        W79480  14.142  30.541  12.855
 7056W        W79481  23.466   5.738  11.163
 7057W        W79482  35.809  28.211  14.790
 7058W        W79483   7.871   1.272  11.985
 7059W        W79484  44.777  20.272   3.642
 7060W        W79485   8.192  13.964  12.175
 7061W        W79486  34.036  33.649   4.158
 7062W        W79487  43.191  32.107  11.166
 7063W        W79488   1.646  34.496  13.884
 7064W        W79489  44.089  17.562  13.798
 7065W        W79490  24.655   1.555  12.950
 7066W        W79491  14.100  12.393  11.501
 7067W        W79492  17.439  28.523   4.623
 7068W        W79493  40.367  31.664  13.543
 7069W        W79494  25.949   9.280  12.094
 7070W        W79495  14.215  19.910  12.038
 7071W        W79496  18.473  25.641   2.450
 7072W        W79497  36.803   9.211   4.488
 7073W        W79498  22.310   2.899   3.717
 7074W        W79499  21.240  10.859   3.334
 7075W        W79500  36.728   4.520   2.174
 7076W        W79501  11.439  26.369   4.624
 7077W        W79502  21.042  35.103   3.972
 7078W        W79503  36.573  11.112  10.476
 7079W        W79504  31.705   9.600  10.683
 7080W        W79505  23.275  31.616   3.840
 7081W        W79506  20.850   0.416   0.695
 7082W        W79507  30.993  14.866   1.635
 7083W        W79508  29.629  35.601   1.881
 7084W        W79509   6.420  33.665   3.176
 7085W        W79510  33.499  32.487  14.586
 7086W        W79511  40.560  44.694   1.619
 7087W        W79512  16.164  40.062  14.790
 7088W        W79513  14.971   5.359  11.335
 7089W        W79514  42.451  17.671  10.778
 7090W        W79515  37.326  36.526   2.388
 7091W        W79516  13.263   5.856   2.133
 7092W        W79517  43.900  44.384   4.616
 7093W        W79518  14.876  27.189  13.319
 7094W        W79519  29.242  25.451  12.090
 7095W        W79520  24.182  20.956   1.353
 7096W        W79521  35.479  22.434  12.985
 7097W        W79522   0.159   0.790   1.091
 7098W        W79523  28.125  36.149   0.721
 7099W        W79524  20.730   3.421   3.444
 7100W        W79525  31.455  22.782   4.804
 7101W        W79526  34.578  15.716   1.391
 7102W        W79527  35.209   9.586   4.650
 7103W        W79528  22.251  24.245   1.162
 7104W        W79529  37.806   8.415   4.602
 7105W        W79530  23.434  39.016  12.095
 7106W        W79531  29.359  15.800  13.844
 7107W        W79532  18.750   5.935   0.101
 7108W        W79533  11.893   1.541  11.669
 7109W        W79534  15.004  19.099   3.921
 7110W        W79535  11.782   6.694  14.948
 7111W        W79536  33.241  18.082  12.412
 7112W        W79537  25.426   5.706  12.479
 7113W        W79538  34.867  40.326  12.446
 7114W        W79539  17.441   7.200  11.094
 7115W        W79540  29.008  18.026   4.451
 7116W        W79541  31.226  14.463   0.897
 7117W        W79542  15.802  13.669  11.475
 7118W        W79543  21.181  27.735  12.343
 7119W        W79544  36.841   6.023  11.598
 7120W        W79545  39.437  10.934   1.238
 7121W        W79546  23.638   3.802   4.214
 7122W        W79547  30.460   5.402  10.441
 7123W        W79548   4.993  28.912  13.749
 7124W        W79549  27.286  33.920   3.433
 7125W        W79550  27.323  33.091   4.486
 7126W        W79551  34.661   5.859   0.470
 7127W        W79552  11.098  35.106   0.201
 7128W        W79553  35.433  29.708   2.885
 7129W        W79554  13.742   4.666   5.553
 7130W        W79555  24.468  35.981  13.844
 7131W        W79556  18.557   7.105  11.604
 7132W        W79557  26.451  41.562   4.654
 7133W        W79558  36.270  39.922   2.856
 7134W        W79559  43.497  28.058   4.113
 7135W        W79560  39.438   7.815   0.178
 7136W        W79561  28.435   8.448  12.917
 7137W        W79562   8.785  10.063   3.632
 7138W        W79563   5.352  36.667   3.312
 7139W        W79564  32.039  36.407   4.211
 7140W        W79565  27.297   0.243  13.292
 7141W        W79566  32.166  31.509  10.582
 7142W        W79567  26.905  33.102   0.517
 7143W        W79568  16.060   1.277  11.058
 7144W        W79569  19.752  20.683   0.501
 7145W        W79570   5.357  13.674   4.879
 7146W        W79571  22.220  40.823   1.490
 7147W        W79572  35.968  17.782   1.730
 7148W        W79573   8.464  28.375   2.870
 7149W        W79574  32.525  43.458   3.854
 7150W        W79575  44.779  43.564  13.983
 7151W        W79576   3.836  24.519  11.616
 7152W        W79577  40.405  11.941  13.441
 7153W        W79578   8.259  21.090   0.275
 7154W        W79579  21.513  34.061  14.559
 7155W        W79580  29.142  27.736   3.113
 7156W        W79581  11.676  18.999   3.456
 7157W        W79582   1.388   8.252  13.291
 7158W        W79583  23.264   7.860   1.006
 7159W        W79584  27.754  22.469   5.456
 7160W        W79585  36.129  20.971   1.089
 7161W        W79586  32.523  38.294   2.869
 7162W        W79587   7.799  24.648  12.147
 7163W        W79588  16.434  34.551  10.060
 7164W        W79589  27.986   5.386   2.115
 7165W        W79590  25.625  34.306  11.713
 7166W        W79591  28.687  28.307   2.374
 7167W        W79592  39.514  37.785  14.352
 7168W        W79593  25.150  29.133   5.120
 7169W        W79594  27.539  35.198  12.496
 7170W        W79595  31.705  12.891   1.813
 7171W        W79596  38.496  22.120  14.773
 7172W        W79597  27.337  29.276  10.507
 7173W        W79598  43.073  16.703   4.814
 7174W        W79599  31.552  21.604  12.859
 7175W        W79600  25.160  18.142   3.311
 7176W        W79601  16.082   4.338   1.256
 7177W        W79602  25.964  16.184   2.153
 7178W        W79603  39.616   2.308   2.866
 7179W        W79604   0.793  24.290  11.611
 7180W        W79605   8.810  15.883   4.237
 7181W        W79606  41.350  12.639  12.853
 7182W        W79607  23.815  18.875  13.055
 7183W        W79608  12.308   5.348  12.399
 7184W        W79609  28.359   4.680  11.469
 7185W        W79610  24.590  42.994  11.475
 7186W        W79611  16.859   8.201   4.749
 7187W        W79612   2.634   9.726   3.727
 7188W        W79613   6.140  22.293   3.359
 7189W        W79614  37.512  32.275   4.053
 7190W        W79615  27.541  19.286  10.662
 7191W        W79616  23.069  31.354   2.954
 7192W        W79617  12.834  18.107   1.736
 7193W        W79618  24.830   1.630   4.506
 7194W        W79619  27.614   5.128   2.378
 7195W        W79620  24.056  13.704  11.119
 7196W        W79621  21.077  43.658  12.327
 7197W        W79622   7.430   4.487   3.551
 7198W        W79623  10.984   0.713  10.635
 7199W        W79624   8.198  21.581   0.456
 7200W        W79625  24.799  34.037  12.473
 7201W        W79626  27.295  34.972   3.928
 7202W        W79627  32.010  19.133   3.801
 7203W        W79628  44.866  18.345   2.817
 7204W        W79629  40.379  43.008   3.253
 7205W        W79630  10.484  34.420  14.277
 7206W        W79631   4.641   8.733  11.988
 7207W        W79632  34.016  21.246  14.541
 7208W        W79633  16.505  42.925   4.061
 7209W        W79634  43.203  38.070  12.317
 7210W        W79635  44.844  12.239   0.456
 7211W        W79636  34.174  36.450   0.725
 7212W        W79637   3.197   8.134  12.211
 7213W        W79638  40.078  14.755  11.965
 7214W        W79639   4.864   8.432  14.452
 7215W        W79640  28.519   3.421  11.286
 7216W        W79641   4.301  36.931   2.788
 7217W        W79642  18.047  18.605  13.028
 7218W        W79643  12.608  29.073  12.007
 7219W        W79644  38.037  44.464  11.434
 7220W        W79645  26.270   3.938   2.709
 7221W        W79646  44.515  36.002   3.821
 7222W        W79647  10.326  41.876  11.953
 7223W        W79648   5.388  11.438  13.446
 7224W        W79649   6.383   9.145  12.445
 7225W        W79650  16.527   8.486   3.684
 7226W        W79651  42.487   8.920  13.080
 7227W        W79652  34.868  24.548   4.190
 7228W        W79653   4.676   2.507   1.760
 7229W        W79654  16.177  28.642   1.788
 7230W        W79655  43.317  36.932  11.181
 7231W        W79656  39.485  32.521  13.302
 7232W        W79657  35.015  27.023  11.598
 7233W        W79658  13.537  32.952  11.179
 7234W        W79659   0.356  37.182  10.676
 7235W        W79660  14.529  40.510   1.216
 7236W        W79661  40.798  19.668   4.190
 7237W        W79662   4.347  25.506   0.928
 7238W        W79663  27.069  24.227  12.479
 7239W        W79664  11.986  27.994   4.123
 7240W        W79665  35.175  36.323  10.657
 7241W        W79666  42.574  39.318   1.297
 7242W        W79667  18.317  25.912   1.669
 7243W        W79668  36.999  42.217   5.082
 7244W        W79669   8.969  31.396   3.287
 7245W        W79670   0.459   4.622   1.007
 7246W        W79671   5.492  43.935  11.509
 7247W        W79672  41.959  15.555  12.894
 7248W        W79673   6.411  37.125   2.144
 7249W        W79674  43.951  37.417   2.174
 7250W        W79675  38.522  17.241  12.145
 7251W        W79676   7.659  44.306   2.250
 7252W        W79677  12.792   8.336   1.002
 7253W        W79678  10.685   1.891   4.935
 7254W        W79679  23.738   9.653  12.194
 7255W        W79680  29.371  41.925  12.677
 7256W        W79681  14.839   4.395  12.892
 7257W        W79682   3.970  12.918  14.811
 7258W        W79683   4.886  28.528   3.079
 7259W        W79684  25.013  30.463  11.018
 7260W        W79685   7.617  30.061  13.376
 7261W        W79686  13.800  23.653  14.024
 7262W        W79687  27.380  17.562  12.490
 7263W        W79688  31.692  34.627  14.400
 7264W        W79689   1.532  43.278   2.357
 7265W        W79690  16.212  36.915   4.439
 7266W        W79691   4.858   1.044   0.456
 7267W        W79692  11.095  12.630   3.682
 7268W        W79693   7.474  36.014  13.558
 7269W        W79694  36.838  25.159  11.154
 7270W        W79695  20.597  41.015   2.940
 7271W        W79696  21.199  13.408   2.508
 7272W        W79697  41.086  12.108  14.780
 7273W        W79698  36.105   2.921  11.549
 7274W        W79699   5.664  39.442  14.377
 7275W        W79700  32.416   6.744  14.054
 7276W        W79701  34.947   8.692   2.898
 7277W        W79702  37.230  18.014  11.581
 7278W        W79703   1.337   2.753  13.047
 7279W        W79704  13.195  12.136   1.727
 7280W        W79705  25.558  28.378   4.261
 7281W        W79706  16.622  36.394   2.936
 7282W        W79707   7.900  13.257  14.888
 7283W        W79708   6.473  37.146   0.631
 7284W        W79709  35.980  16.277   0.836
 7285W        W79710   6.188  14.151  14.564
 7286W        W79711  31.650   3.899   1.381
 7287W        W79712  37.450  18.685   0.865
 7288W        W79713  23.154  21.037   3.285
 7289W        W79714  12.671  11.050  11.145
 7290W        W79715  18.965  10.653   1.333
 7291W        W79716  40.651  42.424  12.358
 7292W        W79717  44.424  26.205  12.497
 7293W        W79718  33.809  11.179  10.477
 7294W        W79719   4.916  16.334   2.705
 7295W        W79720   9.336   5.747  12.531
 7296W        W79721   4.372  21.679   2.833
 7297W        W79722  10.225  32.785  12.484
 7298W        W79723   6.108  37.390   0.326
 7299W        W79724  15.738  32.690  10.018
 7300W        W79725  26.124  19.420   1.564
 7301W        W79726  42.348  41.733   1.281
 7302W        W79727   6.858  23.855  10.986
 7303W        W79728  20.300  43.408   0.908
 7304W        W79729  15.309  25.281   2.212
 7305W        W79730  32.928  20.709  13.478
 7306W        W79731   3.923  36.932  11.400
 7307W        W79732  30.863  39.819  13.925
 7308W        W79733   5.255  35.589  10.594
 7309W        W79734  18.111  35.311   0.452
 7310W        W79735  31.622  12.251  11.546
 7311W        W79736  24.130   5.296   3.707
 7312W        W79737  31.560   3.912  10.815
 7313W        W79738  11.968  44.868   1.505
 7314W        W79739  29.587  26.372   4.086
 7315W        W79740  19.965   7.193   0.046
 7316W        W79741  28.521  37.486  13.544
 7317W        W79742  25.220  21.744   1.682
 7318W        W79743   8.698  29.898  14.732
 7319W        W79744   4.373  39.777   3.705
 7320W        W79745  42.841  31.206   1.888
 7321W        W79746  24.266  22.037  12.848
 7322W        W79747  24.077  25.264  11.560
 7323W        W79748  43.292  32.334  10.255
 7324W        W79749  25.283   8.270  14.703
 7325W        W79750   8.338   9.647   1.463
 7326W        W79751  19.209   1.503   3.972
 7327W        W79752  43.866  15.277   4.431
 7328W        W79753  43.235   6.408   3.156
 7329W        W79754  13.143  29.699  12.081
 7330W        W79755   0.923  17.250  12.840
 7331W        W79756   6.935   6.783   4.134
 7332W        W79757  42.025  39.931   4.094
 7333W        W79758  30.999   1.313   4.564
 7334W        W79759   1.265   0.515  13.402
 7335W        W79760  35.478  34.772  14.978
 7336W        W79761  11.910   5.230   0.601
 7337W        W79762  24.697  11.417  12.540
 7338W        W79763  13.410  29.176   2.736
 7339W        W79764  34.740  10.142  14.899
 7340W        W79765  40.847  25.461  13.607
 7341W        W79766  25.381  15.907  14.444
 7342W        W79767  32.887  44.412  14.934
 7343W        W79768  42.344  14.993   1.788
 7344W        W79769   3.362   7.705   4.242
 7345W        W79770  36.025   2.189   4.660
 7346W        W79771   6.307  13.162  10.713
 7347W        W79772  23.629  32.716  13.790
 7348W        W79773  28.016  18.045   3.602
 7349W        W79774  43.094  28.079   3.251
 7350W        W79775   5.395   0.932  13.007
 7351W        W79776  25.066  38.989  12.176
 7352W        W79777  24.077  38.522   4.804
 7353W        W79778   2.789  33.622  13.310
 7354W        W79779  22.220   1.359   4.515
 7355W        W79780   9.119  28.141  13.928
 7356W        W79781  20.991  30.729   3.882
 7357W        W79782  27.509  20.295   3.249
 7358W        W79783  10.828  12.693  12.834
 7359W        W79784  36.159   6.769  11.068
 7360W        W79785  11.206  18.714   0.966
 7361W        W79786  15.337  15.753   3.156
 7362W        W79787  31.902   7.651   0.952
 7363W        W79788  25.660  35.961   4.958
 7364W        W79789  11.300  27.366   1.940
 7365W        W79790  25.344  31.143   4.345
 7366W        W79791  29.595  25.722   1.328
 7367W        W79792  39.493  11.665  14.364
 7368W        W79793  10.310  31.133   1.287
 7369W        W79794   5.352  31.684   2.207
 7370W        W79795  17.938  30.456  11.406
 7371W        W79796  40.996   4.395  14.082
 7372W        W79797  35.178  15.333  12.784
 7373W        W79798  39.320   4.016  13.428
 7374W        W79799  37.844  30.231  13.107
 7375W        W79800  14.238   8.386  14.723
 7376W        W79801  11.255   5.701   0.833
 7377W        W79802  17.049  16.996  13.556
 7378W        W79803  21.815   9.199   3.181
 7379W        W79804   0.015  43.499  10.417
 7380W        W79805  13.553  29.305   5.042
 7381W        W79806  16.381  17.162   0.241
 7382W        W79807  23.575  33.372   3.804
 7383W        W79808  16.310  25.441   3.720
 7384W        W79809  11.790   0.580   5.211
 7385W        W79810   6.188   8.895  11.991
 7386W        W79811  39.414  22.185   1.224
 7387W        W79812  16.841  17.115   3.637
 7388W        W79813  34.934   5.658  11.981
 7389W        W79814   6.333   8.232   0.255
 7390W        W79815  14.358  33.034  10.274
 7391W        W79816  38.027   6.074  11.510
 7392W        W79817  44.892   5.409  12.071
 7393W        W79818  31.781  22.393  14.704
 7394W        W79819  43.008   2.822  11.487
 7395W        W79820  32.920  22.132  13.852
 7396W        W79821   7.867   1.079   2.850
 7397W        W79822  28.137  33.655  10.630
 7398W        W79823   5.837  29.572   3.398
 7399W        W79824   5.286  29.722   2.399
 7400W        W79825  32.587   6.332  11.945
 7401W        W79826  27.409  20.624  13.381
 7402W        W79827  16.631  34.343   2.231
 7403W        W79828  16.871  22.297  14.247
 7404W        W79829  12.894  42.409  14.486
 7405W        W79830  13.714   4.285  11.131
 7406W        W79831  22.166  33.134  13.058
 7407W        W79832  30.137  24.448  14.016
 7408W        W79833   8.899  34.444  10.624
 7409W        W79834  37.517   1.633   2.940
 7410W        W79835  39.438  30.940   3.706
 7411W        W79836  40.120  17.318  13.590
 7412W        W79837  23.215  30.314   3.181
 7413W        W79838  40.984  23.129  12.642
 7414W        W79839  41.039  19.208  11.514
 7415W        W79840   2.949  17.172   1.043
 7416W        W79841  31.830  17.335   3.642
 7417W        W79842  36.855  11.096   3.246
 7418W        W79843   4.455  34.914   2.916
 7419W        W79844  12.671  44.446   0.217
 7420W        W79845  36.293  24.960   2.628
 7421W        W79846  39.803   7.906   4.299
 7422W        W79847  26.720  15.608  12.870
 7423W        W79848  38.054  18.788   1.295
 7424W        W79849  18.212  34.631  14.243
 7425W        W79850  18.221  38.559  11.104
 7426W        W79851  37.068  26.462  10.183
 7427W        W79852  32.066  38.760  11.665
 7428W        W79853  21.613  31.580  13.627
 7429W        W79854  25.970  26.433  10.445
 7430W        W79855  39.977  31.425   1.396
 7431W        W79856   7.846  23.702  14.919
 7432W        W79857  12.297  37.942   1.433
 7433W        W79858  25.641   0.381   1.232
 7434W        W79859   9.355  29.628   3.616
 7435W        W79860   7.728  13.740  13.677
 7436W        W79861   4.925   7.880  14.492
 7437W        W79862  28.064  34.344   4.088
 7438W        W79863  42.052  35.895   0.822
 7439W        W79864  26.940   3.692  13.582
 7440W        W79865  44.395   0.674  10.650
 7441W        W79866   1.127  39.765   0.479
 7442W        W79867  15.346  10.562  14.394
 7443W        W79868   2.720  11.100  12.437
 7444W        W79869  10.767  40.293   2.098
 7445W        W79870  21.195   7.182   3.363
 7446W        W79871  26.975  30.350  11.085
 7447W        W79872  24.425   8.668   2.340
 7448W        W79873  25.079  40.184   3.620
 7449W        W79874  41.051  29.006   2.485
 7450W        W79875   2.683  15.289   0.847
 7451W        W79876  23.136  37.520  13.611
 7452W        W79877  19.133  26.171   0.526
 7453W        W79878  22.867  26.180  14.451
 7454W        W79879  12.397  25.805   1.213
 7455W        W79880  13.919   1.849  12.460
 7456W        W79881  31.220   3.764   4.669
 7457W        W79882  16.728  33.154  12.418
 7458W        W79883  12.152  16.851   0.506
 7459W        W79884  41.567   3.159  14.992
 7460W        W79885  28.741  16.660  14.749
 7461W        W79886   7.934  27.837  13.436
 7462W        W79887  23.647  16.235  14.529
 7463W        W79888  10.114  35.091   1.383
 7464W        W79889  21.585  38.808   4.088
 7465W        W79890   9.740  16.824  10.585
 7466W        W79891  19.448  33.510   1.823
 7467W        W79892  13.042  17.576   1.777
 7468W        W79893  22.963  44.794   4.778
 7469W        W79894  10.148  44.069  11.905
 7470W        W79895  31.868   1.520  13.527
 7471W        W79896  21.779  20.188   1.772
 7472W        W79897   9.217   2.518   1.247
 7473W        W79898  33.104  10.788  11.569
 7474W        W79899  41.364   0.961   2.064
 7475W        W79900  38.137  17.119   3.172
 7476W        W79901  11.824   7.109   1.852
 7477W        W79902  15.040  22.195   4.588
 7478W        W79903  13.928  14.273   4.113
 7479W        W79904  32.856  29.009  10.999
 7480W        W79905  37.006  23.625  12.089
 7481W        W79906  41.237  38.958  14.105
 7482W        W79907  21.700  44.089   2.818
 7483W        W79908  22.915  44.412  10.780
 7484W        W79909  28.579   4.324   4.685
 7485W        W79910  31.153  34.998  13.063
 7486W        W79911  40.801   4.370   3.467
 7487W        W79912  13.685  38.446  14.029
 7488W        W79913   8.093  37.047   0.481
 7489W        W79914  19.997  36.316   3.322
 7490W        W79915  28.390  13.999  14.312
 7491W        W79916  26.137  17.065   4.619
 7492W        W79917  27.811   4.768   4.567
 7493W        W79918  33.558  43.505  12.306
 7494W        W79919   4.140  32.445   2.367
 7495W        W79920  40.306  28.920   2.384
 7496W        W79921  19.798  34.962  12.424
 7497W        W79922  40.986  32.041  14.007
 7498W        W79923   7.363  12.611  14.940
 7499W        W79924  21.069  24.810   0.872
 7500W        W79925  25.060  32.592   3.262
 7501W        W79926  17.189  36.062   2.966
 7502W        W79927   5.936  25.240   0.381
 7503W        W79928  43.202  12.293   1.870
 7504W        W79929   1.025  22.199  14.970
 7505W        W79930  42.105   2.777   3.611
 7506W        W79931   4.956  12.327  11.059
 7507W        W79932  41.032  38.928  11.586
 7508W        W79933  36.478   1.967   0.035
 7509W        W79934  10.649  37.338  12.554
 7510W        W79935  20.530  35.134   3.317
 7511W        W79936  40.531   6.784  10.004
 7512W        W79937  29.563   1.446   1.549
 7513W        W79938  22.146  23.129  10.727
 7514W        W79939  42.200  21.987   1.412
 7515W        W79940  37.456   8.654  14.144
 7516W        W79941  11.631  42.423   0.764
 7517W        W79942  20.112  30.948   3.413
 7518W        W79943  33.439  32.085  13.505
 7519W        W79944  14.796  33.681   2.715
 7520W        W79945  10.335  12.028   1.215
 7521W        W79946  30.774  21.202  10.537
 7522W        W79947  34.389  23.453  12.186
 7523W        W79948  10.271  30.221   3.756
 7524W        W79949  34.969  42.482   0.429
 7525W        W79950  21.182  21.455   4.690
 7526W        W79951  16.313  15.107  14.534
 7527W        W79952  18.624   7.669   0.238
 7528W        W79953  22.878  20.910  10.581
 7529W        W79954   5.787   4.177  14.936
 7530W        W79955  11.351   3.843  13.550
 7531W        W79956  28.472  31.923  13.962
 7532W        W79957  25.301  27.749   2.578
 7533W        W79958  34.427  23.645  11.705
 7534W        W79959  42.233  44.927  11.460
 7535W        W79960   0.270  16.145   1.263
 7536W        W79961  30.069  13.095  14.985
 7537W        W79962  11.208  21.559  14.506
 7538W        W79963  27.615   5.706  13.801
 7539W        W79964  39.842  28.051  12.565
 7540W        W79965   1.199  28.474  13.503
 7541W        W79966  43.694  32.109  14.858
 7542W        W79967  16.130  18.947  10.323
 7543W        W79968   8.157  37.419   3.787
 7544W        W79969   6.873   1.637   1.399
 7545W        W79970   5.658  21.195   2.671
 7546W        W79971   6.407   4.093   3.858
 7547W        W79972  33.557   3.777   2.878
 7548W        W79973  25.986  32.218   0.295
 7549W        W79974  18.151   9.864  14.476
 7550W        W79975   1.277   9.626   0.426
 7551W        W79976  18.345  28.172  10.608
 7552W        W79977   5.746  18.708  12.887
 7553W        W79978  40.971  31.442   4.620
 7554W        W79979  23.645  43.429  12.021
 7555W        W79980  20.791  42.376  14.775
 7556W        W79981   5.228   6.593   3.974
 7557W        W79982  28.144   2.400  13.850
 7558W        W79983  22.292   9.893   9.746
 7559W        W79984  41.000  31.591   2.236
 7560W        W79985   7.861  11.516   1.677
 7561W        W79986  32.352  27.808  13.809
 7562W        W79987  41.985   1.894   4.623
 7563W        W79988  44.886   4.509  13.185
 7564W        W79989  18.560  34.992  13.024
 7565W        W79990   7.180  26.060  14.339
 7566W        W79991  16.537  30.040   2.531
 7567W        W79992  25.382   9.802   4.655
 7568W        W79993   4.886  37.994   0.231
 7569W        W79994  18.829  22.731  13.478
 7570W        W79995   8.461  25.202  14.710
 7571W        W79996  27.852  44.835   3.714
 7572W        W79997  37.897  17.089   0.526
 7573W        W79998  41.036  29.422   2.776
 7574W        W79999   9.339   9.345   3.167
 7575W        W80000  22.711  22.232  11.108
 7576W        W80001   2.930  31.687  14.332
 7577W        W80002   3.460  38.574  11.134
 7578W        W80003   8.253  24.492  13.516
 7579W        W80004  29.189  21.044  11.359
 7580W        W80005  36.962  44.966   0.379
 7581W        W80006  17.966  25.557   0.281
 7582W        W80007  29.626   2.096  12.340
 7583W        W80008  40.641  28.061  12.939
 7584W        W80009  37.746  16.186   1.276
 7585W        W80010  30.889  15.529  11.059
 7586W        W80011  27.328  32.460  11.106
 7587W        W80012  11.301  15.594  14.946
 7588W        W80013  13.542  20.075  13.526
 7589W        W80014  44.386  24.443  12.942
 7590W        W80015  11.737  28.112  11.949
 7591W        W80016  43.070  43.223  14.361
 7592W        W80017   6.428  29.596  11.558
 7593W        W80018   4.544  15.566   0.829
 7594W        W80019  14.555  44.467  12.551
 7595W        W80020   7.221   6.633  11.214
 7596W        W80021  22.310  35.889  10.658
 7597W        W80022   5.761  21.783  14.482
 7598W        W80023  13.170   9.583   0.847
 7599W        W80024  32.014   0.362   1.714
 7600W        W80025  10.398  25.891   1.669
 7601W        W80026  25.952  39.115   3.163
 7602W        W80027  15.352  27.134  14.731
 7603W        W80028  19.617  34.355   3.228
 7604W        W80029  28.066  15.553  14.569
 7605W        W80030  18.746  20.358   3.247
 7606W        W80031   1.502   7.668  14.595
 7607W        W80032  43.360  12.722   4.126
 7608W        W80033  34.675  24.576  11.118
 7609W        W80034  37.192  37.925  10.142
 7610W        W80035   3.514  44.516   2.725
 7611W        W80036  32.680  32.919   2.251
 7612W        W80037  10.347   2.582  11.818
 7613W        W80038  37.071  14.728   1.241
 7614W        W80039   6.399  25.418  11.377
 7615W        W80040   7.217   6.139  14.879
 7616W        W80041  31.789  19.263  14.082
 7617W        W80042  35.884  12.862   1.540
 7618W        W80043  29.683  39.394   2.905
 7619W        W80044  39.505  12.142  10.720
 7620W        W80045  40.554  43.947  13.520
 7621W        W80046  23.789  43.380   3.107
 7622W        W80047  20.483  40.626  14.402
 7623W        W80048   1.642  16.538  11.503
 7624W        W80049   0.351   3.555   1.476
 7625W        W80050  20.028  43.265   3.715
 7626W        W80051  21.556  13.611  14.885
 7627W        W80052   4.725  20.484   3.280
 7628W        W80053  42.817  16.066  10.693
 7629W        W80054  15.949  16.849  11.018
 7630W        W80055  28.449   1.279   0.002
 7631W        W80056  13.251  41.742   1.264
 7632W        W80057  43.503  39.153   2.717
 7633W        W80058  20.134   9.807  10.724
 7634W        W80059  35.086   6.347   5.032
 7635W        W80060  39.305  40.966  10.762
 7636W        W80061  13.604  11.604  12.530
 7637W        W80062  29.768  41.523  10.948
 7638W        W80063  29.393  22.462   2.930
 7639W        W80064  23.673  44.296   0.741
 7640W        W80065  19.137  25.107  12.432
 7641W        W80066   5.025  13.704  14.953
 7642W        W80067   2.412  43.463   1.708
 7643W        W80068  24.806  36.226   2.167
 7644W        W80069  37.318  37.006   4.622
 7645W        W80070  24.909  32.798   0.436
 7646W        W80071  18.684  16.101  11.221
 7647W        W80072  13.319  25.593  14.506
 7648W        W80073   0.102  44.692  12.307
 7649W        W80074   9.672  36.895  11.266
 7650W        W80075   1.852  40.489  13.438
 7651W        W80076  15.196  10.335  13.494
 7652W        W80077  38.774  25.159  10.646
 7653W        W80078   9.644  35.356   1.375
 7654W        W80079  34.262   9.447   3.078
 7655W        W80080  32.647  34.069   1.882
 7656W        W80081  35.644  16.247  12.941
 7657W        W80082   5.571  40.879   2.468
 7658W        W80083  10.704  23.077   4.995
 7659W        W80084  31.193  11.978  11.474
 7660W        W80085  27.556  35.996   1.754
 7661W        W80086   0.879  13.209  11.577
 7662W        W80087  38.598   1.279   3.823
 7663W        W80088   3.369  12.767  10.945
 7664W        W80089  28.148  41.232  14.437
 7665W        W80090  29.186  16.251  12.981
 7666W        W80091  35.859  37.402  10.594
 7667W        W80092  25.438  37.112  12.977
 7668W        W80093   2.725   2.278  11.716
 7669W        W80094  14.561  28.490  12.879
 7670W        W80095  18.017  28.657   1.559
 7671W        W80096  34.503  24.612   2.212
 7672W        W80097   2.839  19.237   0.057
 7673W        W80098  21.556  23.110   3.793
 7674W        W80099  14.299  21.587   1.409
 7675W        W80100  11.718  36.743   3.837
 7676W        W80101  28.008  25.645  10.236
 7677W        W80102  36.011  10.109  13.730
 7678W        W80103  26.284  10.331  13.869
 7679W        W80104   7.487  31.254   1.243
 7680W        W80105  40.031  24.955  11.064
 7681W        W80106  34.323  12.415   2.665
 7682W        W80107  17.869  21.573  13.521
 7683W        W80108  44.308  10.684   1.455
 7684W        W80109  11.388  44.495  14.831
 7685W        W80110  15.557  17.753  13.996
 7686W        W80111  19.379   2.067   2.830
 7687W        W80112  41.342   4.268   3.708
 7688W        W80113  12.177   9.721  11.964
 7689W        W80114  24.018   8.825   2.889
 7690W        W80115  15.215   8.730   2.503
 7691W        W80116   8.663   3.340  11.631
 7692W        W80117  27.965  11.278   4.249
 7693W        W80118  17.713  24.090   1.408
 7694W        W80119   7.142  13.065   4.576
 7695W        W80120  37.256  40.191  12.824
 7696W        W80121  17.763   0.037   0.761
 7697W        W80122   9.116   4.284  12.468
 7698W        W80123  12.823  36.496   1.259
 7699W        W80124  39.734   7.921   4.837
 7700W        W80125   0.926  17.683  10.689
 7701W        W80126  25.787   6.274   4.426
 7702W        W80127  34.648  31.005  14.851
 7703W        W80128  19.496  38.232  14.913
 7704W        W80129  27.402   5.902   2.777
 7705W        W80130  29.047  26.708   2.331
 7706W        W80131  33.904  16.143  11.197
 7707W        W80132  43.907  28.561   0.389
 7708W        W80133  15.684   8.202   3.288
 7709W        W80134  10.823  10.113   4.865
 7710W        W80135  41.936   0.622   3.495
 7711W        W80136   2.004  29.137   4.112
 7712W        W80137   6.945  41.325  12.970
 7713W        W80138  23.936  33.910   2.942
 7714W        W80139  20.082   5.708  12.932
 7715W        W80140  33.846  14.606  14.241
 7716W        W80141   6.486  38.015   0.693
 7717W        W80142  42.803  35.331   1.513
 7718W        W80143  17.357  12.587   3.185
 7719W        W80144  26.979   7.739   2.784
 7720W        W80145  42.508   9.773  14.456
 7721W        W80146   7.384  32.860  13.025
 7722W        W80147  26.800  43.993  14.888
 7723W        W80148  17.566  31.939  11.161
 7724W        W80149  26.135  29.278   1.807
 7725W        W80150  24.200  36.377  14.015
 7726W        W80151  25.030   7.715  11.189
 7727W        W80152  42.711  34.532  14.584
 7728W        W80153  44.901  29.435  13.874
 7729W        W80154  44.503   9.782   0.767
 7730W        W80155  12.667  10.406  13.986
 7731W        W80156  37.413   6.389  14.414
 7732W        W80157   7.452   1.664   0.177
 7733W        W80158  12.348  24.234   0.330
 7734W        W80159  16.800  20.680  13.808
 7735W        W80160  43.926  16.651   1.724
 7736W        W80161  18.028  29.659   3.387
 7737W        W80162  13.211   6.908  12.462
 7738W        W80163  23.252   5.351   4.639
 7739W        W80164  25.185  23.202   4.878
 7740W        W80165  24.834  20.146   3.665
 7741W        W80166  28.089   6.396  13.886
 7742W        W80167   9.119   6.216  12.488
 7743W        W80168  16.340  22.186   2.109
 7744W        W80169  32.440  29.125  10.704
 7745W        W80170  29.588  18.329  11.081
 7746W        W80171   4.492  30.951  10.710
 7747W        W80172  24.926  33.532   3.513
 7748W        W80173  41.655  36.072   4.003
 7749W        W80174  11.880  36.290   1.590
 7750W        W80175  41.173  22.395  13.207
 7751W        W80176   2.985  12.130   2.327
 7752W        W80177  31.550  44.115  12.159
 7753W        W80178  32.947  40.480  13.726
 7754W        W80179   7.221   5.595   2.869
 7755W        W80180   6.750  25.834  13.506
 7756W        W80181  18.365   7.745  10.424
 7757W        W80182  19.043  10.143   4.185
 7758W        W80183  22.691  42.160  12.602
 7759W        W80184  35.611  36.265   0.994
 7760W        W80185  38.356  31.003   3.372
 7761W        W80186  29.012  44.384   1.363
 7762W        W80187   4.616   3.309   3.706
 7763W        W80188  40.052   1.723   2.811
 7764W        W80189  25.175  12.751   5.026
 7765W        W80190  23.586  16.253  13.587
 7766W        W80191  20.746  25.574  13.850
 7767W        W80192  10.869  36.889   4.805
 7768W        W80193  37.864  22.994   0.405
 7769W        W80194  38.531  10.847   2.870
 7770W        W80195  15.506  41.596   4.498
 7771W        W80196  29.702   9.439   0.497
 7772W        W80197  26.208  14.258   1.748
 7773W        W80198  44.923  30.575  11.644
 7774W        W80199  16.749  13.206  10.943
 7775W        W80200  36.104  21.230  10.968
 7776W        W80201  29.234  22.251  14.418
 7777W        W80202   1.301  37.563   3.697
 7778W        W80203  37.158  17.119   2.260
 7779W        W80204   0.361   1.924   2.110
 7780W        W80205  13.360  32.404  12.361
 7781W        W80206   1.767  39.552   4.454
 7782W        W80207  42.363  11.201   4.276
 7783W        W80208  20.915  27.561   0.265
 7784W        W80209  38.100  42.079   0.486
 7785W        W80210  31.816  43.950   2.746
 7786W        W80211  11.875  42.050  13.615
 7787W        W80212  32.121  31.873  13.111
 7788W        W80213  33.511  18.903   2.809
 7789W        W80214  42.922  17.106  13.917
 7790W        W80215  39.531  31.024  13.444
 7791W        W80216   0.247  21.772   2.480
 7792W        W80217  34.948  30.030  11.813
 7793W        W80218  36.178  22.429  12.178
 7794W        W80219  17.490  26.125  14.802
 7795W        W80220   7.703   4.510  12.380
 7796W        W80221  40.410  12.268  13.017
 7797W        W80222  31.573  39.080   1.801
 7798W        W80223  34.593  27.089   0.918
 7799W        W80224  28.402  40.562  11.137
 7800W        W80225   3.308  14.294  10.498
 7801W        W80226  39.857  38.394  12.427
 7802W        W80227  22.377  18.653  13.642
 7803W        W80228  28.590  37.202   1.677
 7804W        W80229  41.610  16.068   4.572
 7805W        W80230  15.079   4.909  12.528
 7806W        W80231   7.735   2.539  13.919
 7807W        W80232  28.670  28.634  11.561
 7808W        W80233  13.261  10.288  10.601
 7809W        W80234  40.428  15.184  14.973
 7810W        W80235   9.320  34.965   2.765
 7811W        W80236  30.043  31.057   3.694
 7812W        W80237  26.973  36.755   2.382
 7813W        W80238  37.880  28.534   4.271
 7814W        W80239  44.914  19.999  13.858
 7815W        W80240  12.313   0.800  10.905
 7816W        W80241  18.409  30.011  14.048
 7817W        W80242  18.948  35.901   4.004
 7818W        W80243  22.564  20.310  12.882
 7819W        W80244  14.300  15.814  14.254
 7820W        W80245  19.554   8.700  11.097
 7821W        W80246  28.002  12.689   1.250
 7822W        W80247  19.014  29.850   4.519
 7823W        W80248  17.083  26.083   3.401
 7824W        W80249  44.961  16.595  13.912
 7825W        W80250   6.753  40.583  12.343
 7826W        W80251  11.873   4.897   4.150
 7827W        W80252  41.743   0.290   3.150
 7828W        W80253   6.641   7.731   3.747
 7829W        W80254   4.878  13.649  11.069
 7830W        W80255  35.613   7.059   9.673
 7831W        W80256   8.000  24.229   1.446
 7832W        W80257  39.625  40.599  12.917
 7833W        W80258  36.607  23.785   0.753
 7834W        W80259   3.274  22.065  13.323
 7835W        W80260   5.381  24.154  14.370
 7836W        W80261  15.635  25.061   2.913
 7837W        W80262   4.331   0.262   1.857
 7838W        W80263   0.229  14.180  11.075
 7839W        W80264  43.874  20.821  14.455
 7840W        W80265  33.593   2.656   1.400
 7841W        W80266   7.224  26.482  13.989
 7842W        W80267  33.970   6.484  13.626
 7843W        W80268  26.008  29.658  10.629
 7844W        W80269  17.866  10.297  12.052
 7845W        W80270  37.985   2.903   0.465
 7846W        W80271  19.447   8.569   4.508
 7847W        W80272  31.797  35.502   4.039
 7848W        W80273  10.836  15.147   4.603
 7849W        W80274  16.572  13.873   0.886
 7850W        W80275  18.711  28.998   0.330
 7851W        W80276   0.476  41.022   2.363
 7852W        W80277   7.208  12.625  14.009
 7853W        W80278  10.551   5.032  13.887
 7854W        W80279   4.362   1.735   3.838
 7855W        W80280   2.620  15.114  11.798
 7856W        W80281  12.796  18.620  12.630
 7857W        W80282  30.948  17.055  11.978
 7858W        W80283  36.472  35.690   1.019
 7859W        W80284  28.804  24.810  13.373
 7860W        W80285  23.380  33.624  12.496
 7861W        W80286  30.442  43.210  14.338
 7862W        W80287  27.097  37.648  14.748
 7863W        W80288  34.136  36.866  11.869
 7864W        W80289  41.004  41.232   1.777
 7865W        W80290  41.432  33.841   0.014
 7866W        W80291  39.923  20.552   2.190
 7867W        W80292  13.320  43.364   4.772
 7868W        W80293  18.627  29.532   4.677
 7869W        W80294  28.519   1.053  14.476
 7870W        W80295  41.225  39.038  14.804
 7871W        W80296   9.420  17.003   2.334
 7872W        W80297  12.886  14.638   0.299
 7873W        W80298  43.442  42.498  14.342
 7874W        W80299  13.938  19.347  14.378
 7875W        W80300  38.172  43.311  14.387
 7876W        W80301   0.358   1.455   1.858
 7877W        W80302  15.999  43.971   1.725
 7878W        W80303  25.514  22.400  11.177
 7879W        W80304  22.812  34.627  14.326
 7880W        W80305   1.029  24.603   3.657
 7881W        W80306  18.184  35.139   4.609
 7882W        W80307  17.623  17.123  11.860
 7883W        W80308  10.884   1.393  10.627
 7884W        W80309   9.731  32.738  11.842
 7885W        W80310  13.302  36.194  10.628
 7886W        W80311  15.245  35.998   1.920
 7887W        W80312  25.688  33.177   1.389
 7888W        W80313  19.105   2.296   4.712
 7889W        W80314  36.373  28.984  10.924
 7890W        W80315   2.987  21.105   0.567
 7891W        W80316  29.603  21.705  11.940
 7892W        W80317  28.233  11.534   3.027
 7893W        W80318  32.557   9.632   2.333
 7894W        W80319  20.616  10.356   4.965
 7895W        W80320  20.902  44.223  13.429
 7896W        W80321  32.183  28.207   2.360
 7897W        W80322  30.907  21.220   3.964
 7898W        W80323  17.277  43.997   1.218
 7899W        W80324   7.742  16.100  11.024
 7900W        W80325  23.673   6.297   4.506
 7901W        W80326  34.046   7.276   0.804
 7902W        W80327  17.051  13.370  12.646
 7903W        W80328   4.295  34.474  12.045
 7904W        W80329  40.548  38.384   2.446
 7905W        W80330  26.078  17.091   2.752
 7906W        W80331   5.223   0.249   1.882
 7907W        W80332   3.974  18.575   0.200
 7908W        W80333  31.019  24.476  13.518
 7909W        W80334  41.527  19.475   9.611
 7910W        W80335  41.885  21.435   4.123
 7911W        W80336   9.874  39.578   0.798
 7912W        W80337  16.288  36.987  14.820
 7913W        W80338  33.622   0.270  11.564
 7914W        W80339   4.370  35.176  13.508
 7915W        W80340  33.983  14.393  11.977
 7916W        W80341  31.625   1.416  13.975
 7917W        W80342  33.882  43.352   1.848
 7918W        W80343  24.114  36.606   1.237
 7919W        W80344  39.400  23.705   1.379
 7920W        W80345   3.293  21.659  11.539
 7921W        W80346  25.210  39.458   1.808
 7922W        W80347  24.116  28.933   0.894
 7923W        W80348  15.013  32.466  13.912
 7924W        W80349   3.263  30.473  11.263
 7925W        W80350  44.873  13.246   1.649
 7926W        W80351   8.355  22.888  12.954
 7927W        W80352  43.766   3.973   2.741
 7928W        W80353  33.441   5.894  12.049
 7929W        W80354   2.971  25.565   3.814
 7930W        W80355  36.896  44.837  13.833
 7931W        W80356  35.374  42.940  14.413
 7932W        W80357  23.601  44.490  11.901
 7933W        W80358  25.042   1.969   3.650
 7934W        W80359   0.459  25.986   1.455
 7935W        W80360  20.525  12.851  12.102
 7936W        W80361  39.636  36.406   2.218
 7937W        W80362  25.011  31.287  10.609
 7938W        W80363  27.466   4.505   3.139
 7939W        W80364  11.098  13.228   0.848
 7940W        W80365  24.762   2.219   2.804
 7941W        W80366   0.776   2.802  10.432
 7942W        W80367   2.038  38.930   3.664
 7943W        W80368  12.598  17.229  14.370
 7944W        W80369  40.754  17.329   4.112
 7945W        W80370  30.090  40.470   1.776
 7946W        W80371   1.722  32.975  12.482
 7947W        W80372  42.929   6.272   2.277
 7948W        W80373  30.971  29.352  11.908
 7949W        W80374  38.448  44.822  14.412
 7950W        W80375  22.459  39.949   1.453
 7951W        W80376  13.765  13.602  14.345
 7952W        W80377  42.162   8.260  12.553
 7953W        W80378   3.194   6.158   5.167
 7954W        W80379  10.608  44.310   2.330
 7955W        W80380  15.013  13.954  11.012
 7956W        W80381   0.300   8.879   0.809
 7957W        W80382  31.823  18.372   3.155
 7958W        W80383  14.907   5.770  11.695
 7959W        W80384  44.308   8.397  14.968
 7960W        W80385  44.038  22.007   3.105
 7961W        W80386  23.119  40.260  11.615
 7962W        W80387  10.264  36.373  14.842
 7963W        W80388  18.441  20.421  13.028
 7964W        W80389  28.068  19.742  10.648
 7965W        W80390  38.407  25.203   1.312
 7966W        W80391   4.663  43.467   4.487
 7967W        W80392  15.141   3.800  14.033
 7968W        W80393  38.669   2.937  14.821
 7969W        W80394  39.868   2.627   4.135
 7970W        W80395  35.504  34.524   4.815
 7971W        W80396  17.556  38.585   2.757
 7972W        W80397  43.485   9.144  11.395
 7973W        W80398  28.418  30.465  12.632
 7974W        W80399  31.844  12.233   0.264
 7975W        W80400  20.805   4.819   1.801
 7976W        W80401  25.392  15.817  12.622
 7977W        W80402   7.784   9.274   4.756
 7978W        W80403   8.352  29.875  13.935
 7979W        W80404   6.259   4.137  12.263
 7980W        W80405  10.801  32.603  11.863
 7981W        W80406   2.710  11.645   4.149
 7982W        W80407  21.708  25.101   3.229
 7983W        W80408  34.151  38.936   2.213
 7984W        W80409  41.581  20.161  12.422
 7985W        W80410  23.707  11.208  12.766
 7986W        W80411  12.715  14.655  14.807
 7987W        W80412  18.733   5.892   3.392
 7988W        W80413  24.239  28.113   2.422
 7989W        W80414  28.563   5.818   4.381
 7990W        W80415  37.836  29.515  14.043
 7991W        W80416  40.555   6.743   3.835
 7992W        W80417  39.705  14.411  14.864
 7993W        W80418  15.024  26.965  12.443
 7994W        W80419  28.605  15.617  14.823
 7995W        W80420  32.036  18.341   1.563
 7996W        W80421  29.705  32.567   2.013
 7997W        W80422  40.029  40.126   4.867
 7998W        W80423  37.016  43.148   0.886
 7999W        W80424  31.905  41.021   2.352
 8000W        W80425  26.597  41.244  10.740
 8001W        W80426   4.980  34.189   3.163
 8002W        W80427  19.886  37.559  11.214
 8003W        W80428   7.245  31.442   1.935
 8004W        W80429   4.470   2.773   4.694
 8005W        W80430  26.233  13.075   0.396
 8006W        W80431  19.521  31.399   4.228
 8007W        W80432  31.604   1.995   0.730
 8008W        W80433   7.468  17.229   4.522
 8009W        W80434  28.769  40.084  13.287
 8010W        W80435  21.958  10.189   3.347
 8011W        W80436  29.574  16.543  14.517
 8012W        W80437  39.091  17.593   0.417
 8013W        W80438   2.450  15.340   4.147
 8014W        W80439   0.172  22.098  11.532
 8015W        W80440  22.478  22.735   0.485
 8016W        W80441  11.246  26.193  14.770
 8017W        W80442  28.606  35.585  12.135
 8018W        W80443  30.969  42.851   4.710
 8019W        W80444   6.809  14.220   2.664
 8020W        W80445  33.092  43.275   4.533
 8021W        W80446   3.920  39.966  12.949
 8022W        W80447  31.986   9.753   3.150
 8023W        W80448  39.180  14.595   1.738
 8024W        W80449  14.531   4.489  11.951
 8025W        W80450  43.675  32.317   4.108
 8026W        W80451  18.700  24.475  10.736
 8027W        W80452  32.518   6.761  12.241
 8028W        W80453   6.724  19.026  14.220
 8029W        W80454  14.794  12.833  13.059
 8030W        W80455  32.545  24.504   1.684
 8031W        W80456  14.575  20.984  13.442
 8032W        W80457  12.537  25.208  11.323
 8033W        W80458  36.839   8.729  10.161
 8034W        W80459  27.729   3.946  13.161
 8035W        W80460   0.896  22.458   4.471
 8036W        W80461  27.126   0.194  14.175
 8037W        W80462   5.368   0.960   0.637
 8038W        W80463  11.723  15.328  14.775
 8039W        W80464  33.552  27.948   3.294
 8040W        W80465  21.775   9.791   9.760
 8041W        W80466  13.334  29.745   1.407
 8042W        W80467  24.550  17.786   1.997
 8043W        W80468  34.423   5.713  12.093
 8044W        W80469  26.643  14.535   1.877
 8045W        W80470  32.988  27.563   1.890
 8046W        W80471  16.581  19.281  12.958
 8047W        W80472   3.340  43.971   3.719
 8048W        W80473  20.483  29.701   3.237
 8049W        W80474  32.067  44.863  13.074
 8050W        W80475  22.338  12.219  14.329
 8051W        W80476  35.997  33.482  13.971
 8052W        W80477  22.600   5.786   2.380
 8053W        W80478  42.336  29.581   2.444
 8054W        W80479  21.469   2.886  12.966
 8055W        W80480  24.623  20.965   0.835
 8056W        W80481  17.533  32.609  11.507
 8057W        W80482  34.462   1.214   0.216
 8058W        W80483  25.880  17.318   4.194
 8059W        W80484  24.706   4.292   3.615
 8060W        W80485  13.819   4.435   3.865
 8061W        W80486  12.824  28.226  14.916
 8062W        W80487  42.782  33.563   4.905
 8063W        W80488   2.033   9.698   1.179
 8064W        W80489   0.895   9.078   5.020
 8065W        W80490  20.744   4.510   2.739
 8066W        W80491  39.336   6.821  11.899
 8067W        W80492  19.991  25.700   2.274
 8068W        W80493  32.835  23.025   3.952
 8069W        W80494  41.509  31.596   3.656
 8070W        W80495  18.715  39.280   2.902
 8071W        W80496  10.202  25.543   0.432
 8072W        W80497   8.481   9.261   4.786
 8073W        W80498  27.765  17.693   3.314
 8074W        W80499  31.956  30.170   1.362
 8075W        W80500   4.289  26.493   1.676
 8076W        W80501  43.825  22.657  11.388
 8077W        W80502   9.936  42.338   3.638
 8078W        W80503  43.919  26.914   0.889
 8079W        W80504  24.008  13.169  14.507
 8080W        W80505  36.859  16.719  12.009
 8081W        W80506  44.724  36.466   3.647
 8082W        W80507  30.489  14.754  11.648
 8083W        W80508  38.773  38.717  14.998
 8084W        W80509  15.699  14.972   2.078
 8085W        W80510  39.831  35.538  14.350
 8086W        W80511  41.519  36.999   2.867
 8087W        W80512  13.001  43.705  13.582
 8088W        W80513   4.678  10.423  14.677
 8089W        W80514  37.043  38.809   4.368
 8090W        W80515  13.057  40.958   3.683
 8091W        W80516  17.504  10.898  12.874
 8092W        W80517   2.783  20.029   2.161
 8093W        W80518  42.838  40.310   3.083
 8094W        W80519  35.506  42.156  12.126
 8095W        W80520  23.022  37.850  12.788
 8096W        W80521  38.271  44.145  14.368
 8097W        W80522   7.879  31.066  11.867
 8098W        W80523  44.306  21.007   5.049
 8099W        W80524  44.479  32.502   0.936
 8100W        W80525  23.465   6.286   3.500
 8101W        W80526  28.602  19.067   0.380
 8102W        W80527  40.838  21.170   2.395
 8103W        W80528   7.176   9.174   1.709
 8104W        W80529  18.637   7.635   4.748
 8105W        W80530  43.237  35.132   2.403
 8106W        W80531  14.857   8.438  13.476
 8107W        W80532  13.555  12.570  14.848
 8108W        W80533  32.989  44.425   3.857
 8109W        W80534  10.377  21.156   2.463
 8110W        W80535  20.857  41.371   3.315
 8111W        W80536   8.191  37.183  14.996
 8112W        W80537  40.863   2.236   0.602
 8113W        W80538  13.694  16.264  11.729
 8114W        W80539  14.622  33.914   4.810
 8115W        W80540   8.889  20.750  13.536
 8116W        W80541  40.376  14.170  12.588
 8117W        W80542  30.441  19.812   4.084
 8118W        W80543   1.995   3.358   2.400
 8119W        W80544  22.623  37.122   0.723
 8120W        W80545   4.186  18.074  10.853
 8121W        W80546  17.327  15.790  11.932
 8122W        W80547  42.129  24.188   0.012
 8123W        W80548  34.369  23.947  14.418
 8124W        W80549   4.357  27.105   1.946
 8125W        W80550  32.392  16.223  13.445
 8126W        W80551  29.137  31.544   2.103
 8127W        W80552  24.563  14.246  12.609
 8128W        W80553  21.270  16.599  12.516
 8129W        W80554  12.415  43.400  10.433
 8130W        W80555   8.406   3.694  12.145
 8131W        W80556  16.264   5.367  11.878
 8132W        W80557  27.623  40.761  12.347
 8133W        W80558  41.110  39.496  12.054
 8134W        W80559  37.391  21.946  11.064
 8135W        W80560   5.004  22.947  11.574
 8136W        W80561   2.345  21.097  12.938
 8137W        W80562   5.828  42.939   2.690
 8138W        W80563   1.416  13.560  13.983
 8139W        W80564   6.436  26.693   9.989
 8140W        W80565  38.409  28.600   4.094
 8141W        W80566  32.037  23.778   4.017
 8142W        W80567  38.577  10.767   3.806
 8143W        W80568  32.881  12.603   0.980
 8144W        W80569   1.934  39.236   1.257
 8145W        W80570   5.330  19.151  10.721
 8146W        W80571   0.982  17.734  12.033
 8147W        W80572  38.788  13.669  10.571
 8148W        W80573   0.643  30.910  11.411
 8149W        W80574  33.718  15.140  13.353
 8150W        W80575  36.185  39.470   4.645
 8151W        W80576  13.282  18.197  14.194
 8152W        W80577  33.359  34.931   2.112
 8153W        W80578  28.115  13.202   4.998
 8154W        W80579  36.665  37.301  14.951
 8155W        W80580  20.501  15.791   1.616
 8156W        W80581  18.249  44.242   0.373
 8157W        W80582  30.342  44.344  12.017
 8158W        W80583   7.469  39.225  13.889
 8159W        W80584  24.446   2.537   3.682
 8160W        W80585  21.075  18.127   2.703
 8161W        W80586  23.628  25.971  12.836
 8162W        W80587  35.516  38.579   2.315
 8163W        W80588  22.986   5.646  12.380
 8164W        W80589  28.177  23.934  11.897
 8165W        W80590  26.764  36.399   1.184
 8166W        W80591   1.498  44.749   3.446
 8167W        W80592  37.305  29.458  11.011
 8168W        W80593  28.702  34.668   2.106
 8169W        W80594  25.934   0.295  13.327
 8170W        W80595  32.084  22.100   2.445
 8171W        W80596   4.628  41.552  13.220
 8172W        W80597  15.658  18.845   2.450
 8173W        W80598  18.083   5.475  12.810
 8174W        W80599  23.504  13.533   1.463
 8175W        W80600  19.609  43.769   1.315
 8176W        W80601  36.934  35.826  11.521
 8177W        W80602  26.894   2.836  11.144
 8178W        W80603  41.935  27.480   3.795
 8179W        W80604  34.590   0.773  11.253
 8180W        W80605  29.899  34.482  10.529
 8181W        W80606   7.277  40.314   3.846
 8182W        W80607  28.145   4.669  13.001
 8183W        W80608  39.833  18.668   3.243
 8184W        W80609  27.112  38.438   0.913
 8185W        W80610  11.690   5.976   0.966
 8186W        W80611  26.678  12.677   1.841
 8187W        W80612  44.911  30.676  13.388
 8188W        W80613  19.788  35.073  11.447
 8189W        W80614  30.213  15.826  12.111
 8190W        W80615  36.463  34.256   4.394
 8191W        W80616  16.257  31.302   2.927
 8192W        W80617  37.290  29.465  14.236
 8193W        W80618   7.821  10.450   1.464
 8194W        W80619  12.643  26.021  10.805
 8195W        W80620  29.917   8.239  13.594
 8196W        W80621  37.184   4.579  13.308
 8197W        W80622  39.290  35.508  12.106
 8198W        W80623   4.614  23.123  10.665
 8199W        W80624  16.139  19.767  12.498
 8200W        W80625   9.366  20.488   0.033
 8201W        W80626  22.453  18.258  11.907
 8202W        W80627  12.105  38.528   3.077
 8203W        W80628  20.986   7.534   1.421
 8204W        W80629  31.270  43.070  13.424
 8205W        W80630   2.176  19.788   0.494
 8206W        W80631  32.525  32.538   3.152
 8207W        W80632  31.611   5.233  14.781
 8208W        W80633  43.336  13.622   4.645
 8209W        W80634   1.998  34.003  10.844
 8210W        W80635  20.381   7.190   0.380
 8211W        W80636  12.395   4.075   9.680
 8212W        W80637  13.346   6.103  14.207
 8213W        W80638   2.716  29.061  10.660
 8214W        W80639  17.753  23.120   4.900
 8215W        W80640  42.431  43.259   2.707
 8216W        W80641  36.875  24.717   1.743
 8217W        W80642  17.169  36.379   0.384
 8218W        W80643  30.668   7.558   0.389
 8219W        W80644  24.589  10.672  12.007
 8220W        W80645  39.710  43.409  12.605
 8221W        W80646   3.914   5.979  12.842
 8222W        W80647  16.781   9.675  14.539
 8223W        W80648  40.372  33.115  12.918
 8224W        W80649  17.909  44.868   2.184
 8225W        W80650  17.162  33.380   1.231
 8226W        W80651   0.662  33.511  11.213
 8227W        W80652  10.157  39.976   0.435
 8228W        W80653  27.626   5.169  10.953
 8229W        W80654  32.583  20.486   0.862
 8230W        W80655  43.623  18.529  11.986
 8231W        W80656  13.012  41.462  13.935
 8232W        W80657  13.443  16.435  13.424
 8233W        W80658  19.571  12.772  11.172
 8234W        W80659  40.101  22.698   4.165
 8235W        W80660  35.915  15.324  10.635
 8236W        W80661  14.513  33.759   4.331
 8237W        W80662  21.453  18.233   1.755
 8238W        W80663  11.639  17.148  14.312
 8239W        W80664  17.673   1.381  13.937
 8240W        W80665   1.480  39.692  11.322
 8241W        W80666  40.859  11.055  12.532
 8242W        W80667  10.181  43.455  13.114
 8243W        W80668  12.748  43.346   3.353
 8244W        W80669  41.114   1.505   3.307
 8245W        W80670   4.959  20.043   1.016
 8246W        W80671  12.082  20.986  13.944
 8247W        W80672  29.520  31.840   3.747
 8248W        W80673  31.489  30.573   0.435
 8249W        W80674  23.949  11.076   2.891
 8250W        W80675   4.715  24.639  13.043
 8251W        W80676  28.394  44.905  14.193
 8252W        W80677   7.254  22.408  10.584
 8253W        W80678  40.264  41.369   3.722
 8254W        W80679   0.382  33.324   1.456
 8255W        W80680  41.301  34.496   0.772
 8256W        W80681   5.454  23.060   2.868
 8257W        W80682  31.839  21.769  14.558
 8258W        W80683  42.927  28.612  14.472
 8259W        W80684  33.401  35.599   0.933
 8260W        W80685  42.897  30.625   4.654
 8261W        W80686  25.709  41.314   4.107
 8262W        W80687   1.540  27.122  11.096
 8263W        W80688  22.776   4.909  13.018
 8264W        W80689  10.831  28.957   4.629
 8265W        W80690   6.641  32.096  13.780
 8266W        W80691  23.481  43.005   1.329
 8267W        W80692  17.504  10.257  14.962
 8268W        W80693  44.511  27.955   2.698
 8269W        W80694  28.430   9.398  14.976
 8270W        W80695   3.423   5.335   2.021
 8271W        W80696  43.235  11.168   1.613
 8272W        W80697  28.553   8.258   3.708
 8273W        W80698  20.692   6.880  14.027
 8274W        W80699  35.643   1.043   1.318
 8275W        W80700  23.448   9.792   3.773
 8276W        W80701  44.366  19.253  14.039
 8277W        W80702  42.031  28.255  10.369
 8278W        W80703  21.075  28.679   3.211
 8279W        W80704  39.644  44.347   2.772
 8280W        W80705   3.340  28.114   0.861
 8281W        W80706  12.385   1.968  14.957
 8282W        W80707  36.817   1.928  12.823
 8283W        W80708  20.202   4.408  14.921
 8284W        W80709  27.428  43.298   0.907
 8285W        W80710  27.673  32.686   4.408
 8286W        W80711  38.057   4.302  10.905
 8287W        W80712  33.568  23.234  11.899
 8288W        W80713  17.155  38.914   3.686
 8289W        W80714  13.347  32.612  14.806
 8290W        W80715  37.033  13.248  11.510
 8291W        W80716  29.076  44.942  12.440
 8292W        W80717  23.706   6.869  14.086
 8293W        W80718  31.904  38.161   1.698
 8294W        W80719  33.915  38.626   0.268
 8295W        W80720  32.949   4.831  10.696
 8296W        W80721  29.964  33.024   4.118
 8297W        W80722   5.916  23.286  14.339
 8298W        W80723  29.465  14.766   1.433
 8299W        W80724  32.092  19.237   0.940
 8300W        W80725  44.285  26.214   2.204
 8301W        W80726  34.826  31.044   1.311
 8302W        W80727  20.025   9.764   4.819
 8303W        W80728   2.336  34.544   4.851
 8304W        W80729  15.883  31.158   0.205
 8305W        W80730  37.799  38.003  14.292
 8306W        W80731   9.403   7.362  11.553
 8307W        W80732  22.155  28.661   2.355
 8308W        W80733  19.267  32.511   4.152
 8309W        W80734   7.728  27.126   2.371
 8310W        W80735   3.783  23.707   2.406
 8311W        W80736   6.838   6.690   3.232
 8312W        W80737  42.889  15.253   3.655
 8313W        W80738  31.090  24.760  14.013
 8314W        W80739  14.551   4.024  14.822
 8315W        W80740  18.596   4.602   1.368
 8316W        W80741  29.606  43.673   1.311
 8317W        W80742  40.367   8.933  10.594
 8318W        W80743   7.949  41.829   4.074
 8319W        W80744  26.103  21.148  13.354
 8320W        W80745   6.523   6.186   2.214
 8321W        W80746  35.452  28.170   1.459
 8322W        W80747   6.803  22.276  13.484
 8323W        W80748  31.561  31.703   1.434
 8324W        W80749  15.241  25.638   4.194
 8325W        W80750  10.249   7.190   3.687
 8326W        W80751  25.601  20.989  13.301
 8327W        W80752  36.687  20.089  11.189
 8328W        W80753  22.489  39.313  12.204
 8329W        W80754  42.222   0.357  11.141
 8330W        W80755  44.567  24.135   0.903
 8331W        W80756  42.470   0.276   2.701
 8332W        W80757  13.102   0.613  14.843
 8333W        W80758   5.774   7.685  13.864
 8334W        W80759  15.086   9.682   0.328
 8335W        W80760  23.217  37.034   3.764
 8336W        W80761  41.640  29.749   3.543
 8337W        W80762  24.892  22.691   0.780
 8338W        W80763  31.500  44.821  14.482
 8339W        W80764  30.246   3.668   2.836
 8340W        W80765  14.177  13.616  12.622
 8341W        W80766   2.818  22.998   0.053
 8342W        W80767  44.547  23.683   1.837
 8343W        W80768  20.564  11.615  10.625
 8344W        W80769   1.108  21.542  12.922
 8345W        W80770  38.961  36.946   2.130
 8346W        W80771  25.248  33.342  11.929
 8347W        W80772  36.840  30.500   2.194
 8348W        W80773  24.655   0.402   1.850
 8349W        W80774  14.701  18.766   1.339
 8350W        W80775   1.418  24.542   4.684
 8351W        W80776  23.859  40.847  13.040
 8352W        W80777   1.372  35.934  12.838
 8353W        W80778  40.824  33.517   2.775
 8354W        W80779  11.605  39.089   1.424
 8355W        W80780   0.553   2.283  10.465
 8356W        W80781  21.260  28.399   0.889
 8357W        W80782  23.054   1.437   3.266
 8358W        W80783  43.002   7.923  13.443
 8359W        W80784  33.683  29.910  14.506
 8360W        W80785  40.430  41.929   2.269
 8361W        W80786   6.505  23.730   0.051
 8362W        W80787  10.166  19.833  11.202
 8363W        W80788  13.595  14.120  14.953
 8364W        W80789  30.759  25.937  14.802
 8365W        W80790  21.711  11.785   5.713
 8366W        W80791  11.102  26.150   0.259
 8367W        W80792  42.489  12.677   2.357
 8368W        W80793  36.618   3.997   2.187
 8369W        W80794   5.247  23.658   1.474
 8370W        W80795  36.014   6.177   4.747
 8371W        W80796  16.461  38.354   3.741
 8372W        W80797  40.523  25.998   4.771
 8373W        W80798   6.183  31.361   4.735
 8374W        W80799  34.891  24.930   2.361
 8375W        W80800   7.241  26.712   1.824
 8376W        W80801   3.590  14.139  14.117
 8377W        W80802   7.259  36.872   0.106
 8378W        W80803  26.943  41.338  11.172
 8379W        W80804  39.928  19.632   4.309
 8380W        W80805  43.700  30.051  13.759
 8381W        W80806  44.421  26.294   3.563
 8382W        W80807  21.552  23.460   2.619
 8383W        W80808   0.551  18.828  14.403
 8384W        W80809  43.035  44.477  11.052
 8385W        W80810   3.508  32.988  13.460
 8386W        W80811  38.179  18.817  14.854
 8387W        W80812   0.939  12.798   1.148
 8388W        W80813  28.503  16.902  12.046
 8389W        W80814  39.440  38.317  12.083
 8390W        W80815  42.511   3.150   1.220
 8391W        W80816  33.161   4.392  10.536
 8392W        W80817  19.871  12.726  13.930
 8393W        W80818  16.101  34.344   2.151
 8394W        W80819  37.580  43.820  11.018
 8395W        W80820  41.158  41.248  14.854
 8396W        W80821   1.997   7.948   1.653
 8397W        W80822  27.836  23.996  12.898
 8398W        W80823   0.551  31.496   1.868
 8399W        W80824  21.887  32.712  12.864
 8400W        W80825   7.373   6.555   4.036
 8401W        W80826  10.434  31.539   9.913
 8402W        W80827  16.532  12.637  13.322
 8403W        W80828  16.155  27.149   0.273
 8404W        W80829  39.051  35.123  10.196
 8405W        W80830  43.345  37.349   3.910
 8406W        W80831   3.904  26.395   4.044
 8407W        W80832  25.187   0.600   3.693
 8408W        W80833  16.306  19.300  14.313
 8409W        W80834  33.336  32.842   0.986
 8410W        W80835  28.860  29.923   4.680
 8411W        W80836  35.649   4.126  12.537
 8412W        W80837  33.472  22.748  14.324
 8413W        W80838  28.751  38.381   2.331
 8414W        W80839  39.447   0.193   2.159
 8415W        W80840   6.384  40.538  13.321
 8416W        W80841  19.631   6.366   2.649
 8417W        W80842  30.855  14.844   0.831
 8418W        W80843   2.012  25.930  10.676
 8419W        W80844  28.204   8.949   1.470
 8420W        W80845  15.785  27.762   4.616
 8421W        W80846  30.806   1.391  14.799
 8422W        W80847  36.900   1.274  13.423
 8423W        W80848  39.883  36.087   3.739
 8424W        W80849  34.918  41.235  12.990
 8425W        W80850   3.846  17.594   0.773
 8426W        W80851  11.630  44.304   0.323
 8427W        W80852  42.889  32.093   5.101
 8428W        W80853  38.929   4.265  11.186
 8429W        W80854  13.262  33.438  11.659
 8430W        W80855  39.356  26.374   3.699
 8431W        W80856   4.616  19.191  11.473
 8432W        W80857  38.024  37.615  11.100
 8433W        W80858  40.431   2.705   0.663
 8434W        W80859   1.446  24.951   2.362
 8435W        W80860  37.528  31.601   2.784
 8436W        W80861  25.714  20.362  13.946
 8437W        W80862  15.648  21.246  10.137
 8438W        W80863  12.159  35.300  13.051
 8439W        W80864  12.345  21.571  13.116
 8440W        W80865  13.839   0.673   2.225
 8441W        W80866   4.805  40.972   3.780
 8442W        W80867  13.269  20.617  13.611
 8443W        W80868  18.284  35.005  12.544
 8444W        W80869  29.102  41.858  10.535
 8445W        W80870  13.049  31.043  11.678
 8446W        W80871  18.295   0.515   3.795
 8447W        W80872  18.680  15.011  13.960
 8448W        W80873   5.258   4.206   1.485
 8449W        W80874  22.017  25.598   2.307
 8450W        W80875  39.362  31.318  13.986
 8451W        W80876  33.202  41.698   3.554
 8452W        W80877  17.619   7.362  12.526
 8453W        W80878  21.003  11.434  14.781
 8454W        W80879  14.048   0.834  11.805
 8455W        W80880  28.748  39.020   1.892
 8456W        W80881  11.871  32.359  14.851
 8457W        W80882  41.309  12.293   3.644
 8458W        W80883  28.901  20.560  12.895
 8459W        W80884  33.927  14.337  13.814
 8460W        W80885  20.865  26.140   4.247
 8461W        W80886  32.701  26.600   3.281
 8462W        W80887  39.457   6.105   1.193
 8463W        W80888  20.814  22.734   4.122
 8464W        W80889  17.579  15.719   4.037
 8465W        W80890  26.693  21.415  14.783
 8466W        W80891  19.216   6.205   2.382
 8467W        W80892  31.622  20.771  14.375
 8468W        W80893  31.606   8.428   1.672
 8469W        W80894  18.364  34.843   0.419
 8470W        W80895  42.142  16.702   4.307
 8471W        W80896  10.944  20.091   1.621
 8472W        W80897   8.484  24.621   4.087
 8473W        W80898  22.214  25.646  14.170
 8474W        W80899  15.525  25.521   2.692
 8475W        W80900  25.237  37.603  12.852
 8476W        W80901  25.113  10.749  13.297
 8477W        W80902  39.991  43.867   3.301
 8478W        W80903  36.388  11.508   2.352
 8479W        W80904  10.027  20.788   2.255
 8480W        W80905  32.373  21.507   0.794
 8481W        W80906  26.496   8.283  11.921
 8482W        W80907  40.310   9.127   2.773
 8483W        W80908  20.690   6.832   4.388
 8484W        W80909  37.947  41.234  12.422
 8485W        W80910  12.257  40.357  10.827
 8486W        W80911  19.599   1.600   2.894
 8487W        W80912  18.212  20.059  14.865
 8488W        W80913   2.241  25.495  12.419
 8489W        W80914   3.526  41.205  12.091
 8490W        W80915  12.267  21.887  13.584
 8491W        W80916  40.297   9.016   4.094
 8492W        W80917  37.612  31.962  10.731
 8493W        W80918  19.243   7.276  10.681
 8494W        W80919  23.110   7.839   1.849
 8495W        W80920  17.089   2.967   0.846
 8496W        W80921  13.795  20.971   1.711
 8497W        W80922   5.828   2.333  12.537
 8498W        W80923  15.443  20.705   0.875
 8499W        W80924  14.305  37.523  14.986
 8500W        W80925  12.143  13.868   3.024
 8501W        W80926  22.005  42.442  13.919
 8502W        W80927   8.988  14.388  13.363
 8503W        W80928   6.743  31.896  11.447
 8504W        W80929  23.689   0.831   0.806
 8505W        W80930  21.858  10.169  10.224
 8506W        W80931  20.614  37.000  13.822
 8507W        W80932  38.802  16.080   1.295
 8508W        W80933   5.182   0.384   2.386
 8509W        W80934  31.092  35.774  10.660
 8510W        W80935   6.882  38.393   3.687
 8511W        W80936   1.164  22.057  11.828
 8512W        W80937   1.403  42.595   3.622
 8513W        W80938  43.291  26.034   0.028
 8514W        W80939  36.009  14.433   3.277
 8515W        W80940   1.915  33.329   4.935
 8516W        W80941  22.148  15.104  11.793
 8517W        W80942  37.367  28.509   0.354
 8518W        W80943  28.596  29.088  12.428
 8519W        W80944  27.213  10.856   4.003
 8520W        W80945  32.093   3.066  12.854
 8521W        W80946  43.828  28.561  10.454
 8522W        W80947  24.439  22.957  12.479
 8523W        W80948  31.132  38.316  11.559
 8524W        W80949  15.653   7.723  10.277
 8525W        W80950   2.457  39.401   2.862
 8526W        W80951  28.027  39.199  13.070
 8527W        W80952  30.510  22.734  13.386
 8528W        W80953  27.441  42.329  13.307
 8529W        W80954   4.874  19.437   3.223
 8530W        W80955  34.829  28.834   4.905
 8531W        W80956  12.160  35.600  13.493
 8532W        W80957  20.327  22.164  12.363
 8533W        W80958  20.205  11.462  14.536
 8534W        W80959  10.589  18.520  14.795
 8535W        W80960  18.796  40.260  12.518
 8536W        W80961  40.285  23.507  14.291
 8537W        W80962  12.498  34.007   2.837
 8538W        W80963  14.585  11.427  11.037
 8539W        W80964  36.071  36.769  13.345
 8540W        W80965   9.772  33.131   1.949
 8541W        W80966  10.393  44.171   4.384
 8542W        W80967   3.882  12.351   0.709
 8543W        W80968  30.878  27.006   0.017
 8544W        W80969  37.458   8.171   3.125
 8545W        W80970   4.336   4.349   3.580
 8546W        W80971  36.674  13.022   4.928
 8547W        W80972  14.552  28.847   3.272
 8548W        W80973  31.651   5.315  10.505
 8549W        W80974  35.877  14.699   0.205
 8550W        W80975   6.207  30.481   0.278
 8551W        W80976  37.498  29.655  14.678
 8552W        W80977  37.000   7.974   2.842
 8553W        W80978   3.728   5.342  13.347
 8554W        W80979   6.638  34.574  14.504
 8555W        W80980  41.905  23.931   4.630
 8556W        W80981  24.640  10.457  11.527
 8557W        W80982  17.136  32.379   5.506
 8558W        W80983  20.135   0.319   2.881
 8559W        W80984  15.184  12.581  11.932
 8560W        W80985  43.024  38.587  13.465
 8561W        W80986  34.671  30.285  10.838
 8562W        W80987   5.621  27.072  11.717
 8563W        W80988  38.148   8.259  12.047
 8564W        W80989   1.553  33.962   1.186
 8565W        W80990  38.599  30.206   2.295
 8566W        W80991   5.291   8.721   1.286
 8567W        W80992  11.962  23.105  13.394
 8568W        W80993  35.191  15.645  10.185
 8569W        W80994   5.250   4.208   4.428
 8570W        W80995  11.453  44.766  10.429
 8571W        W80996   5.693   8.821   2.412
 8572W        W80997  38.593   5.177   4.505
 8573W        W80998  40.843  41.919   0.967
 8574W        W80999  35.373  32.968  13.789
 8575W        W81000  36.340  22.612  10.090
 8576W        W81001   5.310  14.110  14.083
 8577W        W81002  23.061   7.718  11.944
 8578W        W81003   8.728   5.891  11.667
 8579W        W81004   7.495  16.233   3.756
 8580W        W81005  34.566   2.967  14.421
 8581W        W81006  22.526  14.812   3.834
 8582W        W81007  43.933  12.361   4.804
 8583W        W81008  33.631  41.963   0.208
 8584W        W81009  30.226  36.388  10.831
 8585W        W81010  11.355  15.607   3.622
 8586W        W81011  12.977  22.512   4.336
 8587W        W81012  21.501  22.953   2.454
 8588W        W81013  25.082  38.491  12.319
 8589W        W81014  14.871  39.316   2.713
 8590W        W81015  31.197  26.576   1.928
 8591W        W81016  32.367  19.523   1.832
 8592W        W81017  12.649  41.216   4.221
 8593W        W81018  41.785  26.085   2.261
 8594W        W81019  36.177   4.985  14.772
 8595W        W81020   0.953  32.647  11.935
 8596W        W81021  24.876  29.040  14.733
 8597W        W81022  32.969  15.798   3.678
 8598W        W81023   3.507  21.047  10.356
 8599W        W81024  40.336   8.767  12.303
 8600W        W81025  11.485   2.333   4.957
 8601W        W81026  11.726  21.433   2.652
 8602W        W81027  24.934  19.704   0.619
 8603W        W81028  17.850   9.784  11.119
 8604W        W81029  41.000   1.702   2.843
 8605W        W81030   8.503  14.058  11.786
 8606W        W81031   5.223  25.950   1.237
 8607W        W81032  38.676  43.672   3.195
 8608W        W81033  24.216   8.121  11.199
 8609W        W81034  32.911  15.792  14.361
 8610W        W81035  18.257   4.999  12.892
 8611W        W81036  23.087  24.186   4.857
 8612W        W81037  37.837  20.752   4.829
 8613W        W81038  21.363  44.430   5.154
 8614W        W81039   6.175   4.941   4.260
 8615W        W81040  14.244  38.953  10.663
 8616W        W81041   2.483  35.670   3.400
 8617W        W81042  19.705  32.623  14.707
 8618W        W81043  13.291   1.868   4.094
 8619W        W81044  12.390   1.475   2.723
 8620W        W81045  25.177  15.981   0.895
 8621W        W81046  13.395   8.378  11.537
 8622W        W81047  19.577  23.209   2.939
 8623W        W81048  18.795  25.909  10.549
 8624W        W81049  39.176  44.805  13.549
 8625W        W81050  41.342  24.103  11.409
 8626W        W81051   1.884   3.366  11.160
 8627W        W81052   7.748   8.894  11.890
 8628W        W81053  36.592  40.828   0.855
 8629W        W81054  19.046  26.277   0.007
 8630W        W81055  11.852  28.362  10.730
 8631W        W81056  14.540   6.305   2.379
 8632W        W81057  22.549   3.493   0.348
 8633W        W81058   8.251  16.804  14.813
 8634W        W81059  10.179  41.320  13.856
 8635W        W81060   8.142   6.925   4.141
 8636W        W81061   3.959  38.112   4.214
 8637W        W81062  11.688  23.108   3.851
 8638W        W81063  38.383  13.203   2.225
 8639W        W81064  14.177   7.752  11.443
 8640W        W81065  29.177   0.439   3.929
 8641W        W81066   0.287  10.044  11.402
 8642W        W81067  20.769  22.709  14.729
 8643W        W81068  26.170   2.795  12.522
 8644W        W81069  17.977  42.449  11.659
 8645W        W81070   8.284   6.768   1.417
 8646W        W81071  28.637  23.359  14.871
 8647W        W81072  31.175  23.730  14.023
 8648W        W81073  25.029  33.534  13.137
 8649W        W81074  22.580  11.465   5.165
 8650W        W81075  26.736  13.722   0.826
 8651W        W81076  13.545   8.072   1.466
 8652W        W81077  13.853  17.367  12.087
 8653W        W81078  37.580  17.202  14.384
 8654W        W81079   1.331  12.786   4.351
 8655W        W81080  40.789  44.972  14.781
 8656W        W81081   0.190  11.625  13.768
 8657W        W81082  10.986  40.812   1.369
 8658W        W81083  35.703   2.608  14.926
 8659W        W81084  44.381   9.549  11.687
 8660W        W81085  38.387  13.369  10.756
 8661W        W81086  23.631  27.129  10.653
 8662W        W81087   7.907   1.854   1.986
 8663W        W81088  28.608  35.389   0.952
 8664W        W81089  18.562   3.817  12.894
 8665W        W81090  10.236  35.583   1.293
 8666W        W81091  33.541  43.564   3.748
 8667W        W81092   0.574  34.782  10.713
 8668W        W81093  31.440  25.928   1.445
 8669W        W81094   2.327   3.400  14.241
 8670W        W81095  26.347  43.491  14.591
 8671W        W81096  20.483  16.355  12.208
 8672W        W81097   6.734  31.685   4.180
 8673W        W81098  34.375  40.516   4.993
 8674W        W81099  25.042  43.302  14.805
 8675W        W81100   5.213  11.298  12.950
 8676W        W81101  43.358  43.883  13.335
 8677W        W81102  12.499  30.328   4.093
 8678W        W81103   8.017  18.592   2.766
 8679W        W81104  20.527  40.455   0.821
 8680W        W81105  22.377   7.052   3.541
 8681W        W81106  26.677  37.933  12.866
 8682W        W81107  22.074  37.812  13.040
 8683W        W81108  36.461   5.939   4.838
 8684W        W81109  15.509  31.987   2.770
 8685W        W81110  14.102  11.304   1.985
 8686W        W81111  19.847  28.042  14.819
 8687W        W81112  44.692   4.470   2.756
 8688W        W81113   6.140  24.225   2.227
 8689W        W81114  35.107  41.362   4.517
 8690W        W81115  39.562  17.614   1.311
 8691W        W81116  38.596   9.218  14.379
 8692W        W81117  15.567  28.209  13.079
 8693W        W81118   2.296  25.388  10.506
 8694W        W81119  14.710   9.866  11.215
 8695W        W81120  26.211  29.077   3.283
 8696W        W81121  44.611  38.893   0.276
 8697W        W81122  26.234  42.810  11.959
 8698W        W81123   5.768  23.055  14.773
 8699W        W81124   1.238   8.780  11.612
 8700W        W81125  14.479  18.281   1.938
 8701W        W81126  13.170  26.665  14.360
 8702W        W81127   9.864  31.963   1.817
 8703W        W81128  18.642  25.773  11.540
 8704W        W81129  20.318  12.751  10.829
 8705W        W81130  33.998  12.030  14.436
 8706W        W81131  29.568  26.769   2.105
 8707W        W81132  10.580  38.136   9.953
 8708W        W81133  12.531   5.744  12.108
 8709W        W81134  24.094  44.483  12.817
 8710W        W81135  22.124  33.082  14.040
 8711W        W81136  29.969  40.270   4.701
 8712W        W81137  25.656  29.202  11.571
 8713W        W81138  30.930  24.079   3.213
 8714W        W81139  43.781  40.404   2.040
 8715W        W81140   0.855   2.514  11.437
 8716W        W81141  38.928   2.720   3.507
 8717W        W81142  11.888  44.461   4.514
 8718W        W81143  32.361   1.478   0.813
 8719W        W81144   9.258  16.312   4.881
 8720W        W81145  30.571  33.054   1.467
 8721W        W81146  35.759   9.072  13.925
 8722W        W81147  19.092   8.448   3.359
 8723W        W81148  32.094   8.776   1.706
 8724W        W81149  35.693  36.275   1.972
 8725W        W81150  44.423  41.363   1.171
 8726W        W81151  43.930  20.208  11.864
 8727W        W81152  38.808  18.484  13.398
 8728W        W81153   2.673  32.979   1.056
 8729W        W81154  25.199  15.611   2.260
 8730W        W81155  44.406  44.038  11.546
 8731W        W81156   6.171  40.475   4.263
 8732W        W81157  13.712  24.984  14.585
 8733W        W81158  37.798  21.921  14.495
 8734W        W81159  33.348  31.081  14.579
 8735W        W81160  27.246   6.982   2.309
 8736W        W81161   3.179  11.911   4.152
 8737W        W81162  17.310  29.440   1.914
 8738W        W81163  42.285  17.586   2.287
 8739W        W81164  35.185  38.021   0.502
 8740W        W81165  37.914  33.459   4.802
 8741W        W81166  36.415   2.799  14.228
 8742W        W81167   4.021   0.350  13.829
 8743W        W81168  10.984  23.468  14.885
 8744W        W81169   0.402  17.330  13.624
 8745W        W81170  28.970   9.778  13.352
 8746W        W81171  20.287  38.510   0.812
 8747W        W81172   0.137   8.330  13.819
 8748W        W81173  20.038  41.478   0.723
 8749W        W81174  40.083  15.179  11.591
 8750W        W81175  42.408  18.162   4.149
 8751W        W81176  19.534  20.700   0.975
 8752W        W81177   9.329  18.306  14.391
 8753W        W81178  11.571  41.885   0.079
 8754W        W81179  22.623  33.683   3.578
 8755W        W81180  10.424  37.982  13.976
 8756W        W81181  36.410   4.992  12.970
 8757W        W81182  12.920  31.943   4.210
 8758W        W81183  43.348  40.679  12.049
 8759W        W81184  31.324  37.879  12.016
 8760W        W81185  41.325  37.201   3.304
 8761W        W81186   3.958  36.356   1.854
 8762W        W81187  40.798   8.991   1.296
 8763W        W81188  30.096  44.990  14.823
 8764W        W81189   2.226  29.889  12.675
 8765W        W81190  33.866  12.173   2.698
 8766W        W81191   3.792  27.704  13.087
 8767W        W81192   9.070  32.427   0.521
 8768W        W81193   9.320  26.168  14.624
 8769W        W81194  14.512   3.273   4.558
 8770W        W81195  33.114  29.966  12.932
 8771W        W81196  13.650  37.019   0.946
 8772W        W81197   1.508  41.183  12.013
 8773W        W81198  30.391  14.504   1.380
 8774W        W81199   8.204  12.310   3.174
 8775W        W81200  13.723  22.876  14.991
 8776W        W81201  17.097   8.064   5.184
 8777W        W81202  14.706   1.918   2.323
 8778W        W81203  38.392   6.902  11.433
 8779W        W81204  29.713  44.363  12.637
 8780W        W81205   1.963  22.680   1.679
 8781W        W81206  34.870  28.291  14.704
 8782W        W81207  36.013  24.481  13.414
 8783W        W81208  23.628  38.431  14.649
 8784W        W81209  14.624  20.673   0.456
 8785W        W81210   3.656  20.259  12.234
 8786W        W81211   2.269  24.201  12.390
 8787W        W81212   5.344  32.011  12.619
 8788W        W81213  19.211   2.301  13.919
 8789W        W81214  15.920  20.239  11.716
 8790W        W81215  22.974  13.541   1.372
 8791W        W81216   3.490  39.066   2.259
 8792W        W81217  26.589  27.160  11.134
 8793W        W81218  40.891  43.105  13.442
 8794W        W81219  32.040   9.004  13.806
 8795W        W81220  15.572  21.689  13.088
 8796W        W81221  34.530  30.302  11.631
 8797W        W81222  20.489   5.343   0.215
 8798W        W81223  26.099  12.668  12.127
 8799W        W81224  30.770   8.152  10.989
 8800W        W81225   7.903  35.768   0.146
 8801W        W81226  23.251  32.079   0.364
 8802W        W81227  13.538  35.120   1.448
 8803W        W81228  13.889  44.570  14.078
 8804W        W81229  20.910   5.863  11.045
 8805W        W81230   3.644  22.724  13.843
 8806W        W81231   0.331  28.430  10.701
 8807W        W81232   5.378  38.347   4.009
 8808W        W81233  25.631  21.311  11.989
 8809W        W81234  34.284   8.653   1.940
 8810W        W81235  38.483  15.348   3.167
 8811W        W81236  25.122  21.429   2.135
 8812W        W81237  38.271  16.228   2.183
 8813W        W81238  44.925  35.011   2.316
 8814W        W81239   0.417  21.056   3.210
 8815W        W81240   0.783  29.959  14.634
 8816W        W81241  41.296  16.863   2.754
 8817W        W81242  26.201   0.757   1.657
 8818W        W81243  39.925  33.494  12.172
 8819W        W81244  21.683  14.316   2.167
 8820W        W81245  22.120   6.979  14.491
 8821W        W81246  36.601  29.656   4.929
 8822W        W81247  17.444  25.324   1.005
 8823W        W81248   9.240  31.946  11.091
 8824W        W81249  14.728  13.566  10.766
 8825W        W81250  41.573  21.139   0.393
 8826W        W81251  10.845   7.273  14.104
 8827W        W81252  43.377  22.304   1.625
 8828W        W81253  29.469  22.024   3.787
 8829W        W81254  31.837   3.474   2.361
 8830W        W81255   0.361  15.819  13.437
 8831W        W81256  33.907  14.748  10.642
 8832W        W81257  30.238  21.310  12.209
 8833W        W81258   7.393  41.025  11.694
 8834W        W81259  33.383   0.029  11.980
 8835W        W81260  36.322  37.064   2.886
 8836W        W81261  33.006  26.560  13.744
 8837W        W81262  17.308  19.611  10.754
 8838W        W81263  24.281   1.916   0.491
 8839W        W81264  38.928   7.636   2.387
 8840W        W81265  21.397   8.927   3.278
 8841W        W81266  44.886  31.630  13.529
 8842W        W81267  30.209  34.892   1.885
 8843W        W81268   9.043  35.390   4.094
 8844W        W81269  33.332   9.348  14.037
 8845W        W81270  21.679  42.922   0.578
 8846W        W81271  13.141  26.962  10.975
 8847W        W81272  41.683  22.593   5.042
 8848W        W81273  37.084   0.675   3.850
 8849W        W81274   4.333  23.149  13.715
 8850W        W81275   7.919  12.496  12.354
 8851W        W81276   6.621  14.150   1.348
 8852W        W81277  18.751  28.475   0.379
 8853W        W81278  30.408  18.719   4.989
 8854W        W81279  32.125   3.220   0.785
 8855W        W81280  38.438  39.048   3.143
 8856W        W81281  25.713  32.814  13.061
 8857W        W81282  41.969  21.670  14.003
 8858W        W81283  43.651  36.489   0.267
 8859W        W81284  42.429   1.635   2.277
 8860W        W81285  22.047  12.419   2.829
 8861W        W81286  22.299  10.875  14.458
 8862W        W81287  36.816  39.739  11.977
 8863W        W81288  13.673  16.302  11.213
 8864W        W81289  33.471   0.538   0.924
 8865W        W81290  23.982  30.461   4.945
 8866W        W81291  26.975  38.492  12.032
 8867W        W81292  37.367  41.983   2.851
 8868W        W81293  42.120  14.321   4.437
 8869W        W81294   6.285   9.123   1.943
 8870W        W81295  26.625   4.677  11.628
 8871W        W81296   3.987  12.228   2.294
 8872W        W81297  22.652  23.517  10.739
 8873W        W81298   7.830  42.374  12.562
 8874W        W81299   9.237   8.837  13.442
 8875W        W81300  39.927  34.659  12.419
 8876W        W81301  18.435  24.059   3.759
 8877W        W81302  33.375   6.372  11.352
 8878W        W81303   7.747  17.565   2.203
 8879W        W81304  18.450  31.611  11.907
 8880W        W81305  30.256  17.458  14.384
 8881W        W81306  43.492  21.114   1.295
 8882W        W81307  36.990  18.015   2.350
 8883W        W81308   3.429  12.132  13.898
 8884W        W81309  17.062  44.498   1.199
 8885W        W81310  32.554  25.279  11.458
 8886W        W81311  14.898  32.974   0.366
 8887W        W81312  17.139  41.058   0.498
 8888W        W81313  27.211  44.344   1.716
 8889W        W81314   1.448   5.598   1.281
 8890W        W81315  26.785  38.372  11.555
 8891W        W81316  20.725   0.614   1.568
 8892W        W81317  20.308  40.520  13.230
 8893W        W81318  30.448  27.610   3.220
 8894W        W81319   2.965  30.229   4.512
 8895W        W81320  29.564  42.848   1.903
 8896W        W81321  11.227  33.854  10.401
 8897W        W81322  25.756   9.402   0.832
 8898W        W81323  16.570  10.875  12.134
 8899W        W81324  44.381  39.321   3.655
 8900W        W81325   4.909  11.253  14.512
 8901W        W81326  28.957  34.923   4.705
 8902W        W81327  33.888   6.858  12.071
 8903W        W81328  43.142  40.558   4.145
 8904W        W81329  29.597  34.178  14.684
 8905W        W81330  41.826  37.617   1.279
 8906W        W81331   1.182  21.127  13.706
 8907W        W81332  16.748  29.113  10.965
 8908W        W81333   3.822   4.675  13.888
 8909W        W81334   7.324   4.145   2.787
 8910W        W81335  33.612  20.749  13.019
 8911W        W81336   3.463   8.602   4.328
 8912W        W81337  23.153  13.791   0.917
 8913W        W81338  16.718  17.261  13.907
 8914W        W81339  13.102  31.095   2.856
 8915W        W81340  19.716  23.090   4.409
 8916W        W81341   2.386  32.477   0.216
 8917W        W81342  40.576   1.738   4.642
 8918W        W81343  17.645  11.815   4.107
 8919W        W81344   4.746  30.872   3.699
 8920W        W81345  17.063  19.537  11.614
 8921W        W81346  14.094   7.126  12.459
 8922W        W81347  31.157  22.138  13.465
 8923W        W81348  28.081  41.959  12.019
 8924W        W81349  11.389   5.102  11.387
 8925W        W81350   7.192   8.949   2.178
 8926W        W81351  42.463  12.727  12.009
 8927W        W81352   3.208  39.829   2.817
 8928W        W81353  37.549  41.832   2.302
 8929W        W81354  21.738  32.876  13.776
 8930W        W81355   7.795  43.546  13.542
 8931W        W81356  26.153  28.064   1.286
 8932W        W81357  28.765  14.858   2.599
 8933W        W81358  42.741  20.215  10.526
 8934W        W81359   8.110   6.167  10.646
 8935W        W81360  42.081  10.440  11.162
 8936W        W81361  18.473  32.287   4.500
 8937W        W81362  29.186  28.755   0.402
 8938W        W81363  23.618  31.246  11.001
 8939W        W81364  17.100  20.314  14.194
 8940W        W81365  18.633  42.816  12.621
 8941W        W81366  11.883  36.653   0.312
 8942W        W81367  38.946  27.907   2.871
 8943W        W81368   0.757  24.588   4.125
 8944W        W81369  30.456  17.080   4.604
 8945W        W81370  19.119  28.118  14.065
 8946W        W81371  42.546  16.610  12.480
 8947W        W81372  28.694  13.755   0.042
 8948W        W81373  28.013  37.457  13.548
 8949W        W81374   9.702  34.461   3.322
 8950W        W81375   7.309  18.628   1.676
 8951W        W81376  30.882   8.514   2.247
 8952W        W81377  14.713  23.641  11.332
 8953W        W81378  16.263  21.554  13.737
 8954W        W81379  14.730   0.241  11.872
 8955W        W81380   0.574   8.441  12.127
 8956W        W81381  31.125  18.849  13.415
 8957W        W81382  28.327  29.733  13.379
 8958W        W81383  24.983  36.556  14.410
 8959W        W81384  19.921   5.454  12.322
 8960W        W81385  26.726   1.054   4.168
 8961W        W81386  36.524  11.579   4.855
 8962W        W81387  22.916  14.142   3.685
 8963W        W81388  27.155  18.901  12.914
 8964W        W81389  27.842  21.177  11.082
 8965W        W81390  19.078  19.227  12.799
 8966W        W81391  36.887  40.552  13.570
 8967W        W81392  10.346  40.239   2.413
 8968W        W81393  43.665   5.159   4.382
 8969W        W81394  13.325   5.264   4.251
 8970W        W81395  28.659   6.380   0.646
 8971W        W81396  34.477  19.075  14.124
 8972W        W81397  14.336  11.667  11.818
 8973W        W81398  29.726  18.886   2.631
 8974W        W81399  30.186  33.573   2.105
 8975W        W81400  19.689  36.222  13.440
 8976W        W81401  20.488  27.555   1.266
 8977W        W81402  17.583  17.407   3.964
 8978W        W81403  11.398  14.856  13.018
 8979W        W81404  41.465  26.038   1.494
 8980W        W81405  16.810   6.036  12.800
 8981W        W81406  35.871  14.327   2.093
 8982W        W81407  15.211  13.138  13.056
 8983W        W81408   4.019  23.802  12.057
 8984W        W81409  26.373  28.348   1.695
 8985W        W81410  37.191  22.658   1.535
 8986W        W81411  28.588   8.865  13.791
 8987W        W81412  30.666   2.527  14.519
 8988W        W81413  30.383  36.839   3.365
 8989W        W81414  10.933  41.930   1.777
 8990W        W81415   7.696  37.883   2.972
 8991W        W81416  23.983  31.195   4.632
 8992W        W81417  37.232  34.943  13.861
 8993W        W81418  17.199  25.395   0.336
 8994W        W81419  28.551  34.382   1.104
 8995W        W81420  22.595   8.359   1.420
 8996W        W81421  43.582  15.932  11.103
 8997W        W81422  31.960  31.999   3.238
 8998W        W81423  18.803   1.281  11.087
 8999W        W81424   6.126  36.193   0.856
 9000W        W81425  21.125  31.087   1.852
 9001W        W81426  10.257  44.762   1.863
 9002W        W81427  24.622   4.354   1.887
 9003W        W81428  40.690   6.959  12.706
 9004W        W81429   8.090  33.643   2.759
 9005W        W81430  30.060  32.056   0.404
 9006W        W81431  27.934   3.030  12.038
 9007W        W81432  29.693   5.889   2.760
 9008W        W81433  28.834  23.183  10.159
 9009W        W81434  28.087  38.614   3.351
 9010W        W81435  25.728  36.821   1.867
 9011W        W81436  31.329  39.631   0.336
 9012W        W81437  18.628   7.591  14.312
 9013W        W81438  19.797   9.744  12.479
 9014W        W81439  17.701   2.422   2.020
 9015W        W81440  19.270  29.497  13.891
 9016W        W81441  31.930  23.109   1.468
 9017W        W81442  22.498  22.296  12.974
 9018W        W81443  42.810  14.984   0.701
 9019W        W81444  15.331   8.455  11.879
 9020W        W81445  15.877   8.546   4.205
 9021W        W81446  29.633   0.539   4.132
 9022W        W81447  39.637  27.088  11.089
 9023W        W81448  24.132  11.747   4.553
 9024W        W81449  28.308  34.417  12.422
 9025W        W81450  15.610  44.892   1.526
 9026W        W81451  38.738  15.723   3.633
 9027W        W81452  38.859  44.442   2.353
 9028W        W81453  44.379  33.865   3.197
 9029W        W81454  36.203  21.947  10.508
 9030W        W81455  33.854  44.112   0.124
 9031W        W81456  34.102   9.308  12.993
 9032W        W81457  15.006  35.147   5.005
 9033W        W81458   1.363  34.913  13.650
 9034W        W81459   0.768  15.621  11.028
 9035W        W81460  25.253  19.048   3.325
 9036W        W81461  21.744   5.244   3.728
 9037W        W81462  23.533  32.072   1.048
 9038W        W81463  27.644  28.506  10.449
 9039W        W81464   5.402  41.049   0.915
 9040W        W81465  29.420  36.726  11.876
 9041W        W81466  36.903  39.161   4.017
 9042W        W81467  33.050  10.181   0.757
 9043W        W81468  38.402  40.974   2.911
 9044W        W81469   1.475  31.068  11.134
 9045W        W81470   7.409  27.449   0.068
 9046W        W81471  27.191  15.640  13.447
 9047W        W81472  10.862  19.169  11.987
 9048W        W81473   1.867  15.605   4.379
 9049W        W81474  20.796  32.577  11.932
 9050W        W81475  32.854  33.538   2.261
 9051W        W81476  43.933  22.131   0.661
 9052W        W81477  24.738   2.525  11.767
 9053W        W81478   0.769   2.458  14.445
 9054W        W81479   2.639  10.583  12.552
 9055W        W81480  12.145  13.211   1.827
 9056W        W81481  32.268  44.247  14.211
 9057W        W81482  41.780   3.270  13.838
 9058W        W81483   9.697  42.226  12.920
 9059W        W81484   4.739  39.340   1.759
 9060W        W81485  12.375   2.297  11.495
 9061W        W81486   1.523  42.455  11.528
 9062W        W81487   2.451  11.099   4.568
 9063W        W81488  24.438  21.690  10.765
 9064W        W81489  17.093  25.621   2.266
 9065W        W81490  31.666  39.960   3.373
 9066W        W81491  18.003  20.503   2.752
 9067W        W81492  38.180  15.267   0.732
 9068W        W81493   1.205  11.620   2.218
 9069W        W81494  32.934  44.248   2.325
 9070W        W81495  14.192  15.113   4.904
 9071W        W81496   9.198  43.234  11.466
 9072W        W81497  42.401  40.640   4.745
 9073W        W81498  43.429   2.901   3.541
 9074W        W81499   4.536  39.915  11.719
 9075W        W81500  19.220  27.296  14.769
 9076W        W81501  42.978  27.149  10.648
 9077W        W81502  22.266  31.265  13.805
 9078W        W81503  19.326  28.122  13.525
 9079W        W81504   9.164   6.248   4.520
 9080W        W81505  26.778  19.762   1.998
 9081W        W81506   4.669  43.015  12.060
 9082W        W81507  21.502   1.541   2.716
 9083W        W81508  18.303  11.345   1.814
 9084W        W81509  15.382  11.686  10.741
 9085W        W81510  19.797  17.188   0.562
 9086W        W81511   1.205  42.501   0.354
 9087W        W81512  38.114  17.746  11.586
 9088W        W81513  41.920  33.461  11.996
 9089W        W81514  12.294   1.842  13.369
 9090W        W81515   8.898  43.017   2.540
 9091W        W81516  21.642  22.941  10.784
 9092W        W81517   9.945   8.771  12.896
 9093W        W81518  31.995  16.091  14.964
 9094W        W81519  12.658  24.464   1.389
 9095W        W81520  41.341  23.421   0.435
 9096W        W81521  13.847  42.986   2.688
 9097W        W81522  12.187  39.650   1.706
 9098W        W81523   3.279  26.344  14.545
 9099W        W81524   5.899  44.426   1.880
 9100W        W81525  41.365  19.609  11.795
 9101W        W81526  30.104  41.438   4.744
 9102W        W81527  12.389  12.200  13.356
 9103W        W81528  27.941  14.101   0.454
 9104W        W81529   1.823  12.784  14.057
 9105W        W81530  10.347   6.407  12.994
 9106W        W81531   5.980  21.667  13.467
 9107W        W81532  25.496   3.850  13.420
 9108W        W81533  30.504   5.331  14.546
 9109W        W81534  41.410  41.828   0.352
 9110W        W81535   2.665   8.906   3.213
 9111W        W81536  29.366  43.809   4.736
 9112W        W81537  11.585  33.066  11.302
 9113W        W81538   9.843  36.928  12.116
 9114W        W81539  42.551   4.643  11.984
 9115W        W81540  30.430  36.891   1.786
 9116W        W81541  18.753  36.965   4.858
 9117W        W81542  38.729   8.327   5.026
 9118W        W81543   9.787  44.994   1.859
 9119W        W81544  22.995  14.701   4.078
 9120W        W81545  43.448  22.017  14.817
 9121W        W81546  36.077  10.127  10.185
 9122W        W81547  40.278  39.105   3.146
 9123W        W81548  42.353  20.766  10.938
 9124W        W81549  40.952  11.140  11.975
 9125W        W81550  29.354   6.455   4.130
 9126W        W81551  11.344  42.987  14.948
 9127W        W81552  11.271  31.241  11.216
 9128W        W81553  38.770  44.527   1.825
 9129W        W81554  33.409  42.198  10.498
 9130W        W81555  34.427  27.736  12.005
 9131W        W81556   2.519  16.658   2.935
 9132W        W81557  34.864   7.400   0.852
 9133W        W81558  44.858  22.835   1.891
 9134W        W81559  30.573  13.247   2.615
 9135W        W81560  12.171   2.642  11.039
 9136W        W81561  17.327  16.881   1.064
 9137W        W81562   8.330  19.292   4.132
 9138W        W81563  43.978  34.718  11.653
 9139W        W81564  22.304  29.495  13.902
 9140W        W81565  36.490  32.934   4.137
 9141W        W81566   4.649  41.295  12.508
 9142W        W81567   8.140   5.897   3.146
 9143W        W81568  17.095   0.036   2.472
 9144W        W81569  31.499  35.420   4.463
 9145W        W81570  19.245  22.976   3.836
 9146W        W81571  44.942  44.245   1.749
 9147W        W81572  32.100   7.876  13.003
 9148W        W81573  20.339  37.595   4.527
 9149W        W81574  43.923  26.242   2.816
 9150W        W81575   3.381  11.916  14.999
 9151W        W81576  21.497   7.185  14.721
 9152W        W81577  30.139  37.253   3.616
 9153W        W81578  44.557   9.137   2.381
 9154W        W81579  28.548   2.209  11.588
 9155W        W81580  14.223   0.408   3.475
 9156W        W81581  11.419   5.099   4.711
 9157W        W81582   7.724   0.521   4.199
 9158W        W81583  44.794  36.567  11.594
 9159W        W81584  18.787  11.308   4.555
 9160W        W81585  43.818   9.864  13.902
 9161W        W81586  42.730  41.080   2.033
 9162W        W81587  20.665   2.329   4.973
 9163W        W81588   5.418   8.277  11.212
 9164W        W81589  31.465  35.719   2.347
 9165W        W81590  21.037  16.732  12.984
 9166W        W81591   6.529  29.920   1.757
 9167W        W81592  15.562   2.134  13.621
 9168W        W81593   8.965  37.405   1.632
 9169W        W81594  10.836  35.659  13.686
 9170W        W81595   7.632  23.117   3.665
 9171W        W81596  43.850  33.419  10.969
 9172W        W81597  39.096  13.119  11.919
 9173W        W81598  33.345  40.728   0.082
 9174W        W81599  15.668  36.081  14.199
 9175W        W81600  30.415  41.496  14.802
 9176W        W81601  20.528   7.731  13.439
 9177W        W81602  43.852  19.553   0.573
 9178W        W81603   0.998  41.485   4.595
 9179W        W81604   1.064   2.184  11.117
 9180W        W81605  15.903  29.923  13.412
 9181W        W81606  38.470   7.490   5.435
 9182W        W81607   6.203  38.398  13.070
 9183W        W81608   5.056   9.521  13.796
 9184W        W81609  35.863  34.136  14.488
 9185W        W81610  11.889  31.540   2.728
 9186W        W81611  32.485  16.109  10.634
 9187W        W81612  23.666  18.212  11.965
 9188W        W81613  25.087  42.161  12.896
 9189W        W81614  33.889   0.519   4.660
 9190W        W81615  28.931  10.345  12.469
 9191W        W81616  36.483  11.147   4.556
 9192W        W81617  30.144  16.773  13.316
 9193W        W81618  16.757   0.729   4.536
 9194W        W81619   8.686  29.374   1.176
 9195W        W81620  22.755  32.370   0.661
 9196W        W81621  17.579  37.377  10.779
 9197W        W81622  41.861   7.606  12.959
 9198W        W81623   1.415  29.191   0.304
 9199W        W81624   0.550   4.570   3.750
 9200W        W81625  43.037  29.349  14.993
 9201W        W81626  44.778  17.726  11.034
 9202W        W81627   5.443  44.331  13.510
 9203W        W81628  13.393  27.718  14.412
 9204W        W81629  35.821   2.521  12.963
 9205W        W81630  24.548   4.473  14.362
 9206W        W81631  27.146  13.059   2.755
 9207W        W81632   3.866   0.466   0.214
 9208W        W81633  12.642  33.529   4.158
 9209W        W81634   8.485   8.802   4.405
 9210W        W81635  30.456  42.108   1.297
 9211W        W81636  19.760   6.732   4.567
 9212W        W81637   7.838  12.175  13.573
 9213W        W81638  29.833   4.784   4.628
 9214W        W81639  36.164  31.451   0.126
 9215W        W81640  33.398   6.257  12.424
 9216W        W81641   9.744   9.433  10.702
 9217W        W81642  26.634  19.816  13.824
 9218W        W81643  18.253  15.116   1.395
 9219W        W81644  13.140  24.172  13.394
 9220W        W81645  19.179  13.244   4.415
 9221W        W81646  18.253  38.013   4.356
 9222W        W81647  23.824  40.588   0.333
 9223W        W81648  20.046  44.469   3.288
 9224W        W81649   5.957  21.991   3.745
 9225W        W81650  12.623   3.157   2.227
 9226W        W81651  14.540  17.731  13.906
 9227W        W81652   2.511  21.105   4.193
 9228W        W81653  27.218  14.591   0.574
 9229W        W81654  28.115  19.550   4.373
 9230W        W81655  17.023  24.986  13.044
 9231W        W81656  43.439  19.171  10.041
 9232W        W81657   5.221  35.184   3.365
 9233W        W81658  17.560  14.909  12.408
 9234W        W81659   9.413  23.784   1.745
 9235W        W81660  32.398  41.890   0.497
 9236W        W81661  29.631  10.666   4.666
 9237W        W81662   0.185  19.573  12.174
 9238W        W81663   5.813  21.199  14.997
 9239W        W81664   9.330  20.073  10.643
 9240W        W81665  41.081  11.390  10.534
 9241W        W81666   1.245  24.213  14.484
 9242W        W81667  30.044   5.071   2.815
 9243W        W81668  17.811  17.919  10.759
 9244W        W81669  28.393   0.336  13.471
 9245W        W81670  27.202  22.718   0.099
 9246W        W81671  11.114   8.392  11.871
 9247W        W81672  33.604  38.891   2.293
 9248W        W81673  20.521  19.868  13.971
 9249W        W81674  41.132  36.900   1.149
 9250W        W81675  15.128  25.244  14.842
 9251W        W81676   5.169  10.750   2.637
 9252W        W81677  40.402   0.599   3.214
 9253W        W81678  36.141  13.697   3.685
 9254W        W81679  31.445  16.083  14.896
 9255W        W81680  11.182  10.188   3.844
 9256W        W81681  44.598  18.860  11.872
 9257W        W81682  38.243  33.026  10.618
 9258W        W81683  25.265  30.211   1.453
 9259W        W81684   7.608  32.759  11.505
 9260W        W81685  44.814  34.196  11.001
 9261W        W81686  22.971  26.569  10.224
 9262W        W81687  44.958  28.056  13.346
 9263W        W81688   2.017  25.218   0.835
 9264W        W81689  43.271  18.945   0.454
 9265W        W81690   9.631  17.414   1.769
 9266W        W81691  33.962  29.588   2.193
 9267W        W81692   4.259  29.183  14.099
 9268W        W81693   3.950   1.911  13.468
 9269W        W81694   2.953  15.695   2.195
 9270W        W81695  20.074  34.858   2.406
 9271W        W81696   8.779   6.460  11.610
 9272W        W81697   7.321  43.268   2.314
 9273W        W81698  20.468  29.119   4.037
 9274W        W81699  14.534  38.543  10.533
 9275W        W81700   0.850  27.134   1.761
 9276W        W81701  32.611  39.396   2.663
 9277W        W81702  13.764  36.703   0.300
 9278W        W81703  43.383  23.532  13.793
 9279W        W81704  22.908   6.761   4.724
 9280W        W81705  11.270  39.611  14.159
 9281W        W81706  14.133   7.897   0.938
 9282W        W81707   6.976  28.514  12.325
 9283W        W81708  18.992  34.009  13.893
 9284W        W81709  29.995   4.503  12.181
 9285W        W81710  14.411  43.040  11.534
 9286W        W81711  32.537   8.707  14.743
 9287W        W81712  10.476  12.351  10.736
 9288W        W81713   7.363  10.396   1.215
 9289W        W81714  16.549   4.719  13.496
 9290W        W81715  28.515  20.882  10.628
 9291W        W81716  14.122  22.757   1.811
 9292W        W81717   3.981  32.843   1.000
 9293W        W81718  22.974   8.372  13.377
 9294W        W81719  20.159  37.778   1.433
 9295W        W81720   2.297   8.746  13.009
 9296W        W81721   6.021   3.390   2.340
 9297W        W81722   3.537  15.630   0.705
 9298W        W81723  16.223  24.510   3.055
 9299W        W81724  39.925  44.231  12.551
 9300W        W81725  14.407  23.669  10.525
 9301W        W81726  17.107  15.766   2.838
 9302W        W81727  20.119  20.648   4.612
 9303W        W81728  25.634  41.462  10.302
 9304W        W81729  11.308  10.698   3.097
 9305W        W81730   0.072  34.054  11.453
 9306W        W81731  44.035  31.673  10.724
 9307W        W81732  29.678  36.480   4.743
 9308W        W81733   2.386  25.683  13.526
 9309W        W81734  23.518  29.016   1.603
 9310W        W81735  35.020   0.396  12.897
 9311W        W81736   9.616  15.312   0.540
 9312W        W81737  43.913   3.821   2.275
 9313W        W81738  25.238  31.168  10.120
 9314W        W81739  31.999  44.275   2.344
 9315W        W81740   7.006   2.667   3.195
 9316W        W81741  23.040  42.748   1.190
 9317W        W81742   2.361   7.301  10.670
 9318W        W81743   7.153  42.148   0.009
 9319W        W81744  38.621  42.304  14.488
 9320W        W81745  18.270  39.989   3.595
 9321W        W81746  33.536  37.056  14.694
 9322W        W81747  21.056   0.815  12.563
 9323W        W81748   6.712  43.083   2.711
 9324W        W81749  43.085  21.070  12.118
 9325W        W81750  25.013   7.655   0.025
 9326W        W81751  39.336  41.224   1.144
 9327W        W81752  39.907   3.439   3.127
 9328W        W81753  19.259  41.066   0.838
 9329W        W81754   1.283   1.333  11.740
 9330W        W81755  34.458  20.719   2.247
 9331W        W81756  29.198  39.323   3.112
 9332W        W81757   3.394   5.288  14.284
 9333W        W81758  12.220  12.143   2.648
 9334W        W81759  21.582   4.206  10.965
 9335W        W81760  10.256  34.064  10.779
 9336W        W81761   6.054  12.799  11.860
 9337W        W81762  16.607  10.025  10.781
 9338W        W81763  17.815   7.403  14.129
 9339W        W81764   0.227  31.166  14.911
 9340W        W81765   1.210  10.372  12.370
 9341W        W81766  38.486  42.503   4.108
 9342W        W81767  39.953  29.709  12.120
 9343W        W81768  19.999  29.984   3.304
 9344W        W81769  38.443  20.510   4.056
 9345W        W81770  36.593  23.203   0.060
 9346W        W81771   2.230  16.857   1.428
 9347W        W81772  32.036  38.529  13.397
 9348W        W81773   3.750  28.402   4.578
 9349W        W81774   8.140  21.660   3.675
 9350W        W81775  37.312  14.355  14.436
 9351W        W81776  44.448   6.549   2.700
 9352W        W81777  27.787   0.964   2.373
 9353W        W81778  44.404  21.896  11.044
 9354W        W81779  24.209  40.272   0.510
 9355W        W81780  23.271  34.112   3.568
 9356W        W81781   6.748  40.845   3.236
 9357W        W81782   8.924  26.422  12.513
 9358W        W81783  35.413  20.462   3.205
 9359W        W81784  21.585  26.730   0.270
 9360W        W81785   1.789  38.147  12.828
 9361W        W81786   6.795  37.047  13.088
 9362W        W81787   8.510   0.039   1.455
 9363W        W81788  37.542   5.302   1.956
 9364W        W81789  24.880   4.890   2.774
 9365W        W81790  16.650   1.197  11.498
 9366W        W81791  23.206  29.711  11.084
 9367W        W81792  10.195  23.975   2.257
 9368W        W81793   8.431  10.236  12.126
 9369W        W81794  33.986  19.555   4.278
 9370W        W81795  43.280  31.018  14.292
 9371W        W81796  12.795  34.022  14.548
 9372W        W81797   2.666  10.048   2.630
 9373W        W81798  17.322  13.243  10.236
 9374W        W81799  44.977  37.819   3.816
 9375W        W81800  41.438  11.334   1.694
 9376W        W81801   5.460  22.708   1.337
 9377W        W81802   1.900  31.200  13.887
 9378W        W81803   8.695  37.540   3.794
 9379W        W81804  11.079  15.210  13.950
 9380W        W81805  30.535  13.301  12.629
 9381W        W81806  41.225  32.567   1.790
 9382W        W81807  11.152  43.915  10.619
 9383W        W81808  26.947  29.173   2.320
 9384W        W81809  14.581  29.492  13.631
 9385W        W81810  27.859   5.166  14.420
 9386W        W81811  25.497  13.243   4.301
 9387W        W81812  32.326  43.051   5.081
 9388W        W81813  40.805  20.808   2.758
 9389W        W81814   6.335  25.694  12.809
 9390W        W81815  41.380  19.680  13.258
 9391W        W81816  27.403  38.907   0.914
 9392W        W81817  22.796  30.411  13.893
 9393W        W81818   5.670  44.022   4.095
 9394W        W81819  38.121  29.496  12.660
 9395W        W81820  14.720  30.650  10.248
 9396W        W81821   3.422  41.817  13.457
 9397W        W81822  40.858  11.716  14.539
 9398W        W81823   5.669  14.611  12.412
 9399W        W81824  39.232  11.728  10.761
 9400W        W81825  15.792  13.124   2.430
 9401W        W81826  26.227  15.043   0.323
 9402W        W81827  22.991  14.726   1.867
 9403W        W81828  31.840   6.253   1.732
 9404W        W81829  14.818  42.558   1.311
 9405W        W81830  35.455  13.103  11.598
 9406W        W81831  43.756  10.831  13.898
 9407W        W81832  25.077   0.760   1.922
 9408W        W81833   3.957  16.253   3.739
 9409W        W81834   0.938  16.808   2.948
 9410W        W81835   9.207   5.309   2.118
 9411W        W81836  17.107  22.754  14.486
 9412W        W81837  36.017  35.350  13.373
 9413W        W81838  17.101  23.635  13.878
 9414W        W81839  22.473  17.220  14.762
 9415W        W81840  19.544  20.313   1.309
 9416W        W81841  24.007  35.241  10.845
 9417W        W81842  30.085   9.082   3.630
 9418W        W81843   7.273   1.291   0.504
 9419W        W81844  14.833   9.927  13.472
 9420W        W81845  10.615  25.991  11.232
 9421W        W81846  42.827  13.198  14.100
 9422W        W81847  23.659  20.239   3.064
 9423W        W81848   4.889   2.336  11.487
 9424W        W81849  19.103  36.120   1.591
 9425W        W81850   0.498  18.890  11.109
 9426W        W81851  14.098  24.971   0.962
 9427W        W81852   6.249  34.106  13.959
 9428W        W81853  10.093  36.878   4.233
 9429W        W81854  42.318  37.048  14.036
 9430W        W81855  24.525  24.590  12.006
 9431W        W81856   9.392  32.381  12.018
 9432W        W81857  29.414  36.112   2.583
 9433W        W81858  35.413   4.992   4.138
 9434W        W81859  10.794  13.168   4.820
 9435W        W81860  35.461  36.884  10.489
 9436W        W81861  25.648  17.076   4.789
 9437W        W81862  22.230   0.348  13.492
 9438W        W81863  41.119   4.678  11.835
 9439W        W81864  43.952  17.826   0.204
 9440W        W81865  15.702  19.768   4.136
 9441W        W81866  32.326  34.580   2.702
 9442W        W81867  31.558  26.133  12.186
 9443W        W81868  24.017  25.370   1.327
 9444W        W81869  23.622  37.183   1.863
 9445W        W81870  14.736  15.796   3.780
 9446W        W81871   5.290   9.091   2.242
 9447W        W81872   3.605  20.097   2.008
 9448W        W81873  43.416  22.682   0.291
 9449W        W81874   1.014  30.298  13.286
 9450W        W81875   9.868  10.270  11.617
 9451W        W81876   1.181  23.387   1.306
 9452W        W81877  34.892  26.178   2.827
 9453W        W81878  40.105  17.911   2.784
 9454W        W81879  42.436  33.726   2.300
 9455W        W81880  24.241   5.077  12.987
 9456W        W81881   9.503   9.392   2.678
 9457W        W81882  27.956  40.751   3.634
 9458W        W81883   1.298  33.836  11.888
 9459W        W81884  30.134  31.968   2.699
 9460W        W81885  37.526   5.268  11.683
 9461W        W81886  29.086  34.828   2.596
 9462W        W81887  19.812   1.508  11.072
 9463W        W81888   6.668  37.559   1.545
 9464W        W81889  12.182  38.928  11.883
 9465W        W81890   5.681  39.902   0.363
 9466W        W81891   7.907   9.839  12.987
 9467W        W81892  14.103  37.572  13.035
 9468W        W81893  39.441  33.122   1.549
 9469W        W81894  44.320  35.699   9.752
 9470W        W81895  31.642  11.783   0.453
 9471W        W81896  44.448  30.064  13.169
 9472W        W81897  19.712  22.717  13.843
 9473W        W81898  29.030   1.991  14.350
 9474W        W81899  29.499   1.294  14.469
 9475W        W81900  40.071  13.667   2.201
 9476W        W81901  15.561  34.323   1.709
 9477W        W81902  25.786  17.992   4.546
 9478W        W81903  22.801  29.005  12.511
 9479W        W81904  38.618  21.123   0.093
 9480W        W81905  18.809  43.467   4.444
 9481W        W81906  19.534  43.236   5.019
 9482W        W81907  38.412  13.716   1.295
 9483W        W81908  35.348  15.529  10.694
 9484W        W81909  39.399  32.362   3.641
 9485W        W81910   6.700  38.509  13.095
 9486W        W81911   3.974   5.278  12.547
 9487W        W81912  15.286  43.130  13.957
 9488W        W81913  39.121  30.229  13.302
 9489W        W81914  16.705   4.605  11.355
 9490W        W81915  44.801  42.845  10.265
 9491W        W81916  34.769   8.816  14.004
 9492W        W81917  19.003  14.787  14.470
 9493W        W81918   9.170  13.649  11.443
 9494W        W81919   3.023  10.652   4.091
 9495W        W81920  22.510  35.552  14.286
 9496W        W81921  39.039  36.317  12.533
 9497W        W81922  31.699  16.107  14.450
 9498W        W81923  14.383  10.796  12.026
 9499W        W81924   8.258  42.498   4.134
 9500W        W81925  42.508  35.066   3.691
 9501W        W81926  11.682  37.141  11.313
 9502W        W81927  34.913  27.074  12.133
 9503W        W81928   5.833  13.581   4.629
 9504W        W81929  12.704  22.388   2.702
 9505W        W81930  11.838   8.041   3.003
 9506W        W81931   3.341  40.690   2.850
 9507W        W81932  26.547  10.204  13.441
 9508W        W81933  26.228  33.632   0.424
 9509W        W81934  29.827   1.075  12.880
 9510W        W81935  25.444   7.646  11.541
 9511W        W81936   1.990  39.418   2.626
 9512W        W81937   3.811  21.731  11.655
 9513W        W81938  32.033  29.632   1.426
 9514W        W81939   2.011  28.407  12.211
 9515W        W81940   4.750   7.837   3.209
 9516W        W81941   3.750   1.946  14.774
 9517W        W81942  27.467  42.028   2.730
 9518W        W81943   4.494  37.938  14.400
 9519W        W81944  32.184  14.956   5.106
 9520W        W81945  11.887  30.623   0.913
 9521W        W81946  20.501  30.402  14.366
 9522W        W81947  23.524  26.484  12.981
 9523W        W81948   9.310  23.306  13.118
 9524W        W81949  20.173  31.067  13.800
 9525W        W81950  15.612  22.564   4.163
 9526W        W81951   2.362  38.489   2.587
 9527W        W81952  41.324  31.831   4.419
 9528W        W81953  36.007   0.535   4.177
 9529W        W81954  10.111  17.804  14.790
 9530W        W81955  11.108   6.374   0.327
 9531W        W81956  21.186  40.399  13.856
 9532W        W81957  26.972  11.710   3.842
 9533W        W81958   1.395  37.954  10.850
 9534W        W81959  11.203   1.556  11.005
 9535W        W81960  13.327  12.391  11.088
 9536W        W81961  33.128  15.751   4.523
 9537W        W81962  35.264   1.963  11.037
 9538W        W81963  42.909  33.376  13.828
 9539W        W81964  11.909  13.841  11.502
 9540W        W81965  39.291  28.998   2.121
 9541W        W81966  44.287  27.105   4.818
 9542W        W81967  29.894  34.026  12.952
 9543W        W81968  14.766   1.936   3.842
 9544W        W81969  35.995  43.007   4.161
 9545W        W81970   4.281  29.937  10.666
 9546W        W81971  27.009  32.703  10.742
 9547W        W81972   4.181   2.308  11.984
 9548W        W81973  33.124  36.899   1.495
 9549W        W81974  22.817  13.716  10.929
 9550W        W81975  29.557  26.336  11.867
 9551W        W81976  33.455  24.782  11.582
 9552W        W81977  28.926  34.890  14.409
 9553W        W81978   9.865  43.400  13.534
 9554W        W81979  21.543  40.083  14.968
 9555W        W81980   0.982  28.943  13.427
 9556W        W81981  10.788  30.032   1.234
 9557W        W81982  13.072  23.707  13.575
 9558W        W81983  40.916  15.035  12.799
 9559W        W81984  43.831  19.123   0.901
 9560W        W81985  43.767  23.783   4.405
 9561W        W81986  34.030  20.147  14.400
 9562W        W81987  28.243  19.655  11.136
 9563W        W81988  34.129   7.467   4.070
 9564W        W81989  27.960  30.496  11.928
 9565W        W81990   7.960  24.686   4.214
 9566W        W81991  30.994   0.462   3.340
 9567W        W81992  35.502  32.456   0.813
 9568W        W81993  18.540  30.165  12.919
 9569W        W81994  15.108  12.186  12.903
 9570W        W81995  44.203  38.833   0.607
 9571W        W81996  18.543  22.943  11.625
 9572W        W81997   9.129  12.761  11.152
 9573W        W81998   3.778  38.947  11.440
 9574W        W81999  23.078  31.427   0.755
 9575W        W82000   1.307  21.184  13.215
 9576W        W82001  23.783   3.462  12.512
 9577W        W82002   8.372   7.223  13.420
 9578W        W82003  20.554   9.693  13.655
 9579W        W82004  37.509  18.011   4.089
 9580W        W82005  25.181  44.758   0.938
 9581W        W82006  31.698  27.630   2.763
 9582W        W82007  35.593  36.044  14.751
 9583W        W82008  38.361  35.736  14.346
 9584W        W82009  10.666  40.458   4.164
 9585W        W82010  33.188   4.731  11.178
 9586W        W82011  25.813  10.625   0.610
 9587W        W82012  27.845   8.526  10.152
 9588W        W82013   6.625  33.044   4.239
 9589W        W82014  13.391  26.149  12.057
 9590W        W82015  19.073  27.655   0.239
 9591W        W82016  41.785  31.747  11.381
 9592W        W82017   8.931  29.587  13.413
 9593W        W82018   7.954  25.053   2.618
 9594W        W82019  16.152  39.083  12.539
 9595W        W82020  28.777  38.593  10.026
 9596W        W82021  10.796  43.212   4.659
 9597W        W82022  16.998  15.805   2.344
 9598W        W82023  40.725  25.718  12.558
 9599W        W82024  15.419  34.273   4.171
 9600W        W82025  13.626   1.743  11.950
 9601W        W82026  28.733   3.905   0.916
 9602W        W82027  24.149  40.759  12.566
 9603W        W82028   2.247  41.403  13.271
 9604W        W82029  27.856  43.497   4.177
 9605W        W82030  25.147  32.729   4.135
 9606W        W82031  36.652   5.897   2.328
 9607W        W82032  20.048  14.801  11.031
 9608W        W82033  35.862  29.559   1.810
 9609W        W82034  44.396  13.402   0.751
 9610W        W82035   3.833  29.487   0.920
 9611W        W82036  12.767  31.245   1.608
 9612W        W82037  38.853  18.263  14.721
 9613W        W82038  11.412  28.049   2.714
 9614W        W82039   3.991  17.151   2.721
 9615W        W82040   2.494  37.157  10.823
 9616W        W82041  33.815  41.077  14.422
 9617W        W82042   3.779  24.980   2.736
 9618W        W82043  14.179   0.327  14.348
 9619W        W82044  30.677  39.444   4.113
 9620W        W82045  19.675   1.373  12.431
 9621W        W82046  39.459  12.385   1.135
 9622W        W82047  15.468  12.414  13.243
 9623W        W82048  29.523  23.754  12.399
 9624W        W82049   4.654  38.439   3.911
 9625W        W82050  22.730  14.252   4.613
 9626W        W82051  42.056  26.039  13.521
 9627W        W82052  10.814  13.379   0.002
 9628W        W82053   8.391  37.642   2.431
 9629W        W82054  26.126  36.689   2.402
 9630W        W82055  17.639  41.623   3.614
 9631W        W82056  19.332   3.343  14.034
 9632W        W82057  12.814  22.296   0.730
 9633W        W82058  38.551  32.590   4.583
 9634W        W82059   2.222  24.168   4.131
 9635W        W82060  43.367  42.158  11.643
 9636W        W82061  16.820   9.492   3.813
 9637W        W82062  11.362  20.772  12.496
 9638W        W82063  33.585  15.540  11.540
 9639W        W82064  39.332  36.905  11.506
 9640W        W82065   7.004  25.728  10.635
 9641W        W82066   2.416  31.929  11.660
 9642W        W82067  39.259  23.798   4.191
 9643W        W82068  30.429  29.173  14.058
 9644W        W82069   2.789  18.841  13.214
 9645W        W82070   4.777  12.427   3.186
 9646W        W82071  15.225  16.982  14.650
 9647W        W82072  34.053  12.172   1.231
 9648W        W82073  18.543   0.830  12.244
 9649W        W82074  20.353   2.335   4.209
 9650W        W82075   7.267  39.724  14.914
 9651W        W82076  13.900  30.622   0.393
 9652W        W82077  28.015  27.254   4.598
 9653W        W82078  15.562  11.207   1.811
 9654W        W82079  12.569  31.119  12.487
 9655W        W82080  27.190  10.197  12.920
 9656W        W82081  43.707  32.572   2.691
 9657W        W82082  14.110   5.202  14.427
 9658W        W82083   1.500   5.986   2.416
 9659W        W82084   2.348  26.936  11.441
 9660W        W82085   8.390  19.273  13.399
 9661W        W82086  27.689  23.208   1.306
 9662W        W82087   1.836  17.519  11.561
 9663W        W82088  10.630  40.334  12.413
 9664W        W82089  43.400  36.039   4.595
 9665W        W82090  18.491  41.845   0.382
 9666W        W82091  10.449   8.527  11.591
 9667W        W82092  22.181   8.445   1.717
 9668W        W82093  24.927  43.946   2.321
 9669W        W82094   5.301  13.327   0.406
 9670W        W82095  38.410  23.724  12.383
 9671W        W82096  25.208   2.300  13.030
 9672W        W82097  22.020   7.789   0.412
 9673W        W82098   3.022   8.677  10.521
 9674W        W82099  12.621   7.390   2.148
 9675W        W82100  29.528   7.234   4.732
 9676W        W82101  25.991  15.735   0.897
 9677W        W82102  38.370   1.290  12.894
 9678W        W82103  40.621  10.526  14.370
 9679W        W82104  32.379  20.134   0.216
 9680W        W82105  39.718  38.370  13.429
 9681W        W82106  39.930  34.225   1.764
 9682W        W82107  18.751  18.939  11.313
 9683W        W82108  35.929  12.238   4.427
 9684W        W82109  33.974  10.221   3.565
 9685W        W82110   2.295  13.871   4.090
 9686W        W82111  10.197  26.648   1.732
 9687W        W82112  42.371  36.316  14.321
 9688W        W82113  27.505  43.001   2.868
 9689W        W82114  42.871   5.345   3.213
 9690W        W82115  36.268   6.459  12.122
 9691W        W82116  17.228  10.221  13.620
 9692W        W82117   1.202  12.375  13.316
 9693W        W82118  13.885   6.303   4.646
 9694W        W82119   0.194  38.621   4.185
 9695W        W82120   6.764   1.196  14.384
 9696W        W82121  15.113   8.702   3.792
 9697W        W82122  41.504  15.539  14.489
 9698W        W82123   8.292  43.521  10.459
 9699W        W82124  37.095  10.571  10.352
 9700W        W82125  37.894  17.324  10.619
 9701W        W82126   0.239  22.410  14.052
 9702W        W82127   8.165  23.809  13.952
 9703W        W82128  29.834   2.125   4.171
 9704W        W82129  16.813  18.509   3.937
 9705W        W82130  33.041  12.572   4.764
 9706W        W82131  30.175  30.054   2.530
 9707W        W82132   8.931  23.115  12.098
 9708W        W82133  36.439  33.868  10.817
 9709W        W82134  30.351   2.311  12.043
 9710W        W82135  18.256  43.908   4.869
 9711W        W82136  43.224  21.208   2.666
 9712W        W82137  20.486  27.051  13.908
 9713W        W82138  40.574  16.692   1.354
 9714W        W82139  44.052  11.297   1.206
 9715W        W82140  14.215  26.533  13.984
 9716W        W82141  33.492  23.702  14.871
 9717W        W82142  18.320  25.725  11.995
 9718W        W82143  27.725  28.027  10.234
 9719W        W82144   4.323  31.665   4.785
 9720W        W82145  12.205  16.726  12.563
 9721W        W82146  17.609  31.184  14.471
 9722W        W82147   6.686  29.121  10.694
 9723W        W82148  10.130  29.432  12.491
 9724W        W82149  11.665  11.199  14.927
 9725W        W82150   4.977  21.645  13.414
 9726W        W82151  19.155  41.188   2.803
 9727W        W82152   3.196  18.819   4.059
 9728W        W82153  36.525  40.610  11.017
 9729W        W82154  21.030  16.549  10.726
 9730W        W82155   1.735   2.797  11.195
 9731W        W82156  23.392   0.959   2.725
 9732W        W82157  40.904  38.446  11.509
 9733W        W82158  37.533  18.125  14.570
 9734W        W82159  43.505  23.861  11.966
 9735W        W82160  31.604   8.258   2.711
 9736W        W82161  33.006  32.609   1.347
 9737W        W82162  44.364  35.472  13.585
 9738W        W82163   3.749  16.091   0.826
 9739W        W82164  17.027  42.199   1.750
 9740W        W82165  23.023  27.909   0.656
 9741W        W82166   5.352   3.942  13.664
 9742W        W82167  10.307  41.483  11.582
 9743W        W82168  42.557  36.094  11.577
 9744W        W82169  24.196  40.039  13.337
 9745W        W82170  27.402  27.094   1.946
 9746W        W82171  32.688  14.308   3.797
 9747W        W82172  37.985  24.697   3.188
 9748W        W82173  38.428  23.169  11.712
 9749W        W82174  42.569  16.053  11.785
 9750W        W82175  33.979  15.513   4.145
 9751W        W82176  30.640  32.078   4.135
 9752W        W82177  12.550  23.050   3.884
 9753W        W82178  42.780  30.535  10.564
 9754W        W82179  43.845  15.465  14.171
 9755W        W82180  24.555  32.680   2.979
 9756W        W82181  33.173  36.541  14.536
 9757W        W82182  15.200  16.257  10.747
 9758W        W82183   5.049  14.615  14.800
 9759W        W82184   3.876  12.734   2.138
 9760W        W82185  20.047   6.422   1.710
 9761W        W82186  15.738  27.392   0.450
 9762W        W82187   0.294  37.567   4.147
 9763W        W82188  15.670  19.599  14.776
 9764W        W82189  26.960  15.221   2.312
 9765W        W82190  15.288  24.786  10.731
 9766W        W82191  29.182  28.062  12.083
 9767W        W82192  26.527  41.238  12.613
 9768W        W82193   5.838  32.970   0.663
 9769W        W82194  32.086  10.348   2.454
 9770W        W82195  25.947  20.196  11.918
 9771W        W82196  11.013  13.827   0.230
 9772W        W82197  17.782  14.962   1.221
 9773W        W82198  32.406  34.874  14.425
 9774W        W82199  22.540  19.098  11.234
 9775W        W82200  16.828   3.197   4.268
 9776W        W82201  41.561   6.872  10.823
 9777W        W82202  15.300  34.977  12.175
 9778W        W82203  17.320   5.656   1.343
 9779W        W82204  30.696  44.096   1.394
 9780W        W82205  19.153  34.587   0.057
 9781W        W82206  41.509   9.254  14.538
 9782W        W82207  40.451  25.067   4.386
 9783W        W82208  17.799  38.860   3.141
 9784W        W82209  26.609  19.987  12.390
 9785W        W82210  17.963  11.936   0.448
 9786W        W82211  35.726   4.796   4.489
 9787W        W82212  38.042   3.071   2.310
 9788W        W82213   9.808  20.619   4.098
 9789W        W82214  22.462   1.588  12.018
 9790W        W82215  13.845  38.824   3.236
 9791W        W82216   2.915  13.908  13.066
 9792W        W82217  16.029  41.362  14.211
 9793W        W82218  26.630   3.410   1.936
 9794W        W82219  27.438  25.457   3.635
 9795W        W82220  12.157  35.697   4.698
 9796W        W82221  23.763  36.437  14.940
 9797W        W82222   4.920   7.872   4.566
 9798W        W82223  39.056  17.013  12.329
 9799W        W82224  43.805  12.725  14.894
 9800W        W82225  18.404  40.719   4.167
 9801W        W82226   3.041   9.315   2.365
 9802W        W82227  26.445  10.390  12.518
 9803W        W82228  25.680   8.943  14.290
 9804W        W82229  28.460  38.311   3.732
 9805W        W82230  32.685   1.916  13.828
 9806W        W82231   3.060   0.970   4.055
 9807W        W82232  17.715  10.854   2.249
 9808W        W82233  36.813  28.159  10.507
 9809W        W82234  35.780  31.029   0.967
 9810W        W82235  34.029  23.915  13.042
 9811W        W82236  24.517  35.526   2.738
 9812W        W82237  20.526  21.279   0.475
 9813W        W82238  40.252  26.167  10.664
 9814W        W82239  19.646   5.267   4.676
 9815W        W82240  16.988  44.473  14.895
 9816W        W82241  27.650  18.710  12.993
 9817W        W82242   0.897  28.362  10.807
 9818W        W82243  43.895  35.323  10.686
 9819W        W82244  31.905  22.595  11.463
 9820W        W82245  29.098  21.668   2.739
 9821W        W82246  11.703  34.412  11.561
 9822W        W82247  36.430  31.167  13.918
 9823W        W82248  25.795  15.877  12.019
 9824W        W82249  41.383  13.925  10.970
 9825W        W82250  42.690  28.699  11.604
 9826W        W82251  36.093  10.813   4.251
 9827W        W82252  22.074  18.056   2.209
 9828W        W82253  39.287   9.715   0.411
 9829W        W82254  23.805  30.026  10.745
 9830W        W82255  24.707  20.986   2.282
 9831W        W82256   5.872   2.882  11.046
 9832W        W82257  30.986  22.631   3.097
 9833W        W82258  34.446  15.102   3.441
 9834W        W82259  33.945   5.170   4.884
 9835W        W82260  34.432  33.169  13.896
 9836W        W82261  14.739  31.880  10.769
 9837W        W82262  19.212  23.975   3.582
 9838W        W82263  19.199  12.000   1.799
 9839W        W82264  26.908  31.955  12.995
 9840W        W82265   7.643   3.270  12.724
 9841W        W82266  28.951  23.716   3.082
 9842W        W82267  15.147  29.062   0.914
 9843W        W82268  16.406  11.152   0.717
 9844W        W82269   5.211   3.602  14.635
 9845W        W82270  29.456  23.829   1.448
 9846W        W82271  12.803  25.431   3.156
 9847W        W82272  32.073  33.844  12.963
 9848W        W82273  11.774  17.666   2.569
 9849W        W82274  31.982  28.560  13.014
 9850W        W82275  42.869   6.825  12.504
 9851W        W82276  43.831   0.936  10.661
 9852W        W82277   3.733  40.515   1.384
 9853W        W82278  23.674  44.966  12.080
 9854W        W82279  16.589  25.664   2.310
 9855W        W82280  40.871  19.714  12.505
 9856W        W82281  34.830  20.128  14.935
 9857W        W82282  32.704  14.998  11.841
 9858W        W82283   5.397  14.619  13.846
 9859W        W82284  41.409  30.931   4.403
 9860W        W82285  30.714  10.901  11.758
 9861W        W82286   1.183  36.496  14.985
 9862W        W82287  30.589  41.086   1.403
 9863W        W82288  38.816  27.416   0.030
 9864W        W82289   9.316  11.797  14.506
 9865W        W82290  36.032   3.281   4.013
 9866W        W82291  31.164  41.893   1.807
 9867W        W82292   6.247  25.126   4.700
 9868W        W82293  15.721   6.225   1.855
 9869W        W82294   0.286  30.424   2.781
 9870W        W82295  14.371  41.855  13.796
 9871W        W82296  22.536  16.577  12.572
 9872W        W82297  30.106  29.590   4.365
 9873W        W82298   3.656  38.067  12.126
 9874W        W82299  36.622  14.402   2.061
 9875W        W82300  17.970  27.716   1.674
 9876W        W82301  44.063  12.480  11.658
 9877W        W82302  42.739  33.223   4.484
 9878W        W82303  30.517  22.598  14.327
 9879W        W82304  32.941  22.604  11.582
 9880W        W82305   0.220  34.977   4.152
 9881W        W82306  11.223  28.112   3.210
 9882W        W82307  32.030  28.960   1.253
 9883W        W82308   7.893  29.633   4.711
 9884W        W82309  35.030  42.286   2.169
 9885W        W82310  41.945  40.891  14.452
 9886W        W82311  31.982  21.231  10.261
 9887W        W82312  11.278  12.857   0.474
 9888W        W82313  36.602  44.216  10.475
 9889W        W82314   1.989   7.135   0.920
 9890W        W82315  37.601   1.166   0.344
 9891W        W82316  31.723  32.589  13.501
 9892W        W82317  20.345   0.379   4.562
 9893W        W82318   1.944  14.223   1.321
 9894W        W82319  29.995  40.545   0.847
 9895W        W82320  40.498  39.071  12.479
 9896W        W82321  32.555  30.077   4.342
 9897W        W82322   2.636   3.872   4.121
 9898W        W82323   8.885  43.743  14.422
 9899W        W82324  13.784  31.313  11.163
 9900W        W82325  26.880  41.814   0.798
 9901W        W82326  41.279  26.495   2.684
 9902W        W82327  22.436  34.536   3.437
 9903W        W82328   6.204  23.169  13.524
 9904W        W82329   9.594  42.441   4.583
 9905W        W82330   1.284  23.065  12.174
 9906W        W82331  28.433  30.720   2.141
 9907W        W82332  15.530  34.080  13.453
 9908W        W82333  28.988  24.174   0.168
 9909W        W82334   0.072  19.097   4.279
 9910W        W82335  22.874   9.460   3.225
 9911W        W82336   9.862  40.899  12.119
 9912W        W82337  40.401  44.267   1.230
 9913W        W82338  44.881  28.643   1.428
 9914W        W82339  17.132  25.039   0.708
 9915W        W82340  43.416   3.974  14.618
 9916W        W82341   4.684   0.776  11.048
 9917W        W82342  38.744  21.088   9.924
 9918W        W82343  30.486  38.893  11.984
 9919W        W82344  35.509  22.196  11.131
 9920W        W82345  24.796  43.454   4.196
 9921W        W82346  18.993  17.730  11.107
 9922W        W82347  11.197  20.068   0.119
 9923W        W82348  38.386  12.188   2.208
 9924W        W82349  23.377  14.614  11.208
 9925W        W82350  44.424  37.536   0.906
 9926W        W82351  27.490  29.861  12.337
 9927W        W82352  17.719  32.614   2.436
 9928W        W82353  44.630  14.582   0.993
 9929W        W82354  18.797   5.607  14.699
 9930W        W82355  39.819  15.356   4.432
 9931W        W82356   6.794  24.257  14.570
 9932W        W82357   8.501  37.555  12.609
 9933W        W82358  25.024  13.713   1.378
 9934W        W82359  12.868  32.656  11.522
 9935W        W82360  29.562  30.167   0.265
 9936W        W82361  43.588  30.618   1.498
 9937W        W82362  17.159  41.922   4.799
 9938W        W82363   1.246  18.651  14.001
 9939W        W82364  24.865  25.877   3.131
 9940W        W82365   4.257  37.258  11.645
 9941W        W82366  18.739  43.058   2.638
 9942W        W82367  25.442  16.749   1.757
 9943W        W82368  37.553   8.275  11.158
 9944W        W82369  23.447  27.555   1.764
 9945W        W82370  27.910  24.507   4.558
 9946W        W82371  30.395  24.146  11.958
 9947W        W82372  20.132  15.768   2.300
 9948W        W82373  44.497  41.475   1.668
 9949W        W82374  31.620  23.033  11.458
 9950W        W82375  10.072   3.290   0.323
 9951W        W82376  40.359   6.514   0.236
 9952W        W82377  42.038   8.420   4.839
 9953W        W82378  15.121  31.925   1.802
 9954W        W82379  13.870  22.737   2.277
 9955W        W82380  15.544  27.504   9.943
 9956W        W82381   7.332  19.578  13.880
 9957W        W82382  27.517  12.492   0.153
 9958W        W82383  11.296  34.447   4.116
 9959W        W82384  39.777  36.866   0.952
 9960W        W82385  44.560  32.439  10.673
 9961W        W82386  32.688  35.420  10.405
 9962W        W82387  26.064  37.634   2.258
 9963W        W82388   8.671   6.610  11.116
 9964W        W82389   1.321  35.816   0.521
 9965W        W82390  25.255  21.300  13.084
 9966W        W82391  15.133  13.390  12.599
 9967W        W82392  40.324   1.884   1.195
 9968W        W82393  16.698  25.986  11.020
 9969W        W82394  33.487  37.339   1.382
 9970W        W82395  39.923  14.121   1.925
 9971W        W82396  41.929   2.695  12.170
 9972W        W82397  22.495  13.662  10.541
 9973W        W82398   7.832  11.378  11.372
 9974W        W82399  26.065  38.149   2.334
 9975W        W82400  24.550  39.091   3.366
 9976W        W82401  44.327  26.666  10.700
 9977W        W82402  24.450  35.888   1.275
 9978W        W82403  39.957  11.122  11.896
 9979W        W82404  41.636   9.439  11.511
 9980W        W82405  10.943   3.862  12.096
 9981W        W82406  12.830  12.741   3.264
 9982W        W82407  43.732  40.575   4.374
 9983W        W82408  39.475  43.947   4.420
 9984W        W82409  22.225  11.410   2.306
 9985W        W82410  11.632  44.019   4.604
 9986W        W82411  27.690  39.731  13.422
 9987W        W82412  21.778  29.801  11.044
 9988W        W82413  20.692  44.910  12.864
 9989W        W82414  31.044  17.103  14.076
 9990W        W82415   7.796   0.174  14.458
 9991W        W82416  10.637  35.043  14.941
 9992W        W82417  13.368  31.196  10.837
 9993W        W82418  43.767  31.609   0.489
 9994W        W82419  19.823   2.756   1.438
 9995W        W82420  11.656  10.580  13.564
 9996W        W82421   3.462  14.359   1.332
 9997W        W82422  31.148  15.303  12.649
 9998W        W82423   1.505  32.911   0.323
 9999W        W82424  38.983  12.100  11.922
10000W        W82425   8.305  12.227   1.316
10001W        W82426  16.268  44.440  13.797
10002W        W82427  20.575   2.639   4.571
10003W        W82428  13.155  22.036  12.013
10004W        W82429  25.777  33.157   4.208
10005W        W82430   0.983  30.041  11.102
10006W        W82431  26.681  24.914  12.186
10007W        W82432  31.424  24.187   1.588
10008W        W82433   8.650  40.958   0.282
10009W        W82434  23.940  17.583  10.780
10010W        W82435   4.525  40.743  13.006
10011W        W82436  19.019  20.708   0.953
10012W        W82437   0.742  11.385   1.509
10013W        W82438  18.166  35.497  14.968
10014W        W82439  28.689  44.978   1.756
10015W        W82440  42.289   5.209  12.870
10016W        W82441   3.740   0.946   0.049
10017W        W82442  15.763  38.143  10.192
10018W        W82443   7.693   7.369  13.953
10019W        W82444   6.401   6.163   5.005
10020W        W82445   8.465  25.169   0.243
10021W        W82446  39.399  41.906  11.595
10022W        W82447   4.733  41.797   4.299
10023W        W82448   5.891  22.931  10.453
10024W        W82449   1.413  36.013   0.052
10025W        W82450   4.355  44.975   1.400
10026W        W82451   1.551  33.661  12.298
10027W        W82452  25.524   9.174  10.947
10028W        W82453  27.208   2.982  10.771
10029W        W82454  40.752  28.141   3.642
10030W        W82455  21.714  34.370  12.597
10031W        W82456  36.119  10.642   2.345
10032W        W82457  35.843  18.062  11.532
10033W        W82458   6.753   0.790  12.730
10034W        W82459  24.947  32.594  13.357
10035W        W82460  36.905  44.180   1.552
10036W        W82461  16.718  27.586   0.369
10037W        W82462  13.911  37.884  14.914
10038W        W82463  22.143  33.213  11.228
10039W        W82464  28.893  41.425  14.862
10040W        W82465  21.551  12.664  10.497
10041W        W82466  24.597  43.769   0.933
10042W        W82467  21.044  41.079  12.958
10043W        W82468  40.157   5.428   4.525
10044W        W82469  19.124  30.435   0.211
10045W        W82470  38.110  30.618   1.082
10046W        W82471  34.397  38.834  14.956
10047W        W82472  18.676  43.607  13.570
10048W        W82473  41.804  34.718  12.614
10049W        W82474  22.436  41.493  11.779
10050W        W82475  11.629   8.344   4.179
10051W        W82476  31.600   0.920  13.830
10052W        W82477  34.987  20.283   3.514
10053W        W82478   0.245   3.979  13.798
10054W        W82479   7.202  15.599   1.755
10055W        W82480  36.112  43.904  11.664
10056W        W82481  22.243  12.900  13.780
10057W        W82482  10.171  33.327  12.491
10058W        W82483  36.495  43.110   1.437
10059W        W82484  28.980  22.909  13.175
10060W        W82485  29.158  38.387  13.590
10061W        W82486  10.924  26.058  13.446
10062W        W82487  27.965  27.486   0.198
10063W        W82488  24.853  35.818   4.250
10064W        W82489  34.660  32.102  13.824
10065W        W82490   8.916   2.403  10.760
10066W        W82491   1.265  29.594  14.587
10067W        W82492  12.018  43.373  13.794
10068W        W82493  38.552   1.312  11.334
10069W        W82494  15.464  41.432  10.483
10070W        W82495  17.735  17.862   4.789
10071W        W82496  12.699  14.296  13.046
10072W        W82497  11.138  32.478  13.134
10073W        W82498   7.216   1.783   3.778
10074W        W82499   8.392  41.689  12.691
10075W        W82500  13.318  34.179   3.703
10076W        W82501  36.513  39.232   0.799
10077W        W82502  28.548  12.198  10.706
10078W        W82503  44.800  31.176   2.620
10079W        W82504  30.556  13.969   0.482
10080W        W82505  26.436  24.620   4.531
10081W        W82506  28.495  34.384   4.402
10082W        W82507  16.071  20.932  12.069
10083W        W82508   0.386  31.889  12.925
10084W        W82509  18.619  28.721  13.503
10085W        W82510   7.799  11.011   1.602
10086W        W82511  12.626  13.450   1.838
10087W        W82512  21.658  17.294  13.490
10088W        W82513   6.277   4.363  14.960
10089W        W82514  22.585  43.491   4.834
10090W        W82515  19.415  26.269  13.088
10091W        W82516   7.867  18.696  14.620
10092W        W82517   1.416   3.501   2.083
10093W        W82518  33.853  38.858  14.816
10094W        W82519  19.579  17.813   4.283
10095W        W82520   5.904  44.499  13.042
10096W        W82521   4.841  41.739  10.753
10097W        W82522   3.481  34.576  13.790
10098W        W82523  19.726   3.884   2.795
10099W        W82524  31.541  34.849  14.862
10100W        W82525  37.923  27.207   0.422
10101W        W82526  30.077  28.097   1.809
10102W        W82527   1.263  11.250  14.698
10103W        W82528  34.443  40.495  14.278
10104W        W82529  15.125   9.745   1.746
10105W        W82530  38.047  20.689   4.342
10106W        W82531   3.738   4.979   2.719
10107W        W82532  15.041  28.979   3.275
10108W        W82533  33.441   0.307  14.960
10109W        W82534   3.021  13.862   2.757
10110W        W82535   3.706  22.036  14.366
10111W        W82536  14.111  29.126   3.249
10112W        W82537  32.120  22.666   1.663
10113W        W82538  25.473  26.200   4.112
10114W        W82539  20.077  42.981   1.434
10115W        W82540  29.918  19.029   0.825
10116W        W82541   0.747  11.735   3.083
10117W        W82542  15.226   5.431   4.679
10118W        W82543  14.379  40.832   3.422
10119W        W82544  23.009  12.622   4.244
10120W        W82545  13.662   0.970   4.673
10121W        W82546  40.369   9.116   0.424
10122W        W82547  19.228  31.965  14.584
10123W        W82548  29.167  26.006  12.959
10124W        W82549  32.134  25.377  13.535
10125W        W82550   3.044   8.389  12.659
10126W        W82551   2.850   1.053  14.520
10127W        W82552  29.153  26.286  10.655
10128W        W82553  10.148  38.626   3.635
10129W        W82554  31.396   3.728  13.774
10130W        W82555  39.044  39.457  12.969
10131W        W82556  35.555  35.549   1.536
10132W        W82557   2.550  17.915  11.109
10133W        W82558  31.067   6.177   3.084
10134W        W82559  28.373   7.653   2.900
10135W        W82560  20.743  14.353   1.442
10136W        W82561  12.451  34.822  11.172
10137W        W82562  34.977  25.589  11.129
10138W        W82563  27.606  12.332  10.712
10139W        W82564  28.484  37.577  11.972
10140W        W82565  22.155  41.176  14.435
10141W        W82566  30.550   3.973   1.342
10142W        W82567  12.804  37.849   1.292
10143W        W82568  30.956   1.030   1.985
10144W        W82569  28.894   1.549  11.185
10145W        W82570   9.881   8.856   3.621
10146W        W82571  23.730  43.877  11.708
10147W        W82572   1.477  39.276   1.487
10148W        W82573  39.841  17.372  10.815
10149W        W82574   5.197  21.799  11.564
10150W        W82575  41.958  40.536   2.204
10151W        W82576   7.922  20.614  13.489
10152W        W82577   9.670  11.996  11.106
10153W        W82578  15.697   9.266   3.192
10154W        W82579  29.745  26.643  12.486
10155W        W82580  13.819  21.560   0.869
10156W        W82581  17.542  43.516  13.028
10157W        W82582  18.116   9.896  13.556
10158W        W82583  24.108  41.771  11.526
10159W        W82584  25.919  19.381  12.523
10160W        W82585   4.242  21.633  10.431
10161W        W82586  44.887  29.881  12.963
10162W        W82587   4.815   3.676  14.280
10163W        W82588  34.347   3.176   3.703
10164W        W82589   6.707  34.301   3.628
10165W        W82590  16.579  31.509  12.124
10166W        W82591  36.365  29.894  12.636
10167W        W82592  18.134   4.888   3.635
10168W        W82593   7.874  18.166  12.378
10169W        W82594  38.395   0.958  10.517
10170W        W82595  27.959   1.500   2.396
10171W        W82596  11.844   3.766  10.761
10172W        W82597  25.762  23.258   0.621
10173W        W82598  20.124   8.815   2.265
10174W        W82599  25.523  29.944   4.086
10175W        W82600  22.711  36.185  10.265
10176W        W82601  31.289  28.071  14.487
10177W        W82602   4.968  24.732   2.266
10178W        W82603   5.347   2.547  12.398
10179W        W82604   6.216   4.154  13.505
10180W        W82605  13.834  40.108  14.288
10181W        W82606   0.975  29.036   0.052
10182W        W82607   4.924  14.806  11.957
10183W        W82608  34.872  19.190   1.234
10184W        W82609  36.845  21.696   1.777
10185W        W82610  14.736  18.240  11.065
10186W        W82611  30.403  42.775   2.255
10187W        W82612  23.766   6.871   2.651
10188W        W82613   4.408  16.586  12.670
10189W        W82614  32.964  11.771  14.035
10190W        W82615  19.550  23.061  10.612
10191W        W82616  14.064   4.761   4.409
10192W        W82617  43.004  23.026  12.022
10193W        W82618  42.804  43.347   3.092
10194W        W82619  36.975   7.904   3.855
10195W        W82620   7.294  12.400  13.465
10196W        W82621   8.681  20.773  12.611
10197W        W82622   1.302  15.742  12.950
10198W        W82623  30.279  21.965   4.144
10199W        W82624  35.516  23.952   2.364
10200W        W82625  41.640   8.247  14.910
10201W        W82626  21.186  25.499  11.212
10202W        W82627   3.358  27.131  12.481
10203W        W82628  26.728  14.080  12.053
10204W        W82629  30.789  30.913   4.951
10205W        W82630  39.585   2.760   1.224
10206W        W82631  35.955  22.255  10.869
10207W        W82632  14.463   8.522  11.957
10208W        W82633  32.720  35.798   4.101
10209W        W82634  38.906  38.029   0.890
10210W        W82635  34.402  14.347   4.207
10211W        W82636  31.655  33.120  12.103
10212W        W82637  39.910  41.787   3.100
10213W        W82638  20.617   5.718  13.005
10214W        W82639  11.103   8.297   2.466
10215W        W82640  37.618   6.832  10.235
10216W        W82641  22.594  41.342   4.592
10217W        W82642  30.656   1.255   3.116
10218W        W82643  42.277  13.580   4.897
10219W        W82644  33.933  42.450   3.637
10220W        W82645  43.014  13.355   0.461
10221W        W82646  27.832  26.289  11.376
10222W        W82647   2.521  30.924   2.763
10223W        W82648  34.331  40.925   2.244
10224W        W82649  30.924   7.289  13.558
10225W        W82650  44.962  30.653   0.330
10226W        W82651   4.927  43.758   3.659
10227W        W82652   0.916  17.324  13.841
10228W        W82653  31.140  42.888   9.998
10229W        W82654   3.214  37.508   4.319
10230W        W82655  32.016  25.413   5.292
10231W        W82656   2.415   0.941  14.292
10232W        W82657  10.184  25.985  10.962
10233W        W82658  30.419  35.056  14.352
10234W        W82659   5.507  25.950   1.712
10235W        W82660  24.433  44.851   4.283
10236W        W82661  32.763  34.517  14.325
10237W        W82662  33.688  20.529  14.449
10238W        W82663   4.685   7.383  14.366
10239W        W82664  23.703  10.238   0.946
10240W        W82665  35.170  24.952  10.443
10241W        W82666  14.297  19.541   4.681
10242W        W82667   0.394   8.060   0.262
10243W        W82668  19.634  26.380  14.354
10244W        W82669  32.824  14.040  12.956
10245W        W82670   8.766  38.907   1.883
10246W        W82671  44.933  17.549   2.349
10247W        W82672  21.329   5.746   4.637
10248W        W82673  36.778   6.899   4.400
10249W        W82674  23.668   1.478  14.316
10250W        W82675  12.212  14.323  12.315
10251W        W82676  36.588  25.531   0.372
10252W        W82677  43.254  26.177   4.582
10253W        W82678  32.008  35.413   4.520
10254W        W82679  17.218  41.265  12.076
10255W        W82680  16.502  12.375   3.247
10256W        W82681  24.245  43.803  11.650
10257W        W82682  27.466  12.917   2.119
10258W        W82683  44.528  20.587  13.340
10259W        W82684  16.764  27.462  12.164
10260W        W82685  40.402  42.012   3.116
10261W        W82686  11.364  26.167  11.586
10262W        W82687   0.093  15.548   2.203
10263W        W82688  10.560  27.388   1.332
10264W        W82689  10.699  40.602   4.662
10265W        W82690  26.773  41.333  14.432
10266W        W82691   2.221  16.275  12.529
10267W        W82692  38.905  41.360  12.184
10268W        W82693   1.309  25.494  10.825
10269W        W82694  25.026  15.002   3.251
10270W        W82695  30.858   8.657  13.464
10271W        W82696  32.628  23.149   0.369
10272W        W82697   1.672   9.476  12.094
10273W        W82698   9.783  26.567   0.330
10274W        W82699  17.307  20.633   1.888
10275W        W82700   4.320  19.139   1.520
10276W        W82701  38.097  30.062   2.276
10277W        W82702   6.457   9.741   1.532
10278W        W82703  18.824  44.903  12.369
10279W        W82704  17.246  14.101   3.552
10280W        W82705  26.142   8.732  14.083
10281W        W82706  15.679  32.950  12.454
10282W        W82707  29.832  28.531  14.345
10283W        W82708  31.328  10.241   1.358
10284W        W82709  16.187  20.000   3.235
10285W        W82710  29.356  10.931  11.997
10286W        W82711  38.524  15.236  12.311
10287W        W82712  18.734  23.126   3.835
10288W        W82713  22.135   4.354   2.773
10289W        W82714  27.494  37.731   0.495
10290W        W82715   6.418  36.572  14.915
10291W        W82716  17.356   0.508  12.861
10292W        W82717   0.006  32.118   0.260
10293W        W82718  10.053  25.562   3.235
10294W        W82719   7.719  43.606   2.375
10295W        W82720  12.278  34.851   2.800
10296W        W82721  26.936  12.843  11.475
10297W        W82722  31.851   9.352   3.428
10298W        W82723  33.812   8.413   2.071
10299W        W82724  14.832  41.784  11.476
10300W        W82725  18.659  19.605  14.272
10301W        W82726  21.167  10.928   2.737
10302W        W82727  20.998   9.171   1.754
10303W        W82728   3.409   9.118   0.427
10304W        W82729  20.011  38.362  14.944
10305W        W82730  36.185  25.568   3.866
10306W        W82731  19.481   2.750  13.826
10307W        W82732  29.378  19.658   1.739
10308W        W82733  33.643  39.447   3.510
10309W        W82734   3.305  28.733   4.323
10310W        W82735  15.428  44.018  14.049
10311W        W82736  38.582  22.047   4.586
10312W        W82737  25.029  36.821   2.726
10313W        W82738  39.894  21.540  10.738
10314W        W82739   8.870  37.429   2.563
10315W        W82740  27.181  14.293   3.592
10316W        W82741  15.641  42.549  14.242
10317W        W82742  10.867   6.342   4.569
10318W        W82743  36.427   4.455   0.796
10319W        W82744  21.520  29.129   4.079
10320W        W82745  13.184  44.318   0.382
10321W        W82746  37.285  18.018  10.394
10322W        W82747   4.110  25.788   2.451
10323W        W82748  42.384   5.493  11.543
10324W        W82749  32.599  19.552   5.031
10325W        W82750  21.084  35.612  13.398
10326W        W82751  14.421  28.476  11.445
10327W        W82752  23.481  32.623  12.369
10328W        W82753   6.230  23.008   4.637
10329W        W82754  30.488  29.066  13.098
10330W        W82755  22.611  42.519   0.365
10331W        W82756   7.638  13.708   0.731
10332W        W82757  36.576  20.662  10.638
10333W        W82758  19.490  33.898  14.968
10334W        W82759  22.366   2.818   2.410
10335W        W82760  24.179  23.058   0.390
10336W        W82761  10.213   7.637   0.535
10337W        W82762  34.994  27.044   3.712
10338W        W82763  24.991  18.996   4.205
10339W        W82764  21.433  35.228   2.251
10340W        W82765  17.639  10.799   4.030
10341W        W82766  41.479   4.228  12.808
10342W        W82767  11.826  31.131   2.407
10343W        W82768  27.118   8.677   2.902
10344W        W82769   8.401  20.739   4.082
10345W        W82770  25.073   0.940  11.194
10346W        W82771  34.822  39.023   0.933
10347W        W82772  36.972  19.081  14.343
10348W        W82773  37.932   9.681   3.192
10349W        W82774  17.540  20.702  13.321
10350W        W82775  35.789   8.857   1.192
10351W        W82776  19.681  44.486   0.530
10352W        W82777  10.231   2.294  14.734
10353W        W82778  33.391  37.974  13.411
10354W        W82779  17.347  44.954  12.021
10355W        W82780  42.817  42.790  13.437
10356W        W82781  31.709  34.633  11.625
10357W        W82782  36.382  24.436  13.035
10358W        W82783  24.152   0.237   1.509
10359W        W82784  30.419  40.911   2.469
10360W        W82785  39.953   1.833  10.716
10361W        W82786  18.799  35.020   4.223
10362W        W82787  36.824  24.410  13.419
10363W        W82788   2.198   6.863  14.977
10364W        W82789  37.499  20.988   5.205
10365W        W82790  16.557  20.231   2.790
10366W        W82791  33.892  23.680   0.757
10367W        W82792  16.672  39.949  12.905
10368W        W82793  10.328  20.138   1.773
10369W        W82794  38.999  16.292   9.860
10370W        W82795  37.325  30.683  13.853
10371W        W82796  27.122   2.155   0.344
10372W        W82797  35.282  38.411   2.750
10373W        W82798  40.749  23.549  13.572
10374W        W82799  44.622  26.941   2.422
10375W        W82800   2.681  31.667   4.645
10376W        W82801  15.699  42.990   4.033
10377W        W82802  44.341  26.700   0.667
10378W        W82803   1.424  11.879   2.955
10379W        W82804  10.462  37.392   2.664
10380W        W82805  30.875  14.649  12.992
10381W        W82806  22.019   0.499  13.966
10382W        W82807  38.949   3.677  10.460
10383W        W82808   1.280  28.649   2.378
10384W        W82809  10.823  33.847   4.409
10385W        W82810  22.639  20.286   4.588
10386W        W82811  10.242  36.859  12.590
10387W        W82812  40.441  24.030   1.398
10388W        W82813  37.952   2.900   4.673
10389W        W82814  42.448  31.095  10.912
10390W        W82815  31.622  31.485  11.472
10391W        W82816  40.102   0.875   3.622
10392W        W82817  28.434  19.143  12.931
10393W        W82818  19.548  12.608  12.144
10394W        W82819   1.840   1.824  10.598
10395W        W82820  15.175   1.348   4.289
10396W        W82821  14.560   7.200   3.190
10397W        W82822  37.368  15.193   3.769
10398W        W82823  10.418  25.983  13.496
10399W        W82824  22.295  15.313  13.189
10400W        W82825   2.870  33.521  14.380
10401W        W82826   0.775  17.722   0.867
10402W        W82827  11.226   2.933  10.771
10403W        W82828  36.355  23.877   1.788
10404W        W82829   0.327  19.030   3.846
10405W        W82830   2.652  17.289  13.761
10406W        W82831  33.609  35.522  10.471
10407W        W82832   0.802   5.025   3.383
10408W        W82833  18.837  19.092  14.895
10409W        W82834  19.233  31.026  11.664
10410W        W82835  12.191  20.598  11.084
10411W        W82836  19.289   8.651  10.639
10412W        W82837  30.665   9.803   2.109
10413W        W82838  27.562  41.843   4.129
10414W        W82839  44.708  40.780  14.806
10415W        W82840  40.942  24.062   0.684
10416W        W82841   5.128  17.603  12.062
10417W        W82842  15.594  22.725  10.332
10418W        W82843  24.696  24.759   0.534
10419W        W82844   2.238  31.902   4.071
10420W        W82845   6.206  29.251   2.251
10421W        W82846  40.344  33.531  12.622
10422W        W82847  43.747  24.185  14.344
10423W        W82848  17.445  13.063  14.774
10424W        W82849  33.410  41.094   2.216
10425W        W82850  39.006   1.465   1.372
10426W        W82851  15.723  36.569  12.982
10427W        W82852  40.917   1.902   2.362
10428W        W82853  33.192  29.067  11.444
10429W        W82854  21.628   5.910  12.956
10430W        W82855  34.823   7.436  11.571
10431W        W82856  15.655  29.846   1.119
10432W        W82857  15.670   0.255  14.495
10433W        W82858  34.654   8.331   1.838
10434W        W82859  14.542  44.933  11.462
10435W        W82860  40.984  34.136  11.508
10436W        W82861   4.793  12.261  13.583
10437W        W82862   6.147   7.631  10.246
10438W        W82863  25.902  36.593  11.593
10439W        W82864   3.126  11.715   0.385
10440W        W82865  29.416  22.730  14.397
10441W        W82866  41.895  40.374  12.907
10442W        W82867  44.349  11.666  11.621
10443W        W82868  31.922  17.785  10.267
10444W        W82869  15.600  34.557  14.455
10445W        W82870  34.183  22.151   0.300
10446W        W82871  36.177  44.040  12.514
10447W        W82872  25.232   4.438  11.043
10448W        W82873  13.920   1.900   2.143
10449W        W82874  42.803   0.818  11.555
10450W        W82875  38.973  42.484  11.520
10451W        W82876   8.421  44.671  12.977
10452W        W82877  26.120  30.876   0.710
10453W        W82878  26.773  30.050   5.063
10454W        W82879  30.436  23.251  13.457
10455W        W82880  18.282  11.085   4.543
10456W        W82881  40.450  25.940  14.377
10457W        W82882  21.318   8.622   3.748
10458W        W82883  42.494  30.676  13.353
10459W        W82884  28.939  21.618   5.532
10460W        W82885  30.042  32.050  12.283
10461W        W82886   5.320  43.069   2.684
10462W        W82887   4.255  25.568  10.932
10463W        W82888  30.000  18.752   4.665
10464W        W82889  19.580  24.458  14.434
10465W        W82890   9.281   7.164   1.225
10466W        W82891  21.222  35.871   1.274
10467W        W82892  21.550  20.192  12.985
10468W        W82893   8.972  26.060  11.545
10469W        W82894  29.984  30.585  13.462
10470W        W82895  12.589  42.430   2.925
10471W        W82896  36.466   6.370   2.235
10472W        W82897  23.161  44.227  13.213
10473W        W82898  25.533  32.102   5.063
10474W        W82899  36.233   3.279  14.898
10475W        W82900  10.286  33.310   0.394
10476W        W82901  12.198   5.949  11.710
10477W        W82902  11.262   5.329  12.858
10478W        W82903  44.786  38.409  13.951
10479W        W82904  23.142  33.425   4.133
10480W        W82905  18.691   3.297  10.470
10481W        W82906  40.781   4.601  12.210
10482W        W82907  17.088  29.857   2.162
10483W        W82908  23.297   0.810  11.594
10484W        W82909  43.732   0.883   0.022
10485W        W82910  15.872  38.988   3.345
10486W        W82911  29.213   7.181   2.809
10487W        W82912  13.372  27.206  11.412
10488W        W82913   8.377  13.806  10.804
10489W        W82914   3.405  27.921   1.691
10490W        W82915  26.762  41.986   1.272
10491W        W82916  27.198   9.363  14.454
10492W        W82917  25.499  26.250   0.098
10493W        W82918   7.458  21.699   4.257
10494W        W82919  14.638  15.606  11.432
10495W        W82920  14.526   2.277   1.972
10496W        W82921  22.204  20.094  10.832
10497W        W82922  14.693  18.784   4.804
10498W        W82923  40.041  34.171   3.613
10499W        W82924  17.549  15.521  13.848
10500W        W82925  26.408   1.854  13.422
10501W        W82926  13.192  32.968   1.183
10502W        W82927   1.247   2.259   2.950
10503W        W82928  42.728  41.998   4.505
10504W        W82929  43.473  28.190  11.531
10505W        W82930  44.737  21.380  10.110
10506W        W82931  42.426   2.432   1.766
10507W        W82932  32.585  24.288   3.504
10508W        W82933  21.461  13.195  11.202
10509W        W82934   1.473  25.211  11.526
10510W        W82935  23.631   4.411  11.248
10511W        W82936  30.850  18.690  14.886
10512W        W82937  22.629  28.692  12.161
10513W        W82938   2.996  11.155   1.467
10514W        W82939  20.885   4.864   0.881
10515W        W82940   6.727  13.893  13.985
10516W        W82941  24.249  35.084  12.944
10517W        W82942  12.755   5.084  12.466
10518W        W82943  40.563   9.750   3.694
10519W        W82944  16.600  34.514   1.412
10520W        W82945   7.104   6.255  11.970
10521W        W82946   6.455  37.412  11.642
10522W        W82947  10.631   0.495  13.420
10523W        W82948  38.006  21.253  13.889
10524W        W82949  23.177  42.051   2.217
10525W        W82950  25.681  37.179   3.732
10526W        W82951  39.190  26.006  12.130
10527W        W82952  34.375  26.506   4.088
10528W        W82953  23.731  23.241  11.599
10529W        W82954  43.019  20.072  11.887
10530W        W82955  43.351  36.170  14.933
10531W        W82956   5.966  32.646   3.825
10532W        W82957  28.682   7.187   2.830
10533W        W82958  10.498  27.239   3.756
10534W        W82959   3.483  26.280   0.920
10535W        W82960   2.443  36.445  14.469
10536W        W82961   9.214  22.758  11.834
10537W        W82962  42.695   2.650  12.431
10538W        W82963  31.638  17.654  10.686
10539W        W82964  16.276  44.225  11.644
10540W        W82965  30.871   2.301   2.219
10541W        W82966   9.790   6.378  11.277
10542W        W82967   4.713   4.967  11.992
10543W        W82968  31.135  25.081  10.305
10544W        W82969  41.713  14.487   2.329
10545W        W82970  26.422  32.551  13.469
10546W        W82971  24.034  15.992   1.318
10547W        W82972  24.582  10.068   0.842
10548W        W82973   3.648  28.598  14.439
10549W        W82974  33.988  17.658  14.139
10550W        W82975  35.846   9.447   4.547
10551W        W82976  18.116   2.973  11.673
10552W        W82977  31.660   8.088  10.719
10553W        W82978   0.542  31.660   3.141
10554W        W82979  12.820   2.215  12.849
10555W        W82980  10.265   9.760   1.756
10556W        W82981  11.135   8.942  11.135
10557W        W82982   2.675  31.123  10.716
10558W        W82983  42.636  28.760   0.043
10559W        W82984  23.885  12.648   4.219
10560W        W82985  11.085  39.859  13.235
10561W        W82986   1.045  33.983   4.123
10562W        W82987  42.517  22.989  12.204
10563W        W82988  11.529  24.617   0.230
10564W        W82989  18.838  44.001  11.911
10565W        W82990  17.742   6.792  10.971
10566W        W82991   0.386  25.680  14.342
10567W        W82992  34.338  33.199   0.373
10568W        W82993  11.919  40.662  11.154
10569W        W82994  15.474  23.055   4.234
10570W        W82995  26.002   5.914  11.807
10571W        W82996   4.014  23.489   1.973
10572W        W82997  44.808  25.197  13.330
10573W        W82998   2.524  28.144   3.244
10574W        W82999  33.871   7.678  11.471
10575W        W83000   0.914  28.882  10.786
10576W        W83001   3.005  16.826   2.883
10577W        W83002  15.691  17.521  12.104
10578W        W83003  43.624  20.862  10.352
10579W        W83004   6.479   2.429  14.765
10580W        W83005  19.594  29.864  14.053
10581W        W83006  13.565  10.265  11.071
10582W        W83007  23.031  32.476  13.475
10583W        W83008  31.017  30.590   4.572
10584W        W83009  22.804   2.425   0.385
10585W        W83010  22.724  41.841   2.293
10586W        W83011  39.914  43.969  11.024
10587W        W83012  14.775   5.818  11.210
10588W        W83013  24.189  28.461   0.698
10589W        W83014   6.148   5.455   4.178
10590W        W83015   7.254  12.883  12.654
10591W        W83016  25.800  11.974  14.910
10592W        W83017  10.662  43.714   4.495
10593W        W83018  38.333  17.455   4.673
10594W        W83019  38.365   1.959  10.614
10595W        W83020  16.186   6.658  11.362
10596W        W83021  39.963   2.198  14.507
10597W        W83022  28.074   8.907   2.738
10598W        W83023  30.231  20.537  12.518
10599W        W83024   3.293  28.086   2.681
10600W        W83025  39.508  33.041   4.139
10601W        W83026   3.503   4.271  12.893
10602W        W83027   9.133   9.647  11.171
10603W        W83028  16.099  22.799  10.663
10604W        W83029  44.809   6.630   4.355
10605W        W83030  22.951  13.634  13.854
10606W        W83031   0.523  18.519  12.026
10607W        W83032  37.219  12.807   3.626
10608W        W83033  40.288  15.994   0.325
10609W        W83034  33.657  20.497  10.785
10610W        W83035  35.261  18.114  13.648
10611W        W83036  22.663  22.056  13.474
10612W        W83037  22.448  15.845   3.777
10613W        W83038   5.858  32.119  14.524
10614W        W83039  10.900  43.118   3.667
10615W        W83040  25.319  28.063  14.252
10616W        W83041   0.966  14.748   0.416
10617W        W83042  24.949  20.651   3.627
10618W        W83043  25.469   2.958  14.360
10619W        W83044   5.497  42.239  14.623
10620W        W83045  18.474  23.379  13.924
10621W        W83046  43.768   9.187   0.858
10622W        W83047  13.790  13.100   0.840
10623W        W83048   2.246  43.761   2.409
10624W        W83049  43.291  39.988  12.561
10625W        W83050  26.330  31.241   0.368
10626W        W83051  13.091   0.801  13.404
10627W        W83052  39.556   9.663   0.851
10628W        W83053  24.383  22.247   4.135
10629W        W83054  22.590  37.984   0.041
10630W        W83055  22.153  24.702   2.595
10631W        W83056  26.116   2.198  10.778
10632W        W83057  20.392  26.544  13.960
10633W        W83058  33.621  31.397   2.277
10634W        W83059  16.187   1.071   2.451
10635W        W83060  23.113   4.509  12.011
10636W        W83061   9.306  15.830  11.235
10637W        W83062  43.088  24.116  11.847
10638W        W83063  39.354  30.196   1.516
10639W        W83064  11.218  19.255  12.382
10640W        W83065   6.139  29.187  11.561
10641W        W83066  44.972  12.307   4.487
10642W        W83067  30.032   6.617  12.376
10643W        W83068   4.867  12.938   3.371
10644W        W83069  30.332  32.001  13.770
10645W        W83070  34.017  32.998   3.277
10646W        W83071   3.757   1.903   1.320
10647W        W83072  39.931  34.201   0.787
10648W        W83073  14.126  31.158   4.974
10649W        W83074  24.944  19.184  14.353
10650W        W83075  34.091  42.445  12.564
10651W        W83076  43.886  16.868   0.308
10652W        W83077  25.734  26.631  14.774
10653W        W83078  17.661   0.611   4.257
10654W        W83079   2.815  29.106   2.375
10655W        W83080  37.611  30.633  10.487
10656W        W83081   0.939   8.783  13.991
10657W        W83082  11.189  11.206   3.218
10658W        W83083   5.674  24.565  13.998
10659W        W83084  22.471   6.358  12.455
10660W        W83085  38.472  42.841   3.578
10661W        W83086  18.173  39.801   3.104
10662W        W83087  17.896   5.170   1.796
10663W        W83088  14.823  28.778   4.553
10664W        W83089  38.746  34.837   2.310
10665W        W83090  20.022  25.402   1.022
10666W        W83091   0.992   7.016   2.335
10667W        W83092  32.890   7.718   3.738
10668W        W83093  40.964  42.887  10.532
10669W        W83094  16.590  39.643  13.312
10670W        W83095  41.605  16.268   3.675
10671W        W83096  31.715  38.277  10.687
10672W        W83097   4.289  30.538   0.588
10673W        W83098  37.860  11.122  11.771
10674W        W83099  23.514  32.037   9.700
10675W        W83100   8.236  30.163   4.620
10676W        W83101  12.198  26.782   1.257
10677W        W83102  34.036  30.497   0.262
10678W        W83103  36.270   6.810  13.902
10679W        W83104  12.802  22.991  12.877
10680W        W83105  28.205  26.134   3.648
10681W        W83106   8.265  39.497   3.625
10682W        W83107  16.590   7.948  11.986
10683W        W83108  30.797  30.903  10.817
10684W        W83109  23.693  41.128  13.497
10685W        W83110  11.109  32.514   3.552
10686W        W83111  20.592  17.093   4.284
10687W        W83112  23.189  44.963   3.364
10688W        W83113  41.282   3.825  12.550
10689W        W83114  41.651  27.999  13.027
10690W        W83115  30.441  14.586  10.759
10691W        W83116  29.112  13.615  13.041
10692W        W83117   7.144   9.463   2.158
10693W        W83118  44.393  12.258   3.337
10694W        W83119  31.092  11.156  11.266
10695W        W83120   9.063  14.900  14.480
10696W        W83121  18.844  14.716   2.758
10697W        W83122  30.465  40.906  12.625
10698W        W83123  36.468   2.265  12.639
10699W        W83124  16.873  19.770   1.855
10700W        W83125  23.545  26.985  13.275
10701W        W83126   1.929  39.989   4.763
10702W        W83127  17.098  30.104  14.924
10703W        W83128  36.943  30.699   2.952
10704W        W83129  28.485  18.081  13.035
10705W        W83130  34.259   1.382  12.052
10706W        W83131  43.454   9.088  13.839
10707W        W83132   1.027   9.840   1.394
10708W        W83133  42.583  16.416   2.776
10709W        W83134  44.882  43.305   0.488
10710W        W83135  31.134  19.766  10.898
10711W        W83136  27.936  10.820   1.335
10712W        W83137  12.135  27.546   4.408
10713W        W83138  13.420  44.952   2.866
10714W        W83139  26.916  34.458   2.671
10715W        W83140  12.263  29.360  13.933
10716W        W83141  31.069   6.552   2.732
10717W        W83142  26.503  35.320   3.628
10718W        W83143   1.902   2.291  11.186
10719W        W83144   0.971  29.640   3.735
10720W        W83145  23.560  19.697   1.697
10721W        W83146   7.260  40.843   3.861
10722W        W83147   8.327  31.092   2.799
10723W        W83148   4.367  11.277  12.239
10724W        W83149   4.351   6.426  14.044
10725W        W83150  37.709  23.272   3.226
10726W        W83151  43.756   8.821   0.464
10727W        W83152  37.854   1.261  12.064
10728W        W83153  32.438  10.170  10.451
10729W        W83154  38.013  12.093  10.688
10730W        W83155   7.398  15.089  13.196
10731W        W83156  16.767   6.312  10.772
10732W        W83157  28.338   7.382  12.553
10733W        W83158   9.900  21.008  11.563
10734W        W83159  31.814   8.939  12.064
10735W        W83160  32.885  35.782   3.192
10736W        W83161  12.344  31.871  12.058
10737W        W83162  36.085   5.995   0.572
10738W        W83163  20.569   5.715   4.099
10739W        W83164  17.884  30.251  12.676
10740W        W83165  23.551  42.384   4.965
10741W        W83166   7.355  24.377   2.648
10742W        W83167   2.885  44.794   3.763
10743W        W83168  42.335  27.828  11.746
10744W        W83169  20.988  24.276   4.130
10745W        W83170   6.786  23.316  13.386
10746W        W83171  35.508  11.553   4.602
10747W        W83172   4.620  29.012   3.807
10748W        W83173  42.844  14.682   1.563
10749W        W83174  41.374  13.339   4.960
10750W        W83175  25.149  24.057  12.511
10751W        W83176  27.008  28.073  11.911
10752W        W83177  16.504  34.080  14.965
10753W        W83178  23.075   9.684  12.895
10754W        W83179  32.087  14.873  12.136
10755W        W83180  33.552   3.726   2.372
10756W        W83181  43.313  23.209   2.461
10757W        W83182   3.245  12.924   1.277
10758W        W83183  26.270  14.802   1.643
10759W        W83184  18.098  30.574  11.868
10760W        W83185  11.037  32.614   1.339
10761W        W83186  27.557  41.635  13.810
10762W        W83187  23.280  36.147   0.897
10763W        W83188  17.558   7.373   4.754
10764W        W83189  31.368  35.681   2.915
10765W        W83190  36.866   1.810  11.514
10766W        W83191  23.950   1.704   3.587
10767W        W83192  44.875  10.260  13.335
10768W        W83193  40.845   2.315  12.986
10769W        W83194  20.774  22.957  12.551
10770W        W83195  27.102  40.002  10.042
10771W        W83196  13.188   8.639   1.847
10772W        W83197   6.959  11.602   1.421
10773W        W83198   7.355   8.715  13.903
10774W        W83199  34.107   5.407  14.422
10775W        W83200  15.645   5.355  10.442
10776W        W83201  38.958  26.825   5.333
10777W        W83202  25.717  29.090   2.094
10778W        W83203  15.652  37.136   2.673
10779W        W83204   9.597  14.166  13.990
10780W        W83205  44.300  32.610  14.252
10781W        W83206  30.918  29.944   1.326
10782W        W83207   6.026   8.386   3.316
10783W        W83208  26.947  24.539   4.826
10784W        W83209   4.432   6.282   1.272
10785W        W83210  33.792  22.007  12.613
10786W        W83211  15.807  11.547  10.469
10787W        W83212  22.475  21.734   3.354
10788W        W83213  31.601  19.199   4.114
10789W        W83214  42.433  33.890   3.269
10790W        W83215  28.432  23.821   0.819
10791W        W83216   5.754  21.013   1.024
10792W        W83217  22.410  25.163  14.119
10793W        W83218  31.456  34.954  13.488
10794W        W83219  35.238  24.905   4.227
10795W        W83220  26.682  30.432  11.598
10796W        W83221  39.497  15.981  14.387
10797W        W83222  28.113   8.770  10.760
10798W        W83223  23.105  31.483  14.679
10799W        W83224  16.824   3.261   3.226
10800W        W83225   2.228  28.646   4.893
10801W        W83226  16.685   3.795   3.905
10802W        W83227  35.084  15.767   3.811
10803W        W83228   5.456  36.128  13.430
10804W        W83229   5.213  16.219   3.118
10805W        W83230  12.646  13.784  10.949
10806W        W83231  24.583  33.642   1.263
10807W        W83232  43.963   0.405  10.712
10808W        W83233   6.126  39.545   4.112
10809W        W83234  25.233  14.887   1.871
10810W        W83235  32.067  35.080   5.031
10811W        W83236  13.605  27.948  10.635
10812W        W83237  17.188  23.599   2.476
10813W        W83238  39.582   0.163   4.103
10814W        W83239   4.361  37.539   4.828
10815W        W83240  19.821  43.619  14.806
10816W        W83241  18.667  22.992   4.890
10817W        W83242   1.040  36.521   2.394
10818W        W83243  43.223  24.325  11.043
10819W        W83244   3.788  43.682  14.909
10820W        W83245   4.683  33.440  13.854
10821W        W83246  12.540  43.495   1.361
10822W        W83247  27.208  44.096  14.563
10823W        W83248  16.133  11.664  14.256
10824W        W83249   1.109  24.999   9.885
10825W        W83250  36.178  35.730   4.159
10826W        W83251   6.403  42.473   1.658
10827W        W83252   7.149  14.793  12.432
10828W        W83253  28.446  30.642  13.512
10829W        W83254  10.065  29.978  11.689
10830W        W83255  42.409  23.467  13.969
10831W        W83256  43.921  31.520  14.018
10832W        W83257  29.487  29.307   3.261
10833W        W83258  37.408  22.515   2.411
10834W        W83259   7.616  23.222  14.339
10835W        W83260  12.321  28.009   4.520
10836W        W83261  28.751  22.355  14.946
10837W        W83262   3.185   8.163   4.110
10838W        W83263  31.442  19.272  10.967
10839W        W83264  29.049  27.157   4.511
10840W        W83265   5.949  17.420   3.799
10841W        W83266  44.782  17.567   1.024
10842W        W83267  35.898  41.855   4.634
10843W        W83268  28.878  17.141   2.342
10844W        W83269  20.479  10.070   1.760
10845W        W83270  16.520  37.363  11.405
10846W        W83271  34.514  27.464  14.965
10847W        W83272  25.004   5.281   3.133
10848W        W83273  17.818  31.389   0.191
10849W        W83274  16.107  22.140   3.703
10850W        W83275  28.238  19.742   3.416
10851W        W83276  30.519  24.760   0.220
10852W        W83277   3.552   1.403   2.907
10853W        W83278   0.051  31.511   0.940
10854W        W83279   9.309  17.822  11.175
10855W        W83280  39.540  18.797   1.892
10856W        W83281  17.344   7.574   4.312
10857W        W83282  43.482  43.985  14.234
10858W        W83283  25.067  29.965   2.250
10859W        W83284  15.628  29.198  13.969
10860W        W83285  42.375  43.412   2.212
10861W        W83286  42.192   4.747  13.764
10862W        W83287  30.129  13.388  10.916
10863W        W83288  40.944  26.601  14.861
10864W        W83289  22.351  33.226   3.630
10865W        W83290   6.330  25.706  14.781
10866W        W83291   6.141  27.506   2.412
10867W        W83292   6.684   9.344  13.911
10868W        W83293   4.797  10.500   1.146
10869W        W83294  37.030  39.517  12.974
10870W        W83295  16.577   6.897   0.489
10871W        W83296  26.744   2.505   2.859
10872W        W83297  42.458  19.194  11.920
10873W        W83298  15.700  12.134  12.495
10874W        W83299  13.451  38.984  10.273
10875W        W83300  44.368  15.109   3.223
10876W        W83301   0.974  20.833   0.602
10877W        W83302  35.271  14.775  10.423
10878W        W83303  29.950  19.381  11.101
10879W        W83304   2.435  27.728   5.070
10880W        W83305  25.792   4.202   4.161
10881W        W83306  18.057   7.711   3.992
10882W        W83307  14.717   1.502   1.396
10883W        W83308   9.440  11.423   0.847
10884W        W83309  35.843  22.605  11.837
10885W        W83310  41.283  41.712  14.562
10886W        W83311   8.303  26.987   4.670
10887W        W83312  20.292  18.267  11.160
10888W        W83313   2.693  28.683   1.321
10889W        W83314  37.012  32.621   0.406
10890W        W83315   1.562  10.618  12.909
10891W        W83316  13.148   4.325   9.592
10892W        W83317  37.436   4.172   0.506
10893W        W83318  42.817  39.003   4.279
10894W        W83319   8.581  12.808   2.414
10895W        W83320  10.648  17.050   3.940
10896W        W83321  27.433  38.836  14.435
10897W        W83322  43.879  39.747   1.379
10898W        W83323  15.653  42.301  13.773
10899W        W83324  30.978   2.535  11.531
10900W        W83325  29.702  24.621  11.457
10901W        W83326  39.020   7.431  12.122
10902W        W83327  29.910  15.056   4.702
10903W        W83328  17.411   8.356   3.866
10904W        W83329   3.201  29.461   2.771
10905W        W83330  30.985  39.045   0.885
10906W        W83331  33.072  35.883   3.672
10907W        W83332   5.848  36.308   4.556
10908W        W83333  26.174  39.893   2.171
10909W        W83334  21.283  34.820   0.427
10910W        W83335  43.320  24.586   3.860
10911W        W83336  26.987  35.036  12.982
10912W        W83337  30.402  23.444   4.358
10913W        W83338  11.599  26.482   1.935
10914W        W83339  44.512  26.751   4.419
10915W        W83340  32.151  43.953  12.926
10916W        W83341  20.576  23.674   3.764
10917W        W83342  11.103  29.347  11.248
10918W        W83343  27.134   7.132  10.478
10919W        W83344   6.894  23.353  11.099
10920W        W83345  35.201  19.083  11.040
10921W        W83346   9.060  23.960  12.385
10922W        W83347  39.537  14.683   2.819
10923W        W83348  17.202  13.184   5.135
10924W        W83349   7.341  20.204  14.728
10925W        W83350  40.073   7.277  11.358
10926W        W83351  35.094  41.443  14.881
10927W        W83352  43.042  31.306   0.964
10928W        W83353  19.564  32.525  12.433
10929W        W83354  38.325  21.906   3.280
10930W        W83355  14.759  27.003   3.622
10931W        W83356  27.469  39.945   4.107
10932W        W83357  23.529   4.139   0.770
10933W        W83358  34.802  21.624  13.548
10934W        W83359  25.969  42.512  13.462
10935W        W83360  43.439  23.476  12.311
10936W        W83361  16.837  18.278   3.350
10937W        W83362  42.485  24.807   2.729
10938W        W83363  32.108  36.415  13.494
10939W        W83364  39.808  17.159   1.381
10940W        W83365   0.205  43.949  13.448
10941W        W83366  44.257  38.081   4.743
10942W        W83367  38.486  26.751   4.821
10943W        W83368   1.400  26.044   4.276
10944W        W83369  31.601  32.985  13.841
10945W        W83370  14.774  33.997   2.313
10946W        W83371   9.299  17.604   3.607
10947W        W83372   9.263  15.641   2.554
10948W        W83373   5.476   7.288   3.344
10949W        W83374  29.146  42.549   2.676
10950W        W83375  20.481  34.932  14.928
10951W        W83376   4.063   0.342  13.072
10952W        W83377  29.074  16.074   4.083
10953W        W83378  30.796   8.877  12.066
10954W        W83379  12.692  13.376  11.245
10955W        W83380  40.351   9.611  12.486
10956W        W83381  11.183  19.596   2.710
10957W        W83382  13.898   6.188  13.348
10958W        W83383  22.968  34.006  13.737
10959W        W83384   6.372  35.718  14.548
10960W        W83385  17.080   0.124  13.736
10961W        W83386  36.699   8.058   1.656
10962W        W83387  17.362   9.842   0.633
10963W        W83388  29.089  11.572   2.679
10964W        W83389  41.775  18.607  14.483
10965W        W83390  11.548  35.330   0.367
10966W        W83391  24.010  18.613  10.366
10967W        W83392   6.706  38.015  12.816
10968W        W83393  16.628  40.899  11.481
10969W        W83394  16.022  23.539   4.648
10970W        W83395  41.619  38.775  10.695
10971W        W83396  12.801  22.648   2.273
10972W        W83397  26.108  41.367   3.786
10973W        W83398  14.847  44.464  12.970
10974W        W83399  44.534  34.575   5.020
10975W        W83400  18.528  44.433  11.861
10976W        W83401  23.560  39.263  10.635
10977W        W83402  18.207   9.527  14.881
10978W        W83403   1.457  33.292   2.888
10979W        W83404   2.373   7.654   4.924
10980W        W83405   4.332  16.814   0.778
10981W        W83406  38.834  39.341  10.934
10982W        W83407  12.185  28.367  12.983
10983W        W83408  23.402  16.570  12.390
10984W        W83409  16.546  41.393   3.120
10985W        W83410  37.975  23.023   2.210
10986W        W83411  21.136  20.674   2.657
10987W        W83412   1.438  15.552  12.485
10988W        W83413  41.514  43.405   1.827
10989W        W83414  14.812  20.526  14.506
10990W        W83415  26.965  40.937   0.707
10991W        W83416   0.419   4.364  11.553
10992W        W83417   5.268  43.606   1.376
10993W        W83418  12.946  44.583   4.744
10994W        W83419  39.766  40.082  13.016
10995W        W83420   0.987  22.545  11.587
10996W        W83421  19.820  31.437  13.946
10997W        W83422  24.763   6.164   3.204
10998W        W83423  38.579  30.989  13.434
10999W        W83424  19.624  26.025  10.605
11000W        W83425  20.576  10.155   3.139
11001W        W83426  14.213  44.705  13.521
11002W        W83427  12.114  23.135  11.233
11003W        W83428  14.988  16.974  10.268
11004W        W83429  12.094  12.596  13.487
11005W        W83430   2.020  17.212   4.103
11006W        W83431   0.604  16.780   4.329
11007W        W83432  18.583  38.557  13.478
11008W        W83433   5.693   5.957   3.541
11009W        W83434  28.673  14.448  11.994
11010W        W83435  38.349  11.076   2.428
11011W        W83436  41.826   9.831  10.570
11012W        W83437   3.508  28.946  12.469
11013W        W83438  20.647  31.693  10.703
11014W        W83439  24.967  13.230  14.846
11015W        W83440   4.420  33.161   1.735
11016W        W83441   5.638   9.274   0.814
11017W        W83442  28.612  37.332  11.522
11018W        W83443   0.129  20.982  12.009
11019W        W83444  40.803  37.971   2.239
11020W        W83445   6.710   4.273   0.231
11021W        W83446  14.789  19.338   0.288
11022W        W83447  11.661   8.713  11.085
11023W        W83448  19.568  38.833   2.297
11024W        W83449  13.582  18.560  14.945
11025W        W83450  36.936  19.023  11.440
11026W        W83451  19.636   6.805   2.969
11027W        W83452  11.315   7.907  11.977
11028W        W83453  37.070  40.920   1.291
11029W        W83454  26.168   7.913   0.203
11030W        W83455  32.381  40.478   1.488
11031W        W83456  39.889  15.034  14.317
11032W        W83457  15.918  13.682  11.972
11033W        W83458  25.694  21.919  11.237
11034W        W83459  38.105  19.676  13.096
11035W        W83460   4.491   1.302   4.111
11036W        W83461   0.710   5.645  10.823
11037W        W83462   7.506  13.843  11.036
11038W        W83463  16.088   7.267  12.051
11039W        W83464  16.517  19.142  10.629
11040W        W83465  23.818  20.171  14.815
11041W        W83466  41.773   0.273  12.050
11042W        W83467  35.327  21.527  12.076
11043W        W83468   2.052  35.906   2.736
11044W        W83469  41.640  42.776   4.210
11045W        W83470  38.828  11.890   2.185
11046W        W83471  21.643  18.103   3.559
11047W        W83472  29.567  21.193  11.041
11048W        W83473  38.730   6.224  13.458
11049W        W83474  26.451  10.316  14.843
11050W        W83475  15.120  17.017   4.583
11051W        W83476   5.297  28.589  12.881
11052W        W83477  24.197   6.704  14.258
11053W        W83478  18.298  13.900   1.971
11054W        W83479  19.290  39.430   1.266
11055W        W83480  18.214  44.817   2.607
11056W        W83481  14.367  19.429  12.013
11057W        W83482  33.561  26.097   4.670
11058W        W83483  29.601  42.907   0.995
11059W        W83484  31.166   8.121   2.459
11060W        W83485  36.864   7.332  14.932
11061W        W83486   9.591  40.258   2.813
11062W        W83487   7.577  12.419   3.845
11063W        W83488  12.694   6.276  10.622
11064W        W83489  14.526  10.318   4.864
11065W        W83490   1.231   1.696   3.683
11066W        W83491  44.063  13.543  13.474
11067W        W83492   6.480  20.785   2.899
11068W        W83493  24.296   4.365   3.941
11069W        W83494  35.988  14.055  12.146
11070W        W83495  31.941  42.889   0.504
11071W        W83496  20.447  14.114   3.470
11072W        W83497  37.000   0.999   3.404
11073W        W83498   9.731   0.248   1.404
11074W        W83499   4.277  15.017   0.111
11075W        W83500  11.367   6.244  12.923
11076W        W83501  24.810  27.588   4.539
11077W        W83502   0.367  18.566   2.658
11078W        W83503  14.333   5.397   1.187
11079W        W83504   0.820  29.574  14.298
11080W        W83505  32.620  14.585   0.025
11081W        W83506  23.450  30.974  12.560
11082W        W83507  13.437  17.262   4.494
11083W        W83508  37.090   9.307   2.341
11084W        W83509  30.520  39.863   0.487
11085W        W83510   3.260  27.410   1.413
11086W        W83511   4.327  11.288   4.366
11087W        W83512   8.858  29.659  12.386
11088W        W83513  20.045  25.153   0.266
11089W        W83514  40.102  43.303   0.762
11090W        W83515  28.179  17.113   4.105
11091W        W83516   1.532  24.744   2.885
11092W        W83517  24.086  26.250  10.717
11093W        W83518  18.919  23.444   0.145
11094W        W83519  34.878  31.560   1.864
11095W        W83520  36.797  23.652   0.288
11096W        W83521  24.254  26.081  13.439
11097W        W83522  34.975  33.440  11.979
11098W        W83523   1.977  17.993   1.838
11099W        W83524   6.397  37.433   4.182
11100W        W83525  39.318  28.407  14.503
11101W        W83526  21.391  32.537   3.243
11102W        W83527  31.467  19.659  11.282
11103W        W83528  39.101   9.167   2.402
11104W        W83529  29.427  11.478  14.931
11105W        W83530  35.363  41.957  12.593
11106W        W83531  17.044   1.020   3.683
11107W        W83532  33.951  37.998   2.104
11108W        W83533  20.650   7.690   0.525
11109W        W83534  34.601  26.473   0.345
11110W        W83535  43.866   7.385  13.800
11111W        W83536  19.830   4.499  12.871
11112W        W83537   3.152  20.517  12.763
11113W        W83538  23.255   4.795  14.919
11114W        W83539  17.583  34.319  11.072
11115W        W83540  33.365  18.112   0.228
11116W        W83541   5.219  11.117   2.210
11117W        W83542   5.670   3.438   1.304
11118W        W83543   5.841  11.384   3.394
11119W        W83544  34.519   9.887  12.517
11120W        W83545   4.845  30.136  10.700
11121W        W83546   5.092  27.205  14.763
11122W        W83547  22.239  16.756   4.629
11123W        W83548  10.630  35.318   0.371
11124W        W83549  39.114  43.072   2.855
11125W        W83550  41.532  42.084  11.522
11126W        W83551  27.235   3.941  11.708
11127W        W83552   8.319  33.454   4.451
11128W        W83553  29.686  36.431  11.561
11129W        W83554  21.604  17.029   0.386
11130W        W83555  21.972  31.465  13.283
11131W        W83556  19.228  42.799   0.218
11132W        W83557  25.277  11.292   3.240
11133W        W83558   7.255  12.778   3.087
11134W        W83559  29.667  24.523  13.001
11135W        W83560   0.803   2.374  12.338
11136W        W83561  29.418  27.123  13.305
11137W        W83562  22.700  18.361   0.365
11138W        W83563  18.034  13.212   1.613
11139W        W83564  44.295   5.551  10.265
11140W        W83565  20.315  44.881  13.951
11141W        W83566  35.099  26.600   1.627
11142W        W83567  39.990  39.055   0.278
11143W        W83568  31.585   3.357   3.909
11144W        W83569  38.245  17.588   0.826
11145W        W83570  22.225  34.388  11.896
11146W        W83571  10.418  15.226   4.335
11147W        W83572  11.222  38.592  13.893
11148W        W83573  32.459  20.632   0.379
11149W        W83574  14.847  39.502  12.517
11150W        W83575   1.758  25.883   2.197
11151W        W83576   8.062  10.833   3.172
11152W        W83577   2.780  23.645  12.733
11153W        W83578   7.699  26.159   2.302
11154W        W83579   0.755  42.280   0.220
11155W        W83580  34.875  35.075   3.240
11156W        W83581  14.169  25.244  14.438
11157W        W83582  40.976  20.698   4.066
11158W        W83583   2.726  27.018  14.771
11159W        W83584  36.009  23.116   0.836
11160W        W83585  23.982  29.823   1.326
11161W        W83586  40.531  32.360   0.746
11162W        W83587  40.835  41.535   0.450
11163W        W83588  25.265  35.419  13.900
11164W        W83589  10.992  33.146   3.309
11165W        W83590  31.539  27.438   0.318
11166W        W83591   9.318  11.227  13.867
11167W        W83592  39.287  21.714  11.202
11168W        W83593  16.059  16.845   3.142
11169W        W83594  22.027  32.137   3.846
11170W        W83595   1.959  33.438  12.628
11171W        W83596  31.131  43.042   0.904
11172W        W83597  38.469  11.291  13.546
11173W        W83598  21.702  42.778  11.585
11174W        W83599  33.081  16.765  12.070
11175W        W83600  23.073  23.743   4.563
11176W        W83601  43.614  25.097  11.121
11177W        W83602  41.926  17.138   4.550
11178W        W83603   9.858   5.678  12.542
11179W        W83604  26.934  36.033  11.553
11180W        W83605   8.849  42.429  11.817
11181W        W83606  35.385  44.370  10.943
11182W        W83607  37.383  42.924   0.479
11183W        W83608  34.228  40.913   0.965
11184W        W83609   4.856  23.143  13.775
11185W        W83610  13.921   1.301  11.985
11186W        W83611  44.451  19.875  12.505
11187W        W83612  26.009   7.777   1.131
11188W        W83613  20.225  40.687   1.945
11189W        W83614  39.935  11.694   1.354
11190W        W83615  40.955   8.293  11.672
11191W        W83616   5.931  40.567   2.247
11192W        W83617  35.797  43.867  12.140
11193W        W83618  22.129   8.610   2.741
11194W        W83619  16.190   9.126  13.053
11195W        W83620   7.220  16.531  14.906
11196W        W83621  25.289  18.163  10.681
11197W        W83622  33.254  29.984   2.732
11198W        W83623  28.642  33.401   0.400
11199W        W83624  25.282  17.571  13.526
11200W        W83625   0.243  32.510   0.502
11201W        W83626  12.806  17.762   1.355
11202W        W83627  35.530  37.396  11.392
11203W        W83628   6.783  16.743  14.719
11204W        W83629  18.022   2.830  12.150
11205W        W83630   3.850  37.611  11.990
11206W        W83631   4.495   4.689  14.477
11207W        W83632  32.820  27.689  11.326
11208W        W83633  25.184   5.343  13.424
11209W        W83634   4.316   5.604   0.376
11210W        W83635  27.981  24.080   0.809
11211W        W83636   4.412  40.308   3.710
11212W        W83637   1.728  27.557  10.423
11213W        W83638  19.916  25.388   3.288
11214W        W83639  16.128  29.503  11.431
11215W        W83640   6.597  18.119   1.990
11216W        W83641  18.288  12.641  12.589
11217W        W83642  36.603  32.971  13.621
11218W        W83643  23.129  30.060   0.906
11219W        W83644  43.724  17.769  12.046
11220W        W83645  27.994  35.902   0.261
11221W        W83646  28.424  20.459  12.782
11222W        W83647  28.840  26.210  11.592
11223W        W83648  27.887   1.478   1.393
11224W        W83649  21.552  23.046   2.959
11225W        W83650  17.178  43.729  13.465
11226W        W83651  34.213  37.614  14.584
11227W        W83652  30.418  17.125   2.269
11228W        W83653  28.723  25.097   4.641
11229W        W83654   3.160   3.822  10.688
11230W        W83655  35.113   5.693   2.292
11231W        W83656  36.588  25.386   2.585
11232W        W83657   0.537  19.051   0.701
11233W        W83658   6.314  36.333  14.472
11234W        W83659  43.052   3.808  13.816
11235W        W83660  37.288  41.494   3.825
11236W        W83661  30.685  15.108  12.803
11237W        W83662  19.701  36.739  12.086
11238W        W83663  11.149   4.287   0.619
11239W        W83664   3.535  19.700   3.033
11240W        W83665   0.405  28.682   2.328
11241W        W83666   5.381  44.008   3.658
11242W        W83667  29.598  29.005  14.421
11243W        W83668  18.915  23.864  13.937
11244W        W83669  42.513  13.235  10.719
11245W        W83670  23.813  31.439  10.535
11246W        W83671   5.440  30.543  12.996
11247W        W83672   7.276  10.259   2.173
11248W        W83673  40.832  42.713  13.094
11249W        W83674  36.355   4.266   2.606
11250W        W83675  37.896  13.584   0.060
11251W        W83676  40.931  15.189  13.342
11252W        W83677  15.921  19.516  11.138
11253W        W83678   5.330  26.440   1.007
11254W        W83679  32.849  35.416   0.286
11255W        W83680   8.283  30.584  14.157
11256W        W83681  40.519  19.565   3.455
11257W        W83682  37.263  22.746   3.729
11258W        W83683  41.722   8.848   2.616
11259W        W83684   7.650  16.607   4.106
11260W        W83685   6.400  10.635  10.133
11261W        W83686  13.269  40.949   1.719
11262W        W83687  36.007  31.787  11.557
11263W        W83688  15.096   5.825  13.517
11264W        W83689  38.981  28.171   1.877
11265W        W83690  38.844  30.673   2.120
11266W        W83691   1.209  42.779  13.016
11267W        W83692   9.702  10.282   2.784
11268W        W83693  29.417  39.793   2.116
11269W        W83694  28.785  16.960   3.662
11270W        W83695  14.405  17.993   3.386
11271W        W83696   1.556  36.384   2.361
11272W        W83697  12.883   2.314   3.179
11273W        W83698  33.654  14.637  12.451
11274W        W83699   3.409  18.073  14.775
11275W        W83700  20.217  15.065  14.356
11276W        W83701   4.030  36.456   1.350
11277W        W83702  35.085  23.101   0.718
11278W        W83703  14.222  15.066  14.036
11279W        W83704  32.287  36.480  11.135
11280W        W83705   1.709   3.427   5.075
11281W        W83706  39.261  14.732  12.544
11282W        W83707  22.956  33.371  11.555
11283W        W83708   3.428  19.652   4.216
11284W        W83709  10.419  27.052  14.124
11285W        W83710  14.767  37.645   0.183
11286W        W83711  31.161   6.867   1.861
11287W        W83712  14.081   0.675   0.885
11288W        W83713  12.329  30.040   2.720
11289W        W83714  12.387  31.636  12.514
11290W        W83715  15.322  14.189   2.657
11291W        W83716  16.001  36.421   0.739
11292W        W83717   7.318  35.054  13.805
11293W        W83718   7.970  16.689  11.534
11294W        W83719  40.069   8.686  11.290
11295W        W83720  31.494   6.189   2.721
11296W        W83721  10.630  34.451   3.100
11297W        W83722  26.901  44.804  10.399
11298W        W83723  32.446   0.014   2.343
11299W        W83724  43.688   2.804   1.683
11300W        W83725  44.452  30.893  13.462
11301W        W83726  30.045  31.327  12.017
11302W        W83727   8.500   1.063   0.008
11303W        W83728  24.023  34.914  13.373
11304W        W83729  10.625  27.868  11.063
11305W        W83730   4.936  11.212   1.749
11306W        W83731  39.044  32.516   0.415
11307W        W83732  12.608  14.215   0.700
11308W        W83733  29.349  12.785  13.537
11309W        W83734  34.205  24.113   4.923
11310W        W83735  18.290   5.428   4.888
11311W        W83736  19.275  34.055  13.448
11312W        W83737  17.146  42.732   3.391
11313W        W83738   1.937   5.328  11.483
11314W        W83739  40.860  22.118   3.340
11315W        W83740  38.402   9.649  11.979
11316W        W83741  29.076   0.278  12.962
11317W        W83742  11.488  16.712   2.778
11318W        W83743   6.477  14.800   3.620
11319W        W83744  32.527  43.421  11.359
11320W        W83745  12.062   9.313   4.049
11321W        W83746  13.059  16.751   0.448
11322W        W83747  40.851  37.823  12.600
11323W        W83748  17.225   9.194  13.930
11324W        W83749  17.499   9.717  11.525
11325W        W83750  38.410  12.361  12.071
11326W        W83751  19.597  33.986   1.285
11327W        W83752   8.163  21.498   2.851
11328W        W83753   7.140  19.029   0.763
11329W        W83754   5.946  27.247   4.792
11330W        W83755  24.147  33.399   1.474
11331W        W83756  36.313   8.794  11.935
11332W        W83757   7.603  12.159  13.093
11333W        W83758  30.537   4.771  11.967
11334W        W83759  44.811   0.909   3.390
11335W        W83760  38.559   4.636   0.784
11336W        W83761  30.921  35.761   2.561
11337W        W83762  22.990  26.864   4.758
11338W        W83763  30.981  21.914  12.377
11339W        W83764  15.237  38.519  14.805
11340W        W83765  26.980  36.518  11.717
11341W        W83766  17.108  22.477   1.706
11342W        W83767  34.638   6.844   4.195
11343W        W83768  36.773   6.208  10.252
11344W        W83769  22.028  27.591  13.028
11345W        W83770  23.758  37.331   0.872
11346W        W83771  28.800  37.304  12.845
11347W        W83772  19.212  41.613  12.860
11348W        W83773  26.699   4.531   1.452
11349W        W83774  10.515  30.507  14.502
11350W        W83775   8.786  33.599  11.098
11351W        W83776  12.362   3.143  11.038
11352W        W83777  20.585  38.779   4.075
11353W        W83778  12.704  10.625  10.657
11354W        W83779  20.298  43.947  12.012
11355W        W83780  26.030  12.355   3.201
11356W        W83781  13.115  40.190  13.017
11357W        W83782  12.052  27.469   1.695
11358W        W83783  11.071  22.226   4.098
11359W        W83784  34.909   3.447   2.678
11360W        W83785  29.877  35.900  13.728
11361W        W83786  22.596  24.943  14.869
11362W        W83787  42.810  25.722   0.777
11363W        W83788  32.957  40.745  14.332
11364W        W83789  41.688  22.132   2.566
11365W        W83790  30.587  26.612  12.709
11366W        W83791   0.417  30.568  11.708
11367W        W83792  14.701   2.828   0.571
11368W        W83793   3.939  32.972   1.724
11369W        W83794  14.876  32.301  12.543
11370W        W83795  19.806  39.365   2.371
11371W        W83796   2.929  41.965   3.838
11372W        W83797  35.365   9.156  10.700
11373W        W83798   9.652  30.492   0.463
11374W        W83799  20.084  26.662  14.360
11375W        W83800  10.126  11.187   3.438
11376W        W83801  14.805  30.510   2.774
11377W        W83802  20.005  40.869  12.963
11378W        W83803  31.594   8.050   3.751
11379W        W83804  13.122  11.556   5.198
11380W        W83805  14.558  29.239  11.993
11381W        W83806   8.315  29.420  11.615
11382W        W83807  43.495  41.557  11.853
11383W        W83808  37.323  12.467   4.162
11384W        W83809  25.895  40.425  11.074
11385W        W83810  44.344  20.595  14.499
11386W        W83811  32.606  22.651   4.229
11387W        W83812  24.495  43.523  10.601
11388W        W83813   5.802  26.693   4.721
11389W        W83814  10.526  25.458  14.316
11390W        W83815  37.019  31.673  11.869
11391W        W83816   3.692   8.255  11.915
11392W        W83817  37.409  17.379   4.709
11393W        W83818  27.416   6.777   2.769
11394W        W83819   9.342   0.827   0.747
11395W        W83820  11.890   8.572   3.184
11396W        W83821  41.803  17.748   4.629
11397W        W83822  44.393   8.742  14.159
11398W        W83823  39.215  34.834  11.485
11399W        W83824  12.034   5.817   1.731
11400W        W83825   2.160  20.673   1.614
11401W        W83826  21.995  34.538   3.709
11402W        W83827  19.243  30.660  12.906
11403W        W83828  12.835  24.671  10.342
11404W        W83829  35.790  37.225   4.215
11405W        W83830  16.543  44.962   0.401
11406W        W83831  42.575  11.434  13.568
11407W        W83832   2.721  22.611  11.625
11408W        W83833   6.371  25.150  14.804
11409W        W83834  34.343   4.902  14.373
11410W        W83835  33.849  24.979   3.769
11411W        W83836  10.406  15.320   2.903
11412W        W83837  34.575  36.083  11.588
11413W        W83838  40.075  36.822  10.746
11414W        W83839  13.226  14.153   1.352
11415W        W83840  10.718  22.261  10.217
11416W        W83841   8.751  23.923  11.474
11417W        W83842  39.405  22.099   2.779
11418W        W83843  24.105  27.055   0.236
11419W        W83844  13.604  42.448   2.258
11420W        W83845  22.027  43.710  12.907
11421W        W83846  32.198  27.945  14.291
11422W        W83847  16.234  17.161  13.794
11423W        W83848   9.484  10.325   5.052
11424W        W83849  37.663  23.604  13.028
11425W        W83850  20.801  25.286   1.463
11426W        W83851  37.435  11.172  12.428
11427W        W83852  43.973  33.410   2.366
11428W        W83853  24.282  28.802   3.895
11429W        W83854   0.298   0.234   0.332
11430W        W83855  32.474   7.223   1.798
11431W        W83856  14.138  39.872   0.659
11432W        W83857  13.993  17.212   3.769
11433W        W83858   7.887  44.534  13.317
11434W        W83859   0.984  20.423   3.136
11435W        W83860   6.791  33.905   3.956
11436W        W83861  24.073   9.898  14.981
11437W        W83862  44.252  32.067   0.777
11438W        W83863   7.205  21.465  10.934
11439W        W83864  37.827  23.819  14.128
11440W        W83865  28.732   8.209   2.901
11441W        W83866  29.446  41.467  11.917
11442W        W83867   7.655  33.108   4.585
11443W        W83868  29.664  37.437  14.102
11444W        W83869  27.020  40.479  14.966
11445W        W83870  15.448  15.235   4.753
11446W        W83871  35.061   9.888   4.205
11447W        W83872  14.741  11.275  13.372
11448W        W83873   1.473  36.834  12.161
11449W        W83874  33.038  31.906  14.377
11450W        W83875   5.181  19.748   2.964
11451W        W83876  11.737  15.112  12.373
11452W        W83877  19.631  18.702   4.679
11453W        W83878  30.026  16.394  13.826
11454W        W83879   8.358  12.905  13.756
11455W        W83880  20.105   7.248  12.900
11456W        W83881  10.655  13.740   3.271
11457W        W83882  38.855  32.325   4.223
11458W        W83883   6.392  11.095  10.375
11459W        W83884  22.187  30.976   0.963
11460W        W83885  44.827  32.799  12.409
11461W        W83886  37.846  36.329   0.451
11462W        W83887  14.404   1.517   5.500
11463W        W83888  32.833  22.010   4.321
11464W        W83889   8.395  33.391   2.067
11465W        W83890  20.995   9.268   3.253
11466W        W83891  13.030  10.585  12.378
11467W        W83892   0.443  10.192   4.991
11468W        W83893  10.290  31.485   3.211
11469W        W83894  27.635  16.058  11.666
11470W        W83895  31.386  37.002  13.526
11471W        W83896   7.706   7.922   1.167
11472W        W83897  21.211   3.489   3.613
11473W        W83898  19.727  39.586  11.061
11474W        W83899  12.336   8.102  14.333
11475W        W83900  13.211  27.708   1.195
11476W        W83901   9.021  11.500   3.751
11477W        W83902  44.063  12.745   2.153
11478W        W83903  26.104  12.612   0.588
11479W        W83904   5.297  14.014   2.713
11480W        W83905  31.920  37.442   3.642
11481W        W83906   4.695   2.337  14.531
11482W        W83907  41.268   0.320  11.080
11483W        W83908   2.342  42.570   4.186
11484W        W83909  31.867  36.514  13.960
11485W        W83910   4.734  26.376   5.020
11486W        W83911  32.990  16.336   3.646
11487W        W83912  15.529  39.460  11.158
11488W        W83913  12.888  41.325  12.610
11489W        W83914  30.245  20.269  13.001
11490W        W83915  14.546  15.668   1.321
11491W        W83916  11.101  22.604  10.922
11492W        W83917  21.752   7.356   0.509
11493W        W83918  21.437  36.501  12.414
11494W        W83919  31.458  43.578  10.624
11495W        W83920  38.683  11.466  11.599
11496W        W83921  12.820  15.175   0.241
11497W        W83922  39.481  23.741  14.847
11498W        W83923  18.810  43.189  14.070
11499W        W83924  29.680  15.313  13.004
11500W        W83925  15.722  14.519  13.984
11501W        W83926   6.222  38.528  10.265
11502W        W83927  13.097   0.466  10.570
11503W        W83928  35.848  28.128   3.286
11504W        W83929  35.898  13.905  13.438
11505W        W83930  40.322   4.934  12.127
11506W        W83931  23.526  11.813   3.379
11507W        W83932  42.004   8.205   0.740
11508W        W83933   0.993  28.004  13.522
11509W        W83934   7.731  29.027  12.365
11510W        W83935   1.680   1.379  12.680
11511W        W83936  32.697  39.632  12.570
11512W        W83937  41.255  36.523   2.788
11513W        W83938   6.802   0.648  14.436
11514W        W83939  27.620  43.549   1.765
11515W        W83940  17.314  18.187  13.427
11516W        W83941   8.200  33.647   1.119
11517W        W83942   7.290  30.587   1.862
11518W        W83943   1.458  24.033  14.909
11519W        W83944  13.849  14.707   4.778
11520W        W83945  31.383  10.521   3.157
11521W        W83946   6.717  25.157  11.056
11522W        W83947  42.369   1.573   5.244
11523W        W83948  44.354  41.033  10.786
11524W        W83949   1.773  19.635   1.393
11525W        W83950  26.413  15.666  12.475
11526W        W83951  21.425  28.548   1.846
11527W        W83952  30.115  16.329   0.250
11528W        W83953  30.600  18.949   0.423
11529W        W83954   5.824   1.871  12.796
11530W        W83955   4.654  33.999   1.189
11531W        W83956  32.959  20.130  10.677
11532W        W83957   6.808  42.051  12.440
11533W        W83958   2.146  25.089  12.122
11534W        W83959  23.960  16.554   0.457
11535W        W83960  33.492  19.449  13.573
11536W        W83961   9.629  16.213   3.762
11537W        W83962  41.862  18.760   4.572
11538W        W83963  36.290  35.607   2.340
11539W        W83964  21.685   8.921  13.034
11540W        W83965   5.323  26.630  12.357
11541W        W83966   8.861  11.408  10.976
11542W        W83967  40.460   1.911   4.110
11543W        W83968   1.877  26.426  12.036
11544W        W83969  27.748  31.359   2.193
11545W        W83970  34.650  34.075   0.289
11546W        W83971  30.433  11.369   1.415
11547W        W83972  21.245   6.464  14.337
11548W        W83973  41.851  13.377  13.041
11549W        W83974  24.706  32.465  11.847
11550W        W83975   0.961  24.501  13.766
11551W        W83976   7.850   7.430  11.531
11552W        W83977   5.760  21.582  10.872
11553W        W83978   8.749  27.638   2.493
11554W        W83979   4.326  30.415  14.501
11555W        W83980  20.434  31.045  12.417
11556W        W83981  39.086   9.133   0.730
11557W        W83982  38.573  15.024   4.057
11558W        W83983  30.134   4.362   4.722
11559W        W83984  40.288  27.532  13.914
11560W        W83985  43.318  34.560   0.915
11561W        W83986  15.713   3.295   1.928
11562W        W83987  26.277  14.241   1.245
11563W        W83988  25.684  39.486  13.470
11564W        W83989  29.643  38.581  10.183
11565W        W83990  16.554  40.369  14.967
11566W        W83991  34.922  44.506  11.566
11567W        W83992  43.374  11.873  13.217
11568W        W83993  24.242  36.501  12.071
11569W        W83994  34.514  21.236   0.479
11570W        W83995  18.687   1.429  14.978
11571W        W83996  26.175  17.384  11.906
11572W        W83997  17.198   1.995  13.297
11573W        W83998  15.805   5.956   1.217
11574W        W83999  16.221  29.167   1.759
11575W        W84000  29.283  13.741  14.729
11576W        W84001  17.115   4.435  13.596
11577W        W84002  26.900  42.226  11.012
11578W        W84003   2.912  43.610  14.402
11579W        W84004   7.914  14.594   2.934
11580W        W84005  16.794  27.883  14.908
11581W        W84006  23.977   5.296  11.547
11582W        W84007   5.326  27.416   4.109
11583W        W84008   4.744  42.427  12.102
11584W        W84009   3.690  24.932   1.401
11585W        W84010  31.388  19.127  12.041
11586W        W84011  12.147  25.258  14.334
11587W        W84012  33.272  32.801   2.737
11588W        W84013  42.593  11.346   0.795
11589W        W84014  25.720   7.333   0.934
11590W        W84015  37.566  32.689  12.878
11591W        W84016  42.835  11.199  14.464
11592W        W84017  30.442   9.696  14.893
11593W        W84018   8.105  40.936   4.868
11594W        W84019  21.804   6.757   1.785
11595W        W84020  23.173  33.681   1.327
11596W        W84021  17.639  25.172   0.499
11597W        W84022  28.318  11.554  13.921
11598W        W84023  35.905  14.247   2.615
11599W        W84024  14.351  11.364   4.653
11600W        W84025  43.915  11.408  13.985
11601W        W84026  38.689   0.240   0.843
11602W        W84027  13.678  38.918   0.727
11603W        W84028  12.435  29.692   3.760
11604W        W84029  33.857   2.791   1.837
11605W        W84030   7.227   1.555   3.296
11606W        W84031  41.473  43.060  10.543
11607W        W84032  17.498  38.654   0.353
11608W        W84033   5.352   4.289  13.271
11609W        W84034  21.038  28.449   3.687
11610W        W84035   0.499  35.995   0.023
11611W        W84036   5.229  25.517   1.860
11612W        W84037  18.735  36.129  10.524
11613W        W84038  18.041  33.644  10.677
11614W        W84039  16.690  27.519  10.665
11615W        W84040  29.543  26.910  14.803
11616W        W84041  17.715  29.517   2.215
11617W        W84042  10.357  22.383   4.752
11618W        W84043  23.165  24.645  13.924
11619W        W84044  41.291  18.545  13.018
11620W        W84045   2.790   0.447  10.690
11621W        W84046  27.980   5.720   4.555
11622W        W84047   2.260  16.805  12.891
11623W        W84048  36.302  42.389   3.606
11624W        W84049  35.322  41.391   4.981
11625W        W84050  34.370  36.159  13.479
11626W        W84051  29.197   4.458  12.949
11627W        W84052  19.648  14.257  11.942
11628W        W84053  30.116  37.129   0.476
11629W        W84054  31.853   8.628  11.547
11630W        W84055  35.072  16.570   3.198
11631W        W84056  31.395  33.158  10.813
11632W        W84057  16.546  30.706  10.936
11633W        W84058  37.636  40.660  12.960
11634W        W84059  29.184   5.329   4.449
11635W        W84060  18.873   1.924   2.792
11636W        W84061   3.168  11.109   0.982
11637W        W84062  20.953   6.187   3.291
11638W        W84063  35.924  39.193   4.216
11639W        W84064  12.898   5.937  11.141
11640W        W84065   5.809  38.500  12.297
11641W        W84066  20.995  25.133  14.004
11642W        W84067  25.848  41.010   1.226
11643W        W84068  33.377   1.268  11.489
11644W        W84069  42.759  30.178  11.405
11645W        W84070  24.006   7.175  14.373
11646W        W84071  24.708  21.471   3.790
11647W        W84072   8.701  14.590   0.240
11648W        W84073  33.590  35.093   2.802
11649W        W84074   7.680   1.800   9.864
11650W        W84075  37.954  24.153  14.502
11651W        W84076  24.532  16.295  13.491
11652W        W84077   7.909  19.029   3.922
11653W        W84078   5.766  37.264  14.206
11654W        W84079  14.803  24.270   1.952
11655W        W84080  10.369  38.779  14.330
11656W        W84081  22.576  41.241   0.958
11657W        W84082  31.007  31.102   3.936
11658W        W84083   7.244  44.782   0.297
11659W        W84084   1.917   4.316   0.949
11660W        W84085  39.616  25.486   3.724
11661W        W84086   1.254  44.302   2.291
11662W        W84087   2.408   4.838   0.253
11663W        W84088  27.076  43.033  10.687
11664W        W84089  27.742  38.035  14.260
11665W        W84090  25.615  25.530  13.960
11666W        W84091  27.477  44.702  12.099
11667W        W84092  37.074  41.820   3.253
11668W        W84093   0.589  26.223   3.112
11669W        W84094  15.395   9.290  13.372
11670W        W84095   6.142  41.599  14.308
11671W        W84096  40.396  25.567   1.457
11672W        W84097   7.799  14.183   0.951
11673W        W84098  16.691   6.971   4.234
11674W        W84099  10.448  18.608  11.563
11675W        W84100   8.756  38.681  12.519
11676W        W84101   9.361   0.947   3.705
11677W        W84102  26.098  28.962   0.433
11678W        W84103  10.577   9.371   0.094
11679W        W84104  35.882   9.699  12.116
11680W        W84105  24.589  17.755   0.478
11681W        W84106  17.550   3.413  14.285
11682W        W84107   9.312   2.390  13.206
11683W        W84108  13.634  19.277   2.867
11684W        W84109  14.557  12.442   4.944
11685W        W84110  19.753  13.032   5.185
11686W        W84111  25.043  34.910  11.678
11687W        W84112  24.038  37.449   2.211
11688W        W84113  13.676  38.509  10.270
11689W        W84114  14.830   8.638   3.378
11690W        W84115  34.818  31.634  13.037
11691W        W84116   4.873  19.319  10.500
11692W        W84117  35.488  44.084  13.361
11693W        W84118  19.682  25.934  13.405
11694W        W84119   9.310  25.045  10.729
11695W        W84120  18.955  36.893  10.936
11696W        W84121  30.586  14.272  14.687
11697W        W84122  44.637   3.052   2.243
11698W        W84123  12.629   6.504   2.121
11699W        W84124  12.122   6.373  10.981
11700W        W84125  11.626   2.766  10.482
11701W        W84126  27.979  39.098   0.255
11702W        W84127   6.343   8.943  13.859
11703W        W84128   1.252   3.310  14.391
11704W        W84129  21.243  22.242   0.319
11705W        W84130  29.661  28.438   1.757
11706W        W84131  11.592  31.492  13.839
11707W        W84132  28.510  21.949  13.384
11708W        W84133  42.084  25.521  13.041
11709W        W84134  26.140  27.439   2.829
11710W        W84135   8.765   9.139   3.089
11711W        W84136  29.172   9.582  12.918
11712W        W84137  43.550  21.791  12.613
11713W        W84138  11.157  26.737   3.392
11714W        W84139  37.315  30.594   1.412
11715W        W84140  19.288  17.872   2.194
11716W        W84141  28.504  35.059  14.168
11717W        W84142   4.698  44.931   4.777
11718W        W84143  38.935  20.036  14.104
11719W        W84144  42.334  26.423  14.769
11720W        W84145   6.432  19.162   3.349
11721W        W84146  25.763   1.034   1.689
11722W        W84147  28.359  17.006   1.445
11723W        W84148  37.385  41.256   1.023
11724W        W84149  44.401  37.993   1.716
11725W        W84150   6.818   3.545  11.583
11726W        W84151  21.385  12.663   0.790
11727W        W84152  15.912  15.263   1.289
11728W        W84153  25.594   9.836  13.795
11729W        W84154   8.847  38.865   4.063
11730W        W84155   2.667   8.315   3.227
11731W        W84156  28.697  16.069   0.452
11732W        W84157  21.739  34.084   3.663
11733W        W84158  11.230  22.153  10.209
11734W        W84159   1.843   8.954  11.224
11735W        W84160  38.810   8.179   4.560
11736W        W84161  14.161   0.256   1.812
11737W        W84162  11.197  13.734   0.708
11738W        W84163   0.818  30.959   3.416
11739W        W84164  24.188   1.316  12.897
11740W        W84165  36.523   6.662  13.472
11741W        W84166   0.427   9.811  10.434
11742W        W84167   1.484  14.777   1.954
11743W        W84168  41.842  37.858   3.181
11744W        W84169  27.497   3.013   2.861
11745W        W84170  10.368  17.803  11.965
11746W        W84171  25.683  32.489  11.561
11747W        W84172  19.901  26.036   4.080
11748W        W84173  26.207  41.556  11.967
11749W        W84174   5.808  14.610   0.271
11750W        W84175  35.814  10.908  13.942
11751W        W84176  19.484  30.192  12.963
11752W        W84177  34.435  37.377   0.004
11753W        W84178   2.209  13.153  10.725
11754W        W84179  18.366  33.126   5.128
11755W        W84180  22.393  20.474   0.076
11756W        W84181  18.345  31.803  10.103
11757W        W84182   3.616  33.085  10.216
11758W        W84183  42.069  16.585   0.274
11759W        W84184  14.416  21.537  13.886
11760W        W84185  37.847  33.142   4.047
11761W        W84186   7.665  35.840   0.599
11762W        W84187  36.839   4.823  14.506
11763W        W84188  16.027  33.539  12.892
11764W        W84189  41.842   4.752   0.781
11765W        W84190  34.661  35.229  12.151
11766W        W84191  29.842  36.411   2.793
11767W        W84192  38.994  38.856   3.391
11768W        W84193  27.192   6.978   1.379
11769W        W84194  25.480  31.551   3.131
11770W        W84195   3.844   4.325   1.177
11771W        W84196  25.153   1.215   0.736
11772W        W84197  10.196  35.885   2.700
11773W        W84198   2.371  10.061  13.486
11774W        W84199  42.721  25.119  11.086
11775W        W84200  30.506   9.686  10.409
11776W        W84201  34.765  25.035   0.218
11777W        W84202   8.721  28.609   1.848
11778W        W84203  30.044  21.111  11.259
11779W        W84204  15.589  24.895   1.942
11780W        W84205  30.162   0.839   3.278
11781W        W84206  34.422  37.038  13.749
11782W        W84207  18.306   7.374  13.963
11783W        W84208  17.158  26.264  12.524
11784W        W84209  36.405  10.176  12.427
11785W        W84210   2.208  20.753  14.527
11786W        W84211  13.771  36.455  10.857
11787W        W84212   1.988  24.443   3.750
11788W        W84213   5.149  23.698   3.368
11789W        W84214  10.852  15.657  11.355
11790W        W84215  19.504   2.760   1.847
11791W        W84216  15.687  13.788  12.417
11792W        W84217  44.913  30.482  13.879
11793W        W84218  20.408  21.511  12.834
11794W        W84219   5.612  14.193   1.264
11795W        W84220   6.332  20.295   2.909
11796W        W84221  25.973  36.938   2.828
11797W        W84222  17.225  41.731  13.404
11798W        W84223  41.957   9.744   1.267
11799W        W84224  40.778  28.048   1.824
11800W        W84225  38.418  22.999  11.134
11801W        W84226   6.786  18.058   3.699
11802W        W84227  33.965   6.677  14.994
11803W        W84228  22.148  22.914  11.579
11804W        W84229  31.620  38.269  14.459
11805W        W84230  33.650  30.606   9.973
11806W        W84231  26.490  16.604  11.184
11807W        W84232  28.326  26.150  11.526
11808W        W84233  34.087  17.286  13.780
11809W        W84234  27.510  37.392   0.896
11810W        W84235   0.325  41.704  12.499
11811W        W84236  32.550  18.328  11.106
11812W        W84237  35.775  23.546  13.484
11813W        W84238   6.623  14.807  10.961
11814W        W84239  30.524  24.188  14.294
11815W        W84240  33.780  40.198  11.523
11816W        W84241  15.385  38.229   0.642
11817W        W84242  21.439   4.588  13.290
11818W        W84243   4.000  40.458  10.804
11819W        W84244  16.054   0.541   0.821
11820W        W84245  32.612  15.120   3.523
11821W        W84246  13.385   2.550   1.265
11822W        W84247  21.098   1.761  12.503
11823W        W84248   5.949  34.173  12.203
11824W        W84249  44.864  18.631   1.216
11825W        W84250  19.052  10.694   0.272
11826W        W84251  35.563   6.915   3.207
11827W        W84252  36.505  17.893   0.328
11828W        W84253  16.089   1.977   0.293
11829W        W84254  13.638  15.763  12.387
11830W        W84255  18.356  44.374  12.386
11831W        W84256   5.213  32.588   2.175
11832W        W84257  35.004   7.669   1.290
11833W        W84258  35.673  33.751  11.679
11834W        W84259  41.772  13.753   1.819
11835W        W84260  31.895  11.745  14.064
11836W        W84261   3.406  43.698   1.847
11837W        W84262  44.376  23.705  13.548
11838W        W84263  21.501  21.977   1.979
11839W        W84264  29.376  12.252   0.549
11840W        W84265  25.223   2.732   1.256
11841W        W84266  35.404  42.005   0.943
11842W        W84267  18.714  15.399  13.077
11843W        W84268  11.382  30.015  12.469
11844W        W84269   3.561   4.784  10.746
11845W        W84270   5.516  15.029   0.350
11846W        W84271  35.375  15.575  14.053
11847W        W84272   9.271  29.914   2.303
11848W        W84273  14.144  38.737  10.200
11849W        W84274  25.623   4.176   0.787
11850W        W84275  19.267  20.048   1.691
11851W        W84276  20.705   7.742   4.892
11852W        W84277   4.445   7.859  12.474
11853W        W84278  24.943   2.462   3.798
11854W        W84279  11.377   4.713   2.309
11855W        W84280  30.163   5.664   3.650
11856W        W84281  18.506  11.851  11.199
11857W        W84282  23.204  12.141  12.992
11858W        W84283  41.137  38.475  13.062
11859W        W84284  33.376  17.603  12.073
11860W        W84285  13.082   6.819   3.582
11861W        W84286  18.875   7.278   5.038
11862W        W84287  36.221  34.454  14.285
11863W        W84288  13.269  32.770  10.451
11864W        W84289  21.552  22.458   2.242
11865W        W84290   2.965  22.512  13.560
11866W        W84291  39.583  39.844   1.338
11867W        W84292   9.776  12.810  13.764
11868W        W84293  43.006  37.098  14.347
11869W        W84294   4.852  42.793  14.845
11870W        W84295  10.841   3.108   3.369
11871W        W84296  26.428   4.344  10.417
11872W        W84297   5.421   7.359  14.982
11873W        W84298  24.736  40.014  11.542
11874W        W84299  33.193  15.039  13.316
11875W        W84300  32.070   3.325   3.746
11876W        W84301  30.910  23.172   2.311
11877W        W84302  24.026   2.690  13.050
11878W        W84303  12.782  30.868   2.046
11879W        W84304  24.105  37.412   1.680
11880W        W84305  16.054  30.407  13.798
11881W        W84306  22.003  17.726   2.734
11882W        W84307  20.322  24.023  14.817
11883W        W84308  41.046  32.444   0.697
11884W        W84309   0.715   7.245   4.393
11885W        W84310  42.734  34.779   3.280
11886W        W84311  39.711   8.111   1.505
11887W        W84312  25.990  40.435   3.764
11888W        W84313  12.969  31.647   1.872
11889W        W84314  44.611   1.318  11.170
11890W        W84315  19.175  29.561   2.925
11891W        W84316  26.896  16.764   3.479
11892W        W84317  18.516  22.673   2.676
11893W        W84318  18.830  11.569  12.917
11894W        W84319  33.056  27.116  12.518
11895W        W84320  16.516  37.750   2.339
11896W        W84321  17.583   3.238   0.020
11897W        W84322  44.849  16.122  13.708
11898W        W84323  35.589  33.937   2.921
11899W        W84324  33.440   0.997  14.021
11900W        W84325  13.079  23.222   3.869
11901W        W84326   5.949  15.328   1.937
11902W        W84327   2.967   3.941  14.460
11903W        W84328  33.462  40.978  11.679
11904W        W84329  19.236  25.147   4.259
11905W        W84330  42.561   9.753   2.999
11906W        W84331  21.165  21.980   0.761
11907W        W84332   7.482   6.208   3.669
11908W        W84333   9.845  21.617  14.954
11909W        W84334  14.706   5.784   1.207
11910W        W84335  25.032  17.028  11.375
11911W        W84336   5.222  36.514   4.034
11912W        W84337  35.543  33.369   1.679
11913W        W84338   5.188  35.854  13.963
11914W        W84339  41.513  24.450   1.692
11915W        W84340  14.127  14.253  14.975
11916W        W84341  42.787  20.670  14.037
11917W        W84342  39.585  35.044  12.869
11918W        W84343  43.279  16.761  13.190
11919W        W84344  21.769   6.200  14.272
11920W        W84345  38.031  30.798   1.781
11921W        W84346  35.508   2.606   1.328
11922W        W84347  44.518  20.163  13.037
11923W        W84348  10.598  33.106  12.702
11924W        W84349  23.673  13.877  11.471
11925W        W84350   3.892  24.607   3.663
11926W        W84351   7.802   8.450   4.197
11927W        W84352  38.872  11.725  11.183
11928W        W84353   8.285  15.643   2.874
11929W        W84354   5.769  27.130   2.518
11930W        W84355  16.816   2.667  14.883
11931W        W84356  33.674   3.849   4.432
11932W        W84357  38.259  44.464   1.777
11933W        W84358   6.130   4.335  11.023
11934W        W84359  31.331   2.202  11.700
11935W        W84360   3.903  40.607  11.649
11936W        W84361  18.204  37.994   4.875
11937W        W84362  16.360  42.311  10.930
11938W        W84363  19.234  13.798  11.201
11939W        W84364  24.576  38.983   3.879
11940W        W84365  36.489   4.032  11.570
11941W        W84366   2.702  42.198   1.478
11942W        W84367  41.329  31.135   0.224
11943W        W84368  15.770  17.962  12.404
11944W        W84369  10.272   4.271   2.140
11945W        W84370  33.767   4.175  12.353
11946W        W84371   3.020   4.809  14.128
11947W        W84372   9.571  30.744  13.591
11948W        W84373   0.982  27.038  11.854
11949W        W84374  44.173  20.734  10.180
11950W        W84375  20.425  22.031   4.844
11951W        W84376  19.029  43.489   3.221
11952W        W84377  34.972  10.078  12.389
11953W        W84378  38.400  41.999   1.758
11954W        W84379  24.081   3.871  10.459
11955W        W84380  38.030  28.883   2.646
11956W        W84381  41.955  34.136  14.026
11957W        W84382  43.797  13.193   2.211
11958W        W84383  25.761  32.649   0.429
11959W        W84384  34.098  41.313   4.599
11960W        W84385  32.639  44.146  14.552
11961W        W84386  25.105  40.278  14.702
11962W        W84387  19.583  29.455  12.559
11963W        W84388  44.850  11.901  14.480
11964W        W84389  43.902  25.390  14.971
11965W        W84390   4.804  40.021  11.046
11966W        W84391  42.488  36.024   1.705
11967W        W84392  17.037  33.642   1.884
11968W        W84393   0.301  40.610  11.110
11969W        W84394  22.844  39.499   1.748
11970W        W84395  15.842   7.901   1.531
11971W        W84396  42.256  44.729  14.346
11972W        W84397  32.848  24.217  13.633
11973W        W84398  44.320  21.090  14.305
11974W        W84399   0.408   1.231  12.558
11975W        W84400   2.004  25.790  12.752
11976W        W84401  10.368   2.467   2.063
11977W        W84402  24.518  39.450  12.605
11978W        W84403  11.114  44.038   2.311
11979W        W84404  38.653  25.265   3.395
11980W        W84405  21.748   8.619   0.875
11981W        W84406  20.539  25.735  13.358
11982W        W84407  37.053  20.269   1.878
11983W        W84408  43.913  38.818  14.440
11984W        W84409  43.893  32.061   2.679
11985W        W84410  33.845  14.390   0.631
11986W        W84411   1.499   6.183   0.529
11987W        W84412  38.990  17.312  11.935
11988W        W84413   5.104  15.994   1.172
11989W        W84414  28.739  22.577  11.901
11990W        W84415  43.585  39.954   1.851
11991W        W84416  30.009  23.827   1.392
11992W        W84417  43.262   8.951   0.412
11993W        W84418  19.422   2.226   0.293
11994W        W84419  21.022  42.322  12.491
11995W        W84420  24.646  21.727  12.659
11996W        W84421  13.760  10.178  12.494
11997W        W84422  32.218  38.941  13.668
11998W        W84423  42.972  42.490   3.687
11999W        W84424  32.953  28.947  11.923
12000W        W84425   2.963  18.625   2.335
12001W        W84426  10.141   8.844   1.964
12002W        W84427  19.709  23.747  11.856
12003W        W84428  41.909  24.008   2.252
12004W        W84429  17.739  18.214   3.214
12005W        W84430  38.470  22.197   2.747
12006W        W84431  10.768  43.331  11.364
12007W        W84432  10.214  25.635   2.316
12008W        W84433  28.810  14.734  13.752
12009W        W84434  38.321  15.242  13.231
12010W        W84435  39.185   3.777   0.824
12011W        W84436  34.389  22.123   2.757
12012W        W84437  44.230  32.324  12.390
12013W        W84438  12.296  35.598   0.695
12014W        W84439  12.654  34.688   3.563
12015W        W84440  27.202   1.341   4.979
12016W        W84441  27.330   8.074  11.873
12017W        W84442   8.257  39.294  12.919
12018W        W84443  33.183   0.346   1.320
12019W        W84444  35.415  29.095   4.054
12020W        W84445  10.352  40.870  14.850
12021W        W84446  37.624  15.820   2.749
12022W        W84447  44.820  11.196  11.127
12023W        W84448  44.493  18.211  10.540
12024W        W84449  39.798  31.167   4.821
12025W        W84450  13.889  17.566   4.145
12026W        W84451  31.974  37.372  13.568
12027W        W84452  42.879   7.224   4.805
12028W        W84453  25.477  39.453   3.575
12029W        W84454   7.678   0.406   1.299
12030W        W84455  17.269  38.183  11.493
12031W        W84456  16.846  18.105   0.969
12032W        W84457  24.729  38.666  13.862
12033W        W84458  33.387  37.938   3.877
12034W        W84459  43.576  33.537  13.265
12035W        W84460  10.816  38.442   1.354
12036W        W84461  40.908  25.146   3.642
12037W        W84462  43.410  22.882  11.667
12038W        W84463  31.386  18.887  10.629
12039W        W84464  11.373  44.442   3.584
12040W        W84465   4.852  19.580   1.222
12041W        W84466  26.482  32.418   4.556
12042W        W84467  15.646  41.373   1.325
12043W        W84468   0.937  17.979   0.398
12044W        W84469  29.195  27.493   0.046
12045W        W84470  19.722  28.758   0.262
12046W        W84471  15.866  43.316  13.877
12047W        W84472   6.911  23.402   4.123
12048W        W84473  10.723  26.437   3.370
12049W        W84474  36.383  11.172   3.634
12050W        W84475  35.454  34.873   4.400
12051W        W84476  34.368   4.233   1.516
12052W        W84477   4.533  16.170  13.096
12053W        W84478  27.829  14.883  14.021
12054W        W84479  10.306   8.276  11.157
12055W        W84480  19.456   7.673   2.292
12056W        W84481   1.636   1.290  13.968
12057W        W84482  37.875  18.531  12.571
12058W        W84483  12.241  27.228   3.101
12059W        W84484   1.634  22.192  12.022
12060W        W84485  12.294  24.304  10.599
12061W        W84486  39.757  43.837   2.851
12062W        W84487   5.302  17.615   2.729
12063W        W84488  27.593  18.117  14.799
12064W        W84489  44.758  37.944  12.519
12065W        W84490  35.003   7.330  13.993
12066W        W84491   9.171  13.836  13.878
12067W        W84492  15.683  23.744   2.270
12068W        W84493  29.242  31.095   2.380
12069W        W84494  22.055  38.321  10.303
12070W        W84495   6.462  21.092  13.017
12071W        W84496   2.423  37.938  14.878
12072W        W84497  25.940  35.623   4.675
12073W        W84498  32.857   4.951   0.689
12074W        W84499  28.014  43.372  12.511
12075W        W84500  27.513  12.892  14.771
12076W        W84501  25.642  35.950   0.768
12077W        W84502  29.435  24.036  12.862
12078W        W84503  13.011   3.777  12.624
12079W        W84504   8.175  23.532  13.513
12080W        W84505  22.477  33.160   2.771
12081W        W84506   4.371  22.040  12.869
12082W        W84507  11.053  32.620  13.649
12083W        W84508  32.006  10.374  14.344
12084W        W84509   5.653  13.428   3.425
12085W        W84510  30.034   7.650   2.816
12086W        W84511  30.060  40.793  11.971
12087W        W84512  33.654  17.615   9.940
12088W        W84513  38.594  43.556   4.055
12089W        W84514  32.457  42.358  12.991
12090W        W84515  40.387   6.203  12.543
12091W        W84516  27.628  17.385  14.477
12092W        W84517  10.168   4.764  11.494
12093W        W84518  31.383  28.872  14.902
12094W        W84519  20.061  33.481  11.389
12095W        W84520   5.910  26.726  12.491
12096W        W84521  33.068   7.206   0.983
12097W        W84522   9.110   3.190   3.626
12098W        W84523  38.952  38.385   3.625
12099W        W84524   2.359   6.978  11.083
12100W        W84525  13.510  39.900  11.229
12101W        W84526   4.004  15.292   4.623
12102W        W84527  41.872  26.724   1.879
12103W        W84528  16.296   8.382  11.144
12104W        W84529  39.778   3.430   3.633
12105W        W84530   7.401  12.130  13.963
12106W        W84531   5.167   4.435   0.634
12107W        W84532  34.516  12.096  13.047
12108W        W84533  37.328   1.960  12.396
12109W        W84534  33.418  10.231   4.872
12110W        W84535  32.463   6.210   2.532
12111W        W84536  30.636  33.846   2.153
12112W        W84537  29.673  17.485  11.540
12113W        W84538   7.666   4.431   0.049
12114W        W84539  44.418  40.020   2.973
12115W        W84540  10.740  20.061   2.078
12116W        W84541  27.682  12.306   1.901
12117W        W84542   7.423  27.270   2.793
12118W        W84543  24.736  41.828   0.512
12119W        W84544  39.851  38.916  14.193
12120W        W84545  29.423  36.588   3.438
12121W        W84546  37.895   7.598  11.657
12122W        W84547  17.107  35.383   4.221
12123W        W84548  12.143  25.064  12.451
12124W        W84549  40.277  11.167  13.902
12125W        W84550  12.161  43.000  11.565
12126W        W84551   9.735  30.222   3.210
12127W        W84552  22.485  44.054  13.752
12128W        W84553  35.503   3.624   3.691
12129W        W84554   5.642  32.590  14.823
12130W        W84555  21.091   9.716  12.993
12131W        W84556  35.467  23.065   4.556
12132W        W84557  10.235   3.435   1.238
12133W        W84558   3.508  33.692   3.303
12134W        W84559  14.039  16.625   0.673
12135W        W84560  39.131  35.495   3.205
12136W        W84561  12.276  20.227   4.497
12137W        W84562  38.503  35.628   4.067
12138W        W84563   6.369   3.714  10.630
12139W        W84564  35.172  32.041   0.772
12140W        W84565  33.656  18.465  12.062
12141W        W84566  24.505  27.705   1.844
12142W        W84567  27.755   3.424  14.460
12143W        W84568  30.985  38.581  12.885
12144W        W84569   2.898  14.933  12.191
12145W        W84570  33.876  10.505  13.539
12146W        W84571  39.287   7.319  14.985
12147W        W84572  10.830  15.708  12.989
12148W        W84573  21.084  17.608  10.482
12149W        W84574  40.041  34.370   4.511
12150W        W84575  15.587   6.969   2.547
12151W        W84576  14.819  30.212   2.261
12152W        W84577  42.790   6.223   3.341
12153W        W84578  21.158  24.939  11.808
12154W        W84579  16.806   5.681   2.095
12155W        W84580  11.709  13.776   3.275
12156W        W84581  27.965  34.180   2.255
12157W        W84582  39.416  41.823   3.311
12158W        W84583  44.819  14.282  11.882
12159W        W84584  11.441  41.783   1.820
12160W        W84585   5.424  17.678  13.583
12161W        W84586   8.801  35.323  10.739
12162W        W84587  32.686   4.606  11.072
12163W        W84588  28.013  25.198  12.442
12164W        W84589  25.116  30.167  12.006
12165W        W84590  15.815   0.521   4.380
12166W        W84591  11.270  24.652   4.198
12167W        W84592  22.364   7.928  13.403
12168W        W84593  13.352  32.534   4.741
12169W        W84594   9.938  29.541  14.849
12170W        W84595  44.916  31.608  11.693
12171W        W84596   3.936  10.927   3.745
12172W        W84597   2.355  41.849  10.710
12173W        W84598   9.671  26.636  11.577
12174W        W84599  32.503  27.812  12.080
12175W        W84600  32.910  40.003   4.061
12176W        W84601  44.843   7.059   1.716
12177W        W84602  38.846   0.420   2.479
12178W        W84603  44.529  35.605   3.092
12179W        W84604  22.429  22.581   3.230
12180W        W84605  11.148  10.935  13.114
12181W        W84606  17.561  37.647   0.353
12182W        W84607  33.097  22.377  14.298
12183W        W84608   3.443  10.813  14.244
12184W        W84609  13.646   7.686  14.559
12185W        W84610  44.120  24.868  11.095
12186W        W84611  28.044  27.062  13.929
12187W        W84612   7.830   1.793   0.955
12188W        W84613   1.656  14.495   4.186
12189W        W84614  12.691  33.899   3.802
12190W        W84615  31.737  39.434  12.419
12191W        W84616  41.859  25.428   4.571
12192W        W84617  38.512   5.524   2.846
12193W        W84618  30.322  16.078  11.679
12194W        W84619  15.339   2.368   5.738
12195W        W84620  22.012  22.466   4.609
12196W        W84621  32.925  12.284   0.246
12197W        W84622  25.883  19.694  14.314
12198W        W84623  32.132  12.685   0.440
12199W        W84624  33.608  28.991   3.277
12200W        W84625  36.703   3.483  14.819
12201W        W84626   7.976  42.497  12.065
12202W        W84627  35.890  11.016   3.821
12203W        W84628   0.685   2.463   3.717
12204W        W84629  24.683  11.207  14.874
12205W        W84630   4.227  20.602  12.862
12206W        W84631  15.739  35.497   4.105
12207W        W84632   4.663  34.462  12.430
12208W        W84633   0.739  43.981  13.977
12209W        W84634   2.264  10.075   4.470
12210W        W84635  24.925   1.487   3.407
12211W        W84636  27.640  31.055   3.143
12212W        W84637  12.768  24.052   4.221
12213W        W84638  21.478   5.035   4.127
12214W        W84639  34.971  27.059   4.956
12215W        W84640  43.089  32.852  13.870
12216W        W84641  14.659  32.116   2.319
12217W        W84642  26.966   9.574   0.016
12218W        W84643  36.825   1.287  14.983
12219W        W84644   9.579  34.486   0.925
12220W        W84645   4.839  40.330   3.996
12221W        W84646  43.190   5.743  10.190
12222W        W84647  19.028  32.619  11.554
12223W        W84648  12.100  11.414   1.370
12224W        W84649  33.146   6.707   1.534
12225W        W84650  31.079  32.194  13.132
12226W        W84651  44.312  30.254  14.596
12227W        W84652  10.809   3.690   0.593
12228W        W84653  18.248  19.786  10.644
12229W        W84654  23.452  21.735   1.243
12230W        W84655  33.503   5.854   1.528
12231W        W84656  44.489  26.421  14.684
12232W        W84657  40.108  23.500  12.203
12233W        W84658  18.822  11.120   0.531
12234W        W84659  29.841   1.696  12.599
12235W        W84660  14.718  34.610   0.267
12236W        W84661   7.147  27.174   0.455
12237W        W84662  10.231  23.719  13.507
12238W        W84663  15.834  39.804  13.875
12239W        W84664  17.156  20.610  12.055
12240W        W84665  16.081  24.784   2.185
12241W        W84666  34.367   7.083   4.572
12242W        W84667  26.470   8.080   3.723
12243W        W84668  14.522  34.996   4.327
12244W        W84669  11.355  44.003   4.146
12245W        W84670  29.658  25.974   4.625
12246W        W84671  41.800   0.826  11.580
12247W        W84672  33.592  25.617  11.454
12248W        W84673  12.737   2.774  12.590
12249W        W84674  32.120  23.004  11.689
12250W        W84675   5.394  32.312   0.213
12251W        W84676  12.845  24.142   0.224
12252W        W84677  34.667  27.528   2.234
12253W        W84678  16.092  33.565  11.933
12254W        W84679  24.506  28.005   0.284
12255W        W84680  42.544  36.635   0.875
12256W        W84681  12.928  36.418  14.202
12257W        W84682  35.697  44.738  14.354
12258W        W84683  14.463  27.907   3.863
12259W        W84684  20.705  19.146   1.681
12260W        W84685   6.157   9.816  12.005
12261W        W84686  43.308  33.983  13.301
12262W        W84687   0.753  23.639  13.944
12263W        W84688  11.696   9.241   2.210
12264W        W84689  26.793  17.753   2.181
12265W        W84690  38.016  20.690   3.803
12266W        W84691  38.084  44.960  10.544
12267W        W84692  25.226  36.439   2.366
12268W        W84693  21.394  38.603  13.890
12269W        W84694  37.925  38.815  11.606
12270W        W84695  14.704  12.159   0.739
12271W        W84696   9.168  41.040  11.554
12272W        W84697  24.024  35.624  10.282
12273W        W84698  17.223  43.080  14.798
12274W        W84699  42.743  20.683   2.243
12275W        W84700  21.919  19.935   2.672
12276W        W84701  40.768  27.093  14.785
12277W        W84702  21.770  15.409   5.056
12278W        W84703  29.718   4.884   0.575
12279W        W84704  16.235  24.538   3.568
12280W        W84705  13.862  14.613   1.792
12281W        W84706  24.690  27.671   1.324
12282W        W84707  18.595   3.791   4.723
12283W        W84708  40.785  23.007   3.251
12284W        W84709  38.441   6.184   4.172
12285W        W84710  19.219  39.310  13.753
12286W        W84711  13.809   8.894   4.086
12287W        W84712  28.287  15.344  12.059
12288W        W84713  23.615  23.989   1.897
12289W        W84714  14.543  43.782  11.905
12290W        W84715  34.850  18.650  14.824
12291W        W84716  37.229  31.717   0.002
12292W        W84717  28.971   4.696   2.677
12293W        W84718  12.398   1.376  11.603
12294W        W84719  11.783  21.646   5.649
12295W        W84720  12.695  28.671   2.850
12296W        W84721  42.828  26.573  13.611
12297W        W84722   6.661  34.519   0.279
12298W        W84723  42.079  18.566   2.865
12299W        W84724   0.394  12.625  13.519
12300W        W84725  42.841  18.506  11.453
12301W        W84726  28.520  20.511  14.574
12302W        W84727   4.380  31.713  11.331
12303W        W84728  17.846  15.237  13.310
12304W        W84729  33.704   5.385   0.894
12305W        W84730  10.190  36.284  13.812
12306W        W84731  44.720  40.557  11.480
12307W        W84732   7.806  43.632  14.572
12308W        W84733  43.063  41.696   4.185
12309W        W84734  19.073  32.018   2.499
12310W        W84735  31.243  33.587   0.320
12311W        W84736  26.615  19.420   3.411
12312W        W84737   5.708  10.956  10.645
12313W        W84738  35.860   7.053   4.856
12314W        W84739  37.555  39.544   3.157
12315W        W84740  21.602   1.116  12.180
12316W        W84741  22.451   5.797  11.161
12317W        W84742  25.144  16.636   0.366
12318W        W84743  15.072   2.601   9.642
12319W        W84744  12.851   7.490  14.882
12320W        W84745  22.706  17.603  13.434
12321W        W84746  31.343  42.829  14.580
12322W        W84747  22.229   4.699  12.148
12323W        W84748  14.696   4.467   1.352
12324W        W84749  19.217  18.371  14.324
12325W        W84750  14.016  15.603   5.133
12326W        W84751  11.297  26.514   2.499
12327W        W84752  31.999  18.298  13.814
12328W        W84753  30.476  29.048   2.369
12329W        W84754   5.029  35.975   2.029
12330W        W84755   4.222  44.348  13.802
12331W        W84756  39.928  11.492   0.476
12332W        W84757  43.222  42.844  14.736
12333W        W84758  24.426  33.773  14.372
12334W        W84759  26.948  38.959   4.044
12335W        W84760  34.145  34.365  12.465
12336W        W84761  42.214  16.815   0.952
12337W        W84762  11.813  22.656   1.255
12338W        W84763  24.208  19.988   4.764
12339W        W84764  38.602  43.427  11.732
12340W        W84765  38.132  32.035  12.025
12341W        W84766  11.790   8.901  11.546
12342W        W84767   6.497  10.932  14.956
12343W        W84768  15.537  36.925  13.961
12344W        W84769  32.003  23.776   0.926
12345W        W84770   7.288  36.450   4.137
12346W        W84771   1.386   9.830   1.785
12347W        W84772  16.651  31.190  14.325
12348W        W84773   8.951   1.294  11.493
12349W        W84774  29.058  22.810   4.284
12350W        W84775  15.876  29.651  13.858
12351W        W84776  37.614  32.985   1.331
12352W        W84777  14.392  25.500   4.255
12353W        W84778  23.271  20.913   4.179
12354W        W84779   9.716   0.762   1.417
12355W        W84780  12.934  23.476  12.810
12356W        W84781  43.801   6.314   1.443
12357W        W84782  22.515  19.457  10.828
12358W        W84783  29.625  20.684   3.637
12359W        W84784  25.158  36.050   0.947
12360W        W84785  34.600  20.697  11.443
12361W        W84786  26.784  23.004  10.552
12362W        W84787  21.098  19.756   2.629
12363W        W84788   5.372   1.864   2.655
12364W        W84789  20.244  30.999  13.310
12365W        W84790  25.219  23.595   4.294
12366W        W84791  27.080  17.553  14.311
12367W        W84792  23.292  20.107   1.867
12368W        W84793  20.065  28.465   3.384
12369W        W84794  12.863  18.667  11.081
12370W        W84795  13.914  17.100  11.102
12371W        W84796  25.010  12.300   0.398
12372W        W84797   0.463  10.142  10.922
12373W        W84798  44.163  27.189   2.466
12374W        W84799  15.039  34.348  13.426
12375W        W84800  20.513   9.832  11.855
12376W        W84801  34.544  16.137   0.572
12377W        W84802  27.042  20.780   1.707
12378W        W84803   3.378   4.700   3.724
12379W        W84804   5.284  12.604   1.629
12380W        W84805  22.596  37.502   4.777
12381W        W84806  15.229   0.765   1.208
12382W        W84807  21.834  30.403   2.087
12383W        W84808  19.942  20.039   2.698
12384W        W84809  28.496  22.245   4.472
12385W        W84810  12.789   2.006  13.306
12386W        W84811  40.633  29.775   2.770
12387W        W84812  22.748  31.076   3.255
12388W        W84813  42.677  41.938   1.691
12389W        W84814  28.766   0.119  12.036
12390W        W84815  41.540  32.119   1.814
12391W        W84816   5.840  32.045   3.331
12392W        W84817  20.464  11.148  13.820
12393W        W84818  41.224  13.281   3.495
12394W        W84819  33.569  31.330  10.593
12395W        W84820  26.908  32.606  12.510
12396W        W84821  16.477  17.501  11.194
12397W        W84822   6.946  14.661  14.708
12398W        W84823  28.639   4.431   1.356
12399W        W84824  15.089  31.293   4.667
12400W        W84825  38.462  28.570   2.711
12401W        W84826  26.379  36.791  11.629
12402W        W84827  37.052  17.311  14.374
12403W        W84828   9.716  27.032  14.616
12404W        W84829   9.699  41.924   3.439
12405W        W84830  32.597   5.325  13.352
12406W        W84831  21.115  31.973  11.944
12407W        W84832   5.893  13.310   1.897
12408W        W84833  16.071  19.541   1.591
12409W        W84834  32.610  21.357  14.863
12410W        W84835   0.814  40.246   2.110
12411W        W84836  39.367  42.983  10.836
12412W        W84837  24.256  14.354   2.921
12413W        W84838  39.419  40.445  10.665
12414W        W84839   9.611   4.957   4.848
12415W        W84840  17.275  21.134  14.799
12416W        W84841   5.619   8.753   4.740
12417W        W84842  12.749  38.786   1.808
12418W        W84843  20.638  19.850   1.376
12419W        W84844   9.984  42.367   4.895
12420W        W84845  19.893  42.014  12.354
12421W        W84846  37.469  42.007   4.751
12422W        W84847  26.513  34.187   2.456
12423W        W84848  25.676  44.283   3.350
12424W        W84849  17.286  28.129  12.508
12425W        W84850  16.943  28.688   4.655
12426W        W84851  18.175  39.971  10.969
12427W        W84852  22.146  14.591  11.606
12428W        W84853  22.469  40.699  10.637
12429W        W84854  16.600  16.304   0.936
12430W        W84855  40.165  39.775   3.315
12431W        W84856  35.928  30.194   2.250
12432W        W84857  10.850  14.557   0.759
12433W        W84858   5.336  15.482  10.219
12434W        W84859   5.951  43.401   1.773
12435W        W84860   4.794  26.489   0.145
12436W        W84861  20.176  35.932   2.413
12437W        W84862  43.362  18.153  13.518
12438W        W84863  25.669  37.025  13.447
12439W        W84864   5.850  39.769  14.794
12440W        W84865  12.313  44.621   0.639
12441W        W84866  11.019   5.318  13.830
12442W        W84867   8.388  40.896   1.794
12443W        W84868  35.054   1.734  12.120
12444W        W84869   5.418  40.266  12.964
12445W        W84870  36.484   7.006   3.981
12446W        W84871  25.552   8.153  11.651
12447W        W84872  38.834   4.377  13.552
12448W        W84873  33.920  25.715   3.373
12449W        W84874  37.305   2.972  12.641
12450W        W84875  20.302   3.860   1.641
12451W        W84876  29.417  29.926  11.487
12452W        W84877  19.552  21.999  13.156
12453W        W84878  43.765  41.578  11.065
12454W        W84879  21.686  41.955  11.849
12455W        W84880  10.389   2.472  12.329
12456W        W84881  15.022  17.852  12.611
12457W        W84882  33.403  26.256   4.198
12458W        W84883  42.425  28.567  14.617
12459W        W84884   0.022  24.859  11.199
12460W        W84885  14.881  33.141   5.413
12461W        W84886  25.253  39.787   3.225
12462W        W84887  20.503  25.103  10.694
12463W        W84888  22.908  12.860   4.717
12464W        W84889   2.224  40.921  13.459
12465W        W84890   4.190  32.006   3.562
12466W        W84891  21.275  35.086  11.441
12467W        W84892  26.428   4.814  14.616
12468W        W84893  28.147   5.548   2.599
12469W        W84894  29.541  38.091   1.702
12470W        W84895  42.478  26.326  10.668
12471W        W84896   4.376   8.291   1.199
12472W        W84897  26.613  17.634  10.437
12473W        W84898  34.469  36.073   2.667
12474W        W84899   2.976  10.262   3.360
12475W        W84900   6.356  11.751  14.749
12476W        W84901  31.371   4.865  10.662
12477W        W84902  43.679  13.039  14.489
12478W        W84903  23.712  31.506   4.915
12479W        W84904  39.019  21.341  14.252
12480W        W84905   1.748  33.481   1.204
12481W        W84906   2.309  20.136  12.297
12482W        W84907  26.541  29.960  13.591
12483W        W84908  32.467  18.090  13.717
12484W        W84909   7.748  10.468  10.841
12485W        W84910  29.947  29.026   2.300
12486W        W84911  34.766  38.406   2.767
12487W        W84912  26.172  30.842   1.233
12488W        W84913  16.266  29.407  10.957
12489W        W84914  18.169  34.912  13.443
12490W        W84915  12.101  36.067   4.336
12491W        W84916  14.008  40.018   3.713
12492W        W84917   1.688  17.749  13.603
12493W        W84918   8.645  34.634   1.415
12494W        W84919  17.517  10.087   3.580
12495W        W84920  25.613  11.262  14.322
12496W        W84921  35.950  15.188  13.846
12497W        W84922   2.595  29.200   1.350
12498W        W84923  26.178  29.962  13.993
12499W        W84924   1.412  36.339   0.444
12500W        W84925  41.940   5.934   1.567
12501W        W84926  25.601  24.938   2.409
12502W        W84927  34.891  10.131  11.462
12503W        W84928  19.775  18.656   3.786
12504W        W84929  18.615   5.743   3.879
12505W        W84930  11.341  18.503  13.027
12506W        W84931  10.806  35.538  11.657
12507W        W84932   7.975  36.536  10.534
12508W        W84933   4.906   2.273  10.593
12509W        W84934  37.220  39.760  11.168
12510W        W84935  32.482  34.344   2.278
12511W        W84936  29.027  15.540   4.604
12512W        W84937  20.561   3.718   0.339
12513W        W84938  16.372  23.573  10.963
12514W        W84939   1.846  22.948   4.943
12515W        W84940  23.649  27.978  14.322
12516W        W84941  16.702  27.553   4.289
12517W        W84942  42.118  23.730   1.716
12518W        W84943  31.667  41.452   2.223
12519W        W84944  44.078   7.272  12.869
12520W        W84945   0.607  36.992   0.353
12521W        W84946   1.813  41.124  12.439
12522W        W84947  42.864  31.789  11.953
12523W        W84948  24.220  38.456  14.252
12524W        W84949  25.458  35.922  12.502
12525W        W84950   0.708  44.545  12.019
12526W        W84951   8.370   0.231  12.152
12527W        W84952   1.754  20.166   2.251
12528W        W84953  38.480  39.052  13.581
12529W        W84954  37.058  36.646  11.242
12530W        W84955  14.926  13.347   2.896
12531W        W84956   8.328   6.384   3.247
12532W        W84957   4.180  19.042   0.312
12533W        W84958   7.722  33.917  12.476
12534W        W84959  34.534  17.042   2.399
12535W        W84960  21.047  31.047   3.447
12536W        W84961   6.538  17.932  10.022
12537W        W84962  16.874  28.143  13.471
12538W        W84963  24.174  17.662   4.220
12539W        W84964  41.384  40.425  14.282
12540W        W84965  36.524  38.844   3.150
12541W        W84966  28.714  22.144  14.356
12542W        W84967  27.491  40.387   0.236
12543W        W84968  24.922  36.431  12.495
12544W        W84969   0.311  30.949   1.794
12545W        W84970  22.940  22.644   4.487
12546W        W84971  11.802  23.946  12.903
12547W        W84972  39.615  10.554   3.644
12548W        W84973   7.190   4.113   4.460
12549W        W84974   2.826  44.885   2.062
12550W        W84975   0.293  19.750   0.302
12551W        W84976  35.102  29.521   3.741
12552W        W84977  42.432  29.318   2.895
12553W        W84978  34.033  36.390   3.430
12554W        W84979  29.323  39.259   0.314
12555W        W84980  27.732  16.051   0.768
12556W        W84981  44.525  34.598   0.456
12557W        W84982  11.402   7.318   0.002
12558W        W84983  15.820   9.629  14.395
12559W        W84984   6.702   7.283  12.751
12560W        W84985   3.518  27.090   3.281
12561W        W84986  16.738  15.120   0.457
12562W        W84987  26.514  17.119   1.318
12563W        W84988  23.651  17.560  12.136
12564W        W84989  42.518  23.653  14.435
12565W        W84990  24.504  41.733   0.058
12566W        W84991  27.453  35.980   3.665
12567W        W84992  14.247  18.001  14.529
12568W        W84993  16.575  43.768  12.244
12569W        W84994  19.676   2.225   1.306
12570W        W84995  35.561   1.243  12.665
12571W        W84996  13.171  20.375   2.168
12572W        W84997  10.847  38.892   1.764
12573W        W84998  29.619  41.285   2.379
12574W        W84999  13.862  31.175  13.957
12575W        W85000  19.834  18.321  13.298
12576W        W85001   6.467  40.320   3.860
12577W        W85002  41.801  14.823  12.380
12578W        W85003  28.909  11.298   4.031
12579W        W85004  33.874  31.110  14.602
12580W        W85005  34.626  44.833  11.011
12581W        W85006  15.225  43.070   3.298
12582W        W85007   3.343  29.082  11.983
12583W        W85008  38.294  17.989  10.751
12584W        W85009   5.483   0.294  10.733
12585W        W85010  39.574   3.859  11.087
12586W        W85011  11.166  29.173   1.872
12587W        W85012  27.533  26.614   0.195
12588W        W85013  41.981  21.673   2.656
12589W        W85014  23.865  44.040  12.659
12590W        W85015  26.106  19.124   2.010
12591W        W85016  32.809  33.620   4.393
12592W        W85017  34.458  24.569   3.149
12593W        W85018  40.998  40.708  11.181
12594W        W85019   0.774  34.028  10.081
12595W        W85020  36.408  18.261  14.373
12596W        W85021  15.170  28.853  14.060
12597W        W85022  19.749  41.564   4.208
12598W        W85023   3.429  21.682   0.545
12599W        W85024   2.879   9.635  12.519
12600W        W85025  30.932  28.183  14.871
12601W        W85026  21.999  16.621   0.178
12602W        W85027  28.710   0.803   2.277
12603W        W85028  11.890  25.689   1.342
12604W        W85029  34.294   8.848  13.826
12605W        W85030   7.532  25.131   2.324
12606W        W85031  21.998  13.399   0.267
12607W        W85032  20.966   1.920  11.918
12608W        W85033  13.286  31.179   0.204
12609W        W85034  35.794  43.804   3.692
12610W        W85035  27.066  33.800  12.385
12611W        W85036   8.925  31.229  10.685
12612W        W85037  12.299  40.069  12.126
12613W        W85038  36.035  43.545   0.567
12614W        W85039  31.660  43.545  12.813
12615W        W85040  33.160  24.293   0.460
12616W        W85041  37.858  19.281   1.230
12617W        W85042   4.865  26.995   3.258
12618W        W85043  43.141  28.550   4.678
12619W        W85044  31.955  27.818   4.375
12620W        W85045  41.098   3.297  12.533
12621W        W85046  42.670   7.322  14.484
12622W        W85047  30.334   0.998  13.016
12623W        W85048  30.119  42.063   0.897
12624W        W85049  43.840  30.402   1.913
12625W        W85050  15.163  29.236   2.328
12626W        W85051  44.782  39.610   3.184
12627W        W85052  31.153  23.698  13.125
12628W        W85053  15.120   1.738  14.752
12629W        W85054   7.255  15.526  14.763
12630W        W85055   2.945  17.153  10.752
12631W        W85056   5.718  43.509  13.900
12632W        W85057  19.167  26.006   2.077
12633W        W85058   6.457  23.954  11.616
12634W        W85059  17.177  35.130   0.880
12635W        W85060  44.371  41.920   1.881
12636W        W85061   0.765  22.483  12.055
12637W        W85062  40.373   0.914  10.702
12638W        W85063   3.790  17.726  14.787
12639W        W85064   1.665   1.617  11.922
12640W        W85065  22.201   6.743  14.990
12641W        W85066   6.748  24.020  10.515
12642W        W85067  38.807  42.481  10.027
12643W        W85068  33.071   0.010   1.743
12644W        W85069  35.439  16.750   1.370
12645W        W85070  27.928  37.487   4.639
12646W        W85071  15.562  38.504  10.546
12647W        W85072   9.174  18.053   2.241
12648W        W85073  13.154  19.071  10.982
12649W        W85074  29.261  10.697   4.296
12650W        W85075  38.188  15.650   4.832
12651W        W85076  28.124  12.580  12.604
12652W        W85077  39.435  41.195  14.862
12653W        W85078  32.474  14.108   3.337
12654W        W85079   0.529  36.487   3.271
12655W        W85080   6.013  29.387   0.379
12656W        W85081   5.894  32.141  11.044
12657W        W85082  28.534  43.565  12.629
12658W        W85083  23.975  19.947   1.375
12659W        W85084  43.228  29.437  13.323
12660W        W85085  12.095  16.858   1.839
12661W        W85086  19.020  23.335   2.310
12662W        W85087  26.107  16.217  10.690
12663W        W85088   3.880   5.318  14.555
12664W        W85089   7.982   5.710   0.829
12665W        W85090  35.114   3.506   0.867
12666W        W85091  18.137  22.682  10.585
12667W        W85092  40.266  37.508   4.076
12668W        W85093  38.580  27.943   1.594
12669W        W85094  43.475  26.505   2.739
12670W        W85095  38.689  42.362   4.580
12671W        W85096  23.691   3.826  14.309
12672W        W85097  41.268  15.084  12.088
12673W        W85098  27.117   7.463   4.093
12674W        W85099  44.972   3.858  12.833
12675W        W85100  38.328   2.685  14.484
12676W        W85101  44.708  22.194   4.792
12677W        W85102  18.580  15.186   3.785
12678W        W85103  12.179  18.235  14.859
12679W        W85104  34.704  37.469  11.956
12680W        W85105   2.836  30.086  13.457
12681W        W85106  30.840  30.435   1.465
12682W        W85107  26.398  34.485  14.814
12683W        W85108   1.251   2.629  14.305
12684W        W85109  11.203  42.893   1.447
12685W        W85110  27.696  27.502   1.802
12686W        W85111   6.617  26.567  10.606
12687W        W85112   2.152  32.512   2.736
12688W        W85113  20.131  12.710  13.032
12689W        W85114  20.182  10.798   4.664
12690W        W85115  15.097  33.861  13.676
12691W        W85116  42.800   1.698   1.921
12692W        W85117  18.304  22.597   1.296
12693W        W85118   7.946   6.777  12.173
12694W        W85119  20.123  34.839   3.189
12695W        W85120  43.458  16.462   2.744
12696W        W85121  35.455   6.916  14.858
12697W        W85122  25.610  28.600   2.263
12698W        W85123   6.767   7.188   4.395
12699W        W85124  42.650   9.423   1.866
12700W        W85125   5.294  17.087   0.337
12701W        W85126  16.333  41.956  12.450
12702W        W85127  43.989  25.746  11.488
12703W        W85128  27.544  33.057  14.948
12704W        W85129   7.774  39.280   2.889
12705W        W85130  19.737  12.763  11.691
12706W        W85131   1.980  21.244  10.940
12707W        W85132  15.148  31.700   3.429
12708W        W85133   1.731   0.866   4.676
12709W        W85134  42.963  24.859   3.635
12710W        W85135  33.999   1.963  12.767
12711W        W85136  21.986  33.037  10.761
12712W        W85137  39.529  27.686  10.613
12713W        W85138  33.134   8.775   2.888
12714W        W85139  41.562  16.734   0.396
12715W        W85140  43.073  25.031   4.122
12716W        W85141  41.974  42.922  12.296
12717W        W85142  23.996  28.940  13.856
12718W        W85143  13.560   2.439   4.164
12719W        W85144  38.801  27.503  11.228
12720W        W85145  25.129   3.332   1.924
12721W        W85146  18.101  35.923   2.543
12722W        W85147  16.530  30.810   3.667
12723W        W85148  34.972   0.830  10.475
12724W        W85149  20.582  34.601  11.240
12725W        W85150   2.866  42.508   1.077
12726W        W85151  13.260  25.606   3.427
12727W        W85152   1.680  11.664   3.358
12728W        W85153  15.403  27.121   4.149
12729W        W85154  36.583   6.888   3.233
12730W        W85155  26.123   5.333  12.631
12731W        W85156   2.568  29.062  12.437
12732W        W85157  36.024   0.248  13.586
12733W        W85158  26.351  38.350  12.848
12734W        W85159  27.981  32.170  10.608
12735W        W85160   5.793  35.970   3.394
12736W        W85161  37.806  44.640   0.960
12737W        W85162  31.159  38.972  14.819
12738W        W85163  15.666  25.839   1.499
12739W        W85164  21.002  13.183   1.973
12740W        W85165   2.519   4.784  14.254
12741W        W85166   4.827  21.398   4.968
12742W        W85167  39.008  20.585   4.778
12743W        W85168  30.135  14.787  12.019
12744W        W85169  16.098   3.546  13.423
12745W        W85170   9.883  35.462   0.921
12746W        W85171   9.222  31.689  14.938
12747W        W85172  43.301  31.102   2.183
12748W        W85173  33.647   9.609   0.850
12749W        W85174  38.114  13.104  11.548
12750W        W85175  37.146  31.745   3.681
12751W        W85176  27.538  11.297   3.964
12752W        W85177  35.454  17.042   3.868
12753W        W85178  10.939  28.234   2.817
12754W        W85179  43.573   5.726   5.001
12755W        W85180  44.770  21.222  11.409
12756W        W85181  37.102   4.007   2.367
12757W        W85182   3.748  21.055  12.341
12758W        W85183  36.390  31.864   0.377
12759W        W85184   2.321   8.409  12.200
12760W        W85185  30.376  10.840  13.004
12761W        W85186  22.073   6.252  13.252
12762W        W85187  28.541   1.109   4.902
12763W        W85188   0.570  19.213   1.204
12764W        W85189  32.219  39.828   1.855
12765W        W85190   5.718   4.896   2.414
12766W        W85191   5.792  38.063  13.911
12767W        W85192  43.786   6.775   0.963
12768W        W85193  13.365   9.373   1.281
12769W        W85194  41.386   2.269  12.927
12770W        W85195   0.587  35.513  13.844
12771W        W85196  39.889  22.416  14.112
12772W        W85197  17.759  18.118  14.707
12773W        W85198  43.394  11.696  13.677
12774W        W85199  13.185  32.137  11.121
12775W        W85200  10.158   3.885  13.081
12776W        W85201  22.416  41.871   1.786
12777W        W85202   5.991  42.107  12.109
12778W        W85203  35.899  16.549   1.258
12779W        W85204  43.604   0.545   2.875
12780W        W85205  25.364   2.169  12.506
12781W        W85206  36.950  44.902  14.844
12782W        W85207  29.219  20.139   0.290
12783W        W85208  31.879  44.973   2.902
12784W        W85209  17.726  40.078   3.658
12785W        W85210  35.150  26.173  13.566
12786W        W85211  13.133   0.749   0.960
12787W        W85212   3.390  37.121   4.611
12788W        W85213  40.167   8.690   3.711
12789W        W85214  14.704  34.121   3.557
12790W        W85215   4.260  43.991  10.717
12791W        W85216  36.080  21.733  10.949
12792W        W85217  18.293  24.440   4.555
12793W        W85218   7.611  35.394  14.942
12794W        W85219  43.241  32.057   3.749
12795W        W85220  11.440  39.424  12.422
12796W        W85221  21.913  18.498  12.467
12797W        W85222  40.915  14.818  10.662
12798W        W85223  40.499  44.813   3.633
12799W        W85224   9.171   5.026  12.055
12800W        W85225   5.752  43.510  11.651
12801W        W85226  18.670  10.666   2.328
12802W        W85227  17.015  36.539  12.857
12803W        W85228  30.966  42.518   4.297
12804W        W85229  21.663  14.349  10.703
12805W        W85230  15.782  23.589   4.195
12806W        W85231  42.050  38.572  10.940
12807W        W85232  22.238  15.238   3.218
12808W        W85233  26.596  26.669  13.276
12809W        W85234  26.211  12.393  14.211
12810W        W85235  32.282  42.968  12.527
12811W        W85236  12.143  10.565  12.396
12812W        W85237  35.217   7.617  14.353
12813W        W85238  32.981   1.678   0.409
12814W        W85239   4.194   5.345   3.232
12815W        W85240  34.656   4.942   2.706
12816W        W85241   8.182  12.317  14.587
12817W        W85242  24.941  35.018  13.578
12818W        W85243  30.697  13.173   4.663
12819W        W85244  38.150  29.814  10.801
12820W        W85245  11.780   7.594   1.675
12821W        W85246  14.828  24.966  14.313
12822W        W85247  19.994  32.162   9.955
12823W        W85248  32.447  38.769  14.909
12824W        W85249  41.546   7.959   0.782
12825W        W85250   5.942  17.053  10.974
12826W        W85251  30.742  32.423  12.584
12827W        W85252   3.137  14.792  10.394
12828W        W85253   0.369  37.884  13.074
12829W        W85254  19.626   4.883   0.446
12830W        W85255  38.247   0.749  14.355
12831W        W85256  27.181   3.487   4.296
12832W        W85257  41.471  28.307  12.626
12833W        W85258  17.698  26.613  14.992
12834W        W85259  19.611  36.549  14.888
12835W        W85260  19.494  29.164  12.124
12836W        W85261  43.235  12.833  14.122
12837W        W85262   4.709  31.415  11.656
12838W        W85263  11.551  37.611  11.198
12839W        W85264   4.177  33.635  13.010
12840W        W85265  33.625  14.071   4.418
12841W        W85266   9.598  26.568  14.396
12842W        W85267  11.155  31.744  11.071
12843W        W85268   1.773  30.850  10.770
12844W        W85269  38.181   5.811  11.951
12845W        W85270  36.937  33.366   1.745
12846W        W85271  21.447  29.185  14.343
12847W        W85272   9.859  17.229   4.886
12848W        W85273  16.172  36.288  14.327
12849W        W85274  21.254  14.898  11.462
12850W        W85275  42.343  10.131  14.850
12851W        W85276  27.378  15.591  13.993
12852W        W85277  41.947  38.293   3.424
12853W        W85278  42.804   3.324   3.404
12854W        W85279  37.560  11.446  12.017
12855W        W85280   9.033   8.117   1.458
12856W        W85281  17.765  26.601  11.943
12857W        W85282  33.993  16.268   3.699
12858W        W85283  27.442  28.446   3.432
12859W        W85284   1.883  17.762  12.006
12860W        W85285  40.847  21.249  14.226
12861W        W85286  26.492  40.283  12.761
12862W        W85287  23.389  27.361   0.894
12863W        W85288  28.176  23.108  13.776
12864W        W85289  12.016  15.605  13.033
12865W        W85290  15.071  33.510   2.314
12866W        W85291  16.677  14.897   4.167
12867W        W85292  41.462  29.513   0.895
12868W        W85293  41.322  23.278   0.926
12869W        W85294  37.499   9.661   2.315
12870W        W85295   5.168  14.762  10.934
12871W        W85296  22.707   3.475  11.520
12872W        W85297  20.734  27.970   1.901
12873W        W85298  13.567   9.283  11.477
12874W        W85299  11.584  32.627  11.054
12875W        W85300  29.341  10.820  13.118
12876W        W85301   8.289  21.109  14.746
12877W        W85302  26.930  11.886   3.354
12878W        W85303  12.836  40.070   0.307
12879W        W85304  22.043  44.861  13.430
12880W        W85305  39.223  19.579   2.281
12881W        W85306  43.730  13.561  14.516
12882W        W85307  23.573   1.685   2.392
12883W        W85308   1.363  24.040   4.735
12884W        W85309  31.920  19.784  11.537
12885W        W85310  43.560  11.164   1.146
12886W        W85311  25.200  36.434   3.350
12887W        W85312  28.143  40.897  13.976
12888W        W85313  42.861   4.111   2.888
12889W        W85314   6.268  40.401  12.410
12890W        W85315  12.679  16.774  12.304
12891W        W85316  35.589  18.618   0.694
12892W        W85317  38.038  20.329  10.785
12893W        W85318  42.775   4.275  11.672
12894W        W85319  26.264  25.656  14.498
12895W        W85320  14.616  27.128  12.173
12896W        W85321  35.017  34.616  13.589
12897W        W85322  17.566  35.575  13.841
12898W        W85323  40.946  35.136   0.001
12899W        W85324  41.434  17.128   1.782
12900W        W85325  43.362  16.257   4.769
12901W        W85326  31.100  19.124   1.839
12902W        W85327   5.720  37.503   0.689
12903W        W85328  18.170  34.639   3.982
12904W        W85329  44.667  29.618  11.560
12905W        W85330  15.794   1.654  11.976
12906W        W85331   3.981   4.512   2.654
12907W        W85332  17.099  21.097  11.208
12908W        W85333  27.449  38.760   1.784
12909W        W85334  40.574  17.967  12.571
12910W        W85335   4.299  33.068  14.007
12911W        W85336  43.559  38.362  12.548
12912W        W85337  17.749  43.203   1.252
12913W        W85338  33.877   8.627  14.020
12914W        W85339  17.578   3.736  13.021
12915W        W85340  41.544  14.860  14.937
12916W        W85341  16.975  41.869   4.323
12917W        W85342  19.008  21.585   0.966
12918W        W85343   8.688  21.641   2.794
12919W        W85344  33.158  23.772   4.775
12920W        W85345  26.968  34.961   1.397
12921W        W85346  38.967   6.635   3.612
12922W        W85347   0.085  28.148   1.496
12923W        W85348   3.146   6.409  14.880
12924W        W85349   3.374  37.066   4.102
12925W        W85350   0.873   8.943   0.401
12926W        W85351  17.003   8.774  11.170
12927W        W85352  12.661  22.744   4.702
12928W        W85353   3.931  36.827  10.902
12929W        W85354  32.443  42.442  14.803
12930W        W85355   1.516  15.343  11.105
12931W        W85356  27.265  37.812  14.275
12932W        W85357  16.138   3.247  10.767
12933W        W85358  26.927  21.910  11.564
12934W        W85359  27.420  31.447   9.668
12935W        W85360   0.739   3.918   1.707
12936W        W85361  43.999  34.547   5.015
12937W        W85362   5.289  28.237  14.807
12938W        W85363  15.786  30.560   0.568
12939W        W85364  43.224  32.647   2.860
12940W        W85365  27.465  15.069  14.750
12941W        W85366   0.985   5.827  12.019
12942W        W85367  17.744  44.949  13.010
12943W        W85368  35.295   5.793   1.830
12944W        W85369  10.971  30.962   3.578
12945W        W85370  42.375  42.252  13.981
12946W        W85371   6.665  41.570  12.571
12947W        W85372  17.978  25.656   2.604
12948W        W85373  33.020  39.970   3.562
12949W        W85374  31.121  39.576  10.183
12950W        W85375  28.459  42.974   3.748
12951W        W85376  14.411  32.096  11.985
12952W        W85377  33.549  21.992   2.404
12953W        W85378  10.889   9.070   0.419
12954W        W85379   0.546  16.963  11.949
12955W        W85380  27.054   5.991  11.568
12956W        W85381  20.332  39.784  12.067
12957W        W85382  10.224   1.476   4.544
12958W        W85383   4.785   2.012   3.460
12959W        W85384  20.504  21.067  12.021
12960W        W85385   9.268  19.026  10.612
12961W        W85386  43.369  30.941   0.244
12962W        W85387  40.767  25.200  12.622
12963W        W85388   2.161  32.445   4.106
12964W        W85389  13.265  42.297   1.867
12965W        W85390   6.347  32.874  11.183
12966W        W85391  33.551   3.802   3.392
12967W        W85392  26.537  32.696   2.450
12968W        W85393  40.369  21.091  14.506
12969W        W85394  25.242  11.645  13.432
12970W        W85395  35.489  26.960   4.513
12971W        W85396   7.369  43.400  11.025
12972W        W85397   2.501  35.198   5.142
12973W        W85398  34.109  18.897  11.067
12974W        W85399  33.822  19.644   3.231
12975W        W85400  44.861  14.229   1.920
12976W        W85401  31.954  16.579   2.650
12977W        W85402   5.260  14.555  14.335
12978W        W85403  13.671  44.964   3.302
12979W        W85404  37.162  26.356   3.623
12980W        W85405  42.305  16.229   0.955
12981W        W85406  17.773  29.375   3.751
12982W        W85407  32.540  27.064   0.409
12983W        W85408   4.140  36.078   0.975
12984W        W85409  35.980  18.356   0.903
12985W        W85410  14.706   1.421   0.371
12986W        W85411  39.942  44.414   3.736
12987W        W85412  29.309   1.054  14.010
12988W        W85413  36.426  44.460  14.855
12989W        W85414  39.852  12.871  14.915
12990W        W85415  14.243  31.373   0.507
12991W        W85416  33.824  20.973  14.124
12992W        W85417   1.219   6.325   3.339
12993W        W85418  10.740  25.091   3.641
12994W        W85419   1.465  25.008  10.691
12995W        W85420  35.979   4.813  11.606
12996W        W85421  15.277  27.390  12.671
12997W        W85422  42.397  44.359   4.698
12998W        W85423  34.119  23.658   2.188
12999W        W85424  24.492  15.362  13.970
13000W        W85425  10.179  10.556   1.164
13001W        W85426  11.831  34.848   0.969
13002W        W85427  35.592  26.257  11.087
13003W        W85428   4.717  26.785  10.722
13004W        W85429  38.446   3.002   3.530
13005W        W85430  19.970  21.091  11.977
13006W        W85431  40.611   9.765  12.060
13007W        W85432  43.446  22.938  13.021
13008W        W85433  18.109  23.471  13.491
13009W        W85434   3.847  24.932  12.552
13010W        W85435  19.159  34.763   4.641
13011W        W85436  37.908  43.216  10.272
13012W        W85437  40.007  40.355  10.601
13013W        W85438  21.790  17.254  10.627
13014W        W85439  32.662   6.337  12.908
13015W        W85440  36.779   5.610   4.578
13016W        W85441  11.780  11.692  14.408
13017W        W85442  11.403  23.404   0.918
13018W        W85443  14.215  25.766  14.452
13019W        W85444  42.923  19.864  10.873
13020W        W85445  39.433  10.754  10.899
13021W        W85446   4.150  19.008   2.574
13022W        W85447   1.000   2.518   3.320
13023W        W85448  44.362  35.916  13.069
13024W        W85449  23.984  22.775  12.600
13025W        W85450   4.740  14.230  14.935
13026W        W85451  15.675  40.557  11.891
13027W        W85452   7.272  38.034   2.250
13028W        W85453  25.518   8.713  12.925
13029W        W85454  37.474  33.611  14.618
13030W        W85455  12.443  10.303   3.174
13031W        W85456   7.492  25.105   1.394
13032W        W85457  31.140  13.303  12.516
13033W        W85458  25.505  40.872   4.276
13034W        W85459  31.890  33.409  13.683
13035W        W85460   6.879  33.969   4.464
13036W        W85461   1.053  13.585  13.205
13037W        W85462  34.098  39.818  12.487
13038W        W85463  35.104   8.269  12.420
13039W        W85464   5.082   3.196   2.182
13040W        W85465  37.826  28.466  12.590
13041W        W85466  29.818  43.949   0.847
13042W        W85467  41.033  15.650  14.710
13043W        W85468  31.584  42.933  12.079
13044W        W85469  43.916  29.976   0.966
13045W        W85470  13.672   1.834   1.661
13046W        W85471  29.951  43.197  13.263
13047W        W85472   7.757  17.128  12.966
13048W        W85473  11.757   8.203  13.335
13049W        W85474   4.962  16.042  10.448
13050W        W85475  25.708  25.686   1.615
13051W        W85476  15.874  28.458  13.411
13052W        W85477  33.705   2.933   4.590
13053W        W85478  24.445  25.063   1.415
13054W        W85479  38.508  27.588  12.993
13055W        W85480  12.690  39.114  10.750
13056W        W85481  29.666  35.488  14.790
13057W        W85482  34.063  11.474  14.489
13058W        W85483  36.560  14.470  11.624
13059W        W85484  21.787  32.378  10.569
13060W        W85485   7.790   1.046   4.122
13061W        W85486  41.267  16.648   1.871
13062W        W85487  42.953  11.662  10.968
13063W        W85488   8.533  40.130   1.471
13064W        W85489  36.866  28.438   2.239
13065W        W85490  22.244   9.961  13.917
13066W        W85491  28.206  36.949   1.876
13067W        W85492  23.687  24.604  13.854
13068W        W85493  15.052   9.039  13.038
13069W        W85494  37.654  31.598  14.724
13070W        W85495  43.540  28.313   2.359
13071W        W85496  34.939  30.686  10.652
13072W        W85497   9.979  23.120   0.851
13073W        W85498   3.323   4.707   0.656
13074W        W85499  42.992  31.493  13.314
13075W        W85500  29.002  13.914  11.058
13076W        W85501  19.798  29.031   2.359
13077W        W85502  17.869  18.996   0.871
13078W        W85503  10.456  21.812  11.054
13079W        W85504  15.716  15.290   2.725
13080W        W85505   5.434  16.316  14.832
13081W        W85506  20.722  39.059   2.693
13082W        W85507   9.857   2.605   0.769
13083W        W85508  31.123  28.855  11.897
13084W        W85509  16.340  16.830   3.578
13085W        W85510  21.318  30.490   0.278
13086W        W85511  37.406  29.011   3.156
13087W        W85512   1.304   4.812   1.628
13088W        W85513  43.753  38.870   0.855
13089W        W85514   0.259  34.549  14.879
13090W        W85515  43.355  13.947   1.848
13091W        W85516  33.430  27.722   0.431
13092W        W85517   3.797  19.013   1.710
13093W        W85518   1.554  20.653   2.314
13094W        W85519  27.761  44.854   2.833
13095W        W85520  42.498  31.608  13.509
13096W        W85521  11.008   8.226   3.630
13097W        W85522  14.578  25.044   0.836
13098W        W85523  27.937  30.924  13.991
13099W        W85524  25.286  22.009  10.756
13100W        W85525  34.737  24.247  12.056
13101W        W85526  21.109  22.175  14.019
13102W        W85527  31.613  29.875   3.542
13103W        W85528   7.388   1.961  11.652
13104W        W85529  36.899  30.986  14.064
13105W        W85530  20.712  28.638  12.849
13106W        W85531   8.671  24.165   4.265
13107W        W85532   5.913  19.910  11.528
13108W        W85533   3.548  36.457  13.627
13109W        W85534  41.488  20.535   4.156
13110W        W85535  15.180  30.509  12.122
13111W        W85536  39.813  43.818  12.923
13112W        W85537  22.149  12.589   0.674
13113W        W85538  33.676  34.817   4.203
13114W        W85539  35.571  27.444   1.779
13115W        W85540   2.276  32.457  10.670
13116W        W85541   6.202  12.205   0.445
13117W        W85542  31.625  36.582   0.447
13118W        W85543  34.557   8.954  10.750
13119W        W85544  16.259  28.414  14.339
13120W        W85545  38.439   0.735   0.347
13121W        W85546  28.172  13.103   1.495
13122W        W85547  20.744  30.080   4.629
13123W        W85548  17.838   0.443  13.054
13124W        W85549  43.043  34.578  11.545
13125W        W85550   6.939  37.927  14.885
13126W        W85551  18.802  30.088   1.354
13127W        W85552  42.593  40.378   0.893
13128W        W85553  24.030   4.827   2.387
13129W        W85554  18.798  41.227   1.760
13130W        W85555  35.130  42.449  11.938
13131W        W85556  36.940  18.194  14.281
13132W        W85557   0.564  18.343   9.674
13133W        W85558  42.325   2.753  14.311
13134W        W85559  15.552  15.094  11.215
13135W        W85560   0.666  32.088  10.233
13136W        W85561   9.090  17.716   3.143
13137W        W85562  10.375  22.119   2.128
13138W        W85563  28.138  23.405  12.104
13139W        W85564  26.608  14.389  12.443
13140W        W85565  24.648  12.701   3.565
13141W        W85566  41.086  29.420  14.805
13142W        W85567  23.492  35.193   4.167
13143W        W85568  23.223  14.236   4.113
13144W        W85569  35.398  13.088  12.971
13145W        W85570  24.010   2.368   4.539
13146W        W85571  31.344   1.197   1.714
13147W        W85572  19.548  36.347   1.741
13148W        W85573  17.300  16.748   2.356
13149W        W85574   4.952  37.013   3.396
13150W        W85575  41.336  17.566  11.168
13151W        W85576  29.735  16.500  12.478
13152W        W85577  34.085  33.527  14.107
13153W        W85578   1.070  31.955   5.037
13154W        W85579  19.116   8.002   3.058
13155W        W85580   8.357  43.594  11.602
13156W        W85581   3.343  16.558   2.598
13157W        W85582   1.726   5.786   0.761
13158W        W85583  34.453   3.752  12.063
13159W        W85584   2.854  18.528   4.350
13160W        W85585  30.056  41.089  12.388
13161W        W85586   2.790  11.332  10.604
13162W        W85587  44.273  21.786  14.002
13163W        W85588  11.363  44.437   0.775
13164W        W85589  41.747  34.191   4.264
13165W        W85590  35.415  25.581   1.216
13166W        W85591  43.306  36.810  11.709
13167W        W85592  35.103   1.499  13.432
13168W        W85593   5.641  30.429   3.082
13169W        W85594  11.489  43.511   0.498
13170W        W85595  14.660  26.583   1.640
13171W        W85596  13.553  35.870   3.752
13172W        W85597  28.476   8.559  10.455
13173W        W85598  41.970  36.511   2.062
13174W        W85599  11.227  30.168   0.375
13175W        W85600  20.486  13.230   1.886
13176W        W85601  17.016  10.758  13.069
13177W        W85602  18.549  31.904   0.692
13178W        W85603  28.291   6.373  11.615
13179W        W85604  36.965  11.997   1.157
13180W        W85605   8.696  17.519  14.009
13181W        W85606   0.309  35.960   4.237
13182W        W85607  10.353  24.092  11.780
13183W        W85608   4.434   9.911   4.604
13184W        W85609  38.975  20.277  10.970
13185W        W85610  17.856  28.237  13.882
13186W        W85611  11.750  15.026  11.090
13187W        W85612  23.774  42.694   1.029
13188W        W85613  10.743  29.360  13.970
13189W        W85614  21.025   5.977   5.039
13190W        W85615  39.953  33.408   2.240
13191W        W85616  23.068   2.023  14.814
13192W        W85617  32.031  34.239  11.678
13193W        W85618  11.149   4.314   2.064
13194W        W85619  17.593   0.822  13.261
13195W        W85620  32.633  11.162   4.078
13196W        W85621   7.041  26.246  13.585
13197W        W85622   9.987  26.013   1.322
13198W        W85623   2.049  18.049  12.413
13199W        W85624  42.395  24.139   4.512
13200W        W85625  14.822   0.066  10.622
13201W        W85626  31.046  28.084  10.737
13202W        W85627   3.275  16.849   1.311
13203W        W85628  40.427  37.291  13.886
13204W        W85629   4.269  19.773   0.040
13205W        W85630  30.378  40.764  10.632
13206W        W85631  44.015  21.267   0.655
13207W        W85632   2.945  34.101  10.860
13208W        W85633   7.500  31.361   2.373
13209W        W85634  24.588  31.610  10.423
13210W        W85635  15.494  27.863   0.387
13211W        W85636   3.068  38.901   4.677
13212W        W85637  13.904   7.327  11.488
13213W        W85638  23.728  34.117  14.676
13214W        W85639   6.662  10.343  13.910
13215W        W85640  24.733  20.055  11.500
13216W        W85641  42.624   3.441  12.117
13217W        W85642   1.005  30.588  11.205
13218W        W85643  11.879  16.171   1.202
13219W        W85644  19.849  27.860   1.848
13220W        W85645   4.714  41.850   3.211
13221W        W85646  17.391  28.029  13.488
13222W        W85647  27.647  28.521  12.923
13223W        W85648  24.744  28.630   1.625
13224W        W85649  43.989  36.875  14.506
13225W        W85650  43.279  13.223   2.286
13226W        W85651   5.444  37.999  11.654
13227W        W85652  42.976  35.616   2.362
13228W        W85653  38.032  26.619  10.983
13229W        W85654  42.897  22.619  11.110
13230W        W85655  32.127  29.754   0.321
13231W        W85656  14.656  21.123  10.265
13232W        W85657  30.016  42.219   2.051
13233W        W85658  30.896   0.432  14.699
13234W        W85659   2.997  23.284   2.193
13235W        W85660  13.254  25.992   0.675
13236W        W85661  28.124  22.237  10.838
13237W        W85662  10.322  23.458   2.586
13238W        W85663   2.549  41.535   0.829
13239W        W85664  32.849  17.256   3.875
13240W        W85665  15.064  13.802   2.367
13241W        W85666  25.077  12.668   3.951
13242W        W85667   2.305  24.039   4.632
13243W        W85668  35.400  19.558  11.130
13244W        W85669  13.987  18.251   1.375
13245W        W85670  42.094  20.303   4.704
13246W        W85671  21.611  23.401   1.824
13247W        W85672  13.704  39.144   1.878
13248W        W85673  33.552  16.661   4.555
13249W        W85674  40.092  32.494   4.692
13250W        W85675  34.367   1.555  11.580
13251W        W85676  18.201  16.308  13.533
13252W        W85677  35.425  24.410   4.152
13253W        W85678   0.938   3.716   2.178
13254W        W85679  14.681   2.023   1.464
13255W        W85680   6.459  18.244   1.235
13256W        W85681  39.350   5.727   4.027
13257W        W85682   5.872  18.133  12.042
13258W        W85683  30.378  38.359   3.225
13259W        W85684  21.379  25.167   0.553
13260W        W85685  44.526  27.638   1.730
13261W        W85686  40.630  10.789  12.966
13262W        W85687  36.121  39.863   1.841
13263W        W85688   7.649  28.932  14.955
13264W        W85689  19.146   9.788  14.200
13265W        W85690  31.661   1.330   3.931
13266W        W85691  31.763  42.756  12.535
13267W        W85692  12.634  37.807  10.729
13268W        W85693  27.659  22.997  11.518
13269W        W85694  13.855  34.433  12.522
13270W        W85695  19.729  16.849   1.479
13271W        W85696  28.980  38.685  11.245
13272W        W85697  12.157  32.848  12.839
13273W        W85698  29.043   5.142   3.996
13274W        W85699  32.904   5.717   4.125
13275W        W85700   0.892  23.109  13.864
13276W        W85701  34.692  18.549   3.254
13277W        W85702  32.647  24.234   0.413
13278W        W85703   4.794   3.307   4.742
13279W        W85704   7.749  10.744  13.061
13280W        W85705  22.082  36.136  13.301
13281W        W85706  35.548  41.077   4.197
13282W        W85707  34.375  40.113   3.778
13283W        W85708  20.795   7.406  11.702
13284W        W85709  38.612  36.286   0.364
13285W        W85710  40.923  32.235   4.113
13286W        W85711  29.500  21.489   5.521
13287W        W85712  11.743  42.218   2.357
13288W        W85713  18.828  37.994   1.783
13289W        W85714  41.435  24.900  13.928
13290W        W85715  26.795   0.495  13.257
13291W        W85716   2.366  26.850   3.807
13292W        W85717  11.640   8.823   1.934
13293W        W85718  20.841  37.534   4.628
13294W        W85719  35.564  43.524   1.802
13295W        W85720  13.135  43.571   3.708
13296W        W85721  17.842   0.917  13.734
13297W        W85722  13.233   3.384  12.935
13298W        W85723   7.881  36.086  10.202
13299W        W85724  17.215  20.195  13.290
13300W        W85725  14.760  31.666  13.099
13301W        W85726  21.634  31.865  10.663
13302W        W85727   3.455   5.341  12.397
13303W        W85728  24.986  27.639  10.673
13304W        W85729  35.369   7.805  13.106
13305W        W85730  32.569  33.885  12.881
13306W        W85731  12.197  32.511  14.466
13307W        W85732  25.213  19.483  12.051
13308W        W85733  41.084  25.247   3.163
13309W        W85734  42.104  38.903  12.529
13310W        W85735  21.164  38.850   0.649
13311W        W85736  28.968  30.682   0.341
13312W        W85737  11.217  35.608   3.416
13313W        W85738  36.343  11.144   3.119
13314W        W85739  18.253   1.831  14.448
13315W        W85740  35.352  31.130  11.913
13316W        W85741  35.090  31.826   5.007
13317W        W85742  36.909  14.089   1.760
13318W        W85743  18.402  11.032   0.222
13319W        W85744   0.045  42.990  12.129
13320W        W85745  11.342  19.305  10.896
13321W        W85746  10.726  41.586  13.016
13322W        W85747  12.356  13.578  11.642
13323W        W85748  42.245   4.122   1.406
13324W        W85749  22.850  15.067   0.406
13325W        W85750  16.719  12.309  14.494
13326W        W85751   9.378  15.714   1.536
13327W        W85752  40.826  39.409   3.012
13328W        W85753  33.489  23.162  14.885
13329W        W85754   4.696  17.024   2.147
13330W        W85755   6.091  12.053  10.420
13331W        W85756  21.803   2.014  14.436
13332W        W85757  24.163  24.980  12.038
13333W        W85758  39.821  41.231   1.311
13334W        W85759  11.886  29.439  10.713
13335W        W85760  20.083   8.510   5.208
13336W        W85761  13.256  35.798  11.488
13337W        W85762   4.455   4.132   0.375
13338W        W85763  34.016  11.250   0.959
13339W        W85764  43.181  28.627  11.574
13340W        W85765  41.392  24.446  12.500
13341W        W85766  11.686  13.531  11.058
13342W        W85767  40.229  26.214  14.792
13343W        W85768  40.754  40.433   2.590
13344W        W85769  17.592  12.774  14.320
13345W        W85770  19.293  29.635  11.944
13346W        W85771  13.715  15.346   4.816
13347W        W85772   4.917  10.745  11.128
13348W        W85773  31.060  23.729  12.425
13349W        W85774  39.553  22.107   1.724
13350W        W85775   0.079  35.394  11.201
13351W        W85776  40.181  22.980  11.130
13352W        W85777   7.701  16.611   1.620
13353W        W85778  31.647  25.467  10.922
13354W        W85779   8.205   3.280   1.002
13355W        W85780  21.771  44.413  13.448
13356W        W85781  23.024  39.261  11.605
13357W        W85782  12.463  44.041   3.316
13358W        W85783  29.133  36.248  14.370
13359W        W85784  30.605  39.044   4.463
13360W        W85785  44.439   5.703   3.250
13361W        W85786  36.923  16.817   1.402
13362W        W85787   6.306   0.291   2.844
13363W        W85788  10.091  33.462   1.722
13364W        W85789  43.457   0.810  12.510
13365W        W85790  34.937  12.231   4.678
13366W        W85791  27.497  20.499  13.908
13367W        W85792  11.047  36.894   2.183
13368W        W85793  32.972   0.703  12.437
13369W        W85794   9.719  39.382  10.566
13370W        W85795  21.769  16.715  12.665
13371W        W85796  36.353  17.933  12.887
13372W        W85797  33.655  11.661   2.650
13373W        W85798  23.059  38.839   0.212
13374W        W85799  32.174  23.190   4.735
13375W        W85800  17.728  20.741   0.378
13376W        W85801  20.016  10.090  12.119
13377W        W85802  40.935  11.702   1.538
13378W        W85803  17.652  38.963   3.613
13379W        W85804  27.167  38.281   1.433
13380W        W85805  35.862  32.465  10.690
13381W        W85806  20.487   5.655  11.541
13382W        W85807   3.414  40.092  13.626
13383W        W85808  30.936  10.618   1.297
13384W        W85809  23.062  16.714  10.583
13385W        W85810  41.795  36.311  13.146
13386W        W85811  36.835  34.388   3.624
13387W        W85812   7.364  18.601   2.183
13388W        W85813   9.806  14.335   3.650
13389W        W85814  11.252  25.215   0.254
13390W        W85815  26.273  29.587   3.332
13391W        W85816  43.670  33.750  12.471
13392W        W85817  15.085  42.335  10.679
13393W        W85818  32.878  13.221  14.810
13394W        W85819   7.668  38.292   2.608
13395W        W85820  12.818  26.971  12.294
13396W        W85821  30.179  41.324  13.801
13397W        W85822  44.895   3.261   3.701
13398W        W85823   5.614  35.080   4.578
13399W        W85824  12.127  26.227   2.165
13400W        W85825   4.888  10.898  11.632
13401W        W85826  15.520  42.667   0.891
13402W        W85827  29.185  30.539  11.459
13403W        W85828  41.990  40.814   4.443
13404W        W85829  36.867  13.789   0.020
13405W        W85830   4.728  27.549   2.412
13406W        W85831   0.972  34.635   2.755
13407W        W85832  25.011  12.120   1.322
13408W        W85833   2.244  37.677   2.415
13409W        W85834   7.401   0.027  13.067
13410W        W85835  17.270  37.126   0.964
13411W        W85836  43.074  18.708   2.920
13412W        W85837  26.452  41.498  11.157
13413W        W85838  39.188  26.866   3.676
13414W        W85839  33.873  36.615   1.725
13415W        W85840  27.729  27.709   4.882
13416W        W85841  36.391   5.711   3.818
13417W        W85842  12.885  28.427   2.400
13418W        W85843  17.856  24.728   3.313
13419W        W85844   9.259  13.526   2.321
13420W        W85845  43.413  20.991  14.297
13421W        W85846  11.381  41.367  13.300
13422W        W85847  33.924  43.826   2.154
13423W        W85848  38.237  40.271   1.396
13424W        W85849  44.266   2.741   0.936
13425W        W85850  21.297  27.748  14.741
13426W        W85851  28.084   8.697   1.043
13427W        W85852  32.536  25.635  13.346
13428W        W85853   3.990  25.554   3.687
13429W        W85854  17.143  12.659   4.876
13430W        W85855  39.020  34.862   1.850
13431W        W85856  37.946  20.987   1.230
13432W        W85857   6.630   0.941  11.100
13433W        W85858  39.913  24.187  14.339
13434W        W85859   0.610  36.248   4.571
13435W        W85860  17.978  24.460   2.883
13436W        W85861  16.871  26.872  13.883
13437W        W85862  17.898  40.776   4.098
13438W        W85863  13.328   4.709  13.664
13439W        W85864  10.816  10.269   2.406
13440W        W85865   7.229   1.802  14.740
13441W        W85866  39.805   7.184  12.568
13442W        W85867  18.827   1.170  14.558
13443W        W85868  15.371  20.741  14.858
13444W        W85869  38.771  20.117   4.675
13445W        W85870  27.241  23.250  10.525
13446W        W85871  40.055  24.873   0.761
13447W        W85872  41.620  42.395   0.938
13448W        W85873  20.805  15.881   3.683
13449W        W85874  24.535  12.388   2.214
13450W        W85875   1.216   4.280   1.299
13451W        W85876   3.622  11.504  13.427
13452W        W85877  41.603   8.208  12.596
13453W        W85878  25.008  31.531   1.705
13454W        W85879  11.132  15.759   0.879
13455W        W85880  34.302  42.530   1.346
13456W        W85881  42.534   0.364  12.493
13457W        W85882  11.864  34.411   1.247
13458W        W85883  19.839  33.931  11.226
13459W        W85884  23.195  32.564   1.919
13460W        W85885  43.265  21.923  11.352
13461W        W85886   3.486  25.583   3.835
13462W        W85887   5.043  43.382   0.971
13463W        W85888  30.088  10.835  14.277
13464W        W85889   6.262  18.020   0.259
13465W        W85890  20.667  20.021   2.417
13466W        W85891  12.711  26.280  12.954
13467W        W85892  41.254  14.396  11.583
13468W        W85893  41.130  26.631   2.201
13469W        W85894  38.229  18.250  11.585
13470W        W85895  18.033   6.909   0.579
13471W        W85896  19.577  30.536  14.332
13472W        W85897  30.848  35.889   1.269
13473W        W85898  19.535  44.216   2.356
13474W        W85899  20.620   0.541   2.067
13475W        W85900  16.672  23.177   2.884
13476W        W85901  24.435  43.760  14.054
13477W        W85902  43.970   7.221  10.604
13478W        W85903  13.129  10.664   2.103
13479W        W85904  29.057  35.659   1.066
13480W        W85905  26.942   7.740  14.967
13481W        W85906  13.860  12.194  13.431
13482W        W85907  34.205  34.059  10.757
13483W        W85908  42.826  10.160  14.641
13484W        W85909  22.669  38.475  11.454
13485W        W85910  20.255  36.171   0.420
13486W        W85911   2.568   0.451  11.154
13487W        W85912  24.300  38.917  14.485
13488W        W85913  43.566  38.060  11.912
13489W        W85914  23.566  10.455  14.433
13490W        W85915  23.704  36.283  14.035
13491W        W85916  15.715  44.732   3.410
13492W        W85917   4.889  16.298   3.846
13493W        W85918  10.139  38.967  13.907
13494W        W85919  20.463   2.451  10.441
13495W        W85920  43.405   2.144  14.568
13496W        W85921  30.170  30.181   3.446
13497W        W85922  23.107  31.493   0.209
13498W        W85923  10.379  21.625  14.918
13499W        W85924  44.595  36.042   1.852
13500W        W85925  14.195  39.379  12.932
13501W        W85926  25.558  41.464  11.657
13502W        W85927  37.449  39.432  12.084
13503W        W85928  27.021  28.571  10.627
13504W        W85929  19.937  21.286   3.653
13505W        W85930  15.036  38.082  13.891
13506W        W85931  10.892  43.747  11.099
13507W        W85932  34.523  25.675  10.478
13508W        W85933   4.966  25.612   3.758
13509W        W85934   5.561  32.325   4.535
13510W        W85935  11.390  39.576  11.908
13511W        W85936  38.841   4.195   0.430
13512W        W85937  15.488  34.595  13.506
13513W        W85938  26.991  23.707  11.639
13514W        W85939   8.210  44.796  11.207
13515W        W85940  44.372  39.045  14.271
13516W        W85941   1.462  26.982  11.659
13517W        W85942  41.613  36.902  10.730
13518W        W85943   9.394   1.458  11.697
13519W        W85944  15.213  38.404   4.587
13520W        W85945  43.986   5.893   4.690
13521W        W85946  10.346  13.339   0.218
13522W        W85947  23.074  32.340  12.463
13523W        W85948  17.306  43.302   3.881
13524W        W85949  19.012   5.442  12.542
13525W        W85950  15.464  23.038   0.374
13526W        W85951   9.828  14.896  13.082
13527W        W85952  26.076   8.334  11.577
13528W        W85953  38.775  20.672   1.309
13529W        W85954  14.777  24.532   2.890
13530W        W85955  23.171  17.529  12.020
13531W        W85956  38.380   9.824   3.633
13532W        W85957  36.564   5.880   3.339
13533W        W85958  40.351  21.011   2.313
13534W        W85959  29.536  28.197  14.088
13535W        W85960  18.176  35.428  11.929
13536W        W85961  35.413  14.287   1.810
13537W        W85962  22.174   8.844   3.215
13538W        W85963  32.441  42.032   3.598
13539W        W85964  26.848  32.515   4.912
13540W        W85965  36.456  20.505   4.489
13541W        W85966  28.170  44.923   4.100
13542W        W85967  36.870  22.133   2.203
13543W        W85968  41.487  22.106   0.101
13544W        W85969   7.605   0.437  14.861
13545W        W85970  33.325  24.021  13.533
13546W        W85971  26.800  43.475  10.720
13547W        W85972  28.779  14.718  12.434
13548W        W85973  26.439  16.803  14.378
13549W        W85974  14.653  30.859   3.266
13550W        W85975  42.464   6.408   1.635
13551W        W85976  38.910   3.231   4.599
13552W        W85977  37.480   7.821  14.259
13553W        W85978  21.994  23.478  14.587
13554W        W85979   6.825   6.741   0.068
13555W        W85980   7.445  24.530  14.585
13556W        W85981  39.535  21.333   4.205
13557W        W85982  10.281  29.668  12.039
13558W        W85983  36.479   0.330   2.003
13559W        W85984   7.195  43.862  14.270
13560W        W85985  20.334  34.566   2.769
13561W        W85986  14.338  27.032   1.803
13562W        W85987   6.300  30.846  11.870
13563W        W85988  32.195  27.455  13.440
13564W        W85989   4.986  41.041   4.678
13565W        W85990   5.517  11.683  11.659
13566W        W85991  41.529  22.730   3.312
13567W        W85992   5.738  31.163   0.849
13568W        W85993  37.619   1.418  11.640
13569W        W85994  41.131   2.668  12.058
13570W        W85995  10.960  24.732  11.677
13571W        W85996  21.142  41.581  13.037
13572W        W85997  13.742   8.112   2.378
13573W        W85998  16.068  36.109  11.969
13574W        W85999  25.604  21.573  10.859
13575W        W86000   7.674  25.605  14.800
13576W        W86001  42.344  16.880  11.688
13577W        W86002  32.031  32.854   4.212
13578W        W86003  22.483  24.856  11.675
13579W        W86004  35.432   2.874   1.780
13580W        W86005  39.458  24.166   3.238
13581W        W86006  34.066  12.254   0.733
13582W        W86007   2.705   1.781   2.871
13583W        W86008  10.578  28.619  13.403
13584W        W86009   8.692  29.693   1.621
13585W        W86010   4.763  27.612   0.928
13586W        W86011  12.547  41.166   3.719
13587W        W86012   9.306  19.573   2.333
13588W        W86013  30.599   0.644  12.266
13589W        W86014  34.258  14.397  12.998
13590W        W86015  14.216  20.696  10.930
13591W        W86016  14.091  37.037   1.664
13592W        W86017  41.430  12.164  10.918
13593W        W86018  38.760  18.654   2.306
13594W        W86019   4.009  18.064   4.162
13595W        W86020  15.575  18.453   3.604
13596W        W86021  25.697  15.265   1.776
13597W        W86022  43.716  34.488   3.239
13598W        W86023  22.207  23.740   2.144
13599W        W86024  17.688  19.681  10.381
13600W        W86025  16.387  40.497  11.268
13601W        W86026  23.957   1.551  11.091
13602W        W86027  39.437  21.792   0.856
13603W        W86028  24.806  35.500   3.177
13604W        W86029   3.739  38.440  10.726
13605W        W86030  14.661  41.225   0.199
13606W        W86031  40.310  11.260   4.241
13607W        W86032  40.464   6.148   0.583
13608W        W86033  29.086   3.964   0.382
13609W        W86034  29.719   2.011  11.094
13610W        W86035  35.484   6.163   4.739
13611W        W86036  12.628   0.450  14.599
13612W        W86037  44.510  10.372   4.105
13613W        W86038  33.454  27.891   1.291
13614W        W86039  14.622   1.762  10.607
13615W        W86040  44.502  40.946   4.408
13616W        W86041  23.992  42.300   1.875
13617W        W86042  25.412  31.454  14.449
13618W        W86043   0.546   2.984  12.622
13619W        W86044   8.722   2.727  11.366
13620W        W86045   7.232  22.685   1.768
13621W        W86046  16.874  34.909   4.090
13622W        W86047  28.336  19.217   0.802
13623W        W86048  20.760  10.074  12.708
13624W        W86049   7.507  12.817   1.220
13625W        W86050  40.861  39.570   4.402
13626W        W86051   7.295   7.341  11.572
13627W        W86052  38.574   8.505  13.312
13628W        W86053  30.012  26.123  12.540
13629W        W86054   7.453   7.663  13.041
13630W        W86055  36.511  14.785  12.898
13631W        W86056  30.966  15.198  14.964
13632W        W86057   8.249  15.706   0.983
13633W        W86058  40.861  25.039   0.066
13634W        W86059   8.627  13.707   1.812
13635W        W86060   7.741  10.126   0.495
13636W        W86061  40.530  26.412  13.520
13637W        W86062  13.177  19.383  10.592
13638W        W86063  25.070  38.509   1.246
13639W        W86064  37.560  20.022   1.139
13640W        W86065  41.771  43.806   2.093
13641W        W86066  22.719   4.259  12.488
13642W        W86067  35.605  11.175   4.228
13643W        W86068   6.939  20.317   4.100
13644W        W86069  32.111  35.892  13.554
13645W        W86070  13.382  27.836  12.066
13646W        W86071   6.176  34.394  14.393
13647W        W86072   4.670  28.537   4.061
13648W        W86073  18.316  29.632  11.831
13649W        W86074   4.200  31.014   1.933
13650W        W86075  23.204  20.025   3.178
13651W        W86076  43.810  21.498  12.932
13652W        W86077  33.174  31.404  13.564
13653W        W86078   2.858   2.447   2.330
13654W        W86079  17.805  38.405   1.273
13655W        W86080  29.961   8.912   2.298
13656W        W86081  44.663  41.759  11.138
13657W        W86082  24.779  19.314   1.722
13658W        W86083  17.107  38.314  10.688
13659W        W86084  12.271  30.193  12.562
13660W        W86085   9.647  20.067  12.965
13661W        W86086  15.526  12.692   1.261
13662W        W86087  10.226  32.612  10.661
13663W        W86088  16.957  15.409  11.009
13664W        W86089  34.979  43.802  13.458
13665W        W86090  22.763  13.387  14.835
13666W        W86091  34.651   7.240   0.325
13667W        W86092  16.219  23.290  10.526
13668W        W86093   2.983  35.972  10.699
13669W        W86094  36.960   3.312  11.262
13670W        W86095  25.966  41.750   0.032
13671W        W86096   3.189  36.161   0.832
13672W        W86097   3.332  38.460   4.822
13673W        W86098  17.166  30.598   2.205
13674W        W86099  33.048   4.995   2.791
13675W        W86100   3.776  20.492  13.089
13676W        W86101  37.571   5.121  14.854
13677W        W86102  23.507   0.727  13.871
13678W        W86103  21.076   6.660  12.992
13679W        W86104  43.351  34.305   4.139
13680W        W86105  21.037  33.869  11.135
13681W        W86106  31.997  37.653   5.012
13682W        W86107  13.212   4.891  12.671
13683W        W86108  25.183   9.091  14.998
13684W        W86109  33.494   2.244  12.283
13685W        W86110   3.517  37.440   0.329
13686W        W86111  38.350  20.118   4.367
13687W        W86112  38.845  36.418  14.434
13688W        W86113   2.451  14.669  10.609
13689W        W86114  39.386   0.681   2.275
13690W        W86115  27.090   4.402  12.947
13691W        W86116   4.363  37.566  12.041
13692W        W86117   2.685  43.542  14.876
13693W        W86118   6.154  36.390   2.453
13694W        W86119   3.375   6.362   1.232
13695W        W86120  36.266  16.696  13.721
13696W        W86121   6.651   6.353  10.575
13697W        W86122  12.597   2.830  10.696
13698W        W86123  27.688  29.586   1.777
13699W        W86124  44.282   6.283   1.267
13700W        W86125  26.911  44.045  12.290
13701W        W86126  41.525  28.989   4.734
13702W        W86127  13.283   5.878   3.587
13703W        W86128  37.405  24.671  12.467
13704W        W86129  41.699  35.103   4.215
13705W        W86130  36.168  20.049  11.236
13706W        W86131  21.586  15.904  11.014
13707W        W86132  39.810  10.755  12.657
13708W        W86133  32.656  33.464  11.586
13709W        W86134  11.136  14.208   3.731
13710W        W86135  29.109  10.254  11.991
13711W        W86136  24.600  33.869   4.756
13712W        W86137  39.549  18.200   1.052
13713W        W86138  18.524  11.127  10.780
13714W        W86139  10.820   0.042   0.853
13715W        W86140  28.405  12.131   2.400
13716W        W86141  19.042  27.870   1.035
13717W        W86142   3.809   3.000  14.992
13718W        W86143  27.111  31.196  10.600
13719W        W86144  24.498  29.051  14.401
13720W        W86145  44.280   4.233  13.300
13721W        W86146   8.451  36.257  14.647
13722W        W86147   2.682  28.208   0.371
13723W        W86148  34.928  32.921  11.168
13724W        W86149  26.182  10.729   0.060
13725W        W86150   0.765   8.659  12.557
13726W        W86151  19.283  35.886  13.380
13727W        W86152  33.104   6.712  12.374
13728W        W86153  41.534  22.498  11.492
13729W        W86154   1.616  13.665   0.520
13730W        W86155   6.270  19.300  10.552
13731W        W86156  12.327  38.685  12.612
13732W        W86157   1.259  40.886   3.039
13733W        W86158  33.039  34.911   3.098
13734W        W86159  40.591  43.960  11.630
13735W        W86160  23.086  39.363   2.209
13736W        W86161  28.935   2.953   1.276
13737W        W86162  44.277  14.516  11.174
13738W        W86163  18.152  18.199   3.810
13739W        W86164  41.836  42.978  12.947
13740W        W86165   1.199  18.746   1.842
13741W        W86166  24.602  29.672   2.303
13742W        W86167   0.476   9.045  12.710
13743W        W86168  31.776  30.081  12.000
13744W        W86169  30.128  14.548  14.862
13745W        W86170  27.875  28.254  11.593
13746W        W86171  32.291  25.093  12.430
13747W        W86172  22.957  43.377   3.474
13748W        W86173  42.555  20.229  11.038
13749W        W86174   3.158  18.509  14.862
13750W        W86175   3.197  18.571  13.484
13751W        W86176   4.516  40.401  14.290
13752W        W86177  25.572   0.214  11.104
13753W        W86178  33.573  33.164   4.545
13754W        W86179   8.745  11.669   2.873
13755W        W86180   7.446  35.646  14.460
13756W        W86181  43.877   3.888   4.362
13757W        W86182  27.429  40.708   2.815
13758W        W86183  40.969  18.084  13.324
13759W        W86184  12.855  36.985  11.902
13760W        W86185  44.530  12.078   4.685
13761W        W86186  22.114  41.820  12.099
13762W        W86187  36.593  41.357  12.324
13763W        W86188  34.904  31.437   2.384
13764W        W86189  21.204  41.773  12.088
13765W        W86190  24.589   7.176   0.929
13766W        W86191  16.499  36.972  13.907
13767W        W86192  40.308  37.024  14.414
13768W        W86193  34.386  13.450   2.613
13769W        W86194  22.176   8.270  12.074
13770W        W86195  43.107  23.770  12.599
13771W        W86196   7.863  29.647  11.644
13772W        W86197  17.660  26.960  13.419
13773W        W86198  29.673  44.712   2.839
13774W        W86199   8.188   8.195   2.136
13775W        W86200  24.812  15.662   9.858
13776W        W86201  18.760  28.008  10.889
13777W        W86202  25.170  42.111   0.413
13778W        W86203  12.167  41.875  14.380
13779W        W86204  19.145   6.057  14.800
13780W        W86205   4.971  16.559  14.911
13781W        W86206  10.009  15.447  11.623
13782W        W86207  36.764  38.763  12.918
13783W        W86208  13.772  23.043   5.005
13784W        W86209  33.563  27.911  14.939
13785W        W86210  10.691   1.810   4.414
13786W        W86211  13.727  24.515   9.636
13787W        W86212  24.777   1.414   1.058
13788W        W86213  22.076  28.173   3.111
13789W        W86214  13.931   7.389   0.960
13790W        W86215   6.102  28.172  12.528
13791W        W86216   4.739  10.400  11.711
13792W        W86217  33.668  17.689   0.024
13793W        W86218  27.317  14.660   0.060
13794W        W86219  27.393  44.946  12.562
13795W        W86220  32.888  17.700   2.896
13796W        W86221  11.809  14.526  11.171
13797W        W86222  15.828   8.656  12.007
13798W        W86223  12.381   2.727   1.395
13799W        W86224   0.303  43.738  12.871
13800W        W86225  36.442  37.383   2.475
13801W        W86226   2.492   6.142   1.242
13802W        W86227  20.527  25.177  14.304
13803W        W86228  16.846  26.566   3.375
13804W        W86229  27.774  39.361   9.770
13805W        W86230  16.567   5.714   4.614
13806W        W86231  23.215  18.849   3.999
13807W        W86232  32.699  11.872   0.446
13808W        W86233  11.120  39.024   2.739
13809W        W86234  24.839   4.283   4.679
13810W        W86235   6.594  11.877  10.308
13811W        W86236   0.450   6.459  13.556
13812W        W86237  27.002  42.959   2.763
13813W        W86238  15.793  16.933  10.150
13814W        W86239  29.347  30.055   4.552
13815W        W86240  21.492   3.815   2.278
13816W        W86241  23.503   1.104  11.044
13817W        W86242  27.975  31.526  13.369
13818W        W86243   3.607  37.464  12.479
13819W        W86244  14.218   4.341   3.561
13820W        W86245  29.098  11.577  12.507
13821W        W86246   2.550  20.093   1.714
13822W        W86247  13.108  29.528  11.008
13823W        W86248   9.810  34.092  14.956
13824W        W86249  41.004  29.712   1.022
13825W        W86250  11.410  36.319  11.422
13826W        W86251  40.257  37.706   1.844
13827W        W86252  10.965  43.507   0.423
13828W        W86253  21.992  22.996   4.652
13829W        W86254  17.271  11.881  14.020
13830W        W86255  17.337  42.511  11.056
13831W        W86256  36.372  34.742   4.229
13832W        W86257   4.226  44.312   0.247
13833W        W86258   7.983  35.127   2.313
13834W        W86259  28.874   8.647  11.423
13835W        W86260  23.586  21.205   4.489
13836W        W86261  15.210  12.075   1.944
13837W        W86262  33.957   8.929  11.927
13838W        W86263   0.238  41.835   0.721
13839W        W86264   6.437   7.844   2.647
13840W        W86265  44.084  12.684  12.894
13841W        W86266   5.863  28.419   0.364
13842W        W86267  21.539  17.743  12.540
13843W        W86268  12.619  38.387  12.972
13844W        W86269  34.868  42.567  14.905
13845W        W86270  35.230  21.523   3.815
13846W        W86271  27.737   3.908   4.959
13847W        W86272  30.480  27.269  13.391
13848W        W86273  35.414  26.702  12.552
13849W        W86274  28.529  27.585   3.744
13850W        W86275   7.886  31.418  14.110
13851W        W86276  39.864   6.327   0.195
13852W        W86277  35.432  19.214   3.848
13853W        W86278  32.894  20.919   0.375
13854W        W86279  31.134   4.849   0.366
13855W        W86280  12.566   8.182   4.141
13856W        W86281   3.272   6.652  14.441
13857W        W86282  24.251   3.699  14.087
13858W        W86283  13.108  44.545  10.305
13859W        W86284  29.562  39.342   1.889
13860W        W86285  23.643  39.447   4.740
13861W        W86286   0.655   7.413  11.173
13862W        W86287  13.296  39.194  12.783
13863W        W86288   7.460  44.872   1.318
13864W        W86289  27.502  37.486   2.285
13865W        W86290  32.628  16.070   2.713
13866W        W86291  38.439   3.605  13.368
13867W        W86292  32.335   1.722  13.458
13868W        W86293  35.107  31.890   2.622
13869W        W86294   9.633  27.493   0.340
13870W        W86295  37.097  32.873  13.505
13871W        W86296   9.798   0.996   0.960
13872W        W86297  38.447  38.082   0.254
13873W        W86298  37.969  13.695   3.568
13874W        W86299  29.149  32.795   1.904
13875W        W86300  21.536  26.704  14.483
13876W        W86301  27.559   5.232  14.006
13877W        W86302  13.233   4.938  11.158
13878W        W86303  13.435  31.583   2.869
13879W        W86304  36.364  44.872   0.222
13880W        W86305  17.434  34.676  10.124
13881W        W86306  28.014  29.184  12.565
13882W        W86307  18.692  28.965  10.424
13883W        W86308  34.205  11.256   1.806
13884W        W86309  23.867  19.449   1.295
13885W        W86310   5.301  37.146  10.437
13886W        W86311   8.412  29.679   4.618
13887W        W86312   8.802  35.130  12.494
13888W        W86313  13.091   3.901  11.033
13889W        W86314  44.337  25.166  10.645
13890W        W86315  18.597  18.090  14.862
13891W        W86316  35.904  23.184  13.864
13892W        W86317  25.532  24.787  13.554
13893W        W86318  21.616   7.792  11.598
13894W        W86319  42.990  43.177   1.596
13895W        W86320  30.741  28.802   3.839
13896W        W86321  26.031   0.549  12.875
13897W        W86322   2.504  44.007   0.045
13898W        W86323   5.651   9.398  12.820
13899W        W86324  12.589  42.540  14.067
13900W        W86325  19.284  42.074  13.997
13901W        W86326  36.535   2.258   4.595
13902W        W86327  39.428  31.158  11.225
13903W        W86328  36.396   9.760  13.915
13904W        W86329  30.041   9.158  13.372
13905W        W86330  19.257   8.771   0.998
13906W        W86331   7.329  32.689   4.822
13907W        W86332   4.836  22.535   1.043
13908W        W86333  21.477  10.125   1.918
13909W        W86334  23.798   0.965  10.637
13910W        W86335  18.017  19.592  14.797
13911W        W86336  43.757  10.362   4.637
13912W        W86337  40.621   8.907   4.485
13913W        W86338  23.303  35.717  13.092
13914W        W86339  38.376  37.179  13.583
13915W        W86340  39.838   3.227   2.664
13916W        W86341  33.550  21.712   0.026
13917W        W86342  35.648  13.322   1.559
13918W        W86343  31.283  34.018  14.748
13919W        W86344  28.041  33.936   2.709
13920W        W86345   4.506  10.744  10.391
13921W        W86346  38.265  36.762   1.720
13922W        W86347  15.684  24.186  12.864
13923W        W86348  18.098  28.074   3.346
13924W        W86349   6.500  34.978   0.782
13925W        W86350  34.423   7.135  11.860
13926W        W86351  25.492   0.839  14.417
13927W        W86352  27.147  35.894  12.017
13928W        W86353  26.691  41.286  13.914
13929W        W86354  13.562   1.513   9.616
13930W        W86355  37.790  19.535   0.316
13931W        W86356  36.104  41.901   1.333
13932W        W86357  37.442  35.564  14.985
13933W        W86358  32.617  30.979   0.864
13934W        W86359   9.937   3.678   0.678
13935W        W86360   7.134   8.062   4.976
13936W        W86361  20.763  34.348   1.009
13937W        W86362  13.131  34.671   3.722
13938W        W86363  30.972  21.016   0.476
13939W        W86364  26.637  17.839   0.249
13940W        W86365  33.342  42.208  11.996
13941W        W86366  33.331  39.856  12.975
13942W        W86367   6.737  36.742   3.589
13943W        W86368  42.206   4.526   3.201
13944W        W86369  12.317  43.160  13.435
13945W        W86370   1.084  20.974  12.042
13946W        W86371   8.527  31.662  13.450
13947W        W86372  37.399  16.562  12.601
13948W        W86373  19.021  33.045  11.978
13949W        W86374   8.123  11.417   0.710
13950W        W86375  17.328   3.840  11.090
13951W        W86376  40.716   3.042   4.880
13952W        W86377  33.973   1.006  13.297
13953W        W86378  14.258  15.329  10.610
13954W        W86379  35.482   4.642  11.640
13955W        W86380  34.483  12.559   0.782
13956W        W86381  41.525  35.489   2.269
13957W        W86382  24.162   4.937  10.498
13958W        W86383  15.016  12.730   1.358
13959W        W86384  28.975  28.185  12.897
13960W        W86385  26.560  17.202   5.002
13961W        W86386  38.838  18.551   3.169
13962W        W86387  38.566  12.205  13.075
13963W        W86388  35.564  38.308   4.194
13964W        W86389  12.267  11.663   3.385
13965W        W86390   4.214   1.787  12.125
13966W        W86391  20.447  31.883   1.735
13967W        W86392  17.121  41.282   1.352
13968W        W86393  24.954  16.821  14.298
13969W        W86394  31.638   1.896   3.979
13970W        W86395  20.345  16.073  13.173
13971W        W86396  31.633  12.539   4.097
13972W        W86397  24.897  35.159  14.305
13973W        W86398  35.012   5.794  12.850
13974W        W86399  41.334  32.133  13.149
13975W        W86400   2.555  15.595  13.260
13976W        W86401  43.612  16.718   2.319
13977W        W86402   7.408  12.331  11.489
13978W        W86403   2.691  43.976   2.205
13979W        W86404  42.422  44.851  12.516
13980W        W86405   2.642   9.604  13.410
13981W        W86406  12.911  30.520   2.829
13982W        W86407   7.484   2.436  10.398
13983W        W86408   5.380  42.054   2.658
13984W        W86409   5.865   1.506   4.701
13985W        W86410  14.997  34.958   4.525
13986W        W86411  29.841  10.912  12.987
13987W        W86412  24.473  37.591  11.598
13988W        W86413   0.174  37.607  10.374
13989W        W86414  16.116  33.006   1.052
13990W        W86415  15.818  29.555   3.019
13991W        W86416  11.142  16.753   4.596
13992W        W86417  37.400   5.051  13.321
13993W        W86418  32.139   0.012   0.933
13994W        W86419   2.812  32.038   4.306
13995W        W86420  38.505  33.336  13.427
13996W        W86421  16.784  28.193   2.660
13997W        W86422  24.474  17.698   3.652
13998W        W86423  15.379  22.124   1.685
13999W        W86424  17.099   8.436   0.998
14000W        W86425  39.593   7.267  13.032
14001W        W86426  26.297  42.212  12.568
14002W        W86427  40.899  40.816  11.674
14003W        W86428  37.596  27.489   1.860
14004W        W86429   9.256  30.687   0.117
14005W        W86430  21.064  20.226   1.393
14006W        W86431  10.718  31.377  14.006
14007W        W86432  21.730  43.035   2.811
14008W        W86433  16.883   2.212   4.341
14009W        W86434  36.795   2.398  13.039
14010W        W86435   1.242  22.039   2.744
14011W        W86436  37.293  18.579  14.519
14012W        W86437  15.851  23.192   3.900
14013W        W86438   8.677  17.926  11.553
14014W        W86439   4.294  17.185   0.301
14015W        W86440  30.056  11.809   4.337
14016W        W86441  20.602  17.575  12.249
14017W        W86442  41.833  15.231  10.449
14018W        W86443  19.264  16.242   0.414
14019W        W86444  22.053  31.526   1.670
14020W        W86445  23.921   1.278   3.291
14021W        W86446  41.356   4.492   0.879
14022W        W86447   6.185  37.461   1.346
14023W        W86448   8.108  18.661   3.591
14024W        W86449  20.843   7.224   4.092
14025W        W86450  11.068   0.559  13.728
14026W        W86451  20.062  33.408  14.564
14027W        W86452  15.998  34.209  11.136
14028W        W86453  44.478  31.522  11.980
14029W        W86454  13.811   8.177  14.542
14030W        W86455   8.195  36.100  10.659
14031W        W86456  36.244  15.654  13.858
14032W        W86457  32.536  33.692  12.041
14033W        W86458  39.045   1.453  13.379
14034W        W86459  31.449  39.468   4.880
14035W        W86460   2.181  43.976  12.388
14036W        W86461  18.098  41.243   3.248
14037W        W86462   5.786   4.945  10.523
14038W        W86463  12.645  14.068   3.713
14039W        W86464  17.122  13.176   0.188
14040W        W86465  26.435  14.267   3.096
14041W        W86466   2.136  21.129  11.432
14042W        W86467   3.682  38.556   3.117
14043W        W86468  40.417  20.317  13.890
14044W        W86469  29.471  11.882   4.693
14045W        W86470  27.468  26.548  12.565
14046W        W86471  27.665  27.604   3.884
14047W        W86472  44.211   7.256  11.063
14048W        W86473  26.057   3.808  12.500
14049W        W86474  19.579  21.663   3.625
14050W        W86475  34.961  22.135   0.729
14051W        W86476  15.312  28.601   0.188
14052W        W86477   3.291   3.251  12.908
14053W        W86478  33.939   7.320  11.070
14054W        W86479  15.036   5.057  13.544
14055W        W86480  42.907  41.018   2.853
14056W        W86481  32.861  15.128  13.723
14057W        W86482  18.365  25.317   3.702
14058W        W86483   9.334  33.493  12.085
14059W        W86484   1.432   9.071  13.000
14060W        W86485  26.638  26.220  10.914
14061W        W86486   2.493  15.247  12.290
14062W        W86487  36.755   7.620   1.928
14063W        W86488  28.542  12.014  13.953
14064W        W86489  26.986   5.594  14.376
14065W        W86490  32.672  43.382  12.888
14066W        W86491  26.637  15.717  13.369
14067W        W86492  35.970  26.189  12.156
14068W        W86493  23.529   1.606   3.280
14069W        W86494  27.011  22.729   0.615
14070W        W86495  29.677  25.643   3.671
14071W        W86496  23.996  21.987  13.254
14072W        W86497  22.804  25.397  14.981
14073W        W86498  13.195  36.528  13.750
14074W        W86499  27.607  42.447  14.193
14075W        W86500  12.084  12.477   0.690
14076W        W86501   7.330  42.891   1.272
14077W        W86502   3.922  14.090  11.598
14078W        W86503  21.203   4.992  11.205
14079W        W86504  12.843  33.325   3.739
14080W        W86505  34.612  12.643   2.277
14081W        W86506  21.654  39.411  11.574
14082W        W86507  23.200   3.901  10.949
14083W        W86508  28.369   9.108   0.888
14084W        W86509   7.164  31.206  11.073
14085W        W86510  26.502  12.597   1.323
14086W        W86511  41.197  38.081  11.328
14087W        W86512  30.037  33.512   2.598
14088W        W86513  36.629   5.825   0.556
14089W        W86514  20.147  39.583   0.862
14090W        W86515  18.124  31.880   0.965
14091W        W86516  41.490  42.322   0.431
14092W        W86517  11.638  36.525  11.983
14093W        W86518  10.743   2.362  14.090
14094W        W86519  41.931  14.402   0.512
14095W        W86520  20.706  20.027   3.277
14096W        W86521   6.802  44.407   2.806
14097W        W86522  42.212  35.128   2.441
14098W        W86523  13.849  44.000   2.844
14099W        W86524  29.174  13.785   1.316
14100W        W86525  44.576  22.512   1.139
14101W        W86526  15.144   5.681  12.135
14102W        W86527  12.097   7.285  12.863
14103W        W86528  17.416   3.106   3.830
14104W        W86529  35.401  17.283  11.521
14105W        W86530   7.906   9.804  14.785
14106W        W86531  43.377  16.161   3.164
14107W        W86532  28.958  23.500   2.244
14108W        W86533  14.132   2.898   2.166
14109W        W86534  23.239  16.902  13.748
14110W        W86535  33.545  41.688   0.674
14111W        W86536  18.671  42.953  10.677
14112W        W86537  29.157   1.248   3.365
14113W        W86538  25.635  15.068  12.460
14114W        W86539  37.329   8.083  10.228
14115W        W86540  33.478  27.459   3.173
14116W        W86541  39.964   4.202   1.825
14117W        W86542  22.111  25.158   1.336
14118W        W86543  20.687  40.333   1.811
14119W        W86544  28.490  24.211   2.437
14120W        W86545  30.063  23.687  10.437
14121W        W86546  10.825  12.863  14.838
14122W        W86547  23.563  28.138  11.055
14123W        W86548  10.875  22.250  11.549
14124W        W86549   8.586  37.321   0.369
14125W        W86550  30.052  41.608   4.264
14126W        W86551  18.258  33.503  12.774
14127W        W86552  25.344  16.593  14.022
14128W        W86553  40.213   1.536   4.330
14129W        W86554   6.936  24.591  14.208
14130W        W86555  41.929  11.202   1.840
14131W        W86556  30.406  20.201  11.041
14132W        W86557  32.099   7.008  12.074
14133W        W86558  15.762  13.152   0.921
14134W        W86559  39.897  17.325  12.100
14135W        W86560   1.855  15.409  13.976
14136W        W86561   6.735  17.197  14.487
14137W        W86562  43.209  18.012  13.060
14138W        W86563  33.105  28.995  13.365
14139W        W86564  19.738  22.040   3.298
14140W        W86565  21.063  43.796  14.798
14141W        W86566  33.979  36.837  14.915
14142W        W86567   4.788   8.591   1.324
14143W        W86568  27.572  44.469  13.749
14144W        W86569  22.236   7.518   1.288
14145W        W86570   7.126  31.607   1.465
14146W        W86571  21.201  14.647  14.421
14147W        W86572  16.699  15.795   4.578
14148W        W86573   9.944  31.679   2.862
14149W        W86574   4.979  35.925  13.506
14150W        W86575   6.727   3.771   2.611
14151W        W86576  12.753  12.854  11.170
14152W        W86577   4.325  32.107  13.841
14153W        W86578  33.444   6.076   3.533
14154W        W86579  34.023   4.328   3.908
14155W        W86580  36.917   7.954   4.877
14156W        W86581  41.976  31.599   2.357
14157W        W86582  23.031   8.893  13.360
14158W        W86583   6.355  26.307  14.312
14159W        W86584  12.735  24.473  10.794
14160W        W86585   4.359  26.710  12.394
14161W        W86586  13.032  37.168  11.125
14162W        W86587  29.422  34.145   1.771
14163W        W86588  23.032  14.169   0.555
14164W        W86589  38.764  28.313   5.071
14165W        W86590  15.204  40.785  14.490
14166W        W86591  43.352  38.473   4.596
14167W        W86592  11.346  10.779  12.048
14168W        W86593  37.809  41.956   4.361
14169W        W86594  42.245   2.754   4.944
14170W        W86595   3.463  15.445  13.299
14171W        W86596   5.099   7.737   3.663
14172W        W86597  12.742  19.768  11.619
14173W        W86598   9.755  17.039  14.216
14174W        W86599  24.451   9.164   2.220
14175W        W86600  34.129  12.312   3.146
14176W        W86601  38.831  28.261  14.363
14177W        W86602  27.019  14.575   4.256
14178W        W86603  13.490  44.899  14.819
14179W        W86604  16.248  33.815   1.424
14180W        W86605  42.747  43.399   3.636
14181W        W86606   4.781   1.439   0.042
14182W        W86607  29.909  17.084  10.636
14183W        W86608  25.333   3.535   0.491
14184W        W86609   5.770   0.208  14.417
14185W        W86610  44.763  37.297  12.009
14186W        W86611   0.342  15.615   4.325
14187W        W86612  27.926  39.275   4.720
14188W        W86613  27.480   8.810   3.253
14189W        W86614  16.660  36.515   0.536
14190W        W86615  17.135   1.364  11.593
14191W        W86616  13.688   0.979  10.274
14192W        W86617  41.237   2.413  14.370
14193W        W86618  21.768   7.333  11.374
14194W        W86619   7.280  29.171   1.256
14195W        W86620  10.867   0.959  13.445
14196W        W86621  36.065   0.260   1.193
14197W        W86622  23.453  15.780   1.936
14198W        W86623  35.693  27.323   4.209
14199W        W86624  29.949  44.880   1.142
14200W        W86625  37.999   6.572  11.522
14201W        W86626  23.437   2.963  14.728
14202W        W86627  15.025   6.494   2.355
14203W        W86628   0.684  42.289  13.063
14204W        W86629  26.280   9.105   1.657
14205W        W86630   0.360  27.240   1.134
14206W        W86631  41.734   2.752  13.852
14207W        W86632  37.578  30.133  11.371
14208W        W86633  22.580  17.338  11.606
14209W        W86634   8.538  41.393   1.744
14210W        W86635  25.940  17.149   3.245
14211W        W86636  30.458  42.784  14.037
14212W        W86637  35.819  43.864  14.267
14213W        W86638  36.424   3.069   0.889
14214W        W86639  32.924  40.631   4.600
14215W        W86640  23.505  39.506   3.763
14216W        W86641   7.009   0.806   3.557
14217W        W86642  16.755   9.649  13.524
14218W        W86643  12.169  29.378  12.947
14219W        W86644   7.695  21.208  12.079
14220W        W86645  16.848  13.120   4.749
14221W        W86646  19.167  43.735   0.366
14222W        W86647  28.685  44.023   2.727
14223W        W86648  38.434   9.492  13.353
14224W        W86649  34.586   6.431   1.627
14225W        W86650   8.956  33.448   2.821
14226W        W86651  24.037   4.299   0.728
14227W        W86652   9.486  25.441  10.426
14228W        W86653  29.434  16.819  12.162
14229W        W86654   8.491   6.171   3.695
14230W        W86655  15.618  17.084   3.218
14231W        W86656   9.357   3.511   3.278
14232W        W86657  28.575   7.692   4.571
14233W        W86658   9.176  39.973  14.838
14234W        W86659  16.328   3.195  14.036
14235W        W86660   3.971  32.366   3.199
14236W        W86661   6.333   8.573   4.648
14237W        W86662   5.618  34.420  14.313
14238W        W86663  43.281  11.183  10.371
14239W        W86664  16.418   1.414  13.971
14240W        W86665   8.399  21.167   1.716
14241W        W86666  26.022  11.408   2.713
14242W        W86667   1.519   7.917   0.867
14243W        W86668  22.098  14.796  12.611
14244W        W86669  12.722  42.274   4.256
14245W        W86670  19.576  35.999  14.054
14246W        W86671  42.679  15.616  14.542
14247W        W86672  12.202  17.876   3.726
14248W        W86673  40.287  14.818  12.427
14249W        W86674  20.345  32.969   4.568
14250W        W86675  12.810   1.787  14.234
14251W        W86676  41.250  31.806   4.918
14252W        W86677  38.369  16.100  14.489
14253W        W86678   1.257  15.398   3.187
14254W        W86679  16.878  29.330  12.027
14255W        W86680  34.674  37.927  11.255
14256W        W86681   3.478  37.785   1.459
14257W        W86682  13.132  42.484   3.813
14258W        W86683  35.218   8.488   0.420
14259W        W86684  21.925  18.169  11.964
14260W        W86685   2.392   7.231  11.531
14261W        W86686   2.302   4.931  14.726
14262W        W86687  10.224  33.000  11.000
14263W        W86688   5.333  44.466   2.291
14264W        W86689  32.373  21.065   2.859
14265W        W86690   1.276   5.196  13.020
14266W        W86691  31.043  30.937  12.208
14267W        W86692  31.575  14.778   0.225
14268W        W86693   8.597   4.352  13.883
14269W        W86694  26.924  44.676  11.233
14270W        W86695  28.718  20.442   3.105
14271W        W86696  19.141  44.910  14.312
14272W        W86697  25.943  38.395  13.173
14273W        W86698  13.258  18.719  12.351
14274W        W86699  26.915  33.123  11.622
14275W        W86700  25.285  12.299  12.920
14276W        W86701  37.333  16.601   2.204
14277W        W86702  42.063  33.390   4.270
14278W        W86703  13.138  28.058  10.389
14279W        W86704  32.593   5.891  12.672
14280W        W86705  22.969  14.058  10.565
14281W        W86706  25.739  36.392   1.026
14282W        W86707   6.338  43.020  13.360
14283W        W86708  12.041  33.985   1.498
14284W        W86709  39.895  20.165   4.414
14285W        W86710  38.305  40.966  13.894
14286W        W86711   8.893  42.459   2.719
14287W        W86712  35.250  13.739  11.102
14288W        W86713  34.851  20.776   1.320
14289W        W86714  38.936   1.651   4.559
14290W        W86715   8.700  10.174   0.096
14291W        W86716  31.348  44.756   1.825
14292W        W86717  14.251  41.998  12.842
14293W        W86718  14.908  23.188  13.122
14294W        W86719  24.569  41.977  11.464
14295W        W86720  12.191  39.109  14.854
14296W        W86721   2.281   2.533   1.903
14297W        W86722  37.460  23.643   3.770
14298W        W86723   0.842  15.725   0.044
14299W        W86724  37.817  10.498   3.567
14300W        W86725   2.994  32.405  12.972
14301W        W86726   4.255   3.207   5.112
14302W        W86727   6.393  27.534   4.351
14303W        W86728  17.389   7.871  14.953
14304W        W86729  26.903  34.878  13.455
14305W        W86730  38.875  37.919   4.639
14306W        W86731   2.947  14.533   1.978
14307W        W86732  21.026  10.202   4.691
14308W        W86733   3.863  36.082   0.532
14309W        W86734  40.499  43.424  12.430
14310W        W86735   2.825   4.784   4.407
14311W        W86736  40.572   7.988   1.346
14312W        W86737  11.128  34.906  13.765
14313W        W86738   0.687  36.490  13.865
14314W        W86739  25.110  15.334  11.409
14315W        W86740  23.665   9.166  11.292
14316W        W86741  19.337  17.339  11.073
14317W        W86742  38.354  19.537   3.699
14318W        W86743  16.528   2.336  13.531
14319W        W86744  17.976  39.844  13.436
14320W        W86745  37.002  35.389   2.777
14321W        W86746  17.872  29.482  12.571
14322W        W86747  31.117  22.222  10.353
14323W        W86748  41.065  28.720  11.761
14324W        W86749   8.806  25.600  12.875
14325W        W86750  41.051  16.753   3.198
14326W        W86751  39.627  15.600  11.217
14327W        W86752  28.712   9.385   3.306
14328W        W86753   5.985  36.051  12.047
14329W        W86754  24.478  19.455   0.531
14330W        W86755  36.179  31.983   0.845
14331W        W86756  34.377  16.372   3.311
14332W        W86757  34.793  35.991   1.141
14333W        W86758   5.989  44.309  14.406
14334W        W86759  14.770  33.752  11.491
14335W        W86760  28.955  22.581  11.281
14336W        W86761  24.390  38.603  13.461
14337W        W86762  38.864  31.214   0.685
14338W        W86763   0.441  42.359   2.355
14339W        W86764  19.216  26.073   3.464
14340W        W86765  31.714  20.425  14.747
14341W        W86766  20.856  33.000   4.546
14342W        W86767  43.340  16.272  12.992
14343W        W86768  18.115   0.185   4.152
14344W        W86769  31.930   8.893   3.176
14345W        W86770  25.442  14.563   4.013
14346W        W86771  15.364  39.762  13.640
14347W        W86772  27.592   8.130   1.739
14348W        W86773  11.382  23.553   2.689
14349W        W86774  31.504  30.609  13.349
14350W        W86775  30.651  35.353   1.796
14351W        W86776   3.629   5.079   3.345
14352W        W86777  27.085  42.002   1.688
14353W        W86778   4.014  44.749  10.871
14354W        W86779   8.119  38.178   1.639
14355W        W86780  31.490  26.431  11.095
14356W        W86781   8.617  38.071  12.577
14357W        W86782  13.352  36.672   2.311
14358W        W86783  44.866  31.141  13.622
14359W        W86784  32.541  12.220  10.303
14360W        W86785  17.356   4.321  10.794
14361W        W86786   6.789  29.955   4.369
14362W        W86787  12.229  17.778  11.471
14363W        W86788  16.202   4.049  11.164
14364W        W86789  14.281   9.103   0.241
14365W        W86790  23.765   4.470   3.604
14366W        W86791   1.430  33.983   9.525
14367W        W86792  29.579  13.723   0.673
14368W        W86793  11.585   5.729   4.538
14369W        W86794  28.693  26.203  13.012
14370W        W86795  40.931  34.797  14.208
14371W        W86796   3.881  32.428   3.707
14372W        W86797  39.827   1.910   1.282
14373W        W86798   3.334  13.097   3.629
14374W        W86799  41.390  20.967  11.504
14375W        W86800  18.166  32.206   1.349
14376W        W86801  26.019  31.438   0.739
14377W        W86802   9.344  36.945  12.406
14378W        W86803  41.997   1.370   0.698
14379W        W86804   9.952  36.540   2.657
14380W        W86805  16.173   0.030   0.811
14381W        W86806  43.848  28.630   4.542
14382W        W86807   9.215   1.236   1.700
14383W        W86808  34.850  29.541  13.655
14384W        W86809  34.780  36.479   3.592
14385W        W86810  37.747  27.811  12.047
14386W        W86811  41.297  23.636   1.311
14387W        W86812  31.160  36.860  10.721
14388W        W86813  37.341   6.874   0.465
14389W        W86814  31.969  25.442   0.359
14390W        W86815  30.886  11.034   4.650
14391W        W86816  27.929  40.778   0.768
14392W        W86817  24.414  25.916  11.699
14393W        W86818  10.774   3.256   2.087
14394W        W86819  44.547  33.886   0.059
14395W        W86820  19.807  14.173   1.076
14396W        W86821  11.725  22.734   2.116
14397W        W86822  25.572  32.504  10.632
14398W        W86823   8.661  31.679  10.696
14399W        W86824  37.047  37.481  14.245
14400W        W86825  27.003   9.317   0.478
14401W        W86826   9.673  12.179   1.829
14402W        W86827  14.554  23.159  11.923
14403W        W86828  38.006  27.861  14.554
14404W        W86829  39.536  42.880   0.239
14405W        W86830  24.617  14.820   3.529
14406W        W86831  13.825  40.271  13.567
14407W        W86832  12.426   9.847  13.343
14408W        W86833  41.841   5.238  12.010
14409W        W86834  37.605  29.740   5.266
14410W        W86835  42.883  29.041   4.680
14411W        W86836   2.754  33.925  12.333
14412W        W86837  31.654  20.040   1.770
14413W        W86838   1.431   2.460   1.490
14414W        W86839  34.030  14.624  13.399
14415W        W86840   0.951  31.766   5.505
14416W        W86841  38.610  41.468  12.664
14417W        W86842  23.811  41.589   0.521
14418W        W86843  19.678  23.663  12.342
14419W        W86844  18.391  39.020   0.935
14420W        W86845   5.656  19.624   3.684
14421W        W86846   8.172   8.849   0.352
14422W        W86847  38.261  32.986   4.360
14423W        W86848  42.633   5.695   4.548
14424W        W86849  40.108  39.422  11.970
14425W        W86850  35.529   2.415   4.681
14426W        W86851   3.609   8.765  13.430
14427W        W86852  19.087  14.072   4.389
14428W        W86853  29.402  17.669   4.593
14429W        W86854   0.926  14.552  12.086
14430W        W86855  20.557  18.566  12.094
14431W        W86856  44.101  19.062   1.433
14432W        W86857  29.564  23.294  11.131
14433W        W86858  29.023  33.694  12.532
14434W        W86859  17.223  39.984   3.442
14435W        W86860   8.800  30.395   3.175
14436W        W86861   7.759   1.866   4.137
14437W        W86862  18.342  44.284  11.011
14438W        W86863  10.408   6.779  11.995
14439W        W86864  33.035  32.386   4.510
14440W        W86865  34.984  12.525   1.889
14441W        W86866  24.270  41.391   4.555
14442W        W86867  24.255  27.541  13.461
14443W        W86868   0.785  19.640   2.369
14444W        W86869  35.016  11.144  14.963
14445W        W86870   7.266  16.773   4.396
14446W        W86871   6.924  18.048  13.368
14447W        W86872  41.473  26.984   4.602
14448W        W86873   8.346  36.753   4.769
14449W        W86874  28.743  31.626  12.672
14450W        W86875   3.892  29.233  12.929
14451W        W86876  23.645  22.341   2.774
14452W        W86877  28.524  35.859   4.867
14453W        W86878  23.817   5.349  13.735
14454W        W86879  17.745  14.199  13.398
14455W        W86880  42.806   4.759  12.926
14456W        W86881  37.663  13.573   1.739
14457W        W86882  38.814  41.239  13.591
14458W        W86883  13.148  26.081  10.889
14459W        W86884  19.990  43.745  13.428
14460W        W86885  27.889  32.293  12.035
14461W        W86886   4.264  26.765  11.480
14462W        W86887  26.406   5.086  10.972
14463W        W86888  34.388  30.702  12.061
14464W        W86889  10.883   8.795  13.128
14465W        W86890  28.646   5.260   0.855
14466W        W86891  43.085  38.731   5.255
14467W        W86892  42.431   5.834   0.877
14468W        W86893  43.026  13.668   0.039
14469W        W86894  37.377  35.853  11.241
14470W        W86895  40.935  10.687  13.369
14471W        W86896  43.976  42.926   4.895
14472W        W86897  26.956   9.583  13.758
14473W        W86898  39.736  11.623  10.809
14474W        W86899  41.392  20.276   0.139
14475W        W86900   6.850  22.108   0.248
14476W        W86901  11.592  27.404   0.307
14477W        W86902   9.506  39.021   3.459
14478W        W86903  31.341  24.636  10.494
14479W        W86904  11.660  35.517  10.747
14480W        W86905   9.756  40.818  12.628
14481W        W86906  24.170  23.557   4.012
14482W        W86907   5.321   9.249  11.878
14483W        W86908  32.475  26.598   1.249
14484W        W86909  10.068   3.937   2.971
14485W        W86910  29.224  43.775  13.106
14486W        W86911  33.588  33.457   3.981
14487W        W86912  42.252  29.068  14.838
14488W        W86913   7.764  43.117   1.512
14489W        W86914   4.716  16.614   1.847
14490W        W86915  29.657  30.216  13.224
14491W        W86916  42.312  30.493   3.753
14492W        W86917  35.008  15.297  13.801
14493W        W86918  44.764  12.036  10.608
14494W        W86919   5.424  23.610  13.643
14495W        W86920   7.865   6.064   0.389
14496W        W86921  29.145  20.574  12.430
14497W        W86922   2.620  13.392   4.078
14498W        W86923  11.621   5.528   1.884
14499W        W86924  10.749   6.532  14.925
14500W        W86925  14.669  41.323  12.898
14501W        W86926  37.054  37.361  12.796
14502W        W86927  27.111  15.435  11.033
14503W        W86928   9.169   3.614   1.278
14504W        W86929  37.433  16.318   2.754
14505W        W86930  14.444  17.780   9.834
14506W        W86931  36.009  44.049   0.493
14507W        W86932  27.150   5.270   0.789
14508W        W86933   6.717  27.703  13.930
14509W        W86934   9.155  38.460   3.826
14510W        W86935  43.565  12.287  11.456
14511W        W86936  22.585  18.231   3.605
14512W        W86937  43.024  18.693  14.957
14513W        W86938  38.996  15.286   4.937
14514W        W86939  19.340  16.788  11.611
14515W        W86940   6.083   8.466  13.874
14516W        W86941  25.893  20.040  11.023
14517W        W86942  15.392  37.439   1.118
14518W        W86943  15.630  22.816  11.395
14519W        W86944  18.589   9.383   0.783
14520W        W86945  31.432  25.608   4.338
14521W        W86946   8.675  35.739   4.029
14522W        W86947  30.435  29.523   3.224
14523W        W86948  26.244  22.428   3.355
14524W        W86949  40.026   8.286   0.685
14525W        W86950  24.505  11.909  14.537
14526W        W86951  44.566  20.552  10.602
14527W        W86952  16.223  31.074   2.234
14528W        W86953  44.986  11.813   4.758
14529W        W86954   0.996  14.224  11.156
14530W        W86955  26.225   3.159   5.025
14531W        W86956   9.146  32.051  10.111
14532W        W86957  14.726  10.642   1.870
14533W        W86958  23.715  35.908  14.413
14534W        W86959   5.279  39.276  14.031
14535W        W86960  16.268  33.163   4.218
14536W        W86961   8.949  23.629   2.611
14537W        W86962  42.962  21.775   5.309
14538W        W86963  42.862  40.874  14.866
14539W        W86964  29.247  16.704  14.892
14540W        W86965  18.797  10.126   3.727
14541W        W86966   3.615  40.094   4.106
14542W        W86967  32.112  42.988   3.637
14543W        W86968  20.243   7.895   4.726
14544W        W86969   3.511  22.136  11.608
14545W        W86970  23.101   8.482   3.743
14546W        W86971  41.433   4.405  13.308
14547W        W86972  37.362  27.012  12.352
14548W        W86973  31.571  25.420  13.902
14549W        W86974  41.764  21.202   2.621
14550W        W86975  24.382   2.350  12.861
14551W        W86976   6.265   9.719  10.631
14552W        W86977  19.061  17.422   4.555
14553W        W86978  41.772  13.443   2.345
14554W        W86979   7.820  25.212   3.256
14555W        W86980   4.839  29.279  12.954
14556W        W86981   3.609  43.401   4.551
14557W        W86982  39.319   9.371  13.862
14558W        W86983  34.467  16.225   1.445
14559W        W86984  33.055  14.004  14.417
14560W        W86985  38.401  26.645  12.913
14561W        W86986  21.017  39.612   3.918
14562W        W86987  20.949  23.065  12.062
14563W        W86988  36.647  27.190   0.850
14564W        W86989  13.910  25.356  11.008
14565W        W86990   4.901  31.330  12.185
14566W        W86991  11.713  36.978  13.461
14567W        W86992  42.484  17.327   3.265
14568W        W86993  40.318  20.253  12.971
14569W        W86994  16.540  12.100  12.074
14570W        W86995  22.201  43.952   2.728
14571W        W86996  31.897  11.117   4.617
14572W        W86997  43.736  22.041   4.530
14573W        W86998   7.341  35.223  12.554
14574W        W86999  26.595  12.237  13.089
14575W        W87000  20.264   3.030  11.121
14576W        W87001   8.753  15.809  12.921
14577W        W87002  17.064  43.920  14.418
14578W        W87003  35.438  24.135   3.667
14579W        W87004   0.100   2.815  12.841
14580W        W87005  23.140  40.568   2.824
14581W        W87006  31.783  16.255  11.701
14582W        W87007  19.631   3.315  10.903
14583W        W87008   1.814   8.665   4.325
14584W        W87009   6.076  38.846   3.752
14585W        W87010  18.210  23.308  11.450
14586W        W87011  27.920  13.101   1.935
14587W        W87012  31.415  41.631   0.227
14588W        W87013  39.385   8.790   3.891
14589W        W87014  12.889  35.539   1.761
14590W        W87015  21.373  24.006  12.134
14591W        W87016  29.505   6.706   4.916
14592W        W87017  26.189   4.363   1.100
14593W        W87018   1.191   3.597  13.458
14594W        W87019  41.129  23.218   2.220
14595W        W87020  34.814  21.109   0.887
14596W        W87021  37.163  37.112  11.430
14597W        W87022  32.973  19.736   4.004
14598W        W87023  27.199  36.862   4.242
14599W        W87024  34.297  14.642   0.536
14600W        W87025   3.817  26.042  11.280
14601W        W87026  10.322  43.746   1.882
14602W        W87027  44.921  20.183  13.371
14603W        W87028  13.729  16.228  10.702
14604W        W87029   8.591   5.941  13.115
14605W        W87030  26.091  27.635  14.078
14606W        W87031  10.294  21.574   4.377
14607W        W87032   6.094  32.077   0.849
14608W        W87033  30.626   9.311  13.991
14609W        W87034  16.449  24.201   3.911
14610W        W87035   9.299  25.534   0.537
14611W        W87036  34.095   4.447   2.225
14612W        W87037  17.308   5.986   0.945
14613W        W87038  16.656   0.705  11.196
14614W        W87039  41.102   9.306  11.450
14615W        W87040  13.093  44.099   1.788
14616W        W87041  44.742  11.928  13.631
14617W        W87042   9.114  23.127   2.756
14618W        W87043   7.440  10.268  14.308
14619W        W87044  10.360  14.732   1.785
14620W        W87045  21.819  12.279  14.439
14621W        W87046  30.198  43.018   3.278
14622W        W87047  27.010  34.086   4.869
14623W        W87048  44.343  35.984  13.636
14624W        W87049  22.211   2.694   0.265
14625W        W87050   5.414   0.191   4.588
14626W        W87051  21.077  19.793   2.132
14627W        W87052  22.136  32.608  12.424
14628W        W87053  14.921  24.369   3.379
14629W        W87054   2.920  40.553  12.461
14630W        W87055  17.045  38.519   2.838
14631W        W87056  27.427  27.168  12.142
14632W        W87057  42.399  38.810  13.360
14633W        W87058   6.986  23.804   0.195
14634W        W87059  34.134  22.054   3.244
14635W        W87060   7.171  42.879  13.782
14636W        W87061  22.206  17.618   4.175
14637W        W87062  11.909  13.078  11.142
14638W        W87063   7.693   7.908   1.663
14639W        W87064   2.315  24.265  11.153
14640W        W87065  15.379   3.385   3.311
14641W        W87066  28.184   7.811   0.408
14642W        W87067   0.819  29.623   4.605
14643W        W87068  42.768  43.326  11.932
14644W        W87069   8.857  42.925   3.037
14645W        W87070  37.168   9.109   0.370
14646W        W87071  12.747   3.200  11.991
14647W        W87072  34.309  33.721   0.400
14648W        W87073  33.873  23.031   4.677
14649W        W87074  36.571  20.974   2.863
14650W        W87075  16.289   1.388  13.331
14651W        W87076  33.599   6.387   4.477
14652W        W87077  28.797  10.705  14.944
14653W        W87078  41.522  41.560  14.108
14654W        W87079  42.235   9.942   0.814
14655W        W87080  25.003  42.828  13.444
14656W        W87081   1.849   7.404   1.776
14657W        W87082  40.507  40.989  13.058
14658W        W87083  43.489  32.347   3.398
14659W        W87084   2.995  23.499  12.269
14660W        W87085  15.363  28.550   4.523
14661W        W87086  35.162  32.968  12.045
14662W        W87087  42.075  29.528  10.619
14663W        W87088  16.784  44.094   1.391
14664W        W87089  23.823  12.380  11.755
14665W        W87090  23.739  11.657   5.193
14666W        W87091   7.478  19.092  11.137
14667W        W87092  11.721  39.993  14.863
14668W        W87093  36.941  15.061  12.814
14669W        W87094  15.971  40.219   9.761
14670W        W87095  42.522  27.690  10.942
14671W        W87096  30.928   3.194   2.220
14672W        W87097  18.551  11.664   3.738
14673W        W87098   5.680  19.606   4.200
14674W        W87099  21.793   5.370  13.865
14675W        W87100   7.456  14.583  14.850
14676W        W87101  38.493  32.371  11.843
14677W        W87102  25.668  19.028  13.080
14678W        W87103  14.653   2.721  11.531
14679W        W87104  16.157  34.408   3.727
14680W        W87105  27.494   0.520  14.341
14681W        W87106  13.377  24.559   0.828
14682W        W87107   8.128   1.872   0.137
14683W        W87108  33.351  27.106   3.706
14684W        W87109  30.363   9.905   3.805
14685W        W87110  32.391   4.938  14.222
14686W        W87111  35.310  44.335   1.188
14687W        W87112  38.045  44.283   1.341
14688W        W87113   2.480  12.701  11.928
14689W        W87114  15.230  22.749  13.093
14690W        W87115  24.057  14.653   4.176
14691W        W87116  44.719  43.460   2.797
14692W        W87117  34.901  31.978   4.557
14693W        W87118   1.783  14.103   0.817
14694W        W87119  42.873  18.988  11.660
14695W        W87120  11.279  15.738  12.183
14696W        W87121   5.804  42.338  11.305
14697W        W87122  20.564  18.590   4.473
14698W        W87123  14.229  25.657   1.799
14699W        W87124  23.698  16.756  13.589
14700W        W87125  13.655  14.418  10.623
14701W        W87126  41.408   7.075  12.081
14702W        W87127  12.129  34.045   0.130
14703W        W87128  39.016  23.946  10.246
14704W        W87129  37.333  33.151  14.852
14705W        W87130   0.062  37.710  12.130
14706W        W87131  44.340   4.215   1.790
14707W        W87132  43.076  31.590  11.495
14708W        W87133   7.739   4.844  14.098
14709W        W87134  37.015  27.504   1.469
14710W        W87135  27.189  11.194  11.898
14711W        W87136  10.340  43.283   2.759
14712W        W87137  40.747  21.534   5.082
14713W        W87138   2.121  42.959  11.493
14714W        W87139  12.172  23.548   4.511
14715W        W87140  18.388  10.169  12.037
14716W        W87141  41.431  23.616  14.936
14717W        W87142  40.236  28.412  10.640
14718W        W87143  42.706   6.928   4.161
14719W        W87144  17.663  43.285   2.700
14720W        W87145  28.482  24.734  12.091
14721W        W87146  16.685  31.517   1.250
14722W        W87147   0.904  28.466   3.103
14723W        W87148   5.476  16.201   1.606
14724W        W87149  14.070  26.073  11.123
14725W        W87150  37.742  11.310  13.216
14726W        W87151  43.931  13.361   1.303
14727W        W87152  23.022   5.999  11.993
14728W        W87153   1.708  18.894  13.809
14729W        W87154  23.049  28.535  11.084
14730W        W87155  10.309  34.514  13.806
14731W        W87156  28.753  27.738  14.852
14732W        W87157  43.306  10.795   3.975
14733W        W87158  34.159  10.084  13.771
14734W        W87159   6.146  18.167   0.753
14735W        W87160  43.433  16.580   0.061
14736W        W87161  43.912   3.452   4.634
14737W        W87162   9.693  12.843  11.262
14738W        W87163  34.030   2.938   4.124
14739W        W87164  35.959  21.295   4.062
14740W        W87165  32.488  19.160   3.085
14741W        W87166  15.830  16.203   4.645
14742W        W87167  28.646   1.794   3.363
14743W        W87168  40.470  35.011   3.655
14744W        W87169  27.213   7.308  14.344
14745W        W87170  23.470  42.777   2.350
14746W        W87171  42.509  28.219  13.283
14747W        W87172  31.448  11.640   0.000
14748W        W87173  12.224  43.064   4.148
14749W        W87174  25.511  31.854   9.903
14750W        W87175   2.236   9.713   4.895
14751W        W87176  21.463  34.718   2.271
14752W        W87177  42.834  10.381  12.380
14753W        W87178  26.696  29.109  11.078
14754W        W87179  12.423   6.831  10.954
14755W        W87180   4.255  26.183   0.334
14756W        W87181  26.657   7.948   2.395
14757W        W87182  32.407  17.691   2.113
14758W        W87183  39.430  43.907  10.843
14759W        W87184  23.704  17.690  13.038
14760W        W87185  24.282  25.674  11.228
14761W        W87186   4.989  10.972  14.046
14762W        W87187   9.752   2.225  13.015
14763W        W87188  21.198   5.168   0.582
14764W        W87189  12.167  21.621   3.732
14765W        W87190  24.998  18.623  10.841
14766W        W87191   8.622  24.938  10.242
14767W        W87192  30.497   1.046  11.935
14768W        W87193  24.755  14.283   3.765
14769W        W87194   3.082  37.495  11.132
14770W        W87195   9.726  10.096  14.309
14771W        W87196   8.863  43.556   0.952
14772W        W87197  43.182  42.420  13.430
14773W        W87198  23.123   7.136   3.668
14774W        W87199  27.989  40.242  12.872
14775W        W87200   2.740  12.651  12.415
14776W        W87201  30.148  38.995   0.130
14777W        W87202  36.979  36.424  13.604
14778W        W87203  13.629  31.995  12.520
14779W        W87204   0.996  21.280  14.573
14780W        W87205  24.111   0.380   2.848
14781W        W87206  28.664  42.873   3.262
14782W        W87207  42.569   2.114  12.173
14783W        W87208  12.242  10.127  13.910
14784W        W87209  37.576  40.496   4.164
14785W        W87210  34.879  17.743  12.891
14786W        W87211  22.935  25.113  13.996
14787W        W87212   7.527  38.141   3.417
14788W        W87213   9.406  17.131  11.495
14789W        W87214  10.720  16.076   1.969
14790W        W87215  15.113  39.893   0.563
14791W        W87216   9.284  36.951  14.347
14792W        W87217   1.388  28.435  13.997
14793W        W87218  18.327  19.155  14.872
14794W        W87219   3.988  42.011   3.720
14795W        W87220  38.920  14.729  13.423
14796W        W87221  31.489   9.748   4.550
14797W        W87222   0.263   6.449  10.447
14798W        W87223   2.948  43.499  10.558
14799W        W87224   8.001  13.691  14.636
14800W        W87225  39.661  26.680   0.996
14801W        W87226  39.036  17.514  12.519
14802W        W87227  38.011  38.805   0.451
14803W        W87228  15.552   0.906  13.450
14804W        W87229  12.076  26.448   0.411
14805W        W87230  15.180  31.654  10.567
14806W        W87231   7.754  42.320   3.341
14807W        W87232   3.378  23.991   2.673
14808W        W87233   4.859  44.865  14.878
14809W        W87234  27.375  43.811   0.816
14810W        W87235  16.519  11.794  14.591
14811W        W87236  35.570  30.132   1.283
14812W        W87237   6.309   5.525  11.035
14813W        W87238  36.149   8.123   4.419
14814W        W87239  21.622  11.145   4.233
14815W        W87240  11.118  42.602  14.683
14816W        W87241  40.870  30.414  10.924
14817W        W87242  13.761   5.600   0.315
14818W        W87243  28.858  12.116   0.468
14819W        W87244  14.071  39.020   3.660
14820W        W87245  35.812   3.744   3.146
14821W        W87246  31.047   1.813   4.464
14822W        W87247  31.688  42.728  13.450
14823W        W87248  36.722   8.418   3.689
14824W        W87249  20.487  36.286  14.762
14825W        W87250  27.789  30.671  12.910
14826W        W87251  43.112  32.613   5.098
14827W        W87252  37.057  41.298  11.069
14828W        W87253   4.424  40.361  11.454
14829W        W87254  26.349  10.720   0.543
14830W        W87255  17.378  35.907   1.978
14831W        W87256  37.553  32.169  12.927
14832W        W87257   9.341  12.268  14.832
14833W        W87258   1.038  20.033  10.586
14834W        W87259   8.867  28.505  12.678
14835W        W87260  38.289   2.910  12.576
14836W        W87261  32.152  24.676  14.871
14837W        W87262  44.581  29.186   4.078
14838W        W87263  33.051  43.058   4.077
14839W        W87264  28.972   3.397  12.939
14840W        W87265  25.301  15.373   2.704
14841W        W87266   9.453  21.596   1.092
14842W        W87267  40.012  13.170  12.044
14843W        W87268   1.686  21.702  14.583
14844W        W87269  39.496  41.952   4.789
14845W        W87270  24.218  29.843   0.432
14846W        W87271  11.323  24.569   1.176
14847W        W87272  44.382   1.491  13.977
14848W        W87273   1.837  34.974   4.232
14849W        W87274  12.074  26.522   1.724
14850W        W87275  33.362  12.704   3.198
14851W        W87276  20.832  28.204   3.283
14852W        W87277  33.900   6.784   0.953
14853W        W87278  42.229  10.250   4.656
14854W        W87279  15.138  34.364   2.292
14855W        W87280  36.521  41.859  11.478
14856W        W87281  38.860  12.403   2.247
14857W        W87282  37.577  13.230  12.900
14858W        W87283  10.414  16.538   0.843
14859W        W87284  43.023  37.071   3.521
14860W        W87285  14.609  36.403   1.786
14861W        W87286   6.244  35.748  11.238
14862W        W87287  21.771  33.448   3.265
14863W        W87288  20.204  41.346  13.105
14864W        W87289  10.860  17.221  10.633
14865W        W87290  38.480  40.514   1.798
14866W        W87291  25.416  25.490   1.229
14867W        W87292  22.660   0.054   1.958
14868W        W87293  44.009  43.442  10.738
14869W        W87294  35.210  36.518   1.747
14870W        W87295   2.338  13.705  13.915
14871W        W87296  39.463  19.989  12.436
14872W        W87297  11.570   1.224   4.424
14873W        W87298  18.632  32.692  13.386
14874W        W87299   5.926  36.487  12.351
14875W        W87300  16.375   7.881   1.415
14876W        W87301  17.290   6.682   2.706
14877W        W87302  41.985   4.758   4.576
14878W        W87303  43.293  18.012   4.123
14879W        W87304  34.151  42.275  11.616
14880W        W87305   8.245  22.933   1.436
14881W        W87306  39.323  20.327   4.423
14882W        W87307  10.399  16.147  12.064
14883W        W87308  33.201  25.907   3.837
14884W        W87309   4.328   0.796   3.372
14885W        W87310  22.495  27.553   3.173
14886W        W87311  35.499  32.482  14.852
14887W        W87312  14.148  12.733   3.717
14888W        W87313  23.487  26.920  11.608
14889W        W87314  17.947  31.371   0.844
14890W        W87315  24.826  32.250   2.957
14891W        W87316   2.733  36.087   2.165
14892W        W87317  19.068  24.789  12.826
14893W        W87318  12.351  25.718  14.369
14894W        W87319  43.358  26.545  10.968
14895W        W87320  25.223  25.540   3.316
14896W        W87321  43.727  33.503   3.868
14897W        W87322  13.142   3.422  14.760
14898W        W87323  36.590   3.182   4.057
14899W        W87324  15.242  43.669   2.864
14900W        W87325  41.931  22.566   2.812
14901W        W87326  39.427  34.353  11.590
14902W        W87327  28.202   4.141  12.884
14903W        W87328   3.253   6.272   4.633
14904W        W87329  19.252  36.026  14.473
14905W        W87330  11.411  30.974  12.736
14906W        W87331  10.378  34.839  13.425
14907W        W87332  42.886  38.833  12.892
14908W        W87333  26.752  41.967   4.525
14909W        W87334  21.607   8.545   2.309
14910W        W87335  15.144  26.646  11.220
14911W        W87336  29.140  14.532   2.813
14912W        W87337  25.913   9.374  13.121
14913W        W87338  39.539  29.667   4.131
14914W        W87339  16.254  12.495  14.253
14915W        W87340  17.110  32.480  10.619
14916W        W87341  36.092  44.250   3.687
14917W        W87342  30.634  41.523   9.736
14918W        W87343   7.315  40.712  14.951
14919W        W87344  28.143  12.929  10.375
14920W        W87345   9.257   5.298   1.614
14921W        W87346  41.313  25.719  14.292
14922W        W87347   5.284  39.802   0.021
14923W        W87348   5.699  43.285   4.678
14924W        W87349  15.340  30.474   1.755
14925W        W87350  26.555   4.275  14.796
14926W        W87351  17.149  19.795   4.108
14927W        W87352  35.111  34.111  13.431
14928W        W87353  41.032  42.378   1.819
14929W        W87354  28.403  23.977  14.345
14930W        W87355   3.388  20.153   4.366
14931W        W87356   5.461  36.906   2.841
14932W        W87357   4.255  20.025  10.607
14933W        W87358   0.318  22.977   1.665
14934W        W87359   6.793   5.196  12.896
14935W        W87360  24.672  23.279  13.327
14936W        W87361   5.910   4.363  14.466
14937W        W87362  40.716   7.908   4.706
14938W        W87363   1.551  33.935   4.267
14939W        W87364  12.561  20.176  14.955
14940W        W87365   0.991  38.859  14.531
14941W        W87366  39.968  39.604   2.836
14942W        W87367  14.322   3.665   4.871
14943W        W87368  22.586   7.217  14.553
14944W        W87369  30.638  32.921  12.880
14945W        W87370  40.283  43.135  11.169
14946W        W87371  24.039   2.494  12.071
14947W        W87372   1.493  19.607   3.240
14948W        W87373  30.910  42.951  11.276
14949W        W87374   1.270  36.176  14.586
14950W        W87375  14.373  40.059   4.482
14951W        W87376  31.987  22.551   3.553
14952W        W87377   4.327  13.253   4.656
14953W        W87378  40.762  22.805   0.182
14954W        W87379  44.134  24.121   3.610
14955W        W87380  41.989   9.128  14.891
14956W        W87381  12.675  22.221  11.448
14957W        W87382  35.411  27.562  10.978
14958W        W87383  14.722  21.555   1.708
14959W        W87384   2.330  34.478   0.768
14960W        W87385  15.614  25.755   3.230
14961W        W87386  28.853  17.102   1.422
14962W        W87387  25.034  40.400  12.146
14963W        W87388  27.921   2.870  14.683
14964W        W87389  23.750  32.428  10.647
14965W        W87390  35.565  36.466   4.555
14966W        W87391  34.334  44.522   1.411
14967W        W87392   0.963  15.219   2.786
14968W        W87393   3.372  42.130   4.343
14969W        W87394   2.092   6.641  12.826
14970W        W87395  28.386  36.187   3.879
14971W        W87396  11.844  20.975   3.062
14972W        W87397  20.809   1.778  11.093
14973W        W87398  14.125  28.167   1.396
14974W        W87399  43.853  34.445  11.043
14975W        W87400   2.483  10.125   0.534
14976W        W87401  32.339  36.370   2.783
14977W        W87402  19.250  15.373  13.330
14978W        W87403   8.185  37.952  12.833
14979W        W87404  35.482  15.768  11.560
14980W        W87405  43.866  37.739  10.994
14981W        W87406  42.666  29.507  10.683
14982W        W87407   3.596  38.405   1.738
14983W        W87408  15.309  27.898   1.782
14984W        W87409  11.282  20.634  13.843
14985W        W87410   6.893   1.470  12.601
14986W        W87411   2.335  21.271   5.015
14987W        W87412  15.385   4.352   0.193
14988W        W87413  22.164  35.344  14.610
14989W        W87414  13.766  21.433   3.588
14990W        W87415  29.612  26.814  12.029
14991W        W87416  43.483  31.157   0.701
14992W        W87417  44.860  41.375  12.013
14993W        W87418  29.853  17.771  14.236
14994W        W87419  15.603  39.392   3.200
14995W        W87420   0.893   9.946   0.511
14996W        W87421  17.572  39.516  11.132
14997W        W87422  15.662  32.504   0.281
14998W        W87423  36.443   8.841   4.392
14999W        W87424  30.956   8.262   4.790
15000W        W87425  42.418  28.283  11.503
15001W        W87426  43.951  12.759  12.096
15002W        W87427  42.346  31.531  11.159
15003W        W87428  22.657   6.692  11.609
15004W        W87429  22.704  26.841  11.570
15005W        W87430  42.764  13.352   1.412
15006W        W87431  41.761  44.306  12.983
15007W        W87432  27.677  26.067  14.867
15008W        W87433  12.899   7.902  12.397
15009W        W87434   1.042  37.137  12.154
15010W        W87435  26.958  36.467   2.808
15011W        W87436  43.503  21.216   5.418
15012W        W87437  21.291  37.307   4.781
15013W        W87438  16.970   5.243   2.997
15014W        W87439  28.276  33.480   2.658
15015W        W87440  19.307  16.153   1.353
15016W        W87441  15.245  34.628   1.375
15017W        W87442  34.617  12.122  11.505
15018W        W87443  41.962  36.668  11.345
15019W        W87444  31.110  37.900   4.602
15020W        W87445  23.093  41.579  11.136
15021W        W87446  13.858  13.689   1.714
15022W        W87447   5.401   0.587   3.813
15023W        W87448  30.978  12.165  12.156
15024W        W87449   4.822  18.032  12.027
15025W        W87450   8.943  21.719  12.532
15026W        W87451  41.824   6.839   4.341
15027W        W87452  34.939  14.217  13.625
15028W        W87453  38.257  29.944  12.901
15029W        W87454   4.334  25.068  11.900
15030W        W87455   4.305  32.129   4.550
15031W        W87456  34.498   8.344  11.664
15032W        W87457   7.290   5.730   3.728
15033W        W87458  19.612  41.587  12.302
15034W        W87459  27.617  42.996   5.044
15035W        W87460  15.724   5.491   3.930
15036W        W87461  24.679   6.408   1.679
15037W        W87462   6.225  10.654   2.777
15038W        W87463  33.033   0.993  12.020
15039W        W87464  31.668   0.820  12.506
15040W        W87465  39.411  32.896  12.357
15041W        W87466  39.806  39.614   3.656
15042W        W87467  38.236  40.664  12.875
15043W        W87468   7.736  14.382  10.376
15044W        W87469   5.142  42.826   1.688
15045W        W87470   3.279  13.281   1.662
15046W        W87471  38.951  37.572  11.972
15047W        W87472  15.570  11.170  10.749
15048W        W87473  22.500  11.068   2.659
15049W        W87474  40.414  35.114   0.722
15050W        W87475   7.165  41.432  10.792
15051W        W87476   8.711  14.049   0.026
15052W        W87477   5.421  44.000  13.916
15053W        W87478  28.566   1.604   4.736
15054W        W87479  35.628   3.781   4.771
15055W        W87480  17.286  11.320   3.680
15056W        W87481   9.005   7.614   2.426
15057W        W87482  12.805   1.526   4.320
15058W        W87483  10.294  10.765   1.848
15059W        W87484  12.288   0.150   0.568
15060W        W87485  20.154  36.714  14.740
15061W        W87486  23.696  20.757   1.205
15062W        W87487  13.290  21.243   1.990
15063W        W87488  41.315  37.596  14.056
15064W        W87489  24.718  19.758  13.772
15065W        W87490  20.906  12.424  13.078
15066W        W87491  19.266  16.881  12.481
15067W        W87492   6.543   5.510   3.638
15068W        W87493  21.103  22.440   4.957
15069W        W87494  42.519  19.315   9.941
15070W        W87495  11.467  43.415  10.639
15071W        W87496  20.586  12.694   2.601
15072W        W87497   7.980  39.073   3.593
15073W        W87498  20.676  43.926   4.787
15074W        W87499  12.104  42.723  11.978
15075W        W87500  41.361  34.941   4.615
15076W        W87501  36.181  32.970  14.096
15077W        W87502  28.717   8.435  14.731
15078W        W87503   0.314  24.041  13.162
15079W        W87504  21.458  24.207   2.102
15080W        W87505  32.472  28.617  13.177
15081W        W87506  37.973  16.327  13.255
15082W        W87507  31.776  22.327   4.371
15083W        W87508  31.092  34.558   2.269
15084W        W87509  22.869   6.137  13.979
15085W        W87510  25.423  21.276   1.692
15086W        W87511  14.619   7.623  14.026
15087W        W87512   8.536   2.468   4.125
15088W        W87513   3.797  29.441   3.368
15089W        W87514  43.307   6.414   1.650
15090W        W87515   7.340  37.052   4.740
15091W        W87516   7.226  27.500   4.103
15092W        W87517  35.358  36.926   4.383
15093W        W87518  35.893  16.702  12.939
15094W        W87519   6.904  13.138  11.578
15095W        W87520  32.572   8.503   3.702
15096W        W87521   2.325  34.319   1.798
15097W        W87522  15.113  41.429   0.357
15098W        W87523  27.669   6.670   3.391
15099W        W87524   0.499  38.615   0.463
15100W        W87525  13.083  44.171  13.377
15101W        W87526  25.081  17.565  12.413
15102W        W87527  29.375   9.409   1.801
15103W        W87528  40.419   9.877   3.223
15104W        W87529  33.782   6.228  11.079
15105W        W87530   2.687   0.442   1.333
15106W        W87531  41.706  19.512   0.358
15107W        W87532  15.611  21.812   3.723
15108W        W87533  44.408  11.241   3.629
15109W        W87534  40.381   1.809  10.375
15110W        W87535  21.644  31.476  12.375
15111W        W87536  41.487   1.929   4.702
15112W        W87537  30.230  28.167  12.635
15113W        W87538   7.758  43.258   0.460
15114W        W87539  43.255  31.463   1.426
15115W        W87540  34.095  41.575   2.662
15116W        W87541  19.765  11.113   2.047
15117W        W87542  26.907  27.194   1.936
15118W        W87543  39.046   9.886  13.137
15119W        W87544  44.852  24.218  13.002
15120W        W87545  11.891  23.086   0.686
15121W        W87546  30.187  42.893   2.743
15122W        W87547   2.456   2.869  10.530
15123W        W87548   5.379  41.757  14.794
15124W        W87549  26.204  37.361  13.058
15125W        W87550  38.440  19.691   4.644
15126W        W87551   8.114   7.736   1.420
15127W        W87552  13.689  21.594  13.493
15128W        W87553  14.348   2.819   3.740
15129W        W87554  15.221  18.276   0.765
15130W        W87555  30.474  10.060   3.175
15131W        W87556  43.569   9.359   4.454
15132W        W87557  43.114   1.500  11.678
15133W        W87558  28.541  40.789   0.646
15134W        W87559   0.859  41.501   1.391
15135W        W87560  34.397  23.548   3.251
15136W        W87561  22.901  38.941  12.918
15137W        W87562  37.538  44.291  14.079
15138W        W87563  44.514  13.091   0.350
15139W        W87564   0.342  16.962  11.144
15140W        W87565   4.711  32.971  11.655
15141W        W87566   4.053  12.620  10.399
15142W        W87567  20.148   1.704  10.751
15143W        W87568  20.811  15.794  14.764
15144W        W87569   4.772  16.519   0.854
15145W        W87570  33.376   9.536   4.066
15146W        W87571  39.827  29.214  12.052
15147W        W87572  38.261  39.929  13.021
15148W        W87573   9.495  41.558  12.134
15149W        W87574  20.204  18.379   2.114
15150W        W87575  39.059   0.328  14.324
15151W        W87576   8.673  40.081  14.052
15152W        W87577  40.449  18.879   4.359
15153W        W87578  21.745  14.523   3.063
15154W        W87579  41.455  41.246  12.315
15155W        W87580  27.188  21.227  12.240
15156W        W87581  35.303  26.666   4.114
15157W        W87582  42.459  26.167  12.459
15158W        W87583   2.444  41.842  12.999
15159W        W87584   7.448   9.296  11.611
15160W        W87585  12.105   0.340  10.403
15161W        W87586  11.878   3.808   2.293
15162W        W87587  44.691   8.757  10.459
15163W        W87588   4.259  21.917  11.845
15164W        W87589  41.095  20.077  13.470
15165W        W87590  23.634  23.724  13.878
15166W        W87591  31.020  11.657  12.164
15167W        W87592  10.184  23.215   3.768
15168W        W87593   1.480  31.004   0.857
15169W        W87594  44.926  30.527   4.181
15170W        W87595   6.870  32.642  11.965
15171W        W87596  11.332  13.108   1.409
15172W        W87597   8.415   8.887  13.007
15173W        W87598  23.151  34.553   3.811
15174W        W87599  14.587  10.360  11.825
15175W        W87600  28.754  30.033   2.384
15176W        W87601  12.635  28.082  12.011
15177W        W87602  35.312  35.826   1.167
15178W        W87603  18.304  42.792   2.743
15179W        W87604   7.602  28.718  10.253
15180W        W87605  38.805  16.183  10.409
15181W        W87606  24.603  32.019   4.323
15182W        W87607  24.158  40.603   0.889
15183W        W87608  22.349   0.967  14.877
15184W        W87609  14.850  44.186   4.534
15185W        W87610   2.983  20.653   1.775
15186W        W87611  29.035  35.975   0.241
15187W        W87612  19.247  39.037  12.854
15188W        W87613   8.835  43.441  11.736
15189W        W87614   4.496  12.737  14.133
15190W        W87615  40.333   9.209  13.866
15191W        W87616  44.701  43.625   3.618
15192W        W87617  40.574  33.896  12.354
15193W        W87618  42.781  29.598   0.364
15194W        W87619  37.485   6.979   3.775
15195W        W87620  23.041  26.242   1.757
15196W        W87621   2.034  30.123  13.971
15197W        W87622  29.981  43.432  13.727
15198W        W87623   7.268  11.302   0.305
15199W        W87624  34.945  12.308  13.712
15200W        W87625  37.144  42.901  13.111
15201W        W87626   1.943  25.989  14.954
15202W        W87627  41.395  18.795   2.147
15203W        W87628   3.201   7.277   1.253
15204W        W87629  41.959  29.988  10.867
15205W        W87630  33.151  44.073   3.226
15206W        W87631  12.721   2.356   0.046
15207W        W87632  41.021  36.642  14.942
15208W        W87633  42.309  23.744   0.286
15209W        W87634  33.682   9.932  13.547
15210W        W87635  19.178   7.889  14.278
15211W        W87636  12.301  19.984   2.257
15212W        W87637  19.244  20.655   0.475
15213W        W87638  36.328   7.334  14.904
15214W        W87639   4.666  37.510   1.502
15215W        W87640  34.112  14.292   0.196
15216W        W87641  26.259  43.815  10.907
15217W        W87642  43.346  22.171  12.365
15218W        W87643  31.961  16.336   1.008
15219W        W87644  29.491   0.405  14.506
15220W        W87645   8.361  42.476   1.568
15221W        W87646  17.195  24.453   0.954
15222W        W87647   8.364   1.965  11.730
15223W        W87648  27.025   4.284   3.320
15224W        W87649   8.761   3.637   2.681
15225W        W87650  27.573  39.484  12.972
15226W        W87651   4.017  11.754  11.533
15227W        W87652  40.877  16.147  14.366
15228W        W87653  30.081  33.987  12.102
15229W        W87654  24.630  37.401  11.111
15230W        W87655  27.712  23.281  14.457
15231W        W87656  41.968  16.884  13.283
15232W        W87657  34.015  43.132  14.912
15233W        W87658  17.363  34.957  11.441
15234W        W87659   5.160  36.856  12.688
15235W        W87660  41.612   3.839   2.655
15236W        W87661   9.663  18.764  10.843
15237W        W87662  12.757  14.774   2.144
15238W        W87663  40.012  38.579  13.812
15239W        W87664  28.193  14.263  10.535
15240W        W87665  42.547  23.535  10.420
15241W        W87666  11.201   8.829  14.708
15242W        W87667  21.470  28.062  12.046
15243W        W87668  29.528  26.707  14.111
15244W        W87669  34.718  19.722  13.492
15245W        W87670  42.330  38.477   1.182
15246W        W87671  41.912  42.004   2.381
15247W        W87672  39.479  42.434   0.497
15248W        W87673  15.560   6.365  13.894
15249W        W87674  43.818  37.352  14.585
15250W        W87675  38.332   0.758   1.278
15251W        W87676  30.039   2.957   0.830
15252W        W87677  40.793  31.871   3.700
15253W        W87678   9.813  19.180   4.156
15254W        W87679  41.812  25.455   1.002
15255W        W87680  39.365  35.968  13.431
15256W        W87681  35.846   1.134   3.834
15257W        W87682   8.413  10.718   2.788
15258W        W87683   1.417   4.784  12.700
15259W        W87684  23.936  26.639   0.506
15260W        W87685  24.991   1.335   1.773
15261W        W87686  17.371  26.935   2.410
15262W        W87687  13.073   3.796  14.015
15263W        W87688  29.583   9.254   2.247
15264W        W87689  25.375  10.371  12.665
15265W        W87690   1.044   3.251   3.838
15266W        W87691   1.437  26.693   4.870
15267W        W87692  12.646   4.161  12.509
15268W        W87693  19.740  19.063   2.390
15269W        W87694  15.742  16.333   1.889
15270W        W87695  23.125  26.849  12.984
15271W        W87696  40.171  15.278  13.955
15272W        W87697  29.926  31.497   0.460
15273W        W87698  30.495   8.092   1.758
15274W        W87699  17.977  20.265  10.797
15275W        W87700  39.520   0.646  12.779
15276W        W87701  26.213  36.440  11.223
15277W        W87702  27.426  42.072   3.693
15278W        W87703  33.827  24.453  10.781
15279W        W87704  11.641  26.540  13.755
15280W        W87705  33.134  38.914   3.629
15281W        W87706   8.635  27.082   0.317
15282W        W87707   7.714  25.326  10.281
15283W        W87708   2.282  18.757   5.005
15284W        W87709  16.514  34.980   4.551
15285W        W87710  18.408  44.791  13.614
15286W        W87711  24.025  33.921   0.386
15287W        W87712  16.261  10.581   4.694
15288W        W87713  40.251   7.946  13.372
15289W        W87714  33.782  27.947  10.296
15290W        W87715  37.976  36.288  13.922
15291W        W87716  30.216  30.723  14.999
15292W        W87717  38.577  26.218  13.866
15293W        W87718  14.331  36.903   2.525
15294W        W87719  32.134  14.084  14.076
15295W        W87720   1.665  11.698  12.039
15296W        W87721  15.141  29.477  13.288
15297W        W87722  38.104  10.643   2.263
15298W        W87723  36.351  16.637  14.238
15299W        W87724  21.505  30.847  13.961
15300W        W87725   3.666  34.721   4.136
15301W        W87726  13.671  32.189   0.412
15302W        W87727  38.580  23.626  14.464
15303W        W87728  12.669  34.894  12.489
15304W        W87729  33.632   4.530  14.085
15305W        W87730  36.799  14.094   9.628
15306W        W87731   5.086  44.674   0.297
15307W        W87732  43.194  21.844  14.401
15308W        W87733  35.052  19.150   0.739
15309W        W87734  21.048  40.371   2.202
15310W        W87735  13.054  26.512   3.555
15311W        W87736  39.225   9.080  11.085
15312W        W87737  36.852  33.699   1.335
15313W        W87738  21.822  24.004   0.960
15314W        W87739  34.519   0.358  13.002
15315W        W87740  23.273  21.723   4.559
15316W        W87741  38.534  43.051   4.038
15317W        W87742  26.577   1.537   4.098
15318W        W87743   5.969   9.812   1.367
15319W        W87744  10.658  23.560   5.191
15320W        W87745  14.644  23.234   4.570
15321W        W87746  25.818  14.782   1.914
15322W        W87747  34.538  41.445   2.879
15323W        W87748  29.577  32.171  11.962
15324W        W87749  33.737  35.590  12.960
15325W        W87750  17.361   3.507  10.380
15326W        W87751  20.399  11.150   1.497
15327W        W87752   5.855  30.104   0.377
15328W        W87753   8.189  40.313  11.886
15329W        W87754  39.164   2.228  12.880
15330W        W87755  11.147  17.258  14.458
15331W        W87756  12.470  11.294  13.413
15332W        W87757  28.215  30.139   2.389
15333W        W87758   6.700  29.024  14.133
15334W        W87759  11.752  27.867   4.556
15335W        W87760  24.253  41.342  14.768
15336W        W87761  16.499  43.467  13.050
15337W        W87762  31.353  26.101   0.884
15338W        W87763  27.478  19.603   4.467
15339W        W87764  39.433  35.860   3.359
15340W        W87765  12.181  17.585  14.188
15341W        W87766  21.775  40.494   0.993
15342W        W87767   5.076  40.838   1.352
15343W        W87768  13.827   2.170  12.879
15344W        W87769  41.051  16.179  14.852
15345W        W87770  28.784  17.288  14.903
15346W        W87771   8.590  13.357  10.961
15347W        W87772  25.462  25.280  13.551
15348W        W87773  33.630  11.226  12.168
15349W        W87774  32.995  43.240   2.776
15350W        W87775   7.162  40.300   2.023
15351W        W87776  14.547  34.523  11.944
15352W        W87777  24.061  29.795  10.332
15353W        W87778  33.354  21.148  13.944
15354W        W87779  44.387   6.117   0.756
15355W        W87780   4.875  40.144   4.512
15356W        W87781   0.715  20.733   1.932
15357W        W87782  30.539  26.478   4.145
15358W        W87783   2.342  25.475   1.723
15359W        W87784  17.274  32.679   0.487
15360W        W87785  34.311  36.189   4.577
15361W        W87786  38.268  29.426  11.141
15362W        W87787  34.425  12.336  14.415
15363W        W87788  31.920  23.456  11.563
15364W        W87789  16.670   3.625  11.507
15365W        W87790   0.220  40.378  11.565
15366W        W87791  33.619   9.390  12.406
15367W        W87792  24.723  36.362  12.969
15368W        W87793  27.761  41.943  14.179
15369W        W87794  37.259  14.821   5.128
15370W        W87795  44.913  18.656  13.079
15371W        W87796   6.359  42.906   1.371
15372W        W87797   9.841  24.544   4.991
15373W        W87798  44.108  30.430   3.362
15374W        W87799  28.120  37.450   5.203
15375W        W87800  13.463  28.026   3.682
15376W        W87801  23.933  34.004   0.912
15377W        W87802  38.635  37.639  12.429
15378W        W87803  12.148  26.200   3.148
15379W        W87804  44.451  35.492   0.394
15380W        W87805  41.265   9.657  14.760
15381W        W87806   2.951  40.457   2.352
15382W        W87807  37.476   0.324  11.101
15383W        W87808  25.739  33.932  13.347
15384W        W87809  13.897  28.412  11.563
15385W        W87810  28.702   9.576  12.066
15386W        W87811  34.871   3.669   3.136
15387W        W87812  31.681   7.428  13.812
15388W        W87813  30.179   0.270  12.038
15389W        W87814  14.313  23.536   0.765
15390W        W87815  23.198  31.210   1.899
15391W        W87816   1.290   6.980   1.048
15392W        W87817  14.247  42.081   2.082
15393W        W87818   6.731  44.708   3.230
15394W        W87819  13.619   7.729   4.871
15395W        W87820  25.169  22.929  14.262
15396W        W87821  24.306  28.955   3.396
15397W        W87822  44.311  13.559   4.631
15398W        W87823  18.873  33.713  13.396
15399W        W87824  23.065   6.447   2.879
15400W        W87825  32.559  20.762  10.929
15401W        W87826  40.590  19.746  12.065
15402W        W87827  42.305  15.750   2.799
15403W        W87828  34.454  10.314  10.543
15404W        W87829  21.505  34.488   4.845
15405W        W87830   1.527  18.636   4.197
15406W        W87831   6.249  24.046  10.626
15407W        W87832  26.071  10.726  13.628
15408W        W87833   6.270  43.978  10.644
15409W        W87834   5.610   7.490  11.288
15410W        W87835  42.012  36.873   3.924
15411W        W87836  31.354  42.918   1.418
15412W        W87837   7.930  11.359   1.184
15413W        W87838  17.989  19.047   2.663
15414W        W87839  40.706  38.511  13.961
15415W        W87840  38.037  20.038   2.532
15416W        W87841   3.707  14.566  11.591
15417W        W87842  23.950  30.147  14.480
15418W        W87843   8.197  30.370   3.751
15419W        W87844  22.545   5.269  13.378
15420W        W87845  39.539  24.601   2.454
15421W        W87846  44.272   0.881   4.971
15422W        W87847   3.139   5.664  14.520
15423W        W87848   5.636  14.195  12.114
15424W        W87849  10.285  29.207   1.792
15425W        W87850  43.041  40.839   2.362
15426W        W87851  17.667   4.131   3.824
15427W        W87852  17.139   1.493  13.269
15428W        W87853  18.347  17.060   1.814
15429W        W87854   7.924  43.775  13.081
15430W        W87855   1.884  28.540  10.710
15431W        W87856   4.599  38.997  11.911
15432W        W87857  30.902   2.836  10.553
15433W        W87858  35.980   0.389  13.097
15434W        W87859  12.540  38.336  11.992
15435W        W87860  35.599  11.616  11.898
15436W        W87861   0.777   3.706  10.667
15437W        W87862  39.154  38.036   4.234
15438W        W87863  19.242  33.470  13.663
15439W        W87864   2.963  42.670   2.772
15440W        W87865  30.725  21.637   4.685
15441W        W87866  36.384  30.655  13.977
15442W        W87867   9.854  10.685   0.458
15443W        W87868  15.820  35.434   0.445
15444W        W87869  28.699  36.514   2.191
15445W        W87870  27.242  32.402   0.290
15446W        W87871  26.213  17.262   1.724
15447W        W87872   2.086  31.663   2.306
15448W        W87873  29.219  38.756  14.922
15449W        W87874  35.903  26.380   4.801
15450W        W87875   3.292   9.139   2.778
15451W        W87876  33.379  25.652  13.435
15452W        W87877  40.823   6.681   2.209
15453W        W87878  32.722   5.314  10.568
15454W        W87879  25.197  31.893   2.862
15455W        W87880  28.876  28.379  12.399
15456W        W87881  29.950  12.677   4.585
15457W        W87882   3.287   9.859  12.323
15458W        W87883  20.001  31.698  14.378
15459W        W87884  24.075  27.931   4.146
15460W        W87885  24.050  36.879   0.776
15461W        W87886  14.187  17.577  13.004
15462W        W87887  15.684  34.493   4.560
15463W        W87888  34.052  36.501   1.250
15464W        W87889  29.524   8.670  13.702
15465W        W87890  33.197  12.709  12.088
15466W        W87891  28.026  17.870  12.844
15467W        W87892  11.860  19.499   1.211
15468W        W87893  10.824   0.504  14.225
15469W        W87894  25.441  35.083   0.644
15470W        W87895  44.454  33.536   1.800
15471W        W87896  20.243  13.209  13.130
15472W        W87897  37.390  18.430  13.093
15473W        W87898  30.481  23.711   0.240
15474W        W87899  21.518  11.279   2.542
15475W        W87900  44.744  20.778   1.668
15476W        W87901  29.393   7.849  14.771
15477W        W87902  15.144  37.766   3.152
15478W        W87903  16.099  21.287   4.011
15479W        W87904  30.702  35.931  13.551
15480W        W87905   3.371  44.233  14.250
15481W        W87906  12.288  14.810   1.925
15482W        W87907  33.869  24.541   1.080
15483W        W87908  39.338   6.240   4.214
15484W        W87909  34.896  11.698  14.283
15485W        W87910  23.169  29.624   1.250
15486W        W87911   1.062  12.780  11.318
15487W        W87912  24.605  40.896   3.578
15488W        W87913  31.004   4.725   1.921
15489W        W87914  24.672   2.684  11.288
15490W        W87915  37.835  23.500   2.323
15491W        W87916  25.404  10.904   1.540
15492W        W87917  18.133  36.541   1.877
15493W        W87918  34.011   3.211  13.874
15494W        W87919  28.949   5.429  11.367
15495W        W87920  31.122  32.707   1.677
15496W        W87921  28.432  37.699   1.683
15497W        W87922  28.643  43.450   3.696
15498W        W87923  27.029  16.369   2.624
15499W        W87924  43.889  11.679  13.527
15500W        W87925  20.490   0.187  12.478
15501W        W87926   7.482  31.586   0.001
15502W        W87927  12.629   2.265   3.664
15503W        W87928   5.469  17.717  13.073
15504W        W87929   0.751  37.317  13.514
15505W        W87930  25.997  42.391  13.960
15506W        W87931  11.436  20.143   1.451
15507W        W87932  41.543  23.767   0.820
15508W        W87933  44.943  25.199   1.436
15509W        W87934  36.067  24.747  13.867
15510W        W87935  38.581  19.778  14.884
15511W        W87936  11.828  42.764  14.941
15512W        W87937  22.059  17.307  12.477
15513W        W87938  11.278   3.688   1.298
15514W        W87939  30.110  12.797   2.799
15515W        W87940  28.579   9.608   0.482
15516W        W87941   4.314  28.957  10.638
15517W        W87942   3.398  17.897   2.301
15518W        W87943  19.438   2.916  11.542
15519W        W87944  24.626  11.199   5.698
15520W        W87945  28.919  22.666   2.775
15521W        W87946  32.117   7.276   0.662
15522W        W87947   8.190  23.791  10.668
15523W        W87948  19.829  37.403   1.299
15524W        W87949  34.190  22.603   2.859
15525W        W87950  23.025  36.437  10.659
15526W        W87951   5.123   1.816   2.149
15527W        W87952  14.488  30.242   0.910
15528W        W87953  31.203   0.453   5.151
15529W        W87954  14.016  26.803  14.447
15530W        W87955  42.414  29.990  10.609
15531W        W87956  36.295  11.066   2.625
15532W        W87957   1.298   3.779   0.304
15533W        W87958  28.893  25.533   1.883
15534W        W87959   8.288  29.406   3.768
15535W        W87960  17.038  19.266   0.480
15536W        W87961   1.549  42.874  10.884
15537W        W87962  32.670  10.531  11.514
15538W        W87963  27.519  34.738  11.643
15539W        W87964  19.276   5.024  11.915
15540W        W87965  41.737  43.993  10.557
15541W        W87966  31.591  41.493   1.148
15542W        W87967  28.895  43.475  13.372
15543W        W87968  27.561  28.481   4.284
15544W        W87969   9.314  23.632   4.555
15545W        W87970  21.150  43.277   1.707
15546W        W87971   1.410  17.244  11.584
15547W        W87972  40.673  39.827   0.307
15548W        W87973  28.985  36.280   3.329
15549W        W87974  27.173  39.336  10.478
15550W        W87975   0.102  44.973   2.209
15551W        W87976  39.402  15.773  13.318
15552W        W87977  13.118  15.754   2.283
15553W        W87978  42.934   3.449  10.768
15554W        W87979   1.414  42.969   3.974
15555W        W87980  20.605  18.581   3.388
15556W        W87981   6.332  41.493   3.180
15557W        W87982  18.580   5.093  14.739
15558W        W87983   2.745  28.196   2.771
15559W        W87984  32.317  44.674  12.639
15560W        W87985  35.030  20.791  13.984
15561W        W87986  33.053  19.150  13.566
15562W        W87987   1.993   6.415  12.385
15563W        W87988  25.275   5.150   0.939
15564W        W87989  14.275  10.726   4.092
15565W        W87990  10.111   3.877  12.550
15566W        W87991   6.804  10.415   1.953
15567W        W87992  35.162   1.236   1.376
15568W        W87993  31.138  35.169   1.749
15569W        W87994  34.064  10.200   4.088
15570W        W87995  28.127   9.727   0.809
15571W        W87996  31.000  15.742   4.582
15572W        W87997   4.674  27.062  11.281
15573W        W87998  14.037  42.473  10.684
15574W        W87999  35.564  25.942  13.834
15575W        W88000  19.401   5.468   1.879
15576W        W88001  32.023  27.608  12.981
15577W        W88002   7.901  27.496   2.894
15578W        W88003  27.378  24.252  12.933
15579W        W88004  36.038  32.858   2.797
15580W        W88005  11.369  13.393  10.667
15581W        W88006   1.877  33.955  11.337
15582W        W88007  21.316  16.722   1.399
15583W        W88008  35.905   8.964   1.694
15584W        W88009  27.463  24.145   0.906
15585W        W88010  35.172  32.306  12.412
15586W        W88011  17.513  21.732   3.704
15587W        W88012  11.627  24.698   4.890
15588W        W88013  10.271   5.217  13.395
15589W        W88014  36.852  20.945   0.503
15590W        W88015  35.436  36.895   2.648
15591W        W88016  17.525  38.497   3.800
15592W        W88017  23.337  29.661  14.984
15593W        W88018   6.862  10.269  11.948
15594W        W88019  33.822  31.601  14.782
15595W        W88020  44.804   0.039   1.352
15596W        W88021  37.092  43.354   0.407
15597W        W88022  26.385  15.837   3.525
15598W        W88023  11.630   1.346  10.040
15599W        W88024   7.804  44.408   3.132
15600W        W88025  26.225  15.366  10.982
15601W        W88026  11.768   9.432  12.192
15602W        W88027   8.318   1.881   2.895
15603W        W88028  22.906  20.586  12.584
15604W        W88029  13.383  13.248  13.568
15605W        W88030  42.356  40.948  11.830
15606W        W88031  36.757  29.525   0.617
15607W        W88032   6.003  27.981  12.040
15608W        W88033   0.291  25.636  10.674
15609W        W88034   1.700  42.438   0.833
15610W        W88035   9.487  33.927   4.172
15611W        W88036  12.720  26.058   4.717
15612W        W88037  25.747   0.425  10.671
15613W        W88038  12.036  16.508  11.180
15614W        W88039  40.021   2.656  12.055
15615W        W88040  43.537  15.806   4.594
15616W        W88041   6.276  38.805  13.878
15617W        W88042  38.246   8.188   4.990
15618W        W88043  19.710  10.090  13.081
15619W        W88044  44.777  16.641   0.565
15620W        W88045  14.731  20.716   2.155
15621W        W88046  35.853  12.444  12.832
15622W        W88047  18.020   3.381   1.771
15623W        W88048  20.818  38.111  12.943
15624W        W88049  44.573  38.490  12.505
15625W        W88050  37.202  36.067   3.145
15626W        W88051  34.286  44.576   2.307
15627W        W88052  17.050  17.323   2.363
15628W        W88053   2.003   5.185  11.975
15629W        W88054  26.546   1.282   1.283
15630W        W88055  44.786  22.097   3.620
15631W        W88056  11.382   9.676   2.844
15632W        W88057   1.748  44.383  11.251
15633W        W88058  44.415  35.533  12.192
15634W        W88059  20.064  31.841  11.157
15635W        W88060   3.441  22.299  12.888
15636W        W88061  15.744   3.865   4.593
15637W        W88062  34.095   8.286   3.330
15638W        W88063  40.612  25.975  12.113
15639W        W88064  33.431  22.209   3.740
15640W        W88065  40.773  26.129   2.251
15641W        W88066   6.518  34.906  13.298
15642W        W88067  36.906  14.484  10.676
15643W        W88068  20.193  41.056  14.447
15644W        W88069  19.600  38.516  12.613
15645W        W88070  32.855   1.450  12.217
15646W        W88071  11.123  39.727  11.477
15647W        W88072  10.220  22.535  14.025
15648W        W88073  21.745  18.453   1.306
15649W        W88074   4.465  40.003  13.042
15650W        W88075  12.778  37.328   1.776
15651W        W88076   8.370   0.947   0.999
15652W        W88077  38.900  17.307  11.426
15653W        W88078  36.029  18.363  11.142
15654W        W88079  42.988  42.425  12.420
15655W        W88080  27.580   7.867   3.331
15656W        W88081   3.369  22.499   3.197
15657W        W88082  20.904  32.171   4.697
15658W        W88083  36.901  29.753  13.891
15659W        W88084  15.695   4.447   2.458
15660W        W88085  28.549  11.271  13.059
15661W        W88086  41.449  18.088   4.401
15662W        W88087   4.667  10.045   1.392
15663W        W88088  32.050  35.959   0.954
15664W        W88089  33.032  32.367  13.369
15665W        W88090  20.333  21.255  11.568
15666W        W88091  20.612   1.431  10.747
15667W        W88092   8.667  34.526   3.781
15668W        W88093  13.116  42.701   0.325
15669W        W88094  16.260  34.571  13.877
15670W        W88095  12.682  39.008   4.606
15671W        W88096  11.125  42.538   0.692
15672W        W88097  10.956   3.252  12.411
15673W        W88098  11.222  36.752   3.175
15674W        W88099   4.868  25.612  13.102
15675W        W88100  17.549   8.323  10.667
15676W        W88101   1.721   5.474  13.223
15677W        W88102  29.081  43.858   1.370
15678W        W88103  31.601  40.862  11.159
15679W        W88104  13.081   8.587  12.930
15680W        W88105  37.933  42.826   3.464
15681W        W88106   2.313  44.977   4.555
15682W        W88107  39.063  26.547   4.089
15683W        W88108  35.346  35.324  11.437
15684W        W88109   3.316   4.234   2.783
15685W        W88110  20.628   3.457  12.985
15686W        W88111   2.953  43.345  11.478
15687W        W88112  42.707  20.745  10.566
15688W        W88113   4.286   6.160   4.103
15689W        W88114  18.739  17.121   4.204
15690W        W88115  30.111  24.532   2.400
15691W        W88116  39.088  22.301  12.029
15692W        W88117  22.019  10.210  11.944
15693W        W88118  13.728  40.981   1.415
15694W        W88119   2.290  21.131   2.858
15695W        W88120  31.715  18.122   1.228
15696W        W88121   3.523  39.805   1.672
15697W        W88122  41.284  24.131  14.799
15698W        W88123  33.925  34.073  14.968
15699W        W88124  31.618   6.251  12.942
15700W        W88125  17.818   6.090  11.742
15701W        W88126  25.664  18.538   2.536
15702W        W88127  39.903  33.211   3.895
15703W        W88128  21.719  43.017  11.124
15704W        W88129  28.068  10.301  14.476
15705W        W88130  23.695   9.408   1.727
15706W        W88131  36.978  12.240  13.897
15707W        W88132  34.359  37.375  14.132
15708W        W88133   2.842  28.763  14.543
15709W        W88134  15.104   2.110   4.761
15710W        W88135   9.346  38.922   3.938
15711W        W88136  41.260  25.957  11.502
15712W        W88137  18.143   4.763   1.128
15713W        W88138  14.369  13.184   3.533
15714W        W88139  41.776  35.794  11.118
15715W        W88140  36.820   6.305  11.132
15716W        W88141  36.134  16.757  11.033
15717W        W88142  35.796  31.552  12.808
15718W        W88143  42.242  25.631   3.252
15719W        W88144  22.118  39.425   2.597
15720W        W88145  38.040  40.042  14.838
15721W        W88146  29.628  30.859  10.718
15722W        W88147  15.383   5.252  12.814
15723W        W88148  26.351  28.996  10.682
15724W        W88149  24.076  44.130   4.051
15725W        W88150   6.582  26.160   4.617
15726W        W88151  34.944  14.210  12.399
15727W        W88152  28.132  43.549  12.975
15728W        W88153  29.464   8.409  10.701
15729W        W88154  13.760  22.671   3.648
15730W        W88155  24.368  31.978  13.043
15731W        W88156  14.274  32.588   0.824
15732W        W88157   3.260  21.025   4.636
15733W        W88158  29.984  42.919   1.361
15734W        W88159  15.150  21.066   1.143
15735W        W88160  22.796  16.981  12.887
15736W        W88161  39.628  31.800  12.517
15737W        W88162  26.009  17.860   0.758
15738W        W88163  38.523  41.813   4.764
15739W        W88164  14.264   8.915   4.677
15740W        W88165   3.788  29.091  10.654
15741W        W88166   8.308  43.552   3.111
15742W        W88167  30.380  24.554   2.839
15743W        W88168  14.257   0.373  11.684
15744W        W88169   5.413  26.444   2.705
15745W        W88170  42.350  30.443  14.765
15746W        W88171   0.544  41.280  10.576
15747W        W88172  42.871   8.879   2.642
15748W        W88173  34.064  16.630   0.850
15749W        W88174  37.078  17.684  13.437
15750W        W88175  18.522  29.337  14.842
15751W        W88176  18.168  26.884  13.615
15752W        W88177  20.175  17.191  14.771
15753W        W88178   7.609  14.817   2.129
15754W        W88179  18.016  43.308  10.625
15755W        W88180  13.137   8.361   1.396
15756W        W88181   7.949  25.603  11.986
15757W        W88182  35.456   0.952  13.692
15758W        W88183  31.168  18.032   3.899
15759W        W88184  17.495  21.209   0.265
15760W        W88185  22.903  17.127   0.059
15761W        W88186  44.224  18.999  11.517
15762W        W88187  34.000  42.320   0.178
15763W        W88188  18.206  18.708   0.571
15764W        W88189  12.712  44.246  10.111
15765W        W88190   4.477  44.896  10.705
15766W        W88191   1.193  39.952   2.595
15767W        W88192  35.608   9.849  12.646
15768W        W88193  14.193   2.854   4.616
15769W        W88194   3.180   2.809  11.239
15770W        W88195  34.029   5.904   2.236
15771W        W88196  12.304  25.479   1.629
15772W        W88197  20.792  24.790  13.448
15773W        W88198  20.788  31.168  14.833
15774W        W88199  17.808  33.372  12.474
15775W        W88200  33.965  16.369   1.304
15776W        W88201  11.482   2.920  12.912
15777W        W88202   9.674  36.622  14.374
15778W        W88203  14.251  21.703   1.913
15779W        W88204   9.920  12.380  14.019
15780W        W88205  11.283  21.431   2.337
15781W        W88206  38.622  16.623   0.841
15782W        W88207  16.744  39.076   2.783
15783W        W88208  30.474  22.096   1.412
15784W        W88209  35.922   3.851  12.199
15785W        W88210  34.790  43.929   0.033
15786W        W88211  32.835  11.788   0.937
15787W        W88212  15.707  31.159  14.364
15788W        W88213  29.399  23.528   0.951
15789W        W88214  32.575  20.367  14.777
15790W        W88215  11.968   1.544   2.403
15791W        W88216  18.746  27.082  10.776
15792W        W88217  39.456  16.177  14.869
15793W        W88218  17.265  42.766   3.899
15794W        W88219  41.039   5.251   2.286
15795W        W88220   0.759  31.223   2.489
15796W        W88221  18.479  43.426  11.528
15797W        W88222  22.430  28.649  10.799
15798W        W88223  34.933   5.974  12.382
15799W        W88224  40.342  26.557   3.810
15800W        W88225  34.050  25.055  10.732
15801W        W88226   8.327  10.359   0.893
15802W        W88227  13.414   1.489  10.593
15803W        W88228  23.166   3.233  11.530
15804W        W88229  15.319  29.465   4.338
15805W        W88230  36.855   4.370   2.675
15806W        W88231   5.929  15.506   1.413
15807W        W88232  30.783  14.171  12.697
15808W        W88233  27.687  23.441  10.339
15809W        W88234  44.737   6.169   3.371
15810W        W88235  31.658  39.892   9.583
15811W        W88236  17.819  10.282  13.324
15812W        W88237  26.810  29.056  14.029
15813W        W88238  27.034  26.338   1.835
15814W        W88239  43.041   6.635  12.030
15815W        W88240  41.835  27.916   1.388
15816W        W88241  43.695   0.993   2.505
15817W        W88242   1.362  15.034  11.489
15818W        W88243  37.378   9.587   0.464
15819W        W88244  44.889  14.167   2.431
15820W        W88245  12.832  42.463   3.372
15821W        W88246  18.861  25.005  13.223
15822W        W88247   7.362  18.705  10.458
15823W        W88248  25.225  21.906  12.551
15824W        W88249  11.434  13.336   3.247
15825W        W88250  28.575   1.659  13.605
15826W        W88251   2.225  32.263  12.932
15827W        W88252  13.131   6.528  10.444
15828W        W88253   9.059   2.366   4.049
15829W        W88254  33.037  32.804   4.186
15830W        W88255  18.709  32.968   1.624
15831W        W88256  40.841  38.289  11.019
15832W        W88257  42.259   2.467  10.687
15833W        W88258  19.092  31.265   0.389
15834W        W88259  34.355  35.612   2.383
15835W        W88260  35.182  33.496  13.107
15836W        W88261   4.209   4.586   0.367
15837W        W88262  34.627  35.598   3.754
15838W        W88263  43.297   7.762   3.131
15839W        W88264  34.164  11.157  12.216
15840W        W88265  40.505  43.787   3.639
15841W        W88266  38.819  33.616  13.147
15842W        W88267  31.645   0.314   0.389
15843W        W88268  44.432  35.774   4.762
15844W        W88269   4.206  23.515  14.683
15845W        W88270   0.425  29.903  12.537
15846W        W88271  30.165  41.036   0.843
15847W        W88272   9.160  28.435   2.341
15848W        W88273   2.760  31.418   0.214
15849W        W88274  13.863  36.344  12.351
15850W        W88275   1.770  39.863   0.779
15851W        W88276  19.172  14.263   2.859
15852W        W88277  27.462  32.595   1.241
15853W        W88278  31.655  22.722  12.942
15854W        W88279  15.402  29.899   3.070
15855W        W88280  35.448  16.851   0.332
15856W        W88281  41.008   7.225   4.550
15857W        W88282  15.772  30.281   3.833
15858W        W88283  37.101  28.653   1.820
15859W        W88284  25.473  11.622   3.856
15860W        W88285  36.797  21.008   3.373
15861W        W88286  36.973  15.808   0.011
15862W        W88287  20.530  36.831  12.456
15863W        W88288  36.373  10.679  12.110
15864W        W88289  16.826   3.996   0.813
15865W        W88290  34.700   0.520   1.466
15866W        W88291  22.599   9.913  12.866
15867W        W88292  42.901  20.652   2.757
15868W        W88293  20.538  28.193   4.131
15869W        W88294  25.431  25.177  10.319
15870W        W88295  43.973  38.761  10.898
15871W        W88296  37.461  13.482  14.509
15872W        W88297  25.076  18.347   0.660
15873W        W88298  20.965   4.239  14.023
15874W        W88299  22.750  27.025  11.057
15875W        W88300   8.884  41.724  12.553
15876W        W88301  21.955  41.705   1.904
15877W        W88302  29.376   8.076   0.319
15878W        W88303   1.018  39.987  12.617
15879W        W88304   5.974  19.234   4.976
15880W        W88305  18.358  25.448   1.182
15881W        W88306   7.787  18.133   1.410
15882W        W88307  43.956  29.427  14.777
15883W        W88308  22.162   6.204   0.888
15884W        W88309  33.017  36.297   0.602
15885W        W88310   2.474  38.358  12.465
15886W        W88311  39.132   4.354   1.417
15887W        W88312   1.912  21.278   1.864
15888W        W88313  25.726  12.647   1.711
15889W        W88314  31.879  27.432  11.656
15890W        W88315  35.882  17.552  13.751
15891W        W88316  31.319  16.108   3.328
15892W        W88317  19.820  11.696  12.917
15893W        W88318  14.155  41.220   2.794
15894W        W88319  17.390  10.799  11.107
15895W        W88320  40.750   2.813   0.249
15896W        W88321  18.090   3.836  14.905
15897W        W88322   1.223  20.782   4.222
15898W        W88323  17.201  33.638   3.869
15899W        W88324  35.796  14.420  13.366
15900W        W88325  30.756  26.466   3.651
15901W        W88326  28.972  42.506   4.548
15902W        W88327  12.155  25.051   3.668
15903W        W88328  14.106  11.362   0.899
15904W        W88329  29.852  16.803   3.684
15905W        W88330   8.374  42.583  11.683
15906W        W88331  27.882   3.210   3.787
15907W        W88332  34.946   2.070  11.739
15908W        W88333  10.775  10.975   1.861
15909W        W88334  13.597  38.854   4.436
15910W        W88335  16.860  36.492   1.362
15911W        W88336   1.495  13.187   0.768
15912W        W88337  43.379  32.478   0.066
15913W        W88338  17.719  40.038  13.894
15914W        W88339  14.145  25.928   3.184
15915W        W88340   4.260  25.652   1.432
15916W        W88341  30.168   3.763  12.899
15917W        W88342  16.749  35.923   2.692
15918W        W88343  28.003  37.839   0.191
15919W        W88344   9.316  36.020   1.418
15920W        W88345  24.911  38.370  14.852
15921W        W88346  38.146  36.860   4.214
15922W        W88347  26.341  21.425  10.183
15923W        W88348  31.456  39.973  13.126
15924W        W88349   9.442  43.173   1.819
15925W        W88350   5.033  17.930  13.306
15926W        W88351  22.069  12.455   3.365
15927W        W88352  43.237  34.843   0.388
15928W        W88353  38.931  20.236  10.461
15929W        W88354  32.291  26.214   0.435
15930W        W88355  38.210   8.303   0.488
15931W        W88356  42.273  12.456   0.112
15932W        W88357  17.635  10.623  12.383
15933W        W88358  15.525  14.717  13.347
15934W        W88359  19.712  36.270   0.858
15935W        W88360  33.537  33.830  10.645
15936W        W88361   1.385  35.618   0.994
15937W        W88362  25.427  23.558   1.788
15938W        W88363  13.598  15.786   0.491
15939W        W88364   1.904   9.006   3.941
15940W        W88365  25.733   1.005  11.537
15941W        W88366  21.014  16.801   3.176
15942W        W88367  40.906  10.771  14.961
15943W        W88368  29.452  44.981   1.891
15944W        W88369   7.861  39.012  13.561
15945W        W88370  22.996  17.323  12.485
15946W        W88371  17.027  15.212   0.042
15947W        W88372  15.373  26.480  13.036
15948W        W88373   0.790   2.833   4.101
15949W        W88374  16.796   6.193   4.536
15950W        W88375   7.487   2.639  12.170
15951W        W88376  12.864  36.585   0.726
15952W        W88377  16.579  42.455  10.501
15953W        W88378   1.888  42.791   3.824
15954W        W88379  24.088  22.057  13.767
15955W        W88380  25.548  21.437   3.239
15956W        W88381  29.993   1.752  11.668
15957W        W88382  20.990   5.667   3.244
15958W        W88383  33.915  42.451   4.167
15959W        W88384  27.149   3.288   3.148
15960W        W88385  20.519  30.550  13.451
15961W        W88386  41.917   5.918  12.525
15962W        W88387  38.375   9.940  11.535
15963W        W88388  21.486  40.404  14.303
15964W        W88389   3.073   0.871   5.011
15965W        W88390  31.116  40.092   5.000
15966W        W88391  25.022  33.073   4.675
15967W        W88392  31.731   4.449   2.135
15968W        W88393  38.335   6.076   4.658
15969W        W88394  34.689  16.216   2.795
15970W        W88395  23.671  36.010  11.466
15971W        W88396  37.826  13.372  11.928
15972W        W88397  37.898  44.881  12.978
15973W        W88398  34.417   7.418   1.141
15974W        W88399  21.038  21.780   2.125
15975W        W88400   7.178   9.734  12.151
15976W        W88401   9.784  36.076  12.403
15977W        W88402   9.384  11.308  11.948
15978W        W88403  32.420   6.771  13.091
15979W        W88404   4.727   1.894  11.682
15980W        W88405  18.315   2.376  12.855
15981W        W88406  21.719   5.404  14.729
15982W        W88407  27.018  39.186  14.544
15983W        W88408  34.525  39.108   4.556
15984W        W88409  12.134  12.260   4.177
15985W        W88410  13.919  19.664   5.112
15986W        W88411  30.391  31.062   1.770
15987W        W88412   5.960  32.636   4.669
15988W        W88413   0.714   4.684   4.254
15989W        W88414  19.567   7.766  13.435
15990W        W88415  14.438  17.070  11.015
15991W        W88416   5.716  25.282   4.705
15992W        W88417   4.748  26.758   4.660
15993W        W88418   6.240  31.952  14.850
15994W        W88419  19.260  30.522   2.614
15995W        W88420   9.276  14.775  14.938
15996W        W88421  19.058  30.117  12.677
15997W        W88422  43.975  32.471  13.839
15998W        W88423  17.721  13.593   1.390
15999W        W88424  27.462  21.078  14.782
16000W        W88425  42.164  33.494  13.056
16001W        W88426  31.127  13.648   4.215
16002W        W88427   3.304   4.210   4.501
16003W        W88428  12.251  40.623   0.795
16004W        W88429  39.942   0.421   3.373
16005W        W88430  42.587  32.114   3.177
16006W        W88431  25.756  11.782  13.504
16007W        W88432   5.743  11.178   2.347
16008W        W88433  41.822  14.695   3.692
16009W        W88434  43.783  15.183   0.829
16010W        W88435  39.900  40.595  11.488
16011W        W88436  21.597  29.195  13.338
16012W        W88437  26.084  21.582  11.157
16013W        W88438   9.719   7.153   3.748
16014W        W88439  14.966   6.015  14.743
16015W        W88440   1.193  40.376  12.997
16016W        W88441  32.650   2.672  13.238
16017W        W88442  19.433  15.652   0.871
16018W        W88443   3.789  35.719  12.975
16019W        W88444   0.722  31.242   0.067
16020W        W88445  22.727  36.936   1.286
16021W        W88446  32.502   6.905   3.780
16022W        W88447  30.347  32.471  13.543
16023W        W88448  33.173  40.578   2.139
16024W        W88449  18.281  43.873  14.988
16025W        W88450   6.398  14.671  14.723
16026W        W88451  39.007  23.217  10.442
16027W        W88452  13.337  13.285   3.550
16028W        W88453  36.511  12.741   0.894
16029W        W88454   1.781  37.732  14.670
16030W        W88455   9.433  18.372   0.894
16031W        W88456  42.125   9.908  11.910
16032W        W88457  28.374   0.020   1.350
16033W        W88458  39.546  23.749   1.877
16034W        W88459  44.404  37.576  10.665
16035W        W88460  11.112  19.152   0.199
16036W        W88461  15.524  39.927   3.893
16037W        W88462   7.694  25.851   0.249
16038W        W88463  12.109  15.893   1.826
16039W        W88464   2.242  31.989   5.163
16040W        W88465  15.872   4.577  12.011
16041W        W88466  29.506  26.686  10.683
16042W        W88467  29.938   5.131   1.849
16043W        W88468  11.649  27.352  10.875
16044W        W88469   9.355   1.419   3.930
16045W        W88470  42.251  44.491  11.744
16046W        W88471  20.313  14.042  14.417
16047W        W88472  16.196  10.269  11.011
16048W        W88473  21.562  17.213  12.531
16049W        W88474  24.035  37.014   2.607
16050W        W88475  20.904   2.204   2.856
16051W        W88476  41.727  38.985  13.966
16052W        W88477  27.638  20.719  12.918
16053W        W88478  27.284  40.408  13.403
16054W        W88479  36.798  10.652   1.489
16055W        W88480   2.887  22.671   3.250
16056W        W88481  20.291   5.352  13.530
16057W        W88482  33.645   6.315  14.421
16058W        W88483   7.217  28.054   4.050
16059W        W88484  42.120  44.101  11.439
16060W        W88485   9.113  44.910  10.704
16061W        W88486   5.858  14.177   2.642
16062W        W88487   3.849  29.416   4.381
16063W        W88488  27.335  40.274   9.642
16064W        W88489  22.459  24.563   4.285
16065W        W88490   8.848  10.926  11.125
16066W        W88491  41.788  11.896   3.398
16067W        W88492  41.515  42.404  14.471
16068W        W88493   0.058  23.971   0.845
16069W        W88494   6.589  40.807  11.927
16070W        W88495  44.805   9.776  11.480
16071W        W88496  13.958  23.842   5.397
16072W        W88497  44.962  10.898   4.630
16073W        W88498  29.416  28.886   1.850
16074W        W88499  20.768  39.615   0.291
16075W        W88500  15.056  34.873  13.525
16076W        W88501  17.625  15.604   2.678
16077W        W88502  37.863   1.798  10.580
16078W        W88503   7.981  42.517  13.566
16079W        W88504   9.492   5.225  12.439
16080W        W88505   0.844  29.492   2.235
16081W        W88506  14.750   9.244   1.966
16082W        W88507  30.709  40.310   0.275
16083W        W88508  33.719  39.710  11.303
16084W        W88509  26.022   0.265  13.865
16085W        W88510  21.629  22.558   2.785
16086W        W88511  17.978   6.972  13.909
16087W        W88512  14.098  10.410  14.830
16088W        W88513  44.142  44.411   3.731
16089W        W88514  42.360  25.093   0.016
16090W        W88515   6.919  27.730   2.185
16091W        W88516  24.865  36.930   0.299
16092W        W88517   9.159  20.725  12.420
16093W        W88518  40.873  21.964  13.371
16094W        W88519  33.419  30.459   4.640
16095W        W88520  41.621  39.414  12.003
16096W        W88521  31.721  23.595   1.372
16097W        W88522  10.389  26.649   3.699
16098W        W88523   5.872   9.643   4.252
16099W        W88524  35.040  38.857   2.747
16100W        W88525  12.108  11.212   1.850
16101W        W88526  23.767   3.880   0.386
16102W        W88527  25.262  40.608   5.138
16103W        W88528   8.704   5.039  11.385
16104W        W88529   2.861  26.506  14.841
16105W        W88530  31.465  25.043   3.698
16106W        W88531  40.616  43.300   0.805
16107W        W88532  39.789   5.490  14.616
16108W        W88533  22.599   3.290   2.323
16109W        W88534   1.086  19.659   1.960
16110W        W88535  26.691  13.535  12.964
16111W        W88536  14.535  35.026  14.951
16112W        W88537   7.284  14.733   1.700
16113W        W88538  10.258  35.638  10.650
16114W        W88539  18.991  39.112   4.066
16115W        W88540  10.311  28.643   0.821
16116W        W88541   3.448  36.377   0.417
16117W        W88542  11.045   0.451   0.541
16118W        W88543  37.005  37.582  12.346
16119W        W88544   6.676  40.906  13.093
16120W        W88545  35.391  23.016   2.151
16121W        W88546   9.410   2.313  12.083
16122W        W88547   5.248  34.620  14.613
16123W        W88548   9.863  24.657  11.412
16124W        W88549  13.629  10.624   2.274
16125W        W88550  33.012   2.918   0.050
16126W        W88551  44.556   7.280  14.563
16127W        W88552   9.805  26.977  11.915
16128W        W88553   2.435  25.083  12.632
16129W        W88554   2.750  14.005  13.952
16130W        W88555  14.038  23.198  11.934
16131W        W88556  36.857  31.959  11.453
16132W        W88557  43.405  21.834   1.821
16133W        W88558  32.171   5.273  12.431
16134W        W88559  32.007  35.076   2.091
16135W        W88560  25.433  23.237  12.450
16136W        W88561  36.890   4.805   2.975
16137W        W88562  43.149   3.758   0.024
16138W        W88563  26.111  25.933   1.812
16139W        W88564  18.218  27.184   2.088
16140W        W88565  32.958  19.113   3.330
16141W        W88566  25.742  27.843   0.489
16142W        W88567  10.190  40.606  12.442
16143W        W88568  18.005  12.665  10.653
16144W        W88569  41.161  13.794  11.629
16145W        W88570  16.803  42.332   2.718
16146W        W88571  24.389  37.410  10.270
16147W        W88572  28.705   0.856   1.366
16148W        W88573  12.294  35.403  13.992
16149W        W88574  17.559  41.948  14.256
16150W        W88575  28.238  27.718  13.378
16151W        W88576  24.259  27.512   3.307
16152W        W88577  44.893  19.801   2.315
16153W        W88578  35.490  43.958   3.289
16154W        W88579  29.701   7.732   2.243
16155W        W88580  27.033  31.188  11.550
16156W        W88581   3.758  10.333  13.126
16157W        W88582  37.868   7.943   3.685
16158W        W88583   4.036   7.253   2.187
16159W        W88584  25.820  19.885  12.608
16160W        W88585   7.262   2.895  11.194
16161W        W88586  13.249   4.145   0.322
16162W        W88587  23.501   4.914  14.433
16163W        W88588  26.146  11.230  14.916
16164W        W88589  40.948  34.324  13.048
16165W        W88590  29.488  41.895  10.211
16166W        W88591  42.867  23.353  13.750
16167W        W88592  30.209  37.132   4.224
16168W        W88593  31.948   9.447  14.742
16169W        W88594  32.899  31.549   1.063
16170W        W88595   4.918  18.700   2.307
16171W        W88596  37.023  32.373  14.926
16172W        W88597  11.773  33.742  13.213
16173W        W88598  40.331  22.116   3.218
16174W        W88599  15.902  16.356  11.145
16175W        W88600  23.262   9.105   3.301
16176W        W88601  37.356  11.845  11.698
16177W        W88602  16.658  35.188  12.167
16178W        W88603  14.134  20.770   4.521
16179W        W88604  23.039  15.389  13.896
16180W        W88605  27.560  19.826  10.621
16181W        W88606  33.615  39.317  10.994
16182W        W88607  41.279  30.377  11.217
16183W        W88608  21.411  13.552   3.361
16184W        W88609   5.006  15.907  13.558
16185W        W88610  14.808  40.934  14.185
16186W        W88611   8.703  23.909   5.229
16187W        W88612  25.965  10.659  14.163
16188W        W88613  43.239   3.490   1.153
16189W        W88614   2.865  40.795   4.205
16190W        W88615  18.817  20.068   1.996
16191W        W88616  26.164  11.505  12.644
16192W        W88617  41.812  12.847  13.891
16193W        W88618  14.101  40.934  11.645
16194W        W88619  28.620   4.434  12.078
16195W        W88620  11.791   0.822  14.049
16196W        W88621   8.081  31.894  11.107
16197W        W88622  44.222  14.333   0.184
16198W        W88623  27.631  19.514   3.618
16199W        W88624  15.472   0.767  12.061
16200W        W88625  20.613  27.477   2.670
16201W        W88626  36.863  25.739  13.865
16202W        W88627  20.353   0.161   3.788
16203W        W88628   2.653  20.973  11.516
16204W        W88629  12.603  11.401   1.837
16205W        W88630  16.622  43.372   0.289
16206W        W88631  42.110  41.506   0.867
16207W        W88632  21.114  17.200   1.401
16208W        W88633  15.587   7.709  14.543
16209W        W88634  26.120  14.002  14.492
16210W        W88635   2.011  43.839   0.331
16211W        W88636  31.417  15.632  14.564
16212W        W88637   6.912   1.453   2.749
16213W        W88638  15.703   2.727  12.474
16214W        W88639  24.031  37.283  14.490
16215W        W88640   4.913  13.975  13.805
16216W        W88641   5.844  39.391  12.156
16217W        W88642  12.967  31.957   3.643
16218W        W88643  10.048   2.917  12.047
16219W        W88644  39.314   8.004   4.516
16220W        W88645   1.956  38.537   4.501
16221W        W88646  30.173  43.268   2.213
16222W        W88647  36.392  20.172  10.779
16223W        W88648  31.203   3.347   3.580
16224W        W88649  42.559  37.151   0.850
16225W        W88650   3.931  28.970   3.204
16226W        W88651  32.894  38.009  14.843
16227W        W88652  15.730  18.310   1.774
16228W        W88653  23.552  14.094  12.878
16229W        W88654  44.688  41.829   3.626
16230W        W88655   1.464  23.946  12.125
16231W        W88656  10.080  19.181  14.460
16232W        W88657   8.440  13.211   3.185
16233W        W88658   5.793  33.750   2.701
16234W        W88659   8.467  38.572   1.631
16235W        W88660  21.489   9.059   2.331
16236W        W88661   2.047  21.239  10.427
16237W        W88662  32.865  11.248   1.163
16238W        W88663  37.142   2.512   0.692
16239W        W88664  20.284  44.407  11.190
16240W        W88665  33.150  14.813  11.683
16241W        W88666  22.005  11.363   3.963
16242W        W88667   1.996   6.757   2.361
16243W        W88668  33.554  34.823  14.429
16244W        W88669  23.801   2.237   1.737
16245W        W88670   9.381  36.098   2.314
16246W        W88671  39.581  22.764   4.229
16247W        W88672  13.603   0.844   0.739
16248W        W88673  44.447  20.127  13.583
16249W        W88674  23.862  42.179  14.767
16250W        W88675  19.010  43.251   0.331
16251W        W88676  22.108   5.998  12.383
16252W        W88677   5.751   1.912  13.289
16253W        W88678  28.213  19.772  12.766
16254W        W88679  37.541  33.425  12.066
16255W        W88680  43.280  41.070  13.026
16256W        W88681  40.494  11.354   0.097
16257W        W88682  36.941  35.438   0.962
16258W        W88683  26.602  44.845   1.324
16259W        W88684  24.138   9.567   3.333
16260W        W88685  29.362  39.867  11.522
16261W        W88686  10.418  30.425   0.037
16262W        W88687  23.338  27.710  11.197
16263W        W88688  28.474   6.217  12.868
16264W        W88689  22.460   4.775  13.477
16265W        W88690  30.925  42.886   0.420
16266W        W88691  28.496  26.872  14.040
16267W        W88692  25.142  24.439   4.257
16268W        W88693  26.613  30.575   5.020
16269W        W88694   6.347  44.252   4.213
16270W        W88695  11.259  23.071   1.326
16271W        W88696   2.229  39.757  12.732
16272W        W88697  36.773  37.253   4.073
16273W        W88698   5.441  40.831   1.942
16274W        W88699  16.571  42.884   3.328
16275W        W88700   2.147  36.061   3.689
16276W        W88701  27.080   0.667  11.604
16277W        W88702  43.512  28.103   0.586
16278W        W88703   2.761  21.023   5.196
16279W        W88704   5.768  15.815   1.878
16280W        W88705  24.772  33.165  13.423
16281W        W88706  39.877   1.317   1.944
16282W        W88707   0.062  29.185  13.466
16283W        W88708  42.491   1.666  13.454
16284W        W88709   3.425  31.057   4.533
16285W        W88710  30.184  22.508   1.284
16286W        W88711  26.306  13.437  13.344
16287W        W88712   2.532   9.249  14.506
16288W        W88713  42.416   8.718  12.541
16289W        W88714  17.797  43.808  14.813
16290W        W88715  17.533   4.468  14.281
16291W        W88716  15.761   8.749   3.316
16292W        W88717  26.747  12.129  12.135
16293W        W88718  36.545   2.737   4.366
16294W        W88719  11.216  14.085   1.399
16295W        W88720  28.943  20.045   3.841
16296W        W88721  32.695   6.568   1.220
16297W        W88722  26.180  39.062  12.608
16298W        W88723  23.054  23.127   2.591
16299W        W88724  35.990  29.952  14.372
16300W        W88725  17.144  11.882   4.181
16301W        W88726   5.288  17.652   4.372
16302W        W88727  11.139   3.897   1.774
16303W        W88728  34.217  23.553   1.268
16304W        W88729  22.547  20.209  12.005
16305W        W88730  11.880  24.033   4.333
16306W        W88731   6.811  37.433   3.884
16307W        W88732  29.165  11.895   2.282
16308W        W88733  13.240  16.495  11.022
16309W        W88734   9.858  44.971  12.471
16310W        W88735  40.366  12.369   4.994
16311W        W88736  20.748  25.112  12.066
16312W        W88737  22.179  16.420   4.185
16313W        W88738  33.004  35.824   4.558
16314W        W88739  21.960  39.852   0.851
16315W        W88740  12.663   9.204   2.367
16316W        W88741  37.572  10.053   0.324
16317W        W88742  15.685  24.165  13.906
16318W        W88743   2.289  20.767   0.573
16319W        W88744  18.730  22.233   2.855
16320W        W88745  20.051  27.142   4.857
16321W        W88746  36.551  43.993  11.406
16322W        W88747  32.500  39.390   1.792
16323W        W88748  37.995  25.617   4.347
16324W        W88749  43.971  44.037  11.250
16325W        W88750  36.257  10.691   4.736
16326W        W88751   4.393  39.551   2.174
16327W        W88752  22.084   8.233  13.980
16328W        W88753  20.205  29.621   2.770
16329W        W88754  12.578  44.993  11.124
16330W        W88755  44.122   2.489  11.944
16331W        W88756   6.425  14.218   3.934
16332W        W88757  17.794  26.399  14.503
16333W        W88758  16.169  43.794  12.557
16334W        W88759  22.670  30.361  11.378
16335W        W88760  24.078  11.383   1.805
16336W        W88761  39.359  24.448  14.430
16337W        W88762   0.752   5.007   0.305
16338W        W88763  33.906  39.370  13.036
16339W        W88764  14.715  24.786  14.839
16340W        W88765  33.401   2.802   2.871
16341W        W88766  18.196   0.223  13.385
16342W        W88767   3.267  43.229  11.888
16343W        W88768  31.463  28.359  14.877
16344W        W88769  21.241  35.606  13.886
16345W        W88770  33.064  14.405  10.594
16346W        W88771  14.628  28.470   4.168
16347W        W88772  31.566  37.044   4.286
16348W        W88773  15.824  26.705   3.311
16349W        W88774  11.721  21.615   0.320
16350W        W88775  38.293  30.361   4.112
16351W        W88776  37.567   6.937   2.367
16352W        W88777  12.106  43.911  12.041
16353W        W88778  17.281   6.401   4.532
16354W        W88779   6.682  39.295  10.664
16355W        W88780  27.027   0.308   0.144
16356W        W88781  24.081  43.579  10.911
16357W        W88782  40.432  33.595  13.170
16358W        W88783  10.705  44.381  10.134
16359W        W88784  16.395  28.499  10.899
16360W        W88785   9.419  15.746   3.821
16361W        W88786   9.425   2.880  13.050
16362W        W88787  11.793  32.635  10.581
16363W        W88788  25.495  13.613  13.998
16364W        W88789  13.686  16.290   2.339
16365W        W88790   1.999  19.203  14.125
16366W        W88791  41.803   6.962   0.399
16367W        W88792  31.486  24.675   0.931
16368W        W88793  37.021  13.715  11.184
16369W        W88794  29.668  37.400   2.840
16370W        W88795  34.157  19.506   3.760
16371W        W88796  38.669  34.982   1.450
16372W        W88797   8.782  14.986  14.922
16373W        W88798   5.860   4.304   2.787
16374W        W88799  42.626  28.105   0.863
16375W        W88800  16.593  16.135  14.810
16376W        W88801  12.575  22.518   1.817
16377W        W88802  27.170  15.051   4.119
16378W        W88803  16.278  41.722   3.776
16379W        W88804  18.423  40.442   2.886
16380W        W88805  11.228  36.355   2.365
16381W        W88806  40.384   8.689   0.746
16382W        W88807  22.580  14.711  12.447
16383W        W88808  22.120  42.702   0.364
16384W        W88809  40.932  10.813   0.473
16385W        W88810   1.021  30.682   0.376
16386W        W88811  34.832   9.209  11.132
16387W        W88812   2.934   2.059   4.151
16388W        W88813  42.442   4.653   2.308
16389W        W88814  40.194  42.285  10.741
16390W        W88815  27.749  24.555   0.770
16391W        W88816  14.367  23.590  12.134
16392W        W88817   6.017   1.468  13.959
16393W        W88818  39.590  27.327   2.873
16394W        W88819  21.530  40.079   4.552
16395W        W88820  41.190  22.518  14.995
16396W        W88821  13.233  26.960   3.785
16397W        W88822  42.306   3.838   0.455
16398W        W88823   1.277  42.830  14.938
16399W        W88824   8.021  40.095   1.334
16400W        W88825  10.888  26.364   4.587
16401W        W88826  43.148  44.542  12.776
16402W        W88827   6.189  17.199  13.087
16403W        W88828   3.927  13.597   4.673
16404W        W88829  17.445  33.479   0.789
16405W        W88830  43.100  42.441   1.150
16406W        W88831  17.205  28.931   2.527
16407W        W88832  15.701   3.193   0.673
16408W        W88833   7.184  38.460   1.938
16409W        W88834  11.836  18.468   1.333
16410W        W88835   5.748  28.932   0.435
16411W        W88836  43.104   2.879  14.964
16412W        W88837  39.737   2.992   2.215
16413W        W88838  43.045  21.274  13.420
16414W        W88839  29.859  33.478  14.989
16415W        W88840  18.382  26.728  10.610
16416W        W88841  28.732  29.874  14.806
16417W        W88842  25.997   6.587  14.761
16418W        W88843  41.067   5.783  13.539
16419W        W88844  41.818  10.627   4.641
16420W        W88845  26.632  18.123   3.373
16421W        W88846  32.513  28.957  13.562
16422W        W88847  10.446   3.854   0.993
16423W        W88848  42.132  26.237  11.046
16424W        W88849   0.703  26.482  14.413
16425W        W88850  13.600  35.540   3.371
16426W        W88851  17.323  24.558  13.054
16427W        W88852  33.034  42.946  14.938
16428W        W88853  11.073   4.864   1.320
16429W        W88854  26.920  43.889   3.726
16430W        W88855  17.745  41.450  13.445
16431W        W88856  13.207  40.215   1.229
16432W        W88857  44.924  38.499  11.659
16433W        W88858  34.379  37.092   2.886
16434W        W88859  13.640  34.126  13.453
16435W        W88860  43.211   1.050  14.365
16436W        W88861  33.467   3.817   0.894
16437W        W88862  30.997  36.404   3.811
16438W        W88863  10.181  39.970  14.899
16439W        W88864   0.890   3.931  14.399
16440W        W88865  26.542  23.721   0.280
16441W        W88866  12.239   6.435  11.465
16442W        W88867  24.595  10.979  14.416
16443W        W88868   4.135  38.949   4.477
16444W        W88869  26.020  19.515   2.338
16445W        W88870  39.297   7.732   3.238
16446W        W88871  26.416  44.381   1.449
16447W        W88872  24.662  24.935   3.878
16448W        W88873  18.585  32.096  12.018
16449W        W88874  33.487  28.133   2.796
16450W        W88875  14.300  32.337   1.645
16451W        W88876  30.573  41.893  12.156
16452W        W88877  43.928  31.870   4.169
16453W        W88878  19.620   4.192  13.803
16454W        W88879  27.871  22.776   4.629
16455W        W88880  23.934  19.000   4.624
16456W        W88881   9.684   4.926   3.211
16457W        W88882  17.847  25.606   1.156
16458W        W88883  29.462   9.178   2.741
16459W        W88884  23.679   4.397   0.343
16460W        W88885  14.237  31.874   2.908
16461W        W88886  28.854  28.959  14.782
16462W        W88887  19.580   5.434  14.708
16463W        W88888  30.329  17.796  13.325
16464W        W88889  28.117  40.946  14.891
16465W        W88890  10.274  31.805   0.321
16466W        W88891  41.250  38.070  13.416
16467W        W88892   5.643   9.855  12.020
16468W        W88893  16.288  13.884   0.410
16469W        W88894  41.692   8.075  11.027
16470W        W88895  21.839  12.058  14.910
16471W        W88896  40.264  44.089  10.653
16472W        W88897  11.708  17.684  14.492
16473W        W88898  23.243   5.511   0.683
16474W        W88899  38.591   6.493  14.787
16475W        W88900  44.896  14.422   1.438
16476W        W88901  36.350  33.828   4.692
16477W        W88902  41.749  40.345   4.243
16478W        W88903   8.173  24.720   0.919
16479W        W88904   4.619   6.884  14.039
16480W        W88905  36.380  28.746  14.363
16481W        W88906  12.665  13.778  12.957
16482W        W88907  24.572   5.874   2.820
16483W        W88908  35.514  33.111  12.402
16484W        W88909  36.375  29.176  11.914
16485W        W88910  17.747  40.539  12.135
16486W        W88911  18.101   3.940  13.069
16487W        W88912  43.043  30.731   4.157
16488W        W88913  24.928  44.850   4.124
16489W        W88914  32.719   0.057   5.109
16490W        W88915  42.844  31.725   0.262
16491W        W88916   1.885  29.385   4.547
16492W        W88917  36.653  10.779  11.153
16493W        W88918  20.501  36.830  13.353
16494W        W88919  38.785  28.506   2.301
16495W        W88920  32.304  27.229  13.891
16496W        W88921  18.011  21.200   0.324
16497W        W88922  41.216  33.442   4.600
16498W        W88923  44.430  23.209  11.844
16499W        W88924   9.296  42.786   3.247
16500W        W88925  40.933   4.819   0.955
16501W        W88926  17.742  43.277  14.865
16502W        W88927   5.687   6.502  12.031
16503W        W88928  13.254   8.137   3.245
16504W        W88929   8.887  40.963   1.652
16505W        W88930  26.049   1.983   9.890
16506W        W88931  32.872  40.372   1.733
16507W        W88932   5.171  15.215  12.683
16508W        W88933  15.691  17.905  11.760
16509W        W88934   0.416  23.940  14.969
16510W        W88935  36.851  26.074  14.304
16511W        W88936   5.352  28.887  11.275
16512W        W88937   3.298  36.628   2.191
16513W        W88938  37.754  33.921  12.096
16514W        W88939   1.237   8.780  13.384
16515W        W88940  40.001   6.227   4.251
16516W        W88941  36.355   2.143   1.799
16517W        W88942  10.135  13.361   0.676
16518W        W88943  33.110   6.661   2.056
16519W        W88944  28.934   6.279   0.232
16520W        W88945  21.712  31.155   0.786
16521W        W88946  33.935  38.830   4.645
16522W        W88947  37.876  30.723  12.930
16523W        W88948  25.076  29.589  13.830
16524W        W88949   7.795  35.337   0.436
16525W        W88950   0.210  16.702   1.427
16526W        W88951  40.804  17.124   1.107
16527W        W88952  26.870  34.944   2.427
16528W        W88953  32.652  38.983  13.939
16529W        W88954  19.101  20.693  10.789
16530W        W88955  29.908  11.393   4.074
16531W        W88956  15.171  14.573   3.961
16532W        W88957  37.363   4.230   3.573
16533W        W88958   4.521  36.105  14.502
16534W        W88959   7.685   9.100  12.536
16535W        W88960  16.660  41.511   4.112
16536W        W88961   9.418   5.301   1.134
16537W        W88962  24.121  16.210   4.496
16538W        W88963  13.321  28.644  14.308
16539W        W88964   9.768  12.421   1.363
16540W        W88965  25.947  31.076  12.034
16541W        W88966  19.749  28.724  10.822
16542W        W88967   2.573  43.698  11.494
16543W        W88968  34.303  36.020  14.508
16544W        W88969  33.466  42.738   0.328
16545W        W88970   2.825   3.406  10.777
16546W        W88971  15.133  43.608  11.078
16547W        W88972  15.635  24.617  11.081
16548W        W88973  37.823  25.661  11.923
16549W        W88974  33.654   6.326  12.880
16550W        W88975  26.272  19.078   2.506
16551W        W88976  21.489  18.525  12.062
16552W        W88977   6.578  16.774  11.531
16553W        W88978   2.441  36.696   2.475
16554W        W88979  16.003  27.642  11.992
16555W        W88980  21.974  13.825  12.900
16556W        W88981   1.286  38.496  13.978
16557W        W88982   9.740  38.110  13.013
16558W        W88983   7.273  36.860   2.415
16559W        W88984  39.935  34.538  11.581
16560W        W88985  29.649  21.528   3.651
16561W        W88986  43.171  42.094   3.160
16562W        W88987  40.276  16.604  13.026
16563W        W88988  34.003  28.355  10.599
16564W        W88989  15.694   1.015   2.817
16565W        W88990  19.298  42.242   1.463
16566W        W88991  43.293  13.113  13.329
16567W        W88992  20.314   1.196  12.813
16568W        W88993   1.241  39.367  13.609
16569W        W88994   1.701   2.204  12.601
16570W        W88995  31.475  10.276   4.630
16571W        W88996   9.965  23.717   3.810
16572W        W88997  32.603  10.290   0.031
16573W        W88998  28.124   6.869   0.562
16574W        W88999  37.247  14.471   1.680
16575W        W89000  20.601  24.081   3.387
16576W        W89001  10.450  30.926   2.201
16577W        W89002  28.177   9.149  13.562
16578W        W89003  24.339  29.319  14.000
16579W        W89004   5.925  35.383   2.834
16580W        W89005  27.470  38.778   2.730
16581W        W89006  40.195  35.996  10.408
16582W        W89007  39.488  20.673   0.883
16583W        W89008  39.028  16.668   3.102
16584W        W89009  26.208   0.259  14.352
16585W        W89010   6.164   1.168  10.922
16586W        W89011  44.936  16.505   1.026
16587W        W89012   8.358  38.561  14.493
16588W        W89013   3.270  33.654   0.480
16589W        W89014  14.581  11.138  14.830
16590W        W89015  38.937   8.139  12.382
16591W        W89016  27.515  18.210   2.800
16592W        W89017  32.659  43.910   3.258
16593W        W89018  22.226  14.309  12.445
16594W        W89019  40.640  16.411  11.654
16595W        W89020  27.584  28.015   1.817
16596W        W89021   3.978  14.336  10.664
16597W        W89022  16.162   1.517  11.503
16598W        W89023  11.694  29.874   1.803
16599W        W89024  40.351  40.209   1.316
16600W        W89025  12.612   9.351   1.056
16601W        W89026  43.483  12.897   0.862
16602W        W89027  16.791  44.733   4.793
16603W        W89028   9.652  24.653   3.365
16604W        W89029  17.070  23.500   2.956
16605W        W89030  14.166  40.850   1.918
16606W        W89031  41.221   2.223   5.030
16607W        W89032  43.760  18.799   4.518
16608W        W89033   0.567  31.789   4.128
16609W        W89034   7.154  27.643   1.041
16610W        W89035   0.378  17.257   3.159
16611W        W89036  21.554  34.763   0.881
16612W        W89037  24.483   3.906   2.207
16613W        W89038  39.963   0.526   1.419
16614W        W89039   7.697  23.540  12.768
16615W        W89040   9.880   9.092   2.842
16616W        W89041  17.330  28.981  12.692
16617W        W89042  27.384  31.083   3.699
16618W        W89043  37.952  26.090  11.099
16619W        W89044   9.140  40.205   4.236
16620W        W89045  10.864   4.466   1.046
16621W        W89046  40.945  36.755  11.245
16622W        W89047   4.674  19.647  14.208
16623W        W89048  37.812  19.318   4.193
16624W        W89049  34.954   8.286  11.927
16625W        W89050  35.934  19.030   3.733
16626W        W89051  34.364  14.796   2.966
16627W        W89052   0.634  36.956   2.691
16628W        W89053  37.340   1.354  14.906
16629W        W89054  25.550   9.199   4.751
16630W        W89055  36.780  22.843   3.844
16631W        W89056   8.352  23.968   4.604
16632W        W89057  11.014   3.280   2.923
16633W        W89058  13.197   3.974   5.497
16634W        W89059  35.626  36.051   3.678
16635W        W89060  25.557  39.359  14.873
16636W        W89061  17.557  39.504   1.773
16637W        W89062  26.648  19.159  11.949
16638W        W89063  25.687  38.707   0.290
16639W        W89064  15.054  33.013   4.522
16640W        W89065  23.148  13.121  13.915
16641W        W89066  20.132   9.122  14.220
16642W        W89067  41.371  11.798   3.820
16643W        W89068   1.199  21.752  14.756
16644W        W89069  29.994  37.087   3.132
16645W        W89070  12.105  33.584   1.892
16646W        W89071  30.671  13.272   3.735
16647W        W89072  39.007  20.441   0.899
16648W        W89073  27.836   5.578   4.051
16649W        W89074  39.890  12.716   1.250
16650W        W89075  21.529  27.357  13.920
16651W        W89076  33.365  27.139  10.716
16652W        W89077  33.181   6.543  12.860
16653W        W89078  25.637  16.650  14.909
16654W        W89079  42.860  23.318  12.441
16655W        W89080  26.997  41.789  13.400
16656W        W89081  21.089  27.645  13.845
16657W        W89082   3.670   7.676  11.168
16658W        W89083  32.561  17.345  12.843
16659W        W89084  11.040  16.821  13.546
16660W        W89085  39.597   6.764   3.033
16661W        W89086  16.206  31.139  11.382
16662W        W89087  10.169  12.040  11.939
16663W        W89088  16.473  34.050  11.279
16664W        W89089  16.745  12.754   3.882
16665W        W89090   2.955  42.773  14.093
16666W        W89091  21.666  19.520  14.438
16667W        W89092  42.336  25.066   1.038
16668W        W89093  23.155  41.900  14.403
16669W        W89094  30.777  39.295  13.763
16670W        W89095  41.228  23.657  12.838
16671W        W89096   9.387  30.647  11.025
16672W        W89097  38.572  33.890   0.510
16673W        W89098  36.365  44.469  13.838
16674W        W89099   5.523  35.850   2.018
16675W        W89100   7.058  30.955  11.538
16676W        W89101  24.754   1.663   0.558
16677W        W89102   7.709   0.956  12.353
16678W        W89103   0.922   9.985   2.791
16679W        W89104  19.566  11.359   1.211
16680W        W89105  39.581  38.149   4.514
16681W        W89106   0.333   4.793  13.295
16682W        W89107  16.835  30.850   1.831
16683W        W89108  35.432  17.249  13.472
16684W        W89109  18.069  12.235  10.921
16685W        W89110  44.751  22.611   3.389
16686W        W89111  24.526  15.017   3.055
16687W        W89112  33.083  24.216   3.175
16688W        W89113  13.815  32.546   2.464
16689W        W89114  42.036  44.821  12.109
16690W        W89115  36.473  19.453   2.737
16691W        W89116  18.755  13.101  10.919
16692W        W89117  15.673   7.408  12.802
16693W        W89118  14.354   1.309  10.590
16694W        W89119  42.894  26.190  13.276
16695W        W89120  30.875  12.244  11.200
16696W        W89121  32.047  23.777   1.748
16697W        W89122  28.754  42.061  13.406
16698W        W89123   6.301  26.540  11.931
16699W        W89124  37.339  18.424   4.678
16700W        W89125  19.403   9.338   4.102
16701W        W89126  30.964  21.895  11.033
16702W        W89127  30.729  18.766   1.744
16703W        W89128  34.383  15.782  13.015
16704W        W89129   6.325  12.815   9.727
16705W        W89130  37.928  10.278   4.069
16706W        W89131  33.918  31.889  13.549
16707W        W89132  17.093  25.184   1.977
16708W        W89133  30.377  43.411   0.891
16709W        W89134  18.937  41.204  10.260
16710W        W89135  18.968   9.251   1.757
16711W        W89136  12.641  41.272   2.431
16712W        W89137  43.456  28.572  14.344
16713W        W89138  33.431   8.727   2.265
16714W        W89139  34.605  40.266   1.854
16715W        W89140  37.523  16.322  13.024
16716W        W89141  20.211   7.874   1.249
16717W        W89142  31.655  41.041   1.888
16718W        W89143  35.105  40.358  11.956
16719W        W89144  10.197  32.583  14.267
16720W        W89145  16.637  29.898  14.857
16721W        W89146   3.756  40.532  14.719
16722W        W89147  23.589  14.582   4.916
16723W        W89148  29.333  13.590   3.734
16724W        W89149   5.679   1.989   3.255
16725W        W89150   8.329   3.409   2.850
16726W        W89151  32.194  37.845  13.841
16727W        W89152   1.930  42.774  13.374
16728W        W89153  41.405  16.161   2.722
16729W        W89154  39.081  43.315  11.901
16730W        W89155   2.982  35.417  12.792
16731W        W89156  41.929  20.679  14.024
16732W        W89157  15.784  17.315   1.869
16733W        W89158   8.949  35.792  11.926
16734W        W89159  27.907  23.567   2.003
16735W        W89160  15.909   2.855   3.723
16736W        W89161  26.727   7.466   3.740
16737W        W89162  12.619  30.465  14.958
16738W        W89163  43.406  13.358   1.817
16739W        W89164   7.730  15.130   1.025
16740W        W89165  21.770  28.796   3.771
16741W        W89166  31.420  27.990  13.960
16742W        W89167   6.738  32.361   3.121
16743W        W89168  25.982  11.116  13.960
16744W        W89169  16.991  28.550  12.300
16745W        W89170   9.697  42.733  12.938
16746W        W89171  41.865  25.136  12.407
16747W        W89172   4.451  28.706  12.452
16748W        W89173  38.432  30.010  14.924
16749W        W89174  13.257  44.082   3.586
16750W        W89175   0.187  36.552  13.905
16751W        W89176  37.769  43.304  11.157
16752W        W89177  25.471  43.615   3.654
16753W        W89178  19.189   6.233   1.390
16754W        W89179  25.441  16.844  14.466
16755W        W89180   6.853  39.419   2.138
16756W        W89181   5.841   5.659  12.753
16757W        W89182  33.338  18.090  11.889
16758W        W89183  40.832  16.805  10.722
16759W        W89184  27.742   7.133   0.821
16760W        W89185  14.752  37.642  10.680
16761W        W89186  25.077  10.633  12.308
16762W        W89187  39.670  24.754  11.357
16763W        W89188   7.881  17.625   1.289
16764W        W89189  11.720  23.156  10.915
16765W        W89190  22.759  21.494   2.434
16766W        W89191  19.199  42.746   1.414
16767W        W89192  42.135  27.926  11.261
16768W        W89193  18.891  34.090   4.180
16769W        W89194  37.574  10.906  14.539
16770W        W89195  44.327   9.124   2.866
16771W        W89196  16.319   1.186  10.624
16772W        W89197  16.516  19.219  11.137
16773W        W89198  38.948  17.573  13.063
16774W        W89199  24.481  42.234  11.021
16775W        W89200  35.147  35.132  13.600
16776W        W89201  39.420   3.918   1.453
16777W        W89202  30.530  31.461  11.601
16778W        W89203   9.529   1.325   2.296
16779W        W89204  21.013  34.417   2.293
16780W        W89205   2.933  35.975   4.240
16781W        W89206   6.595  39.143  13.574
16782W        W89207  27.803  14.711  14.905
16783W        W89208  13.668   8.280  12.371
16784W        W89209   0.328  32.648  11.633
16785W        W89210  33.532   8.812  10.696
16786W        W89211  20.780  41.949  11.411
16787W        W89212  42.452  44.390  10.510
16788W        W89213   6.670   7.478  13.225
16789W        W89214   0.364  13.219  12.630
16790W        W89215   4.893  43.948  13.772
16791W        W89216   8.825   6.171   4.959
16792W        W89217  37.738  18.273   2.743
16793W        W89218  39.596  39.827   2.207
16794W        W89219  13.093  32.000  13.140
16795W        W89220  30.629  34.820  14.861
16796W        W89221   2.697  28.534   4.673
16797W        W89222  26.718  41.521  13.031
16798W        W89223  18.354  14.856  12.011
16799W        W89224  23.505  29.408  14.459
16800W        W89225  38.985   6.215  14.916
16801W        W89226  40.813  14.779  14.401
16802W        W89227   4.631  41.002   3.289
16803W        W89228  38.584   3.559  10.820
16804W        W89229  41.377  38.084   2.964
16805W        W89230  16.722  38.972   0.284
16806W        W89231  36.370  43.724  10.491
16807W        W89232  12.839   7.953  14.350
16808W        W89233  15.282   9.754   3.834
16809W        W89234  18.162  36.006   4.706
16810W        W89235  20.623   9.318  10.573
16811W        W89236  10.307  37.511   0.719
16812W        W89237   0.292  20.399   4.427
16813W        W89238   4.506  43.449  11.357
16814W        W89239   9.900  35.443   2.677
16815W        W89240   0.763  16.580  11.269
16816W        W89241  18.086  24.593   4.117
16817W        W89242   9.342  43.455  11.910
16818W        W89243  37.150  20.762   1.735
16819W        W89244   4.879  20.208  12.909
16820W        W89245   0.215  22.286   4.747
16821W        W89246  12.258  42.556   4.206
16822W        W89247  13.269   5.412   0.498
16823W        W89248   6.939  42.141   3.909
16824W        W89249  16.764  16.321   4.542
16825W        W89250  41.091  15.678  11.953
16826W        W89251  21.888   8.130  13.263
16827W        W89252   2.285  19.732   1.466
16828W        W89253  12.803   3.456  11.013
16829W        W89254  29.988   7.753  11.330
16830W        W89255  15.089  18.609   3.711
16831W        W89256  28.428   8.040  14.957
16832W        W89257  12.570  42.779  12.169
16833W        W89258  17.242   4.046   1.744
16834W        W89259   7.743  40.143  12.448
16835W        W89260  16.648  28.485   1.968
16836W        W89261  22.694  23.667  10.239
16837W        W89262  12.773   3.649   2.303
16838W        W89263  13.866  43.735   0.808
16839W        W89264  30.932  29.394   3.295
16840W        W89265  35.560  29.219   3.000
16841W        W89266  23.051  14.064   1.379
16842W        W89267  20.183  24.674   0.276
16843W        W89268  13.209  23.386   5.205
16844W        W89269   0.242  23.031   1.140
16845W        W89270  13.311  19.811  10.334
16846W        W89271  18.076   7.686  11.391
16847W        W89272  41.910  20.216   2.829
16848W        W89273  44.073  20.572   5.238
16849W        W89274  21.681  18.522  12.914
16850W        W89275  32.980   4.478   0.831
16851W        W89276  44.885   4.523  11.209
16852W        W89277  36.910  32.568  12.316
16853W        W89278  25.167  10.478   1.794
16854W        W89279  26.434  44.941   2.235
16855W        W89280  31.055  27.958  11.222
16856W        W89281  38.989   3.665  12.048
16857W        W89282   5.529  32.963   2.977
16858W        W89283  21.841  41.924   3.690
16859W        W89284   4.832   6.886   2.212
16860W        W89285  13.399  28.948  13.889
16861W        W89286  14.385  20.332   2.222
16862W        W89287  11.163  20.702  11.148
16863W        W89288  35.909  13.930   3.233
16864W        W89289   0.236   3.850  14.297
16865W        W89290  44.373  31.148  10.115
16866W        W89291   8.872  25.161   2.686
16867W        W89292  10.738  12.746   1.266
16868W        W89293   4.904   3.002  11.275
16869W        W89294  15.878  15.121  12.204
16870W        W89295  19.502  43.322   3.658
16871W        W89296  38.823  39.350  12.483
16872W        W89297  16.041  37.248   0.353
16873W        W89298  41.968   9.289   2.784
16874W        W89299  36.120   6.855   1.466
16875W        W89300  12.018   8.166  14.727
16876W        W89301  10.310   6.084  12.529
16877W        W89302  23.589  21.127  12.062
16878W        W89303   5.423   3.580   3.016
16879W        W89304  11.267   8.202  14.939
16880W        W89305  24.575  13.584  11.987
16881W        W89306   1.483  15.610   0.867
16882W        W89307   3.264  35.432   1.420
16883W        W89308   3.402   8.679  12.884
16884W        W89309  42.600  43.351   0.137
16885W        W89310   6.646  11.241  13.116
16886W        W89311  32.030  44.493  12.048
16887W        W89312  42.542  11.260   0.288
16888W        W89313  16.586  34.122   3.714
16889W        W89314  42.956  25.089  11.538
16890W        W89315  40.347   1.664   0.690
16891W        W89316  16.323  37.316  14.316
16892W        W89317  13.161  30.152   1.697
16893W        W89318  31.371  28.021   2.663
16894W        W89319  17.454  24.630  11.146
16895W        W89320   6.309  24.664   0.987
16896W        W89321   9.630  25.183  14.426
16897W        W89322  17.154  27.907  11.652
16898W        W89323  33.894  11.104  12.655
16899W        W89324  12.668  30.974   0.710
16900W        W89325  38.521   3.813   4.844
16901W        W89326   4.447  18.758   1.882
16902W        W89327  14.084  23.280   3.129
16903W        W89328  27.144  20.699   2.208
16904W        W89329   9.212  43.859   0.724
16905W        W89330   4.238   5.231  11.089
16906W        W89331  14.236  19.210   3.412
16907W        W89332  26.732  14.721   0.693
16908W        W89333  10.314  41.820   4.147
16909W        W89334  17.004  37.392   4.721
16910W        W89335  14.288  31.557  12.897
16911W        W89336   2.394  23.247   3.682
16912W        W89337  34.487  19.371  14.551
16913W        W89338  44.705  44.226   4.958
16914W        W89339  44.831  40.294  11.891
16915W        W89340  36.111  36.447   1.722
16916W        W89341  42.775  32.738   2.234
16917W        W89342  38.891   7.660  14.987
16918W        W89343  11.566  28.912   4.164
16919W        W89344  25.171  36.664  12.935
16920W        W89345  25.472   5.759   1.354
16921W        W89346   7.109  27.947  10.509
16922W        W89347   9.638   1.096  12.528
16923W        W89348   6.668  35.469   2.331
16924W        W89349  38.612  31.565   2.582
16925W        W89350   9.120  32.806  13.028
16926W        W89351   3.389  25.195   9.835
16927W        W89352  33.481  37.121   4.454
16928W        W89353  36.796  36.370  11.631
16929W        W89354  26.692  44.836  11.795
16930W        W89355  26.951  21.146   0.798
16931W        W89356  37.375  43.258   4.153
16932W        W89357  33.157  32.638   3.684
16933W        W89358  22.778  30.496   0.939
16934W        W89359  37.725  42.471  11.149
16935W        W89360  30.522  44.717   2.229
16936W        W89361  19.335  32.602  11.973
16937W        W89362   8.778  26.129  14.303
16938W        W89363  26.157  33.057  12.914
16939W        W89364  10.080  31.595  12.028
16940W        W89365  22.212   6.006   3.877
16941W        W89366  33.618  10.410  12.374
16942W        W89367  25.129  32.671  12.340
16943W        W89368   6.967  41.940   0.454
16944W        W89369  34.452  40.278   0.450
16945W        W89370   3.586  16.141   2.816
16946W        W89371  43.214   5.019  11.467
16947W        W89372  43.349   9.383  12.013
16948W        W89373   3.774  29.959   3.262
16949W        W89374   1.770  11.190  14.837
16950W        W89375  31.106  39.485  14.222
16951W        W89376   3.251  31.740   3.287
16952W        W89377  13.326  17.711   0.511
16953W        W89378  27.051  28.652   3.186
16954W        W89379   4.916  40.751   2.949
16955W        W89380  19.289  41.620   1.750
16956W        W89381  10.443  31.069   3.589
16957W        W89382  23.630   5.429   3.693
16958W        W89383  38.490  24.960   2.809
16959W        W89384  33.598  26.982   3.284
16960W        W89385   6.166  15.043   1.209
16961W        W89386  42.513  38.366   2.110
16962W        W89387  42.420  13.361  13.401
16963W        W89388  21.217  23.352   0.347
16964W        W89389  21.856   9.445   2.325
16965W        W89390  19.264  23.277   4.240
16966W        W89391   4.200  20.488   0.201
16967W        W89392   6.702  21.557   0.988
16968W        W89393   1.312  17.620   4.040
16969W        W89394  13.983  22.099   2.803
16970W        W89395  18.680  31.669   2.439
16971W        W89396  34.924  41.443  14.397
16972W        W89397  20.807   7.343  10.765
16973W        W89398  23.982  30.744   1.783
16974W        W89399   2.777  16.415   1.765
16975W        W89400  11.198  21.506   0.397
16976W        W89401  36.513   7.930   3.582
16977W        W89402   1.049  12.803  13.541
16978W        W89403  31.215  26.659  13.401
16979W        W89404  15.710  40.416   0.276
16980W        W89405  33.240   5.252  10.648
16981W        W89406  33.632   0.017   3.646
16982W        W89407   5.460   4.793  13.170
16983W        W89408  29.934  33.905  11.183
16984W        W89409  43.633   6.494   0.118
16985W        W89410  42.256   4.699  12.860
16986W        W89411   7.775   5.391   2.605
16987W        W89412  21.929  21.522  13.829
16988W        W89413  40.231   0.374  11.192
16989W        W89414  15.112  37.362  14.483
16990W        W89415  18.085  17.178   3.110
16991W        W89416  15.788  18.576  10.620
16992W        W89417   4.732   6.372  14.827
16993W        W89418  22.536   4.783   2.349
16994W        W89419   7.382  29.387   1.720
16995W        W89420  16.088  15.051   1.742
16996W        W89421  25.891  31.616  13.501
16997W        W89422  39.947   4.511  14.321
16998W        W89423  17.253  20.206  12.445
16999W        W89424  42.980  43.643  12.576
17000W        W89425  28.614  43.076  13.540
17001W        W89426  30.418  17.700  13.930
17002W        W89427  10.065  15.495   4.597
17003W        W89428  10.659  37.840   4.385
17004W        W89429  30.135  28.145   3.180
17005W        W89430  12.706  21.189  12.453
17006W        W89431  13.885   6.137   3.777
17007W        W89432  11.675  39.508   4.339
17008W        W89433   4.671  42.764   3.351
17009W        W89434  36.511  33.969   3.244
17010W        W89435  32.270  13.302  13.140
17011W        W89436   5.272  19.130   1.757
17012W        W89437  34.944   5.711  11.116
17013W        W89438  43.577  33.927   3.613
17014W        W89439   6.261   7.565   4.550
17015W        W89440  44.895  15.278   1.518
17016W        W89441  14.511  28.941   0.150
17017W        W89442  20.770  43.286  11.127
17018W        W89443   0.244  38.376   3.282
17019W        W89444  41.524  15.793  13.092
17020W        W89445  25.923  36.893  12.995
17021W        W89446   4.242  28.014  11.975
17022W        W89447  19.171   0.489   0.940
17023W        W89448  31.787  21.049  10.713
17024W        W89449   8.173  38.461   1.204
17025W        W89450  18.579  16.359  12.863
17026W        W89451  43.383  36.504   1.715
17027W        W89452  34.949  23.497  11.382
17028W        W89453  30.419   1.294  13.423
17029W        W89454  20.516  36.508   3.651
17030W        W89455  18.777  18.051  12.479
17031W        W89456  37.313  27.078  12.852
17032W        W89457  19.820   7.236   3.260
17033W        W89458  20.448  44.711   0.737
17034W        W89459  41.520  41.382  11.026
17035W        W89460   5.507  32.455  14.329
17036W        W89461  26.470   8.653  14.517
17037W        W89462  18.506  36.986  12.420
17038W        W89463  14.492  35.896   2.287
17039W        W89464  34.519  35.530  10.844
17040W        W89465   4.061  17.760   1.851
17041W        W89466  24.746   6.780   4.165
17042W        W89467  11.213  40.027   4.653
17043W        W89468  35.866  12.908  12.420
17044W        W89469  38.775  30.408   0.233
17045W        W89470  20.778  17.926  14.621
17046W        W89471  41.703   4.872  10.821
17047W        W89472   3.453   6.338   3.102
17048W        W89473  25.185   7.214  13.400
17049W        W89474  38.803  34.327   0.265
17050W        W89475  44.884  13.510  10.658
17051W        W89476  27.485  10.331  12.502
17052W        W89477  27.123  18.575   1.947
17053W        W89478  26.718  27.046  12.678
17054W        W89479  38.970   4.384  11.681
17055W        W89480  22.665  13.593  11.423
17056W        W89481  33.457  39.912  12.075
17057W        W89482  40.465  31.977   4.096
17058W        W89483  43.812  13.334  14.021
17059W        W89484  37.153  35.011   3.107
17060W        W89485  34.178  40.574   0.123
17061W        W89486  31.658  18.145   3.797
17062W        W89487  43.319   3.824  12.127
17063W        W89488  17.805  31.942  10.275
17064W        W89489   3.958  12.075  11.096
17065W        W89490   7.025  41.817  12.841
17066W        W89491  24.484  14.580  13.495
17067W        W89492   3.292  43.861   4.371
17068W        W89493   8.728  37.842  10.739
17069W        W89494  14.317  29.681   3.431
17070W        W89495   2.130  42.428  12.439
17071W        W89496  30.443  32.479  14.058
17072W        W89497   0.462  17.683  11.531
17073W        W89498  29.715  13.344   2.127
17074W        W89499  22.563   4.427   1.526
17075W        W89500  31.400  27.470  11.012
17076W        W89501  22.745  35.034  10.688
17077W        W89502  11.384  11.912   4.959
17078W        W89503  41.894  38.446  12.401
17079W        W89504  22.002  36.959  12.168
17080W        W89505  11.649  20.644   2.232
17081W        W89506  23.986  40.783  11.413
17082W        W89507  30.135  35.445   1.912
17083W        W89508  44.125   3.721   0.927
17084W        W89509   6.839  30.160   0.041
17085W        W89510  37.814  33.446   3.158
17086W        W89511  21.235  38.378  13.043
17087W        W89512  21.181  28.784  14.678
17088W        W89513  13.367  15.272   0.291
17089W        W89514  16.228  28.608   3.304
17090W        W89515   1.905  39.092   0.357
17091W        W89516  31.951  42.967   2.743
17092W        W89517   4.757  15.078  12.373
17093W        W89518  19.748  10.267  12.582
17094W        W89519  16.845  41.989  12.545
17095W        W89520  35.585  33.374   0.160
17096W        W89521   7.863  28.200  14.278
17097W        W89522   8.124  29.726   0.898
17098W        W89523  25.172  42.536   4.416
17099W        W89524  23.208  19.534   0.743
17100W        W89525  10.681  22.344   5.414
17101W        W89526  12.120  36.858   0.748
17102W        W89527  23.046  28.700   2.927
17103W        W89528  19.447  34.244  11.121
17104W        W89529  38.810  41.989  13.906
17105W        W89530   3.229  43.293   0.252
17106W        W89531  10.350   9.876  10.341
17107W        W89532   7.441   0.373  11.228
17108W        W89533  28.594   2.850   4.272
17109W        W89534  13.168  40.762  14.391
17110W        W89535  20.945  38.990   4.629
17111W        W89536  30.845  28.909   0.784
17112W        W89537  38.208  14.523   3.488
17113W        W89538  44.462  11.906   1.874
17114W        W89539  23.970  29.041   2.965
17115W        W89540  37.806  29.440   4.181
17116W        W89541   5.961  15.793   0.445
17117W        W89542  22.240  21.017   3.263
17118W        W89543   0.474  44.641   2.338
17119W        W89544  24.083  44.763  12.390
17120W        W89545   8.372  36.241   0.963
17121W        W89546  22.658  33.805   2.366
17122W        W89547   1.014  36.603  12.113
17123W        W89548  26.105  40.543   0.263
17124W        W89549  12.545  27.225  14.387
17125W        W89550  44.378  22.309  13.942
17126W        W89551  42.047  19.046   4.165
17127W        W89552  13.133  13.344  13.116
17128W        W89553   6.841  24.232  11.400
17129W        W89554  16.007  35.539   5.129
17130W        W89555  26.665  29.456  14.951
17131W        W89556  11.085  21.646   4.902
17132W        W89557  29.478  23.952  11.926
17133W        W89558   4.892  23.172  12.027
17134W        W89559  39.274  41.985  12.578
17135W        W89560  23.768  27.669   3.147
17136W        W89561   9.134  41.931  13.921
17137W        W89562   4.290   1.332   0.382
17138W        W89563  13.841  39.873  12.940
17139W        W89564  15.557  33.563  10.472
17140W        W89565  24.020  35.045   1.139
17141W        W89566  36.420  24.131   2.890
17142W        W89567  19.314  25.615  10.749
17143W        W89568  37.459  22.763  14.589
17144W        W89569  22.028  44.211   0.283
17145W        W89570  39.232  36.395  12.048
17146W        W89571  26.387  13.373   4.207
17147W        W89572   0.002  27.901  13.829
17148W        W89573  31.351  11.690   4.080
17149W        W89574   0.734  30.809  10.768
17150W        W89575  19.764  34.949   1.316
17151W        W89576  39.387  17.800   3.671
17152W        W89577   2.746  23.985  12.375
17153W        W89578  32.970  42.525   9.977
17154W        W89579  29.728   0.948   0.308
17155W        W89580   1.071  15.233  10.917
17156W        W89581  24.725   3.385  12.688
17157W        W89582  17.641  11.138  12.436
17158W        W89583   8.664   8.441  13.994
17159W        W89584  12.860  29.861  11.340
17160W        W89585  23.642   4.338  14.494
17161W        W89586  32.385  29.133  12.524
17162W        W89587  34.009  24.375   2.941
17163W        W89588  13.042  25.946  14.761
17164W        W89589  28.604  28.495   1.682
17165W        W89590  25.608   4.441  11.388
17166W        W89591   3.464  41.491  14.973
17167W        W89592  30.918  40.150  11.594
17168W        W89593  40.479  12.781  12.964
17169W        W89594  31.472  35.467  12.130
17170W        W89595  44.967  40.292   4.193
17171W        W89596   1.933  38.343   3.257
17172W        W89597   4.704  26.965   4.166
17173W        W89598  43.042  12.751   3.709
17174W        W89599  14.162  36.785   4.128
17175W        W89600  22.486  42.123  11.898
17176W        W89601   5.598  19.865   3.226
17177W        W89602  32.991  43.293  11.171
17178W        W89603   7.680  27.888  14.660
17179W        W89604  37.808  19.158   2.665
17180W        W89605  34.172  36.897  12.553
17181W        W89606  36.004  23.441   3.516
17182W        W89607   2.942  19.785   4.227
17183W        W89608  43.321  10.348  13.451
17184W        W89609   4.700  27.007  13.387
17185W        W89610  10.941  42.415   2.461
17186W        W89611   1.551  16.918   2.324
17187W        W89612   0.707   8.997   2.778
17188W        W89613  36.047  40.150   2.426
17189W        W89614  19.035   7.361  11.167
17190W        W89615  18.770  22.775   3.117
17191W        W89616  29.475   9.163  11.098
17192W        W89617  24.011   9.349   0.924
17193W        W89618   2.890  39.941  14.791
17194W        W89619  27.975  21.000   2.789
17195W        W89620  26.667   2.450   0.394
17196W        W89621  43.885  40.104  13.366
17197W        W89622  23.018  30.864  10.565
17198W        W89623   2.581  15.343  14.472
17199W        W89624  14.984  14.456  11.128
17200W        W89625   5.434  39.017   1.811
17201W        W89626  21.708   5.394  12.959
17202W        W89627  30.515  23.401  14.804
17203W        W89628  41.438  24.150  10.399
17204W        W89629  31.536  36.502  13.541
17205W        W89630  20.261   7.193  14.096
17206W        W89631  26.075   2.947  11.574
17207W        W89632  34.608  18.461   3.911
17208W        W89633  24.191  23.617   3.515
17209W        W89634  15.541   3.451   1.471
17210W        W89635  20.777  27.175  11.816
17211W        W89636  21.139  25.173   4.405
17212W        W89637  17.979   0.283   3.363
17213W        W89638  39.290  12.278   4.217
17214W        W89639   2.915  10.806  14.345
17215W        W89640  11.200  12.332   1.852
17216W        W89641  40.408  36.052  13.413
17217W        W89642  21.292  33.004   2.323
17218W        W89643  23.681  16.907   3.624
17219W        W89644  24.771  41.282  10.804
17220W        W89645  34.813  28.003   3.385
17221W        W89646  30.247  13.593   0.283
17222W        W89647   7.951  21.817   4.125
17223W        W89648  27.739  30.817   5.305
17224W        W89649  37.623   9.415  12.390
17225W        W89650  43.568  13.656   2.231
17226W        W89651  30.931  24.721  12.114
17227W        W89652  32.317  17.796  12.878
17228W        W89653  32.031   9.344  14.224
17229W        W89654  15.058  41.295   2.755
17230W        W89655  14.615  16.783  10.620
17231W        W89656   2.276  26.868   2.014
17232W        W89657  26.742   5.806  13.950
17233W        W89658  39.284  40.053   1.821
17234W        W89659  26.409  17.981  12.555
17235W        W89660  16.342  22.126  12.970
17236W        W89661  31.975  35.921  10.718
17237W        W89662  31.457  34.506  12.495
17238W        W89663   9.281  19.700   1.450
17239W        W89664  44.273   3.882  10.590
17240W        W89665  18.967   3.048  14.297
17241W        W89666  10.557  26.616  13.802
17242W        W89667  30.878  16.116  14.866
17243W        W89668  21.692   3.378   4.803
17244W        W89669  13.538  24.241   1.682
17245W        W89670  41.774  36.196  12.640
17246W        W89671   2.532   8.379  12.675
17247W        W89672  13.310  33.476   4.435
17248W        W89673  17.751   7.756  12.891
17249W        W89674  31.694  11.304  11.232
17250W        W89675   2.864  28.133   4.976
17251W        W89676  18.842   6.216   3.781
17252W        W89677  20.743  26.969   3.706
17253W        W89678   4.516  30.964   5.028
17254W        W89679  14.250  22.977   0.988
17255W        W89680  34.159  28.696   4.096
17256W        W89681  36.729  35.045  13.877
17257W        W89682  36.049  26.698  12.772
17258W        W89683   0.363   9.303  10.550
17259W        W89684   7.419  11.417  11.670
17260W        W89685  17.303   5.873  14.560
17261W        W89686  42.001  17.021   0.530
17262W        W89687  32.978  26.545   0.285
17263W        W89688  17.307  44.419  11.191
17264W        W89689   6.698   4.895   3.604
17265W        W89690  40.528  12.658  14.445
17266W        W89691  12.867  31.546  13.361
17267W        W89692  12.352   4.291   0.772
17268W        W89693  23.750  24.903   4.274
17269W        W89694  39.370  36.004  11.028
17270W        W89695  11.428  24.027  14.082
17271W        W89696  43.349  11.096   3.542
17272W        W89697  25.999  13.235  13.727
17273W        W89698  21.843  10.663  12.076
17274W        W89699  31.535  27.189   0.857
17275W        W89700   6.752  35.361   4.081
17276W        W89701  13.195   0.683  11.028
17277W        W89702  38.624   5.895  13.938
17278W        W89703  35.164  27.406   2.616
17279W        W89704  26.759  44.345  14.405
17280W        W89705  39.863   4.484  11.593
17281W        W89706   9.297  35.710   0.140
17282W        W89707   3.522  26.093  10.425
17283W        W89708  18.031  11.702  13.417
17284W        W89709   5.011  20.750  13.255
17285W        W89710   5.928  26.639   2.625
17286W        W89711  19.516  23.226  13.935
17287W        W89712   7.101  20.410  14.314
17288W        W89713  21.774   3.645  14.588
17289W        W89714  24.511   0.532   0.803
17290W        W89715  44.920   1.338  13.398
17291W        W89716  38.117  25.486  11.545
17292W        W89717   9.156   5.894  10.561
17293W        W89718  38.895   5.933  14.426
17294W        W89719  24.482  27.415   0.902
17295W        W89720  18.105  41.440  14.824
17296W        W89721   6.286  35.184  14.638
17297W        W89722   3.854  29.754  12.874
17298W        W89723  15.814  19.335   0.814
17299W        W89724  13.607   5.682   0.807
17300W        W89725   8.315  12.221   1.826
17301W        W89726  23.072  43.054   2.134
17302W        W89727   6.404  22.740   3.190
17303W        W89728  16.365   9.793   0.656
17304W        W89729  17.801  12.148  12.505
17305W        W89730  36.157  40.119   3.338
17306W        W89731  10.414  33.905  13.569
17307W        W89732   7.977  15.189   4.255
17308W        W89733   6.301   1.908   2.955
17309W        W89734  37.134  43.499   2.764
17310W        W89735  43.939   1.578   4.265
17311W        W89736  33.160  15.105  11.053
17312W        W89737   2.121  36.518  14.059
17313W        W89738  14.564  33.483  10.599
17314W        W89739  36.377  13.240   3.627
17315W        W89740   9.922   9.652  12.860
17316W        W89741   6.740  15.406   1.942
17317W        W89742  20.626  12.608   0.747
17318W        W89743   7.972  38.360  14.188
17319W        W89744  10.873  22.082   3.622
17320W        W89745  10.832  13.312  14.493
17321W        W89746  37.067  20.565   0.828
17322W        W89747  15.658  38.546   4.284
17323W        W89748   0.249   7.393   4.617
17324W        W89749  15.730  11.099   2.760
17325W        W89750  19.653  39.593  12.575
17326W        W89751  34.941   8.863   0.192
17327W        W89752  35.599   1.117  13.182
17328W        W89753  14.093  43.478  13.801
17329W        W89754  25.896  13.883   4.430
17330W        W89755  17.868  23.684  12.990
17331W        W89756  22.922  20.753   4.593
17332W        W89757   0.265  11.466  11.157
17333W        W89758  41.799  14.711  10.554
17334W        W89759  40.985  41.252  12.989
17335W        W89760  19.662  11.405  13.322
17336W        W89761  17.669  43.877  13.404
17337W        W89762  14.379  37.634  12.420
17338W        W89763  17.583   0.186   2.444
17339W        W89764  37.992   2.972  11.422
17340W        W89765  11.326  34.108   3.136
17341W        W89766  14.225  12.800  14.449
17342W        W89767  11.586  12.389   0.765
17343W        W89768   0.370  28.167   2.381
17344W        W89769   0.435  12.927   0.278
17345W        W89770  14.284  23.734   1.813
17346W        W89771  19.682  39.290  12.083
17347W        W89772  15.901  31.027   1.796
17348W        W89773   8.265  26.703  13.738
17349W        W89774  39.878  41.039   3.582
17350W        W89775   8.886  39.810   4.693
17351W        W89776   2.202  10.846   2.267
17352W        W89777  12.805  10.244   2.162
17353W        W89778  17.458  34.025   1.834
17354W        W89779  41.880  24.690  13.805
17355W        W89780  28.918   0.354   4.367
17356W        W89781  37.971  11.315   4.651
17357W        W89782  12.196  38.159  13.856
17358W        W89783  21.171  31.593   1.744
17359W        W89784  43.963  37.999   3.875
17360W        W89785   2.746  23.025   1.838
17361W        W89786  14.541  24.486  13.332
17362W        W89787  15.608  33.636   2.284
17363W        W89788  23.117  39.713  12.492
17364W        W89789  17.310   1.153   3.230
17365W        W89790  30.164  43.199  10.799
17366W        W89791  28.382  43.861   2.356
17367W        W89792  25.435  39.328   4.828
17368W        W89793  40.585  28.627  11.601
17369W        W89794  14.062  32.925   2.224
17370W        W89795  25.161   9.917   4.181
17371W        W89796  44.868  40.568  12.372
17372W        W89797  27.302  29.655   3.322
17373W        W89798  27.528  42.841  10.932
17374W        W89799  22.491  35.993  14.025
17375W        W89800  30.567  41.486   4.981
17376W        W89801  23.149  12.207   9.773
17377W        W89802  10.334  15.468  10.261
17378W        W89803   9.607  12.654  12.262
17379W        W89804  16.994   1.659  11.029
17380W        W89805  31.710   0.706  13.379
17381W        W89806  18.393  27.869  13.287
17382W        W89807  25.453   6.701  10.762
17383W        W89808  41.914  12.199   0.413
17384W        W89809  14.056  32.979   4.645
17385W        W89810  23.625   2.566   3.563
17386W        W89811  17.701  20.469  11.923
17387W        W89812  34.625   2.717  12.062
17388W        W89813   7.665  23.648   3.823
17389W        W89814  29.655  13.431  14.921
17390W        W89815  15.090   5.713  14.345
17391W        W89816   6.877  29.374   2.939
17392W        W89817  37.770   2.871  12.472
17393W        W89818  29.039  38.001   1.855
17394W        W89819   6.408  21.726  13.830
17395W        W89820  17.614  39.372   4.426
17396W        W89821  35.350  20.792   4.310
17397W        W89822  44.227  35.162   4.244
17398W        W89823  32.208  25.495   1.379
17399W        W89824  12.552  12.695   2.821
17400W        W89825  26.672  25.285   0.383
17401W        W89826   6.917  14.539   4.504
17402W        W89827   9.106  31.000  13.607
17403W        W89828  11.332  14.735  13.918
17404W        W89829  11.294  23.025  10.124
17405W        W89830  12.295  10.228   2.302
17406W        W89831  14.748  29.941   1.247
17407W        W89832  31.855  28.703   4.159
17408W        W89833  34.082  26.709   2.593
17409W        W89834  17.594  11.103   1.424
17410W        W89835  20.135   1.847   3.476
17411W        W89836  24.461  31.167  14.193
17412W        W89837  12.902  40.046  14.413
17413W        W89838   3.343  15.263  14.854
17414W        W89839  35.050  30.310   4.188
17415W        W89840  29.323   4.864   4.684
17416W        W89841   0.722  40.799   1.354
17417W        W89842  19.313   7.094   3.323
17418W        W89843  21.562  34.986  12.074
17419W        W89844  37.768   8.149   5.148
17420W        W89845   5.712  40.219   3.094
17421W        W89846  14.237  40.047  12.012
17422W        W89847  33.652  24.738  13.308
17423W        W89848  41.266   0.278  12.060
17424W        W89849  13.627  14.822  12.304
17425W        W89850  27.002   5.418  13.031
17426W        W89851   6.453  23.407   4.905
17427W        W89852   7.163  18.750   3.879
17428W        W89853  39.513  21.755   3.192
17429W        W89854   1.368  32.160   4.154
17430W        W89855   4.844  11.385   3.150
17431W        W89856  23.068  37.108   2.793
17432W        W89857  36.450   4.785   2.701
17433W        W89858  38.004  41.494   3.240
17434W        W89859  18.556  31.392  10.749
17435W        W89860  14.698   3.525   2.374
17436W        W89861  17.269  10.240   1.420
17437W        W89862  36.524  23.468   5.116
17438W        W89863   7.978  39.990   0.747
17439W        W89864  17.998  37.505   3.657
17440W        W89865  37.440  23.508   1.055
17441W        W89866  23.701  30.213  13.901
17442W        W89867  32.935  36.908   4.584
17443W        W89868  10.576  36.885   1.324
17444W        W89869  14.999  19.666   2.362
17445W        W89870   9.350  28.374   4.505
17446W        W89871  15.396   2.030   1.533
17447W        W89872  16.215  35.995  13.904
17448W        W89873  29.215  34.025  13.994
17449W        W89874  13.720  35.919   2.852
17450W        W89875   8.215  38.384  13.126
17451W        W89876  33.851  17.057  10.940
17452W        W89877  26.551   2.132  14.936
17453W        W89878  44.917  17.118  14.428
17454W        W89879  31.937   4.303   1.654
17455W        W89880  43.200  17.962  11.588
17456W        W89881  30.846  36.107   1.734
17457W        W89882  38.124  31.985  14.122
17458W        W89883  29.000   2.640   4.564
17459W        W89884   6.809  27.129  12.412
17460W        W89885  12.342  34.125  11.617
17461W        W89886  10.440   1.322   2.417
17462W        W89887   9.160  21.974   1.283
17463W        W89888  10.835  10.604   0.468
17464W        W89889  27.157  25.547  12.120
17465W        W89890  34.868  26.402   4.165
17466W        W89891  37.452  38.988  10.390
17467W        W89892  44.383  32.043   2.860
17468W        W89893   1.939  41.696  14.727
17469W        W89894  36.035  19.663  13.882
17470W        W89895  14.755  20.292   1.266
17471W        W89896  35.942  33.982  10.606
17472W        W89897   4.472  39.344   0.065
17473W        W89898  35.387  20.080  10.836
17474W        W89899  34.482  12.857   1.228
17475W        W89900   1.267  12.643  10.613
17476W        W89901  10.380  34.533   4.109
17477W        W89902  15.050  43.095  11.154
17478W        W89903  23.381  20.731  14.856
17479W        W89904  41.259   8.615   1.251
17480W        W89905  27.002  13.983  14.491
17481W        W89906  28.868  16.278  11.327
17482W        W89907  15.550  16.574  12.122
17483W        W89908  41.842  10.705  10.381
17484W        W89909  27.676   8.878   1.348
17485W        W89910  26.128  38.749  14.976
17486W        W89911  44.926  33.109  13.313
17487W        W89912  10.896  35.239   4.273
17488W        W89913  39.391  35.517   1.208
17489W        W89914  13.705  20.195   1.265
17490W        W89915   9.953  11.634   4.466
17491W        W89916  23.663  19.798   3.331
17492W        W89917  43.918  24.451   1.262
17493W        W89918  28.161  23.137  10.923
17494W        W89919   1.856  16.643   1.742
17495W        W89920  41.817  24.121   0.438
17496W        W89921  44.230  10.223   0.879
17497W        W89922  15.602  31.803  11.612
17498W        W89923   4.807  26.765   1.526
17499W        W89924  41.006  21.723  14.428
17500W        W89925   8.254  13.623   3.816
17501W        W89926  39.248  22.092   0.266
17502W        W89927  11.896  28.565   1.941
17503W        W89928  28.288  20.790   3.162
17504W        W89929  16.797  27.606   4.788
17505W        W89930   5.274   6.925   2.981
17506W        W89931  37.046  37.459   4.604
17507W        W89932  15.356   0.754   4.079
17508W        W89933  19.065  26.096  11.737
17509W        W89934  16.527   8.143  10.317
17510W        W89935  34.527   5.920  14.486
17511W        W89936   5.944  22.116  12.558
17512W        W89937  32.893  27.053   1.152
17513W        W89938  23.006  44.706  12.506
17514W        W89939  25.049  42.710   1.192
17515W        W89940  31.256   5.692  12.487
17516W        W89941  27.053  37.103  12.076
17517W        W89942   1.418  14.369   4.646
17518W        W89943  32.541   4.461  12.606
17519W        W89944  13.886  21.302   1.321
17520W        W89945  26.908  39.950  12.792
17521W        W89946   0.473  41.002   4.823
17522W        W89947  43.841   9.605  13.307
17523W        W89948  17.232   4.828   4.984
17524W        W89949   3.278  44.304  11.420
17525W        W89950  40.702  35.201   2.304
17526W        W89951  39.644  10.062  12.081
17527W        W89952  42.431  12.536  11.068
17528W        W89953   1.455  28.929   0.759
17529W        W89954  10.719  34.158  11.018
17530W        W89955  25.949  37.133   2.247
17531W        W89956  24.547  20.858  13.187
17532W        W89957   7.856  37.488  13.271
17533W        W89958  14.134   8.207   4.597
17534W        W89959  43.833  44.079  13.437
17535W        W89960   0.333  23.450   1.411
17536W        W89961  11.232  28.079  10.781
17537W        W89962  17.795  19.133  14.821
17538W        W89963   0.460  44.768   3.723
17539W        W89964   9.424  11.352  12.466
17540W        W89965   1.839   8.619   2.345
17541W        W89966  20.624  40.721  10.848
17542W        W89967  19.230  17.211   4.108
17543W        W89968  41.343   3.271   2.468
17544W        W89969   7.927  16.015   3.583
17545W        W89970  41.309  25.300  14.828
17546W        W89971   6.103   2.005   2.466
17547W        W89972  38.761  25.036  12.952
17548W        W89973  38.843   1.916  13.602
17549W        W89974  36.839  17.059   1.862
17550W        W89975  18.800  36.536   1.341
17551W        W89976  37.890   7.919   4.676
17552W        W89977  43.022  12.887   1.436
17553W        W89978   5.252  30.591  13.972
17554W        W89979  30.141  15.862  11.264
17555W        W89980  18.101  33.920  10.235
17556W        W89981   7.200  35.875  10.755
17557W        W89982  35.066   7.673   3.204
17558W        W89983  28.490  17.485   1.261
17559W        W89984   9.884  13.221  10.668
17560W        W89985  13.386   7.624  13.862
17561W        W89986  40.888  34.519   1.758
17562W        W89987  44.115  12.626   1.633
17563W        W89988  34.058  23.158   2.356
17564W        W89989   6.886   6.348   4.966
17565W        W89990  18.474  32.320   3.678
17566W        W89991  18.559   9.374   4.248
17567W        W89992   8.380  38.068   4.575
17568W        W89993  27.716  25.767   0.324
17569W        W89994  39.226  38.621   2.733
17570W        W89995  14.631   7.739   1.919
17571W        W89996  23.412  12.068   3.785
17572W        W89997  31.148  31.382  13.624
17573W        W89998   3.224   4.864   4.731
17574W        W89999  32.513   6.414  10.348
17575W        W90000  29.658   9.120   3.304
17576W        W90001  14.250  16.141  13.154
17577W        W90002  35.962  33.156   0.454
17578W        W90003  36.892  17.851   0.648
17579W        W90004  43.795  33.425   1.075
17580W        W90005  42.582  37.905  13.794
17581W        W90006   1.022  27.529  13.056
17582W        W90007  41.831  24.711   3.225
17583W        W90008  33.895  16.341   2.367
17584W        W90009  11.675  24.975   4.480
17585W        W90010  35.617  27.505  12.285
17586W        W90011  42.476  28.705  11.147
17587W        W90012  42.361   5.224   3.646
17588W        W90013  11.290  24.503  13.978
17589W        W90014   8.450  13.156  10.506
17590W        W90015  29.489   3.728  12.124
17591W        W90016  32.646  17.251   0.983
17592W        W90017  13.114  33.045  14.598
17593W        W90018  24.519  28.203   2.006
17594W        W90019  38.849  42.987   2.438
17595W        W90020   6.819  39.649   0.219
17596W        W90021  18.865   7.803   1.617
17597W        W90022   9.679  15.669   2.876
17598W        W90023  28.002  33.540  14.206
17599W        W90024  44.616  37.572   5.150
17600W        W90025   6.361  28.484   0.235
17601W        W90026   8.608  26.255   0.921
17602W        W90027  20.090  40.780  11.879
17603W        W90028  16.262  19.242  13.414
17604W        W90029   3.101  20.136   1.750
17605W        W90030   4.717   5.436  11.205
17606W        W90031   5.398  25.078  10.742
17607W        W90032  31.139   7.596   4.194
17608W        W90033  35.018  19.563   2.405
17609W        W90034  24.669  36.412   4.064
17610W        W90035  42.308  33.539   1.836
17611W        W90036   3.264  19.973  14.991
17612W        W90037  31.503  10.740  13.822
17613W        W90038  24.095  36.299  11.547
17614W        W90039  25.457  32.363   5.493
17615W        W90040  39.846  27.065  13.331
17616W        W90041  31.642  39.012  11.394
17617W        W90042  40.870   1.443  10.670
17618W        W90043  35.383  23.967   0.472
17619W        W90044  28.488  25.498   2.712
17620W        W90045  29.878  36.002   1.239
17621W        W90046  14.333  13.641   0.282
17622W        W90047   4.066  31.484   3.462
17623W        W90048  23.970   1.245   4.731
17624W        W90049  11.184  43.177  11.608
17625W        W90050  42.857  13.100   2.764
17626W        W90051   7.349  26.244  12.585
17627W        W90052   6.212  13.637  13.804
17628W        W90053   6.676  16.597   3.713
17629W        W90054  39.369  24.075  10.635
17630W        W90055  32.382  37.649   4.662
17631W        W90056  36.823  23.053  12.029
17632W        W90057  33.932  32.887   0.508
17633W        W90058   2.790  20.711  10.841
17634W        W90059  42.513  32.321   1.480
17635W        W90060  41.528  16.865  14.144
17636W        W90061  10.036  33.593   4.153
17637W        W90062  44.263  26.502   3.117
17638W        W90063  30.944  44.472   4.612
17639W        W90064   5.679  43.431   2.846
17640W        W90065  22.108  42.534  12.449
17641W        W90066  29.700  13.543  11.122
17642W        W90067  23.332  35.534  11.079
17643W        W90068  29.158   0.604  13.751
17644W        W90069  36.400  21.753  11.563
17645W        W90070  10.571  15.512  10.958
17646W        W90071  14.694   4.848  10.607
17647W        W90072  33.503  18.259  11.024
17648W        W90073  17.610  41.349   0.408
17649W        W90074  41.490  17.142  12.631
17650W        W90075  12.955  33.905   0.456
17651W        W90076  12.840  24.613   0.922
17652W        W90077   7.327  41.763  12.431
17653W        W90078  41.442  36.495   0.230
17654W        W90079  44.915  42.697   3.829
17655W        W90080  15.042   1.536   0.751
17656W        W90081  40.971   6.740   4.782
17657W        W90082  13.558  24.564   2.356
17658W        W90083  19.637  23.996   0.292
17659W        W90084   7.857   2.986   2.254
17660W        W90085  27.678  44.506   1.944
17661W        W90086   1.282   9.272   1.550
17662W        W90087  18.847  34.938   0.314
17663W        W90088  41.887   9.122   2.168
17664W        W90089  15.820  38.273  12.811
17665W        W90090  25.497  22.951  13.452
17666W        W90091  27.526  41.386   0.685
17667W        W90092  31.049  32.369   0.275
17668W        W90093  17.699   6.773  12.874
17669W        W90094  26.581  12.400  13.834
17670W        W90095   8.713  28.629  11.623
17671W        W90096  12.446   5.720   4.126
17672W        W90097  33.028   9.803   1.835
17673W        W90098  22.832  19.068  10.797
17674W        W90099  35.927   0.736  14.478
17675W        W90100  10.378  12.357  11.580
17676W        W90101  39.539  20.692  14.878
17677W        W90102  44.256  15.167   0.524
17678W        W90103  41.473  17.292  14.405
17679W        W90104  43.260  42.760  13.864
17680W        W90105  44.403  38.888   1.134
17681W        W90106  42.907   7.873  14.587
17682W        W90107   7.967  41.323  11.161
17683W        W90108   4.258   5.736  11.158
17684W        W90109  26.849  41.911  11.422
17685W        W90110  23.014  32.841  12.493
17686W        W90111   1.004  38.788  10.898
17687W        W90112  17.441  36.242  13.580
17688W        W90113  44.904  41.075   2.529
17689W        W90114  15.346  40.967   1.417
17690W        W90115  10.053  44.728  12.887
17691W        W90116  15.766  44.761   2.027
17692W        W90117  43.273  22.118   9.689
17693W        W90118  30.118  16.137   0.722
17694W        W90119   6.189  11.283  11.370
17695W        W90120  22.561  41.231  12.224
17696W        W90121   6.490   6.745   0.466
17697W        W90122  36.746  25.175   4.190
17698W        W90123  14.824  15.686  10.032
17699W        W90124   7.692  41.259   0.999
17700W        W90125  23.269  12.186   5.031
17701W        W90126   5.865  42.789   1.339
17702W        W90127  19.578  31.421   2.307
17703W        W90128  21.197  36.112   2.470
17704W        W90129   6.717   1.702  13.026
17705W        W90130  10.854  40.731  14.813
17706W        W90131  36.413  33.874  11.862
17707W        W90132  38.894  12.913   4.735
17708W        W90133  24.081  42.273   3.696
17709W        W90134  29.393   2.930   2.498
17710W        W90135   6.708  31.166  11.897
17711W        W90136  11.259  31.143  11.720
17712W        W90137  44.163   8.928   0.161
17713W        W90138   2.848  13.607   2.338
17714W        W90139  37.156  21.660   2.802
17715W        W90140  39.010  15.680   3.169
17716W        W90141   3.382   3.544   5.113
17717W        W90142  19.551   7.333   1.848
17718W        W90143  35.781  37.834   2.435
17719W        W90144  43.400  44.501   1.239
17720W        W90145  27.662  42.933  14.036
17721W        W90146  14.530  30.651   2.327
17722W        W90147   2.386  42.509  13.379
17723W        W90148  30.985  27.937   0.451
17724W        W90149  18.652   4.729   3.907
17725W        W90150   2.712  21.433   1.261
17726W        W90151  16.433  34.072   9.854
17727W        W90152   5.762  43.769   0.337
17728W        W90153   2.409  25.938  14.012
17729W        W90154  39.107  22.036   4.577
17730W        W90155  27.233  19.485  11.023
17731W        W90156   3.807  11.719   3.759
17732W        W90157  13.922  18.617   4.150
17733W        W90158  14.115  14.113   1.989
17734W        W90159  16.788  27.573   1.432
17735W        W90160  33.691  11.440   3.348
17736W        W90161  32.917   4.826   2.257
17737W        W90162  21.161  38.973  14.217
17738W        W90163  44.893  14.917   4.702
17739W        W90164  33.742  38.414   2.808
17740W        W90165  26.033  26.645   2.926
17741W        W90166  14.375  38.994   2.277
17742W        W90167  41.092   6.769  13.974
17743W        W90168   6.062   2.827  13.312
17744W        W90169  16.244   4.448  11.655
17745W        W90170  24.694   0.033   1.466
17746W        W90171  25.268  28.669  14.493
17747W        W90172  42.424  31.905  10.400
17748W        W90173  37.167  16.836  13.463
17749W        W90174  44.891   7.360   2.614
17750W        W90175  12.674  39.829   4.215
17751W        W90176  10.430  20.685  13.253
17752W        W90177   8.861  10.206  13.549
17753W        W90178   1.500  36.897  13.855
17754W        W90179  38.009   4.651  11.718
17755W        W90180  21.470  14.065  13.893
17756W        W90181  40.136  12.413   0.005
17757W        W90182  40.198   8.176  13.883
17758W        W90183   0.461  23.642  12.844
17759W        W90184  25.431  16.228  12.914
17760W        W90185  42.773   6.751   3.209
17761W        W90186   7.779  22.080   4.543
17762W        W90187   1.814  38.807  12.078
17763W        W90188   8.697   1.778  13.567
17764W        W90189  18.227   4.471   4.077
17765W        W90190  13.575   0.832   5.304
17766W        W90191  25.261   6.252  14.959
17767W        W90192   7.738  20.804  13.047
17768W        W90193  42.974  42.843   4.937
17769W        W90194  38.466   9.441   0.491
17770W        W90195  38.053  29.761  12.173
17771W        W90196  10.231  40.660  11.187
17772W        W90197  21.718  29.614  14.954
17773W        W90198  16.755  23.194  11.690
17774W        W90199  40.119  19.611  12.060
17775W        W90200  17.797  24.988   2.282
17776W        W90201  34.444  34.431  14.947
17777W        W90202  22.689  23.051  12.425
17778W        W90203  16.676  26.039   0.106
17779W        W90204  11.150   4.682  11.544
17780W        W90205  17.589  26.180  12.841
17781W        W90206  31.211   3.914   2.891
17782W        W90207  27.858  29.748   2.647
17783W        W90208   1.318  12.854   0.345
17784W        W90209  37.900   7.072  11.558
17785W        W90210  18.819  22.524  11.691
17786W        W90211  25.984  16.766  10.923
17787W        W90212  18.073   8.278   4.648
17788W        W90213  35.857   3.318  13.479
17789W        W90214  32.836  16.732  13.914
17790W        W90215  34.087   8.513   9.924
17791W        W90216  41.098  30.906  12.133
17792W        W90217  30.201   0.467   2.911
17793W        W90218   9.809   4.899  13.317
17794W        W90219  24.983   7.595  12.526
17795W        W90220  13.214  15.392  13.350
17796W        W90221   2.026  14.264   3.044
17797W        W90222  16.172  36.837  12.959
17798W        W90223  26.626  34.442  14.347
17799W        W90224  18.210  35.529  12.527
17800W        W90225   6.268   6.279  13.452
17801W        W90226   2.856  37.329  12.149
17802W        W90227   2.318   9.166   2.009
17803W        W90228  12.656  43.003   1.223
17804W        W90229   7.799  24.684   1.304
17805W        W90230  11.367   2.525   1.657
17806W        W90231  25.912  27.977  12.810
17807W        W90232  13.252  29.883   2.338
17808W        W90233  35.969  42.397  12.024
17809W        W90234  38.988   5.706  14.881
17810W        W90235   5.219  29.254   2.167
17811W        W90236  28.160  26.604   5.088
17812W        W90237  24.616  10.633  14.036
17813W        W90238   5.849   4.641   3.963
17814W        W90239  38.589  37.493   4.623
17815W        W90240   5.243  43.530  11.678
17816W        W90241   0.628   3.716   0.758
17817W        W90242   7.172  16.628   3.915
17818W        W90243   3.955  42.540  12.504
17819W        W90244   8.033  20.227  10.595
17820W        W90245  11.081  41.395   1.858
17821W        W90246   2.682   6.362  13.986
17822W        W90247  39.877  21.549   2.289
17823W        W90248  44.933   2.714  14.678
17824W        W90249  18.597  24.851   3.694
17825W        W90250   6.692  44.023   3.877
17826W        W90251   1.635  39.043   2.679
17827W        W90252  38.794  19.152  13.009
17828W        W90253  37.553  10.470  14.270
17829W        W90254  36.506  24.449  13.964
17830W        W90255  35.002  21.995   3.765
17831W        W90256   9.602  38.100  11.581
17832W        W90257   6.917   3.266   0.347
17833W        W90258  38.284   3.633  14.479
17834W        W90259  24.018  13.945   3.113
17835W        W90260  44.003   5.960  12.334
17836W        W90261  26.510  33.723   1.297
17837W        W90262  28.442  25.682  10.530
17838W        W90263  43.925   6.130  11.397
17839W        W90264  17.234   3.299   2.291
17840W        W90265   0.008  35.608   3.302
17841W        W90266  15.759  31.575   1.155
17842W        W90267  38.977  38.101  13.092
17843W        W90268   7.805   9.561  14.323
17844W        W90269   6.500  34.044   1.901
17845W        W90270  19.061  40.926  12.434
17846W        W90271  12.944  22.221  13.850
17847W        W90272  12.484  41.299  13.921
17848W        W90273  26.855  23.136  13.348
17849W        W90274  40.337  35.933  12.578
17850W        W90275   0.295   9.670   1.297
17851W        W90276  10.571   3.989   3.827
17852W        W90277  14.197   6.625   2.100
17853W        W90278  11.259  13.195  11.132
17854W        W90279   4.243  25.735  11.429
17855W        W90280  36.547  40.313   0.796
17856W        W90281  10.288   5.760  14.876
17857W        W90282  37.455   1.396  14.001
17858W        W90283  42.859  20.300   4.255
17859W        W90284  17.468  28.785   2.936
17860W        W90285  43.283  40.963   3.217
17861W        W90286  39.267  39.955  12.904
17862W        W90287  35.896  10.417   1.707
17863W        W90288   9.898   9.607   4.733
17864W        W90289   5.025  17.611  14.460
17865W        W90290  25.242  30.929  11.000
17866W        W90291  38.497  13.613   3.906
17867W        W90292  19.452   8.755  12.748
17868W        W90293  10.281  27.063  11.646
17869W        W90294  22.020  16.827   2.766
17870W        W90295  35.528  35.321  15.000
17871W        W90296  42.112   0.231   0.290
17872W        W90297  10.307   2.378   0.673
17873W        W90298  41.044  22.569   3.081
17874W        W90299  28.348  14.443  12.463
17875W        W90300   1.336  10.932   2.780
17876W        W90301  19.250  24.758   3.398
17877W        W90302  42.124  24.674  12.651
17878W        W90303  42.189  22.138   2.735
17879W        W90304  13.811  34.138   1.407
17880W        W90305  13.682  37.048  11.508
17881W        W90306  24.190  36.300   0.826
17882W        W90307  13.970  27.982   3.741
17883W        W90308  22.191  44.440   2.904
17884W        W90309  30.367   7.514   3.733
17885W        W90310   7.650  35.105  11.171
17886W        W90311  21.733   8.009   2.316
17887W        W90312  20.371   5.652  14.502
17888W        W90313  19.204  16.982   3.165
17889W        W90314  25.924  10.853   1.482
17890W        W90315  26.737  17.767   1.161
17891W        W90316  33.207  30.399  10.634
17892W        W90317  42.153  14.624   0.901
17893W        W90318   3.226  22.098  12.028
17894W        W90319  41.841  19.626  13.491
17895W        W90320  36.977  44.373  13.261
17896W        W90321  24.071  35.691   4.294
17897W        W90322  41.403  41.493   2.328
17898W        W90323   8.760   8.614   3.097
17899W        W90324  24.977  32.520   0.878
17900W        W90325  36.897   2.681  14.374
17901W        W90326  35.868  37.926  13.155
17902W        W90327  35.638  29.068   1.825
17903W        W90328  13.920  23.125  10.254
17904W        W90329  37.299  44.656   0.154
17905W        W90330  31.050  37.073   2.581
17906W        W90331  30.423   4.116   0.351
17907W        W90332  22.743  31.042  13.365
17908W        W90333  29.744  36.353   0.017
17909W        W90334   1.699  39.712   1.312
17910W        W90335  10.486   1.246   3.312
17911W        W90336  15.655  40.546  14.303
17912W        W90337  30.579  27.764   2.728
17913W        W90338   2.293  40.288   3.233
17914W        W90339  17.619   6.324  14.449
17915W        W90340  33.091   9.939   3.138
17916W        W90341  31.489  17.150  13.279
17917W        W90342   2.289  11.132   0.473
17918W        W90343   9.608   6.492   0.241
17919W        W90344  41.952  36.617   1.540
17920W        W90345   2.417  13.352   2.304
17921W        W90346  33.512  35.083  10.705
17922W        W90347  30.945  34.540   4.502
17923W        W90348  33.089  25.928   4.597
17924W        W90349   3.017  20.635  11.319
17925W        W90350  21.548  18.341   2.679
17926W        W90351  13.310  31.459  11.878
17927W        W90352  10.896  44.304  14.896
17928W        W90353   1.706  38.963  14.914
17929W        W90354  33.615   0.315   0.455
17930W        W90355  35.003  27.935  10.656
17931W        W90356   8.114  36.574  13.231
17932W        W90357  22.472   2.930  13.065
17933W        W90358  44.296  18.085  14.891
17934W        W90359  35.183  33.814  10.977
17935W        W90360  42.964   5.648  13.450
17936W        W90361  34.418  43.748   4.377
17937W        W90362   7.387   9.656  13.931
17938W        W90363  15.622  27.225  11.887
17939W        W90364  27.515  32.879   2.202
17940W        W90365  13.545  23.451   4.113
17941W        W90366  21.139   2.414   0.712
17942W        W90367   6.400  13.756  11.975
17943W        W90368  21.621  11.745  13.609
17944W        W90369  13.921  32.446   1.978
17945W        W90370   8.597   0.294   3.674
17946W        W90371   1.037   7.715   3.726
17947W        W90372  29.035  23.529  13.984
17948W        W90373  40.907   4.348   2.069
17949W        W90374  26.088   9.739   3.181
17950W        W90375  44.488  25.118   2.681
17951W        W90376  15.219  42.038  13.883
17952W        W90377  32.857  11.769  12.014
17953W        W90378   7.400  26.775  11.078
17954W        W90379  21.843  42.490  14.783
17955W        W90380   0.924  37.592  11.920
17956W        W90381  40.558  31.319  14.400
17957W        W90382  43.543  28.149  12.437
17958W        W90383  37.351  38.429  11.865
17959W        W90384  27.460  32.030   2.014
17960W        W90385  10.307   9.357   3.062
17961W        W90386  23.743  15.759  13.582
17962W        W90387  12.289   6.201  12.166
17963W        W90388  32.130  15.555  13.920
17964W        W90389   1.602  38.823   1.229
17965W        W90390   4.424  11.100   1.895
17966W        W90391  16.991  21.237  14.381
17967W        W90392  38.300  19.210  12.961
17968W        W90393   5.399  33.428   1.152
17969W        W90394  31.523  32.505  13.013
17970W        W90395  23.162  13.114  10.651
17971W        W90396  13.573  32.530   2.913
17972W        W90397   0.827  33.986   5.465
17973W        W90398  43.258  40.012  14.479
17974W        W90399  34.020   4.957   4.114
17975W        W90400  23.553  31.603  11.380
17976W        W90401   6.914   0.285  11.926
17977W        W90402  15.161  22.943  14.982
17978W        W90403  40.451  27.573  12.258
17979W        W90404  36.640   6.728  10.797
17980W        W90405  28.779  37.819   0.172
17981W        W90406  14.534  33.077   4.447
17982W        W90407   4.334  44.801  14.961
17983W        W90408   6.975   5.982  13.921
17984W        W90409  37.570  17.368   0.217
17985W        W90410  24.056  17.878  12.104
17986W        W90411  30.681   0.821  13.341
17987W        W90412   9.805   3.308   1.978
17988W        W90413  13.716  39.921   2.324
17989W        W90414   9.181  29.116   3.469
17990W        W90415   5.922  39.758  13.418
17991W        W90416  20.272   3.013   2.857
17992W        W90417  22.821  44.058  11.979
17993W        W90418  11.284  20.227  11.995
17994W        W90419  41.998  14.846  13.318
17995W        W90420   4.172  33.413   3.746
17996W        W90421   4.880  37.904   3.311
17997W        W90422   1.718  43.034   3.257
17998W        W90423  12.199  10.809  10.655
17999W        W90424  39.528  18.054   4.111
18000W        W90425  35.114  17.748   0.692
18001W        W90426  18.444   8.850  14.774
18002W        W90427  33.081  36.836   0.498
18003W        W90428  10.684   9.369  10.996
18004W        W90429   0.996  21.545   1.430
18005W        W90430   6.479  33.514   4.067
18006W        W90431  17.865  37.840  14.540
18007W        W90432  11.907  13.782   2.521
18008W        W90433   5.158  13.310   3.595
18009W        W90434  38.768  26.950   3.989
18010W        W90435  43.465  19.158  14.475
18011W        W90436   5.707  21.545  11.402
18012W        W90437  23.688  23.768   0.257
18013W        W90438  19.264  44.767   0.321
18014W        W90439  12.580   6.810   4.455
18015W        W90440   2.173  29.903  11.447
18016W        W90441   2.140  44.726   9.751
18017W        W90442  21.773  41.784  13.983
18018W        W90443   5.803  12.458   3.056
18019W        W90444  19.128  27.230  11.103
18020W        W90445  42.400  16.083   2.403
18021W        W90446  38.380  15.804  14.957
18022W        W90447   8.022  12.866   1.171
18023W        W90448  39.612  17.049  12.896
18024W        W90449  27.521   6.277   1.189
18025W        W90450   3.745  44.451   4.936
18026W        W90451   3.299  19.063  13.300
18027W        W90452  23.921  43.204   3.876
18028W        W90453  29.179   5.993   3.729
18029W        W90454  37.333  44.487   1.489
18030W        W90455  26.593  35.587   2.762
18031W        W90456  24.112   4.838   4.086
18032W        W90457  19.178  26.029  12.697
18033W        W90458  22.623   0.821  12.928
18034W        W90459   8.374  37.365  11.282
18035W        W90460   6.153  19.212   1.997
18036W        W90461  15.881  41.475   2.678
18037W        W90462  36.172  31.817  13.457
18038W        W90463  23.689   2.394  13.400
18039W        W90464  28.966   9.295  14.928
18040W        W90465  26.257  39.264  14.993
18041W        W90466  11.708  21.153   2.188
18042W        W90467   6.883  39.920   2.303
18043W        W90468   0.373  25.914   0.955
18044W        W90469   4.691  16.083  14.899
18045W        W90470  22.808   3.996   3.311
18046W        W90471   9.329   8.030  14.716
18047W        W90472   1.494  17.095   1.824
18048W        W90473  20.472  34.460  13.466
18049W        W90474  19.061  23.315   4.744
18050W        W90475  13.640  13.379   0.405
18051W        W90476  40.394  21.595  14.784
18052W        W90477  38.821  43.893  11.661
18053W        W90478  18.481  29.917   3.149
18054W        W90479  42.888  35.741   1.841
18055W        W90480  23.396  18.715  12.811
18056W        W90481  17.680  11.688  13.786
18057W        W90482   5.381   6.799  12.374
18058W        W90483  21.177  18.078   3.766
18059W        W90484   9.665  38.609   4.200
18060W        W90485  26.641  19.981  11.460
18061W        W90486   6.909  19.812   4.108
18062W        W90487  38.673   6.647  11.060
18063W        W90488  16.751   0.390   2.723
18064W        W90489  32.905  43.742  11.822
18065W        W90490   6.229  10.607  12.191
18066W        W90491  24.214  30.648  13.322
18067W        W90492  32.969  26.123  14.946
18068W        W90493   0.465   6.227   2.900
18069W        W90494  26.207  26.523   2.446
18070W        W90495  16.174  22.590   2.397
18071W        W90496   1.370   6.753   1.504
18072W        W90497  35.609   1.029   0.460
18073W        W90498  16.377  29.083   4.634
18074W        W90499  27.143  34.986   0.809
18075W        W90500  10.758  14.143   1.132
18076W        W90501  22.618  25.950   1.853
18077W        W90502  31.338  38.882   2.822
18078W        W90503  32.882   3.473  13.035
18079W        W90504  14.321  31.590   0.042
18080W        W90505  34.901  29.449  14.698
18081W        W90506   3.934   9.462  13.012
18082W        W90507  29.599   5.167  11.728
18083W        W90508  43.005  16.030   1.276
18084W        W90509  19.304  25.572  13.889
18085W        W90510   3.233  21.365   3.783
18086W        W90511  36.417  28.782   2.223
18087W        W90512  39.602   5.595   1.087
18088W        W90513   7.226  21.449  10.413
18089W        W90514  39.388  44.526   3.254
18090W        W90515  24.669   9.151  14.848
18091W        W90516  31.743   9.779   3.735
18092W        W90517   6.660  24.982  12.976
18093W        W90518   7.779   4.925  11.581
18094W        W90519  13.626  23.292   4.585
18095W        W90520   2.987   3.503   0.641
18096W        W90521   5.404  28.945   4.140
18097W        W90522   9.428  23.303   3.144
18098W        W90523  25.122  18.443  11.323
18099W        W90524   3.298  22.162   0.256
18100W        W90525   2.849   2.189  13.977
18101W        W90526   9.594  17.701  12.915
18102W        W90527  21.378  14.279   1.188
18103W        W90528  14.793  44.297  10.068
18104W        W90529  28.732  16.367  13.223
18105W        W90530  27.262  39.473   4.185
18106W        W90531  30.424  15.174  13.739
18107W        W90532  14.309  11.349  14.430
18108W        W90533  14.379  39.183  14.969
18109W        W90534  13.330   4.883   2.867
18110W        W90535   5.403  36.331  12.475
18111W        W90536   0.571   2.832   2.256
18112W        W90537  26.108  31.510  13.027
18113W        W90538  40.460  34.556   3.017
18114W        W90539  36.213  35.742  14.238
18115W        W90540  18.754  32.567   4.165
18116W        W90541  43.742  20.260   3.739
18117W        W90542  42.521  27.225  13.589
18118W        W90543  20.531  21.974  11.930
18119W        W90544  34.015   8.672  12.359
18120W        W90545  23.729  40.448   4.582
18121W        W90546   4.792  18.279   2.626
18122W        W90547  41.535  36.448   4.771
18123W        W90548  38.652  11.634  13.175
18124W        W90549  24.694  34.641   2.258
18125W        W90550  26.629   5.235  14.391
18126W        W90551  10.125  14.959  11.534
18127W        W90552  25.556   9.289   3.680
18128W        W90553   8.213  40.124  14.356
18129W        W90554   8.634  35.508   1.330
18130W        W90555  20.335  32.635  13.051
18131W        W90556  42.651   4.425   4.074
18132W        W90557  40.274  27.919   3.639
18133W        W90558  40.488  25.205   1.880
18134W        W90559  23.510  32.188  11.090
18135W        W90560  14.237  41.327   3.406
18136W        W90561  17.214  16.817   0.570
18137W        W90562   7.934  15.175  12.519
18138W        W90563  27.315  29.093  13.908
18139W        W90564  16.774  13.290  14.393
18140W        W90565  11.469  30.834  14.251
18141W        W90566  43.196   7.659  10.242
18142W        W90567  21.055   0.069   4.928
18143W        W90568  30.999  43.948   4.733
18144W        W90569  40.913  36.597   2.390
18145W        W90570   3.849  14.801  14.882
18146W        W90571  19.760  11.820   4.214
18147W        W90572  33.613   4.005   1.364
18148W        W90573  33.636  35.609   2.761
18149W        W90574   5.152  11.872  13.578
18150W        W90575   8.450  18.730  11.678
18151W        W90576  18.563  35.068  12.016
18152W        W90577  40.806  16.878  11.532
18153W        W90578  41.934  21.554  14.508
18154W        W90579  14.092  40.451  10.784
18155W        W90580  18.194  34.258  12.579
18156W        W90581  26.009   0.270   4.056
18157W        W90582  17.143   7.908   1.728
18158W        W90583  36.072  13.627   1.798
18159W        W90584  17.163  33.623   4.385
18160W        W90585  12.181  18.814  12.139
18161W        W90586  43.687  17.018  14.002
18162W        W90587  34.981  39.821   1.286
18163W        W90588  42.550   8.419   4.626
18164W        W90589  36.013  14.828  12.505
18165W        W90590  31.193  13.887  14.818
18166W        W90591  22.062   7.305  13.868
18167W        W90592  33.153  42.277  14.420
18168W        W90593  16.261  13.260  14.522
18169W        W90594  30.548  36.606  12.435
18170W        W90595   4.496  28.102   5.011
18171W        W90596   0.200   6.376   3.389
18172W        W90597   1.684  16.073   1.020
18173W        W90598  36.368  17.981  11.922
18174W        W90599   7.884  16.739  10.625
18175W        W90600   6.147  21.046   4.864
18176W        W90601  17.139   1.429   2.387
18177W        W90602  10.459  16.090  13.056
18178W        W90603  18.275  24.019   0.305
18179W        W90604  33.869  22.096  14.879
18180W        W90605  13.711  32.873  13.827
18181W        W90606  16.387  29.455  13.970
18182W        W90607  40.109  32.093  12.395
18183W        W90608   7.247  31.995  11.460
18184W        W90609  37.060  31.994   5.030
18185W        W90610   2.815   9.566  14.825
18186W        W90611  11.289  23.471  10.921
18187W        W90612  29.019  11.376   2.154
18188W        W90613  27.055  23.024   3.300
18189W        W90614  41.047  17.721  13.880
18190W        W90615  18.582  15.713   0.771
18191W        W90616  30.676  36.312   2.244
18192W        W90617  29.087  21.702  11.899
18193W        W90618  31.219  32.363  12.400
18194W        W90619  17.866   7.445   2.246
18195W        W90620   8.370   2.437   3.244
18196W        W90621   7.191  28.289  13.537
18197W        W90622   6.540   3.154  12.475
18198W        W90623  36.103   1.788  12.046
18199W        W90624  12.899  17.325  13.934
18200W        W90625  41.785   0.389  12.869
18201W        W90626  33.154   3.752   1.327
18202W        W90627  35.394  44.893  13.937
18203W        W90628  41.831  44.877  14.590
18204W        W90629  11.391  35.472   4.248
18205W        W90630  19.714  19.857  11.399
18206W        W90631  30.809  32.659  13.721
18207W        W90632  30.019   6.889   4.213
18208W        W90633   5.873  44.832   2.769
18209W        W90634  23.555   1.982   3.833
18210W        W90635  39.672  13.796  11.144
18211W        W90636  26.898  18.692  10.627
18212W        W90637   5.861   7.298   4.102
18213W        W90638  30.854   9.068   1.810
18214W        W90639  34.896  35.364  11.155
18215W        W90640  40.892  40.062   4.638
18216W        W90641  25.154  28.032   4.188
18217W        W90642  34.331  42.266   4.386
18218W        W90643  19.681  27.543   0.895
18219W        W90644   9.044  40.230   3.702
18220W        W90645  16.575  21.142  11.147
18221W        W90646  39.384   1.793   0.842
18222W        W90647   6.195  11.776   9.983
18223W        W90648   0.227  43.692   2.160
18224W        W90649  22.176  38.951  14.004
18225W        W90650  23.275  25.666   2.789
18226W        W90651   5.718  28.012  11.564
18227W        W90652  10.336  18.592   4.517
18228W        W90653  29.338  39.428  11.803
18229W        W90654  18.186   8.823  14.288
18230W        W90655  25.804  37.665   3.591
18231W        W90656  22.525  34.057   4.176
18232W        W90657  26.260  20.608   2.396
18233W        W90658  32.213  19.929   4.249
18234W        W90659  31.890  16.839   3.728
18235W        W90660  14.644  34.871   1.946
18236W        W90661  44.857  28.697  11.550
18237W        W90662  22.077  37.628   3.049
18238W        W90663  38.864  21.843   1.831
18239W        W90664  44.783  17.120  12.329
18240W        W90665   7.735  34.141   3.645
18241W        W90666  27.943  38.456   3.815
18242W        W90667  39.300  32.861   3.713
18243W        W90668  30.104  27.766   1.057
18244W        W90669  15.883  32.184   0.631
18245W        W90670  21.000  16.303   3.369
18246W        W90671   3.750  18.994  12.966
18247W        W90672  28.271  23.731   3.788
18248W        W90673  33.642  32.470   3.695
18249W        W90674   7.905  29.497  12.524
18250W        W90675  21.055  44.055   1.254
18251W        W90676  32.091   3.937  13.087
18252W        W90677   6.903  24.358  10.913
18253W        W90678   2.672  12.453   0.312
18254W        W90679  42.766  10.938   1.624
18255W        W90680  17.482  27.881  12.095
18256W        W90681  19.240   5.700  14.426
18257W        W90682  10.328  29.151   1.055
18258W        W90683  29.320  18.058  12.548
18259W        W90684  12.868  14.098   0.271
18260W        W90685  40.534  10.570   3.701
18261W        W90686  17.204   0.191   1.642
18262W        W90687   9.861  32.890  14.540
18263W        W90688  43.865  16.055  12.203
18264W        W90689  21.315  27.418   2.434
18265W        W90690  43.181  27.640   4.062
18266W        W90691  35.314  15.207   0.097
18267W        W90692  30.597  37.864   1.941
18268W        W90693  21.144  12.318  11.167
18269W        W90694   9.301  26.951  11.443
18270W        W90695  16.721  19.615  14.224
18271W        W90696  41.817  34.081  10.544
18272W        W90697  30.459  21.082  10.939
18273W        W90698   4.815  35.678   4.138
18274W        W90699  29.421  11.319  10.807
18275W        W90700  35.467  17.330   3.354
18276W        W90701  31.420  31.926   1.904
18277W        W90702  26.716  36.373  13.790
18278W        W90703  38.825   7.394  10.201
18279W        W90704  20.552  18.061  12.135
18280W        W90705  26.682  23.683   3.737
18281W        W90706  40.599  33.777  13.631
18282W        W90707   0.730  20.200  10.982
18283W        W90708  36.717  17.285  11.434
18284W        W90709  25.224  34.682   1.149
18285W        W90710  13.314  36.334   3.648
18286W        W90711   4.160  35.919  14.037
18287W        W90712   4.700  22.123   0.193
18288W        W90713   1.283   6.249  11.948
18289W        W90714  44.406   7.253   4.102
18290W        W90715  13.085  13.070   4.897
18291W        W90716   0.002  12.851  12.077
18292W        W90717  24.869  20.904  12.491
18293W        W90718  29.604  26.279  12.843
18294W        W90719   9.629   2.398  14.251
18295W        W90720   8.789  37.943   2.307
18296W        W90721  19.750  40.028  14.387
18297W        W90722  16.066  36.919  12.416
18298W        W90723   9.208   3.350   5.014
18299W        W90724  39.320  32.272   4.557
18300W        W90725  21.777  40.081  12.024
18301W        W90726  24.663  32.109  10.228
18302W        W90727  22.719  10.009  14.968
18303W        W90728  24.246  22.542  12.126
18304W        W90729  36.435  30.649   2.938
18305W        W90730  30.927  28.040  14.097
18306W        W90731  36.119  40.184  13.117
18307W        W90732  25.739   4.006  11.611
18308W        W90733  31.564  40.365  12.816
18309W        W90734  38.803  40.345  13.401
18310W        W90735  12.877  16.341  12.077
18311W        W90736   2.892   9.801   1.661
18312W        W90737  12.583  27.497   1.753
18313W        W90738  22.943   5.707  14.878
18314W        W90739  28.234   1.914  11.290
18315W        W90740  13.276  25.530   0.911
18316W        W90741  15.207  21.609  10.824
18317W        W90742  12.296  23.150   1.030
18318W        W90743  16.147  30.513  11.175
18319W        W90744   8.165   9.206   3.712
18320W        W90745  27.544  22.195   3.074
18321W        W90746   7.040  39.081   3.426
18322W        W90747  15.188  37.349  10.870
18323W        W90748   7.861  11.669  13.145
18324W        W90749  37.665  13.415   4.065
18325W        W90750  17.822  37.954  13.064
18326W        W90751  43.409   8.310   0.790
18327W        W90752  31.445  37.420   2.142
18328W        W90753   2.542  38.943   3.738
18329W        W90754   3.387  24.928   0.728
18330W        W90755   1.020   9.758   3.252
18331W        W90756  28.652  11.348   1.347
18332W        W90757  15.183  40.770   2.766
18333W        W90758  23.742  42.312   4.314
18334W        W90759  34.408  40.783  10.758
18335W        W90760   2.390  28.199   2.398
18336W        W90761  20.762  22.216   3.894
18337W        W90762  21.497  34.507   3.832
18338W        W90763  11.722  26.838   4.655
18339W        W90764  35.175  31.585  12.588
18340W        W90765   4.952  32.478   3.837
18341W        W90766  32.545  34.912  10.293
18342W        W90767  16.678  32.995  10.662
18343W        W90768  23.052  32.615  13.979
18344W        W90769  37.177   0.376  14.943
18345W        W90770  44.542  11.194  11.537
18346W        W90771  41.928  15.859  12.418
18347W        W90772   6.940  15.867   2.757
18348W        W90773  31.153  39.419   1.236
18349W        W90774  14.149  26.039  13.038
18350W        W90775   7.574   4.282   4.760
18351W        W90776  19.021   5.828   1.120
18352W        W90777  11.303  23.928  12.209
18353W        W90778  21.199  19.259  11.169
18354W        W90779   0.990  28.371   4.021
18355W        W90780  44.357  40.184   0.888
18356W        W90781   6.278   7.469  13.915
18357W        W90782   1.927  32.160   0.885
18358W        W90783  28.451  27.919   4.154
18359W        W90784   8.018   7.731  12.395
18360W        W90785  18.528  35.631   0.352
18361W        W90786  23.098   1.902  13.997
18362W        W90787  25.092  19.637  10.647
18363W        W90788  23.853  12.148  12.536
18364W        W90789   0.209  39.836  13.931
18365W        W90790   8.959  10.908   0.372
18366W        W90791  19.209   5.597   0.066
18367W        W90792   5.037  44.602  14.439
18368W        W90793  36.024  26.916   4.226
18369W        W90794   4.878  18.678   4.220
18370W        W90795   7.210  44.244  13.927
18371W        W90796  29.730  32.549  12.761
18372W        W90797  21.788  30.664   3.147
18373W        W90798   2.647  24.604  12.895
18374W        W90799   8.692  38.343   1.245
18375W        W90800  24.095   0.700  12.135
18376W        W90801  26.645   5.148  11.938
18377W        W90802  38.525  42.803  13.101
18378W        W90803  36.529  39.786  11.476
18379W        W90804  44.631  16.674   4.206
18380W        W90805  16.748  32.460   2.664
18381W        W90806  40.771  18.860  12.379
18382W        W90807  35.106  19.740  13.858
18383W        W90808   9.643  30.692  12.433
18384W        W90809  37.301  14.537   0.401
18385W        W90810  39.539  44.818  11.056
18386W        W90811  42.057  11.246   2.379
18387W        W90812  13.890   5.680  11.257
18388W        W90813  40.011  24.529  12.427
18389W        W90814  31.098  20.248   3.878
18390W        W90815  13.644  33.457  12.964
18391W        W90816   2.999   5.781   0.024
18392W        W90817  44.009  12.630  14.414
18393W        W90818  17.035  43.702   4.089
18394W        W90819   5.430  35.007  12.503
18395W        W90820  23.286  12.118  13.883
18396W        W90821  25.562  25.562  12.031
18397W        W90822  14.152   9.504   5.067
18398W        W90823  24.616  26.981  14.279
18399W        W90824  23.163  11.659  14.690
18400W        W90825   7.085   6.419   4.460
18401W        W90826  15.710  23.102  13.805
18402W        W90827  33.642  29.562   0.324
18403W        W90828  31.764  14.591  13.383
18404W        W90829  25.642   0.599  13.949
18405W        W90830  14.016  21.845   2.357
18406W        W90831  25.451  31.768  11.102
18407W        W90832   5.624   6.213  10.762
18408W        W90833   6.308   5.522   2.816
18409W        W90834  38.270   0.989   1.735
18410W        W90835  12.432  19.171   3.884
18411W        W90836  25.006  33.112  11.380
18412W        W90837  15.359  30.460   4.647
18413W        W90838  27.574  34.528   4.031
18414W        W90839  25.237  13.617   0.895
18415W        W90840  33.980  28.179  11.083
18416W        W90841  37.952  40.609   0.809
18417W        W90842  10.571  19.122  14.589
18418W        W90843  42.222   9.682   1.728
18419W        W90844  18.555  19.582   1.261
18420W        W90845  42.944  41.734  14.413
18421W        W90846  25.161  40.620  11.225
18422W        W90847   0.871  16.903   3.905
18423W        W90848   4.845  19.209   4.150
18424W        W90849   5.896   6.439   1.423
18425W        W90850  42.932   3.865   3.347
18426W        W90851  19.323  40.414  13.452
18427W        W90852  43.759  40.288   4.791
18428W        W90853  40.894  36.984   0.321
18429W        W90854   1.556  12.680  13.511
18430W        W90855  43.411   1.570   0.435
18431W        W90856  42.543  42.059  12.172
18432W        W90857  14.094  10.359  11.972
18433W        W90858  11.175   1.926   3.611
18434W        W90859  19.050  20.585   2.771
18435W        W90860  29.717  36.984   3.549
18436W        W90861   6.690  14.152  12.126
18437W        W90862  22.038  42.332  11.963
18438W        W90863  43.367   7.337   1.628
18439W        W90864   0.217  37.620   0.288
18440W        W90865  28.447  25.633   2.203
18441W        W90866  10.837   4.657   3.362
18442W        W90867  28.086  32.870  12.266
18443W        W90868  11.270  43.060   5.021
18444W        W90869  11.320  14.754   0.885
18445W        W90870  10.171   6.421   4.847
18446W        W90871  30.438   2.096  14.355
18447W        W90872   6.298  33.379   1.311
18448W        W90873   7.253  37.136   1.076
18449W        W90874   1.438  43.463   3.217
18450W        W90875  40.903  20.269   0.384
18451W        W90876   9.372  20.635   0.919
18452W        W90877   2.204  41.287  11.290
18453W        W90878  31.363   4.354  13.523
18454W        W90879  35.518  20.241  12.507
18455W        W90880  44.332  38.860   4.069
18456W        W90881  12.832  43.232  13.403
18457W        W90882  37.604   7.648   5.021
18458W        W90883  23.088  38.249  11.705
18459W        W90884  34.302   7.691   2.351
18460W        W90885  23.211  18.310  12.548
18461W        W90886  41.009  27.170  13.769
18462W        W90887  37.499   0.463  13.522
18463W        W90888  23.251  15.891  13.816
18464W        W90889  26.729  10.213  12.106
18465W        W90890   9.261  41.928  10.351
18466W        W90891  12.788   8.349   0.438
18467W        W90892  23.082  16.530   2.150
18468W        W90893  17.577  29.974   3.351
18469W        W90894  22.151  19.469   4.878
18470W        W90895  39.258  29.976  12.364
18471W        W90896   5.973  36.908   2.666
18472W        W90897  11.808  38.321   2.735
18473W        W90898  13.258  18.088   0.884
18474W        W90899   6.825  30.411  10.505
18475W        W90900  22.750  21.683   4.612
18476W        W90901  28.676   4.906  12.318
18477W        W90902  35.572  43.804   0.463
18478W        W90903  33.515  17.772   4.108
18479W        W90904   6.190  13.485  12.893
18480W        W90905  42.385  34.541  12.511
18481W        W90906  25.092  14.118   4.116
18482W        W90907  17.265  17.591   2.838
18483W        W90908  32.195  23.749  10.696
18484W        W90909  13.067  36.049  11.956
18485W        W90910   9.460  12.804  14.837
18486W        W90911  39.830  32.398   1.257
18487W        W90912  13.530  44.769   2.347
18488W        W90913  35.155  41.063  13.960
18489W        W90914  27.414  12.623  11.528
18490W        W90915   8.672  14.913  11.953
18491W        W90916  18.708  36.463   4.644
18492W        W90917  42.388  44.000  14.009
18493W        W90918  44.897  27.876  14.971
18494W        W90919  36.878  15.838  14.478
18495W        W90920   2.420  31.886   0.847
18496W        W90921  16.596  22.314   4.615
18497W        W90922  10.715  12.106   3.281
18498W        W90923  40.741  41.921   1.834
18499W        W90924  30.551  21.495  14.608
18500W        W90925  21.654  40.200  10.701
18501W        W90926  20.399  35.953  10.193
18502W        W90927  18.686   7.797   2.855
18503W        W90928  11.100   7.711  14.832
18504W        W90929  19.504   6.233  13.496
18505W        W90930  44.310  12.370  12.118
18506W        W90931  17.646  20.680   4.503
18507W        W90932   4.751  18.033   4.889
18508W        W90933  44.421   3.818   0.492
18509W        W90934  33.969  34.921  10.939
18510W        W90935  18.037  26.019  12.630
18511W        W90936  33.802  43.031  14.429
18512W        W90937  29.767  28.211   4.497
18513W        W90938  41.830  38.522   0.427
18514W        W90939  37.855   1.897  14.680
18515W        W90940   0.495   4.466  12.381
18516W        W90941  42.059  17.738   1.824
18517W        W90942  27.520   6.322   3.039
18518W        W90943  40.811  41.533  11.992
18519W        W90944  37.949  34.961  11.520
18520W        W90945  39.979  24.668  14.154
18521W        W90946   1.294  24.918   1.482
18522W        W90947  10.630  43.271   2.306
18523W        W90948   7.466  21.506  13.445
18524W        W90949  18.708  19.816  11.191
18525W        W90950  22.691   3.331  14.885
18526W        W90951   2.986  30.145  11.547
18527W        W90952  40.226   9.321   3.696
18528W        W90953  43.846  30.627  10.665
18529W        W90954  38.452   1.856   1.380
18530W        W90955  24.661  25.698   2.668
18531W        W90956  18.978  35.091  14.826
18532W        W90957  37.963  35.027  11.014
18533W        W90958  12.295   1.209   1.707
18534W        W90959  12.181   6.649   4.155
18535W        W90960  36.147  27.820  14.915
18536W        W90961  18.055   6.133  10.444
18537W        W90962  13.844  25.604   1.199
18538W        W90963  22.711  22.162   3.233
18539W        W90964   7.919  40.905   3.994
18540W        W90965  28.149  44.128   3.366
18541W        W90966  23.651   1.751  11.609
18542W        W90967  13.723  20.554  10.991
18543W        W90968  35.079  26.119  11.951
18544W        W90969   0.996  10.886   0.747
18545W        W90970  22.800   1.387  11.701
18546W        W90971   1.439  32.706   1.139
18547W        W90972  25.582  43.419   2.701
18548W        W90973  26.641  15.057  11.723
18549W        W90974   0.738  33.621   0.257
18550W        W90975  12.454  28.147  11.549
18551W        W90976   9.421  36.140  13.048
18552W        W90977  33.334   1.470   3.472
18553W        W90978  35.563  28.532  11.103
18554W        W90979   3.912  22.997   1.277
18555W        W90980  14.505  25.018   4.531
18556W        W90981  39.506  12.234  11.682
18557W        W90982  29.864  40.499  14.789
18558W        W90983  12.166   1.002   2.758
18559W        W90984  22.754  27.160  14.483
18560W        W90985  30.927  37.153   0.650
18561W        W90986  14.875  14.678   1.739
18562W        W90987  13.278  21.308  14.339
18563W        W90988   9.729  42.033  14.812
18564W        W90989  13.674   9.729  12.796
18565W        W90990  39.531  12.384  11.180
18566W        W90991  27.563  11.083  14.853
18567W        W90992  25.516  42.612   1.425
18568W        W90993  40.563  16.347  10.651
18569W        W90994  39.110   3.813   2.833
18570W        W90995   2.648   8.277  14.022
18571W        W90996  15.147  43.091  13.016
18572W        W90997  44.258  22.483  11.651
18573W        W90998  43.091  34.505  13.134
18574W        W90999  40.373  44.393  12.784
18575W        W91000  30.607  35.278  11.178
18576W        W91001   0.791  17.801  14.113
18577W        W91002  11.621  25.751  13.224
18578W        W91003   1.674  17.772  11.150
18579W        W91004  15.889  24.240  14.457
18580W        W91005  33.284   1.216  14.510
18581W        W91006   0.776  25.975  14.499
18582W        W91007  14.251   6.701   2.617
18583W        W91008  20.900  26.648  14.002
18584W        W91009  35.931  29.912  12.323
18585W        W91010   6.254  25.695   0.658
18586W        W91011   4.832  26.728  12.682
18587W        W91012  19.564  23.126   3.445
18588W        W91013  26.591  31.919   0.925
18589W        W91014  34.752  17.612   3.305
18590W        W91015  37.007  33.878   1.876
18591W        W91016  20.953  23.130   1.306
18592W        W91017  42.056  29.591  11.961
18593W        W91018  19.228  10.247  14.429
18594W        W91019   9.305   0.505   3.345
18595W        W91020  10.755  33.968  13.041
18596W        W91021  15.839  25.246  14.283
18597W        W91022  22.468  21.135  12.383
18598W        W91023   8.668  14.072  13.861
18599W        W91024  17.190  34.666  11.034
18600W        W91025  35.656   3.920   0.177
18601W        W91026   5.294  27.410   1.792
18602W        W91027  31.128  44.679   3.751
18603W        W91028  20.398  37.278   2.731
18604W        W91029  21.288  14.820   3.110
18605W        W91030  11.189   4.902   2.759
18606W        W91031  26.510  32.454   0.875
18607W        W91032  28.957  18.298   0.302
18608W        W91033   6.606   9.384  14.758
18609W        W91034  44.374  11.650  13.372
18610W        W91035  31.109  13.785   2.450
18611W        W91036  28.671  31.191  11.994
18612W        W91037   2.036  31.133  11.996
18613W        W91038   9.291  31.534  11.383
18614W        W91039  44.985  35.069   3.716
18615W        W91040  26.690  38.464   3.190
18616W        W91041  29.002  20.107  10.430
18617W        W91042  40.505  42.375  12.863
18618W        W91043   0.873  24.541  14.794
18619W        W91044  19.636   9.524  11.494
18620W        W91045  25.636   8.031   0.368
18621W        W91046  18.161   2.511  13.331
18622W        W91047  35.865  39.654   2.255
18623W        W91048   5.189   3.201   1.245
18624W        W91049  27.380  41.503  12.583
18625W        W91050  28.512  21.122  11.956
18626W        W91051  20.209  11.572   2.539
18627W        W91052  15.696  18.474  13.423
18628W        W91053  36.502   2.310   1.342
18629W        W91054  40.262  36.059   4.518
18630W        W91055  31.717  35.020  11.979
18631W        W91056  15.111  36.494  14.579
18632W        W91057  13.634   1.313   0.937
18633W        W91058  38.842  25.701  14.139
18634W        W91059  35.477  21.904   3.552
18635W        W91060  42.313  24.036  12.165
18636W        W91061  34.032  11.728  13.998
18637W        W91062  33.655   0.494  13.525
18638W        W91063  11.960  43.721  12.907
18639W        W91064   4.466  17.077  12.504
18640W        W91065   5.007  24.548  14.418
18641W        W91066  32.854  29.241   0.690
18642W        W91067  21.247  17.867   4.395
18643W        W91068  17.286  22.262  10.682
18644W        W91069   9.971  26.567   2.211
18645W        W91070  39.163   2.801  14.773
18646W        W91071  39.881   6.452  10.250
18647W        W91072  10.544  33.593   4.044
18648W        W91073  10.393  39.940  13.099
18649W        W91074  18.419  42.692   1.701
18650W        W91075  28.389  39.010   1.530
18651W        W91076  16.169  24.102  12.985
18652W        W91077  21.174  31.026   0.821
18653W        W91078  24.154  35.794  11.509
18654W        W91079  26.072  22.476   0.224
18655W        W91080   8.190  39.890  13.381
18656W        W91081  23.702  28.116   3.383
18657W        W91082  18.752   0.087  13.358
18658W        W91083  24.125  35.727   4.810
18659W        W91084  25.256  17.683   0.472
18660W        W91085  32.809  14.821   3.903
18661W        W91086  32.413  29.258  12.012
18662W        W91087  21.245   6.407  12.143
18663W        W91088  31.525  26.911   3.927
18664W        W91089  20.134  11.311   4.783
18665W        W91090  36.286  42.799   1.843
18666W        W91091  14.141   5.382   3.298
18667W        W91092   3.883  30.690  14.362
18668W        W91093   4.990  19.251  14.836
18669W        W91094  41.617  30.602   3.001
18670W        W91095  33.011  26.926   0.657
18671W        W91096  34.528  14.889   0.914
18672W        W91097  25.535  33.451  13.330
18673W        W91098   2.335  29.586   4.378
18674W        W91099  25.665   1.763  12.244
18675W        W91100   2.939  25.966  10.767
18676W        W91101   3.381   5.937  11.040
18677W        W91102  32.698  39.351   4.503
18678W        W91103  11.782  21.952   2.612
18679W        W91104  22.317   1.860   4.519
18680W        W91105  39.125  36.347   0.296
18681W        W91106  22.741   7.671  13.657
18682W        W91107  17.584  35.401  12.990
18683W        W91108   7.253  19.918   2.888
18684W        W91109  35.152   7.032  11.613
18685W        W91110  33.280  43.704   0.745
18686W        W91111   9.117  26.505  11.230
18687W        W91112  40.699  39.662   3.856
18688W        W91113  10.095  26.092  14.815
18689W        W91114  11.425  35.905   0.266
18690W        W91115  35.779  39.778   0.558
18691W        W91116  43.995  20.213   0.569
18692W        W91117  15.140  26.027  14.135
18693W        W91118  44.795  39.790  11.852
18694W        W91119  22.622  13.048  14.483
18695W        W91120   8.910  26.449  14.719
18696W        W91121   9.840   5.287   4.487
18697W        W91122  13.526  30.582   1.408
18698W        W91123  24.149  27.131  11.372
18699W        W91124  33.816  31.318   4.699
18700W        W91125  13.768  37.825  11.132
18701W        W91126  44.474  30.741  14.477
18702W        W91127  32.063  10.967   0.601
18703W        W91128   3.990   4.507  12.939
18704W        W91129   0.809  21.059   1.476
18705W        W91130  41.889  33.220  14.260
18706W        W91131   4.892  19.827   4.185
18707W        W91132  37.264  24.244   1.837
18708W        W91133  38.048  36.848  11.434
18709W        W91134  24.982   1.951  11.005
18710W        W91135  12.133   7.723   1.310
18711W        W91136  21.824  22.098   3.850
18712W        W91137  20.371   2.662  12.103
18713W        W91138  10.943  39.349  12.492
18714W        W91139  15.629  33.863  11.382
18715W        W91140  39.380   3.635  13.817
18716W        W91141   6.458  27.536   0.071
18717W        W91142  37.209   5.357  11.303
18718W        W91143  41.855  43.801   4.355
18719W        W91144  19.652  40.498  11.068
18720W        W91145   7.459  24.876   3.361
18721W        W91146  26.757  16.715   2.951
18722W        W91147  11.608   1.892  10.710
18723W        W91148  38.509  13.393   0.875
18724W        W91149  16.790  16.547  13.391
18725W        W91150   5.505  16.038  11.607
18726W        W91151  31.161   8.630   4.452
18727W        W91152   9.319  20.497   4.297
18728W        W91153   4.922  28.199   3.755
18729W        W91154  31.388  14.703  14.320
18730W        W91155  36.341   3.120   3.608
18731W        W91156  41.440   4.719   4.570
18732W        W91157  23.600  38.960   1.908
18733W        W91158  13.511  36.939  11.035
18734W        W91159   3.734  11.658   0.303
18735W        W91160  36.913   8.448  10.606
18736W        W91161  29.517  29.754   3.617
18737W        W91162  30.028  39.879   0.296
18738W        W91163  39.243   7.365  11.183
18739W        W91164   3.173   1.470  11.622
18740W        W91165  26.184   2.441   4.258
18741W        W91166  41.905   9.543  12.835
18742W        W91167  42.072  31.368  12.905
18743W        W91168   9.768  44.751  13.856
18744W        W91169  34.581  24.453   4.748
18745W        W91170  27.548  19.212   3.186
18746W        W91171  36.337  22.581   3.655
18747W        W91172   5.523  20.635   4.304
18748W        W91173   3.934  35.629  14.762
18749W        W91174  44.542  30.082  12.656
18750W        W91175  16.592   7.571  11.627
18751W        W91176  19.248  38.813  12.389
18752W        W91177  20.140  25.115   4.558
18753W        W91178  10.494  14.735   0.413
18754W        W91179  19.290   2.799   0.720
18755W        W91180  19.341   1.098  12.128
18756W        W91181  38.812  17.152   0.360
18757W        W91182  14.031   1.326  14.231
18758W        W91183  32.060  29.666  12.072
18759W        W91184  28.697   2.731  13.157
18760W        W91185  10.589   3.420   4.571
18761W        W91186  29.702  29.932   2.714
18762W        W91187  21.937  22.165   2.647
18763W        W91188  22.608  17.653  10.910
18764W        W91189   1.804  28.475   0.774
18765W        W91190  23.764  38.376   3.747
18766W        W91191  37.381  10.825   0.016
18767W        W91192  41.054  19.667  13.827
18768W        W91193   3.958  14.236   3.716
18769W        W91194  42.818   8.959  14.347
18770W        W91195   9.443  13.711   4.793
18771W        W91196   0.916  18.493  12.951
18772W        W91197  42.367   8.419  12.994
18773W        W91198  21.989  28.620  14.030
18774W        W91199  28.249  21.077   4.127
18775W        W91200  28.086  41.408  12.115
18776W        W91201  36.005  23.814   1.409
18777W        W91202  41.554  37.399   5.093
18778W        W91203   6.839  19.718  11.968
18779W        W91204  43.190  23.702   0.743
18780W        W91205   0.923  31.863  11.523
18781W        W91206  11.632  36.140   1.102
18782W        W91207  25.014   5.977   4.482
18783W        W91208  38.820  26.077  10.749
18784W        W91209  32.946  40.557  11.097
18785W        W91210  22.883  11.802  13.733
18786W        W91211  36.403  11.142   0.680
18787W        W91212   9.598  21.753  14.169
18788W        W91213  18.976   2.938  13.274
18789W        W91214   2.748  18.799  14.764
18790W        W91215   3.190   7.674  11.378
18791W        W91216  34.293  31.809   2.933
18792W        W91217   8.248   4.816  11.375
18793W        W91218  40.504  15.704   4.126
18794W        W91219  17.281  28.501  13.293
18795W        W91220  24.600  38.938   4.397
18796W        W91221   8.472  41.965   0.337
18797W        W91222  40.507   7.489  12.064
18798W        W91223  38.335  28.783   2.218
18799W        W91224  14.993  12.282   2.773
18800W        W91225  38.338  41.983  14.144
18801W        W91226   6.342  40.814  13.868
18802W        W91227  36.043  34.376   0.956
18803W        W91228  39.552  43.271   2.184
18804W        W91229   8.444  20.479  13.935
18805W        W91230  20.709  10.642   5.424
18806W        W91231   6.253   5.311   3.273
18807W        W91232   0.178  35.485  10.711
18808W        W91233  24.461  30.526   1.717
18809W        W91234  24.816  18.265   2.862
18810W        W91235  43.451  24.059  14.992
18811W        W91236  24.997  23.800   2.026
18812W        W91237  31.017  41.551   5.208
18813W        W91238  31.938  16.458  13.617
18814W        W91239   3.249  30.402   2.739
18815W        W91240  30.472  43.105   1.293
18816W        W91241  21.688  37.699   3.520
18817W        W91242   2.759  17.309  11.976
18818W        W91243   8.770   9.353   2.198
18819W        W91244  28.181  33.500   1.738
18820W        W91245   8.897  36.557   0.040
18821W        W91246  22.494  18.258   4.715
18822W        W91247  19.138  33.927  12.955
18823W        W91248   3.677   1.817  13.014
18824W        W91249  14.134   6.328   4.189
18825W        W91250  43.984  12.237  14.785
18826W        W91251  29.928   3.962   2.542
18827W        W91252  20.219   0.804   2.614
18828W        W91253   6.204  28.071   5.039
18829W        W91254   0.407  38.284  11.635
18830W        W91255  24.378  12.226   3.615
18831W        W91256  43.538   1.534   3.942
18832W        W91257   7.838  10.581   2.767
18833W        W91258  12.179  10.628  13.867
18834W        W91259  30.528  40.509   2.122
18835W        W91260  29.689   2.642   5.171
18836W        W91261   1.152   5.365   0.330
18837W        W91262  28.528  36.836   0.275
18838W        W91263  13.398  28.436   3.325
18839W        W91264   7.871  24.186   4.611
18840W        W91265  11.343  34.851   1.901
18841W        W91266  27.639  33.818  14.432
18842W        W91267   3.448  30.507  14.095
18843W        W91268   7.243  20.131   1.847
18844W        W91269  43.968  11.183   2.125
18845W        W91270  20.222  12.375   0.410
18846W        W91271   5.181  32.985   1.385
18847W        W91272  11.180  27.224  13.422
18848W        W91273  33.572  38.246   0.151
18849W        W91274  42.619  44.273   2.313
18850W        W91275  22.662  44.013  13.257
18851W        W91276  26.175  11.244   1.231
18852W        W91277   8.752  10.598   1.558
18853W        W91278  20.170  31.423   4.717
18854W        W91279   8.502  30.100  10.987
18855W        W91280  37.507  40.599  14.249
18856W        W91281  23.994  28.490   3.594
18857W        W91282  31.560   1.351  11.209
18858W        W91283  29.160  37.019   0.463
18859W        W91284   7.349  36.645   0.943
18860W        W91285  13.870  34.510  11.147
18861W        W91286  31.424  26.417   1.295
18862W        W91287  26.478   5.750  14.437
18863W        W91288  40.527   1.235  13.798
18864W        W91289  41.420  16.201   1.660
18865W        W91290   1.354   9.830  12.495
18866W        W91291  17.251  32.358   2.482
18867W        W91292  43.147   3.339   4.179
18868W        W91293  38.587  29.596   0.194
18869W        W91294   1.309  32.322  12.035
18870W        W91295  34.576  30.142  14.618
18871W        W91296  17.223   5.434   3.972
18872W        W91297   1.039  21.817   0.321
18873W        W91298  17.156  29.837  13.218
18874W        W91299  15.324  22.045   0.268
18875W        W91300   5.917  28.920  12.093
18876W        W91301  23.011  21.701  10.607
18877W        W91302  26.151  20.646  13.941
18878W        W91303   6.574  42.336  13.798
18879W        W91304  30.149  42.355  13.337
18880W        W91305   4.832  32.279   0.910
18881W        W91306   2.377  24.320  13.279
18882W        W91307  12.877  21.623  12.188
18883W        W91308  14.102   1.555   4.263
18884W        W91309   6.471   6.768   1.958
18885W        W91310  12.367  21.687   4.216
18886W        W91311  32.991  19.645  13.347
18887W        W91312  25.212  10.967   4.204
18888W        W91313   4.917   9.317   1.884
18889W        W91314  30.830  31.146   0.951
18890W        W91315  30.047  20.221   4.768
18891W        W91316  13.232  18.250   2.250
18892W        W91317  14.700  13.821   4.090
18893W        W91318  31.038  35.616   0.867
18894W        W91319  43.933  38.515   3.774
18895W        W91320  34.479  27.938  14.768
18896W        W91321  26.474  44.011  14.013
18897W        W91322   0.938  40.857  10.659
18898W        W91323  40.592  30.435   4.137
18899W        W91324  34.141  30.019   0.660
18900W        W91325  26.930  32.324  12.045
18901W        W91326  24.281  26.929   4.153
18902W        W91327   9.427  24.624  12.980
18903W        W91328  34.757  26.587   3.698
18904W        W91329  15.872   5.821  10.522
18905W        W91330   0.704  25.645  12.425
18906W        W91331   0.489  12.796  12.116
18907W        W91332  32.673  18.462   0.882
18908W        W91333  26.173  31.958  14.353
18909W        W91334  33.716  33.411   3.168
18910W        W91335  20.554  15.425  14.504
18911W        W91336   5.290  21.992  14.381
18912W        W91337  13.642  21.620   4.565
18913W        W91338   8.360  44.469   3.378
18914W        W91339  35.150   7.648  13.568
18915W        W91340  35.107  29.960  13.856
18916W        W91341   3.264  18.184  12.857
18917W        W91342  31.049   3.499   4.049
18918W        W91343  11.701  19.318  12.573
18919W        W91344  22.570  20.534  14.600
18920W        W91345  29.324  28.727  13.510
18921W        W91346  43.255  38.542  13.953
18922W        W91347  39.077  29.888   4.299
18923W        W91348  11.843  23.511   1.831
18924W        W91349   2.018  21.638   4.644
18925W        W91350  24.961  25.086   0.245
18926W        W91351  19.669  18.294   1.323
18927W        W91352   6.167   6.998   0.817
18928W        W91353  20.543   3.742  12.160
18929W        W91354   0.563  36.759   4.552
18930W        W91355  23.744  38.649  14.184
18931W        W91356  23.114   8.778  11.970
18932W        W91357  29.340  41.526   4.561
18933W        W91358  34.821  10.658  14.945
18934W        W91359  12.522  40.395  13.810
18935W        W91360  19.566  41.851   3.769
18936W        W91361  27.940  30.682  12.413
18937W        W91362  23.437  20.373  11.100
18938W        W91363  33.951   7.410   1.379
18939W        W91364  31.119  16.839   0.844
18940W        W91365  40.466  43.323   1.732
18941W        W91366  30.703   3.447   3.646
18942W        W91367   0.492  33.644  13.911
18943W        W91368  11.312  24.191   2.118
18944W        W91369  28.636  43.385   2.348
18945W        W91370  44.541   7.758  13.351
18946W        W91371  40.082   5.472   2.263
18947W        W91372   5.384  29.666  14.957
18948W        W91373  28.713  20.785   0.898
18949W        W91374   4.011  28.932  12.536
18950W        W91375  34.332  24.299   1.611
18951W        W91376  32.437  29.214   2.212
18952W        W91377  35.891  17.707  12.915
18953W        W91378  19.080  40.259   4.730
18954W        W91379  11.040  42.349  12.658
18955W        W91380  18.255  41.115  11.611
18956W        W91381  18.775  43.920   3.358
18957W        W91382  44.910  15.822   4.131
18958W        W91383  25.108  26.288   2.266
18959W        W91384  44.994  23.078   4.072
18960W        W91385  42.775  22.480   0.321
18961W        W91386  31.651  37.865   4.567
18962W        W91387  38.097  42.446   2.690
18963W        W91388  22.943  31.188  12.914
18964W        W91389  40.101   4.354   4.107
18965W        W91390   3.435  32.781  13.941
18966W        W91391  19.082  27.801  14.755
18967W        W91392   0.557  11.032  11.750
18968W        W91393  14.617  41.950   3.305
18969W        W91394  27.702  18.025  13.806
18970W        W91395  28.402   6.943   4.143
18971W        W91396  34.492   5.345   0.531
18972W        W91397  18.174  36.453   2.420
18973W        W91398  35.806  43.976   1.872
18974W        W91399   5.092  36.358  11.081
18975W        W91400  28.699  30.502   3.586
18976W        W91401  19.194  27.508   0.720
18977W        W91402   8.453  30.468   4.193
18978W        W91403  25.374  41.146   1.374
18979W        W91404  12.317  14.564   2.878
18980W        W91405  22.002  27.649   3.165
18981W        W91406  40.520   7.083  14.320
18982W        W91407  36.886   8.094   0.926
18983W        W91408  19.573   7.442   3.704
18984W        W91409  22.895  40.805  13.857
18985W        W91410  11.669  43.906  10.611
18986W        W91411  36.658  31.975   2.650
18987W        W91412  36.725   9.657   4.735
18988W        W91413  21.173  17.020  14.768
18989W        W91414  36.651  13.352  11.182
18990W        W91415  33.167  42.743   3.682
18991W        W91416  19.680  44.831   1.516
18992W        W91417  18.326   3.662  13.912
18993W        W91418   2.948  20.725   3.894
18994W        W91419  27.002  30.814   3.967
18995W        W91420  37.506  27.172  14.798
18996W        W91421  43.039  40.049   4.107
18997W        W91422  10.545  26.575  10.628
18998W        W91423   6.981   3.265  14.376
18999W        W91424  41.886  27.766   0.218
19000W        W91425  14.794  20.086  12.552
19001W        W91426  23.696  32.700   2.771
19002W        W91427  40.521  40.526  12.469
19003W        W91428  10.550  35.599   4.207
19004W        W91429  29.188   3.429  14.895
19005W        W91430  28.147  21.682  12.525
19006W        W91431   4.171  10.133   3.444
19007W        W91432  34.614  21.234  11.539
19008W        W91433  27.448  42.225   1.348
19009W        W91434   8.261  44.578   0.400
19010W        W91435  40.533   5.934  12.075
19011W        W91436  41.286   3.132   3.985
19012W        W91437  39.360  41.285  14.336
19013W        W91438  34.766  35.856  13.565
19014W        W91439   8.879  28.820  11.136
19015W        W91440  34.247  33.497   3.288
19016W        W91441  36.982   0.709  12.742
19017W        W91442  24.087  21.065   4.467
19018W        W91443   6.718   1.379  10.677
19019W        W91444   4.365  31.207  11.129
19020W        W91445  35.930  19.007   2.342
19021W        W91446  25.620  38.924  13.277
19022W        W91447  40.372   9.352  14.923
19023W        W91448  36.507   0.828   3.328
19024W        W91449  22.071  33.729   1.843
19025W        W91450   6.525  13.228  10.248
19026W        W91451   9.041   3.306  14.418
19027W        W91452  26.002  27.105  11.780
19028W        W91453  40.095  36.929   1.369
19029W        W91454  10.434   6.224   3.871
19030W        W91455  10.768  36.489   3.193
19031W        W91456  43.812   7.382  12.421
19032W        W91457   0.267  27.841   0.337
19033W        W91458  22.815  41.562   3.496
19034W        W91459  42.585  24.314   2.734
19035W        W91460  30.543   5.082   5.101
19036W        W91461  26.219   6.761   0.273
19037W        W91462   0.127  39.946   0.230
19038W        W91463  44.514  20.272   1.849
19039W        W91464  38.032   5.328  10.736
19040W        W91465  41.577  14.875  11.536
19041W        W91466  11.620  18.597  10.443
19042W        W91467  42.863  41.491  12.496
19043W        W91468  22.133  43.018  13.317
19044W        W91469  33.201  23.197   2.221
19045W        W91470  44.263  19.813   3.665
19046W        W91471  36.545   1.846   2.387
19047W        W91472  10.626  10.295  10.469
19048W        W91473  17.240   9.966   1.890
19049W        W91474   7.923  44.234  11.239
19050W        W91475   9.694  42.217   2.207
19051W        W91476  19.099   2.345  13.397
19052W        W91477  14.195  26.469  10.097
19053W        W91478  40.416  17.005   3.684
19054W        W91479  18.568  13.683  13.479
19055W        W91480  37.041  18.169  11.118
19056W        W91481  20.746  23.472   2.581
19057W        W91482  17.140  12.641   0.896
19058W        W91483  40.963  18.590   3.304
19059W        W91484  43.329  19.103  10.557
19060W        W91485  11.362  24.873  12.003
19061W        W91486  28.473  30.565  11.061
19062W        W91487   2.739  39.430  13.304
19063W        W91488  44.466  32.055   5.026
19064W        W91489  37.578   4.901  11.343
19065W        W91490  16.253   3.749   2.685
19066W        W91491   0.476  32.498   0.023
19067W        W91492  16.564  32.585  12.155
19068W        W91493  22.928  14.872  11.185
19069W        W91494   9.458  29.549  13.405
19070W        W91495   0.217  43.336  11.173
19071W        W91496  43.840  38.840   4.262
19072W        W91497  11.300   6.087  11.665
19073W        W91498  10.565  30.822   0.357
19074W        W91499  36.118  36.869   3.331
19075W        W91500   6.273  14.154   0.914
19076W        W91501  27.885  29.897   4.881
19077W        W91502  25.085  31.966   0.236
19078W        W91503   7.956  44.124   4.153
19079W        W91504  10.415  17.609  14.322
19080W        W91505  33.106  17.563  13.453
19081W        W91506  31.129  42.070   0.957
19082W        W91507   4.434   8.309  12.205
19083W        W91508  27.659  41.018  13.875
19084W        W91509  34.011  25.466   3.810
19085W        W91510  24.099  11.121  14.164
19086W        W91511  33.618   6.326   0.906
19087W        W91512  32.004  38.493  14.839
19088W        W91513  38.000  40.819   0.311
19089W        W91514  44.377  25.983   1.736
19090W        W91515  23.158  34.548  12.145
19091W        W91516  31.005  44.147  14.022
19092W        W91517  28.882  25.306  13.416
19093W        W91518   6.768   5.772  11.096
19094W        W91519   6.181  29.671  12.556
19095W        W91520  17.104  37.355   0.499
19096W        W91521  24.686   4.765  13.881
19097W        W91522  35.421   5.328   1.253
19098W        W91523  37.077  34.056  14.056
19099W        W91524  44.393   8.906  12.540
19100W        W91525  11.632  17.155  11.263
19101W        W91526   2.730  28.642   2.563
19102W        W91527  44.624   2.867  12.560
19103W        W91528   3.808  29.423   1.723
19104W        W91529  36.084  25.467  12.508
19105W        W91530  16.148  20.553   4.552
19106W        W91531   1.235  34.653   0.907
19107W        W91532  35.381   2.479  10.976
19108W        W91533  26.693  15.133  11.185
19109W        W91534  33.006   7.354   2.933
19110W        W91535  29.882  21.547  11.448
19111W        W91536  20.268  12.681   3.224
19112W        W91537  17.124  11.760   0.432
19113W        W91538  11.717  40.702   3.412
19114W        W91539  38.470   7.177  14.383
19115W        W91540  39.288  32.381  12.430
19116W        W91541  35.167  20.648   1.790
19117W        W91542  38.378  12.862  10.764
19118W        W91543   4.162   8.043  14.792
19119W        W91544   7.079  25.364  14.167
19120W        W91545  27.068  34.464   4.183
19121W        W91546  23.229  42.843  14.037
19122W        W91547   6.339  30.733   2.275
19123W        W91548  43.599  44.228  11.589
19124W        W91549  24.050  31.698  11.349
19125W        W91550  38.866  12.629  13.922
19126W        W91551  43.944  39.862   0.888
19127W        W91552   5.625  27.094   4.411
19128W        W91553  31.406  24.608  12.295
19129W        W91554  25.215  13.322   0.303
19130W        W91555   1.674  10.280   1.781
19131W        W91556  29.354  37.011   0.948
19132W        W91557  32.681  23.515   4.701
19133W        W91558  39.304  25.631  13.861
19134W        W91559   3.284  15.584  11.484
19135W        W91560  28.249  17.754  11.981
19136W        W91561  11.679   8.399  13.851
19137W        W91562  25.385  29.213  11.118
19138W        W91563  12.757  10.098  10.686
19139W        W91564  16.658  12.589  11.974
19140W        W91565  39.465  24.688   0.474
19141W        W91566  12.829  27.020   1.866
19142W        W91567  30.530  25.531   4.233
19143W        W91568  16.809  32.007   0.982
19144W        W91569  17.391  26.418  10.205
19145W        W91570   9.328  25.366   4.783
19146W        W91571   9.353  25.935  10.567
19147W        W91572  33.489   1.418  12.877
19148W        W91573  15.788  26.397  14.804
19149W        W91574  27.832  32.110  14.945
19150W        W91575  21.136   4.894  10.694
19151W        W91576   1.338  12.610  14.008
19152W        W91577   6.506  40.300  11.950
19153W        W91578  20.610   9.676  10.932
19154W        W91579  19.665  29.811  11.540
19155W        W91580  28.163  28.556  12.983
19156W        W91581   3.998  16.760   4.510
19157W        W91582  13.694   3.877  10.795
19158W        W91583   8.208  38.974   2.263
19159W        W91584   5.697  31.471   4.549
19160W        W91585  27.651  21.128  11.569
19161W        W91586  29.424  21.795  13.295
19162W        W91587   7.759   3.536  14.770
19163W        W91588  34.377  34.040   2.663
19164W        W91589  15.169  37.431  11.381
19165W        W91590  36.937  38.332   0.639
19166W        W91591  21.985  19.624  13.980
19167W        W91592  39.547   1.450   1.285
19168W        W91593  18.296  34.412   2.259
19169W        W91594  33.537   2.239  13.841
19170W        W91595  38.864  21.602   3.818
19171W        W91596  25.536  13.640  12.583
19172W        W91597  38.973  22.026   0.719
19173W        W91598   1.404  31.903   3.595
19174W        W91599  38.941  19.634   4.533
19175W        W91600   6.842   6.170   3.199
19176W        W91601  32.809  33.007   1.675
19177W        W91602  38.737  25.116   1.719
19178W        W91603  13.216  31.665   1.299
19179W        W91604  40.415  24.031  14.280
19180W        W91605  42.905   4.104  13.397
19181W        W91606  12.631  30.913   1.238
19182W        W91607  44.395   9.429  12.585
19183W        W91608  36.415  32.072   2.201
19184W        W91609  33.946  28.875  12.985
19185W        W91610   3.235  39.933   3.315
19186W        W91611  10.336  11.430  13.442
19187W        W91612   9.188  31.535  12.556
19188W        W91613  21.677   6.826   0.101
19189W        W91614  29.626   8.349   1.226
19190W        W91615  24.179  12.304  14.393
19191W        W91616  43.213  16.995  10.571
19192W        W91617  25.091  30.779  13.259
19193W        W91618  44.435  22.583   4.622
19194W        W91619  42.956  30.102  14.402
19195W        W91620  17.832  44.351  11.095
19196W        W91621  23.410  35.696  12.212
19197W        W91622   3.534  22.029  10.737
19198W        W91623  34.113  15.114  10.337
19199W        W91624  15.702  23.962   4.574
19200W        W91625  11.008  23.991  14.907
19201W        W91626  42.980  40.379  14.717
19202W        W91627   1.568  17.747   1.439
19203W        W91628  30.633  42.891   3.623
19204W        W91629  28.989  35.995   2.889
19205W        W91630  34.319   8.740   3.436
19206W        W91631  13.259  35.081  14.662
19207W        W91632   2.504  42.944   2.704
19208W        W91633  25.135  37.531   4.928
19209W        W91634  40.319   1.490   3.814
19210W        W91635  11.828  21.598  10.506
19211W        W91636  32.832  11.885   2.201
19212W        W91637  34.271  21.725  13.654
19213W        W91638  40.050  41.391  12.656
19214W        W91639  26.001  43.955   0.305
19215W        W91640   8.328   3.774   0.909
19216W        W91641  39.035  29.939   2.338
19217W        W91642  42.437  15.501   1.838
19218W        W91643  39.524  40.300  14.536
19219W        W91644  42.986  22.713  14.318
19220W        W91645   3.634  22.193   0.853
19221W        W91646  40.932  23.775   0.027
19222W        W91647  11.389  26.929   1.688
19223W        W91648  26.912  33.626  10.040
19224W        W91649   9.715   1.975   2.280
19225W        W91650  10.758  19.382   4.319
19226W        W91651  42.025  21.493   1.372
19227W        W91652  19.579   5.732   2.878
19228W        W91653  43.540  20.487  14.684
19229W        W91654  13.895   2.033   4.100
19230W        W91655   7.127   9.377   3.638
19231W        W91656  25.471  31.177   3.486
19232W        W91657  32.463   2.545  14.968
19233W        W91658  34.134   7.394   0.284
19234W        W91659  44.484  32.476   1.911
19235W        W91660  15.234  12.597  14.437
19236W        W91661  15.719  19.453   3.681
19237W        W91662  31.690  28.500  11.022
19238W        W91663  13.842  17.556   2.184
19239W        W91664  33.677  37.372   0.927
19240W        W91665  33.051  10.343   4.442
19241W        W91666  39.950  29.181   3.334
19242W        W91667  38.762   0.839  11.149
19243W        W91668  31.663  24.004   0.614
19244W        W91669   7.643  15.302   3.345
19245W        W91670  24.648  41.768   4.534
19246W        W91671  21.282  10.104  13.923
19247W        W91672  12.185  32.490   4.274
19248W        W91673   6.128   8.764   0.182
19249W        W91674  29.085  37.795   3.311
19250W        W91675  42.023  34.780   3.759
19251W        W91676   7.880  33.099   0.315
19252W        W91677  33.420  11.991  11.547
19253W        W91678  23.032  24.274  12.102
19254W        W91679   6.025  39.881   0.763
19255W        W91680  31.616   8.080   2.189
19256W        W91681  21.110   4.580  11.685
19257W        W91682  14.585   2.963  14.074
19258W        W91683  31.972   3.726  13.986
19259W        W91684  16.786  28.027  11.257
19260W        W91685  29.651  11.763  10.676
19261W        W91686  29.008  30.689   2.726
19262W        W91687   6.329  15.679  12.943
19263W        W91688  18.209  39.276   3.092
19264W        W91689  38.610  20.180   1.127
19265W        W91690  26.215  44.408  13.562
19266W        W91691  14.847   1.393  11.971
19267W        W91692  20.927   6.544   2.788
19268W        W91693   6.397  40.909   4.529
19269W        W91694  18.594  13.863   0.352
19270W        W91695  17.208  34.596   0.882
19271W        W91696  23.093  14.722  11.669
19272W        W91697  19.612  42.432   2.614
19273W        W91698  14.596  22.456  10.717
19274W        W91699  44.830  26.641  10.923
19275W        W91700  44.499  19.639  12.963
19276W        W91701  18.544   3.391   0.329
19277W        W91702  30.592  19.953  11.662
19278W        W91703  34.332  33.200  11.839
19279W        W91704  12.431  31.385   0.374
19280W        W91705  12.171  44.538   1.144
19281W        W91706  42.102  28.975   3.125
19282W        W91707   6.003  23.750   5.013
19283W        W91708   4.221  19.821   3.788
19284W        W91709  24.627   2.057  14.883
19285W        W91710   0.387   7.795  10.931
19286W        W91711  13.742  44.431  11.909
19287W        W91712  13.545  19.800   4.280
19288W        W91713  18.581  32.800   4.597
19289W        W91714  14.614   6.272   0.436
19290W        W91715  21.278  12.596   3.198
19291W        W91716  33.666  16.560   0.518
19292W        W91717  14.104   3.453   2.794
19293W        W91718  22.536  38.664   0.558
19294W        W91719  34.349  38.580   4.439
19295W        W91720  41.778  24.763  14.319
19296W        W91721   7.043  17.767  14.246
19297W        W91722  35.398   6.155   3.538
19298W        W91723  22.722   5.785  10.729
19299W        W91724  21.630   9.362   3.665
19300W        W91725  33.887  19.634   0.670
19301W        W91726   5.224  31.181   1.424
19302W        W91727   3.786  22.066   0.341
19303W        W91728  34.943  40.815  10.730
19304W        W91729   7.684  18.658  12.347
19305W        W91730  22.747  17.688   4.226
19306W        W91731  16.548  25.495  11.605
19307W        W91732  38.020  42.991  12.952
19308W        W91733  20.615  33.595  11.460
19309W        W91734   0.541  41.041  14.332
19310W        W91735  27.079  36.025  12.947
19311W        W91736  38.283  29.063  12.856
19312W        W91737  37.548  42.164  13.940
19313W        W91738  18.351   6.398   4.648
19314W        W91739  12.172  10.699   2.533
19315W        W91740  39.273  44.429   1.847
19316W        W91741   0.570  23.424  12.374
19317W        W91742  35.356  39.133   3.103
19318W        W91743  40.019  22.066   4.506
19319W        W91744   4.193  24.605  13.068
19320W        W91745  17.027  37.820   2.383
19321W        W91746  38.905  32.902   1.752
19322W        W91747  34.627  11.724   0.463
19323W        W91748  37.356  30.817   4.324
19324W        W91749  13.795  24.626  13.688
19325W        W91750  32.456   4.757  11.880
19326W        W91751   3.043   1.332  13.836
19327W        W91752   7.638  33.915  11.566
19328W        W91753   4.870  23.300  14.751
19329W        W91754   0.927  23.024   3.803
19330W        W91755  28.729  40.883   3.963
19331W        W91756  35.420  27.856   2.713
19332W        W91757  15.584  22.313   3.723
19333W        W91758  17.646  34.925  13.457
19334W        W91759  31.903  41.377  13.260
19335W        W91760  11.417  23.498   3.626
19336W        W91761  11.810  33.933  10.482
19337W        W91762   2.871  10.181  11.458
19338W        W91763   3.168  14.892   2.719
19339W        W91764  31.396  10.958   1.937
19340W        W91765  27.715  22.593  12.537
19341W        W91766  14.653  41.071  12.444
19342W        W91767  41.503  17.988  13.899
19343W        W91768  37.561  17.549  13.305
19344W        W91769  18.589  40.466  11.232
19345W        W91770  38.454  40.747   1.318
19346W        W91771  30.464  12.166  14.258
19347W        W91772  29.583  37.912   1.207
19348W        W91773   7.777  29.947   4.318
19349W        W91774   2.388  33.735  12.685
19350W        W91775   8.227  22.707  11.154
19351W        W91776  22.125  34.122  12.779
19352W        W91777  27.735  10.270   2.840
19353W        W91778   1.245   1.428   3.228
19354W        W91779   7.720  44.162  13.957
19355W        W91780  23.942  15.550   4.220
19356W        W91781  32.034  20.082   0.644
19357W        W91782  31.068  35.080  14.834
19358W        W91783  34.428  27.030   4.611
19359W        W91784  34.410  43.816  12.970
19360W        W91785   5.904  30.966   4.542
19361W        W91786  22.232  16.179   0.001
19362W        W91787  30.190   1.269   4.196
19363W        W91788   1.221  14.384   1.695
19364W        W91789  14.359  29.538   4.373
19365W        W91790   5.733  30.637  12.097
19366W        W91791  29.009   7.124  14.380
19367W        W91792  34.443  29.561   3.024
19368W        W91793  34.757  16.491   1.793
19369W        W91794  28.926  40.998  12.512
19370W        W91795   4.081   3.743   0.520
19371W        W91796  10.685  36.465  12.058
19372W        W91797  12.954  43.818   3.282
19373W        W91798  21.725  42.491   0.833
19374W        W91799  21.006  18.214  10.365
19375W        W91800  17.012  10.150   0.858
19376W        W91801   6.144  13.863   4.225
19377W        W91802  37.195  22.713  12.978
19378W        W91803  36.847   8.753   2.073
19379W        W91804   5.182  39.369  13.169
19380W        W91805  19.616  20.665  10.738
19381W        W91806   6.861  16.720  10.670
19382W        W91807  27.777   9.490  12.064
19383W        W91808  18.390   2.323   4.202
19384W        W91809  27.032  19.284   3.665
19385W        W91810   4.299  41.252  13.957
19386W        W91811   3.993  21.498   1.188
19387W        W91812  29.969  18.113  13.153
19388W        W91813  19.767   1.472  13.940
19389W        W91814   5.494   9.668  11.061
19390W        W91815   8.716  42.947  11.962
19391W        W91816  16.157  44.529  12.051
19392W        W91817  33.453   1.492   3.992
19393W        W91818   9.938  22.231   3.894
19394W        W91819  12.292  29.024   0.280
19395W        W91820  26.919  23.120   0.255
19396W        W91821  27.087  20.099   4.730
19397W        W91822  36.388  32.970  12.835
19398W        W91823   5.394  44.844  12.649
19399W        W91824  26.010  22.554   3.795
19400W        W91825  36.413  11.608   3.294
19401W        W91826   2.559  31.379   3.413
19402W        W91827  39.818   6.433  14.207
19403W        W91828   5.917  32.585   1.748
19404W        W91829  13.586  13.769  10.775
19405W        W91830   5.242  12.251   4.373
19406W        W91831  14.805  27.620  12.868
19407W        W91832  17.333   6.171  12.888
19408W        W91833  14.861  40.921   4.215
19409W        W91834  12.080  27.015  14.889
19410W        W91835   4.816   8.864   2.374
19411W        W91836  34.986   0.722  13.821
19412W        W91837  26.519   8.408   0.383
19413W        W91838  10.323  31.146  12.135
19414W        W91839  15.703  33.202   0.771
19415W        W91840  22.476   7.134  13.582
19416W        W91841  36.492   0.422   1.490
19417W        W91842   7.325  23.207  13.917
19418W        W91843  27.028  30.054  12.284
19419W        W91844  23.511  41.281   2.418
19420W        W91845  42.809  17.667  13.022
19421W        W91846   7.796  26.233  14.418
19422W        W91847  22.944  19.851   0.461
19423W        W91848   2.795  37.416  11.611
19424W        W91849  36.299  16.391   3.850
19425W        W91850  37.274  13.674  13.634
19426W        W91851  29.843  35.603   4.173
19427W        W91852  38.454   6.681  14.340
19428W        W91853  18.449  32.878  10.661
19429W        W91854  27.772  42.542  13.686
19430W        W91855  17.214  39.877  10.501
19431W        W91856  44.127  36.930  12.981
19432W        W91857  39.159  23.305  13.533
19433W        W91858  40.050  26.367   0.891
19434W        W91859  10.612   6.291  12.113
19435W        W91860  26.067  36.116  10.824
19436W        W91861  18.172  42.860  14.842
19437W        W91862  42.630  39.234  14.484
19438W        W91863  42.568  44.316  13.636
19439W        W91864  31.455  28.915   2.291
19440W        W91865  17.591  19.706   2.745
19441W        W91866   7.133  13.609  10.759
19442W        W91867  40.603  33.083   3.230
19443W        W91868   4.046  25.654   4.692
19444W        W91869  18.778  39.362   1.991
19445W        W91870   5.409   5.559   3.728
19446W        W91871  42.805  30.393   3.691
19447W        W91872  34.067  11.605  12.627
19448W        W91873  37.021  16.176  12.675
19449W        W91874  12.399   8.545   0.705
19450W        W91875  27.960  25.417   3.647
19451W        W91876  13.565  33.649  10.224
19452W        W91877  34.297   7.810   5.040
19453W        W91878  20.146  38.963  10.603
19454W        W91879  17.790  30.710  12.497
19455W        W91880  41.440   4.458  13.831
19456W        W91881  43.360  44.785   2.403
19457W        W91882   4.652  20.250   2.798
19458W        W91883   3.891  44.843  13.038
19459W        W91884   6.114  17.020   5.064
19460W        W91885   8.548  26.060   1.721
19461W        W91886  15.443  27.434  13.917
19462W        W91887  24.173  15.568   0.190
19463W        W91888   0.353  16.411  11.040
19464W        W91889   4.245  17.211   3.157
19465W        W91890  36.695  18.117   2.791
19466W        W91891  32.239  28.976   1.782
19467W        W91892  17.246  37.784  10.702
19468W        W91893  42.592  34.102  14.851
19469W        W91894  18.806  37.049   3.458
19470W        W91895   0.644  21.582  10.624
19471W        W91896  29.232  26.602   3.764
19472W        W91897  37.440  18.896  11.421
19473W        W91898   6.796  20.091   4.546
19474W        W91899  25.101  42.457   3.577
19475W        W91900  20.339  33.864  11.144
19476W        W91901  11.059  25.622   4.202
19477W        W91902  20.598  20.811  10.364
19478W        W91903  15.524  11.662  13.765
19479W        W91904  42.122  43.601  11.490
19480W        W91905  43.595  40.409  11.073
19481W        W91906   0.825  15.863  13.121
19482W        W91907   1.778  34.602   3.113
19483W        W91908  34.968   5.185  11.063
19484W        W91909  15.214  31.385  12.931
19485W        W91910  10.812  32.376   1.744
19486W        W91911  44.700  18.086   2.385
19487W        W91912  41.431   9.860   1.268
19488W        W91913  43.712   8.909   4.217
19489W        W91914  33.844  35.481   2.299
19490W        W91915  32.240   4.978   4.983
19491W        W91916  14.262  18.578   0.556
19492W        W91917   6.338   1.328   4.547
19493W        W91918  10.358   2.173  10.064
19494W        W91919  21.541  36.535  13.335
19495W        W91920  18.297  12.175  12.325
19496W        W91921  28.732  17.873  11.822
19497W        W91922  44.964  28.185   2.789
19498W        W91923   4.921   7.214  14.839
19499W        W91924  22.609  16.547  13.957
19500W        W91925  21.223  34.503  12.658
19501W        W91926   3.023   9.374   4.308
19502W        W91927  39.778  40.557   2.674
19503W        W91928  20.161   6.298  14.925
19504W        W91929  11.360   8.646  11.499
19505W        W91930   8.690  41.961   3.142
19506W        W91931  32.235  17.269   4.566
19507W        W91932  33.953  34.678  12.014
19508W        W91933   3.438  18.404   2.331
19509W        W91934   7.933  27.461  13.781
19510W        W91935  16.384  35.991  10.673
19511W        W91936  34.411  44.211   1.942
19512W        W91937  18.168  41.257   1.272
19513W        W91938  14.738   7.611  12.148
19514W        W91939  11.751  42.400  11.455
19515W        W91940  18.646  13.182   1.539
19516W        W91941  41.038   8.644  14.009
19517W        W91942   1.340  12.707   3.358
19518W        W91943  13.113  14.670  11.665
19519W        W91944  18.111  15.708   2.455
19520W        W91945  10.284  14.224   3.804
19521W        W91946  29.450  39.035   5.031
19522W        W91947  38.838  10.590  10.191
19523W        W91948   6.775  21.208  14.839
19524W        W91949   0.014  10.212  12.557
19525W        W91950  29.550  41.831   4.158
19526W        W91951  19.492  44.038  14.782
19527W        W91952  11.235  34.746  10.756
19528W        W91953  26.130   7.118   4.758
19529W        W91954  44.450  11.873  12.076
19530W        W91955  30.794  13.387   2.154
19531W        W91956  11.220  40.599  14.452
19532W        W91957  19.793  43.254  13.467
19533W        W91958  26.166  40.786   2.585
19534W        W91959  30.327  27.540   2.311
19535W        W91960  43.928  32.882  12.815
19536W        W91961  41.807  39.895   1.293
19537W        W91962  28.264  16.997   3.625
19538W        W91963  24.034  21.514   2.757
19539W        W91964  13.284  20.190  12.347
19540W        W91965  24.113  29.513   2.764
19541W        W91966  14.311   6.981   3.589
19542W        W91967  42.160   7.311  14.406
19543W        W91968  18.274  42.396  14.642
19544W        W91969  31.575  25.459  11.434
19545W        W91970   5.795  29.380  14.222
19546W        W91971  35.396   0.407  11.125
19547W        W91972  38.131  36.279   3.330
19548W        W91973  23.988   1.879  14.163
19549W        W91974  44.001  27.566  11.846
19550W        W91975   1.307   3.935   1.730
19551W        W91976   9.164  16.773  14.885
19552W        W91977   5.565  40.023   4.188
19553W        W91978  25.505  12.852  11.089
19554W        W91979  23.842  11.640  13.334
19555W        W91980  29.243  24.103  10.116
19556W        W91981   5.816  10.880  13.058
19557W        W91982  30.078  16.852  12.306
19558W        W91983   2.625  18.655  11.558
19559W        W91984  42.344  23.793   4.887
19560W        W91985  42.000  22.312  11.657
19561W        W91986  33.843  21.734   1.351
19562W        W91987  38.578  21.633   2.793
19563W        W91988  38.120  29.615   3.357
19564W        W91989  19.669  23.989   2.207
19565W        W91990   6.150   0.679  11.121
19566W        W91991  29.625  42.297   4.711
19567W        W91992  32.320  22.141  11.250
19568W        W91993  37.450  32.369   3.559
19569W        W91994  21.928  11.385   1.397
19570W        W91995  28.473  26.637   0.696
19571W        W91996  23.994  22.700   2.221
19572W        W91997  41.991  17.539   0.503
19573W        W91998  29.118  25.166  14.241
19574W        W91999  39.706   4.303   3.160
19575W        W92000  26.170  43.420   0.435
19576W        W92001   5.996   2.981  11.840
19577W        W92002  42.001   1.524  13.566
19578W        W92003   6.338  34.731   5.070
19579W        W92004  19.994  20.784  13.573
19580W        W92005   7.899  28.239  12.001
19581W        W92006  19.146   6.643   3.118
19582W        W92007  31.337  44.354   0.816
19583W        W92008  15.676  21.572   4.178
19584W        W92009  37.037   0.054   2.919
19585W        W92010  15.781  36.106  14.746
19586W        W92011  37.934  26.430   1.446
19587W        W92012  23.041  19.998  11.095
19588W        W92013  25.733  16.843  13.590
19589W        W92014  16.309  42.243   2.742
19590W        W92015  36.111  18.824  10.877
19591W        W92016   9.892  33.222  13.601
19592W        W92017   0.771   8.905  10.133
19593W        W92018  36.914  27.522  13.450
19594W        W92019  10.142  36.604   1.247
19595W        W92020   1.751   0.293  13.422
19596W        W92021  15.330  18.687   1.740
19597W        W92022  19.637  41.455   2.892
19598W        W92023  33.776  12.108  10.561
19599W        W92024   7.895  23.209   3.239
19600W        W92025  34.305  20.053  11.652
19601W        W92026  32.133  14.122  11.180
19602W        W92027   6.671  19.590   3.700
19603W        W92028  31.186  34.579  14.549
19604W        W92029  12.764  20.245  12.494
19605W        W92030  28.931  17.913  11.362
19606W        W92031  34.341  17.099  12.396
19607W        W92032  20.987  19.128   0.256
19608W        W92033  30.441  43.670   3.108
19609W        W92034  26.954   8.258  12.171
19610W        W92035   3.181  13.316  14.805
19611W        W92036  28.500  12.124   3.790
19612W        W92037  33.546  42.947  14.867
19613W        W92038   7.279  30.192  14.777
19614W        W92039  25.990  14.811  14.906
19615W        W92040   2.171  40.805  12.051
19616W        W92041  13.109  28.274  12.000
19617W        W92042  17.488  11.661  13.312
19618W        W92043  39.446  42.397   2.429
19619W        W92044  12.095  36.419  13.955
19620W        W92045  12.657  11.921  11.602
19621W        W92046  23.452   9.220   4.683
19622W        W92047   3.501  41.727  11.981
19623W        W92048  15.254  11.559   2.009
19624W        W92049  28.242  35.344   1.333
19625W        W92050  44.530   9.756  14.454
19626W        W92051  29.627  24.565   4.195
19627W        W92052  25.638  16.309  11.469
19628W        W92053  10.320  21.567   3.302
19629W        W92054   1.746  33.046  13.995
19630W        W92055  11.670  17.179   2.680
19631W        W92056   8.151  14.821   2.139
19632W        W92057  11.623   3.536  11.527
19633W        W92058   7.495  42.396  13.380
19634W        W92059  30.863  14.760  14.373
19635W        W92060  21.252   8.189  12.127
19636W        W92061  18.254  32.316  13.282
19637W        W92062  27.407  33.300  11.661
19638W        W92063  12.337  32.024  14.359
19639W        W92064  27.051   6.430  13.033
19640W        W92065  20.179  26.723   2.827
19641W        W92066  25.225  13.898   2.734
19642W        W92067  16.291  20.621  11.739
19643W        W92068  13.815  23.940  14.454
19644W        W92069  35.900  31.424   4.729
19645W        W92070  40.410  38.359   3.745
19646W        W92071   6.926   4.206  13.026
19647W        W92072  37.418  42.458  11.553
19648W        W92073  38.740  15.717  14.027
19649W        W92074  44.468  12.172  11.616
19650W        W92075  44.338  44.216   2.927
19651W        W92076  39.891  17.780  11.171
19652W        W92077   8.715  27.944  12.876
19653W        W92078  32.000  23.317   4.248
19654W        W92079  22.559  15.645   0.807
19655W        W92080  29.541   0.817  10.769
19656W        W92081  25.406  32.970  12.668
19657W        W92082   0.855  37.587   2.820
19658W        W92083   8.682  40.876  11.547
19659W        W92084  43.434   6.206   2.122
19660W        W92085  32.819  39.031  10.599
19661W        W92086  22.909  15.805  12.335
19662W        W92087  43.737  37.570  11.924
19663W        W92088  29.796  38.470   1.941
19664W        W92089  29.399  15.707   0.990
19665W        W92090  10.296  38.095  14.942
19666W        W92091  40.792  23.602   0.506
19667W        W92092   2.898  27.084  13.102
19668W        W92093  30.442   4.384  10.710
19669W        W92094  30.462  19.783   1.642
19670W        W92095  16.868   9.746   0.541
19671W        W92096  32.442  22.972   0.824
19672W        W92097   6.899   3.344   2.338
19673W        W92098  16.413  16.646  10.916
19674W        W92099  41.498  41.821   1.322
19675W        W92100  14.342  39.073   1.289
19676W        W92101  23.560  11.967   0.390
19677W        W92102  36.128  25.146   0.895
19678W        W92103  14.155  10.503   5.305
19679W        W92104  16.269  36.490   2.094
19680W        W92105  41.104  37.184  14.897
19681W        W92106  39.483  27.150   2.406
19682W        W92107  23.594   8.328  11.725
19683W        W92108  31.007  19.345   2.356
19684W        W92109  44.888  20.749  11.563
19685W        W92110  22.189  15.845   2.954
19686W        W92111  22.564  26.497   1.921
19687W        W92112   1.674  35.623  11.663
19688W        W92113  10.182  31.318  10.998
19689W        W92114  12.325  12.837  13.066
19690W        W92115  10.768   9.773  12.624
19691W        W92116   6.126  44.790   0.309
19692W        W92117  43.348  15.335   1.828
19693W        W92118  32.718  41.731   3.303
19694W        W92119  41.770  19.181   1.872
19695W        W92120   7.827  12.505   1.789
19696W        W92121  32.705  33.535  12.510
19697W        W92122  17.228  15.669  10.599
19698W        W92123  33.565  28.455   3.206
19699W        W92124   5.973  15.272   0.373
19700W        W92125   8.871  19.566   3.284
19701W        W92126  44.448  18.406  14.514
19702W        W92127  22.753  25.545   4.073
19703W        W92128  32.428   3.463   0.407
19704W        W92129  42.727  35.931  14.375
19705W        W92130  10.242   5.625   1.408
19706W        W92131  34.807   0.846   4.593
19707W        W92132  30.610   4.846   0.314
19708W        W92133   8.805  18.801  10.699
19709W        W92134  29.138  23.180  14.573
19710W        W92135   6.472  31.717   0.791
19711W        W92136   0.826  20.466  12.987
19712W        W92137  29.934  41.906   9.923
19713W        W92138  36.049   2.933  13.192
19714W        W92139   8.451   5.425   0.896
19715W        W92140  37.410  33.191  13.813
19716W        W92141  12.224  44.462  14.778
19717W        W92142  22.817   6.731   1.844
19718W        W92143   4.807  28.904  12.072
19719W        W92144   8.426   7.766  12.050
19720W        W92145  32.381   8.250   1.650
19721W        W92146  18.895  44.727  13.801
19722W        W92147  43.435  23.573   3.247
19723W        W92148  36.857   5.808   1.874
19724W        W92149   9.128  34.531   0.644
19725W        W92150  37.259  22.614  11.112
19726W        W92151  38.563  33.848  13.570
19727W        W92152  39.288  23.187   4.251
19728W        W92153  34.195  38.969  12.613
19729W        W92154   2.940  35.450   4.239
19730W        W92155  37.528  14.627  13.140
19731W        W92156  43.870  37.668   0.540
19732W        W92157  36.560  42.288  13.258
19733W        W92158   2.755  12.801   2.811
19734W        W92159  20.288   5.404   3.402
19735W        W92160  27.224  36.092   4.570
19736W        W92161  15.384  40.962   4.381
19737W        W92162  25.202  24.805   2.099
19738W        W92163   8.816   8.901   0.762
19739W        W92164  18.055  15.346   3.734
19740W        W92165  23.547  30.142  11.711
19741W        W92166   4.381  44.353   2.263
19742W        W92167  17.159  15.210  14.045
19743W        W92168  34.509  31.210  12.096
19744W        W92169  10.826  41.452  11.599
19745W        W92170  17.538  13.699  10.435
19746W        W92171  27.282  34.656   2.324
19747W        W92172  33.969   1.502  13.016
19748W        W92173  31.883  23.701  11.119
19749W        W92174  20.637  25.915   2.748
19750W        W92175   2.613  39.833   4.147
19751W        W92176  12.542  36.770  14.033
19752W        W92177  36.860  22.669   4.611
19753W        W92178   8.320  35.816  11.241
19754W        W92179  16.365  42.755   2.845
19755W        W92180  22.937   2.687   1.661
19756W        W92181  41.917  12.739  10.408
19757W        W92182  22.448   0.831   1.207
19758W        W92183   1.648  16.310  13.993
19759W        W92184  18.482  42.057  11.934
19760W        W92185  33.902  13.937  11.681
19761W        W92186   8.351  42.829  14.845
19762W        W92187  19.261  15.669   2.804
19763W        W92188  32.161  31.552  11.437
19764W        W92189   9.892  21.100   1.873
19765W        W92190   4.365  40.846  11.660
19766W        W92191   9.192  18.089   1.412
19767W        W92192  36.057   2.529  12.416
19768W        W92193  27.383  44.506   2.779
19769W        W92194  18.057  32.096   1.832
19770W        W92195  28.994   1.079   4.645
19771W        W92196  41.961   3.478   0.261
19772W        W92197  13.578  39.626  11.670
19773W        W92198  32.505  20.141   1.684
19774W        W92199  43.321  10.326   0.523
19775W        W92200  11.090  12.331   1.201
19776W        W92201  32.493  17.733   1.101
19777W        W92202  31.858  37.860  14.248
19778W        W92203   4.839   6.732  12.519
19779W        W92204   0.275   6.211  13.113
19780W        W92205  22.824  31.377   4.662
19781W        W92206  20.787  11.177  13.409
19782W        W92207  28.733  42.359   2.324
19783W        W92208   1.819   1.138   2.482
19784W        W92209  36.632  44.446   3.691
19785W        W92210   8.861   4.725  12.331
19786W        W92211   1.646  40.542  11.173
19787W        W92212  39.930  23.347  13.724
19788W        W92213  32.881   8.136   1.758
19789W        W92214  29.577  33.804   2.683
19790W        W92215  44.869  39.275  13.521
19791W        W92216  30.221  10.419   3.804
19792W        W92217   9.568  23.998  12.472
19793W        W92218  17.742  23.072   4.392
19794W        W92219  23.926   4.299  10.826
19795W        W92220  27.670  27.587  11.358
19796W        W92221   2.694  29.232   3.670
19797W        W92222   0.925  33.080  12.841
19798W        W92223  43.859  24.242   4.141
19799W        W92224  31.123  34.962   3.234
19800W        W92225  44.378   1.699   2.598
19801W        W92226  37.539  26.431  10.992
19802W        W92227  41.747  16.657   3.289
19803W        W92228  40.033  21.342   9.440
19804W        W92229  18.443  28.935  13.956
19805W        W92230  34.313  12.936   2.632
19806W        W92231   6.785  29.581   3.868
19807W        W92232  40.787  35.400   0.426
19808W        W92233  39.906  37.623  11.166
19809W        W92234   7.424  41.530  13.007
19810W        W92235  13.796  34.658   0.490
19811W        W92236  43.604  14.146  12.515
19812W        W92237   3.580   1.713   4.659
19813W        W92238  18.310  13.659   0.773
19814W        W92239  10.224  13.129   3.686
19815W        W92240  20.141  28.310  12.800
19816W        W92241  41.416  24.600  11.158
19817W        W92242  33.910  23.683  11.845
19818W        W92243   2.341  44.998  12.475
19819W        W92244  35.378  25.121   3.780
19820W        W92245   2.768   0.871   2.313
19821W        W92246   1.789  14.855  12.896
19822W        W92247   4.356  15.942   2.451
19823W        W92248  29.601  36.603   3.898
19824W        W92249   7.347  14.615  12.905
19825W        W92250  12.643   5.636  11.620
19826W        W92251  27.333  44.240   3.208
19827W        W92252  35.947  27.740   2.962
19828W        W92253  26.776  12.184   4.763
19829W        W92254  14.031  37.082   4.550
19830W        W92255  22.169  23.798   3.665
19831W        W92256  44.005  14.303  13.850
19832W        W92257  29.256  35.887  10.256
19833W        W92258   1.814  33.849  11.846
19834W        W92259  12.718  35.499  14.567
19835W        W92260  29.895  40.799   0.386
19836W        W92261  10.798   8.628   4.455
19837W        W92262  34.052  20.956   3.634
19838W        W92263  26.213  22.011  13.943
19839W        W92264  44.120  41.519   2.636
19840W        W92265  30.832   9.880  11.427
19841W        W92266  22.961  39.879   0.944
19842W        W92267   8.128  35.151   1.813
19843W        W92268   5.828  40.900  11.585
19844W        W92269  19.217   0.748   0.377
19845W        W92270  41.825  27.902  14.487
19846W        W92271   4.351  16.886   4.141
19847W        W92272  19.251  41.850   4.159
19848W        W92273  14.172  18.320   2.370
19849W        W92274  21.180   9.050   2.759
19850W        W92275  35.922  34.492   3.665
19851W        W92276  39.460  29.395   1.761
19852W        W92277  27.065  39.277  13.839
19853W        W92278  43.041  43.560   0.360
19854W        W92279   3.379  34.176  11.551
19855W        W92280  24.493  39.869  11.061
19856W        W92281  20.270   7.886  12.498
19857W        W92282  41.039  37.484   2.959
19858W        W92283   3.385  10.432  13.456
19859W        W92284  28.495  12.080  12.141
19860W        W92285   0.686  24.141  14.368
19861W        W92286  18.615   4.611  12.369
19862W        W92287  15.879  33.858   0.243
19863W        W92288  38.470  22.776  12.551
19864W        W92289  37.238  10.801   4.912
19865W        W92290  23.423  44.036  14.768
19866W        W92291  25.668  40.721   4.773
19867W        W92292  10.031  37.557   5.047
19868W        W92293  35.974  41.773   1.840
19869W        W92294  24.053   7.362   5.174
19870W        W92295  43.778  23.214   0.207
19871W        W92296  24.003  33.906  10.872
19872W        W92297   0.364   7.727  12.368
19873W        W92298  33.558   6.085  10.415
19874W        W92299  32.593  44.900   4.642
19875W        W92300  41.371   7.276   3.144
19876W        W92301   3.848  23.127   4.203
19877W        W92302  19.751  26.248   0.754
19878W        W92303  19.013  34.852  12.800
19879W        W92304   3.517   4.789  14.296
19880W        W92305  16.592   8.712  10.892
19881W        W92306  44.864  31.858   1.681
19882W        W92307  30.612  17.290  11.165
19883W        W92308  44.744  28.058  12.091
19884W        W92309  22.509  15.598  13.985
19885W        W92310  21.601  22.874  14.884
19886W        W92311  37.140  40.327   3.357
19887W        W92312  35.549  13.322  12.499
19888W        W92313  18.264  17.466  12.844
19889W        W92314  37.097  21.114  11.169
19890W        W92315  22.457  40.812  11.923
19891W        W92316  14.582  39.480   2.290
19892W        W92317  39.560  20.606   4.811
19893W        W92318  42.728  10.564   4.635
19894W        W92319  23.013  23.121   3.118
19895W        W92320  33.349   8.634   4.157
19896W        W92321  17.739  21.305   1.639
19897W        W92322  28.126  39.534   2.385
19898W        W92323  44.931  36.233  13.589
19899W        W92324   3.775  39.423  12.024
19900W        W92325   8.700  31.469   1.723
19901W        W92326  25.225   7.161  11.635
19902W        W92327  34.376  20.280  12.540
19903W        W92328  38.515  17.858  12.991
19904W        W92329  35.654  41.338  14.830
19905W        W92330  41.060  12.661   4.208
19906W        W92331  28.333  28.197  10.389
19907W        W92332  18.506  12.589  12.132
19908W        W92333  18.644   2.698   3.870
19909W        W92334   4.600   4.649   3.218
19910W        W92335  25.905   7.971   4.579
19911W        W92336  18.140  22.300   3.113
19912W        W92337  22.963  42.875   4.098
19913W        W92338  37.510  41.037  14.544
19914W        W92339  24.987  33.151  10.875
19915W        W92340  29.611  23.113  13.798
19916W        W92341  23.731   4.897   2.878
19917W        W92342  36.620  40.104  11.078
19918W        W92343   8.352  34.087   0.917
19919W        W92344  20.718  14.066  10.441
19920W        W92345  37.127  38.556  12.610
19921W        W92346  22.550  25.631  11.931
19922W        W92347  28.036  33.658   2.221
19923W        W92348   7.562  34.903  13.339
19924W        W92349  10.474  43.876  13.109
19925W        W92350  30.424  30.004  11.586
19926W        W92351  44.483   5.443  11.613
19927W        W92352  42.477  22.492  11.474
19928W        W92353  11.830   0.079   2.831
19929W        W92354  20.331  21.125   0.936
19930W        W92355  29.024  22.604   2.154
19931W        W92356  16.955  44.030  10.992
19932W        W92357   3.730  26.876  13.569
19933W        W92358   9.125  10.311   1.746
19934W        W92359   5.079  39.886   4.112
19935W        W92360  29.102  27.390   1.553
19936W        W92361  35.355   6.367  11.434
19937W        W92362  38.925  42.496   2.295
19938W        W92363  38.471   0.321  13.389
19939W        W92364  19.691  13.237  11.986
19940W        W92365  14.065  28.664   2.830
19941W        W92366  39.986  28.585   2.646
19942W        W92367   5.849  40.820  10.674
19943W        W92368  42.052  14.122   4.920
19944W        W92369   8.709  33.389  13.742
19945W        W92370  15.098  39.456   3.148
19946W        W92371  27.638   2.500   2.251
19947W        W92372  26.036   5.456   0.121
19948W        W92373  19.234  15.349   2.398
19949W        W92374  38.904  35.330   2.414
19950W        W92375  40.191   6.718   4.299
19951W        W92376   0.746  15.334   3.278
19952W        W92377  18.959  25.579  14.331
19953W        W92378  25.642  26.267  13.307
19954W        W92379   0.729   8.657  13.432
19955W        W92380  25.862  18.350  10.534
19956W        W92381  14.103  27.372  13.467
19957W        W92382  27.618  29.539  13.933
19958W        W92383  33.634  34.187  12.394
19959W        W92384  36.041   3.835  12.707
19960W        W92385  20.616  17.561   2.416
19961W        W92386  42.369  40.868  11.300
19962W        W92387  30.030  40.793   4.703
19963W        W92388  25.108   8.462   4.177
19964W        W92389  20.020   8.186  14.453
19965W        W92390  39.475   8.602  14.310
19966W        W92391  13.106  17.210  14.443
19967W        W92392  13.248  22.917  13.144
19968W        W92393   5.221  12.871  11.699
19969W        W92394  24.242  42.742  13.943
19970W        W92395  26.471  41.065  14.774
19971W        W92396  16.818  15.117  14.579
19972W        W92397  18.661  21.117   4.987
19973W        W92398   3.314  27.685  14.006
19974W        W92399  31.979  31.166  13.855
19975W        W92400   9.087  41.352   1.912
19976W        W92401   9.949  25.475  10.957
19977W        W92402   6.288   0.118  14.872
19978W        W92403  21.171  10.639  13.908
19979W        W92404  17.200  44.608   2.780
19980W        W92405  12.850  25.651   2.211
19981W        W92406  34.567  35.048   2.753
19982W        W92407  29.930  32.590   1.227
19983W        W92408  38.728  15.744  14.552
19984W        W92409  41.433  15.377  11.672
19985W        W92410  30.251  12.335   2.583
19986W        W92411  37.816  18.176   4.516
19987W        W92412  34.061   5.795   3.244
19988W        W92413  21.499  18.253   4.626
19989W        W92414  28.482  13.270  10.614
19990W        W92415  42.081  15.929   5.004
19991W        W92416  40.872  33.446  12.391
19992W        W92417   8.865  22.095  12.983
19993W        W92418  33.691  20.301  11.270
19994W        W92419   7.830  26.049   1.738
19995W        W92420  13.412  30.609   2.744
19996W        W92421   0.715  24.898  13.489
19997W        W92422  28.049  43.896   2.911
19998W        W92423  26.109   9.594   1.737
19999W        W92424   3.006   6.260  11.103
20000W        W92425   9.043  17.372   2.705
20001W        W92426  21.101  19.761  14.692
20002W        W92427  39.480  35.966  11.992
20003W        W92428  41.911  22.180  14.807
20004W        W92429   5.190  30.622   0.060
20005W        W92430  26.518  29.482  10.645
20006W        W92431  37.828   3.549  13.830
20007W        W92432  25.106   9.933  12.010
20008W        W92433  40.796  18.607  11.479
20009W        W92434   6.953  11.657   3.239
20010W        W92435  37.449   2.766   4.626
20011W        W92436  19.319   2.682   1.350
20012W        W92437  30.376   9.452   0.821
20013W        W92438  41.919  32.176   0.542
20014W        W92439   9.724  25.778   0.376
20015W        W92440  28.752  16.011   4.501
20016W        W92441  28.058  14.125  13.440
20017W        W92442  41.014  41.759   0.011
20018W        W92443  37.263   8.602   3.382
20019W        W92444  23.679  18.744  11.948
20020W        W92445  38.614  19.686   4.149
20021W        W92446  37.631   0.945  12.402
20022W        W92447  39.944  28.603  12.807
20023W        W92448   6.833  24.682  11.674
20024W        W92449   6.664   8.647   0.290
20025W        W92450  22.397   7.433  13.192
20026W        W92451  42.928  13.624   2.752
20027W        W92452  12.342  17.334   0.013
20028W        W92453  31.618  40.840  14.863
20029W        W92454  35.165  18.787   3.155
20030W        W92455  44.625  13.595   2.376
20031W        W92456  12.814  40.435  13.375
20032W        W92457  16.740  12.164  13.392
20033W        W92458  27.884  39.619   0.323
20034W        W92459  42.400   5.600  14.077
20035W        W92460  22.649   4.502   0.346
20036W        W92461  10.398  22.602  11.543
20037W        W92462  42.812  21.762  12.800
20038W        W92463  35.406  31.471   1.811
20039W        W92464  17.400  41.763   3.010
20040W        W92465  35.792   8.866  11.972
20041W        W92466  20.156  21.292   1.403
20042W        W92467  15.130  29.004  14.554
20043W        W92468   3.344  32.807  12.987
20044W        W92469  33.027  39.243  12.543
20045W        W92470  29.875  27.445   3.851
20046W        W92471   3.184  31.971   5.453
20047W        W92472  28.723  40.458   4.261
20048W        W92473   5.471  17.272  11.091
20049W        W92474  34.521  44.242   2.620
20050W        W92475  40.065   0.057  10.356
20051W        W92476  15.147  37.467   3.608
20052W        W92477  23.536  35.576   0.459
20053W        W92478  16.681  43.241   2.733
20054W        W92479  23.386   9.614   3.283
20055W        W92480   2.190  20.287   0.287
20056W        W92481   1.258  27.484  10.612
20057W        W92482  10.879  19.084  11.018
20058W        W92483  18.133  42.630   3.618
20059W        W92484  44.753  32.094  14.809
20060W        W92485   2.422  20.554  10.442
20061W        W92486   4.428  26.630   3.840
20062W        W92487  44.876  40.032   2.741
20063W        W92488  31.554  35.243   3.297
20064W        W92489   2.659  10.572   2.732
20065W        W92490  20.251  10.666  14.383
20066W        W92491   7.245  14.320  11.042
20067W        W92492  44.935  32.412  14.108
20068W        W92493  33.995   7.836  12.409
20069W        W92494  13.162  44.090   0.862
20070W        W92495  18.287   8.832   0.893
20071W        W92496  15.111  41.154  12.671
20072W        W92497  22.534  38.104   3.343
20073W        W92498  28.476  11.631   1.887
20074W        W92499  39.018   4.241   3.699
20075W        W92500  34.650  39.960   0.879
20076W        W92501  15.279  22.572  12.014
20077W        W92502  25.238  41.471  10.703
20078W        W92503  31.898  39.814  14.039
20079W        W92504  19.967  40.078  11.151
20080W        W92505  32.959  18.293  12.946
20081W        W92506   2.698   6.794  13.553
20082W        W92507  39.853  28.502  10.999
20083W        W92508   7.136  26.564  10.699
20084W        W92509  41.998  44.499   2.736
20085W        W92510   1.841  33.364   3.252
20086W        W92511  12.389  23.540   3.714
20087W        W92512  14.537  43.443   4.031
20088W        W92513  31.375  11.414  10.845
20089W        W92514  17.243  31.154  13.119
20090W        W92515  10.835  17.960   0.855
20091W        W92516   5.882   8.303   4.631
20092W        W92517   3.528  28.995   1.774
20093W        W92518  23.326   0.805   3.880
20094W        W92519  19.413  33.006   4.864
20095W        W92520  16.059  34.013   0.714
20096W        W92521  10.910  26.879   2.457
20097W        W92522  20.539  23.581   4.602
20098W        W92523  17.744  14.478   1.388
20099W        W92524  44.847   9.751  14.882
20100W        W92525  43.457  37.836   3.684
20101W        W92526  41.357  26.958  11.544
20102W        W92527  20.501  24.903   3.636
20103W        W92528  14.577  14.330  13.364
20104W        W92529   1.071   4.230  13.453
20105W        W92530  13.360  13.695   3.875
20106W        W92531  16.337   2.008  11.376
20107W        W92532  11.753  20.043  10.851
20108W        W92533   8.714  17.042  14.913
20109W        W92534  21.640  32.154   3.497
20110W        W92535   0.407   8.170  11.299
20111W        W92536  38.120  16.724   0.828
20112W        W92537  14.354  10.658   0.431
20113W        W92538  15.601   3.295   2.457
20114W        W92539  32.550   5.835  12.160
20115W        W92540   9.834  35.159   3.905
20116W        W92541  21.036   5.676   1.444
20117W        W92542   1.404  42.655   3.126
20118W        W92543  33.653  20.929  13.548
20119W        W92544  39.048  44.786  10.628
20120W        W92545  43.152  23.251  13.335
20121W        W92546  41.128  41.744  11.555
20122W        W92547  43.365  26.119  13.534
20123W        W92548   9.477   9.172  14.365
20124W        W92549  27.703  10.599  14.755
20125W        W92550   8.316  21.280  13.517
20126W        W92551  15.713  12.902  13.010
20127W        W92552  37.962  23.500   3.619
20128W        W92553   5.160  13.309  12.107
20129W        W92554   8.325  32.661   4.115
20130W        W92555  36.950  34.532  12.968
20131W        W92556  15.621  34.149   2.209
20132W        W92557  43.270  18.236  12.606
20133W        W92558  31.503  41.014  14.366
20134W        W92559  39.336  22.570  12.588
20135W        W92560   0.935   4.890   4.673
20136W        W92561  12.080  20.222  13.534
20137W        W92562  12.791  20.669  14.955
20138W        W92563  33.081   2.973  14.548
20139W        W92564  17.056  15.675  12.370
20140W        W92565  41.097   2.838   3.594
20141W        W92566  30.463  42.262   3.405
20142W        W92567  14.662  43.484   0.484
20143W        W92568  18.723  40.884  10.701
20144W        W92569  43.276  32.581   3.831
20145W        W92570  24.639  42.785   0.883
20146W        W92571   3.987  41.580  11.965
20147W        W92572  28.199   1.863   3.606
20148W        W92573   3.681   4.875  14.828
20149W        W92574  22.471   7.076  14.085
20150W        W92575  33.899  12.070   3.545
20151W        W92576  39.898  42.842  12.130
20152W        W92577  20.956  36.595  13.307
20153W        W92578  10.784  19.981  11.866
20154W        W92579  27.920   9.955   3.912
20155W        W92580  11.271  13.731   4.444
20156W        W92581   0.040  20.638   1.242
20157W        W92582  39.378  19.475  12.454
20158W        W92583  37.961  28.008  10.654
20159W        W92584  27.316  30.065   9.653
20160W        W92585  41.687  31.181  13.407
20161W        W92586  10.903   0.477  11.632
20162W        W92587  34.876  41.268   0.345
20163W        W92588  36.791   9.918  14.829
20164W        W92589  41.816  30.209  13.822
20165W        W92590  23.021  36.521  13.429
20166W        W92591   5.288  41.099   2.843
20167W        W92592  18.219  22.736  11.098
20168W        W92593   1.758   1.047   0.981
20169W        W92594  35.550  21.426   1.973
20170W        W92595  13.648  43.848  14.952
20171W        W92596  42.381  33.277  14.429
20172W        W92597  14.323  41.665   5.193
20173W        W92598  12.655  14.329  11.606
20174W        W92599  17.562  43.786  14.343
20175W        W92600  22.677   0.344   1.122
20176W        W92601  28.181  31.400  11.956
20177W        W92602  31.934   5.354   0.430
20178W        W92603  30.929   5.705  14.866
20179W        W92604  23.671   9.589  11.034
20180W        W92605  29.194  13.278  13.832
20181W        W92606  34.160  18.706   1.123
20182W        W92607  44.425  40.362  13.504
20183W        W92608   9.502  44.682  12.739
20184W        W92609  15.289  25.480  11.981
20185W        W92610  38.827  22.545   3.711
20186W        W92611  12.058  28.661   0.003
20187W        W92612  12.058  16.747   4.641
20188W        W92613  39.573  37.125   1.879
20189W        W92614  10.169   5.868   0.378
20190W        W92615   8.784  16.837   1.794
20191W        W92616  11.860  33.521   3.651
20192W        W92617  15.246  23.175  11.498
20193W        W92618  43.445   6.928   0.419
20194W        W92619   1.368   5.758   3.785
20195W        W92620  17.206  34.153   2.767
20196W        W92621  34.315  32.373  13.524
20197W        W92622  36.899  40.503   1.618
20198W        W92623  15.519  14.701   3.144
20199W        W92624   8.304  22.004   2.802
20200W        W92625  18.114  28.520   2.067
20201W        W92626  41.667  41.222   2.694
20202W        W92627  31.010  11.884  14.904
20203W        W92628  27.149  15.693   2.224
20204W        W92629  34.119  41.857  13.738
20205W        W92630  36.030  32.181  12.547
20206W        W92631   3.381   8.914   0.896
20207W        W92632  10.188  41.259   4.882
20208W        W92633  19.982  28.434  10.457
20209W        W92634  30.249  34.482  14.723
20210W        W92635  21.694   9.650  14.982
20211W        W92636   9.649  43.925   4.542
20212W        W92637  27.715  34.295  14.257
20213W        W92638  10.651  39.691   4.573
20214W        W92639  37.337  33.041   1.744
20215W        W92640  14.164   9.019  14.292
20216W        W92641  16.806  40.953  13.252
20217W        W92642  26.052   9.044  11.101
20218W        W92643  13.333   5.896   0.378
20219W        W92644  14.743  35.876   1.824
20220W        W92645  25.462  38.903   4.416
20221W        W92646  42.572  24.565  12.342
20222W        W92647  16.748  35.152   1.920
20223W        W92648   6.334  19.160   1.505
20224W        W92649  37.202   8.222  14.403
20225W        W92650  29.203  37.703   1.478
20226W        W92651  42.780  20.964   0.280
20227W        W92652  30.056  32.315  11.834
20228W        W92653  37.498  42.568   1.384
20229W        W92654  35.497  15.057  10.816
20230W        W92655  21.506   1.252  14.833
20231W        W92656  12.888   2.950   5.018
20232W        W92657   0.442  38.498   1.895
20233W        W92658   6.487   2.300   3.749
20234W        W92659   4.972   2.420  13.839
20235W        W92660  19.897  31.521  12.923
20236W        W92661  12.143  15.071  14.625
20237W        W92662  11.330  40.950   3.657
20238W        W92663  12.337  34.635   4.361
20239W        W92664  28.758  38.020   1.431
20240W        W92665   1.248  25.772  13.864
20241W        W92666   6.466  21.282   3.609
20242W        W92667  12.583  33.524  10.620
20243W        W92668   2.412  43.797   3.155
20244W        W92669   7.582   1.906   3.153
20245W        W92670  36.594  44.720   3.229
20246W        W92671  33.242  24.746   3.208
20247W        W92672  27.019  39.806   1.229
20248W        W92673  14.558   1.478  10.136
20249W        W92674  13.270  14.631   3.871
20250W        W92675  26.595  39.558   1.398
20251W        W92676   8.697  21.760   0.321
20252W        W92677   9.658   2.725  12.328
20253W        W92678  29.120  23.751  14.867
20254W        W92679  15.820   8.173  11.745
20255W        W92680  26.648  39.617   2.872
20256W        W92681  25.793  24.153   1.748
20257W        W92682   2.933  20.282   4.137
20258W        W92683  13.601  22.288   9.728
20259W        W92684   6.436  30.603   1.766
20260W        W92685   4.947  28.417  13.886
20261W        W92686  31.819  20.135   0.171
20262W        W92687  12.195  35.682   2.989
20263W        W92688   3.643  18.623  14.811
20264W        W92689   9.537  43.879  12.898
20265W        W92690  18.502  30.904  12.398
20266W        W92691  11.302   4.704   0.860
20267W        W92692  13.901  44.999   1.256
20268W        W92693  17.902  20.184   1.470
20269W        W92694  11.821  36.791   4.633
20270W        W92695  42.864  24.747   0.014
20271W        W92696  27.278  36.954  10.596
20272W        W92697  23.718  41.039  12.555
20273W        W92698   6.209   9.692   1.978
20274W        W92699  32.104  18.803   3.177
20275W        W92700  29.391  29.949  12.892
20276W        W92701  32.145  43.181   0.079
20277W        W92702  39.731   2.650  11.210
20278W        W92703  23.691   4.714  10.548
20279W        W92704  40.230   6.729  12.571
20280W        W92705  22.974   6.450   2.313
20281W        W92706  17.751  33.473   0.304
20282W        W92707  34.829  17.049  12.584
20283W        W92708  33.544  44.186   0.544
20284W        W92709  28.709  12.565  14.452
20285W        W92710   7.716  38.382   4.269
20286W        W92711  23.167  21.130   2.383
20287W        W92712  23.786  26.518  13.431
20288W        W92713  13.085  23.134  10.945
20289W        W92714   2.891  23.698  14.318
20290W        W92715   1.949  19.796  11.975
20291W        W92716  19.181  14.649   0.689
20292W        W92717   0.867   4.185  12.641
20293W        W92718  30.013  36.336  14.495
20294W        W92719  41.852   6.460   4.679
20295W        W92720   6.073  44.475  11.388
20296W        W92721   6.721  39.535  11.943
20297W        W92722  31.632  41.040  12.969
20298W        W92723  28.050  17.512  13.564
20299W        W92724  30.589  10.599   4.652
20300W        W92725  41.562  16.365  14.869
20301W        W92726  35.132  13.074   4.170
20302W        W92727  42.044  18.136   1.292
20303W        W92728  29.615  39.061  12.034
20304W        W92729  14.590  35.038   2.475
20305W        W92730  12.657  37.109  11.459
20306W        W92731  26.019  30.510   4.760
20307W        W92732  25.683  18.727   2.039
20308W        W92733  30.247  35.270   4.231
20309W        W92734  43.112  44.951   4.764
20310W        W92735  39.398   8.747   1.238
20311W        W92736  38.288  22.652  13.023
20312W        W92737  38.545  42.015   3.890
20313W        W92738  31.957  15.629  11.560
20314W        W92739  32.500  37.298  12.146
20315W        W92740   3.203  33.040  12.483
20316W        W92741   5.748  21.674   4.755
20317W        W92742  28.965  38.005   2.839
20318W        W92743   3.201   1.816  13.935
20319W        W92744  33.321  16.828   0.892
20320W        W92745  27.445   1.193  14.787
20321W        W92746  19.806  20.683  11.222
20322W        W92747  21.480  19.682  12.403
20323W        W92748  23.262  15.144   4.120
20324W        W92749  32.733   5.910  14.498
20325W        W92750   8.368  36.708   0.759
20326W        W92751   9.216  34.632  14.867
20327W        W92752  10.255   4.979   5.049
20328W        W92753  26.949   3.826  12.133
20329W        W92754  35.070  26.808  13.033
20330W        W92755  24.092  42.489  12.030
20331W        W92756  27.085   3.950   0.407
20332W        W92757  19.292  34.907  11.473
20333W        W92758  41.777   9.365   1.654
20334W        W92759  36.167  21.506   2.834
20335W        W92760  42.497   8.652  10.664
20336W        W92761   7.316  14.148   0.754
20337W        W92762  43.295  37.315   1.324
20338W        W92763  37.899  11.925   4.560
20339W        W92764  14.117  33.435  13.724
20340W        W92765   4.737   1.540   0.564
20341W        W92766  20.328  19.201  14.908
20342W        W92767   3.277  24.203   4.576
20343W        W92768  36.213  35.218   4.073
20344W        W92769  14.663  18.743  11.074
20345W        W92770  17.056   8.123  12.161
20346W        W92771  21.936  40.899   4.194
20347W        W92772  16.862   6.189   3.366
20348W        W92773  25.639  41.571   3.666
20349W        W92774   5.093  13.743  11.525
20350W        W92775   9.229  33.500  14.410
20351W        W92776  29.857   4.411  11.183
20352W        W92777  19.307  40.842   3.263
20353W        W92778  38.870  21.110  12.487
20354W        W92779  28.444   5.582  14.811
20355W        W92780  30.164  21.172   3.232
20356W        W92781  44.290  14.518   2.182
20357W        W92782  14.430  10.926  11.120
20358W        W92783  17.163  15.182  12.528
20359W        W92784  12.907  19.124   3.696
20360W        W92785  11.799  16.545   2.403
20361W        W92786   9.722  44.346  13.091
20362W        W92787   2.910  41.841  12.775
20363W        W92788  33.022  22.744  13.361
20364W        W92789  28.066  27.028   3.273
20365W        W92790   3.167  23.689  13.867
20366W        W92791  29.169  18.891  11.184
20367W        W92792  14.255  35.469  12.356
20368W        W92793  29.903   5.700   0.954
20369W        W92794  19.377   3.236   1.347
20370W        W92795  14.050  15.724   1.695
20371W        W92796   9.504  41.715  13.470
20372W        W92797  37.822  28.938   0.464
20373W        W92798  42.990  32.439   3.255
20374W        W92799  17.656   2.365  11.245
20375W        W92800  39.889  16.307   3.730
20376W        W92801  16.537  19.730   1.455
20377W        W92802  22.942  31.631   1.758
20378W        W92803   6.740  44.934  13.605
20379W        W92804   7.079  21.366   1.343
20380W        W92805  26.633   7.113  12.038
20381W        W92806   6.843  34.900  11.536
20382W        W92807  34.181  11.351   3.204
20383W        W92808  27.253  37.130  12.548
20384W        W92809  28.202  32.840  10.922
20385W        W92810  32.642  32.701  13.419
20386W        W92811   5.062  42.863   3.924
20387W        W92812  19.064  32.166  12.914
20388W        W92813  19.620  31.409  12.512
20389W        W92814  42.565  18.810   4.180
20390W        W92815  37.509  41.118   1.512
20391W        W92816  23.606  11.380   3.135
20392W        W92817  21.801  13.812  14.333
20393W        W92818  21.923  31.036  12.379
20394W        W92819  12.083  38.907  13.486
20395W        W92820  43.429   5.449  13.523
20396W        W92821  14.783  37.023   2.732
20397W        W92822  18.865  29.773  14.795
20398W        W92823  16.329   2.768  14.768
20399W        W92824   3.572  18.036  12.450
20400W        W92825  15.638   0.575   1.447
20401W        W92826  26.568  29.995   5.528
20402W        W92827  43.935  20.362   4.718
20403W        W92828  43.344  25.171   4.550
20404W        W92829  40.367  40.632   0.521
20405W        W92830  32.878   5.580  12.957
20406W        W92831   3.282  37.196   0.729
20407W        W92832  26.155  43.918  11.401
20408W        W92833  41.976  16.645  13.749
20409W        W92834   5.539  26.177   4.485
20410W        W92835  38.436  18.731  10.870
20411W        W92836  28.924  38.981   4.253
20412W        W92837  34.161  15.693   0.054
20413W        W92838  13.637  13.791   4.322
20414W        W92839   0.934  12.671  12.304
20415W        W92840  18.090  10.557  14.958
20416W        W92841  21.095  29.346  11.555
20417W        W92842  22.684  18.773   0.012
20418W        W92843  16.355  16.207   1.389
20419W        W92844  30.984  40.806  14.299
20420W        W92845  41.480  36.819   1.583
20421W        W92846   9.728  28.633  13.742
20422W        W92847  27.632  12.981   0.276
20423W        W92848  18.289   3.726  10.996
20424W        W92849  26.763  32.521   5.413
20425W        W92850  32.052  31.592   1.474
20426W        W92851   5.703  31.062  11.099
20427W        W92852  10.248  41.597  12.453
20428W        W92853  23.091   9.441  14.488
20429W        W92854  25.265  28.393  11.413
20430W        W92855  39.824   4.437  12.543
20431W        W92856  24.100   3.200   3.130
20432W        W92857  14.202  24.930   3.228
20433W        W92858  36.406   7.299  13.978
20434W        W92859  34.489  37.368   4.051
20435W        W92860   9.290   6.682   1.450
20436W        W92861   2.940  39.303   1.171
20437W        W92862   2.372  33.535   5.097
20438W        W92863  23.873   7.412   4.273
20439W        W92864  22.040  43.998  12.484
20440W        W92865  22.486  18.217   3.093
20441W        W92866  44.895  19.347   3.151
20442W        W92867  14.497  23.423   1.227
20443W        W92868  36.111  29.403   3.482
20444W        W92869  34.998  20.547  14.445
20445W        W92870   4.461  23.122  14.222
20446W        W92871  20.042  19.025   4.762
20447W        W92872  22.815  30.568   1.476
20448W        W92873  43.846  33.984   9.558
20449W        W92874   4.257  24.230   1.754
20450W        W92875  34.424  35.570  12.445
20451W        W92876  18.537  18.403  12.914
20452W        W92877  25.239  40.479   2.800
20453W        W92878  36.506  10.636  11.619
20454W        W92879  39.783  10.882  14.067
20455W        W92880   5.289  43.078  10.746
20456W        W92881  43.790  31.158  11.594
20457W        W92882  25.511   8.119   3.237
20458W        W92883  27.146  14.891  13.001
20459W        W92884  13.239  39.910   2.126
20460W        W92885  29.948  38.181  11.974
20461W        W92886  27.957   2.366  10.516
20462W        W92887  13.713   2.130  14.715
20463W        W92888   9.171   8.575   2.327
20464W        W92889  23.193  41.972  10.747
20465W        W92890  31.986  26.191  13.031
20466W        W92891   0.264   0.295   1.326
20467W        W92892  20.243   4.770  12.762
20468W        W92893  30.021  26.584  14.807
20469W        W92894  28.584  29.033  11.919
20470W        W92895  35.953  39.864  11.162
20471W        W92896  34.007   6.017  11.482
20472W        W92897  44.393  16.830  12.509
20473W        W92898  42.488  33.339  10.677
20474W        W92899   9.590   2.906  11.309
20475W        W92900  27.041  31.685  11.629
20476W        W92901  43.879  21.182  11.441
20477W        W92902  44.702  26.693  14.310
20478W        W92903  27.133   2.731   1.184
20479W        W92904   2.096   1.763   2.875
20480W        W92905  25.449  35.095  13.527
20481W        W92906  11.390  25.471   4.594
20482W        W92907  44.995  31.045   4.129
20483W        W92908  38.965  20.216   3.662
20484W        W92909   1.953  44.380  13.067
20485W        W92910  37.933  35.126  13.505
20486W        W92911  16.469  40.137  13.368
20487W        W92912  27.979  39.893   4.099
20488W        W92913  22.484  17.708  14.988
20489W        W92914   3.477  39.329   2.877
20490W        W92915  30.151  32.383   1.722
20491W        W92916  38.566  43.882   3.661
20492W        W92917   5.607  34.885   3.149
20493W        W92918  44.385   8.489  11.615
20494W        W92919   4.757  43.357   0.518
20495W        W92920  36.930   1.260  13.972
20496W        W92921  25.995   8.743  14.972
20497W        W92922   0.929  20.971  14.983
20498W        W92923  43.190  32.010  14.911
20499W        W92924  30.029  44.220  10.716
20500W        W92925  16.749  35.410  10.000
20501W        W92926  34.752  16.914  10.373
20502W        W92927   9.886  37.856   0.875
20503W        W92928  14.839  12.542  11.109
20504W        W92929   5.351  33.007   2.459
20505W        W92930  18.139  20.541  13.481
20506W        W92931  26.766  14.728   2.366
20507W        W92932  36.900  36.822   3.652
20508W        W92933   8.084  34.813  11.095
20509W        W92934  16.869  16.809   2.672
20510W        W92935   2.923  12.150  12.413
20511W        W92936  29.222  24.044  13.861
20512W        W92937  12.338  16.205  10.916
20513W        W92938   8.284  14.479  12.070
20514W        W92939   4.545  40.280   2.824
20515W        W92940   8.919   6.464   4.111
20516W        W92941   8.625  27.584   1.001
20517W        W92942  20.860  41.773   1.109
20518W        W92943  40.927  23.872   3.883
20519W        W92944  15.194   4.319  14.008
20520W        W92945  20.507  23.429   1.261
20521W        W92946  33.489   2.376   3.158
20522W        W92947  39.766  22.987   1.825
20523W        W92948  34.008  22.417  12.868
20524W        W92949   8.684  22.150   4.272
20525W        W92950  41.494   1.320  14.806
20526W        W92951  16.745  14.569   3.767
20527W        W92952  31.404  24.131  10.600
20528W        W92953  13.343  25.581   3.934
20529W        W92954  23.438  13.218   0.712
20530W        W92955   1.879  38.610   2.501
20531W        W92956  43.398  35.654  14.875
20532W        W92957  16.511   0.418  14.866
20533W        W92958  42.441  26.671  11.043
20534W        W92959   6.695  36.643  10.952
20535W        W92960  13.902  27.206  13.007
20536W        W92961  20.568  15.028  13.980
20537W        W92962  26.233  28.551  14.464
20538W        W92963  21.268   9.975  12.567
20539W        W92964  41.906  18.568  11.516
20540W        W92965   9.865  33.592   0.229
20541W        W92966   9.756   9.611   2.010
20542W        W92967  33.126  15.429  10.639
20543W        W92968  14.238  31.729  10.703
20544W        W92969   7.210  14.147  13.062
20545W        W92970  18.625  18.098  11.076
20546W        W92971  25.086   2.983  11.103
20547W        W92972   3.410  36.811  10.736
20548W        W92973  12.830  11.108   4.843
20549W        W92974  22.066  24.717   1.064
20550W        W92975  37.513   7.824  11.399
20551W        W92976   1.222   2.793  11.174
20552W        W92977  18.170  15.458   0.536
20553W        W92978  40.543  27.494  11.764
20554W        W92979  28.003  37.618   3.072
20555W        W92980   9.919   3.740  10.946
20556W        W92981  39.429  37.511  10.961
20557W        W92982  40.501  10.428  13.445
20558W        W92983  38.988  29.755  11.068
20559W        W92984  12.825  28.084   4.274
20560W        W92985  12.488  36.165  11.059
20561W        W92986  39.025   6.717  13.834
20562W        W92987  35.476  26.601  10.648
20563W        W92988  21.548  19.643   2.933
20564W        W92989  19.041   2.529   1.836
20565W        W92990   9.843  13.785  13.267
20566W        W92991  37.875  28.455   0.241
20567W        W92992   8.760  27.060   4.411
20568W        W92993  39.348  37.546   4.331
20569W        W92994  27.603  21.565   5.079
20570W        W92995   8.339  35.370  14.369
20571W        W92996  19.669  23.927  14.389
20572W        W92997  14.505  16.548  13.455
20573W        W92998  13.918   1.186   5.509
20574W        W92999   5.377  21.433   2.209
20575W        W93000  10.614  30.549   4.624
20576W        W93001   8.755   2.758   1.478
20577W        W93002  21.546  43.947   0.483
20578W        W93003   5.934  10.685  11.035
20579W        W93004  36.956  40.496   2.876
20580W        W93005  26.383   1.769   1.443
20581W        W93006   9.095  42.347   4.633
20582W        W93007  17.917  24.063   3.708
20583W        W93008  16.593  35.132   3.724
20584W        W93009  28.908  41.369   5.477
20585W        W93010  24.696  30.045  10.997
20586W        W93011  40.353  29.349  12.039
20587W        W93012  34.967   2.426   0.715
20588W        W93013   5.301  12.794   3.670
20589W        W93014  15.179  23.941  11.067
20590W        W93015   3.185   7.094  12.575
20591W        W93016  16.506  13.438   4.501
20592W        W93017  39.467  21.315  12.001
20593W        W93018   8.372  11.076  10.979
20594W        W93019  24.719  43.957  11.567
20595W        W93020  43.843  34.987   3.189
20596W        W93021  25.063  35.868  11.531
20597W        W93022   6.238  34.405   1.228
20598W        W93023  15.801  12.867  12.105
20599W        W93024  31.375  43.763   0.861
20600W        W93025  35.013  29.467  10.844
20601W        W93026  25.423  26.489   1.084
20602W        W93027  31.625   2.743   2.661
20603W        W93028  31.582  25.144  14.342
20604W        W93029  37.968   7.500  10.658
20605W        W93030  32.463   2.332   2.832
20606W        W93031  25.965  28.657  10.746
20607W        W93032  11.273   5.255   3.753
20608W        W93033  39.830   0.913   3.193
20609W        W93034  14.919   3.713  14.585
20610W        W93035  34.115   5.251  11.081
20611W        W93036   7.177  25.233  10.801
20612W        W93037   6.998  25.126   2.300
20613W        W93038  24.302  20.002  12.008
20614W        W93039  38.028  26.549   1.961
20615W        W93040  32.434   5.762   0.827
20616W        W93041  28.576  40.982  13.718
20617W        W93042  32.794   2.962   4.226
20618W        W93043  23.126  36.962  10.545
20619W        W93044  38.435  14.823   3.013
20620W        W93045  21.043  10.902  10.523
20621W        W93046  41.248   0.382   0.235
20622W        W93047  42.713   2.035   3.772
20623W        W93048  26.120  18.635   2.310
20624W        W93049  29.621  22.493   1.337
20625W        W93050  23.495  10.329  12.742
20626W        W93051   4.251  16.353  14.909
20627W        W93052  37.368  36.420   1.267
20628W        W93053  32.381  40.564   3.713
20629W        W93054  15.879  30.306  14.685
20630W        W93055  36.092   6.856   9.600
20631W        W93056  38.623  25.733   0.407
20632W        W93057  21.669   1.521   0.286
20633W        W93058  13.766   8.356   4.075
20634W        W93059   8.656  35.377  12.008
20635W        W93060  34.327  15.580   3.754
20636W        W93061   1.899   1.444  11.484
20637W        W93062  44.407   6.949  10.688
20638W        W93063   1.270   5.318   4.590
20639W        W93064  27.846  15.609   3.708
20640W        W93065   4.771  19.167   1.936
20641W        W93066   5.781  13.177   0.304
20642W        W93067   9.914  23.452   2.924
20643W        W93068  36.937   3.285   1.823
20644W        W93069  21.205  19.179   1.278
20645W        W93070  32.497   3.787  13.881
20646W        W93071  41.882  28.803   2.685
20647W        W93072   8.660   6.456   1.149
20648W        W93073   9.891   4.127   1.789
20649W        W93074  25.068   3.260  11.540
20650W        W93075  13.659  42.821   3.628
20651W        W93076   9.733  18.746  14.050
20652W        W93077  39.297   3.432  11.259
20653W        W93078  34.158  22.139   1.224
20654W        W93079   8.173  40.890   0.492
20655W        W93080  26.615  15.327  12.154
20656W        W93081   1.957  37.456   1.638
20657W        W93082   9.321   2.523   3.067
20658W        W93083  17.052  41.407   3.139
20659W        W93084  34.928  39.893  10.749
20660W        W93085  17.354  13.100  13.452
20661W        W93086  29.561  18.080   0.884
20662W        W93087  21.170   9.494   4.996
20663W        W93088   4.232  44.780   0.489
20664W        W93089  43.244  17.595  12.071
20665W        W93090  36.869  30.967   2.521
20666W        W93091  23.519  19.154  11.513
20667W        W93092  28.313   8.383  13.891
20668W        W93093  11.796  28.390  12.426
20669W        W93094  17.085   0.730  12.462
20670W        W93095  11.109  36.434   4.214
20671W        W93096  26.275  36.141  13.582
20672W        W93097  36.107   6.106  12.608
20673W        W93098  27.576  11.545  11.111
20674W        W93099  38.855  29.925   9.898
20675W        W93100  23.598  33.503   1.651
20676W        W93101  37.965  34.450  11.397
20677W        W93102  43.712  31.903   2.187
20678W        W93103  12.705  10.895   0.867
20679W        W93104  36.968  29.956   0.407
20680W        W93105  42.221  16.125  11.421
20681W        W93106  18.811  23.250  13.451
20682W        W93107  23.078  19.193   3.614
20683W        W93108  43.019  12.367   1.394
20684W        W93109  20.094  26.892  10.871
20685W        W93110  35.622  28.705   3.727
20686W        W93111  22.624  27.534  10.173
20687W        W93112  44.797   7.124  12.385
20688W        W93113  40.570   3.689   3.746
20689W        W93114  34.137  38.945   1.701
20690W        W93115  16.885  15.108   1.422
20691W        W93116  21.441  22.791   3.399
20692W        W93117  32.883  22.252  13.140
20693W        W93118  21.969  13.439   2.809
20694W        W93119  42.083  11.619  12.507
20695W        W93120  29.824  13.528  12.298
20696W        W93121  14.659  33.943   0.831
20697W        W93122  37.885  11.245   1.197
20698W        W93123  14.309   9.305  12.386
20699W        W93124  13.874  27.984  11.988
20700W        W93125  16.678  33.947  13.392
20701W        W93126   1.439  42.849  13.881
20702W        W93127   3.233   0.865  10.923
20703W        W93128  43.393   7.851  14.365
20704W        W93129   1.696  24.258  11.527
20705W        W93130   1.197  38.811  11.384
20706W        W93131  44.206  32.573   2.860
20707W        W93132  32.057  43.878  13.921
20708W        W93133  17.154  14.107   1.860
20709W        W93134   6.778   1.199  11.530
20710W        W93135   2.386  26.266  12.110
20711W        W93136  42.952   8.448  13.384
20712W        W93137  22.016  29.736   2.153
20713W        W93138   1.279   9.131  14.338
20714W        W93139  21.742  28.494  11.992
20715W        W93140  12.806   5.719   0.461
20716W        W93141   8.614   0.997   3.316
20717W        W93142   9.804   0.199  12.969
20718W        W93143  24.554  24.264   0.415
20719W        W93144  41.407  34.556  12.927
20720W        W93145  43.792  27.508  12.470
20721W        W93146  36.902  12.156   1.680
20722W        W93147   4.021  34.369  14.969
20723W        W93148   8.932  42.250  14.690
20724W        W93149  23.736  14.515   1.193
20725W        W93150  34.822  28.122  13.351
20726W        W93151  25.135  32.444  14.532
20727W        W93152  37.804  36.013  13.483
20728W        W93153  35.132  10.776  10.686
20729W        W93154  22.970  25.502   1.143
20730W        W93155  42.271   4.465  12.406
20731W        W93156  23.441   0.920   1.256
20732W        W93157   8.279  25.769  13.523
20733W        W93158  25.691  12.204  12.642
20734W        W93159  23.456   1.989  10.750
20735W        W93160  43.531   2.944  13.465
20736W        W93161  36.747  15.656  13.981
20737W        W93162  22.124  10.639  10.222
20738W        W93163  13.668  32.065   2.303
20739W        W93164  15.599  26.965  11.046
20740W        W93165  25.550  27.687   1.576
20741W        W93166  44.247  39.977   4.769
20742W        W93167  25.947  24.662   4.852
20743W        W93168  14.223  11.653   0.471
20744W        W93169  11.649  40.349   4.234
20745W        W93170  25.138  34.814   2.935
20746W        W93171  24.072  33.621  12.925
20747W        W93172  28.560  10.406  11.428
20748W        W93173  31.967   4.879  11.600
20749W        W93174  20.938  24.014  11.207
20750W        W93175  25.906  25.066  13.346
20751W        W93176  35.585   4.810   3.310
20752W        W93177  23.936  23.632   4.992
20753W        W93178  34.510  37.247   4.552
20754W        W93179  19.523   9.720   1.449
20755W        W93180  44.323   4.368  12.392
20756W        W93181  16.340  29.361   0.317
20757W        W93182   7.296  15.712  12.053
20758W        W93183   1.617  29.158   1.627
20759W        W93184  26.147  22.029   2.359
20760W        W93185  15.281  29.089  13.613
20761W        W93186  38.888  36.242   4.444
20762W        W93187  34.970  17.540  11.638
20763W        W93188  42.961   9.529   1.469
20764W        W93189  21.121   6.675   2.283
20765W        W93190   1.017  40.089   0.044
20766W        W93191  43.030  20.030   0.349
20767W        W93192  10.560  29.592   1.039
20768W        W93193  21.487  33.401   2.042
20769W        W93194   7.524  15.637  13.828
20770W        W93195  27.946  21.030   3.708
20771W        W93196  22.493  18.199  14.887
20772W        W93197  30.515  37.577  10.605
20773W        W93198  38.817   8.152  11.443
20774W        W93199  27.711  13.323   2.357
20775W        W93200  25.682  24.282  11.550
20776W        W93201  34.592  18.042  12.483
20777W        W93202  25.935  10.369  14.780
20778W        W93203  15.802   9.320  10.903
20779W        W93204   8.809  32.794  12.608
20780W        W93205  20.209  11.615  13.917
20781W        W93206  31.492  29.223   4.945
20782W        W93207  32.424  11.741   0.020
20783W        W93208  18.261  15.637   1.505
20784W        W93209   2.473  41.508   3.724
20785W        W93210  19.488   1.888  14.112
20786W        W93211  19.215  39.341   0.371
20787W        W93212   4.303   6.454   3.149
20788W        W93213  17.168   9.138   3.660
20789W        W93214   8.288  25.228   0.743
20790W        W93215  29.124   4.122   4.127
20791W        W93216   1.411  19.056  12.054
20792W        W93217  13.304  32.072  14.046
20793W        W93218   8.847  24.853  14.723
20794W        W93219   4.783   5.008   4.632
20795W        W93220  42.640  35.558   2.775
20796W        W93221  37.501   8.587   4.992
20797W        W93222   7.881  11.671  13.645
20798W        W93223  18.855  36.688  13.691
20799W        W93224  17.339  28.112   1.853
20800W        W93225  29.669  31.039   4.210
20801W        W93226   7.427   3.334   3.425
20802W        W93227   7.137  29.440  10.726
20803W        W93228   1.303   1.044   1.809
20804W        W93229  43.863  44.227   1.317
20805W        W93230   5.241  34.158  10.646
20806W        W93231  18.488  44.022   3.794
20807W        W93232  23.454  14.623   4.373
20808W        W93233   2.959  16.064   0.339
20809W        W93234   9.069   0.838   5.031
20810W        W93235  21.609  27.412   3.404
20811W        W93236  43.951  28.331  13.361
20812W        W93237   4.236  23.171   4.594
20813W        W93238  20.182  28.189  13.295
20814W        W93239   1.400  18.515  14.458
20815W        W93240   7.620  34.843  14.591
20816W        W93241  40.234   0.958  12.448
20817W        W93242  36.994  33.519  14.011
20818W        W93243  36.369  37.007  14.285
20819W        W93244  24.955  11.502  12.079
20820W        W93245  31.440  21.268   0.627
20821W        W93246   2.927  42.361  12.719
20822W        W93247   9.307   1.901   4.160
20823W        W93248  34.085   5.323  12.584
20824W        W93249  17.095  13.715  10.151
20825W        W93250  35.960  22.030  11.330
20826W        W93251  32.879  41.814   3.987
20827W        W93252  36.394  28.274   2.240
20828W        W93253  30.347  26.410  13.973
20829W        W93254  29.118  13.285  14.909
20830W        W93255  26.748  28.048  13.024
20831W        W93256  10.311   7.600   3.998
20832W        W93257  34.321  39.449  12.740
20833W        W93258  30.460  30.261   1.173
20834W        W93259  23.729  18.023   1.426
20835W        W93260  33.342  22.640  11.255
20836W        W93261  14.800  32.341   1.864
20837W        W93262  36.675  18.710   3.380
20838W        W93263   9.775  25.644  14.834
20839W        W93264  43.401  24.015   1.898
20840W        W93265  43.002  34.934   2.852
20841W        W93266  24.689  39.328  13.080
20842W        W93267  42.240   8.880   2.596
20843W        W93268  36.845  32.106  12.561
20844W        W93269  21.019  21.092  12.177
20845W        W93270  20.585   3.322  13.919
20846W        W93271  44.567  16.688   3.660
20847W        W93272  11.696  14.777   3.712
20848W        W93273   6.175  13.286  12.013
20849W        W93274  26.469  24.086   2.722
20850W        W93275  38.094   8.820   3.747
20851W        W93276  42.394  39.346   0.298
20852W        W93277  39.002  13.832  12.378
20853W        W93278  26.447  33.078   2.801
20854W        W93279  19.018   8.186  13.327
20855W        W93280   9.420  42.478   2.784
20856W        W93281   4.065   1.014   4.183
20857W        W93282   9.716  40.712  14.495
20858W        W93283  30.663  18.175  12.261
20859W        W93284  23.532  30.438  14.329
20860W        W93285  33.069  13.471  14.386
20861W        W93286  37.971   5.461  14.957
20862W        W93287   9.631  43.522  14.843
20863W        W93288   2.646   4.416  13.273
20864W        W93289  32.075  21.869   4.237
20865W        W93290  18.599  23.451  10.508
20866W        W93291   5.688  27.607   1.114
20867W        W93292  25.527  44.399  10.695
20868W        W93293  18.819  29.597  10.998
20869W        W93294  23.014  38.683   4.186
20870W        W93295  38.144   6.724   3.217
20871W        W93296  17.983   0.194  10.977
20872W        W93297  28.575   7.147   4.587
20873W        W93298  18.306   4.934  14.257
20874W        W93299  44.906  16.242   4.428
20875W        W93300  35.071   7.856   0.740
20876W        W93301  22.316  39.018   2.860
20877W        W93302  31.017  32.222   1.732
20878W        W93303  41.902  31.271  11.149
20879W        W93304  12.727  12.691   1.383
20880W        W93305   3.856   7.733   4.428
20881W        W93306   6.843  38.512   4.646
20882W        W93307   3.998  43.845  13.957
20883W        W93308  40.755  16.960  13.697
20884W        W93309   3.047  29.896  11.110
20885W        W93310   0.992   9.391   4.623
20886W        W93311  25.995  18.751   0.354
20887W        W93312  15.783  44.350   0.639
20888W        W93313  18.234   3.048  13.406
20889W        W93314   0.102  31.379   3.751
20890W        W93315  16.710  31.484  14.732
20891W        W93316  40.426  23.201  11.550
20892W        W93317   6.619   8.714  13.496
20893W        W93318  33.409  10.404   5.395
20894W        W93319   5.833  44.907  14.861
20895W        W93320  35.517  23.933  13.125
20896W        W93321  25.798  30.527  10.584
20897W        W93322  20.642  31.202  13.922
20898W        W93323  18.137  20.951   0.754
20899W        W93324  27.496  20.859  12.018
20900W        W93325  31.485  27.734  11.449
20901W        W93326  40.572  22.281   1.824
20902W        W93327  36.499   7.802   4.613
20903W        W93328   8.229  13.753   4.360
20904W        W93329  13.879  18.827  14.395
20905W        W93330   3.166   8.278  14.066
20906W        W93331   1.876  44.297  12.127
20907W        W93332  15.062  10.942   0.971
20908W        W93333  34.753  39.488   4.892
20909W        W93334  11.883   8.473   0.673
20910W        W93335   3.292  41.363  11.658
20911W        W93336   0.068  26.237   1.243
20912W        W93337   6.709  26.010  14.569
20913W        W93338  20.707  35.328  11.918
20914W        W93339  37.804  27.884   1.519
20915W        W93340  29.546  13.359  12.941
20916W        W93341  22.510   0.682   5.050
20917W        W93342  25.017  44.272   0.982
20918W        W93343   7.851  42.242   4.394
20919W        W93344  43.024  12.730   4.688
20920W        W93345  36.070  25.487   0.411
20921W        W93346  21.775  28.574  12.842
20922W        W93347  34.611  10.895  12.276
20923W        W93348   6.657  10.370  11.055
20924W        W93349  37.141  41.238  14.872
20925W        W93350   9.307  38.077  14.821
20926W        W93351  24.114  16.082   0.288
20927W        W93352   0.198   8.723  13.449
20928W        W93353  22.591  21.426  14.681
20929W        W93354  16.157  39.943   1.501
20930W        W93355  24.787  43.919  10.727
20931W        W93356  13.028  27.641   4.539
20932W        W93357  24.680   7.199  14.838
20933W        W93358  28.060  42.714   0.721
20934W        W93359  11.326  17.328  12.572
20935W        W93360  27.401  24.988   4.264
20936W        W93361   6.410  16.416   4.564
20937W        W93362   7.775  21.772  11.203
20938W        W93363   0.544  39.306   3.726
20939W        W93364   0.514   6.576   0.546
20940W        W93365   0.033  17.469   4.286
20941W        W93366  42.057  36.485   0.873
20942W        W93367  23.205  33.138   0.424
20943W        W93368  21.622  19.239   4.669
20944W        W93369   6.244  29.592  13.502
20945W        W93370  31.628   4.119   4.561
20946W        W93371  42.287   9.364   3.288
20947W        W93372   2.878  24.188   1.811
20948W        W93373   7.421   9.633   3.974
20949W        W93374   4.605   2.881  12.995
20950W        W93375   7.168  26.591  14.950
20951W        W93376   8.546  22.228   2.386
20952W        W93377  12.087  32.019   4.635
20953W        W93378  36.413  39.509  14.677
20954W        W93379  30.142  26.449   1.344
20955W        W93380  38.547   8.929  12.506
20956W        W93381  15.825  43.019   2.663
20957W        W93382  26.733  36.881  14.422
20958W        W93383  18.334  10.083  14.928
20959W        W93384  29.524  39.495  12.280
20960W        W93385  12.876  13.251   2.275
20961W        W93386  37.871  29.589   2.482
20962W        W93387   0.682  11.347  12.173
20963W        W93388  43.969  29.385   4.176
20964W        W93389  44.972  14.584  13.584
20965W        W93390  36.553  15.227  13.715
20966W        W93391  31.956  29.900   0.799
20967W        W93392  44.117  26.520   1.689
20968W        W93393  22.139   3.716   1.289
20969W        W93394   6.945  14.752   0.759
20970W        W93395  23.155  43.237  13.579
20971W        W93396   4.189  42.439   1.423
20972W        W93397  42.919  12.193  11.548
20973W        W93398   8.866  31.924   1.938
20974W        W93399  16.765   0.334  12.556
20975W        W93400  18.809  17.871   1.755
20976W        W93401  35.776  13.225   2.889
20977W        W93402  39.422  27.187  10.632
20978W        W93403  21.562   1.776  14.848
20979W        W93404  13.038  26.983   3.301
20980W        W93405   6.873   2.496  13.979
20981W        W93406  36.925   6.654   5.723
20982W        W93407  13.683  19.485   1.952
20983W        W93408  34.056  42.514   3.140
20984W        W93409  20.722  23.271   4.077
20985W        W93410  31.050  17.040  11.090
20986W        W93411  41.244  34.162   4.255
20987W        W93412   8.424  21.936  11.198
20988W        W93413  39.947  23.919   1.560
20989W        W93414  17.168  40.108   0.362
20990W        W93415  18.278  28.546   3.565
20991W        W93416  14.369  30.606   3.710
20992W        W93417  30.987   9.347  12.151
20993W        W93418  29.345  36.068  11.481
20994W        W93419   8.126  16.743  13.747
20995W        W93420  26.044   0.794  11.165
20996W        W93421  25.161  18.016  11.672
20997W        W93422  36.534  32.875  10.976
20998W        W93423  22.316   3.972  10.761
20999W        W93424  14.298  22.872  11.600
21000W        W93425  21.552  21.739   3.372
21001W        W93426  13.034  17.119  12.547
21002W        W93427  10.618  44.486   0.322
21003W        W93428   9.270   8.864   1.842
21004W        W93429   7.418  25.171  11.246
21005W        W93430  32.033  12.817  12.452
21006W        W93431  19.601  14.565   2.350
21007W        W93432  16.086   5.435   2.784
21008W        W93433   1.236  31.813  12.049
21009W        W93434   5.477  37.735  12.500
21010W        W93435  14.023  22.643  14.444
21011W        W93436  22.000  15.579   0.848
21012W        W93437  33.748  12.797  11.143
21013W        W93438  27.669  36.635  10.441
21014W        W93439  33.502  37.997  10.505
21015W        W93440  21.781  28.507   4.782
21016W        W93441  36.573  37.378  12.982
21017W        W93442   1.331   6.172  14.523
21018W        W93443  31.970  18.116   0.277
21019W        W93444   9.408  25.889   2.145
21020W        W93445  31.648  44.856   3.680
21021W        W93446  10.603  29.704   4.258
21022W        W93447   0.836  44.736   1.963
21023W        W93448  32.260  13.695  11.966
21024W        W93449  23.989  37.426  12.964
21025W        W93450  26.441  19.015  10.604
21026W        W93451  17.998  38.500  12.803
21027W        W93452   8.262  42.513   3.583
21028W        W93453  37.061  32.338  13.498
21029W        W93454  35.910   4.512   3.587
21030W        W93455  33.678   8.260  10.622
21031W        W93456  41.478  30.376   2.023
21032W        W93457  33.882  26.431   3.955
21033W        W93458  10.556   3.740   2.914
21034W        W93459  16.706  33.634   3.691
21035W        W93460   1.784   4.412  12.604
21036W        W93461  39.873   2.896  11.639
21037W        W93462   9.122   3.219  11.044
21038W        W93463   0.774  12.242  12.022
21039W        W93464  27.458  32.552  13.435
21040W        W93465  40.908  12.065  11.090
21041W        W93466  38.834  29.459   2.635
21042W        W93467   8.416  26.537   2.333
21043W        W93468  25.515  34.166  10.704
21044W        W93469   3.784  29.483   3.867
21045W        W93470  37.558  33.598  12.566
21046W        W93471  27.692  31.535  12.936
21047W        W93472  36.435  16.347   3.266
21048W        W93473  33.533  39.033  13.360
21049W        W93474   2.265  12.781  13.794
21050W        W93475   0.247  30.712   2.332
21051W        W93476  36.626  39.301  10.717
21052W        W93477  10.332  37.301  13.372
21053W        W93478  41.474  12.695  11.052
21054W        W93479   5.871  11.395   0.873
21055W        W93480  24.167  25.438  14.022
21056W        W93481  24.545  40.871   2.576
21057W        W93482   4.966  41.387   3.158
21058W        W93483  39.419  32.653   3.207
21059W        W93484   0.966   5.215  13.909
21060W        W93485  14.104  44.286   4.091
21061W        W93486   1.299  28.140  12.327
21062W        W93487  30.573   7.346   0.888
21063W        W93488  19.560   0.992   4.551
21064W        W93489  29.178  40.974   3.699
21065W        W93490  25.248   0.929   3.295
21066W        W93491  21.674   8.292   2.767
21067W        W93492   6.043  26.273   4.505
21068W        W93493  26.041  34.945   4.285
21069W        W93494  17.729  36.307   2.170
21070W        W93495  16.646  27.172   1.738
21071W        W93496   1.176  23.569  11.451
21072W        W93497  11.568  22.003   4.186
21073W        W93498  35.751  18.056   1.331
21074W        W93499  43.961  28.441  14.425
21075W        W93500  42.318  40.693  12.848
21076W        W93501  32.375  15.056   2.126
21077W        W93502  28.635  23.921  14.820
21078W        W93503   7.171  40.472  13.988
21079W        W93504   6.934   1.421  11.975
21080W        W93505  33.455  22.182  13.945
21081W        W93506  20.481  20.593  13.336
21082W        W93507  18.594  39.570   3.318
21083W        W93508  21.744  19.235   1.772
21084W        W93509   6.783  23.472   2.138
21085W        W93510   1.160  39.855  13.782
21086W        W93511   1.230  17.179   1.386
21087W        W93512  37.456  32.784   3.999
21088W        W93513   9.723  10.689  11.918
21089W        W93514  27.655  18.605   4.565
21090W        W93515   8.620  37.465   1.252
21091W        W93516  19.312  26.157   2.545
21092W        W93517  30.420  11.116  10.570
21093W        W93518  11.701  13.308  14.737
21094W        W93519   4.659  27.031  11.823
21095W        W93520  37.424  22.279   3.448
21096W        W93521  33.161  33.559  11.616
21097W        W93522  24.637   9.771   2.238
21098W        W93523  41.078   5.135  11.476
21099W        W93524  42.423  31.194  12.432
21100W        W93525  39.953  13.378   4.573
21101W        W93526  16.499  37.339   4.581
21102W        W93527   4.961   3.614  13.742
21103W        W93528  39.477  38.843  13.338
21104W        W93529  37.739  15.668  14.332
21105W        W93530   2.580  44.808  12.047
21106W        W93531  42.819   4.318  10.270
21107W        W93532   2.931   2.292   2.807
21108W        W93533  26.913  35.354   3.927
21109W        W93534   9.443  21.013   4.204
21110W        W93535  38.028  22.966   3.554
21111W        W93536  26.904  20.502  13.259
21112W        W93537   6.626  13.083   4.675
21113W        W93538  18.063  36.390   0.356
21114W        W93539   0.054   5.324  12.563
21115W        W93540  23.200  13.664  12.083
21116W        W93541  14.763   5.806  13.925
21117W        W93542  16.331  24.459   0.845
21118W        W93543  10.622  21.465  12.033
21119W        W93544  16.705  19.737   2.857
21120W        W93545  31.522  30.619  13.864
21121W        W93546  15.576  22.155   4.583
21122W        W93547   4.875  41.563   4.741
21123W        W93548  13.775  24.945   2.918
21124W        W93549  32.960  26.755   2.475
21125W        W93550  10.194  36.449  11.864
21126W        W93551   7.442  13.250   4.190
21127W        W93552  20.705  14.200  13.484
21128W        W93553  30.885   6.907   3.653
21129W        W93554   0.462   6.046   4.598
21130W        W93555   0.943  23.513  10.438
21131W        W93556  23.883  18.232   3.554
21132W        W93557  32.085  32.537  10.655
21133W        W93558  24.607  11.245   1.878
21134W        W93559  37.821  19.295   3.214
21135W        W93560  33.527  26.418  12.498
21136W        W93561  24.588  29.196   0.966
21137W        W93562  32.118   8.788   3.661
21138W        W93563  14.315  39.559   4.560
21139W        W93564   3.087  29.077   0.524
21140W        W93565   2.525  40.815  12.924
21141W        W93566   7.632  31.492  12.591
21142W        W93567  42.533   9.276  11.740
21143W        W93568  31.144  33.113   2.348
21144W        W93569  17.903   6.726   2.573
21145W        W93570  12.132  15.426  12.544
21146W        W93571  26.682   3.403  12.158
21147W        W93572  28.577  40.103  12.062
21148W        W93573  42.293  43.781   4.649
21149W        W93574  10.652  22.578  10.675
21150W        W93575  43.686  29.669  13.374
21151W        W93576  22.168  37.163   4.766
21152W        W93577  20.737   7.310  14.301
21153W        W93578   6.205   8.730  14.299
21154W        W93579   8.924  21.324   0.477
21155W        W93580  26.053  24.966   4.420
21156W        W93581  29.466  24.735  10.130
21157W        W93582  22.603  34.383  13.399
21158W        W93583   0.685  38.350   2.346
21159W        W93584  27.145   1.161  13.308
21160W        W93585  17.090  19.986  13.773
21161W        W93586  31.474  17.901   2.169
21162W        W93587  16.281  35.063  10.659
21163W        W93588   0.090  19.861   1.850
21164W        W93589  23.169  24.317   1.703
21165W        W93590   6.894   4.917   1.664
21166W        W93591  44.956  38.880  10.834
21167W        W93592  14.772  43.244   4.827
21168W        W93593  36.125   8.569   1.438
21169W        W93594  24.205   4.575  13.974
21170W        W93595  41.362  12.234   4.138
21171W        W93596  31.515  18.833  14.077
21172W        W93597   0.845  41.848  12.871
21173W        W93598  21.579   7.115   4.763
21174W        W93599  16.925  30.979   4.364
21175W        W93600  20.736  25.149   3.168
21176W        W93601  38.556  28.654  11.661
21177W        W93602   8.728  36.217  14.205
21178W        W93603  38.856  16.560  13.635
21179W        W93604  31.534  32.129  14.464
21180W        W93605  36.559  24.710   2.192
21181W        W93606  33.891  13.781   0.884
21182W        W93607  34.815  44.922  13.057
21183W        W93608  20.149  36.524   0.836
21184W        W93609   9.140  13.073  12.930
21185W        W93610  29.092  34.537   1.747
21186W        W93611  12.966  32.553   1.439
21187W        W93612  23.120   9.327   0.915
21188W        W93613  20.239  25.003   3.205
21189W        W93614  15.523  25.206  13.888
21190W        W93615   4.831  36.941  11.206
21191W        W93616   0.001  39.092   0.582
21192W        W93617  20.935   1.308   1.921
21193W        W93618   5.756  35.099  12.101
21194W        W93619   1.744  28.389   2.226
21195W        W93620  26.140   5.842  12.809
21196W        W93621  29.885  17.322  13.984
21197W        W93622   2.425  42.977   1.894
21198W        W93623   3.152  25.646   4.275
21199W        W93624  20.579  38.809  12.394
21200W        W93625   7.488  40.051  13.989
21201W        W93626  28.461  18.499  10.719
21202W        W93627   5.880   9.071  12.405
21203W        W93628  20.210   9.592  12.202
21204W        W93629  22.943  36.419  14.554
21205W        W93630   7.845  15.765  14.691
21206W        W93631   9.282  41.550  11.585
21207W        W93632  21.279  43.802   2.673
21208W        W93633  43.503  30.396   3.994
21209W        W93634  34.909  35.619   1.478
21210W        W93635  14.130  42.379   1.053
21211W        W93636  27.212  40.505  12.479
21212W        W93637  32.703  25.076  10.632
21213W        W93638  10.817  31.709  12.829
21214W        W93639  30.863  16.009   3.083
21215W        W93640  22.022  32.075   0.881
21216W        W93641  13.127  15.753   0.274
21217W        W93642  30.888  39.611   3.183
21218W        W93643   4.688  15.628  10.600
21219W        W93644   3.721   8.039   3.303
21220W        W93645  27.580  26.269  12.986
21221W        W93646  31.615   9.161  12.966
21222W        W93647  26.761   1.467  13.482
21223W        W93648   8.947  25.221   1.766
21224W        W93649  10.890  30.118  12.506
21225W        W93650   1.293  42.856  11.756
21226W        W93651  10.148  11.179  13.012
21227W        W93652  28.076  28.058  12.936
21228W        W93653  34.008  13.867  10.629
21229W        W93654  25.529  32.051   3.262
21230W        W93655   8.880   3.235   4.194
21231W        W93656   0.687  42.290  13.976
21232W        W93657   7.904  19.361  12.017
21233W        W93658   0.710  10.456   1.856
21234W        W93659   8.453  22.372  11.489
21235W        W93660  27.805  12.306   0.955
21236W        W93661  10.653   0.051   1.740
21237W        W93662  16.833  33.987   5.057
21238W        W93663  33.307  43.434   2.400
21239W        W93664  33.581  32.580  12.498
21240W        W93665   3.226  23.063  13.310
21241W        W93666  35.027   0.761  10.993
21242W        W93667  30.120  41.569   5.237
21243W        W93668  32.455  16.010   0.244
21244W        W93669   5.804  42.183   2.199
21245W        W93670   5.807  43.826  14.459
21246W        W93671   9.672  30.966  14.963
21247W        W93672  34.326  19.569   3.187
21248W        W93673  37.109   1.363  11.545
21249W        W93674  27.164   9.296   4.330
21250W        W93675  39.985   0.418  11.631
21251W        W93676  36.404  37.505  14.434
21252W        W93677  42.871   2.281   3.349
21253W        W93678  13.174  15.593   1.253
21254W        W93679   4.992  21.297  11.520
21255W        W93680  38.776  32.773   3.224
21256W        W93681  31.783  38.454   0.847
21257W        W93682  38.468  35.417  12.437
21258W        W93683   5.256  24.025  12.432
21259W        W93684   2.223  29.983   4.070
21260W        W93685  44.283  22.784   3.108
21261W        W93686  35.907   3.333  14.471
21262W        W93687  15.237  38.626   2.232
21263W        W93688  19.358  37.817   0.185
21264W        W93689   7.379  42.933  14.714
21265W        W93690  40.092   2.309  13.344
21266W        W93691   9.205  32.499  13.510
21267W        W93692   3.802  23.755  14.450
21268W        W93693   3.439  10.228  12.649
21269W        W93694  41.268  31.483   0.985
21270W        W93695  26.941   9.150  14.026
21271W        W93696   4.489  13.876   2.759
21272W        W93697   6.180  43.257  13.787
21273W        W93698   9.734  41.022   4.894
21274W        W93699   4.546  36.011  10.823
21275W        W93700  24.453  39.462   3.722
21276W        W93701  15.754  32.124  12.060
21277W        W93702   3.916  27.673   0.317
21278W        W93703  28.977  29.023   2.631
21279W        W93704  35.981  15.510   1.190
21280W        W93705   0.345  40.247   2.769
21281W        W93706  30.571   1.000   3.554
21282W        W93707  12.261  33.008   2.766
21283W        W93708   8.957  36.045  11.476
21284W        W93709  21.896  38.538  13.827
21285W        W93710  20.141  14.719  13.055
21286W        W93711  29.509  40.337   0.889
21287W        W93712   8.327  29.348   1.832
21288W        W93713   6.267  24.620   4.918
21289W        W93714  15.091  22.045   3.679
21290W        W93715  13.224  36.915   3.331
21291W        W93716  29.242  38.719   4.612
21292W        W93717  38.507  11.209  12.506
21293W        W93718   6.823  11.893  14.915
21294W        W93719   2.878  43.358  12.461
21295W        W93720   8.135  21.599   1.809
21296W        W93721  36.608  17.195   1.242
21297W        W93722  36.041  19.204  11.719
21298W        W93723  18.993  31.997   3.037
21299W        W93724  44.977  17.088   3.448
21300W        W93725   4.577   0.361  13.028
21301W        W93726  38.771  38.843  11.091
21302W        W93727   4.453  24.683  13.502
21303W        W93728  12.414   5.307   4.449
21304W        W93729   8.673  16.579  12.553
21305W        W93730  12.581  13.566  10.488
21306W        W93731  17.587  13.698   2.286
21307W        W93732  32.895  23.963   1.783
21308W        W93733   2.775   4.748  14.905
21309W        W93734  23.102  37.963  14.860
21310W        W93735  18.653   2.164  11.508
21311W        W93736   8.224  42.152  11.411
21312W        W93737  43.355  42.951   2.032
21313W        W93738  35.874   7.775   0.721
21314W        W93739  37.035  18.194  14.779
21315W        W93740   9.329  32.214   4.726
21316W        W93741   8.641  37.044  14.791
21317W        W93742  35.659   5.713  14.565
21318W        W93743  44.305  21.589  14.994
21319W        W93744  18.535  38.015  12.443
21320W        W93745  40.888  37.262  11.279
21321W        W93746   5.222  12.372  11.521
21322W        W93747  13.785  28.177  13.788
21323W        W93748   8.453   5.871  13.625
21324W        W93749   6.966  14.551  10.676
21325W        W93750  14.750  44.346   1.901
21326W        W93751   6.034   8.432  13.061
21327W        W93752  44.135  33.915  12.674
21328W        W93753  21.590  18.530  14.239
21329W        W93754  21.103  12.817  12.790
21330W        W93755  22.005  15.752  14.074
21331W        W93756  34.892  29.142  12.666
21332W        W93757   8.989   5.361  12.434
21333W        W93758  41.352   8.126   3.722
21334W        W93759  37.921  34.288   2.260
21335W        W93760  41.574  27.938  14.039
21336W        W93761  17.436  21.213   1.189
21337W        W93762  30.391  43.408   4.202
21338W        W93763  18.948   8.488  10.232
21339W        W93764   3.717  23.022   3.258
21340W        W93765  23.684  42.479  13.442
21341W        W93766   6.199   0.251   4.118
21342W        W93767  41.365   4.434  10.704
21343W        W93768   7.840  20.570  12.607
21344W        W93769  19.635  18.041  11.915
21345W        W93770  19.050  15.212  11.531
21346W        W93771  27.513  12.765   3.596
21347W        W93772  41.793  19.425  12.990
21348W        W93773  39.105  13.575   1.181
21349W        W93774  26.764  20.611  14.596
21350W        W93775  10.330  30.526   1.831
21351W        W93776  14.157   7.569   1.852
21352W        W93777  18.342  34.638   2.768
21353W        W93778   3.287  11.735  12.560
21354W        W93779  22.036  32.170   0.001
21355W        W93780   2.125   2.809   1.339
21356W        W93781  28.626  10.297   4.565
21357W        W93782  36.552  42.429  10.560
21358W        W93783   4.090  37.631   2.211
21359W        W93784  32.294  25.925   4.378
21360W        W93785  35.499  36.183  11.828
21361W        W93786  21.551  31.506   0.427
21362W        W93787  35.638  28.190  14.288
21363W        W93788  31.019  39.969   0.002
21364W        W93789   4.857  36.987  11.712
21365W        W93790   5.455   1.039   4.053
21366W        W93791   1.724  11.242  10.649
21367W        W93792  30.353  12.663   0.904
21368W        W93793  39.939  37.980   1.149
21369W        W93794  27.998  29.917   3.373
21370W        W93795  38.913  30.799  11.284
21371W        W93796   6.688  33.010   1.227
21372W        W93797  44.917   0.555  10.656
21373W        W93798  39.554  19.955   4.094
21374W        W93799   0.409  22.055   1.811
21375W        W93800  21.147  32.077   3.331
21376W        W93801  33.372   0.830   1.974
21377W        W93802  22.903  33.557   5.168
21378W        W93803  36.093   7.786  14.813
21379W        W93804  40.191  38.387  13.241
21380W        W93805  38.866  28.663   4.660
21381W        W93806  34.145  40.015   1.808
21382W        W93807  18.203  11.854  14.606
21383W        W93808  20.130  33.877   1.339
21384W        W93809  27.672   2.321  11.205
21385W        W93810  36.049   5.442  13.871
21386W        W93811  16.961   0.304   3.257
21387W        W93812  44.993  32.537   0.966
21388W        W93813  14.417  40.886  13.847
21389W        W93814  14.352  21.126   0.471
21390W        W93815  32.101   7.925   0.023
21391W        W93816  16.659  23.210  14.048
21392W        W93817  26.959  40.574  11.958
21393W        W93818  34.697  22.790  11.146
21394W        W93819  13.248  33.660  10.646
21395W        W93820  31.322   6.801   0.474
21396W        W93821  35.431   0.989   3.554
21397W        W93822  28.537  17.485  13.856
21398W        W93823  27.750  26.431   3.648
21399W        W93824   9.381  42.880  14.821
21400W        W93825   8.193  11.320  12.883
21401W        W93826  10.284   1.760   1.701
21402W        W93827  13.321  37.340   4.111
21403W        W93828   0.532  43.108   2.896
21404W        W93829  32.009   6.776  10.705
21405W        W93830   0.980  42.834   2.909
21406W        W93831  27.565  36.059  11.196
21407W        W93832  12.070   0.015  12.923
21408W        W93833  44.937  16.998   2.410
21409W        W93834  44.221  13.864   0.842
21410W        W93835  43.062  26.931   3.870
21411W        W93836   7.531  10.872   4.201
21412W        W93837  19.243  17.567   1.742
21413W        W93838  22.757  20.048  11.563
21414W        W93839   0.587  13.746  13.442
21415W        W93840  12.322  27.009  10.593
21416W        W93841  31.148   8.209  11.514
21417W        W93842  22.625  24.236   0.796
21418W        W93843  35.313  14.351  12.705
21419W        W93844   0.741  24.609   2.313
21420W        W93845  22.014  44.646   4.448
21421W        W93846  16.567  32.498  10.592
21422W        W93847  23.576  36.571   4.032
21423W        W93848  40.925   4.268   1.558
21424W        W93849  14.773  40.601   0.776
21425W        W93850  20.271  32.206   4.127
21426W        W93851  36.723  24.479   2.617
21427W        W93852   6.309  33.898   1.426
21428W        W93853  41.489   8.222   2.302
21429W        W93854  33.374   9.862  13.982
21430W        W93855  26.324  29.742   5.127
21431W        W93856   9.415  21.814   3.316
21432W        W93857  35.611  14.561   2.927
21433W        W93858   5.789  30.221   4.925
21434W        W93859   4.811  21.617   4.478
21435W        W93860  41.039  22.069  10.681
21436W        W93861  12.078  28.193   3.630
21437W        W93862  24.149  37.025   3.634
21438W        W93863   7.345  13.173   0.836
21439W        W93864   6.351   6.612   2.452
21440W        W93865  10.783  11.073   0.261
21441W        W93866   4.338  18.610   3.369
21442W        W93867  36.495  16.040  11.421
21443W        W93868  40.758  44.401  11.838
21444W        W93869  18.157  18.065  11.956
21445W        W93870   7.826  30.581   1.808
21446W        W93871  25.916   3.004  11.082
21447W        W93872  23.758  26.993   4.154
21448W        W93873   8.866  25.431  13.989
21449W        W93874  22.918  40.004  11.215
21450W        W93875   4.834  28.127   2.776
21451W        W93876  37.790  10.381   0.970
21452W        W93877  26.216  34.111  13.252
21453W        W93878   1.725  42.048  11.306
21454W        W93879   9.238  40.469   4.705
21455W        W93880  18.904  11.033   1.958
21456W        W93881  38.836  14.833   4.699
21457W        W93882  15.336  39.148   1.333
21458W        W93883   7.287   3.888   3.626
21459W        W93884  34.893   2.288   3.431
21460W        W93885  28.628  36.554   3.591
21461W        W93886  32.964   5.782  11.852
21462W        W93887  12.083  10.275   2.812
21463W        W93888  39.264  15.636   3.613
21464W        W93889  39.793   2.816  12.514
21465W        W93890  42.112  25.119  14.538
21466W        W93891  41.001   6.701  13.074
21467W        W93892  30.532  24.490   0.704
21468W        W93893   2.575   7.863   3.636
21469W        W93894  32.288   0.272  11.374
21470W        W93895  39.483  10.348   2.194
21471W        W93896  32.656   7.746  13.736
21472W        W93897  26.024  27.411   0.471
21473W        W93898   5.131  41.295  10.695
21474W        W93899  18.070  35.182  13.010
21475W        W93900  39.547  27.079  13.914
21476W        W93901  35.905  13.349   2.422
21477W        W93902   3.331   5.234   2.937
21478W        W93903   7.442  16.108  13.542
21479W        W93904  27.959  32.641   2.384
21480W        W93905  37.056  36.823   4.163
21481W        W93906  14.641  41.385  14.374
21482W        W93907  21.280  36.953  13.130
21483W        W93908  37.522  37.313  13.559
21484W        W93909  11.256  13.583  13.176
21485W        W93910  25.435  11.829  13.896
21486W        W93911  35.977   2.360   1.364
21487W        W93912  40.931  32.053  10.939
21488W        W93913   9.608   4.230  14.459
21489W        W93914  41.851  30.712   3.829
21490W        W93915   1.352  24.710  14.562
21491W        W93916  21.812  30.488   1.176
21492W        W93917  14.326  26.422   2.401
21493W        W93918  24.430   5.904  13.340
21494W        W93919  44.231  27.575  12.744
21495W        W93920  22.113  41.364   4.365
21496W        W93921  36.010  22.757  10.816
21497W        W93922  30.898  22.628  10.096
21498W        W93923  17.158  11.690   4.650
21499W        W93924  19.719  15.831  11.691
21500W        W93925  13.667  14.927   1.223
21501W        W93926  23.954   6.659   1.361
21502W        W93927  21.253   2.312   3.209
21503W        W93928   5.834  32.371  12.395
21504W        W93929  35.421  38.353   3.686
21505W        W93930  33.414  36.988   3.932
21506W        W93931  18.276  30.973   0.859
21507W        W93932  25.429   3.724   0.975
21508W        W93933  14.051   9.169  11.558
21509W        W93934   1.728  44.082  12.603
21510W        W93935  42.584   8.760  13.911
21511W        W93936  13.561  28.582  11.156
21512W        W93937  43.963  34.088  14.443
21513W        W93938  35.627  30.565   3.004
21514W        W93939   6.377  44.387  10.966
21515W        W93940   3.283  39.171  14.008
21516W        W93941  36.557  15.022   2.677
21517W        W93942   5.441   8.850   4.227
21518W        W93943  20.578  30.931   4.198
21519W        W93944  23.142  32.151  14.256
21520W        W93945  30.939   0.359  13.481
21521W        W93946  44.513  27.145  13.485
21522W        W93947  44.472  17.013  11.105
21523W        W93948   2.170  14.034   1.781
21524W        W93949  12.713  40.862  13.050
21525W        W93950  10.599   1.014  12.465
21526W        W93951  22.074  14.393   0.351
21527W        W93952   1.038  31.581   3.360
21528W        W93953  26.953  41.083  12.821
21529W        W93954  30.593  22.145   2.355
21530W        W93955   1.264   8.406  14.963
21531W        W93956  20.990   1.844  13.528
21532W        W93957  12.305  10.598   0.752
21533W        W93958  25.944  30.897  12.529
21534W        W93959  18.238  28.184   1.673
21535W        W93960   5.385  19.499  12.992
21536W        W93961  23.224  10.821  13.375
21537W        W93962  34.617  22.352   3.715
21538W        W93963  14.899  39.512  13.566
21539W        W93964  16.193   4.860   1.185
21540W        W93965  33.006  43.051  13.077
21541W        W93966  33.461  25.924  12.547
21542W        W93967  11.722  21.179  11.971
21543W        W93968  40.917  20.194  10.312
21544W        W93969  22.057   1.723  11.723
21545W        W93970  20.994  18.623   0.434
21546W        W93971  35.888  34.524  11.082
21547W        W93972  13.564  12.871   2.760
21548W        W93973  14.001  15.207   3.453
21549W        W93974  11.676   1.311  14.813
21550W        W93975  37.945  20.560   3.309
21551W        W93976  39.367  35.366  11.568
21552W        W93977  10.353  22.130   1.131
21553W        W93978  33.460  24.463   2.405
21554W        W93979  11.261  42.321  11.293
21555W        W93980   3.295   5.419  11.081
21556W        W93981  13.909   8.226  11.512
21557W        W93982   6.936  40.540   0.271
21558W        W93983  22.605   7.676   2.218
21559W        W93984  36.107  40.309  10.927
21560W        W93985  16.402  33.514  13.299
21561W        W93986   5.879  30.879  12.540
21562W        W93987  28.912  18.549   4.164
21563W        W93988  32.134  11.040  13.066
21564W        W93989  15.073  34.567  11.530
21565W        W93990  43.959  43.193  13.458
21566W        W93991  13.812  43.151  12.581
21567W        W93992  35.359  40.488  12.404
21568W        W93993   2.998  42.856   0.419
21569W        W93994  32.161   0.916  14.751
21570W        W93995  11.910  42.541   1.765
21571W        W93996   7.484  25.104  14.890
21572W        W93997   3.760   7.373  14.510
21573W        W93998  20.243  37.090  12.836
21574W        W93999  20.855  39.825  12.029
21575W        W94000   8.843   4.501  12.868
21576W        W94001   0.176  18.017   3.628
21577W        W94002  37.312  28.239  11.400
21578W        W94003  13.756  42.968  14.404
21579W        W94004   0.459  20.501   0.968
21580W        W94005  11.529   5.285   2.353
21581W        W94006   9.752  43.363   4.520
21582W        W94007  42.361  16.421  14.019
21583W        W94008  23.712  40.987   3.794
21584W        W94009   0.322  24.055  11.577
21585W        W94010  16.404  12.878  10.704
21586W        W94011   1.774  26.621   0.783
21587W        W94012  12.789  42.714  14.907
21588W        W94013  44.958  13.009   3.298
21589W        W94014   0.339  29.656  13.027
21590W        W94015  40.899  12.824  13.578
21591W        W94016   4.152   2.762  13.893
21592W        W94017  10.253   7.908   1.478
21593W        W94018  27.955   8.641   3.173
21594W        W94019  28.498  42.464  10.880
21595W        W94020  37.696  14.260   4.204
21596W        W94021   8.180  44.213  13.014
21597W        W94022  19.316  36.958   0.029
21598W        W94023  36.961  16.835  10.698
21599W        W94024  37.905  35.255   3.429
21600W        W94025  40.715  14.197  14.925
21601W        W94026   0.489  41.532   3.293
21602W        W94027  21.954  43.702   1.573
21603W        W94028  17.551  16.637   1.457
21604W        W94029  42.447  24.628   4.670
21605W        W94030  19.995  17.234  13.278
21606W        W94031  29.155  27.212  14.614
21607W        W94032  24.554  38.166  13.974
21608W        W94033  44.823  42.910  14.770
21609W        W94034  40.749  24.164  14.718
21610W        W94035  38.818  40.828  13.949
21611W        W94036  34.691  15.321  12.950
21612W        W94037  39.259  14.619   0.042
21613W        W94038  27.548  10.210   2.009
21614W        W94039  20.631   9.474  11.492
21615W        W94040  42.274  12.863  12.529
21616W        W94041  32.515  27.919   2.640
21617W        W94042  15.801  22.166   3.289
21618W        W94043  28.636  14.373   0.718
21619W        W94044  15.674  29.854  14.779
21620W        W94045  26.465  35.145   1.444
21621W        W94046  13.389   2.360  10.615
21622W        W94047  23.475  31.673   1.801
21623W        W94048  11.624  17.417  12.151
21624W        W94049   8.405  17.768   3.890
21625W        W94050  21.950  22.859   0.434
21626W        W94051   5.170  32.564   0.598
21627W        W94052   3.309  19.277   2.331
21628W        W94053  14.875  22.755   2.272
21629W        W94054  15.292  23.922   0.334
21630W        W94055  37.087  23.117  14.773
21631W        W94056  23.093  28.947  10.759
21632W        W94057  20.331  25.081  13.337
21633W        W94058   1.901  40.059  13.131
21634W        W94059  43.411  10.693   1.838
21635W        W94060  32.077  29.286  10.377
21636W        W94061   9.446  29.036  13.921
21637W        W94062  25.158  25.065  14.465
21638W        W94063  29.480   6.919  14.373
21639W        W94064  18.139   3.647   2.829
21640W        W94065  27.669  23.334  12.933
21641W        W94066  44.201  43.375  11.238
21642W        W94067  37.247   2.760   1.155
21643W        W94068   2.440  34.775   1.197
21644W        W94069  20.198  13.198  14.938
21645W        W94070  41.068  14.570   3.135
21646W        W94071  12.199  35.678  14.449
21647W        W94072   9.606  40.348  12.769
21648W        W94073  37.037  39.468  14.500
21649W        W94074  36.942  19.255   4.396
21650W        W94075   6.391  38.031  11.949
21651W        W94076  27.159   4.364   3.822
21652W        W94077  30.064  40.415  13.748
21653W        W94078  20.965  21.241   3.524
21654W        W94079   5.515  35.870   4.555
21655W        W94080  37.384  13.284  14.989
21656W        W94081   6.839  15.099   2.419
21657W        W94082  36.838  15.229  12.308
21658W        W94083  20.114  31.073   2.333
21659W        W94084  12.075  28.540  14.091
21660W        W94085  27.028   1.378   3.851
21661W        W94086  12.867  23.705   3.854
21662W        W94087  19.989   7.455  12.447
21663W        W94088  42.450  34.458   3.573
21664W        W94089  34.035  29.012  12.047
21665W        W94090  22.222   9.802  12.482
21666W        W94091  30.678   4.708   3.066
21667W        W94092  14.604  25.627   4.708
21668W        W94093  19.539  11.225  12.476
21669W        W94094  22.567  44.891  14.476
21670W        W94095  16.646  20.807  12.057
21671W        W94096   7.322  11.209  11.194
21672W        W94097  13.868  29.713  12.494
21673W        W94098  36.898  13.756  13.302
21674W        W94099  18.249   5.210   1.427
21675W        W94100  44.380  10.944  11.027
21676W        W94101  12.246   6.115  14.830
21677W        W94102  40.372   2.892  11.511
21678W        W94103  43.859  15.425   3.925
21679W        W94104   2.823  34.076  12.805
21680W        W94105  31.179   7.465  13.985
21681W        W94106  22.244  27.261  14.325
21682W        W94107  10.706   2.428  14.602
21683W        W94108  33.116  23.278   0.233
21684W        W94109   5.194  25.223  12.087
21685W        W94110  33.844  16.833  13.657
21686W        W94111  26.761  34.883   3.792
21687W        W94112  36.580  22.488   0.335
21688W        W94113   8.877   0.862  13.470
21689W        W94114  31.739  22.818  13.859
21690W        W94115  17.101  19.940  10.408
21691W        W94116  30.713  19.544  14.601
21692W        W94117   3.928   3.969  12.821
21693W        W94118   3.935  10.169  12.382
21694W        W94119  29.288  16.094   1.406
21695W        W94120  42.347  14.448   1.763
21696W        W94121  29.122  41.266   3.254
21697W        W94122  34.295  23.951  12.095
21698W        W94123  30.131  23.294  11.545
21699W        W94124  37.359  10.307   3.693
21700W        W94125  33.485   0.327   1.779
21701W        W94126  27.704   5.188   3.727
21702W        W94127  39.019   3.015   0.212
21703W        W94128  18.621  29.724   1.706
21704W        W94129  29.963  18.573  10.775
21705W        W94130  26.046  11.743   1.376
21706W        W94131   4.231  44.455  10.486
21707W        W94132  40.523  21.218  11.162
21708W        W94133   8.484   2.366   1.748
21709W        W94134  14.594  11.202   0.808
21710W        W94135   1.792  42.428   1.861
21711W        W94136  29.905  19.177   1.818
21712W        W94137   1.775  26.319  11.046
21713W        W94138  35.476  43.776   4.291
21714W        W94139   1.594  24.056   3.145
21715W        W94140   0.535  17.987  11.976
21716W        W94141  35.698  21.050  10.622
21717W        W94142   4.912  31.688  10.643
21718W        W94143  25.132  35.044   1.958
21719W        W94144   8.777  14.024   4.692
21720W        W94145  17.206  14.317  12.081
21721W        W94146  29.126  41.035   2.210
21722W        W94147   4.276  15.138  12.591
21723W        W94148  35.094  16.600  12.535
21724W        W94149  36.284  41.489   0.410
21725W        W94150  40.935  18.189   4.046
21726W        W94151  38.565   6.884   4.726
21727W        W94152  10.243  31.622  13.915
21728W        W94153   9.924  23.725   1.822
21729W        W94154  43.781  44.422  13.024
21730W        W94155  14.053  42.874  11.891
21731W        W94156   3.172  23.646  13.060
21732W        W94157  22.536   2.783  10.633
21733W        W94158   4.522  19.618   1.968
21734W        W94159  37.441  20.699   3.369
21735W        W94160  41.488  28.096   4.380
21736W        W94161  34.850  15.284   2.595
21737W        W94162  10.142  27.405   4.142
21738W        W94163  34.901  34.074   4.116
21739W        W94164  35.578  13.797   1.830
21740W        W94165  32.463   6.594   2.879
21741W        W94166   4.655  38.577   0.037
21742W        W94167   6.430  28.954  11.143
21743W        W94168  21.099   8.651   2.428
21744W        W94169  18.013  33.466   2.759
21745W        W94170   9.515  25.113   5.232
21746W        W94171   4.319  14.692  10.767
21747W        W94172  27.694  11.841   2.689
21748W        W94173  23.880  31.195  13.988
21749W        W94174   8.309  11.804  14.564
21750W        W94175   6.697  11.306  12.626
21751W        W94176   6.952  34.104   4.968
21752W        W94177  25.728  27.507  11.990
21753W        W94178  19.950   3.406   5.092
21754W        W94179  18.401  29.794   0.041
21755W        W94180  39.943  18.185  11.522
21756W        W94181  33.770  26.121   3.108
21757W        W94182   0.971  35.260  11.266
21758W        W94183  29.026  44.643   1.940
21759W        W94184  33.529  31.895  12.015
21760W        W94185  16.083   4.480  13.548
21761W        W94186   4.428  33.064   0.832
21762W        W94187  21.252  27.346  13.464
21763W        W94188   8.881   5.121  14.069
21764W        W94189  35.460   4.691   2.426
21765W        W94190   4.358  12.386   1.452
21766W        W94191  14.665  29.054   2.331
21767W        W94192  15.740  12.112  13.574
21768W        W94193  12.565  39.939   4.762
21769W        W94194  12.689  14.869   2.648
21770W        W94195  33.103  20.544  13.004
21771W        W94196  33.354  28.108  10.540
21772W        W94197  10.241   6.721  13.390
21773W        W94198  30.851   5.196   3.132
21774W        W94199  24.119  43.331  11.813
21775W        W94200  37.876  29.946   1.288
21776W        W94201  34.286  17.839  12.031
21777W        W94202  17.168  26.802   1.227
21778W        W94203  24.513  33.105  13.857
21779W        W94204  25.356  18.000  13.830
21780W        W94205  29.401  41.233  13.448
21781W        W94206  39.161  23.650   0.917
21782W        W94207  21.826  25.701  14.513
21783W        W94208  41.620  19.098  14.462
21784W        W94209  24.205  39.808   1.890
21785W        W94210  29.921   4.671  14.818
21786W        W94211  34.929   2.260   2.910
21787W        W94212  43.952  44.077  12.692
21788W        W94213  12.234  21.086   0.785
21789W        W94214   4.406  21.743   0.857
21790W        W94215   2.985  29.399  11.163
21791W        W94216  17.512  42.330   0.857
21792W        W94217  10.826   3.151   0.718
21793W        W94218   6.959   2.302   2.280
21794W        W94219  39.454  40.789   3.102
21795W        W94220  25.191  42.494  11.319
21796W        W94221  17.165   7.412   1.781
21797W        W94222  32.619   6.293  13.834
21798W        W94223   1.276  25.508   2.257
21799W        W94224   7.648  17.713  12.854
21800W        W94225  42.286   0.301  12.048
21801W        W94226   6.991   3.485   4.331
21802W        W94227  36.929  10.112   4.095
21803W        W94228  27.914  24.953   4.273
21804W        W94229  40.302  29.199   1.378
21805W        W94230  44.113  36.743   0.349
21806W        W94231  32.884  35.901  10.592
21807W        W94232  28.532  32.922   3.870
21808W        W94233  20.174  40.863   4.398
21809W        W94234   3.473  39.251  14.844
21810W        W94235  14.721  12.028   4.314
21811W        W94236  39.420  10.735   4.104
21812W        W94237  36.563  10.735  13.539
21813W        W94238   8.429   3.769  11.154
21814W        W94239  22.257  34.481  12.421
21815W        W94240  32.611   0.276  12.529
21816W        W94241   2.608   9.776  11.677
21817W        W94242  10.283  21.495   3.829
21818W        W94243  24.147  27.532   1.299
21819W        W94244  22.493  41.576  14.382
21820W        W94245  23.218  30.839   3.298
21821W        W94246  10.231  11.280  11.858
21822W        W94247   2.315  17.319   1.209
21823W        W94248   2.475  12.355   0.804
21824W        W94249  25.773  36.079  13.451
21825W        W94250   9.909  38.284   2.736
21826W        W94251  30.170  37.414   2.738
21827W        W94252  22.286  22.668  14.566
21828W        W94253  30.581  16.745  12.163
21829W        W94254   4.396  36.526  13.327
21830W        W94255  31.493  23.746   1.824
21831W        W94256  35.695  29.070   4.502
21832W        W94257   1.399   9.288  12.530
21833W        W94258  17.582  40.909  14.420
21834W        W94259  22.123  10.801   0.942
21835W        W94260  34.423  12.850  14.391
21836W        W94261  22.135  42.698  11.092
21837W        W94262  41.445   6.352   3.699
21838W        W94263  13.262  41.547   3.047
21839W        W94264  23.484   1.801  12.999
21840W        W94265  34.565  37.832  14.284
21841W        W94266   4.691   3.486   2.017
21842W        W94267  15.620   3.966   2.300
21843W        W94268  23.627  11.854   2.878
21844W        W94269  22.687   6.778   3.847
21845W        W94270  22.728  14.636   1.442
21846W        W94271   8.890  33.118   0.289
21847W        W94272  32.375  32.949  10.746
21848W        W94273  35.899  11.741  13.587
21849W        W94274  14.674  12.792   3.703
21850W        W94275   6.913  11.900   2.797
21851W        W94276  28.466   8.301  11.209
21852W        W94277  36.915   5.592   5.547
21853W        W94278  41.426  26.654  13.721
21854W        W94279  39.802  21.006   2.927
21855W        W94280  21.349  18.109   1.250
21856W        W94281  12.777   2.019  11.056
21857W        W94282  14.369  22.011  13.091
21858W        W94283  26.788  43.024  13.084
21859W        W94284  11.604   2.831   4.915
21860W        W94285  43.153  15.582   3.333
21861W        W94286  12.930   7.888   0.235
21862W        W94287   8.092  38.001   2.636
21863W        W94288  44.238  34.657   4.164
21864W        W94289  21.549  18.044  12.994
21865W        W94290   9.748  16.115  11.199
21866W        W94291  31.648  43.095  10.712
21867W        W94292  25.467  29.560  10.639
21868W        W94293   9.851  40.453   3.374
21869W        W94294  42.080   6.490  13.923
21870W        W94295  38.457  36.630   3.124
21871W        W94296  31.832   8.950   1.298
21872W        W94297  42.176  16.489   3.084
21873W        W94298   9.539  35.539   4.148
21874W        W94299  21.671  38.995  14.080
21875W        W94300  34.895  40.981   4.837
21876W        W94301  10.771   5.444   0.783
21877W        W94302  36.098  27.210   3.790
21878W        W94303  18.600  19.387  12.932
21879W        W94304  15.339   6.664   3.629
21880W        W94305   9.113   3.946  10.624
21881W        W94306  30.495  41.498   2.692
21882W        W94307  13.669  44.506   0.495
21883W        W94308  35.606  43.280   1.263
21884W        W94309  40.076  17.086  13.116
21885W        W94310  27.484  36.594  13.362
21886W        W94311  37.880  43.299  14.869
21887W        W94312   8.839  15.031  14.006
21888W        W94313  24.438  27.426   4.166
21889W        W94314  37.836  10.654   1.412
21890W        W94315   6.804  35.501   1.805
21891W        W94316  34.704  21.314   5.015
21892W        W94317   2.817  41.620  10.762
21893W        W94318  39.239  15.283  11.171
21894W        W94319   2.202  11.285  13.121
21895W        W94320  29.439  33.600  10.769
21896W        W94321   1.771  28.611  12.623
21897W        W94322   1.467  23.116  14.935
21898W        W94323  26.893   3.113  14.343
21899W        W94324  31.315  41.946   5.047
21900W        W94325   8.413  19.790   4.199
21901W        W94326   6.849  29.104   2.010
21902W        W94327  26.441   9.856  12.508
21903W        W94328  24.611  23.836   0.079
21904W        W94329  18.047  15.071  14.584
21905W        W94330  43.823  34.833  13.971
21906W        W94331  34.357  10.643   3.292
21907W        W94332  18.441  13.639   4.097
21908W        W94333  17.303  39.321   1.334
21909W        W94334  39.413  30.876   1.008
21910W        W94335  29.543  28.402  14.997
21911W        W94336  10.484  23.280  13.612
21912W        W94337  40.932  32.981   4.713
21913W        W94338  44.627  33.580  13.012
21914W        W94339  26.711  34.498  10.605
21915W        W94340   9.857  17.269   2.225
21916W        W94341  26.969   5.672  12.139
21917W        W94342  16.622   8.385  12.299
21918W        W94343   9.079   4.930   1.244
21919W        W94344  37.080  19.713  13.950
21920W        W94345  32.992  32.428  14.453
21921W        W94346  32.721  30.537  11.489
21922W        W94347   8.014  31.977   2.865
21923W        W94348  33.292  17.235   1.229
21924W        W94349  19.255  20.289   2.188
21925W        W94350   8.235   8.689   2.367
21926W        W94351  35.861  19.517  14.358
21927W        W94352  15.544   4.985   2.954
21928W        W94353   6.803  43.485  12.488
21929W        W94354  18.724  13.737  12.983
21930W        W94355  43.991   8.077  11.199
21931W        W94356  28.032   7.129   4.775
21932W        W94357   8.959  21.460   0.990
21933W        W94358  18.126  39.306   4.336
21934W        W94359  44.017  31.195   9.748
21935W        W94360  16.849  42.438   0.001
21936W        W94361   5.978  21.122  11.585
21937W        W94362  26.990   5.768   0.769
21938W        W94363  29.748  41.009  13.082
21939W        W94364   3.414  34.492   0.883
21940W        W94365  13.593   3.522   2.704
21941W        W94366  25.138  38.507  10.825
21942W        W94367  14.640   0.882  10.671
21943W        W94368  13.431  35.113   3.657
21944W        W94369  43.853  27.131  12.129
21945W        W94370   9.326  29.762  12.575
21946W        W94371   7.155  23.165   2.685
21947W        W94372   6.330  10.700  14.118
21948W        W94373  38.485   3.179  11.543
21949W        W94374  43.929  41.454   3.939
21950W        W94375  19.300  38.802   4.411
21951W        W94376  25.547   2.243  12.009
21952W        W94377  26.779  33.962   3.402
21953W        W94378  33.129  37.018  11.833
21954W        W94379  27.727  16.619  13.353
21955W        W94380  19.180  13.173  11.189
21956W        W94381  10.298  20.065  11.670
21957W        W94382  42.151   0.456  14.833
21958W        W94383  14.730  31.378  13.521
21959W        W94384  32.493  26.109  13.107
21960W        W94385  40.605  44.441  10.428
21961W        W94386   2.810   7.626  14.838
21962W        W94387  44.312   8.037  13.731
21963W        W94388  28.245  29.615   1.714
21964W        W94389  39.580  43.337  13.484
21965W        W94390  16.237  14.763   4.448
21966W        W94391  36.706  29.294  13.815
21967W        W94392  44.695  15.129  12.041
21968W        W94393  19.134  41.095   3.697
21969W        W94394   2.366  29.651   0.373
21970W        W94395   9.717  22.316   0.434
21971W        W94396  41.241  41.714  12.229
21972W        W94397  21.759  37.688  14.755
21973W        W94398   8.085  26.257   0.947
21974W        W94399   1.263  24.622   4.211
21975W        W94400  34.418  25.043  14.788
21976W        W94401  20.816   2.478   4.107
21977W        W94402   0.214  41.101  11.000
21978W        W94403   1.430   3.801  14.356
21979W        W94404  39.530  42.493   1.904
21980W        W94405  39.519  10.553  12.272
21981W        W94406  33.414  15.341   1.267
21982W        W94407  27.291  16.117   1.517
21983W        W94408  31.991  34.162   3.851
21984W        W94409  38.829  34.828  11.840
21985W        W94410  28.728  24.205   5.651
21986W        W94411  14.011  32.477  13.762
21987W        W94412  39.086  20.248  11.491
21988W        W94413   9.033  22.779  10.954
21989W        W94414   1.728  18.575  11.588
21990W        W94415  24.077  21.338   3.660
21991W        W94416  20.379  14.668  12.587
21992W        W94417  13.331  32.926  11.685
21993W        W94418  41.961  42.540   3.580
21994W        W94419   7.319  29.132   2.230
21995W        W94420  33.843  42.399   1.083
21996W        W94421  43.099   4.874   3.120
21997W        W94422  31.939  10.881  14.084
21998W        W94423  21.040  10.195   0.438
21999W        W94424   6.000  22.209  14.816
22000W        W94425  35.791   2.383   4.228
22001W        W94426  24.142  36.824  14.787
22002W        W94427  27.527   9.509   4.037
22003W        W94428  37.478   8.947  14.577
22004W        W94429  36.131  30.544  12.020
22005W        W94430  30.520  15.653  12.915
22006W        W94431  11.746   5.087   3.679
22007W        W94432   7.465  32.906  10.485
22008W        W94433   2.398  44.763  14.754
22009W        W94434   5.498  33.354  12.070
22010W        W94435   8.139  41.307  12.503
22011W        W94436  36.686   2.306   2.632
22012W        W94437  39.828  39.326   3.227
22013W        W94438   2.362   2.345   1.426
22014W        W94439   3.728  30.549  11.595
22015W        W94440  38.460  39.010   1.299
22016W        W94441  32.923  30.652   1.121
22017W        W94442  24.552  43.519   2.277
22018W        W94443  11.214  15.593   2.254
22019W        W94444  27.757  37.036  13.391
22020W        W94445  44.036  19.488  11.506
22021W        W94446  28.094  25.962  13.885
22022W        W94447  15.140  17.993   1.213
22023W        W94448  26.434   9.006  11.470
22024W        W94449   0.573   3.404  11.662
22025W        W94450   0.047  29.126  14.272
22026W        W94451   0.159   2.531   3.600
22027W        W94452  13.203  29.529  11.573
22028W        W94453  24.530  31.236   0.746
22029W        W94454  35.050  12.939   2.164
22030W        W94455  13.851  34.335  13.873
22031W        W94456  29.000   8.721  13.503
22032W        W94457  14.741  14.353   3.701
22033W        W94458  16.311  43.357   0.999
22034W        W94459  25.795  38.703  12.776
22035W        W94460  44.545  24.725   0.460
22036W        W94461  39.786  10.127  11.564
22037W        W94462  44.801  38.749  14.381
22038W        W94463  31.946  15.509  12.904
22039W        W94464  24.446  40.235   1.756
22040W        W94465  39.811  30.516  14.351
22041W        W94466  30.676  12.796   1.875
22042W        W94467  10.811   4.911   0.779
22043W        W94468  43.036  13.367   3.195
22044W        W94469  21.583  22.900  13.987
22045W        W94470  29.494  19.345  13.189
22046W        W94471  15.915  43.393   3.822
22047W        W94472   6.642  22.275   3.248
22048W        W94473  43.373  19.568   1.420
22049W        W94474  43.025  21.117  14.832
22050W        W94475   4.962  41.843  13.989
22051W        W94476  41.751  32.589   1.807
22052W        W94477   2.929  23.197  12.902
22053W        W94478  11.347  12.749   4.328
22054W        W94479  18.732   6.724   2.776
22055W        W94480   3.184  10.368  14.430
22056W        W94481  23.248  35.995   0.381
22057W        W94482  13.674  25.725   3.114
22058W        W94483  13.984  30.706  14.882
22059W        W94484  11.367   4.282   1.203
22060W        W94485  44.952   4.936  12.894
22061W        W94486  19.907   1.029  14.906
22062W        W94487  17.811   4.478  10.959
22063W        W94488   0.972  21.507  11.004
22064W        W94489  31.534  38.503  13.110
22065W        W94490   1.260  13.879   2.625
22066W        W94491  30.169  24.399  13.030
22067W        W94492  33.592   5.344  14.384
22068W        W94493  38.138  14.352  13.329
22069W        W94494  32.161  15.151  12.600
22070W        W94495  25.747  29.425   0.403
22071W        W94496  39.506  18.533   0.106
22072W        W94497  39.211   8.417   4.822
22073W        W94498   0.305  14.205  13.372
22074W        W94499  31.870  43.217  13.466
22075W        W94500  22.969   7.006  14.302
22076W        W94501  16.328   5.392  11.057
22077W        W94502  12.899  27.041  11.425
22078W        W94503  31.911  41.589  11.966
22079W        W94504  20.127  42.248   1.742
22080W        W94505  22.450   8.985   5.077
22081W        W94506   0.375  37.469  12.744
22082W        W94507  40.392  36.015   3.148
22083W        W94508   5.120  32.096   5.049
22084W        W94509   1.275  43.846  12.612
22085W        W94510  33.963  29.384  13.015
22086W        W94511  43.083  44.927  13.110
22087W        W94512  34.884  24.566   0.979
22088W        W94513  33.107  40.057   2.166
22089W        W94514  29.661  25.401   3.226
22090W        W94515  39.535  11.587   3.676
22091W        W94516  15.145  19.779  10.776
22092W        W94517  13.771  10.920   1.874
22093W        W94518  23.535  38.601  11.785
22094W        W94519   1.303  13.705   3.128
22095W        W94520  41.117  24.981   2.667
22096W        W94521  22.049  37.929   0.875
22097W        W94522  40.826  25.228   1.477
22098W        W94523  26.528  34.670   4.232
22099W        W94524  18.297  27.050   4.194
22100W        W94525  13.562  43.038  13.359
22101W        W94526  17.321  18.228  11.544
22102W        W94527  22.767  16.707  11.030
22103W        W94528  19.632  34.415  14.961
22104W        W94529  19.180  18.659  10.680
22105W        W94530  20.769  33.952   0.342
22106W        W94531  43.724   0.332   3.671
22107W        W94532  15.059  43.729   0.810
22108W        W94533  27.464  19.212   1.884
22109W        W94534  32.516  41.486   3.714
22110W        W94535   9.440  44.303  14.968
22111W        W94536  33.580  39.455   4.028
22112W        W94537  40.979  10.962   3.648
22113W        W94538  40.339  32.055   3.123
22114W        W94539  37.526   0.267   2.812
22115W        W94540  25.539  22.586  10.711
22116W        W94541   0.983  16.622   4.695
22117W        W94542  31.389  19.166  12.804
22118W        W94543  25.679  43.680   4.111
22119W        W94544  23.310  36.411  11.106
22120W        W94545  23.567  42.246   3.834
22121W        W94546  20.009  19.798  13.918
22122W        W94547  13.685   9.217  13.010
22123W        W94548  27.768  38.696  11.620
22124W        W94549  24.281   5.410  13.449
22125W        W94550  35.298  27.217  12.543
22126W        W94551  44.848  19.612   4.282
22127W        W94552  37.290  27.556  13.066
22128W        W94553   9.770   8.418  10.431
22129W        W94554   8.299  32.093   0.497
22130W        W94555  38.968  12.241  14.917
22131W        W94556   8.427   5.793  14.668
22132W        W94557  15.536  13.559   4.740
22133W        W94558  10.040  29.779   2.826
22134W        W94559  38.213  25.146   1.823
22135W        W94560  14.369  14.537   1.809
22136W        W94561  42.319  39.961  10.858
22137W        W94562  35.908  17.225   3.600
22138W        W94563   7.340  44.776  12.613
22139W        W94564   6.861   6.598   2.270
22140W        W94565  36.853  34.640   4.086
22141W        W94566  33.637  12.466  12.086
22142W        W94567  10.833  18.991   3.337
22143W        W94568  30.657  19.193  12.527
22144W        W94569  21.257   2.134  12.989
22145W        W94570  23.022  35.415   2.905
22146W        W94571   2.294  27.880  14.401
22147W        W94572  15.030   0.739  14.888
22148W        W94573  25.094  32.299  10.726
22149W        W94574  39.062   7.924   2.819
22150W        W94575   4.898  21.998  11.198
22151W        W94576  42.524  32.673  12.640
22152W        W94577  27.402  34.755   0.415
22153W        W94578  17.178   6.952   0.013
22154W        W94579  24.317  31.207  11.980
22155W        W94580  31.565   1.909   2.733
22156W        W94581  12.678  22.603  10.831
22157W        W94582  10.172  29.555   1.395
22158W        W94583  40.378   2.994  14.327
22159W        W94584   0.958  34.059   0.420
22160W        W94585  23.122  39.751  11.609
22161W        W94586   8.691  40.161   2.773
22162W        W94587  22.936  39.500  12.045
22163W        W94588  14.652   3.944  12.640
22164W        W94589   7.950  33.105  12.258
22165W        W94590  21.213  32.005  13.034
22166W        W94591  21.413  10.469  11.187
22167W        W94592  19.578  36.837   3.723
22168W        W94593   9.895  21.456  14.466
22169W        W94594  41.149  27.955  12.915
22170W        W94595  12.229  28.877  12.907
22171W        W94596  24.291   0.812  10.725
22172W        W94597  25.375   8.109   1.216
22173W        W94598  44.478  30.817   3.307
22174W        W94599  32.662  36.054   5.032
22175W        W94600  24.591  14.793   4.557
22176W        W94601  38.865  43.924   1.194
22177W        W94602  39.315  39.537  12.560
22178W        W94603   5.068  34.926   4.470
22179W        W94604  43.904  43.485  14.959
22180W        W94605  40.147  22.368  12.736
22181W        W94606   6.762  33.474  10.738
22182W        W94607   6.930   7.342   2.893
22183W        W94608  13.359  12.802   3.237
22184W        W94609  14.258  26.355  11.563
22185W        W94610   0.930  14.528   3.775
22186W        W94611  34.893  25.365  11.617
22187W        W94612  32.430   7.755  11.228
22188W        W94613   3.815  11.671  12.448
22189W        W94614  16.062  39.862   2.514
22190W        W94615  16.934  40.791   1.454
22191W        W94616  17.275  22.349   4.124
22192W        W94617  22.709   5.384  11.969
22193W        W94618   7.413  22.071  12.025
22194W        W94619  14.574  41.435   2.547
22195W        W94620  30.580  28.744   2.787
22196W        W94621   2.026  17.024   0.897
22197W        W94622   3.157  16.095  13.752
22198W        W94623   2.260  29.576   4.889
22199W        W94624  14.058  22.380   4.516
22200W        W94625  17.543  36.494   3.086
22201W        W94626  40.559  23.234   4.584
22202W        W94627   8.641  11.257   4.844
22203W        W94628  21.909  41.257   0.254
22204W        W94629  34.759  38.000   4.482
22205W        W94630  23.229  21.295   0.309
22206W        W94631  12.907  18.577   1.954
22207W        W94632  27.503  18.127  11.011
22208W        W94633  24.024   1.688   4.472
22209W        W94634  12.326  30.650   3.728
22210W        W94635   1.697  33.697   3.830
22211W        W94636  31.556  43.487   2.665
22212W        W94637  44.651  26.068   0.360
22213W        W94638  20.414   8.168  12.075
22214W        W94639  17.534   9.175  12.317
22215W        W94640  10.115  28.083  12.846
22216W        W94641  33.020  43.372   3.676
22217W        W94642  13.127  16.810  12.031
22218W        W94643  38.753  34.982   3.736
22219W        W94644   8.619   4.417   0.361
22220W        W94645  40.391   4.335   0.874
22221W        W94646  20.733  34.008   4.376
22222W        W94647  41.937  33.934  12.903
22223W        W94648   1.907  29.902   4.517
22224W        W94649  41.027  16.602   2.353
22225W        W94650  16.814  24.527   4.819
22226W        W94651  19.074  23.647   1.837
22227W        W94652  28.031  17.482   3.738
22228W        W94653  13.020  11.315   2.756
22229W        W94654  35.093   2.574  11.835
22230W        W94655  41.555  29.387  13.770
22231W        W94656   1.378   5.459  13.616
22232W        W94657   7.374   2.923  13.091
22233W        W94658  36.293   9.284  10.443
22234W        W94659  32.417  14.974  13.964
22235W        W94660  22.684  38.886  13.940
22236W        W94661  11.326  28.307  12.178
22237W        W94662   1.906  41.600   3.194
22238W        W94663  40.803   4.318   0.092
22239W        W94664  27.214   4.717  10.388
22240W        W94665  25.283  41.987  10.751
22241W        W94666  34.356   1.794  14.871
22242W        W94667  38.007   0.904  12.857
22243W        W94668  37.491  21.741  14.876
22244W        W94669  42.088  30.520   4.282
22245W        W94670  38.929  22.931  11.410
22246W        W94671  42.700   1.033  14.257
22247W        W94672  33.583  25.164  11.992
22248W        W94673  31.925  40.251   1.781
22249W        W94674  31.966  33.781   3.397
22250W        W94675  37.409   8.652   0.563
22251W        W94676  12.576  34.043   1.443
22252W        W94677  18.205  31.845   2.823
22253W        W94678  11.856  17.167   0.176
22254W        W94679  36.803  15.663   1.056
22255W        W94680  34.742  41.043   3.148
22256W        W94681  37.964  13.649  14.504
22257W        W94682  23.026  32.046  11.980
22258W        W94683  16.761  11.921   3.203
22259W        W94684  38.902   0.872   2.200
22260W        W94685  18.684  10.094   2.321
22261W        W94686  36.535  38.826   4.283
22262W        W94687  43.930  29.062  12.186
22263W        W94688  24.037  32.914   0.655
22264W        W94689  30.943  13.813  10.552
22265W        W94690  29.652  18.178  12.158
22266W        W94691  28.306  39.038  13.469
22267W        W94692  15.589  20.732  11.053
22268W        W94693  19.539  40.016   4.626
22269W        W94694  36.937  20.427  13.479
22270W        W94695  21.777  42.280  12.793
22271W        W94696  42.223  22.234  13.081
22272W        W94697  38.374  42.004  12.150
22273W        W94698   3.785  20.949   4.554
22274W        W94699  23.971  28.210   4.580
22275W        W94700  15.039  36.673   0.538
22276W        W94701  44.060  17.208  10.807
22277W        W94702  33.646  40.737  12.122
22278W        W94703  21.341  25.643  13.262
22279W        W94704  13.336  43.612   0.849
22280W        W94705  17.148  33.033   0.844
22281W        W94706  39.250   3.871  12.503
22282W        W94707   8.254  16.709   2.672
22283W        W94708  36.257  44.538  10.205
22284W        W94709   3.862  18.837  11.977
22285W        W94710   9.468  32.020  12.527
22286W        W94711  37.096  35.894   4.008
22287W        W94712  24.211  30.577   0.835
22288W        W94713  30.271  10.983  11.043
22289W        W94714  42.309  13.982   4.107
22290W        W94715   1.541  12.638  14.519
22291W        W94716  10.473  14.044   0.030
22292W        W94717  23.642   0.615  10.996
22293W        W94718  27.560   5.595   4.846
22294W        W94719  19.898  40.018   3.208
22295W        W94720  36.766  18.260  12.821
22296W        W94721  35.923  12.814   0.539
22297W        W94722  21.690  39.942   0.436
22298W        W94723  25.674   6.241  14.512
22299W        W94724  42.904   1.938  14.491
22300W        W94725  41.029  29.249  12.612
22301W        W94726  27.602  26.785  12.979
22302W        W94727  40.800  31.293  11.998
22303W        W94728  12.192   4.482   5.375
22304W        W94729  17.105  41.446   2.220
22305W        W94730  32.135  29.774  11.132
22306W        W94731  20.064  26.017  11.442
22307W        W94732   8.275  12.782   2.971
22308W        W94733  10.071  30.651   1.380
22309W        W94734  28.593  13.598  11.018
22310W        W94735   7.172  41.782  11.172
22311W        W94736   4.875  28.068   0.066
22312W        W94737  13.814   4.299  14.079
22313W        W94738  37.205  21.702  12.964
22314W        W94739  32.636  32.188   2.532
22315W        W94740  35.831   1.270  11.440
22316W        W94741  13.079  22.183   9.726
22317W        W94742  30.453   4.567   2.621
22318W        W94743   9.843  27.576  11.241
22319W        W94744   7.832  11.787  11.683
22320W        W94745   2.864  43.759   3.889
22321W        W94746  13.470  27.602   4.914
22322W        W94747  41.520  17.338   4.805
22323W        W94748  11.975  25.080  14.844
22324W        W94749  34.457   4.156   2.025
22325W        W94750  24.823  21.112  11.465
22326W        W94751  22.529   5.822  12.143
22327W        W94752  27.158  40.364  10.611
22328W        W94753  14.699  34.234  12.868
22329W        W94754  11.341  27.640   3.402
22330W        W94755   8.061   5.645  13.362
22331W        W94756  26.586  31.115  10.676
22332W        W94757   4.165  38.626   2.729
22333W        W94758   3.102  44.799  12.085
22334W        W94759  13.711   6.332  12.867
22335W        W94760   8.237   0.672  13.064
22336W        W94761  38.442  42.483  14.020
22337W        W94762   0.385  43.203  12.944
22338W        W94763  44.040  10.684  14.305
22339W        W94764  44.838  15.192   2.994
22340W        W94765  10.713  12.771   5.146
22341W        W94766   7.108   7.746  10.650
22342W        W94767  23.871  39.326  12.242
22343W        W94768  13.701  39.405  13.059
22344W        W94769  42.326   3.264  14.437
22345W        W94770  33.368  14.491   0.504
22346W        W94771  39.877  40.371  12.341
22347W        W94772  18.795  12.855   2.692
22348W        W94773  24.925   9.350   2.111
22349W        W94774   6.696  25.049   2.739
22350W        W94775   2.490  13.298   0.544
22351W        W94776  18.485  35.495  12.963
22352W        W94777  36.998  18.379  10.642
22353W        W94778  44.006  10.287   1.358
22354W        W94779  28.430  12.599   2.178
22355W        W94780   5.446  33.488   1.670
22356W        W94781  33.987  27.117  12.338
22357W        W94782  29.491  15.718  11.667
22358W        W94783  27.892  19.275   0.547
22359W        W94784  24.563  20.335  11.092
22360W        W94785  10.419   4.374  10.587
22361W        W94786  25.604  13.691  11.516
22362W        W94787   2.132   8.311  13.953
22363W        W94788  32.435   9.273  13.583
22364W        W94789   4.882  39.329   3.427
22365W        W94790  37.108  31.935  14.041
22366W        W94791  20.091  17.390  14.297
22367W        W94792  28.487   3.834  13.254
22368W        W94793  25.944  21.061   0.411
22369W        W94794  34.130  11.800   4.780
22370W        W94795  32.398  15.656  11.029
22371W        W94796  44.784   7.744  11.561
22372W        W94797  26.630   7.308  10.571
22373W        W94798  18.584   0.945  12.820
22374W        W94799  41.091  17.924  12.490
22375W        W94800  12.856  16.602   3.403
22376W        W94801  23.919   0.856  12.603
22377W        W94802  31.668  19.385  12.414
22378W        W94803  44.467  26.842   3.440
22379W        W94804  27.998   8.657  13.574
22380W        W94805  43.331  38.958  11.721
22381W        W94806   4.222  21.623   1.834
22382W        W94807  32.151  25.627  14.879
22383W        W94808  27.186  32.078  14.404
22384W        W94809  24.453   3.296   0.229
22385W        W94810  38.980  39.401  10.370
22386W        W94811  23.623  12.782   0.001
22387W        W94812   6.727  18.523  10.777
22388W        W94813  29.386  25.602   2.810
22389W        W94814  24.620   6.646   2.165
22390W        W94815  29.912  15.258   2.154
22391W        W94816   0.230  43.542   4.953
22392W        W94817  23.497  18.743  14.366
22393W        W94818   7.072  19.589  13.433
22394W        W94819  11.757  44.983  11.561
22395W        W94820  30.111  17.360   0.405
22396W        W94821   1.341  12.820   3.852
22397W        W94822  16.294  38.583  11.213
22398W        W94823   5.778  37.406  12.187
22399W        W94824  38.709  16.690  12.117
22400W        W94825  22.695  40.439  12.994
22401W        W94826   8.378  13.638  14.979
22402W        W94827  17.704  19.002  14.333
22403W        W94828   6.150  21.592  12.945
22404W        W94829   4.447   6.307   2.182
22405W        W94830  23.466   7.412   1.221
22406W        W94831  15.142   8.283  12.345
22407W        W94832   7.664   1.450   4.424
22408W        W94833  27.104   3.426  11.016
22409W        W94834  14.509   0.868   4.896
22410W        W94835  36.873  26.140   4.502
22411W        W94836   0.870  17.720  13.075
22412W        W94837  24.753  14.647  14.405
22413W        W94838  36.879  10.417  14.768
22414W        W94839   8.382  42.309   2.152
22415W        W94840  37.330  34.507  14.109
22416W        W94841  16.074   6.280   0.913
22417W        W94842   5.947  18.138  11.179
22418W        W94843  43.037   0.374  11.614
22419W        W94844  37.912  26.245   2.390
22420W        W94845  19.109  15.214  14.752
22421W        W94846   1.421  27.355   0.086
22422W        W94847   2.347  24.762   3.559
22423W        W94848  21.997  24.725  11.835
22424W        W94849  20.800  37.514   0.251
22425W        W94850  17.848  39.359  12.632
22426W        W94851  29.998  16.542  14.811
22427W        W94852   7.201  31.571   0.953
22428W        W94853  43.025  20.768   0.788
22429W        W94854  16.079  18.579  11.602
22430W        W94855   7.828  35.299  14.488
22431W        W94856   4.425  20.720   2.902
22432W        W94857  36.060  21.169   1.545
22433W        W94858  19.537  24.932  12.687
22434W        W94859  37.754  41.604  11.478
22435W        W94860  32.368  24.169  14.454
22436W        W94861   1.347  28.173  11.065
22437W        W94862  37.444  30.034  13.408
22438W        W94863  15.865   0.891  12.390
22439W        W94864  30.645  30.893   1.353
22440W        W94865  32.053   3.650   1.079
22441W        W94866   5.764  44.298   3.459
22442W        W94867  38.556  18.975  12.570
22443W        W94868   8.431  41.611   4.077
22444W        W94869  28.089  23.043  12.921
22445W        W94870  18.548  26.506   2.593
22446W        W94871   9.932   7.354  14.244
22447W        W94872  20.064  13.597  14.483
22448W        W94873  31.553  38.775  10.524
22449W        W94874  36.152  13.028   5.011
22450W        W94875  15.137  40.324  13.012
22451W        W94876  31.104  27.201  14.565
22452W        W94877   8.435  28.876   2.739
22453W        W94878  38.154  35.531  11.048
22454W        W94879  21.384  37.855   3.930
22455W        W94880  16.695  17.707  13.045
22456W        W94881  10.656   2.648   1.373
22457W        W94882  10.097   8.090  12.484
22458W        W94883  35.882   1.250   2.833
22459W        W94884  34.527  41.531  13.531
22460W        W94885  22.635   3.091  13.512
22461W        W94886  27.079  33.914   1.894
22462W        W94887  43.237   9.614  13.867
22463W        W94888   9.904   2.737   3.692
22464W        W94889   8.966  27.499  13.044
22465W        W94890  30.036  31.815   0.864
22466W        W94891  12.594  26.557   1.742
22467W        W94892   6.786  10.795  13.352
22468W        W94893  10.216  28.212   4.586
22469W        W94894   9.199  29.917  11.547
22470W        W94895   1.082  30.115   4.633
22471W        W94896  37.958  39.585   4.223
22472W        W94897  13.013  26.191  10.416
22473W        W94898  13.691  28.945  12.925
22474W        W94899   3.248  43.258   3.283
22475W        W94900  24.102  44.277  13.281
22476W        W94901  16.532  33.607  14.041
22477W        W94902  17.057  36.851   3.617
22478W        W94903  29.978  18.763   2.160
22479W        W94904  16.036  26.711  11.085
22480W        W94905   2.386  35.492  11.968
22481W        W94906  32.098  37.384   2.808
22482W        W94907   2.025  17.874   0.815
22483W        W94908   4.665   7.863  12.005
22484W        W94909   8.400  24.245  11.290
22485W        W94910  27.512   5.588  14.433
22486W        W94911  25.975  15.529   1.368
22487W        W94912  18.079  31.970  11.921
22488W        W94913   1.789  14.828  11.678
22489W        W94914  32.162   3.823   1.550
22490W        W94915  23.147  23.354   4.174
22491W        W94916  15.779   9.629  14.908
22492W        W94917  44.871  40.045  11.406
22493W        W94918  14.463  31.479   1.430
22494W        W94919   7.003  14.894   3.624
22495W        W94920  39.528   1.804   2.766
22496W        W94921  32.326   2.608   3.647
22497W        W94922  10.433  27.151   2.928
22498W        W94923  19.633   1.933   3.346
22499W        W94924  41.835  22.604  14.477
22500W        W94925   9.400  44.346   4.734
22501W        W94926  14.130  36.912   1.165
22502W        W94927  42.362  44.746  13.451
22503W        W94928  12.837  16.201  11.118
22504W        W94929   2.455  27.606   4.524
22505W        W94930  39.300  16.216   0.399
22506W        W94931   0.636  15.872   9.887
22507W        W94932  44.467  28.579  14.713
22508W        W94933  36.799   0.773  14.845
22509W        W94934  21.016  41.107   4.794
22510W        W94935  27.096  41.407   4.237
22511W        W94936  38.050  28.986  10.958
22512W        W94937  19.262   8.887   0.496
22513W        W94938  40.394   2.558  11.111
22514W        W94939  10.190  38.842   5.083
22515W        W94940  11.803   9.211   4.553
22516W        W94941  30.881  21.884   0.564
22517W        W94942  26.449  29.078   2.177
22518W        W94943  28.482   4.847   3.992
22519W        W94944  31.422  11.608   2.276
22520W        W94945  36.905  38.611  14.656
22521W        W94946  39.622  24.170   2.164
22522W        W94947  32.984  35.750   0.682
22523W        W94948   9.752  35.621  14.262
22524W        W94949   9.248   1.242  14.814
22525W        W94950  17.393  24.787  12.114
22526W        W94951   5.784   3.468  12.986
22527W        W94952  13.152  18.368  10.427
22528W        W94953  12.935  30.520  14.551
22529W        W94954   8.444  17.416   4.823
22530W        W94955   7.716  31.824   3.252
22531W        W94956  31.061  31.123  11.194
22532W        W94957   1.921  33.410  11.599
22533W        W94958  27.318  32.007  14.935
22534W        W94959  27.411  27.322   4.636
22535W        W94960  16.162  23.886  14.906
22536W        W94961  43.971  19.611  14.143
22537W        W94962  31.673  21.784   3.597
22538W        W94963   6.836  13.558   4.707
22539W        W94964  43.073   5.352   2.132
22540W        W94965   6.632  27.564   1.789
22541W        W94966  23.560  11.940  14.468
22542W        W94967  35.335  15.431   2.712
22543W        W94968  28.320  25.294   9.978
22544W        W94969  15.748   2.364  14.053
22545W        W94970  34.450  23.670  11.192
22546W        W94971  25.176  40.151  13.010
22547W        W94972  11.655  22.644  11.005
22548W        W94973  33.076  44.101  13.328
22549W        W94974  31.115  35.468  14.434
22550W        W94975  22.784  32.091   3.278
22551W        W94976  35.415  19.469  12.131
22552W        W94977  33.456   7.161   3.810
22553W        W94978  31.540  25.889  13.078
22554W        W94979  35.341  37.454   1.277
22555W        W94980   1.789  15.420   3.875
22556W        W94981  19.508  25.435  11.235
22557W        W94982   6.478   3.835  11.893
22558W        W94983  26.221  23.468  11.311
22559W        W94984  29.515  42.423  12.966
22560W        W94985  42.756  21.634   2.174
22561W        W94986  26.150  23.285  14.412
22562W        W94987   8.686  15.568   5.123
22563W        W94988  17.676  42.810  14.644
22564W        W94989  30.875  24.596   4.969
22565W        W94990  25.935  15.607   3.673
22566W        W94991  33.580  13.144  11.521
22567W        W94992  31.570  40.320  11.313
22568W        W94993  41.756   1.495   2.445
22569W        W94994  11.196   2.233  12.317
22570W        W94995  31.554  32.634   0.362
22571W        W94996  21.404  10.111  14.897
22572W        W94997   9.191   6.907   4.156
22573W        W94998  31.380  44.765   4.505
22574W        W94999  22.988  26.096  13.460
22575W        W95000  26.525  24.981   1.662
22576W        W95001  38.347  36.558   1.269
22577W        W95002  18.743   8.999  11.608
22578W        W95003   8.780  44.559   4.150
22579W        W95004   2.511   2.224  12.762
22580W        W95005  16.647  28.423  13.960
22581W        W95006  12.827   3.747   3.429
22582W        W95007   7.881  21.298  13.034
22583W        W95008   4.357  17.088   1.235
22584W        W95009  26.045  31.895   1.287
22585W        W95010  38.054  32.546  13.449
22586W        W95011  29.201  21.280   3.116
22587W        W95012  34.463  44.254   0.984
22588W        W95013  10.867   7.299   1.346
22589W        W95014  18.137  20.670  11.099
22590W        W95015  39.387  39.002   3.092
22591W        W95016   9.168   2.856   4.859
22592W        W95017  19.723  44.706   2.433
22593W        W95018  26.396  18.503  10.608
22594W        W95019  29.891  16.649   4.602
22595W        W95020  11.774   6.768   1.350
22596W        W95021  36.974  11.546  11.517
22597W        W95022  22.174   7.480  14.352
22598W        W95023  34.770  42.907  13.586
22599W        W95024   0.767  24.123   2.472
22600W        W95025  25.706  16.575  13.155
22601W        W95026  23.744  40.059  14.538
22602W        W95027  15.707   7.290  14.260
22603W        W95028  25.150  13.368  10.674
22604W        W95029  28.435  29.995   4.389
22605W        W95030  29.290  29.633   2.291
22606W        W95031   3.709  22.606   3.586
22607W        W95032  29.391  10.310   0.326
22608W        W95033  14.831  24.624   1.011
22609W        W95034  16.230   0.408  13.596
22610W        W95035   3.631  29.000  13.496
22611W        W95036  18.554   2.941  13.002
22612W        W95037  11.781   0.318  13.839
22613W        W95038  15.769  16.095  12.586
22614W        W95039   4.277  17.836  14.901
22615W        W95040  37.613  12.324  12.471
22616W        W95041  20.589  22.705   3.643
22617W        W95042   2.407  19.189  13.293
22618W        W95043   4.206   8.127   4.380
22619W        W95044   2.132  37.444   3.408
22620W        W95045  20.386   8.336   2.324
22621W        W95046   2.502  42.956  10.685
22622W        W95047   0.370   3.266   2.913
22623W        W95048  23.260   5.961  14.367
22624W        W95049  41.584  29.127   3.866
22625W        W95050  11.865  21.622   5.128
22626W        W95051  10.546  14.828  13.550
22627W        W95052  13.254  14.564   2.834
22628W        W95053  29.076  38.453  12.127
22629W        W95054  18.476  25.971  14.028
22630W        W95055  14.178  22.185   5.000
22631W        W95056  29.143   8.902   0.543
22632W        W95057  22.615   9.486   3.673
22633W        W95058  43.080  38.336   2.874
22634W        W95059  43.331  30.736  12.440
22635W        W95060  41.051  21.215  11.051
22636W        W95061  35.845  38.293  12.048
22637W        W95062  14.135  12.909  11.568
22638W        W95063  13.243   1.873   2.653
22639W        W95064  18.697  44.311   2.429
22640W        W95065  18.606  22.650   1.794
22641W        W95066  24.227   0.334   4.872
22642W        W95067   4.707  32.487  11.414
22643W        W95068  36.560   2.311  14.091
22644W        W95069  28.667  27.860   3.284
22645W        W95070  17.434  12.244   3.656
22646W        W95071   9.677  32.070  10.107
22647W        W95072   5.134  22.361  14.053
22648W        W95073  28.593  41.370  13.379
22649W        W95074  29.612  41.872   0.809
22650W        W95075   8.111   3.991  10.744
22651W        W95076  11.304  44.342  13.915
22652W        W95077  11.891  26.228   9.937
22653W        W95078  26.992  26.281  11.588
22654W        W95079  21.467  25.160  12.592
22655W        W95080  16.150   6.758   0.718
22656W        W95081  10.359  17.839  11.044
22657W        W95082  37.130   8.204   1.382
22658W        W95083  22.583  14.224   0.249
22659W        W95084  23.719  16.986   0.655
22660W        W95085   5.687   8.418   2.771
22661W        W95086   4.915  21.939   4.880
22662W        W95087  21.204  32.501  11.637
22663W        W95088  16.091   3.180  12.104
22664W        W95089  22.048  36.274   0.115
22665W        W95090  10.586  44.682  14.023
22666W        W95091   9.438   8.877  14.841
22667W        W95092  20.639  42.965  12.005
22668W        W95093   1.877  34.173  14.842
22669W        W95094  15.263   2.594   4.691
22670W        W95095  24.748   5.186   0.939
22671W        W95096  43.525  23.673   0.338
22672W        W95097  25.654  27.082   4.527
22673W        W95098  15.247  24.073  12.603
22674W        W95099  44.361  44.312   2.369
22675W        W95100  12.635   7.717   1.179
22676W        W95101  34.386  27.220  12.888
22677W        W95102  43.380  19.984   3.472
22678W        W95103   4.680  28.385  12.127
22679W        W95104  12.315  12.637  13.946
22680W        W95105  17.619  42.530   3.569
22681W        W95106  36.084   8.178  11.007
22682W        W95107  38.531  21.440   1.907
22683W        W95108  11.167   8.145   2.977
22684W        W95109  10.674  36.068   3.551
22685W        W95110  27.619  40.211   4.677
22686W        W95111  14.780  21.818   4.315
22687W        W95112  41.743  31.374   2.761
22688W        W95113  18.176  25.664   0.748
22689W        W95114  19.117  39.758   4.861
22690W        W95115  31.626  26.895   1.999
22691W        W95116  21.483  30.990   4.094
22692W        W95117  11.625   6.357   0.438
22693W        W95118  14.820  14.883   3.655
22694W        W95119  30.548  42.840  12.166
22695W        W95120  30.204  36.393  12.900
22696W        W95121  12.530   3.358  13.384
22697W        W95122  35.030  43.304  13.386
22698W        W95123   9.804   6.243   1.828
22699W        W95124  23.711  25.459  12.883
22700W        W95125  35.624  10.179   0.363
22701W        W95126  12.422  22.615   4.168
22702W        W95127  40.499  44.477  10.929
22703W        W95128   3.560  10.124   2.757
22704W        W95129  29.988  27.659  13.887
22705W        W95130   7.426  30.531  11.623
22706W        W95131  28.360  42.948   2.221
22707W        W95132  23.563   6.154  13.540
22708W        W95133  43.871  31.413   2.296
22709W        W95134  18.523  39.776   2.168
22710W        W95135  37.519  15.795  13.012
22711W        W95136  43.953  16.182  13.105
22712W        W95137   6.330  18.283   5.050
22713W        W95138  11.168  25.300  14.470
22714W        W95139   9.680  37.267   1.310
22715W        W95140  38.915  23.451   0.469
22716W        W95141   5.406   6.324  13.891
22717W        W95142  16.297  36.843   0.729
22718W        W95143  20.656  39.274   4.120
22719W        W95144  37.858   9.847  11.445
22720W        W95145  25.639   4.186   3.207
22721W        W95146  38.022  17.020  13.802
22722W        W95147  10.536   5.268   2.323
22723W        W95148  20.495   9.199  11.093
22724W        W95149  11.624  16.573   1.380
22725W        W95150  19.166   9.887   2.367
22726W        W95151  22.107  28.067  13.402
22727W        W95152  11.581  44.733  11.976
22728W        W95153  27.930  36.366  14.812
22729W        W95154  17.495  40.802  11.729
22730W        W95155   7.118   9.869   2.487
22731W        W95156  23.098  44.210   3.366
22732W        W95157  19.941  42.801   0.152
22733W        W95158  26.647   2.173  14.041
22734W        W95159   8.652  42.852   3.518
22735W        W95160  14.576   8.487   4.605
22736W        W95161  41.546   8.617   3.712
22737W        W95162  21.090  16.140   0.051
22738W        W95163   2.591  34.239  14.853
22739W        W95164   5.444   0.213  14.975
22740W        W95165  41.552   7.447   0.737
22741W        W95166   4.823  21.009   1.289
22742W        W95167  30.475  10.769  14.909
22743W        W95168  38.479   6.735   3.819
22744W        W95169  30.339  25.435   2.622
22745W        W95170  10.109  30.703   3.743
22746W        W95171  31.627  20.898  13.508
22747W        W95172  38.879   9.138   4.987
22748W        W95173  44.302  34.014   9.822
22749W        W95174  35.105  30.008  12.323
22750W        W95175  38.374  37.468  14.004
22751W        W95176  17.971  29.556  13.369
22752W        W95177  40.087  42.713  12.969
22753W        W95178  29.879  31.324   0.949
22754W        W95179   8.566  20.004  11.337
22755W        W95180  10.917  15.844   3.794
22756W        W95181  24.343  32.002  14.550
22757W        W95182   5.346  34.080   4.412
22758W        W95183  43.498  36.417  13.513
22759W        W95184   2.889  19.078   2.603
22760W        W95185  40.344  22.989  14.366
22761W        W95186  43.389  17.595  11.181
22762W        W95187  11.445   5.901   4.068
22763W        W95188  19.227   4.211  11.743
22764W        W95189  16.728  25.730   4.026
22765W        W95190  40.734  21.261  13.713
22766W        W95191  42.499  23.530  12.140
22767W        W95192  16.226   6.542   3.772
22768W        W95193   1.964  26.015   2.635
22769W        W95194  28.651  34.960  13.005
22770W        W95195   3.260  40.947  13.372
22771W        W95196   3.349  31.420  13.067
22772W        W95197  35.299  43.932   3.798
22773W        W95198  39.876   7.514   2.321
22774W        W95199  35.824  24.489  14.851
22775W        W95200  28.583   2.308  12.440
22776W        W95201  39.060  10.745  13.000
22777W        W95202  25.432  17.201   3.249
22778W        W95203   0.040  40.947  11.455
22779W        W95204  32.939  36.478  11.962
22780W        W95205  25.157  31.637  14.852
22781W        W95206  29.225  39.575  14.354
22782W        W95207  22.367  23.218   0.330
22783W        W95208  36.868  27.304  12.941
22784W        W95209   1.785  29.897   2.226
22785W        W95210  18.732  33.669  10.916
22786W        W95211  22.860  37.132   1.780
22787W        W95212  43.513  34.914   2.795
22788W        W95213  42.821  26.874   4.932
22789W        W95214  31.313   4.160  14.032
22790W        W95215  37.412   4.251  13.642
22791W        W95216  17.768  32.641  12.934
22792W        W95217   6.498  26.022  11.874
22793W        W95218  31.166  40.075  13.562
22794W        W95219  18.780  34.897  11.504
22795W        W95220  34.304   5.004  13.093
22796W        W95221  26.558  33.629   4.218
22797W        W95222  35.818  21.999  13.041
22798W        W95223  20.640  15.600   4.120
22799W        W95224  38.540  29.610   3.697
22800W        W95225  32.606  21.258  11.078
22801W        W95226   3.353  44.244  10.901
22802W        W95227  37.003  35.036   0.566
22803W        W95228   1.350  29.596   1.472
22804W        W95229  17.005  15.179   3.641
22805W        W95230  32.939   8.718  13.481
22806W        W95231  32.952  42.540  13.043
22807W        W95232  41.564  28.494   0.919
22808W        W95233  34.227  12.781   3.395
22809W        W95234  16.381  33.201   0.159
22810W        W95235  23.219   1.613   2.804
22811W        W95236  22.235  25.203  11.972
22812W        W95237  22.447  43.081   5.115
22813W        W95238  39.920  21.622  13.931
22814W        W95239  37.374  24.632   4.730
22815W        W95240   5.271   2.292   3.295
22816W        W95241   3.874   5.398   0.070
22817W        W95242  29.891   8.879   4.073
22818W        W95243  31.232   6.880  11.178
22819W        W95244  15.677  31.632   0.264
22820W        W95245   6.667  40.888  11.098
22821W        W95246  11.899  30.565  11.099
22822W        W95247  10.203  29.121   0.056
22823W        W95248  12.939  28.609   1.916
22824W        W95249  39.361  43.822   1.343
22825W        W95250  20.275   4.901  10.914
22826W        W95251  28.334  41.455   4.580
22827W        W95252   2.332  39.029  12.836
22828W        W95253   9.362  42.066   4.230
22829W        W95254  23.131  18.077  14.104
22830W        W95255   7.885  17.111   1.422
22831W        W95256  35.140  36.089   0.757
22832W        W95257   3.570  22.277  14.829
22833W        W95258   4.715  37.820  13.449
22834W        W95259  11.612   4.637   4.511
22835W        W95260  32.148  16.993   2.884
22836W        W95261   2.959  15.244   3.694
22837W        W95262  17.399  26.916   0.792
22838W        W95263  35.339  10.852  12.839
22839W        W95264  23.986  32.618   3.910
22840W        W95265  31.451  26.689  11.544
22841W        W95266  24.206   7.647  14.406
22842W        W95267  43.414   4.223  13.908
22843W        W95268   8.360   5.192  13.423
22844W        W95269  23.710  30.110   4.668
22845W        W95270  30.397   8.854  13.135
22846W        W95271  38.428  10.106   4.154
22847W        W95272  27.164  23.297   2.893
22848W        W95273  37.884   3.210   2.847
22849W        W95274  14.434  38.015   0.059
22850W        W95275   6.188  26.259  11.503
22851W        W95276  33.736  44.383   5.018
22852W        W95277  16.571   9.256  11.647
22853W        W95278  35.502   1.230   1.790
22854W        W95279   0.355  20.437   3.870
22855W        W95280  12.783  35.997  11.482
22856W        W95281  41.207   3.262   4.909
22857W        W95282  22.446  34.521   4.451
22858W        W95283   0.906   5.232  12.171
22859W        W95284  18.557  37.408  14.892
22860W        W95285  20.747  10.256  11.699
22861W        W95286  11.361  32.002   0.664
22862W        W95287  16.611  26.551   2.377
22863W        W95288  30.612  31.404  14.348
22864W        W95289  43.224  30.019   3.098
22865W        W95290   1.221  22.413   0.438
22866W        W95291  15.702  21.630  14.442
22867W        W95292  41.326  24.185  13.332
22868W        W95293   8.469   2.758   0.155
22869W        W95294  31.974  12.616   4.532
22870W        W95295  13.681  20.801  12.891
22871W        W95296  26.699  24.095   4.958
22872W        W95297  44.218  18.596  14.939
22873W        W95298   8.651   2.475  13.986
22874W        W95299   8.123  13.016  11.072
22875W        W95300   2.867  20.492   2.405
22876W        W95301  21.262  30.329  11.593
22877W        W95302   1.870  19.202   3.489
22878W        W95303   1.641   1.985   2.751
22879W        W95304  27.621   1.966  14.236
22880W        W95305  27.987  34.530  11.536
22881W        W95306  40.787  28.917  12.936
22882W        W95307  35.634  19.152  11.378
22883W        W95308   6.449  26.718  11.469
22884W        W95309   4.958  25.997   2.915
22885W        W95310  41.819  11.689   0.256
22886W        W95311  11.891  12.161  11.143
22887W        W95312  41.958  17.233  14.501
22888W        W95313  21.959   7.234   2.713
22889W        W95314  41.958  10.009   3.609
22890W        W95315  44.457   1.228   2.989
22891W        W95316   7.641   2.260   0.943
22892W        W95317  27.558  39.351   3.763
22893W        W95318  15.912   5.087  12.108
22894W        W95319  10.056  32.280   0.284
22895W        W95320  18.574  20.803   1.913
22896W        W95321  41.546  37.410  11.565
22897W        W95322  22.011  16.028  12.036
22898W        W95323  27.409  43.902  10.298
22899W        W95324  27.686  43.244   0.457
22900W        W95325  11.082  38.498  11.213
22901W        W95326  32.423  40.281   1.959
22902W        W95327  44.296   4.986  10.687
22903W        W95328   2.912  18.820  11.152
22904W        W95329   8.886  24.005   4.725
22905W        W95330  18.774   2.820   0.903
22906W        W95331  43.581  17.517   0.439
22907W        W95332  31.723  32.299  12.445
22908W        W95333  40.326  40.991   0.884
22909W        W95334  37.851  17.687   4.784
22910W        W95335  33.503  39.461   4.538
22911W        W95336  22.770  12.387   1.868
22912W        W95337  34.822  42.730   4.640
22913W        W95338  22.086   2.420   2.824
22914W        W95339  10.583  11.550  11.230
22915W        W95340  37.636  43.419  10.679
22916W        W95341  10.164  12.274   1.649
22917W        W95342  15.534  13.572   2.301
22918W        W95343  19.081  18.699   0.302
22919W        W95344  37.885  43.287   3.217
22920W        W95345  29.541  21.035  13.552
22921W        W95346  17.454  43.091   0.255
22922W        W95347  25.675  28.708   4.658
22923W        W95348  42.522  42.609  12.570
22924W        W95349   9.470   8.249   0.498
22925W        W95350  39.974  12.830   4.566
22926W        W95351  41.414   1.900  13.404
22927W        W95352  22.666   8.649   3.367
22928W        W95353  24.787  13.703  14.567
22929W        W95354  35.848   0.287   3.139
22930W        W95355   1.215  26.132  11.669
22931W        W95356   9.681  13.515   3.225
22932W        W95357  44.880  43.278  14.407
22933W        W95358  26.925  11.730   5.091
22934W        W95359   2.898   6.249  12.879
22935W        W95360  27.221  19.599   2.206
22936W        W95361  18.802  27.960  10.387
22937W        W95362  22.467  25.602   0.971
22938W        W95363  17.533  16.179  11.646
22939W        W95364  28.620  24.192   1.941
22940W        W95365  34.546   4.756  11.525
22941W        W95366  11.276  23.089  12.160
22942W        W95367   0.933  44.917   0.280
22943W        W95368  21.748   4.436  11.385
22944W        W95369  41.530  11.372  11.432
22945W        W95370  14.558  12.686  14.902
22946W        W95371  24.630  23.475   3.795
22947W        W95372  28.841  11.600  11.605
22948W        W95373   2.194  16.321   3.169
22949W        W95374  12.153  28.918   0.790
22950W        W95375  12.178   7.056  10.432
22951W        W95376  31.224  26.070  13.446
22952W        W95377   9.677  43.150  14.471
22953W        W95378  27.892   4.667   2.819
22954W        W95379  13.608  43.474   0.441
22955W        W95380  35.558  29.804  14.082
22956W        W95381   8.117  30.007  11.881
22957W        W95382  10.044  35.536   4.219
22958W        W95383  41.864  43.562   3.349
22959W        W95384  19.069  39.900   4.331
22960W        W95385  11.651   2.214   2.456
22961W        W95386  37.865  16.775  10.585
22962W        W95387  12.549  17.730  13.799
22963W        W95388   6.387  14.779  13.827
22964W        W95389  26.240  25.163  12.104
22965W        W95390  24.951  13.034   2.641
22966W        W95391   8.670  39.393  10.587
22967W        W95392   8.218  34.531  12.930
22968W        W95393  10.999  29.493   3.018
22969W        W95394  42.571  21.029   4.850
22970W        W95395  19.360  44.976  13.842
22971W        W95396  38.905  34.366  11.621
22972W        W95397  23.578  43.850  11.175
22973W        W95398  30.150  30.907  10.870
22974W        W95399  16.865  27.221  12.661
22975W        W95400  44.780  38.525  14.862
22976W        W95401   9.965  40.363  10.798
22977W        W95402   2.931  42.073  12.287
22978W        W95403   2.322  26.777  10.122
22979W        W95404  10.462  19.151  10.700
22980W        W95405   2.631  31.636  14.741
22981W        W95406   4.326  11.676  12.615
22982W        W95407  10.331  14.772  12.944
22983W        W95408  41.101  29.945   2.816
22984W        W95409   5.314  21.354  11.114
22985W        W95410  31.430  43.300   1.747
22986W        W95411  19.702  42.628   1.512
22987W        W95412  25.579  28.976  13.429
22988W        W95413   0.692  23.204  13.024
22989W        W95414   7.880  40.449   0.978
22990W        W95415  19.592  37.416  11.612
22991W        W95416   7.702  11.699  14.126
22992W        W95417  29.833   0.891  11.627
22993W        W95418  31.384  25.950   3.393
22994W        W95419  44.444   9.524  10.719
22995W        W95420   1.799  40.866   0.983
22996W        W95421   3.529  12.871   4.130
22997W        W95422  15.946  27.495   4.153
22998W        W95423  16.280  26.630  14.497
22999W        W95424  28.946  17.636  12.613
23000W        W95425  21.005  14.247  12.869
23001W        W95426   8.631  44.795  10.914
23002W        W95427   0.279  31.904   0.651
23003W        W95428  43.116   5.639   1.703
23004W        W95429  43.767  37.092   3.738
23005W        W95430  44.521  23.745   2.886
23006W        W95431   0.931   4.947  14.414
23007W        W95432  28.102  19.936   4.729
23008W        W95433  15.364  22.041   1.176
23009W        W95434  13.569  34.103   4.135
23010W        W95435  37.737  25.407  13.373
23011W        W95436   3.822  40.592   3.296
23012W        W95437  18.129  40.734  12.907
23013W        W95438  34.665  20.667   3.696
23014W        W95439  41.607  36.575   4.191
23015W        W95440   9.317   2.547   0.298
23016W        W95441  32.549  33.921   4.048
23017W        W95442  27.116  18.205   3.197
23018W        W95443  36.379  16.632  12.151
23019W        W95444  20.168  40.178   2.742
23020W        W95445  43.941  38.351   0.679
23021W        W95446   3.249  41.906  10.647
23022W        W95447  12.921  36.555   0.218
23023W        W95448  23.719  38.975  14.598
23024W        W95449  43.029  40.208   1.207
23025W        W95450   1.325   9.335  13.434
23026W        W95451  15.907  21.304  12.396
23027W        W95452  17.830  30.980   3.709
23028W        W95453   6.943   4.432   4.787
23029W        W95454  15.815  21.663  12.036
23030W        W95455  43.492  38.511  14.413
23031W        W95456  22.631  37.344   3.041
23032W        W95457  12.075  20.288   4.023
23033W        W95458  27.172  14.924  11.123
23034W        W95459   4.224  19.553  11.511
23035W        W95460  17.247  30.998   2.505
23036W        W95461  33.112  31.562  10.613
23037W        W95462  30.338  11.894   3.190
23038W        W95463  41.395  24.687  12.006
23039W        W95464  37.806  16.610  14.015
23040W        W95465  39.756  39.152  11.118
23041W        W95466  31.988  33.408  14.211
23042W        W95467  28.345  38.208  10.140
23043W        W95468  25.585  37.787   5.093
23044W        W95469   8.481  24.196  10.770
23045W        W95470  23.266  16.880   4.619
23046W        W95471  44.777  19.893   1.446
23047W        W95472  17.197  29.369  10.305
23048W        W95473  40.038  43.061  13.506
23049W        W95474   1.197  32.714  12.450
23050W        W95475   0.370  33.811  14.401
23051W        W95476  23.510  32.845  11.927
23052W        W95477  44.918  26.835   2.017
23053W        W95478  10.095  35.068  12.593
23054W        W95479  43.436   4.558  14.336
23055W        W95480  13.334  44.989   3.832
23056W        W95481   6.801  16.508  11.129
23057W        W95482   5.347  41.417   4.577
23058W        W95483  19.768  26.824   4.545
23059W        W95484   0.384  31.791   5.389
23060W        W95485  17.742  44.734  10.709
23061W        W95486  30.387   6.387   1.302
23062W        W95487   7.293  21.340  14.294
23063W        W95488   8.957  29.598   0.316
23064W        W95489  29.715  29.119  10.852
23065W        W95490   4.409  32.449   3.740
23066W        W95491  27.446  40.014   2.328
23067W        W95492  38.450  34.449  10.700
23068W        W95493  41.255  43.826   2.757
23069W        W95494  23.023   7.218   1.760
23070W        W95495  22.953  34.877  12.476
23071W        W95496  13.088  31.899  11.587
23072W        W95497   5.364  42.583  10.647
23073W        W95498  36.203  41.917  11.108
23074W        W95499  27.158  31.554  11.122
23075W        W95500  19.128   1.342  13.452
23076W        W95501  39.903   1.512   0.426
23077W        W95502   3.365  25.186  14.762
23078W        W95503   3.701  36.064  11.219
23079W        W95504  23.691  28.359   0.852
23080W        W95505   7.344   5.688  14.532
23081W        W95506   1.018  44.016   0.314
23082W        W95507   7.876  40.016   3.248
23083W        W95508   2.699  20.748  12.825
23084W        W95509  27.438  40.358   5.526
23085W        W95510  24.149  16.127  12.470
23086W        W95511   4.116   7.769  13.377
23087W        W95512  37.964  19.622  11.146
23088W        W95513  38.383  20.450  13.476
23089W        W95514  25.449   5.362   0.302
23090W        W95515  42.407  20.778  12.351
23091W        W95516  28.911  18.229  12.277
23092W        W95517  28.870  42.734  11.118
23093W        W95518  14.318  36.153   4.668
23094W        W95519  30.049  16.792  12.811
23095W        W95520  32.165  23.585  13.305
23096W        W95521   5.846   8.392   1.387
23097W        W95522  17.124   8.292   2.518
23098W        W95523  31.247  22.714  10.467
23099W        W95524   9.017  18.068  10.837
23100W        W95525  22.271   9.723  14.920
23101W        W95526  28.092  18.821  12.701
23102W        W95527  32.841  22.175  14.724
23103W        W95528  12.777  34.177  13.217
23104W        W95529  44.819   2.212  14.516
23105W        W95530   5.414  39.877   2.853
23106W        W95531  10.043  14.707  13.563
23107W        W95532   2.866  11.719   1.764
23108W        W95533  25.134  12.555  14.884
23109W        W95534  34.373  22.499  13.236
23110W        W95535  32.247  19.132   0.454
23111W        W95536   1.888   7.644  11.999
23112W        W95537   5.259  10.756   1.179
23113W        W95538   4.805  40.910   1.802
23114W        W95539  12.817  20.188   3.153
23115W        W95540  42.379  15.627  12.575
23116W        W95541  37.941  32.307   3.414
23117W        W95542  40.488   0.260   0.877
23118W        W95543  31.349  14.840  12.835
23119W        W95544  19.121  34.799   2.368
23120W        W95545  18.353  21.388  13.567
23121W        W95546   2.026  39.377  14.898
23122W        W95547  19.992  37.399   4.216
23123W        W95548  20.069  18.210  14.812
23124W        W95549  11.210  43.355   0.899
23125W        W95550   6.215  18.196  14.407
23126W        W95551  10.782  27.870   2.458
23127W        W95552  17.074  30.565  11.624
23128W        W95553  36.038  42.892   5.161
23129W        W95554   0.242  23.135   3.073
23130W        W95555  32.687  12.138  12.528
23131W        W95556  11.322  12.587   2.308
23132W        W95557   2.321  12.447  12.660
23133W        W95558  11.271  18.155  10.429
23134W        W95559  35.611  44.862   2.334
23135W        W95560  15.288  16.580   1.789
23136W        W95561  15.139  44.896  13.050
23137W        W95562  23.827  22.212   2.314
23138W        W95563  17.219  40.302   4.540
23139W        W95564  29.015   1.608  13.348
23140W        W95565  32.426  32.128   4.863
23141W        W95566  29.914  20.677  12.896
23142W        W95567  40.673   6.447   5.082
23143W        W95568  26.037  14.734  12.385
23144W        W95569  36.946  33.378   2.679
23145W        W95570  17.306  36.396   3.548
23146W        W95571  27.195  26.979   4.300
23147W        W95572  10.299   8.618   0.033
23148W        W95573  35.108  35.791  12.853
23149W        W95574  24.987  15.053  12.936
23150W        W95575   9.899  17.480  11.946
23151W        W95576  32.815  32.901  14.608
23152W        W95577  29.162  12.306   4.768
23153W        W95578  27.061  13.896  11.237
23154W        W95579  16.536  37.511  10.555
23155W        W95580  40.152  35.604  10.922
23156W        W95581  28.498  27.251  13.156
23157W        W95582  34.942  38.028   0.049
23158W        W95583  37.430   0.707   2.125
23159W        W95584  21.649  30.571  12.609
23160W        W95585  18.370  34.052  10.642
23161W        W95586   8.260  23.401   1.266
23162W        W95587   7.680  17.151  10.859
23163W        W95588  18.195  17.276   1.360
23164W        W95589  40.540   9.411  10.681
23165W        W95590  25.608  10.743   1.095
23166W        W95591   1.394  43.655  10.840
23167W        W95592  39.494  17.622  13.828
23168W        W95593  42.445  34.185   4.285
23169W        W95594   9.086  33.706   0.984
23170W        W95595   4.302  39.801  12.609
23171W        W95596  28.835  33.284   3.679
23172W        W95597  35.592   7.378  10.078
23173W        W95598   5.439  18.699   0.935
23174W        W95599  28.006   9.303   3.291
23175W        W95600  12.260  40.938   0.391
23176W        W95601  18.422  30.299   2.757
23177W        W95602  11.710  36.485   2.106
23178W        W95603   8.358   4.825  12.866
23179W        W95604  15.710  22.533  13.272
23180W        W95605   8.743  12.337  13.340
23181W        W95606  27.510  43.599  13.406
23182W        W95607  28.095  30.589   2.852
23183W        W95608  28.645   7.461   3.288
23184W        W95609  38.909  41.829   0.738
23185W        W95610  17.803  42.561  13.040
23186W        W95611   3.677  31.393  11.510
23187W        W95612  32.142  11.321   1.706
23188W        W95613  23.573  38.824  11.107
23189W        W95614  40.870   3.737  11.721
23190W        W95615  42.000  10.594   1.142
23191W        W95616  38.940   4.786  11.314
23192W        W95617  39.042  13.155  13.852
23193W        W95618  37.781  29.111  10.465
23194W        W95619  30.132   0.689   0.534
23195W        W95620  10.373  42.870   4.114
23196W        W95621  28.942  35.047  12.579
23197W        W95622  37.037  26.996   1.373
23198W        W95623  11.824   9.742   4.293
23199W        W95624  10.599  44.792   3.242
23200W        W95625  37.974  14.834  11.313
23201W        W95626  23.452  17.505  12.611
23202W        W95627  42.736  42.861  14.896
23203W        W95628  42.615  23.038   9.682
23204W        W95629  32.462  28.246  13.544
23205W        W95630  39.992  26.023  12.837
23206W        W95631  43.137   3.715   1.920
23207W        W95632  11.734  13.114   4.544
23208W        W95633   0.349  37.280  14.236
23209W        W95634  33.959  38.456   1.824
23210W        W95635   7.359  44.330  11.070
23211W        W95636  37.949   8.328   3.238
23212W        W95637  31.392   4.397   0.292
23213W        W95638  17.849  27.144  14.886
23214W        W95639  20.177   9.663   4.337
23215W        W95640  21.337  13.721  13.546
23216W        W95641   4.328  38.955  14.770
23217W        W95642  32.829  23.207  13.512
23218W        W95643  14.680  41.808  13.080
23219W        W95644  18.010  35.139   4.137
23220W        W95645  22.004   9.767   0.384
23221W        W95646  34.612  12.665   3.024
23222W        W95647   1.989  22.075  10.758
23223W        W95648  27.688   4.922  10.509
23224W        W95649   8.098   3.819   0.037
23225W        W95650  18.686  24.158   4.346
23226W        W95651  26.556  34.994  10.871
23227W        W95652  27.538  39.077   1.386
23228W        W95653  18.249  20.785   3.100
23229W        W95654   5.334  39.748  12.841
23230W        W95655  44.972  33.458  11.831
23231W        W95656   1.900   5.283   4.654
23232W        W95657  33.132  34.923   2.591
23233W        W95658   3.793  30.608   1.487
23234W        W95659  27.024  36.075   0.376
23235W        W95660  22.012  30.631  10.681
23236W        W95661  29.931  18.335   4.348
23237W        W95662  41.225  25.441   1.737
23238W        W95663  44.495  33.282   2.280
23239W        W95664  36.028  29.231   2.701
23240W        W95665  35.621   5.450  12.826
23241W        W95666  27.398  14.168   0.313
23242W        W95667  31.583  35.555  10.680
23243W        W95668   7.422  26.580  13.399
23244W        W95669  25.591  30.669  14.828
23245W        W95670  17.420  23.583   0.349
23246W        W95671  24.552  28.187  11.467
23247W        W95672  12.097  18.800   3.145
23248W        W95673  30.826  42.362  12.126
23249W        W95674  42.837  26.783  13.147
23250W        W95675  30.633   0.024  14.991
23251W        W95676  19.239  18.858   2.421
23252W        W95677  31.216  21.777   4.722
23253W        W95678  20.270  37.908  14.971
23254W        W95679  42.939   9.203   1.022
23255W        W95680  37.237  18.541   2.288
23256W        W95681  26.441  25.732   1.431
23257W        W95682   6.191  26.602   1.609
23258W        W95683  15.080   7.017   2.393
23259W        W95684  10.879  27.408  12.004
23260W        W95685  22.486  25.624   3.195
23261W        W95686  18.720  17.843  10.646
23262W        W95687  33.357  44.812  12.442
23263W        W95688  16.237  27.425  11.577
23264W        W95689   6.896  28.373   1.164
23265W        W95690  31.028  44.940   3.329
23266W        W95691  16.341  10.462  14.537
23267W        W95692  23.668  17.711   0.987
23268W        W95693  17.558  20.077  12.864
23269W        W95694  23.274   2.273  12.829
23270W        W95695  35.564  40.836   3.724
23271W        W95696  24.156  34.803  14.370
23272W        W95697  26.895  10.145   3.731
23273W        W95698  39.936  29.098   0.442
23274W        W95699  44.821  28.007   4.689
23275W        W95700   3.445  10.300   4.083
23276W        W95701   6.397  13.487   5.000
23277W        W95702  30.452  15.747   1.908
23278W        W95703  24.746  13.807   0.943
23279W        W95704   7.733  12.832  14.653
23280W        W95705  28.285  24.598   1.214
23281W        W95706   9.318  16.644  11.658
23282W        W95707   8.244  30.853   3.904
23283W        W95708   2.794  35.565   2.187
23284W        W95709  25.763   1.467   1.389
23285W        W95710  16.060   6.172   2.882
23286W        W95711  24.883  41.511   2.354
23287W        W95712  13.118  12.600  14.486
23288W        W95713  34.574  26.841   3.278
23289W        W95714  14.295  19.627  13.796
23290W        W95715  40.545  44.838  13.056
23291W        W95716  15.001  14.659  14.489
23292W        W95717  11.460  10.067   9.678
23293W        W95718   5.233  24.455   3.989
23294W        W95719  10.391   7.024  11.545
23295W        W95720  31.684  39.899  13.582
23296W        W95721  31.876  11.347   0.300
23297W        W95722   9.798  41.956  11.976
23298W        W95723  25.125  32.576  14.037
23299W        W95724  41.581   6.753  14.941
23300W        W95725   2.368  30.581  11.363
23301W        W95726  30.730   2.494  11.092
23302W        W95727  10.071  26.385  14.381
23303W        W95728  31.429  22.771   5.307
23304W        W95729  42.864  18.331  13.334
23305W        W95730  22.019  40.500  10.466
23306W        W95731  43.775   2.470  14.267
23307W        W95732   8.426  31.893   3.810
23308W        W95733  12.186  28.724  11.240
23309W        W95734  16.543  26.580   4.710
23310W        W95735  23.650  27.156  14.964
23311W        W95736  27.519  39.373   0.042
23312W        W95737  42.388   8.753   4.252
23313W        W95738  24.316  37.540   4.604
23314W        W95739  23.513  22.016   0.575
23315W        W95740  38.924   6.437  14.356
23316W        W95741  27.658  12.659  13.790
23317W        W95742   6.427   7.738   1.691
23318W        W95743   5.419  44.870  10.429
23319W        W95744  21.608  16.017   1.306
23320W        W95745  38.445  37.601   5.094
23321W        W95746   6.155  14.768  13.303
23322W        W95747  43.177  36.562  13.108
23323W        W95748  28.558  27.264  10.730
23324W        W95749  18.687  18.885  10.801
23325W        W95750  30.851  36.038   4.558
23326W        W95751   5.794  28.047   3.250
23327W        W95752  12.784  24.584   4.272
23328W        W95753  21.707   4.430   0.146
23329W        W95754  10.658  26.945   3.364
23330W        W95755  20.051  34.777   0.799
23331W        W95756  34.868  14.785   2.809
23332W        W95757   2.219  20.809   1.106
23333W        W95758   7.174  43.937   1.724
23334W        W95759  42.339  29.692  11.035
23335W        W95760  28.987  21.213  12.321
23336W        W95761  14.140  40.542  11.291
23337W        W95762  19.052  28.958  13.098
23338W        W95763  42.927   7.451  13.654
23339W        W95764  42.082  38.078  13.850
23340W        W95765  19.744  37.141  13.038
23341W        W95766  37.368  13.120   2.378
23342W        W95767  23.465  25.210   0.264
23343W        W95768  34.871  25.363  14.831
23344W        W95769  36.838  25.466  11.640
23345W        W95770  43.521  19.232   2.302
23346W        W95771  42.559  44.732   1.379
23347W        W95772   7.685  31.658   0.765
23348W        W95773  40.480  21.178   9.703
23349W        W95774   9.203   3.407  11.849
23350W        W95775  18.317  21.778   0.317
23351W        W95776  40.469  29.421   4.290
23352W        W95777  11.111  44.267   3.156
23353W        W95778  23.314   8.206  13.036
23354W        W95779   4.185  41.879  12.342
23355W        W95780  19.759  39.298  10.631
23356W        W95781  18.701   4.749  12.846
23357W        W95782  27.128   6.751  11.072
23358W        W95783  15.313  39.955   3.254
23359W        W95784  18.805  12.855  11.827
23360W        W95785  30.437  31.530  13.489
23361W        W95786   2.042  44.801   3.154
23362W        W95787  13.811  40.565   2.761
23363W        W95788  39.926   8.319  14.310
23364W        W95789  10.061  43.898  10.706
23365W        W95790  12.425   5.176  14.907
23366W        W95791   4.195  11.280  11.587
23367W        W95792  14.662  33.990  13.353
23368W        W95793  30.777  30.639  13.893
23369W        W95794  14.675   8.950  13.430
23370W        W95795  11.701  27.359   4.630
23371W        W95796  31.674   8.131  11.606
23372W        W95797  11.739  32.585   3.787
23373W        W95798  28.002   0.760  12.340
23374W        W95799  34.267  25.210   0.824
23375W        W95800  42.522  19.200  13.072
23376W        W95801  28.979  39.332  12.700
23377W        W95802   0.493  26.219  13.650
23378W        W95803  33.305  41.557   0.226
23379W        W95804  15.042  15.017  13.055
23380W        W95805  41.356  43.869   0.545
23381W        W95806   3.275  17.106   0.205
23382W        W95807  25.603  13.087  14.053
23383W        W95808   2.321  15.201   1.866
23384W        W95809  34.710   7.139  13.343
23385W        W95810  10.402  10.572  12.526
23386W        W95811  38.635  25.066   4.860
23387W        W95812  36.338   2.674   0.564
23388W        W95813  41.210  29.671   0.464
23389W        W95814  14.605  20.157   0.779
23390W        W95815  20.553  23.012   0.905
23391W        W95816  34.705  40.920   0.714
23392W        W95817   1.350   9.142   0.281
23393W        W95818  19.690  16.155   1.701
23394W        W95819  23.318  11.453  10.289
23395W        W95820  10.587  41.910  11.500
23396W        W95821  15.700  26.194  11.789
23397W        W95822  29.014  21.589  10.970
23398W        W95823  10.079   3.765   3.804
23399W        W95824  38.762  32.412  14.984
23400W        W95825  12.690  26.551  13.444
23401W        W95826  41.363   7.260  14.840
23402W        W95827   4.611  40.400   9.944
23403W        W95828   9.953  33.702  13.764
23404W        W95829  34.858  30.108   1.300
23405W        W95830  23.292  27.648  13.425
23406W        W95831  42.923   5.319  12.236
23407W        W95832  35.902  20.564  14.347
23408W        W95833  36.520  40.407  14.213
23409W        W95834  17.187  29.796   3.057
23410W        W95835  27.444  19.996   3.673
23411W        W95836  32.381  31.170   0.378
23412W        W95837  12.532  36.231  12.149
23413W        W95838  38.398  21.152   2.897
23414W        W95839   7.234  28.812   3.246
23415W        W95840   0.713  35.372  11.691
23416W        W95841  33.051   2.762   3.316
23417W        W95842  32.062   1.739   2.891
23418W        W95843  25.488  23.725  12.294
23419W        W95844   6.801   5.830   4.968
23420W        W95845   7.192  44.420   1.341
23421W        W95846  44.250  30.114  11.760
23422W        W95847  30.178  17.517   2.785
23423W        W95848  28.348  16.541   2.707
23424W        W95849  38.091  38.263   3.395
23425W        W95850  18.548  29.471   9.923
23426W        W95851  29.563  30.807   3.729
23427W        W95852  41.861  25.630   2.881
23428W        W95853  14.705  23.166   0.817
23429W        W95854  33.914  39.547   4.870
23430W        W95855  17.311  22.183   2.173
23431W        W95856  41.319  22.572  10.615
23432W        W95857  40.137   8.264   1.185
23433W        W95858  29.604  11.599  13.455
23434W        W95859  35.533  34.542  14.377
23435W        W95860  33.115  26.932  13.395
23436W        W95861  14.582   0.023   4.226
23437W        W95862   4.172   8.466  13.938
23438W        W95863  23.082  38.756  11.597
23439W        W95864  25.063  27.576  14.122
23440W        W95865  12.147  31.198  11.629
23441W        W95866   9.636   3.962  10.580
23442W        W95867  36.071  23.122  11.190
23443W        W95868  35.350  25.593  11.633
23444W        W95869  10.382  11.206  10.898
23445W        W95870   2.673  20.600   0.909
23446W        W95871  31.721  14.616  11.902
23447W        W95872   0.049  38.928  12.308
23448W        W95873  42.315  18.227   0.844
23449W        W95874  10.862   6.347   2.430
23450W        W95875  33.210   0.946  12.857
23451W        W95876   6.497  32.062   4.450
23452W        W95877  40.143   0.022   4.825
23453W        W95878  35.879  11.201   2.914
23454W        W95879   9.592  41.146  10.057
23455W        W95880   7.369   7.466   3.132
23456W        W95881   9.643   2.025  12.455
23457W        W95882  12.706  38.319  14.961
23458W        W95883  17.507  40.377   3.216
23459W        W95884  29.196  39.424   1.176
23460W        W95885  37.913  37.601  13.343
23461W        W95886  22.781  16.035  14.009
23462W        W95887  20.623  20.972   3.249
23463W        W95888  17.640   1.545   3.272
23464W        W95889  38.903   3.232  10.102
23465W        W95890  10.315  36.837  13.618
23466W        W95891  44.737  27.664   3.621
23467W        W95892  12.787  10.179  13.528
23468W        W95893  25.947  35.603  10.615
23469W        W95894   6.908  21.693   0.549
23470W        W95895  16.770  22.277   3.434
23471W        W95896  40.406  42.969  14.957
23472W        W95897  29.682   4.534  13.388
23473W        W95898  28.926  10.712   4.722
23474W        W95899  36.000  38.395  12.962
23475W        W95900   9.411   4.698  12.394
23476W        W95901  27.678  41.413  14.268
23477W        W95902   9.281   5.726   3.721
23478W        W95903  17.710  34.436   0.838
23479W        W95904   4.204  17.664   2.779
23480W        W95905  11.569  24.303  11.001
23481W        W95906  41.161  35.492   2.726
23482W        W95907   7.341  35.088   4.492
23483W        W95908   0.463  32.402  10.610
23484W        W95909  37.320  18.309   3.675
23485W        W95910   9.816   3.243  13.134
23486W        W95911   8.458   9.129  10.507
23487W        W95912  33.975  30.185  12.638
23488W        W95913   2.320  35.466  14.482
23489W        W95914  21.686  29.993  11.507
23490W        W95915  13.569  17.218   2.455
23491W        W95916  32.139  20.098  14.750
23492W        W95917   0.494  41.352  14.760
23493W        W95918  39.432  42.122   2.883
23494W        W95919   3.936  32.330   0.939
23495W        W95920   1.981  29.880   3.636
23496W        W95921   7.701  34.003  10.709
23497W        W95922   1.214  13.065  11.929
23498W        W95923  44.802  26.176  11.726
23499W        W95924   5.184  40.237   0.525
23500W        W95925  31.158  20.995   0.976
23501W        W95926  33.075  41.445   2.027
23502W        W95927  32.452  23.830  12.936
23503W        W95928  34.998   4.895   2.303
23504W        W95929  18.982  34.403  10.573
23505W        W95930  16.400  31.147   1.724
23506W        W95931   5.269   5.691   4.223
23507W        W95932   3.398   1.346  10.739
23508W        W95933  28.151  12.073   1.914
23509W        W95934   7.186  33.908  10.709
23510W        W95935  21.334   1.227  11.764
23511W        W95936  23.175   1.087   0.835
23512W        W95937  31.968  35.574   1.946
23513W        W95938  37.009  12.552  14.346
23514W        W95939  44.500  28.471   3.336
23515W        W95940  17.786  19.078  11.877
23516W        W95941  24.595  42.609  14.304
23517W        W95942  42.543  16.748   1.342
23518W        W95943   4.289  15.742  11.377
23519W        W95944  20.183  16.915   4.561
23520W        W95945  43.333  29.685  13.773
23521W        W95946  18.791  26.846  12.584
23522W        W95947  32.485  20.219   3.430
23523W        W95948  27.770  17.628  14.952
23524W        W95949  32.189  30.114  12.414
23525W        W95950   0.495  36.095  10.532
23526W        W95951  36.948   0.485   3.313
23527W        W95952  30.579  30.023   2.212
23528W        W95953   1.803   4.233   2.377
23529W        W95954  42.846  41.994  13.866
23530W        W95955  10.458   2.980   1.033
23531W        W95956   1.971  42.914   0.795
23532W        W95957  17.899  28.493   4.973
23533W        W95958  22.457  44.355  14.636
23534W        W95959   8.188  22.598  13.764
23535W        W95960   7.511  25.246   2.842
23536W        W95961  26.479  30.693   2.792
23537W        W95962  19.616  18.330  10.671
23538W        W95963   7.508  21.133   0.878
23539W        W95964  28.514  12.705   4.853
23540W        W95965  26.059  35.113   4.799
23541W        W95966  12.671  35.624  13.667
23542W        W95967  25.543  10.815  12.489
23543W        W95968  11.354  42.270  13.048
23544W        W95969  40.390   0.358  10.057
23545W        W95970  19.532  26.952  13.325
23546W        W95971  32.939  38.770  12.296
23547W        W95972   8.957  25.942  10.228
23548W        W95973  18.808  26.419  10.637
23549W        W95974  11.749  43.913  11.470
23550W        W95975  35.581  37.776   4.178
23551W        W95976  30.017   1.340   1.244
23552W        W95977  32.515  24.162  10.718
23553W        W95978  10.179  32.573  14.811
23554W        W95979  22.599  20.432   2.413
23555W        W95980  14.043  30.964   3.989
23556W        W95981  11.311  38.813  14.870
23557W        W95982  32.455  12.661   0.008
23558W        W95983  43.359   5.978  13.493
23559W        W95984  16.895  43.592   1.271
23560W        W95985  38.106  31.824   1.836
23561W        W95986  42.911   0.846   3.562
23562W        W95987  17.328   2.069   2.886
23563W        W95988   1.999  24.125   2.792
23564W        W95989   3.350  29.643   3.225
23565W        W95990  32.922  41.147  11.977
23566W        W95991  23.924   7.179   1.359
23567W        W95992   7.097  27.120  12.846
23568W        W95993   7.830  17.131  14.944
23569W        W95994  40.414  38.910   3.697
23570W        W95995  40.455  18.258  11.615
23571W        W95996  16.669  14.159  13.901
23572W        W95997  26.563  12.337  10.636
23573W        W95998  27.432  34.454   2.805
23574W        W95999  39.826  24.307  12.866
23575W        W96000  30.013   2.390   0.268
23576W        W96001  12.424  40.415   0.326
23577W        W96002  14.194  18.035   4.601
23578W        W96003  40.393   0.053  11.627
23579W        W96004   3.037  42.979  10.636
23580W        W96005  44.253   0.840  14.970
23581W        W96006  12.554   1.388  14.450
23582W        W96007   3.834  21.568   3.078
23583W        W96008  40.251  26.450   2.382
23584W        W96009  26.597  24.293   2.256
23585W        W96010  28.253  41.100   4.139
23586W        W96011  21.653  26.665   1.927
23587W        W96012  18.662   3.773   2.699
23588W        W96013   1.404  35.162  11.597
23589W        W96014  14.657  15.137  11.012
23590W        W96015   2.077   6.797  10.698
23591W        W96016  21.162  21.595   2.591
23592W        W96017   5.806  41.990  14.991
23593W        W96018   6.864  44.270  12.952
23594W        W96019  41.935  28.011   2.408
23595W        W96020  18.592   5.339  10.564
23596W        W96021  44.564  38.561  10.704
23597W        W96022  30.616  25.179  12.988
23598W        W96023  16.429   0.602  14.366
23599W        W96024   9.381   8.350   4.621
23600W        W96025  16.215   2.863   4.614
23601W        W96026   5.343   3.659  14.109
23602W        W96027   2.428  16.018  11.009
23603W        W96028  31.514  43.451  13.807
23604W        W96029   0.881  14.861   4.150
23605W        W96030  22.072  29.653  11.472
23606W        W96031  23.907  19.036  14.192
23607W        W96032  42.486  17.511   0.306
23608W        W96033  34.164  24.472  11.170
23609W        W96034  18.665  24.063  14.377
23610W        W96035  26.758  25.165   2.837
23611W        W96036  32.133  14.805   0.895
23612W        W96037  32.260  16.578   5.057
23613W        W96038  17.152  24.789  12.580
23614W        W96039  37.908  43.008   0.439
23615W        W96040  23.986   1.476  14.731
23616W        W96041   5.712  16.491  14.140
23617W        W96042  20.083  23.252  13.076
23618W        W96043   8.857   6.891  11.904
23619W        W96044  44.703   7.252  11.049
23620W        W96045   5.317  13.095   1.760
23621W        W96046  30.809  12.848  10.887
23622W        W96047  11.845  12.205   4.620
23623W        W96048   9.262  17.777  14.753
23624W        W96049   9.247  15.763   0.037
23625W        W96050  19.672   7.805  11.113
23626W        W96051   7.685   5.789  11.164
23627W        W96052  14.507  22.043   1.550
23628W        W96053  23.923   8.038   1.848
23629W        W96054  38.497  32.694  11.433
23630W        W96055  35.527  12.000  11.529
23631W        W96056  17.332  40.238  12.313
23632W        W96057   1.442  18.019  12.034
23633W        W96058  27.692  31.028   9.816
23634W        W96059  30.611   9.292  12.965
23635W        W96060  10.388  24.587   2.256
23636W        W96061  38.826  20.475   3.239
23637W        W96062  24.205  27.019   0.738
23638W        W96063  37.564  21.045   0.852
23639W        W96064  28.733  31.204  14.485
23640W        W96065  36.267  21.545  12.019
23641W        W96066  12.628  34.526   2.593
23642W        W96067  31.643  27.386   1.354
23643W        W96068  38.035  17.786   2.704
23644W        W96069   2.226  35.431   1.730
23645W        W96070  15.777  23.789   0.824
23646W        W96071  30.517   0.482  14.292
23647W        W96072  19.208  11.866   4.061
23648W        W96073  18.208  43.009   5.115
23649W        W96074  41.933  10.463  14.432
23650W        W96075  28.073  37.033   0.393
23651W        W96076   4.154  18.585   2.898
23652W        W96077  29.555  25.786   0.234
23653W        W96078  29.213  41.010   4.593
23654W        W96079  23.528  35.718   2.687
23655W        W96080  10.634  23.797   1.315
23656W        W96081  43.599  15.814  13.063
23657W        W96082  40.905  26.948  11.139
23658W        W96083  25.483   1.751  14.959
23659W        W96084  13.816  27.405  14.492
23660W        W96085  38.575  35.935  13.910
23661W        W96086  17.746  40.340  11.640
23662W        W96087  20.544  10.784   1.156
23663W        W96088  10.863  34.480  13.882
23664W        W96089  41.431   3.365  14.484
23665W        W96090   8.748   3.126   2.750
23666W        W96091   2.340  10.109  12.000
23667W        W96092  40.217   3.492   4.110
23668W        W96093  41.750  22.702   1.006
23669W        W96094   3.336  13.642  12.852
23670W        W96095  23.262  25.410   0.738
23671W        W96096  39.354  22.020   4.101
23672W        W96097   6.603  21.986  14.305
23673W        W96098   7.413  44.604   1.795
23674W        W96099   3.860  15.344  12.917
23675W        W96100  23.445  32.491  11.540
23676W        W96101  44.650  14.952  13.761
23677W        W96102  37.815  24.505  13.562
23678W        W96103  29.970  12.588  14.905
23679W        W96104  15.696  13.837  13.449
23680W        W96105  14.032  13.797  11.163
23681W        W96106  13.551   4.878   0.718
23682W        W96107  22.819  34.776   1.268
23683W        W96108  16.973   8.441  13.028
23684W        W96109  25.093  21.425   1.293
23685W        W96110  20.304   5.023  10.059
23686W        W96111   8.806  26.916   3.401
23687W        W96112  39.532  26.939   0.313
23688W        W96113  38.259  33.936  12.028
23689W        W96114   4.769  27.568  14.935
23690W        W96115   7.096  37.650   9.924
23691W        W96116  43.249  34.831   4.079
23692W        W96117   1.703  29.577   2.655
23693W        W96118   0.786  24.800  11.571
23694W        W96119  14.551   6.115  10.855
23695W        W96120   0.357  25.876  13.304
23696W        W96121  14.708  40.420   4.362
23697W        W96122  28.067  31.154   5.046
23698W        W96123  15.907  13.020  10.682
23699W        W96124  38.353  40.127   0.495
23700W        W96125  40.573  36.573  13.390
23701W        W96126  11.850   9.245   0.542
23702W        W96127  39.970  41.458   1.780
23703W        W96128   7.891  24.037  11.079
23704W        W96129   9.820  25.100  10.649
23705W        W96130  29.974  19.352  13.385
23706W        W96131  25.077  22.450   1.249
23707W        W96132  18.998  30.103  13.189
23708W        W96133   9.350  21.493   2.473
23709W        W96134  43.858  16.859  12.522
23710W        W96135  31.050  35.346   0.412
23711W        W96136  26.646  41.369  12.138
23712W        W96137   0.900   9.602  12.645
23713W        W96138  16.167  10.185   3.640
23714W        W96139  24.098  37.871   2.528
23715W        W96140  35.140  25.151  13.369
23716W        W96141  27.510   5.295  12.959
23717W        W96142  22.523  14.394   1.860
23718W        W96143  28.837  34.307   3.652
23719W        W96144  14.676  14.082  12.309
23720W        W96145  13.130  41.291  14.400
23721W        W96146  44.248  21.520  10.689
23722W        W96147  42.694  23.171   3.092
23723W        W96148  21.716   1.934   5.076
23724W        W96149  36.840  28.479   1.357
23725W        W96150  33.334  43.716  13.940
23726W        W96151  25.343  13.396   2.665
23727W        W96152  37.442  23.243  12.581
23728W        W96153  10.751  18.980   0.979
23729W        W96154  40.146  17.553  10.298
23730W        W96155   9.841  36.479  11.509
23731W        W96156  22.343  30.333  13.055
23732W        W96157  17.790  12.601   2.860
23733W        W96158  34.081  22.769   0.860
23734W        W96159   9.120  41.475  13.667
23735W        W96160  33.549  37.951   1.786
23736W        W96161   4.167  13.546  11.670
23737W        W96162  27.926  35.223  10.807
23738W        W96163  27.000  41.422  14.909
23739W        W96164  19.236  39.576   1.759
23740W        W96165  19.265  26.783  14.895
23741W        W96166  20.962  19.576  13.901
23742W        W96167  30.901  37.277  11.643
23743W        W96168  19.502  29.355   3.272
23744W        W96169  13.382   5.160  13.921
23745W        W96170  33.431  43.978  12.066
23746W        W96171  14.676  25.695   2.085
23747W        W96172  37.685   3.847   2.783
23748W        W96173  35.856   4.372  10.639
23749W        W96174  19.559  43.312  10.635
23750W        W96175  31.396   8.713  13.758
23751W        W96176  21.279  19.738   0.173
23752W        W96177  19.155  43.739  12.806
23753W        W96178  38.525  16.536  11.655
23754W        W96179   8.168  26.963   2.101
23755W        W96180  13.644   8.101   3.622
23756W        W96181  23.354   6.978   0.817
23757W        W96182  11.091  36.432  14.605
23758W        W96183  23.998   8.982   4.216
23759W        W96184  37.855   9.335  11.451
23760W        W96185  32.490   4.919  12.877
23761W        W96186  19.762  42.256  14.089
23762W        W96187  26.171  19.608   3.262
23763W        W96188  18.641  43.525   2.860
23764W        W96189  34.341  29.434  13.410
23765W        W96190  41.618  34.486   4.673
23766W        W96191  34.165  21.505   1.910
23767W        W96192  32.641  37.969   0.293
23768W        W96193  25.185  39.344  12.880
23769W        W96194  17.831  39.818  12.908
23770W        W96195  26.544   4.624  11.121
23771W        W96196  35.140  35.197   1.277
23772W        W96197   2.973  30.400  14.243
23773W        W96198  40.083   2.750   1.425
23774W        W96199  32.932  38.459   2.631
23775W        W96200  43.258  40.599  12.838
23776W        W96201   1.758   5.059  10.603
23777W        W96202   1.275  39.446   2.427
23778W        W96203  31.105  28.987   0.330
23779W        W96204  12.544  43.421  10.941
23780W        W96205  17.475  19.965  14.432
23781W        W96206   8.800   5.216   2.901
23782W        W96207   2.213  30.317   0.805
23783W        W96208   9.030  12.621  13.655
23784W        W96209   4.410   0.019  13.970
23785W        W96210   2.213   0.794  12.149
23786W        W96211  37.986  13.136  13.798
23787W        W96212  39.897  34.211  14.922
23788W        W96213  35.450  23.141   1.094
23789W        W96214  35.884  31.544   2.097
23790W        W96215   8.610  25.497   2.181
23791W        W96216  23.048  33.876  12.827
23792W        W96217  12.155  21.383  13.602
23793W        W96218  25.182   0.757  14.893
23794W        W96219   0.816  28.019  13.044
23795W        W96220  43.221  17.956   5.172
23796W        W96221  29.906   7.783  11.827
23797W        W96222   0.875   9.487   1.887
23798W        W96223   7.876  18.525   4.059
23799W        W96224   9.605  21.163  14.839
23800W        W96225   4.152   6.397   0.872
23801W        W96226   5.646  18.288  11.594
23802W        W96227  16.557  43.720  14.471
23803W        W96228  12.916  14.358  14.407
23804W        W96229   6.294  21.621   2.608
23805W        W96230  23.196  25.363  13.004
23806W        W96231   8.248  39.870   2.724
23807W        W96232  36.323  33.807   4.155
23808W        W96233  35.479  44.295   0.296
23809W        W96234  14.226  22.686   2.739
23810W        W96235   6.589   7.265   4.855
23811W        W96236  27.973   9.523   1.815
23812W        W96237  24.669   5.008  14.755
23813W        W96238   8.773  30.991   4.621
23814W        W96239  42.421   4.360   2.743
23815W        W96240  34.835  34.410  11.182
23816W        W96241  28.115  17.240  12.041
23817W        W96242  35.874  16.584   0.432
23818W        W96243   6.324  27.611   4.870
23819W        W96244   1.414  20.744  11.014
23820W        W96245  39.982  17.390   1.808
23821W        W96246  32.659   5.418  12.462
23822W        W96247   4.924  17.831  12.477
23823W        W96248  41.907   4.421  10.651
23824W        W96249   0.256  35.026   3.254
23825W        W96250  37.381   0.007  11.742
23826W        W96251  14.967   4.199  11.866
23827W        W96252  43.636  35.407   2.635
23828W        W96253  24.514  23.984   3.713
23829W        W96254  41.595  13.061  10.696
23830W        W96255   1.409  29.443  12.137
23831W        W96256  35.141  39.437  14.310
23832W        W96257  39.023  42.790   1.737
23833W        W96258  33.513  22.105   1.912
23834W        W96259   7.884   3.635   4.276
23835W        W96260  11.288  37.339   0.975
23836W        W96261   7.384  40.877   2.748
23837W        W96262  22.141  16.378   0.621
23838W        W96263  21.472  31.263   3.656
23839W        W96264   3.841  17.951   1.145
23840W        W96265  33.591  20.347   2.606
23841W        W96266  38.388   7.271   3.681
23842W        W96267  22.613  41.766  12.239
23843W        W96268  43.501  38.848  12.465
23844W        W96269  13.111  36.163   0.925
23845W        W96270   1.694   1.040  11.762
23846W        W96271  22.989  30.091   1.411
23847W        W96272  38.791  17.665  14.488
23848W        W96273  26.942  44.939   2.375
23849W        W96274  22.530  35.621   0.783
23850W        W96275  40.284  21.080   4.535
23851W        W96276  26.275   0.876  10.711
23852W        W96277  13.166  40.253  11.197
23853W        W96278  35.032  44.256  11.995
23854W        W96279  16.992  41.687   1.728
23855W        W96280  16.686  22.568  12.301
23856W        W96281  32.875  23.039   2.591
23857W        W96282  35.660  12.274  13.284
23858W        W96283  38.988   8.807  13.450
23859W        W96284   8.759  10.230  14.558
23860W        W96285  17.239  44.429   4.619
23861W        W96286  41.025  40.685   1.483
23862W        W96287  34.293  41.055  13.492
23863W        W96288  16.306  16.324   4.808
23864W        W96289  29.600  38.760   0.788
23865W        W96290  43.330  33.396   0.800
23866W        W96291   1.741  41.525  11.454
23867W        W96292   4.711  11.692  11.991
23868W        W96293  35.068  37.392  13.410
23869W        W96294  19.160  19.005   4.480
23870W        W96295  15.731  32.842  14.319
23871W        W96296   0.499  36.980   1.400
23872W        W96297  34.174  22.172  11.721
23873W        W96298  34.984   9.075   4.647
23874W        W96299  27.019  34.899  10.582
23875W        W96300   7.525  33.051  13.841
23876W        W96301  17.551  20.485   4.041
23877W        W96302  33.521  27.699   4.555
23878W        W96303  30.383  39.580   2.212
23879W        W96304  23.072  23.545  13.311
23880W        W96305  14.386  27.063  13.155
23881W        W96306  37.469  32.651   0.763
23882W        W96307  35.866  39.813   1.390
23883W        W96308  37.332  44.558  13.628
23884W        W96309   5.963   7.658  12.570
23885W        W96310   0.961  13.994   1.262
23886W        W96311  19.280   2.265  12.860
23887W        W96312  42.862   3.305   0.838
23888W        W96313  34.642   0.345  11.517
23889W        W96314  42.511  28.258   0.053
23890W        W96315  41.882  39.349   0.413
23891W        W96316  36.502  40.787  13.847
23892W        W96317  41.561  44.771   2.871
23893W        W96318   2.813   4.306  10.830
23894W        W96319   6.486  43.898  11.106
23895W        W96320  24.733  33.571  10.720
23896W        W96321  11.076   2.426   2.712
23897W        W96322   3.756  24.091   4.731
23898W        W96323  34.100   0.771  11.093
23899W        W96324  12.372  20.179  11.975
23900W        W96325  24.837  31.162   4.287
23901W        W96326  14.642  20.165  12.076
23902W        W96327  29.527   5.861  12.923
23903W        W96328   3.347  35.465   3.371
23904W        W96329  23.580  41.318  13.049
23905W        W96330  29.680   9.642   1.077
23906W        W96331  26.965   8.207   3.800
23907W        W96332   1.321  41.819  11.106
23908W        W96333  28.154  11.288   1.154
23909W        W96334  40.298  22.227   4.102
23910W        W96335  35.956  11.162   4.629
23911W        W96336  33.996  35.370  11.280
23912W        W96337  30.912  37.898  13.477
23913W        W96338  31.480   5.840  11.676
23914W        W96339  17.310  43.587  14.785
23915W        W96340   6.985  44.341  14.397
23916W        W96341  16.556  28.384   3.867
23917W        W96342  28.993   2.900   2.169
23918W        W96343  24.705  27.052  10.742
23919W        W96344  35.338  34.389   2.881
23920W        W96345  33.972  38.584  10.425
23921W        W96346  31.378   9.195   1.016
23922W        W96347  42.788  38.842   1.271
23923W        W96348  36.070  15.625   4.734
23924W        W96349   6.224  17.043   2.848
23925W        W96350  35.029  13.175  12.440
23926W        W96351  30.883  18.703  10.689
23927W        W96352  37.731  22.635   1.378
23928W        W96353   6.560  36.975   4.011
23929W        W96354   2.256   8.897   0.804
23930W        W96355   4.856  37.527   0.546
23931W        W96356   3.759   4.990  12.954
23932W        W96357  11.764  26.561  14.316
23933W        W96358  25.688  31.993   2.605
23934W        W96359  36.600  10.333  12.875
23935W        W96360  20.599  32.542   4.402
23936W        W96361  27.977  36.951  12.035
23937W        W96362  38.428  30.853  10.560
23938W        W96363  35.416  10.571  11.897
23939W        W96364  15.096  34.355   0.540
23940W        W96365  35.381  37.673   5.003
23941W        W96366  27.556  32.280   9.622
23942W        W96367  42.723  26.665   3.134
23943W        W96368  27.496   4.699  11.363
23944W        W96369  13.028  42.854  11.191
23945W        W96370  11.747  42.830  10.028
23946W        W96371   2.493   8.476   5.056
23947W        W96372   9.170  43.759  10.585
23948W        W96373  41.491  39.843   1.904
23949W        W96374  19.516  28.195  11.680
23950W        W96375   2.320  31.374   0.941
23951W        W96376   3.767  15.712  13.637
23952W        W96377  23.216  30.367   4.567
23953W        W96378   7.080  43.298  14.992
23954W        W96379  23.412   2.182  11.492
23955W        W96380  21.184  26.045  12.981
23956W        W96381  35.569  40.631   1.138
23957W        W96382  35.159   4.338  11.894
23958W        W96383  11.650  26.505   3.356
23959W        W96384  19.836  32.175   4.922
23960W        W96385  10.439  34.822   1.006
23961W        W96386  12.223  35.914  14.916
23962W        W96387  26.886  43.250   4.255
23963W        W96388  21.548   2.182   4.625
23964W        W96389  38.623   5.697   0.271
23965W        W96390  30.141  32.812  12.953
23966W        W96391   6.142  17.115   0.924
23967W        W96392   6.274  10.083   0.644
23968W        W96393   6.107  17.209   3.325
23969W        W96394  43.044  38.264   4.191
23970W        W96395  25.147   4.378   3.100
23971W        W96396  19.212  33.114   1.529
23972W        W96397  33.333  17.265   0.014
23973W        W96398  28.972  39.065   3.725
23974W        W96399  11.232   4.807  14.423
23975W        W96400  26.698  28.464   4.777
23976W        W96401  43.968  13.419  12.610
23977W        W96402  40.612  12.711  10.733
23978W        W96403  28.383  24.676   4.739
23979W        W96404   3.948  22.528  10.226
23980W        W96405  18.753  39.968  13.843
23981W        W96406  15.815   4.278  11.417
23982W        W96407  13.845  31.643  13.537
23983W        W96408  12.594  40.576  11.701
23984W        W96409  34.781  21.535  11.935
23985W        W96410   5.293  31.863   4.589
23986W        W96411  34.083  21.484   3.757
23987W        W96412  20.108  25.574   0.536
23988W        W96413  18.859  25.261  11.442
23989W        W96414  14.072  33.520   3.801
23990W        W96415  19.052  18.208   2.688
23991W        W96416  13.833   5.860   2.182
23992W        W96417  40.880  24.578  12.584
23993W        W96418  38.344   1.880  14.903
23994W        W96419  34.329  13.722  12.438
23995W        W96420   1.999  18.648  11.147
23996W        W96421  24.583  27.522  14.346
23997W        W96422  29.452  23.461   9.811
23998W        W96423  36.388  15.777   1.385
23999W        W96424  14.193  35.548  14.814
24000W        W96425  21.270  15.315   3.271
24001W        W96426  22.573  40.738   0.651
24002W        W96427  14.258  16.119  11.907
24003W        W96428  43.948  10.736   2.385
24004W        W96429  24.594  21.487   2.324
24005W        W96430  22.512  33.742   4.891
24006W        W96431   0.015  22.942   2.641
24007W        W96432  38.066  34.005  14.073
24008W        W96433  11.620  26.931  11.179
24009W        W96434  39.078  22.190  12.889
24010W        W96435  16.677  28.178  11.728
24011W        W96436  30.472  22.045  12.572
24012W        W96437  28.421  38.595  13.239
24013W        W96438   2.019  44.425   1.726
24014W        W96439  14.694   8.787   0.332
24015W        W96440  12.736  21.987   5.065
24016W        W96441  12.610  36.845  14.933
24017W        W96442  21.826  16.346   2.732
24018W        W96443  31.210  17.935  10.752
24019W        W96444  27.098   2.695   0.263
24020W        W96445  21.977  38.535   1.315
24021W        W96446  43.934  44.029   1.793
24022W        W96447  31.108  36.870   4.033
24023W        W96448  17.791  43.434   0.774
24024W        W96449   0.320  40.589  13.441
24025W        W96450   2.754  42.419   0.587
24026W        W96451  11.904  23.596   3.509
24027W        W96452  43.312   0.609   3.801
24028W        W96453   6.207  27.479  12.886
24029W        W96454  20.277  22.608   1.082
24030W        W96455  42.780  25.054  10.201
24031W        W96456   6.176   7.946  12.210
24032W        W96457  16.755  34.543   4.528
24033W        W96458  32.415  24.497  13.774
24034W        W96459  26.287  33.451   1.949
24035W        W96460  41.845  28.676   3.807
24036W        W96461  22.251  43.389   4.266
24037W        W96462  30.044  10.206   1.711
24038W        W96463  14.149  12.254  11.006
24039W        W96464  12.835   4.204  12.986
24040W        W96465  32.413  13.777   0.988
24041W        W96466  37.644  11.670   0.440
24042W        W96467   4.205  33.164   2.855
24043W        W96468  39.844  35.408   4.429
24044W        W96469  30.888  27.012  13.608
24045W        W96470  40.862  30.964  13.153
24046W        W96471  17.072  14.038  11.573
24047W        W96472   8.995  12.175  10.428
24048W        W96473  29.986  42.973  14.500
24049W        W96474  44.372  19.264   1.886
24050W        W96475  34.504  30.019   2.705
24051W        W96476  22.751  22.805  14.417
24052W        W96477  14.731  29.536   2.159
24053W        W96478  10.210  24.119   1.318
24054W        W96479  19.796  36.207  12.552
24055W        W96480  21.504   8.787  12.557
24056W        W96481  36.237   8.751   4.853
24057W        W96482   8.675   4.891   1.593
24058W        W96483  39.141  32.959   4.975
24059W        W96484   7.715  32.001   1.734
24060W        W96485   7.846  24.961   3.705
24061W        W96486  10.371  28.694   4.478
24062W        W96487  36.370  11.529  13.700
24063W        W96488  42.762  32.514  13.299
24064W        W96489  13.097  17.787   0.012
24065W        W96490   4.150  16.084  12.116
24066W        W96491  39.035   9.172  12.598
24067W        W96492  12.226   1.014  12.786
24068W        W96493  12.536  22.339  13.559
24069W        W96494   5.090  23.155  10.891
24070W        W96495   6.465  21.959  12.423
24071W        W96496  28.184   3.970   3.312
24072W        W96497  41.084  23.968  13.753
24073W        W96498  13.053  38.801  13.065
24074W        W96499  31.960  10.097   4.732
24075W        W96500   2.197  15.665   0.253
24076W        W96501   3.913  14.296  12.629
24077W        W96502  29.403  43.223   2.796
24078W        W96503  12.371  26.075  11.254
24079W        W96504   7.649   8.737  13.379
24080W        W96505  43.539  22.149   4.984
24081W        W96506  37.010  37.010  12.357
24082W        W96507   2.454  23.603   3.332
24083W        W96508  44.868  22.450   0.386
24084W        W96509   3.564  28.336   5.068
24085W        W96510   1.271  16.599  13.752
24086W        W96511  34.793  31.943  11.076
24087W        W96512  10.112  27.014  13.153
24088W        W96513   0.284   5.230   0.290
24089W        W96514   3.507  24.769   3.354
24090W        W96515  30.563   5.503  11.361
24091W        W96516  23.457  29.035   0.307
24092W        W96517  44.831  33.073  14.792
24093W        W96518  28.445  18.347  12.559
24094W        W96519  22.010  35.045  11.153
24095W        W96520  37.094  25.238   4.577
24096W        W96521   6.620  35.023   4.759
24097W        W96522  11.566  43.862   2.098
24098W        W96523  18.636  16.798  11.672
24099W        W96524   5.648  41.294  10.703
24100W        W96525  11.781  18.031  11.616
24101W        W96526  33.369  20.662   2.252
24102W        W96527   7.622   6.285   2.663
24103W        W96528  25.098  30.570   0.529
24104W        W96529  10.778  43.760  12.191
24105W        W96530   8.728  43.864  10.876
24106W        W96531  13.051  35.532  11.902
24107W        W96532  13.355  23.739  14.944
24108W        W96533  38.086  11.150  10.971
24109W        W96534   9.244  30.020  13.485
24110W        W96535  17.334  33.545  13.044
24111W        W96536  20.029  30.009   4.374
24112W        W96537  41.933  18.154   3.182
24113W        W96538  21.845  14.352  13.721
24114W        W96539  13.235   4.986  10.629
24115W        W96540  34.096  39.526   0.906
24116W        W96541  25.985  31.676   1.758
24117W        W96542  20.218  18.647  10.686
24118W        W96543  34.791  27.567   0.916
24119W        W96544  37.516  28.645  14.880
24120W        W96545  39.167  26.547   0.378
24121W        W96546   6.442  16.093  13.284
24122W        W96547  24.522  28.641  14.758
24123W        W96548  14.005  36.833  11.146
24124W        W96549  31.678  34.610   0.339
24125W        W96550  13.594   9.421  13.943
24126W        W96551  13.164   0.138   2.484
24127W        W96552  14.136  30.180   3.487
24128W        W96553   4.649  33.418   4.528
24129W        W96554   4.337  14.625  12.708
24130W        W96555  37.108  16.341  13.573
24131W        W96556  35.761  15.773  13.757
24132W        W96557  37.183  28.507   3.155
24133W        W96558  21.613  42.716   5.032
24134W        W96559  28.038  33.646  14.734
24135W        W96560  18.640  15.338   1.713
24136W        W96561  11.358   0.772   3.852
24137W        W96562  27.482  25.604   2.735
24138W        W96563  41.462  18.284  12.544
24139W        W96564   1.861   4.967  13.466
24140W        W96565   3.940  14.128   0.508
24141W        W96566  40.133  11.035   0.278
24142W        W96567  11.837  39.325   4.802
24143W        W96568   3.277  21.193  12.104
24144W        W96569  41.534  13.313   3.089
24145W        W96570  28.600  21.812  11.200
24146W        W96571  37.432  38.378   1.951
24147W        W96572   5.452  22.239  12.390
24148W        W96573  14.019  44.238   0.002
24149W        W96574  19.467   4.957  14.930
24150W        W96575  35.110  33.352  14.055
24151W        W96576  12.414  25.384  14.784
24152W        W96577  10.300  35.340  13.442
24153W        W96578  34.894  22.118   2.769
24154W        W96579  16.103  37.222  10.495
24155W        W96580  32.061  20.441   1.776
24156W        W96581  25.668  27.182  12.905
24157W        W96582  36.916  33.665   3.114
24158W        W96583  16.563  31.169  12.528
24159W        W96584  33.313  10.256  12.758
24160W        W96585   9.280  37.321  11.170
24161W        W96586   6.615  34.720  11.965
24162W        W96587  27.897  26.717  11.072
24163W        W96588  25.010  41.601   3.247
24164W        W96589   7.569   6.545  12.500
24165W        W96590  35.319  41.092  14.490
24166W        W96591  15.255  35.800  10.882
24167W        W96592   7.588   4.402  13.858
24168W        W96593   2.748  27.581   3.400
24169W        W96594   1.608  26.493  13.355
24170W        W96595   7.085  36.934   3.954
24171W        W96596  18.830  26.518   0.800
24172W        W96597  26.950  27.566   0.177
24173W        W96598  44.321  32.366  11.538
24174W        W96599  22.051  12.022  13.717
24175W        W96600  11.607  44.222  12.059
24176W        W96601  35.512  20.330   4.120
24177W        W96602  17.797  29.494   1.677
24178W        W96603  15.079  25.671  11.548
24179W        W96604  41.291  22.731   2.275
24180W        W96605  29.456   3.334  13.062
24181W        W96606   1.461   9.081   4.409
24182W        W96607  11.615  25.102  12.451
24183W        W96608   0.908  28.194   1.749
24184W        W96609  35.540  28.689  12.948
24185W        W96610  13.372  41.004  13.974
24186W        W96611   3.410  35.961   2.800
24187W        W96612   6.466  29.482   2.661
24188W        W96613  39.064  31.076  10.868
24189W        W96614   9.371  16.764  13.576
24190W        W96615  41.954  14.783   4.265
24191W        W96616  38.032  30.677  10.836
24192W        W96617  43.965  44.536   1.717
24193W        W96618  40.578  27.895   9.824
24194W        W96619  21.518  11.757  12.562
24195W        W96620   8.366  10.162  13.380
24196W        W96621  32.051  15.722   0.478
24197W        W96622   0.127  40.851   0.106
24198W        W96623  13.100   9.704  12.065
24199W        W96624  43.310   7.972   3.610
24200W        W96625  27.209   1.810   4.769
24201W        W96626  24.079  21.076  13.347
24202W        W96627  20.771   5.447  14.803
24203W        W96628   2.179  20.062   3.665
24204W        W96629  34.991  29.834  12.811
24205W        W96630  23.070   1.228  10.775
24206W        W96631  10.938  18.156  14.425
24207W        W96632  44.929  44.215  11.570
24208W        W96633  42.756  40.360   4.442
24209W        W96634  24.414  26.533   0.907
24210W        W96635   7.330  36.014   4.411
24211W        W96636  33.179  30.640   4.214
24212W        W96637  35.424  11.055   4.716
24213W        W96638  34.423  43.327   3.139
24214W        W96639  43.487  27.049  10.846
24215W        W96640  24.180   1.177  12.298
24216W        W96641  40.143  10.529   1.038
24217W        W96642   5.433   8.039   4.606
24218W        W96643  15.305  44.479   0.780
24219W        W96644   4.174  43.346  14.895
24220W        W96645   2.819  27.900  11.187
24221W        W96646  16.741  44.059   3.872
24222W        W96647  29.016  31.443  11.438
24223W        W96648   2.041  16.581   2.743
24224W        W96649  21.161  36.899  14.549
24225W        W96650  18.771  13.771  12.133
24226W        W96651   6.616   2.300   3.208
24227W        W96652  14.081  24.028   0.770
24228W        W96653  43.705  37.644  10.050
24229W        W96654   4.292  10.163  14.946
24230W        W96655  29.164  38.359  11.585
24231W        W96656   7.167  35.370   2.363
24232W        W96657   9.114  26.449   0.864
24233W        W96658  14.373  28.527  10.658
24234W        W96659   7.249   0.938  14.411
24235W        W96660  33.998  12.167   1.750
24236W        W96661  16.562   8.660   1.798
24237W        W96662   2.374  11.706  11.271
24238W        W96663  18.774  39.796   1.702
24239W        W96664   7.372  32.769  14.546
24240W        W96665  32.888  18.445   4.147
24241W        W96666  15.511   4.685   4.165
24242W        W96667  44.225  34.370   3.189
24243W        W96668   4.379   0.846  12.839
24244W        W96669  34.415  42.955  11.995
24245W        W96670  37.333  10.789   1.324
24246W        W96671  14.253   2.395   4.379
24247W        W96672  35.423  16.580   1.894
24248W        W96673  32.635  27.531   1.219
24249W        W96674  14.587  15.977   0.019
24250W        W96675  31.544  12.770  13.140
24251W        W96676  27.917  39.943   2.155
24252W        W96677  22.627  18.558   1.511
24253W        W96678   7.574  28.626  12.074
24254W        W96679  28.148  36.598  10.639
24255W        W96680  28.871  13.585  13.518
24256W        W96681  16.347  33.579   1.883
24257W        W96682   8.670   0.704  14.359
24258W        W96683  44.037  21.709  11.920
24259W        W96684  34.515  43.501  13.403
24260W        W96685  20.711  39.552   1.196
24261W        W96686   6.567  22.144  10.645
24262W        W96687   3.632  18.081  11.700
24263W        W96688  40.377  20.236  12.013
24264W        W96689  26.964  20.047  11.884
24265W        W96690  40.983  35.034   1.874
24266W        W96691  27.565   5.668  14.956
24267W        W96692  42.150  14.882  10.895
24268W        W96693   0.439  37.935   3.610
24269W        W96694  26.596   1.039   1.792
24270W        W96695  42.156   9.494  11.416
24271W        W96696  21.335  42.583  14.927
24272W        W96697   7.733  26.335  12.951
24273W        W96698  13.595  10.303  14.986
24274W        W96699  27.926  16.566   3.577
24275W        W96700  12.844  43.067  12.517
24276W        W96701   5.269  13.658   3.166
24277W        W96702   5.709  23.231  12.564
24278W        W96703  16.227  35.993   2.264
24279W        W96704  15.756  43.399  10.431
24280W        W96705  27.454   8.224   3.675
24281W        W96706   2.013  20.234  10.596
24282W        W96707   0.096  23.649  12.437
24283W        W96708  31.245  38.734   1.993
24284W        W96709  20.327  40.482  12.248
24285W        W96710  14.712   0.775  11.781
24286W        W96711  32.501  29.138  13.055
24287W        W96712  30.501   0.807   4.524
24288W        W96713  12.106   7.863  11.061
24289W        W96714  15.254  30.169   0.186
24290W        W96715   8.201  24.304  13.982
24291W        W96716  27.025  33.628   1.240
24292W        W96717   0.543  18.530   0.695
24293W        W96718  36.658  36.113   4.905
24294W        W96719   7.850  11.810   5.029
24295W        W96720   8.168  32.962   1.923
24296W        W96721  28.131  31.410  10.998
24297W        W96722  37.398   3.517  14.443
24298W        W96723  11.691   7.140   2.564
24299W        W96724  15.719  40.795   3.155
24300W        W96725  43.853   1.346   1.250
24301W        W96726  36.106  40.837   2.767
24302W        W96727   2.980   6.045  11.571
24303W        W96728  30.563  11.849  12.311
24304W        W96729  19.154   7.607   2.711
24305W        W96730  37.118   6.820   3.368
24306W        W96731   4.388  26.585  13.296
24307W        W96732  27.065  11.884  14.373
24308W        W96733  41.790   0.363  14.377
24309W        W96734  28.682  29.953   2.903
24310W        W96735  32.386  30.919  10.595
24311W        W96736  39.042   9.120  14.826
24312W        W96737  27.219  25.136  14.753
24313W        W96738   6.213  20.928  13.458
24314W        W96739   3.490  10.929   3.328
24315W        W96740  29.529  34.441  13.003
24316W        W96741   3.742  16.303  11.165
24317W        W96742  22.256  23.889  11.492
24318W        W96743  14.212  12.742  10.264
24319W        W96744  40.618  34.313  12.066
24320W        W96745  25.589  42.885   1.939
24321W        W96746  23.507  25.908   0.015
24322W        W96747  42.237   4.885  10.718
24323W        W96748  16.649  44.561   3.906
24324W        W96749  16.126  31.570  10.702
24325W        W96750   7.142  22.715  12.595
24326W        W96751  16.144   8.002   0.219
24327W        W96752  14.583  39.903  13.426
24328W        W96753  20.224  36.813  11.848
24329W        W96754  16.052  39.573  11.164
24330W        W96755  41.414  25.328   3.562
24331W        W96756  14.543  34.148  14.982
24332W        W96757  17.215  39.959  14.045
24333W        W96758  14.178  32.882  12.505
24334W        W96759  27.570  23.795   2.351
24335W        W96760  28.986  26.102  11.104
24336W        W96761  14.087  42.071  11.767
24337W        W96762  13.426  37.681  13.412
24338W        W96763   5.846  22.379   1.344
24339W        W96764  36.923   4.482  12.340
24340W        W96765   2.449  35.245  11.027
24341W        W96766  25.114  44.905   2.623
24342W        W96767  26.115  19.845  10.608
24343W        W96768  18.080  32.639   4.589
24344W        W96769  13.715  11.683  14.488
24345W        W96770  13.304  43.000  10.786
24346W        W96771  30.752  23.645   4.699
24347W        W96772  40.404   4.197   3.705
24348W        W96773  32.503  13.111   4.318
24349W        W96774  21.514   4.381  12.777
24350W        W96775  18.588  22.258  13.464
24351W        W96776  37.434  42.432   0.286
24352W        W96777   4.871  33.906   3.610
24353W        W96778  37.879  43.814  14.223
24354W        W96779  30.955   9.158  12.607
24355W        W96780  34.006  36.405   0.194
24356W        W96781  23.396  30.462  10.644
24357W        W96782  12.579  22.049   1.137
24358W        W96783  36.822  32.623   3.206
24359W        W96784  38.136  43.828   2.241
24360W        W96785  32.534  25.067  14.559
24361W        W96786  18.671  43.084   4.095
24362W        W96787  15.092   2.715  10.719
24363W        W96788  18.108  43.682   3.911
24364W        W96789  38.526  14.380  10.754
24365W        W96790  41.339   3.973   0.930
24366W        W96791  29.477   2.922   0.920
24367W        W96792  23.067   1.016  12.016
24368W        W96793  24.145  37.728  14.774
24369W        W96794  23.809  35.178   0.275
24370W        W96795  36.527   8.365   4.156
24371W        W96796  17.219   7.728  13.422
24372W        W96797  27.149  12.840   0.386
24373W        W96798   5.455  20.914   2.284
24374W        W96799  13.411   3.445  12.471
24375W        W96800  26.020  18.457   1.330
24376W        W96801   5.554  10.328  12.695
24377W        W96802  37.653  13.096   3.655
24378W        W96803   4.963   6.379   3.598
24379W        W96804  37.210   6.516  10.224
24380W        W96805   8.066   8.305   1.119
24381W        W96806  13.046   6.408  11.418
24382W        W96807   5.089   2.749   0.344
24383W        W96808   2.977  36.407  14.437
24384W        W96809   9.608  31.348   2.613
24385W        W96810  34.571  17.286  13.978
24386W        W96811  44.361  30.036   0.066
24387W        W96812  17.085   3.958  14.973
24388W        W96813  21.713  27.009   4.172
24389W        W96814  38.970  14.539  12.940
24390W        W96815  28.040  30.906   0.420
24391W        W96816  34.532  20.271   4.243
24392W        W96817  33.011   9.177  11.140
24393W        W96818  25.346  38.911  11.559
24394W        W96819  43.671   7.161  11.503
24395W        W96820  41.948   1.037   2.656
24396W        W96821  10.835  14.336  14.732
24397W        W96822  20.428  33.330  11.053
24398W        W96823   3.710  36.036  10.334
24399W        W96824  25.267   1.785   2.252
24400W        W96825  29.228  12.628  14.370
24401W        W96826  31.384  21.574  14.347
24402W        W96827   1.373  44.344   3.802
24403W        W96828   0.554  43.888  11.828
24404W        W96829   7.406  41.397  13.932
24405W        W96830  21.234  34.855   3.569
24406W        W96831   4.288   1.943   3.366
24407W        W96832  30.698  26.912  10.555
24408W        W96833  44.824  30.411  12.943
24409W        W96834  42.525  13.183   3.196
24410W        W96835  31.849  21.576   0.786
24411W        W96836  13.899  27.494  10.680
24412W        W96837  25.166   4.021   0.282
24413W        W96838  38.127  15.284   4.177
24414W        W96839  39.513  39.069   1.682
24415W        W96840   2.437   4.898  13.381
24416W        W96841  38.365  32.076  11.123
24417W        W96842   7.415   0.752  11.683
24418W        W96843  31.433  19.896  13.366
24419W        W96844  32.035  43.223   2.309
24420W        W96845   2.503   9.360  10.779
24421W        W96846   3.477  32.565   0.919
24422W        W96847  13.006  21.435   1.146
24423W        W96848   0.210  18.714  13.997
24424W        W96849  24.511  38.038  12.465
24425W        W96850  38.377  36.759  14.480
24426W        W96851  31.814   0.436   3.790
24427W        W96852  26.948  15.731  11.475
24428W        W96853  39.819  39.428  10.645
24429W        W96854  33.029  32.657   3.184
24430W        W96855  24.552   3.673  11.138
24431W        W96856  43.314  37.174  14.777
24432W        W96857   4.809  15.898  12.714
24433W        W96858  34.044  41.930  12.399
24434W        W96859  42.492  41.975   2.389
24435W        W96860   8.300   6.310  13.879
24436W        W96861  25.368  14.133  12.718
24437W        W96862   3.189   7.621  13.533
24438W        W96863   3.751  40.594  10.376
24439W        W96864  44.476   8.301   4.065
24440W        W96865   5.507  17.743  14.508
24441W        W96866   3.004  41.745  11.907
24442W        W96867  34.593  16.255  12.929
24443W        W96868  36.522  40.906   4.526
24444W        W96869  38.827  20.218  11.973
24445W        W96870   4.448  28.377  12.937
24446W        W96871  25.915  21.793   2.743
24447W        W96872   1.946  35.020   1.862
24448W        W96873  24.487  24.026  12.089
24449W        W96874  37.641  26.434  14.292
24450W        W96875   8.735  43.339   3.336
24451W        W96876  24.297  14.602  12.167
24452W        W96877  32.646  41.352   4.192
24453W        W96878  33.914  10.346  10.173
24454W        W96879   4.352  13.654  13.044
24455W        W96880  29.451   1.870   0.805
24456W        W96881  38.972  29.985   3.785
24457W        W96882   9.384   9.977  12.562
24458W        W96883  20.197  34.691   0.305
24459W        W96884  10.742  32.719   3.162
24460W        W96885   9.297   8.344   3.331
24461W        W96886  18.361  14.555  11.616
24462W        W96887  35.622  17.342   2.863
24463W        W96888  27.953  22.466  11.566
24464W        W96889  39.664  31.233  12.569
24465W        W96890  20.210  41.088   0.372
24466W        W96891   6.832   1.767  14.382
24467W        W96892   6.349  27.192  13.377
24468W        W96893  41.438   1.067   2.578
24469W        W96894  21.537  10.880   2.143
24470W        W96895  20.645  12.126  11.124
24471W        W96896   8.392  36.660   4.243
24472W        W96897   2.022  16.570   0.639
24473W        W96898  32.662  12.624  14.532
24474W        W96899  38.064  25.881   2.865
24475W        W96900  32.136   4.140  14.791
24476W        W96901  14.611   4.817  12.316
24477W        W96902  27.232  40.320   3.846
24478W        W96903   7.311  20.893   1.352
24479W        W96904  38.983   5.010  14.089
24480W        W96905  44.733  16.642   4.705
24481W        W96906   4.253  34.700   1.262
24482W        W96907  20.289  39.553   3.920
24483W        W96908  16.172  29.889  12.115
24484W        W96909  17.746  34.802  14.446
24485W        W96910  30.620  39.946   4.966
24486W        W96911  24.073  14.782   2.612
24487W        W96912  16.990  40.534  14.000
24488W        W96913  18.200  19.662  13.933
24489W        W96914   5.108   4.386  11.102
24490W        W96915  44.938  26.676   2.811
24491W        W96916   2.865  21.243  13.879
24492W        W96917  33.063  25.446  10.573
24493W        W96918  41.317  14.162   2.679
24494W        W96919  30.401  30.563  12.564
24495W        W96920  12.253  18.588   4.597
24496W        W96921  25.083  38.749   3.677
24497W        W96922  35.494   5.401  12.310
24498W        W96923  25.665  14.372  12.052
24499W        W96924   5.716  10.191  11.078
24500W        W96925  34.614  16.578   3.761
24501W        W96926  28.704  42.741   1.864
24502W        W96927  26.037   5.855  13.349
24503W        W96928  18.612  21.221   0.819
24504W        W96929  15.107  26.921  12.952
24505W        W96930  29.481   3.307  11.644
24506W        W96931  31.841  12.639   2.281
24507W        W96932  24.694  11.181  10.200
24508W        W96933  27.531  39.049  13.968
24509W        W96934   9.663  35.037   1.809
24510W        W96935  28.104  28.163   1.877
24511W        W96936  11.562   0.543  13.433
24512W        W96937  18.984   0.314   3.272
24513W        W96938  32.418  11.149   4.546
24514W        W96939  42.516   1.627  11.081
24515W        W96940   9.152  28.572  10.609
24516W        W96941  17.054  38.395   4.697
24517W        W96942  44.061  25.114  14.202
24518W        W96943  10.845  34.001  11.494
24519W        W96944  24.605  27.106   2.439
24520W        W96945   3.216  40.591   1.550
24521W        W96946  13.175   9.401  14.262
24522W        W96947  25.175  32.868   2.239
24523W        W96948   5.786  37.948   2.150
24524W        W96949  44.844  29.405   4.862
24525W        W96950   1.383  28.126   4.685
24526W        W96951  36.147  15.632   4.217
24527W        W96952  32.172   6.339   2.130
24528W        W96953  21.762  21.602   0.228
24529W        W96954   1.057  12.322   1.879
24530W        W96955  40.048  16.116   4.586
24531W        W96956  20.214   1.942   4.505
24532W        W96957  26.235   5.027   0.546
24533W        W96958  33.541  33.907  14.182
24534W        W96959  37.051  24.565   2.197
24535W        W96960  21.686  37.777  12.680
24536W        W96961   1.847  20.576   3.633
24537W        W96962  36.622  25.102  10.604
24538W        W96963   1.478  34.447   1.310
24539W        W96964  18.307  29.572  10.945
24540W        W96965  25.604  41.015   3.708
24541W        W96966   4.490  12.780  10.631
24542W        W96967   6.936  12.896  14.989
24543W        W96968  41.974  39.388   4.499
24544W        W96969  35.464  24.574  11.695
24545W        W96970  14.986  38.371   0.951
24546W        W96971  13.555  23.996   2.983
24547W        W96972  27.680  37.073  14.830
24548W        W96973  16.765  32.575   0.676
24549W        W96974  18.072  37.356   2.940
24550W        W96975  41.327  15.187   4.869
24551W        W96976  28.011  31.953  11.084
24552W        W96977   3.565  29.378  14.509
24553W        W96978  10.254  41.693   4.653
24554W        W96979  24.016   8.536  11.477
24555W        W96980  23.982  25.482   9.833
24556W        W96981  42.547  14.335   3.123
24557W        W96982  17.328  30.423   4.603
24558W        W96983   9.901  39.091  12.969
24559W        W96984   8.773  10.615   4.265
24560W        W96985  43.991   5.107   1.795
24561W        W96986  15.262   8.298  10.403
24562W        W96987  43.638   9.283   0.210
24563W        W96988  43.234   7.341   1.130
24564W        W96989  11.038  11.787  11.178
24565W        W96990  22.794  44.647  11.223
24566W        W96991  36.620   6.363  14.797
24567W        W96992  16.663   5.851  11.046
24568W        W96993  26.837   8.876   9.966
24569W        W96994  42.598  21.692  12.336
24570W        W96995  26.373  33.406   3.783
24571W        W96996  16.139   3.998   3.162
24572W        W96997   8.658  32.818   4.569
24573W        W96998  11.464  22.846   0.890
24574W        W96999  31.389   4.205  11.969
24575W        W97000  41.333  37.572  12.559
24576W        W97001  44.407  40.085  11.600
24577W        W97002  40.861  25.230   4.688
24578W        W97003   8.140  24.426  11.779
24579W        W97004  23.029  41.456   0.764
24580W        W97005  29.994  27.732   3.445
24581W        W97006  20.228   9.420   1.345
24582W        W97007   6.266  37.905  14.329
24583W        W97008  38.989  16.195   4.827
24584W        W97009  20.892  21.613  13.015
24585W        W97010  16.851   7.646   4.169
24586W        W97011  10.330  19.751   0.884
24587W        W97012   0.914  33.117   5.544
24588W        W97013   8.190  20.765   3.297
24589W        W97014  23.108  37.460  12.451
24590W        W97015   1.530  24.653   3.798
24591W        W97016  33.550   7.459   1.800
24592W        W97017   8.126  36.713   2.519
24593W        W97018   6.515  30.846  10.565
24594W        W97019   6.330  33.578  12.610
24595W        W97020  37.066  27.545   1.970
24596W        W97021  29.584  13.937  12.082
24597W        W97022  13.599  34.004  14.787
24598W        W97023   5.698   3.991   1.316
24599W        W97024  32.933  10.936  13.697
24600W        W97025  17.052  11.612   2.336
24601W        W97026  30.967  36.039   2.985
24602W        W97027   9.937  22.148   2.400
24603W        W97028  43.122  23.640   1.713
24604W        W97029   2.284   0.967   0.868
24605W        W97030  32.885  10.919   0.280
24606W        W97031  24.640   2.927   2.335
24607W        W97032   7.423   7.242  14.456
24608W        W97033  12.628  37.441   3.156
24609W        W97034  18.767  43.286  11.038
24610W        W97035   7.204   5.716  13.543
24611W        W97036  32.201  39.426   1.260
24612W        W97037  33.103  10.131  12.247
24613W        W97038   8.300  43.627  14.316
24614W        W97039   0.635  33.570   9.919
24615W        W97040   4.168  31.449  12.714
24616W        W97041   1.899  10.733  13.351
24617W        W97042  24.965  40.863  11.885
24618W        W97043  44.556  44.548  11.558
24619W        W97044   5.821  33.489   0.773
24620W        W97045  37.601  39.006   0.140
24621W        W97046  41.885   3.364  12.005
24622W        W97047  23.682  33.929   4.760
24623W        W97048  33.477  32.299  10.760
24624W        W97049   2.045  27.423   4.797
24625W        W97050   4.084  10.712  14.218
24626W        W97051  23.288  14.530   2.242
24627W        W97052  22.765  11.834   5.479
24628W        W97053   1.788   4.687   3.371
24629W        W97054  16.189  33.476  14.419
24630W        W97055   6.367  38.030  10.396
24631W        W97056  25.957  38.838  10.459
24632W        W97057   5.000  19.161   3.644
24633W        W97058  22.973  25.544  11.607
24634W        W97059  12.204  10.342  12.862
24635W        W97060  16.028  31.644  13.646
24636W        W97061  39.622  19.715  11.985
24637W        W97062   4.208   7.821   3.333
24638W        W97063  15.733  32.847  11.575
24639W        W97064  25.656  30.240   4.492
24640W        W97065  17.424  32.469   5.083
24641W        W97066  44.080  34.555   1.334
24642W        W97067   6.174  38.564   4.181
24643W        W97068  11.745   0.053  10.734
24644W        W97069   3.033  28.951   3.416
24645W        W97070  41.230  42.566   2.277
24646W        W97071  37.225  19.456   2.232
24647W        W97072  43.975  41.769   2.204
24648W        W97073  33.608  43.475  12.830
24649W        W97074  40.560  31.331  11.542
24650W        W97075  17.980  16.936  12.182
24651W        W97076  17.942  15.049  10.854
24652W        W97077   6.717  20.662  12.916
24653W        W97078   2.491  39.388  10.634
24654W        W97079  40.799  10.294  13.030
24655W        W97080  37.348  34.659   4.841
24656W        W97081  14.391  15.196   2.806
24657W        W97082  42.773  31.177   4.163
24658W        W97083  22.434  43.283   3.391
24659W        W97084  12.569  19.775   4.599
24660W        W97085   2.467  38.594  11.065
24661W        W97086  19.402  28.976   4.159
24662W        W97087  23.267   4.273   1.224
24663W        W97088   2.284  31.373   3.866
24664W        W97089  43.913  23.597  12.446
24665W        W97090  28.377   2.907  14.934
24666W        W97091   5.813  27.116   0.942
24667W        W97092  16.174  11.334   0.269
24668W        W97093   0.838  21.980  10.895
24669W        W97094   4.284  20.784   4.317
24670W        W97095  24.100   9.632   0.467
24671W        W97096  41.114  30.555   3.151
24672W        W97097   7.791  44.475   1.210
24673W        W97098  27.038  31.266   4.982
24674W        W97099  36.564   5.420   2.079
24675W        W97100   9.364  22.337  11.559
24676W        W97101  11.408  11.231   2.114
24677W        W97102   3.017   1.231  12.931
24678W        W97103  32.838  22.525   2.472
24679W        W97104  15.535  41.108   2.671
24680W        W97105  19.349   5.368  13.056
24681W        W97106  31.970  19.297   3.312
24682W        W97107   1.481  25.153   0.857
24683W        W97108  11.927  43.998   3.275
24684W        W97109  32.978  25.575  11.441
24685W        W97110  34.839  43.746   3.645
24686W        W97111   1.275   2.439  14.792
24687W        W97112  18.517   4.342  10.683
24688W        W97113  37.966   0.380   0.371
24689W        W97114  11.171  30.577  13.899
24690W        W97115  26.460  38.462  12.005
24691W        W97116   9.630  17.372  10.570
24692W        W97117  35.949   1.870   1.204
24693W        W97118  25.525  14.799   1.448
24694W        W97119  14.872  27.641   2.971
24695W        W97120  14.600   0.463   4.569
24696W        W97121  34.574  28.985   4.184
24697W        W97122  36.013  35.990   4.718
24698W        W97123  30.388  38.268   1.183
24699W        W97124   9.080  22.481   1.696
24700W        W97125  25.424  40.282   3.242
24701W        W97126  20.853   9.644   2.223
24702W        W97127   0.261   9.027  11.553
24703W        W97128  29.597  35.479  14.289
24704W        W97129  39.503   5.991   0.334
24705W        W97130  30.613  11.421  11.895
24706W        W97131  27.999  17.742  14.496
24707W        W97132  24.480   2.961  12.906
24708W        W97133  17.807  12.631  11.583
24709W        W97134   0.371  43.426   0.840
24710W        W97135   8.924  11.107  11.952
24711W        W97136  11.158  38.836  13.019
24712W        W97137  13.315  24.466   5.073
24713W        W97138   9.209  41.389   0.346
24714W        W97139  32.572   4.987  11.418
24715W        W97140  15.252  27.910  14.033
24716W        W97141  39.575  20.786  12.896
24717W        W97142  43.465  36.577   0.791
24718W        W97143  42.551  15.930   3.777
24719W        W97144  32.903  20.597  11.252
24720W        W97145  35.413  29.965   4.107
24721W        W97146  42.253  36.392  13.395
24722W        W97147  42.172  27.917   2.864
24723W        W97148   6.829  39.517  13.304
24724W        W97149  10.370  13.855  13.051
24725W        W97150  25.121  29.718   4.286
24726W        W97151   0.328   2.269   4.027
24727W        W97152  20.681  34.131  14.261
24728W        W97153   2.855  21.634   3.522
24729W        W97154  40.492  33.045  12.409
24730W        W97155  37.892  23.664  10.692
24731W        W97156  25.442  35.206  14.353
24732W        W97157  17.611  22.638  14.454
24733W        W97158  19.127  23.481   3.771
24734W        W97159   7.796  17.642  10.663
24735W        W97160  19.185  19.756   2.860
24736W        W97161   1.682  15.611   0.324
24737W        W97162  14.798  22.275  12.929
24738W        W97163   9.344  32.343  13.027
24739W        W97164  29.117  25.127   2.686
24740W        W97165  39.977  27.545  13.507
24741W        W97166  32.729  12.639  11.096
24742W        W97167   0.054  39.541   2.734
24743W        W97168  32.927  11.339  10.579
24744W        W97169   3.933  18.048  11.292
24745W        W97170  42.305  39.418   2.851
24746W        W97171  35.936  12.907  10.752
24747W        W97172  20.973   9.036  11.108
24748W        W97173  20.012  21.207  13.945
24749W        W97174  25.562  40.994  14.863
24750W        W97175  33.661   1.771   2.733
24751W        W97176  20.013   7.380   1.362
24752W        W97177  33.485  12.947   3.618
24753W        W97178  38.936  39.509   0.741
24754W        W97179  23.537  16.795   1.394
24755W        W97180  30.160  25.645  12.635
24756W        W97181  26.072  29.973   4.698
24757W        W97182  43.444  34.413  11.889
24758W        W97183  23.084   6.425  13.572
24759W        W97184  40.279   7.665   4.144
24760W        W97185  40.103   3.687   2.714
24761W        W97186  14.588  10.654  14.976
24762W        W97187  34.982  11.771   4.469
24763W        W97188  19.503  25.933   1.235
24764W        W97189   5.702  44.032   0.789
24765W        W97190  15.176   8.220   2.694
24766W        W97191  25.865  41.855  11.723
24767W        W97192  11.627  43.431  12.346
24768W        W97193  31.642  36.586   3.159
24769W        W97194  19.608  31.629   2.914
24770W        W97195  36.991  26.785  12.057
24771W        W97196  44.521  14.121   1.200
24772W        W97197  16.962  42.991   0.408
24773W        W97198  31.490  25.926   2.472
24774W        W97199  38.191   0.513  14.910
24775W        W97200   6.838   1.804  10.970
24776W        W97201  14.549   5.935   9.937
24777W        W97202   4.628  38.861  13.736
24778W        W97203   1.602  25.717  13.062
24779W        W97204  31.068  34.256  10.466
24780W        W97205  25.339   2.275   0.885
24781W        W97206   3.371  27.004   2.777
24782W        W97207   1.966  42.306   2.374
24783W        W97208   5.085  43.789  11.199
24784W        W97209  34.340   4.767  12.040
24785W        W97210  42.420  30.971  12.902
24786W        W97211  36.929  11.190   2.417
24787W        W97212  32.104   2.924  11.077
24788W        W97213  26.787  31.429  10.291
24789W        W97214  22.150  18.254  12.865
24790W        W97215  18.160  44.659   4.127
24791W        W97216  32.563  29.726  13.870
24792W        W97217  35.192  17.329   0.338
24793W        W97218  22.049  24.374   0.688
24794W        W97219   9.711  18.335  10.521
24795W        W97220  41.317   5.393  12.951
24796W        W97221  22.331  20.522  13.736
24797W        W97222   4.483  38.584  11.157
24798W        W97223  13.924  21.522  13.993
24799W        W97224  28.762  32.548   4.608
24800W        W97225   8.179   3.600  13.554
24801W        W97226  44.219  26.753   2.145
24802W        W97227  17.762  31.987  12.335
24803W        W97228  24.980   1.351   2.306
24804W        W97229  40.990  14.159   3.451
24805W        W97230  18.633  25.160  11.927
24806W        W97231  32.166  11.720  14.515
24807W        W97232  31.987  23.596  12.817
24808W        W97233  39.697  20.317  14.504
24809W        W97234  26.224  24.572   2.888
24810W        W97235   5.664  17.031   3.602
24811W        W97236  14.267   7.352   1.385
24812W        W97237  31.988  28.447  14.830
24813W        W97238  32.653  41.900   0.934
24814W        W97239  27.259  27.728  12.939
24815W        W97240   1.315  39.941   3.604
24816W        W97241   5.870  28.327   4.770
24817W        W97242  16.667  43.859   2.841
24818W        W97243  21.501  20.996   4.647
24819W        W97244  11.451   1.973  11.952
24820W        W97245  13.836  20.012   3.483
24821W        W97246  36.777   4.202   1.753
24822W        W97247  26.169  33.907  14.724
24823W        W97248  25.221   0.072   1.337
24824W        W97249   0.740   7.266   3.342
24825W        W97250  23.135  33.608   3.637
24826W        W97251  25.316  43.570  13.821
24827W        W97252  12.386  29.533   0.091
24828W        W97253  14.222  12.198   4.464
24829W        W97254  38.977  37.994  14.458
24830W        W97255  23.152   4.338   0.417
24831W        W97256  36.817  15.324  14.364
24832W        W97257   5.201  33.655  11.574
24833W        W97258   4.924  19.988   2.027
24834W        W97259  14.633  37.403  14.279
24835W        W97260  19.334  26.559  10.540
24836W        W97261  27.359  33.397  12.332
24837W        W97262  33.602  12.355   2.289
24838W        W97263  22.517   6.215  10.529
24839W        W97264  10.603   5.137  11.169
24840W        W97265  27.190  29.477   1.934
24841W        W97266  17.303  10.259   2.728
24842W        W97267  33.116  40.858  13.357
24843W        W97268   0.479  31.025   9.640
24844W        W97269  11.650  22.130  13.752
24845W        W97270  44.197  36.697  14.058
24846W        W97271   0.597  40.383   0.695
24847W        W97272  11.332  19.822  13.662
24848W        W97273  33.395   4.108  12.721
24849W        W97274  41.022  11.362  11.468
24850W        W97275  21.003  43.750  11.076
24851W        W97276  14.171   8.139  12.407
24852W        W97277  12.334  38.464  13.458
24853W        W97278  23.681  37.516  11.976
24854W        W97279  34.823  44.436   1.307
24855W        W97280  25.632  15.399  12.068
24856W        W97281  11.850   7.390  11.614
24857W        W97282   4.268  35.787   2.713
24858W        W97283  25.041  44.198  10.366
24859W        W97284  39.925  25.742  10.690
24860W        W97285  41.888  21.025  14.430
24861W        W97286  29.004  28.497  10.741
24862W        W97287  18.543  18.233   2.610
24863W        W97288  20.526  34.477   4.601
24864W        W97289   9.399   9.394  12.559
24865W        W97290  38.551  39.555  13.830
24866W        W97291  12.376  19.128   1.919
24867W        W97292  11.876  31.548  10.378
24868W        W97293  28.415  41.327   0.488
24869W        W97294  24.885  17.980  12.658
24870W        W97295  31.397  13.637  13.301
24871W        W97296   5.781  15.683  10.517
24872W        W97297  28.124   3.723   2.858
24873W        W97298   5.281   5.707   0.973
24874W        W97299  27.574   1.938   0.491
24875W        W97300  12.757   6.406  14.788
24876W        W97301   0.397  35.307   1.331
24877W        W97302   4.730  23.943  12.467
24878W        W97303  27.563  37.552   0.003
24879W        W97304  21.651  21.599   2.770
24880W        W97305  10.200  28.412  10.727
24881W        W97306  12.312  41.792   1.400
24882W        W97307  10.840   9.487   3.153
24883W        W97308  33.828  39.130   0.701
24884W        W97309   3.256  35.843  12.873
24885W        W97310  34.082  23.214  11.697
24886W        W97311  36.663  12.455  12.577
24887W        W97312   3.581  39.915   2.166
24888W        W97313  40.867   3.490  10.439
24889W        W97314  28.113  39.783  11.082
24890W        W97315  29.495  36.332   1.412
24891W        W97316  12.562  43.509  13.770
24892W        W97317  31.147  29.861   3.300
24893W        W97318  34.347  12.188  10.548
24894W        W97319  40.388  24.550  10.299
24895W        W97320  42.539  26.149   2.445
24896W        W97321  31.625   1.820  11.896
24897W        W97322  21.085  20.433  13.537
24898W        W97323  17.198  17.680  13.263
24899W        W97324  42.601  35.908  12.785
24900W        W97325  17.222  15.073  11.498
24901W        W97326  28.564  43.837  11.952
24902W        W97327  19.103  32.135  13.788
24903W        W97328  25.327  43.300   4.245
24904W        W97329  41.327   6.326   3.118
24905W        W97330  29.993  44.383  13.537
24906W        W97331  23.696   0.230   1.889
24907W        W97332  11.302  26.985   1.185
24908W        W97333  30.507  33.362   4.520
24909W        W97334  28.205  27.180  12.397
24910W        W97335  44.710  21.571   4.347
24911W        W97336  12.822   5.430  14.706
24912W        W97337   0.522  23.620   4.545
24913W        W97338   8.907   4.420  10.602
24914W        W97339  17.902  27.022   0.852
24915W        W97340  10.842   2.769   2.256
24916W        W97341  14.809  16.325   3.782
24917W        W97342  12.441  28.459   1.898
24918W        W97343  27.903  15.683  14.088
24919W        W97344  43.300  39.623   1.171
24920W        W97345  26.604  18.323  13.795
24921W        W97346  19.785   6.729  13.916
24922W        W97347   3.086  28.335   1.268
24923W        W97348  15.656   0.816   1.900
24924W        W97349  35.425   7.408   4.205
24925W        W97350  11.245  31.725  12.535
24926W        W97351  36.819  44.234  12.479
24927W        W97352  43.742  34.915   4.175
24928W        W97353   2.713  39.831   2.655
24929W        W97354  23.497  24.963  12.910
24930W        W97355  18.581  27.183  11.758
24931W        W97356  38.745  32.107   0.417
24932W        W97357  32.814  26.024   2.751
24933W        W97358  19.796  21.104   0.793
24934W        W97359   6.265  36.075  14.957
24935W        W97360  39.521   2.846  12.959
24936W        W97361  26.123   8.631  13.557
24937W        W97362  20.225   6.982   4.680
24938W        W97363  44.507   4.851  14.410
24939W        W97364  42.222  30.500  12.932
24940W        W97365  38.995   3.982  13.876
24941W        W97366   7.988  27.032  14.049
24942W        W97367   2.113   4.487  13.381
24943W        W97368  14.696  19.067   4.340
24944W        W97369  19.661  33.045   1.842
24945W        W97370   0.810  32.583  10.160
24946W        W97371   3.933  11.172   1.406
24947W        W97372  17.327  18.242  14.073
24948W        W97373  39.509  26.424  12.138
24949W        W97374  31.750  25.770  11.815
24950W        W97375  17.794   4.682  11.973
24951W        W97376  35.938  17.352  13.299
24952W        W97377  22.565  32.862  13.934
24953W        W97378  17.023  13.159  13.918
24954W        W97379  22.787  10.313  11.484
24955W        W97380  15.364   6.262  11.194
24956W        W97381  19.162   9.364   2.250
24957W        W97382   0.741   3.430  14.477
24958W        W97383  29.262  15.138   4.881
24959W        W97384  28.424  22.870   0.887
24960W        W97385  21.553   3.385  12.008
24961W        W97386  40.283   8.265  11.090
24962W        W97387  38.109  32.217  10.672
24963W        W97388  13.982   3.443  11.560
24964W        W97389  40.127   5.242  11.133
24965W        W97390  20.237   0.448  11.281
24966W        W97391   0.324  12.268   3.630
24967W        W97392  26.539  38.489   2.267
24968W        W97393  40.487  24.970  13.486
24969W        W97394   1.321  13.160  10.603
24970W        W97395  33.737  38.892  12.889
24971W        W97396  28.029   0.771   2.825
24972W        W97397  39.805  22.439   2.693
24973W        W97398  31.593  39.599   4.385
24974W        W97399   3.847   7.922   2.018
24975W        W97400  40.182   4.840   9.908
24976W        W97401   2.339  37.455  13.893
24977W        W97402  15.754  44.089  12.427
24978W        W97403  20.534  21.208   1.771
24979W        W97404  26.396   0.403  13.545
24980W        W97405  18.836  17.646  14.576
24981W        W97406  38.876  39.140  14.684
24982W        W97407   6.565  24.072  13.770
24983W        W97408   7.458  25.766  11.977
24984W        W97409  24.531  23.708   1.417
24985W        W97410  14.367  39.742  11.595
24986W        W97411  44.535  31.552   1.992
24987W        W97412  42.082  44.211  12.588
24988W        W97413  38.357   7.424  12.409
24989W        W97414  39.000  29.128  14.292
24990W        W97415  42.429  13.911   1.733
24991W        W97416  35.580  21.710   4.618
24992W        W97417  15.183   3.044   0.679
24993W        W97418   8.377  43.101  13.845
24994W        W97419  11.257  11.237  10.535
24995W        W97420  12.930  33.383   3.207
24996W        W97421   3.943  31.695   2.596
24997W        W97422  14.937  35.138  13.975
24998W        W97423  11.579  21.039  13.975
24999W        W97424  21.110  18.544  10.786
25000W        W97425  27.422  43.509   2.856
25001W        W97426   9.243   5.957   0.736
25002W        W97427  21.684  14.808  11.861
25003W        W97428  42.859   8.704   0.203
25004W        W97429  36.860   1.697   1.697
25005W        W97430   8.262  28.939   0.388
25006W        W97431   1.355  23.494  11.916
25007W        W97432  18.181  29.506   0.864
25008W        W97433  20.713   8.402   2.711
25009W        W97434  34.157  27.687   2.270
25010W        W97435   5.015  12.779  13.352
25011W        W97436  32.285  25.840   3.441
25012W        W97437  21.043  25.096   0.034
25013W        W97438  14.847  36.502  11.210
25014W        W97439  38.946  38.405   3.106
25015W        W97440  42.909  31.218   0.441
25016W        W97441  17.862  40.781  14.843
25017W        W97442  43.899  26.527   4.149
25018W        W97443  21.138  36.019   3.898
25019W        W97444  43.438  22.658   3.120
25020W        W97445  32.763  14.552   1.343
25021W        W97446   6.640  19.729   0.390
25022W        W97447  20.606  28.864   1.754
25023W        W97448   2.221  12.132  13.413
25024W        W97449  26.565   9.481   0.685
25025W        W97450   4.613   3.903  11.884
25026W        W97451  25.041  25.716   3.768
25027W        W97452  18.289   1.783  11.423
25028W        W97453  33.251  36.799   3.191
25029W        W97454   3.278  12.557  13.628
25030W        W97455   6.112  27.492  11.162
25031W        W97456  24.250  12.670   2.816
25032W        W97457  11.280  40.987   3.145
25033W        W97458  36.394  39.028  10.305
25034W        W97459  14.250  29.154  14.753
25035W        W97460   2.214  36.582  14.932
25036W        W97461  29.952  32.158  14.563
25037W        W97462  33.578   2.530   0.255
25038W        W97463   7.766  18.003  14.952
25039W        W97464  43.361  29.916   4.394
25040W        W97465  17.534  15.409   3.626
25041W        W97466  32.674  11.794  14.515
25042W        W97467  44.995  14.208   0.980
25043W        W97468  40.289   7.187   2.729
25044W        W97469   4.017   4.738  13.402
25045W        W97470  40.606  20.686  12.937
25046W        W97471  33.836  27.103   2.850
25047W        W97472  38.517  14.078  14.029
25048W        W97473  19.713  43.172  13.995
25049W        W97474   3.174  44.994  13.711
25050W        W97475  14.197  21.054  13.960
25051W        W97476  25.093   5.798   3.064
25052W        W97477   1.951  42.942  14.396
25053W        W97478  44.312  21.178   9.895
25054W        W97479   0.022  23.819   1.692
25055W        W97480  16.214  44.741   3.583
25056W        W97481  41.537  18.610  11.130
25057W        W97482   1.471  16.366  14.823
25058W        W97483   1.254  42.542   1.792
25059W        W97484   5.475  31.485  14.974
25060W        W97485  41.594   2.485  11.868
25061W        W97486  18.796  41.736   1.769
25062W        W97487  28.714  37.061   3.713
25063W        W97488   3.311  37.108   5.102
25064W        W97489   2.329  30.133  12.231
25065W        W97490  35.664   6.362   2.574
25066W        W97491  27.465  30.991  11.737
25067W        W97492  31.730   8.236   3.223
25068W        W97493   1.686  12.268   0.808
25069W        W97494  33.178  19.122  11.060
25070W        W97495  43.018  19.705   0.834
25071W        W97496  23.010  16.390   3.094
25072W        W97497  33.660  31.164  13.123
25073W        W97498   7.966  27.339  13.237
25074W        W97499  35.494  40.458   1.738
25075W        W97500   3.269  29.232  10.711
25076W        W97501  29.653  11.984   0.897
25077W        W97502  35.429   8.244   3.703
25078W        W97503  40.914  12.745   2.894
25079W        W97504   6.388   6.788  10.663
25080W        W97505   2.388  44.265  11.969
25081W        W97506  16.456  10.366  12.006
25082W        W97507  31.427   7.824   3.333
25083W        W97508  14.533  22.751  13.579
25084W        W97509   3.201  26.538   1.950
25085W        W97510  19.638   4.212   4.794
25086W        W97511  44.796  30.166  14.394
25087W        W97512  24.115   6.826  13.762
25088W        W97513  32.119  40.744   1.061
25089W        W97514  32.152  37.325   4.086
25090W        W97515  44.960  17.163  13.291
25091W        W97516  33.381  40.508  14.114
25092W        W97517  32.331   8.656  11.391
25093W        W97518  18.319  23.703  12.668
25094W        W97519  12.608   0.294   3.164
25095W        W97520   4.352  28.880  12.961
25096W        W97521  27.180  15.048   0.347
25097W        W97522  31.229  40.367   0.257
25098W        W97523  13.661   0.463   4.583
25099W        W97524   3.644   1.545   1.712
25100W        W97525  16.756  15.397  12.715
25101W        W97526  23.016   1.693  10.541
25102W        W97527   0.470  30.489  11.164
25103W        W97528   6.446  28.572  13.455
25104W        W97529  23.772  10.438  13.955
25105W        W97530  21.742  16.233  14.818
25106W        W97531  26.082  28.481  13.956
25107W        W97532  25.428   1.892   1.351
25108W        W97533  35.341  19.373   1.118
25109W        W97534  23.918  36.392  12.472
25110W        W97535  40.764  20.561  11.963
25111W        W97536   7.877  33.689  13.868
25112W        W97537  12.571  40.189  12.984
25113W        W97538  30.361   1.857  13.893
25114W        W97539  20.637   3.827   3.763
25115W        W97540  42.649  14.030  11.744
25116W        W97541   2.050   6.872   3.139
25117W        W97542  39.438  15.909   2.328
25118W        W97543  15.956  35.530  13.895
25119W        W97544  34.041  28.667   3.287
25120W        W97545  39.081   0.249   4.135
25121W        W97546  19.837  10.650   0.921
25122W        W97547  26.138  20.604   1.896
25123W        W97548   4.920   2.514   5.135
25124W        W97549  27.043  18.781   3.789
25125W        W97550  37.644  14.711   3.786
25126W        W97551  39.532  16.491  11.162
25127W        W97552  37.315  15.987   4.838
25128W        W97553   4.741  27.958  14.029
25129W        W97554  10.034  30.887   0.381
25130W        W97555  26.750  19.641  10.212
25131W        W97556  43.938  39.370  12.541
25132W        W97557  10.436  28.214   2.725
25133W        W97558  40.026   3.556   0.216
25134W        W97559  13.225  34.410  13.367
25135W        W97560  22.922  33.364  12.474
25136W        W97561  10.788  35.903   4.565
25137W        W97562  15.566  19.082  11.055
25138W        W97563  14.686  12.384   1.190
25139W        W97564  19.217   3.558   1.749
25140W        W97565   6.658   9.400  12.836
25141W        W97566  27.402  19.292   0.844
25142W        W97567  38.582  15.295  12.814
25143W        W97568  25.190  34.031   1.810
25144W        W97569  43.901  42.258  12.966
25145W        W97570  17.627  16.565   0.783
25146W        W97571  12.347   3.503   4.101
25147W        W97572  13.545  40.303  11.579
25148W        W97573   1.260  35.346   1.427
25149W        W97574  21.193  20.086   0.846
25150W        W97575  44.300  31.157  11.049
25151W        W97576  38.037  42.613  11.568
25152W        W97577   4.249  15.610  12.356
25153W        W97578  23.407  33.969  14.315
25154W        W97579  39.349  35.541  10.623
25155W        W97580  37.456   0.788  10.887
25156W        W97581  28.335  42.268  13.648
25157W        W97582  14.736   3.369  11.215
25158W        W97583  43.544  17.498  11.654
25159W        W97584  23.644  12.129   0.891
25160W        W97585  44.055  40.626  13.239
25161W        W97586  30.228   3.190  11.227
25162W        W97587  32.603  14.273   0.940
25163W        W97588   9.538  35.806  14.704
25164W        W97589   5.846  37.368  14.712
25165W        W97590  28.460  20.970  12.966
25166W        W97591  20.644  29.556  11.655
25167W        W97592   0.660  39.242   4.940
25168W        W97593  39.905   6.565   4.753
25169W        W97594  39.653  33.126   2.980
25170W        W97595   5.407  44.358  12.092
25171W        W97596  44.910  24.935   2.399
25172W        W97597  12.191  39.700  13.948
25173W        W97598  34.694  41.682  11.132
25174W        W97599  35.868  19.849   5.130
25175W        W97600  33.602  10.695  10.626
25176W        W97601  29.105   8.140  10.462
25177W        W97602  16.288   2.830   1.228
25178W        W97603   6.871   7.829   0.878
25179W        W97604  12.900  18.564  14.317
25180W        W97605  29.124  14.010  13.369
25181W        W97606  42.764  34.594   5.005
25182W        W97607   3.945  23.627   4.678
25183W        W97608   3.824  24.740   0.943
25184W        W97609  40.293  30.386   4.587
25185W        W97610  17.710  33.106  11.595
25186W        W97611  37.561  24.035   4.734
25187W        W97612  14.739  37.362  11.132
25188W        W97613   9.150  27.211   0.339
25189W        W97614  18.474  31.594  14.551
25190W        W97615   3.993   2.846  10.778
25191W        W97616  11.421   9.107  12.419
25192W        W97617   9.264  44.984  14.468
25193W        W97618  17.658   6.115   1.859
25194W        W97619  13.742  38.459  12.424
25195W        W97620  34.641  12.624  14.829
25196W        W97621  38.441  35.802   0.517
25197W        W97622  35.045   8.741  10.689
25198W        W97623  30.997  38.865   4.208
25199W        W97624  34.585  26.683  12.809
25200W        W97625  18.204  16.663   3.106
25201W        W97626  33.531  41.672  11.037
25202W        W97627   1.776  18.500  12.419
25203W        W97628  29.543  42.797  12.622
25204W        W97629  34.798  13.763  11.690
25205W        W97630   2.970  21.021   1.084
25206W        W97631  36.875  20.272   4.310
25207W        W97632  40.081  18.146  12.461
25208W        W97633  32.989  11.686  10.953
25209W        W97634  43.716  31.671   4.630
25210W        W97635  40.105  26.657   3.331
25211W        W97636  26.936  31.573   9.829
25212W        W97637  13.159  43.872  11.487
25213W        W97638   7.283  37.122   0.569
25214W        W97639   8.178  26.589  12.781
25215W        W97640  40.940  28.733  12.483
25216W        W97641  30.072  32.675  14.382
25217W        W97642   8.584  40.979   0.798
25218W        W97643  11.813  24.107  10.528
25219W        W97644  43.618  42.144   2.245
25220W        W97645  13.422  18.577   4.276
25221W        W97646  20.873  30.045  14.354
25222W        W97647   2.685  41.324  13.532
25223W        W97648  28.730  30.571   1.744
25224W        W97649  12.267  29.897   4.197
25225W        W97650  40.011  13.198   1.928
25226W        W97651  26.016  10.626   4.676
25227W        W97652  43.219  18.249  14.809
25228W        W97653   1.835   3.909  11.361
25229W        W97654  15.251   9.673  14.405
25230W        W97655  43.433   5.702  13.053
25231W        W97656  21.022  19.726  11.145
25232W        W97657   0.786  32.856  11.484
25233W        W97658   5.775   1.349  14.432
25234W        W97659  18.118   4.955  10.143
25235W        W97660  11.775  19.551  10.664
25236W        W97661  42.324   0.783   2.326
25237W        W97662   3.514  31.469   1.336
25238W        W97663  21.857  10.207   0.640
25239W        W97664  31.451  39.095   4.160
25240W        W97665  36.358  30.595  14.925
25241W        W97666  44.174  11.301   3.137
25242W        W97667   7.747  22.851   1.655
25243W        W97668  20.018  33.825  14.910
25244W        W97669  38.896  41.324  13.068
25245W        W97670  38.838  21.604   4.727
25246W        W97671  34.582  36.449   1.257
25247W        W97672   8.740   5.373   1.391
25248W        W97673  34.376   5.014   3.135
25249W        W97674   3.780  34.683  10.550
25250W        W97675  29.118   2.128  12.445
25251W        W97676   3.739  21.232  11.849
25252W        W97677  44.324  21.427  11.552
25253W        W97678  17.733   2.852   4.408
25254W        W97679  42.473  42.377  11.163
25255W        W97680  38.926  15.610  13.051
25256W        W97681  32.185  13.251  11.617
25257W        W97682  14.727  28.973  12.928
25258W        W97683  11.341   8.947   4.684
25259W        W97684  33.194  29.130   1.866
25260W        W97685  14.867  15.867  11.824
25261W        W97686  35.854  25.888  10.812
25262W        W97687  30.985   7.637   2.539
25263W        W97688   3.816  44.712   0.027
25264W        W97689  19.314  43.459  13.566
25265W        W97690   5.416  38.295   2.299
25266W        W97691  30.444   2.256   2.977
25267W        W97692  23.615  13.987  13.816
25268W        W97693   0.078  34.842  14.319
25269W        W97694  44.946   6.455  13.446
25270W        W97695  22.038   2.866   0.956
25271W        W97696   7.409  16.387  10.729
25272W        W97697  32.643  15.689  12.333
25273W        W97698  40.095  28.251   0.373
25274W        W97699   7.689  38.698   2.291
25275W        W97700  13.564  11.174  11.614
25276W        W97701  14.495  33.031  14.379
25277W        W97702  28.740  44.595  12.238
25278W        W97703  22.543  32.467  13.604
25279W        W97704  27.092  40.859  11.418
25280W        W97705  31.620  15.548   0.740
25281W        W97706  15.156  10.073  13.024
25282W        W97707  29.331  15.217  12.560
25283W        W97708  12.706  35.680  11.056
25284W        W97709  33.711  11.192  11.267
25285W        W97710   3.879  22.515   3.098
25286W        W97711  41.073  32.587   0.189
25287W        W97712  15.137   2.753  12.944
25288W        W97713  37.086  31.070   1.485
25289W        W97714  18.131  22.037  14.834
25290W        W97715  33.890  35.089   3.721
25291W        W97716  39.522  10.871   2.209
25292W        W97717  44.371  20.657   0.458
25293W        W97718  32.013  30.936  11.841
25294W        W97719  16.168  43.362   2.871
25295W        W97720  15.000  44.765   0.461
25296W        W97721   7.899  34.957   0.900
25297W        W97722  42.950  37.809  11.299
25298W        W97723   7.990  42.423  14.841
25299W        W97724  43.502  13.238  12.880
25300W        W97725  43.325   8.911  14.879
25301W        W97726  32.194  16.428   3.669
25302W        W97727  39.493  44.318  11.169
25303W        W97728  26.929   2.334  12.767
25304W        W97729  11.253  34.192   1.212
25305W        W97730  12.645  12.173  10.510
25306W        W97731  30.252  19.534   2.054
25307W        W97732  22.101  19.517  13.490
25308W        W97733   1.013  36.512   4.364
25309W        W97734  33.869   1.300   0.748
25310W        W97735   0.458  13.759   1.916
25311W        W97736  25.238  13.191   4.741
25312W        W97737  21.631   4.406   2.668
25313W        W97738  44.491  15.827  13.412
25314W        W97739  44.791   6.358  11.191
25315W        W97740  33.714  40.424  14.884
25316W        W97741  17.333   4.789  13.922
25317W        W97742   2.147  14.095   3.630
25318W        W97743  18.245  18.602   2.810
25319W        W97744  14.856  12.432   2.250
25320W        W97745  13.561  29.902  12.894
25321W        W97746  33.562  34.358   1.916
25322W        W97747   7.479  33.358  10.796
25323W        W97748  19.627  33.635  14.370
25324W        W97749  44.922  39.423  14.005
25325W        W97750  11.888  16.224  14.741
25326W        W97751  42.876   3.140  12.484
25327W        W97752  18.134  34.281   9.847
25328W        W97753  29.337  43.343   0.972
25329W        W97754  28.180  32.559   3.703
25330W        W97755  44.785  44.070  14.006
25331W        W97756  31.700  11.837   2.868
25332W        W97757  28.993   3.960  12.034
25333W        W97758  32.976  11.724  11.483
25334W        W97759  17.986  34.988   0.067
25335W        W97760   1.347  25.996   1.919
25336W        W97761  38.849   6.698   1.377
25337W        W97762  24.045  20.834   3.574
25338W        W97763  42.595   0.492  13.817
25339W        W97764  42.327   1.446   1.769
25340W        W97765  37.307  16.513   3.232
25341W        W97766  23.130  11.733   0.212
25342W        W97767  35.062  33.897   0.528
25343W        W97768  21.744  23.331   0.427
25344W        W97769  36.225   8.689   2.008
25345W        W97770  41.051  30.124   1.418
25346W        W97771  20.788  36.211  13.003
25347W        W97772  33.049  37.102  10.438
25348W        W97773   5.656  23.160   0.257
25349W        W97774  41.069  23.735  14.505
25350W        W97775  28.034  31.666  10.584
25351W        W97776  38.817   7.270  10.711
25352W        W97777  33.439  14.833  12.895
25353W        W97778  41.454  43.774  13.608
25354W        W97779  10.707  40.520  14.334
25355W        W97780   6.890  21.547   3.420
25356W        W97781  29.063  33.946   5.044
25357W        W97782  37.670  15.703   4.057
25358W        W97783  43.216  28.710   2.517
25359W        W97784  15.408   8.719   2.019
25360W        W97785  23.437  19.657  14.207
25361W        W97786  38.417   0.683   2.175
25362W        W97787  17.301   7.912   3.351
25363W        W97788  23.611   2.947   3.167
25364W        W97789  27.180   2.253   2.338
25365W        W97790  26.486  12.613   2.330
25366W        W97791  19.122   5.492   0.739
25367W        W97792   9.908   2.045   0.822
25368W        W97793   6.660  24.591  13.770
25369W        W97794   6.164  36.607  11.084
25370W        W97795  35.561  32.804   0.365
25371W        W97796  44.867  20.226   4.199
25372W        W97797  20.013  22.250  13.892
25373W        W97798  36.428   1.420  13.179
25374W        W97799  19.299  36.586  11.161
25375W        W97800  25.254  34.927  10.495
25376W        W97801  44.993  10.673  14.704
25377W        W97802  40.753  20.251  12.671
25378W        W97803   5.117   6.056   2.833
25379W        W97804   4.357   8.340  11.040
25380W        W97805   9.387  40.420   0.608
25381W        W97806  30.556   8.156   4.467
25382W        W97807  41.446   6.943   0.800
25383W        W97808   4.720   4.385   2.123
25384W        W97809  17.454  17.634   1.368
25385W        W97810  34.405  32.710  11.608
25386W        W97811  32.988   1.595   4.294
25387W        W97812  22.511   7.204   3.030
25388W        W97813   5.565  19.096  14.865
25389W        W97814  31.478  16.500   1.040
25390W        W97815  20.503  26.015  11.154
25391W        W97816   0.863  40.003  11.177
25392W        W97817   6.268  36.884  12.995
25393W        W97818  13.127  11.320  11.932
25394W        W97819  12.231  24.260  14.439
25395W        W97820  10.106  13.069  12.018
25396W        W97821  39.635  11.297  11.541
25397W        W97822  10.883  34.126   2.468
25398W        W97823  35.600  18.181   4.718
25399W        W97824  33.433  30.036  14.055
25400W        W97825  27.616  40.514  11.533
25401W        W97826  19.310  32.632  12.872
25402W        W97827  41.956  23.697   3.173
25403W        W97828  27.110  44.495   3.590
25404W        W97829  35.202  41.787  11.181
25405W        W97830  42.245  15.237   2.830
25406W        W97831  16.031  29.797  10.697
25407W        W97832  10.297   7.111   2.665
25408W        W97833   4.887  44.370  12.019
25409W        W97834  27.457  13.379  14.911
25410W        W97835  43.926  37.470  12.556
25411W        W97836  39.656   6.973   1.313
25412W        W97837  44.096  23.894   2.635
25413W        W97838   3.791  10.404   3.688
25414W        W97839  37.506  40.770   1.064
25415W        W97840   8.715  33.779   2.202
25416W        W97841  21.073  34.275   5.018
25417W        W97842   4.286  37.049   4.609
25418W        W97843  15.623  17.765  11.269
25419W        W97844  27.252  28.844  13.079
25420W        W97845  34.950  33.766  14.403
25421W        W97846   0.899  16.962   0.344
25422W        W97847  30.439   9.633   2.801
25423W        W97848  31.335   5.359   3.079
25424W        W97849  33.467   6.298   2.310
25425W        W97850  43.172  42.007   1.484
25426W        W97851  28.874  39.030   1.310
25427W        W97852   7.263  32.412   0.466
25428W        W97853   3.303  17.725  13.595
25429W        W97854  14.669  29.945   4.215
25430W        W97855  16.512   3.725   2.215
25431W        W97856  30.170   6.797  11.111
25432W        W97857  44.523  42.344  10.488
25433W        W97858   3.512  37.964  10.665
25434W        W97859  23.233  11.158   0.828
25435W        W97860  40.503  41.113  11.961
25436W        W97861  29.078  14.086  12.864
25437W        W97862  15.113  11.970  13.807
25438W        W97863  19.878  42.533   0.766
25439W        W97864  21.477  35.003  14.961
25440W        W97865  22.781  38.830  10.490
25441W        W97866   9.815  19.040   2.661
25442W        W97867  24.139  37.960  14.290
25443W        W97868  27.320  30.443   5.374
25444W        W97869  42.067  10.200   2.793
25445W        W97870  14.202  24.971  13.103
25446W        W97871  18.317  38.052   1.810
25447W        W97872  30.686  27.450  10.493
25448W        W97873  24.216  31.089  13.594
25449W        W97874  35.245  44.545  12.342
25450W        W97875  44.794  36.895  12.478
25451W        W97876  30.309  14.414   0.619
25452W        W97877  34.141  18.654   0.600
25453W        W97878  37.083  26.090   0.971
25454W        W97879  25.695  27.345   1.200
25455W        W97880  31.679   2.823   0.163
25456W        W97881  41.981   2.445   0.290
25457W        W97882  42.193   9.702  14.037
25458W        W97883  17.223  30.975   0.362
25459W        W97884   6.252   8.641   0.654
25460W        W97885  12.354   6.065   1.373
25461W        W97886   1.352  19.548   0.662
25462W        W97887  30.207  21.278  12.932
25463W        W97888  29.515   1.909  11.583
25464W        W97889  24.660  39.991   0.493
25465W        W97890  14.468   5.308  12.567
25466W        W97891   7.270  21.605   0.923
25467W        W97892  24.331  21.824   1.033
25468W        W97893  23.750  24.899   4.815
25469W        W97894   2.236   6.798  13.794
25470W        W97895  40.966  24.477   2.789
25471W        W97896  35.626  43.085   0.315
25472W        W97897  13.079  20.989   5.100
25473W        W97898   9.747  24.455  14.835
25474W        W97899  34.951   2.472  13.312
25475W        W97900  31.889   4.240   2.856
25476W        W97901  22.177  28.205   4.692
25477W        W97902  30.561  32.431  13.067
25478W        W97903  39.576  29.593  13.098
25479W        W97904  27.557  20.622   4.585
25480W        W97905  44.083   6.751   1.377
25481W        W97906  24.562  39.833   1.405
25482W        W97907  42.453  41.460   2.286
25483W        W97908   0.310  16.341  13.581
25484W        W97909  36.957  10.986   4.408
25485W        W97910  27.913  19.097   2.840
25486W        W97911  41.930  15.311   1.902
25487W        W97912  13.520  13.944  12.039
25488W        W97913   2.920  38.867  10.725
25489W        W97914   3.611  23.559   0.455
25490W        W97915  24.147  43.259   2.480
25491W        W97916  26.630   1.373   0.771
25492W        W97917  37.370   2.356   3.352
25493W        W97918  10.732  39.097  12.890
25494W        W97919   4.182  34.182   1.279
25495W        W97920  23.941  37.408   4.993
25496W        W97921  38.842  43.215   1.984
25497W        W97922  36.323  27.390   3.137
25498W        W97923   1.719  42.994  12.941
25499W        W97924   8.823  24.030  13.138
25500W        W97925  34.125  41.594  14.835
25501W        W97926  24.760  11.590  10.504
25502W        W97927  14.703  13.061  12.402
25503W        W97928  15.239  39.031  14.889
25504W        W97929  29.548  21.295  14.548
25505W        W97930  32.659   8.318   3.181
25506W        W97931  10.724   8.299  12.973
25507W        W97932   8.370   8.172  12.874
25508W        W97933  37.554  16.038  13.456
25509W        W97934  27.070   9.851  14.593
25510W        W97935   2.642   9.115   4.603
25511W        W97936  22.989  12.705  12.185
25512W        W97937  23.671  44.759   3.290
25513W        W97938  25.056  13.614   4.968
25514W        W97939   3.209   2.442   1.754
25515W        W97940   9.915  38.122   4.780
25516W        W97941  41.259  11.401  12.432
25517W        W97942   0.542  13.384  13.074
25518W        W97943  23.265  43.845  12.455
25519W        W97944   3.760  27.180  13.125
25520W        W97945   2.824   7.394  14.326
25521W        W97946  26.782   7.849   4.105
25522W        W97947  10.474   2.291  11.416
25523W        W97948   7.986  10.660   0.636
25524W        W97949   3.405   1.924  11.653
25525W        W97950   1.292  23.741   3.899
25526W        W97951   2.577  31.642   1.338
25527W        W97952  22.975  30.722   1.942
25528W        W97953  37.343  24.154   3.805
25529W        W97954  32.195  10.671  11.599
25530W        W97955  20.154  35.896  12.351
25531W        W97956  14.545   4.934   1.255
25532W        W97957  36.716  20.075   1.509
25533W        W97958  27.509  25.394   4.558
25534W        W97959  44.455  15.537   1.405
25535W        W97960   9.281   2.343   2.180
25536W        W97961  36.920  16.134   4.578
25537W        W97962  17.110  36.130  12.088
25538W        W97963  19.676   4.032   0.819
25539W        W97964  25.472  37.506   4.088
25540W        W97965  13.157  27.431   0.274
25541W        W97966  18.051  30.055  11.709
25542W        W97967  35.639  19.865   1.205
25543W        W97968  38.489  44.495  11.165
25544W        W97969  17.358  30.793  12.776
25545W        W97970  29.971  17.802  13.716
25546W        W97971   7.777  29.101   1.968
25547W        W97972  11.271  19.783  10.732
25548W        W97973  13.539  39.055   3.729
25549W        W97974  43.890  13.893   0.419
25550W        W97975  27.643  14.831  10.947
25551W        W97976  18.816  33.891  10.457
25552W        W97977  10.834  42.896   0.066
25553W        W97978  32.906  41.006   2.272
25554W        W97979  34.631  34.954  13.549
25555W        W97980  36.667   3.177   3.205
25556W        W97981  29.928  26.674  13.774
25557W        W97982   4.674   0.248   0.841
25558W        W97983  42.793  28.482   0.463
25559W        W97984  11.091  13.131  12.961
25560W        W97985  25.425  33.495   0.273
25561W        W97986   4.730  18.658   3.693
25562W        W97987  23.036  23.679   3.664
25563W        W97988  34.063  22.639   1.377
25564W        W97989  38.575  10.170   1.835
25565W        W97990  23.926  28.099   2.865
25566W        W97991  13.844  33.619   0.537
25567W        W97992  16.103   8.624  13.092
25568W        W97993   5.426   9.122   3.283
25569W        W97994  20.461  32.158  14.805
25570W        W97995  38.083   1.723   4.190
25571W        W97996  10.316  20.747   0.852
25572W        W97997  28.133  39.871  11.963
25573W        W97998  42.328  13.065   1.439
25574W        W97999   2.311  41.920   2.438
25575W        W98000  34.482  39.063   1.338
25576W        W98001  20.095  18.784  12.111
25577W        W98002  21.603  28.697  14.377
25578W        W98003  29.059  29.206  12.066
25579W        W98004  30.912  11.871   1.773
25580W        W98005  12.497  31.366  11.958
25581W        W98006  43.914  32.378   2.256
25582W        W98007   4.444  44.013   3.703
25583W        W98008  44.914  17.733   0.562
25584W        W98009  40.937   9.074   2.220
25585W        W98010  35.464   9.628   2.852
25586W        W98011  37.740  24.748   4.042
25587W        W98012   9.098  29.627   4.073
25588W        W98013  27.158  11.241   0.992
25589W        W98014   8.773  11.873   0.788
25590W        W98015  30.119  44.226   4.734
25591W        W98016  26.376  27.539  13.435
25592W        W98017  19.751   2.978   2.899
25593W        W98018   7.127   8.742  13.422
25594W        W98019  10.256  17.094  13.636
25595W        W98020  42.994  26.728   2.715
25596W        W98021  12.980   9.687   0.341
25597W        W98022   4.120  27.597   3.737
25598W        W98023  29.967  19.085  13.829
25599W        W98024  13.357  43.389  12.722
25600W        W98025  39.397  35.528   4.693
25601W        W98026  18.785  27.081  14.574
25602W        W98027  24.667  23.896  12.541
25603W        W98028  33.111  18.985  14.603
25604W        W98029  21.583  21.629  12.472
25605W        W98030  40.462  21.522   2.338
25606W        W98031  38.001  28.657  13.030
25607W        W98032  41.085   1.471  13.440
25608W        W98033   7.363   2.721   0.056
25609W        W98034  13.382  36.254  14.577
25610W        W98035   3.327  41.971   0.019
25611W        W98036  36.356  12.594  11.635
25612W        W98037  37.488  34.077  14.374
25613W        W98038  43.991   3.311  10.612
25614W        W98039  33.412  17.639   4.633
25615W        W98040  29.127  34.369   2.223
25616W        W98041   6.419  10.843  11.188
25617W        W98042  14.911   5.507  14.869
25618W        W98043  16.815  44.511   0.449
25619W        W98044  21.854  33.129   3.676
25620W        W98045  39.218   6.046  10.476
25621W        W98046  28.533  20.474  10.275
25622W        W98047   3.724  35.346   2.177
25623W        W98048  38.245  34.068   0.061
25624W        W98049  24.625  32.541  10.555
25625W        W98050   2.553  19.547  10.556
25626W        W98051  38.021   2.511  11.642
25627W        W98052  37.786   5.977   4.730
25628W        W98053   6.188  25.836   9.947
25629W        W98054   8.734  19.648  12.035
25630W        W98055  43.315  30.204  12.510
25631W        W98056  24.755   2.478  10.424
25632W        W98057  19.168  37.130   2.695
25633W        W98058  33.842  10.496  14.336
25634W        W98059  12.468  31.436   2.884
25635W        W98060   1.014  30.848  14.852
25636W        W98061   4.675  19.872  12.478
25637W        W98062  16.491   8.375  12.813
25638W        W98063  44.445   1.501  12.168
25639W        W98064  22.247  12.787   0.202
25640W        W98065  37.299  40.428  13.272
25641W        W98066  34.028  20.615   0.931
25642W        W98067  10.354  35.774  11.569
25643W        W98068  42.207  38.028  12.482
25644W        W98069  43.781  43.699  13.815
25645W        W98070  24.989  40.452  13.383
25646W        W98071   3.799   1.192   0.895
25647W        W98072  23.057   6.157  10.589
25648W        W98073   2.586  22.194   1.196
25649W        W98074  10.408  27.614  11.906
25650W        W98075  34.047  36.255   2.912
25651W        W98076  16.121   9.915   0.209
25652W        W98077  23.474  24.127   3.765
25653W        W98078  32.194  10.572  10.717
25654W        W98079  29.538  11.546   1.415
25655W        W98080  37.550  34.191   0.709
25656W        W98081  27.681   7.241   2.602
25657W        W98082   3.741  37.549  14.877
25658W        W98083  29.349   6.311  13.283
25659W        W98084  39.848  33.194  14.906
25660W        W98085   1.859  25.586  11.441
25661W        W98086  40.408  22.129  13.411
25662W        W98087  26.159  34.416   1.974
25663W        W98088  40.809  34.975  10.649
25664W        W98089  14.711  16.724  13.941
25665W        W98090  40.945  24.253   0.196
25666W        W98091  18.962  34.514  13.618
25667W        W98092  37.820  34.508   0.431
25668W        W98093  11.023   0.761   2.298
25669W        W98094  27.168  31.493  12.982
25670W        W98095  16.734  23.702   1.085
25671W        W98096  25.011   3.249  10.655
25672W        W98097   6.141  33.707  13.058
25673W        W98098   4.660  38.467   0.974
25674W        W98099  33.989  35.453  13.388
25675W        W98100  35.869  15.579   2.728
25676W        W98101  25.107  40.469   1.006
25677W        W98102  18.807  13.511   0.663
25678W        W98103  15.031  24.574  13.446
25679W        W98104  39.456  22.129  14.797
25680W        W98105  27.149  34.539   3.677
25681W        W98106   9.245  33.075  12.586
25682W        W98107  17.212  18.707   3.667
25683W        W98108  40.537   1.448  12.432
25684W        W98109  17.225  34.546  12.834
25685W        W98110   4.269  41.348  11.599
25686W        W98111  40.479  14.192   0.394
25687W        W98112  22.045  29.957   0.190
25688W        W98113  15.907  10.366   4.366
25689W        W98114  14.259  35.849   3.291
25690W        W98115  44.585  11.013  10.530
25691W        W98116  13.755  24.840   0.527
25692W        W98117  25.882  29.718   1.922
25693W        W98118  11.388   8.345   0.953
25694W        W98119  16.775  37.493  13.284
25695W        W98120  36.499   9.139  14.427
25696W        W98121  26.664   6.481   0.361
25697W        W98122   8.730  43.543   4.599
25698W        W98123  17.152  27.216   1.563
25699W        W98124  28.875  35.615   0.570
25700W        W98125  21.653  29.035   2.748
25701W        W98126  19.797  39.073  11.140
25702W        W98127  20.134  11.820   1.815
25703W        W98128  44.807  34.690   3.416
25704W        W98129  34.429   9.755  14.065
25705W        W98130  29.726  12.832   4.122
25706W        W98131   8.393   7.727   0.965
25707W        W98132  37.854  12.094   0.230
25708W        W98133   2.809   6.620   0.826
25709W        W98134   9.130  25.427   2.233
25710W        W98135  10.128  33.931   2.797
25711W        W98136  20.022  29.136   2.804
25712W        W98137   2.880  36.949  13.551
25713W        W98138  28.639  29.643   3.778
25714W        W98139  15.321  41.386   1.755
25715W        W98140   6.101  12.260   0.949
25716W        W98141  34.472  40.753  14.713
25717W        W98142  27.691  36.874   4.062
25718W        W98143   5.665  22.215   4.121
25719W        W98144  27.750   6.000  14.212
25720W        W98145  29.161  30.296   1.835
25721W        W98146  14.175  43.100  14.703
25722W        W98147  14.117  22.240   1.854
25723W        W98148  42.217  36.416  12.865
25724W        W98149  36.560  33.659  13.072
25725W        W98150  41.742  20.517   2.416
25726W        W98151  18.535  37.139  10.711
25727W        W98152  29.514   6.870   3.864
25728W        W98153  35.429  35.579  14.566
25729W        W98154  24.177  43.637   3.969
25730W        W98155  33.135  29.050   4.599
25731W        W98156  19.339  11.163  13.997
25732W        W98157  23.064   6.988   4.160
25733W        W98158  21.520  29.980   0.287
25734W        W98159  42.218  24.386  10.758
25735W        W98160   1.447  40.430  11.625
25736W        W98161  40.525  15.264  12.559
25737W        W98162  36.329  24.464  14.895
25738W        W98163  17.033  30.381  12.923
25739W        W98164  31.508  18.365  13.107
25740W        W98165  17.272  29.003   0.570
25741W        W98166  26.489  28.869  13.665
25742W        W98167  23.375   3.383   0.043
25743W        W98168  43.411   1.332   1.951
25744W        W98169  13.836  31.675   3.192
25745W        W98170  17.625  30.514   0.741
25746W        W98171  25.014  18.789   3.723
25747W        W98172  40.979  22.615  12.561
25748W        W98173  29.920  20.257   3.739
25749W        W98174   4.629  39.339   0.916
25750W        W98175  33.116  44.698   0.888
25751W        W98176  40.864  35.644   1.758
25752W        W98177   4.800  43.770  11.629
25753W        W98178  21.532  29.009  10.685
25754W        W98179   5.685   4.527   3.250
25755W        W98180  37.384  36.812  13.571
25756W        W98181  15.179  38.907   2.696
25757W        W98182  33.986  40.891  12.543
25758W        W98183  18.324  13.611  13.954
25759W        W98184  33.121  33.850   1.903
25760W        W98185  29.141   9.879  14.115
25761W        W98186  14.156  42.180   0.583
25762W        W98187  24.402   6.773  12.417
25763W        W98188   8.439   8.174  10.663
25764W        W98189  35.413   8.450  13.807
25765W        W98190  21.412  21.285  10.060
25766W        W98191   1.650  43.555  12.413
25767W        W98192  31.877  34.965   0.758
25768W        W98193  43.070  18.521   0.895
25769W        W98194  41.766  23.177  10.061
25770W        W98195  38.502  20.480   1.724
25771W        W98196  25.961  33.498   2.375
25772W        W98197  17.115  43.482   0.272
25773W        W98198  33.333   0.986   3.199
25774W        W98199  27.738   2.278   2.715
25775W        W98200  34.620   9.285  13.107
25776W        W98201   2.391  20.642   2.953
25777W        W98202   0.420  18.604  12.959
25778W        W98203  36.908  43.448  13.925
25779W        W98204  32.592  12.872  13.821
25780W        W98205  31.452  10.344   0.462
25781W        W98206  12.080   3.289   0.498
25782W        W98207  26.052  36.793   0.896
25783W        W98208  18.686   8.089  14.267
25784W        W98209  28.179  10.724   2.392
25785W        W98210  35.992  25.705  14.033
25786W        W98211  31.626  22.123   2.206
25787W        W98212  10.608  20.902  12.797
25788W        W98213  18.755  20.861   3.134
25789W        W98214  11.295   9.088   3.732
25790W        W98215  12.594  17.531   2.760
25791W        W98216  36.521  31.117  14.924
25792W        W98217  41.433  27.630   1.228
25793W        W98218  14.074  15.166   1.001
25794W        W98219  28.063  42.179   0.511
25795W        W98220  34.125  25.796  10.784
25796W        W98221  23.930  33.111   1.857
25797W        W98222  11.813  42.015  13.116
25798W        W98223   4.780  36.850  13.080
25799W        W98224  41.269  17.026  12.154
25800W        W98225  10.849  14.542  11.171
25801W        W98226  30.224   2.655  11.123
25802W        W98227   8.296   2.923  11.582
25803W        W98228   9.668   8.673   2.127
25804W        W98229   1.515   1.429  10.711
25805W        W98230  16.526   1.552   3.627
25806W        W98231  35.029  37.807  13.105
25807W        W98232  13.149  24.956  10.048
25808W        W98233  30.985  41.872   9.918
25809W        W98234  27.174  12.831  13.039
25810W        W98235  17.271  34.072  13.038
25811W        W98236  40.686  29.549   5.125
25812W        W98237  34.926  12.010  11.087
25813W        W98238  42.978  22.446   2.605
25814W        W98239   9.790  33.166   0.507
25815W        W98240  26.690  24.501   0.741
25816W        W98241  10.882   7.915  13.337
25817W        W98242  41.440  34.649   4.204
25818W        W98243  30.442  44.999   0.988
25819W        W98244  31.368   6.596   3.793
25820W        W98245  12.609   4.738   0.847
25821W        W98246  10.631  14.603   3.108
25822W        W98247   9.739  31.828   4.654
25823W        W98248  34.632   6.964  14.512
25824W        W98249  15.225  10.593   4.936
25825W        W98250  27.170  20.336   1.474
25826W        W98251  36.639  17.575  12.614
25827W        W98252   0.746  37.341   4.112
25828W        W98253   1.188  22.346  10.902
25829W        W98254  33.883  35.397   3.186
25830W        W98255  30.129  11.577  14.746
25831W        W98256   7.381  17.461   3.616
25832W        W98257   5.359  37.918  14.998
25833W        W98258  25.062   8.313   1.569
25834W        W98259  40.032  34.430   2.225
25835W        W98260  37.973   5.626   1.271
25836W        W98261  26.196  12.686   0.058
25837W        W98262   9.382   0.364  11.516
25838W        W98263  29.813   2.925  11.386
25839W        W98264  30.674  38.119   0.224
25840W        W98265  34.305  33.039  14.863
25841W        W98266  38.536  12.720   0.295
25842W        W98267  20.625   4.320  11.861
25843W        W98268  30.943   5.293  11.637
25844W        W98269  33.999  15.845  11.628
25845W        W98270   8.696   7.195   4.560
25846W        W98271  24.128   3.367  10.243
25847W        W98272  39.648  19.744   0.694
25848W        W98273  33.121  11.176   1.647
25849W        W98274  39.995   7.349   0.657
25850W        W98275  41.734  15.727   3.567
25851W        W98276  27.308  36.862   2.809
25852W        W98277  35.108  26.175   3.747
25853W        W98278  24.706  10.214   3.406
25854W        W98279  19.608  40.843   3.684
25855W        W98280  25.516  32.898  12.103
25856W        W98281   4.473  44.738   0.954
25857W        W98282  44.952  13.662  11.141
25858W        W98283   3.436   2.229   2.678
25859W        W98284  33.944  24.236  14.353
25860W        W98285  44.562  37.880  10.263
25861W        W98286  18.187   6.307  11.444
25862W        W98287  36.045  44.407  12.912
25863W        W98288  20.000  31.217   4.234
25864W        W98289  18.591  14.122   5.097
25865W        W98290   2.925  35.521  13.296
25866W        W98291  23.209  18.090   1.327
25867W        W98292  11.590  36.377   3.228
25868W        W98293   9.719  16.091  14.160
25869W        W98294  31.350   9.118   2.758
25870W        W98295  15.851  14.582  11.041
25871W        W98296  31.503  37.482  13.369
25872W        W98297  15.889   6.896  14.568
25873W        W98298  26.596  30.934  11.681
25874W        W98299   4.573   7.633  14.834
25875W        W98300   2.429  37.844  13.389
25876W        W98301  18.015  44.297  10.601
25877W        W98302   6.863  34.587  13.058
25878W        W98303  28.346   9.953   1.247
25879W        W98304   5.771  40.120   2.565
25880W        W98305   1.878  17.008  11.552
25881W        W98306  35.413  16.811  14.421
25882W        W98307  24.990  22.111  14.280
25883W        W98308  30.053   0.291   3.925
25884W        W98309  23.640  29.062  10.635
25885W        W98310  18.855  23.533   3.105
25886W        W98311  25.689   3.255   0.769
25887W        W98312   3.476  19.755   1.632
25888W        W98313  32.695  23.849   3.223
25889W        W98314  42.420  17.100  14.340
25890W        W98315  34.455  37.961   2.213
25891W        W98316  18.266  25.938   1.174
25892W        W98317   2.809   9.631   1.181
25893W        W98318  10.048  13.987   5.131
25894W        W98319  43.745  17.934  13.122
25895W        W98320  39.253  42.452  10.875
25896W        W98321   4.784  20.025   1.505
25897W        W98322  12.085  19.108  14.567
25898W        W98323   0.565  24.423  13.392
25899W        W98324  39.274  38.516  10.668
25900W        W98325  42.923   1.270   1.666
25901W        W98326  16.791  16.598   3.534
25902W        W98327  42.167  13.150  12.134
25903W        W98328  26.582   4.060   0.280
25904W        W98329  44.576   4.586   0.759
25905W        W98330  43.341  38.486   3.300
25906W        W98331   5.695  17.359   4.913
25907W        W98332  41.353   2.651   1.289
25908W        W98333  13.468  43.825   3.162
25909W        W98334   9.124  44.302   2.884
25910W        W98335  21.776  35.084   1.346
25911W        W98336  40.509  44.456   2.621
25912W        W98337  16.676  24.041  13.031
25913W        W98338  24.570  26.056  13.868
25914W        W98339  10.384  30.001  11.257
25915W        W98340   9.937  19.082   3.653
25916W        W98341  26.092  29.173  13.491
25917W        W98342  14.067  43.361   1.397
25918W        W98343  23.754  14.257   4.032
25919W        W98344  41.361  21.466  11.438
25920W        W98345  38.869  30.846   3.293
25921W        W98346  36.396  39.748   2.355
25922W        W98347  26.917  19.027   0.760
25923W        W98348  22.513   6.253  13.581
25924W        W98349  29.104   5.581   1.811
25925W        W98350  20.658  31.121   4.716
25926W        W98351   5.695  29.147  13.164
25927W        W98352   2.991  24.734  12.060
25928W        W98353  32.154  14.239   3.715
25929W        W98354  22.610   4.382  12.008
25930W        W98355   1.742  32.449  11.827
25931W        W98356  32.630  43.272   4.320
25932W        W98357  16.741  22.824  12.763
25933W        W98358  35.006  21.201  14.322
25934W        W98359   5.799   7.733   3.347
25935W        W98360  26.205  18.296   4.555
25936W        W98361  43.399   0.593   1.336
25937W        W98362  38.127  31.732  14.569
25938W        W98363  23.661  28.969  13.433
25939W        W98364   1.671  11.321  14.312
25940W        W98365  32.086  32.841   2.350
25941W        W98366   6.196  33.495  14.466
25942W        W98367  33.357  28.601   0.797
25943W        W98368  15.878  39.053  13.431
25944W        W98369  20.195   7.641  13.814
25945W        W98370  34.482  33.549  10.615
25946W        W98371  28.644  25.244  12.942
25947W        W98372  36.902   3.935   0.315
25948W        W98373   8.970  24.219   3.866
25949W        W98374  43.293  19.605  10.294
25950W        W98375  31.533  32.857  11.238
25951W        W98376  11.297  40.518   0.438
25952W        W98377  38.905  39.644  14.787
25953W        W98378   9.501  10.521  12.417
25954W        W98379  23.646  14.400  11.580
25955W        W98380  29.128  19.342   2.166
25956W        W98381  28.447  42.545   0.414
25957W        W98382   9.627  31.307   4.820
25958W        W98383  44.344  40.074  13.080
25959W        W98384  34.661   9.190   1.307
25960W        W98385  17.195  16.845  14.565
25961W        W98386   7.406  28.693  11.044
25962W        W98387  43.847  26.460   2.349
25963W        W98388  12.318  20.570   2.830
25964W        W98389  39.122  34.483   2.362
25965W        W98390  28.484  44.117   4.151
25966W        W98391  38.435  35.367   3.601
25967W        W98392   9.704   9.361   0.837
25968W        W98393  10.510  32.651  13.842
25969W        W98394  22.190  23.558   3.194
25970W        W98395  21.710  25.747  10.450
25971W        W98396  16.286  29.092  12.570
25972W        W98397  29.441   0.843   4.764
25973W        W98398  42.051  21.038   0.530
25974W        W98399  40.832   9.859  10.739
25975W        W98400  10.543  26.740  12.919
25976W        W98401  11.725  31.929  13.079
25977W        W98402  43.496  31.579   3.757
25978W        W98403  27.712   1.813   4.910
25979W        W98404  18.849   0.431   4.657
25980W        W98405  22.981  38.977  14.347
25981W        W98406  18.262   9.070   3.137
25982W        W98407  22.753  37.557  14.792
25983W        W98408  36.388  19.642  11.064
25984W        W98409  19.113  15.180   3.739
25985W        W98410  20.011  36.647  13.436
25986W        W98411  15.360  23.495   4.479
25987W        W98412  13.310  11.253  12.835
25988W        W98413  20.299  21.890   0.690
25989W        W98414   2.874  24.471   4.744
25990W        W98415  24.286  30.175   3.885
25991W        W98416  11.885   5.203  10.726
25992W        W98417  40.960   9.680  13.615
25993W        W98418   1.228  29.673   0.981
25994W        W98419   9.722  32.893  12.422
25995W        W98420  28.722  31.224   0.813
25996W        W98421   1.260  37.947  12.795
25997W        W98422  11.013  16.697  14.870
25998W        W98423  44.392  10.839  13.683
25999W        W98424  24.606   0.910  12.180
26000W        W98425   4.047  25.564  13.027
26001W        W98426  11.700  13.387   2.791
26002W        W98427  13.631  42.946   0.456
26003W        W98428  16.554  35.566   3.408
26004W        W98429  38.438  14.814   1.439
26005W        W98430   0.929  30.079  11.976
26006W        W98431  43.095  14.897  13.513
26007W        W98432  18.784   9.651  10.648
26008W        W98433  15.803  40.929   0.229
26009W        W98434   4.243  28.101  10.574
26010W        W98435   2.291  14.182  10.698
26011W        W98436  25.227   0.514  12.608
26012W        W98437   8.165   9.905  11.517
26013W        W98438  29.094   8.911   1.384
26014W        W98439  39.637  39.879   4.064
26015W        W98440  36.042  40.538  13.963
26016W        W98441  10.851  39.459  13.851
26017W        W98442  43.709   4.819   2.334
26018W        W98443  12.272   1.215   5.008
26019W        W98444  40.461  23.804   0.849
26020W        W98445  28.190  40.070  12.428
26021W        W98446  29.634  38.912  13.889
26022W        W98447  30.086  32.185   2.210
26023W        W98448  15.055  29.420   0.462
26024W        W98449  23.072   3.438  12.018
26025W        W98450  23.232  18.574  13.916
26026W        W98451   5.794  39.103  13.978
26027W        W98452  38.198  26.364   2.835
26028W        W98453  17.327  12.725  13.861
26029W        W98454  40.944  24.095  12.327
26030W        W98455  24.046   7.836   4.960
26031W        W98456  22.618  43.280   1.924
26032W        W98457  27.713  22.522  10.635
26033W        W98458  27.754  12.237  11.605
26034W        W98459  30.139   9.787  14.450
26035W        W98460  24.796  15.369   2.785
26036W        W98461   2.102  35.326   0.423
26037W        W98462   9.365   4.202  13.998
26038W        W98463   5.950  32.071   1.652
26039W        W98464  23.275  11.154  10.724
26040W        W98465   1.628  31.609  12.368
26041W        W98466  13.663  23.357   0.243
26042W        W98467  19.550  44.971   4.607
26043W        W98468   6.699   5.297   0.671
26044W        W98469   5.675   8.845  11.954
26045W        W98470   4.323   9.193  13.331
26046W        W98471   6.895  43.850  13.774
26047W        W98472  10.205   1.276   0.247
26048W        W98473  13.671  15.097   1.780
26049W        W98474  11.809   4.163   4.598
26050W        W98475  17.335  23.218  11.367
26051W        W98476  18.561  29.021  12.987
26052W        W98477  29.431  28.545  11.057
26053W        W98478   7.137  28.552  11.843
26054W        W98479  18.301   3.652  10.498
26055W        W98480  25.983   4.567   0.680
26056W        W98481  31.579   6.169  13.965
26057W        W98482   0.807  27.035  13.837
26058W        W98483  19.144  34.128   3.239
26059W        W98484  44.374  16.372   1.821
26060W        W98485  30.217   3.729  11.344
26061W        W98486  43.784  36.189  12.051
26062W        W98487  19.245  16.360   2.303
26063W        W98488  21.986  18.566  14.572
26064W        W98489   5.256  29.847  10.851
26065W        W98490   7.177   2.514   3.963
26066W        W98491  12.546  33.059  11.413
26067W        W98492   1.713  22.542   2.257
26068W        W98493   6.665  44.896   3.695
26069W        W98494  42.059  20.353  13.612
26070W        W98495   7.720  34.430   4.067
26071W        W98496  22.546  35.386   0.328
26072W        W98497  19.225  42.445   0.983
26073W        W98498  13.843   2.782   1.314
26074W        W98499  24.558  39.040  10.346
26075W        W98500  41.313  15.520   2.687
26076W        W98501   3.199  37.863   0.359
26077W        W98502   3.246  42.401  14.788
26078W        W98503   3.944  31.916   1.732
26079W        W98504  34.584  40.870   0.206
26080W        W98505   1.443  42.826  14.425
26081W        W98506  24.950  38.073  11.029
26082W        W98507  37.484  10.413   3.205
26083W        W98508  27.890  20.677   4.991
26084W        W98509  14.272  42.020   4.699
26085W        W98510  27.773  16.202  12.511
26086W        W98511  33.184  20.640  14.513
26087W        W98512  42.863   6.859  11.238
26088W        W98513  36.818   8.729  11.912
26089W        W98514  42.252  30.064   3.382
26090W        W98515  20.076  34.804  12.008
26091W        W98516  33.605  44.276   1.995
26092W        W98517   9.871  28.436  14.367
26093W        W98518  24.962   0.319  11.728
26094W        W98519   2.222  35.008  13.391
26095W        W98520  30.537  26.949   3.893
26096W        W98521   3.575  16.247  12.882
26097W        W98522  24.982  23.711  13.017
26098W        W98523  28.539  22.053   4.940
26099W        W98524  20.735  13.366  12.959
26100W        W98525  44.521  17.269  10.001
26101W        W98526   0.474  24.276  12.030
26102W        W98527  10.875  28.682  10.707
26103W        W98528  24.510  19.996   0.416
26104W        W98529  32.157  21.987   0.900
26105W        W98530   7.880   9.819  13.871
26106W        W98531  35.676  31.900   1.759
26107W        W98532  16.747   0.873   1.378
26108W        W98533  42.505  27.560   0.790
26109W        W98534  39.879  20.732   1.681
26110W        W98535  31.233  21.572   3.739
26111W        W98536  29.851   3.434   1.379
26112W        W98537  21.495  35.193  12.544
26113W        W98538  24.591  42.224   2.782
26114W        W98539  13.210  21.084  12.939
26115W        W98540  29.037  43.017  11.517
26116W        W98541   0.379  40.274  10.674
26117W        W98542  41.974   6.651  12.828
26118W        W98543  42.339  32.008  10.902
26119W        W98544  34.890   1.482   4.014
26120W        W98545   4.446  42.289  12.528
26121W        W98546  28.540  18.269   4.356
26122W        W98547  28.984  31.913  13.978
26123W        W98548  25.648  44.875   1.095
26124W        W98549  42.380  28.547  14.094
26125W        W98550  13.752  27.782   2.029
26126W        W98551  20.218   2.305  12.438
26127W        W98552  34.324   9.210  14.816
26128W        W98553   0.410  30.181  14.935
26129W        W98554   9.768  42.676  14.305
26130W        W98555   9.220  43.759  11.518
26131W        W98556  22.688  22.456   1.439
26132W        W98557  10.484  23.755   3.784
26133W        W98558  11.623   5.744   1.414
26134W        W98559  16.774  33.893   4.165
26135W        W98560  38.927  12.830   3.776
26136W        W98561   5.535   3.458   2.177
26137W        W98562  29.549  22.057   2.260
26138W        W98563  21.613  12.202   3.073
26139W        W98564  13.115  14.197  11.852
26140W        W98565  31.523  23.608   3.889
26141W        W98566  12.246  30.989  11.165
26142W        W98567  32.429  23.823   3.687
26143W        W98568  29.835   4.619  11.678
26144W        W98569  22.912   2.213  11.400
26145W        W98570  35.414  37.822   1.643
26146W        W98571  21.143  17.570   4.809
26147W        W98572  13.651  28.074   2.453
26148W        W98573  28.458  34.645  13.811
26149W        W98574  35.991  31.588  11.063
26150W        W98575  20.386  21.384  14.366
26151W        W98576  15.735  42.894  11.646
26152W        W98577   4.018  28.914   0.110
26153W        W98578  22.134   6.454  14.539
26154W        W98579   2.156  30.165   0.303
26155W        W98580  37.479  18.492   3.158
26156W        W98581  42.401  31.477   2.067
26157W        W98582   8.782  26.488   3.129
26158W        W98583  36.905   6.610   2.930
26159W        W98584  34.470  15.652   0.455
26160W        W98585  29.580   7.782  13.798
26161W        W98586  11.730  19.038  10.698
26162W        W98587  22.987   1.866   1.213
26163W        W98588   7.471  38.553   0.460
26164W        W98589  44.979  42.552  10.675
26165W        W98590  12.723  33.052  10.918
26166W        W98591  12.779  34.397   3.980
26167W        W98592  18.541   1.329  11.537
26168W        W98593  33.896   6.532  11.484
26169W        W98594   6.321   2.116   0.177
26170W        W98595  21.553  37.611   3.037
26171W        W98596  23.568   7.450  12.715
26172W        W98597  16.196  10.343   0.475
26173W        W98598  18.338  38.755  10.264
26174W        W98599   1.983   5.127   3.593
26175W        W98600  12.159  33.010   1.404
26176W        W98601   1.374  34.648  11.605
26177W        W98602  16.794  41.554  11.504
26178W        W98603  21.235  41.057   3.604
26179W        W98604   3.487  32.658   3.102
26180W        W98605   9.606  44.929  14.877
26181W        W98606  43.680  40.641   2.937
26182W        W98607  27.506  21.067   0.863
26183W        W98608  10.072  42.654   3.173
26184W        W98609   1.020  30.420  14.549
26185W        W98610  35.765  24.915  14.262
26186W        W98611  29.997  35.912  14.757
26187W        W98612  40.650  29.763   1.901
26188W        W98613  22.677  35.975  14.502
26189W        W98614  14.122  25.706  10.696
26190W        W98615  16.508  15.061   3.653
26191W        W98616  34.479  18.627  13.854
26192W        W98617  37.277   9.411  10.616
26193W        W98618   4.310  24.486   0.781
26194W        W98619  29.113  16.705  11.182
26195W        W98620  19.631  16.312  13.633
26196W        W98621   6.260  31.342   3.300
26197W        W98622  44.795   0.309   0.406
26198W        W98623   2.112  35.893   4.731
26199W        W98624  44.250   1.175   2.506
26200W        W98625  41.833   4.298   1.671
26201W        W98626   7.996  22.142   3.699
26202W        W98627   7.204  40.335  12.324
26203W        W98628  26.942   6.979   4.046
26204W        W98629  44.448  42.756   5.041
26205W        W98630  16.701   4.173   4.612
26206W        W98631  25.347  40.286   2.325
26207W        W98632  21.028  37.350  12.004
26208W        W98633  44.265  15.325  11.583
26209W        W98634  26.261  20.576  14.444
26210W        W98635  31.698   2.658  10.949
26211W        W98636  12.422  36.590  14.505
26212W        W98637  10.778   9.188  11.916
26213W        W98638  23.780   7.179   4.736
26214W        W98639  22.413  10.462   4.107
26215W        W98640  24.152  41.217   3.607
26216W        W98641  30.432  39.396   0.713
26217W        W98642  19.537   8.917  13.785
26218W        W98643  32.935  43.406  14.018
26219W        W98644  29.402  33.213  14.994
26220W        W98645  30.722  15.128  10.785
26221W        W98646   4.229  31.393   0.800
26222W        W98647  42.008  22.392  13.501
26223W        W98648   0.656  43.467  13.844
26224W        W98649  27.094  44.309   0.341
26225W        W98650  40.514   8.801   5.021
26226W        W98651  29.476  24.584  13.754
26227W        W98652   3.196   5.786   4.819
26228W        W98653  16.494   6.557   3.328
26229W        W98654  28.987   6.672  13.377
26230W        W98655  44.725  39.542   1.379
26231W        W98656  17.408  22.742  11.161
26232W        W98657   3.277   1.399   4.285
26233W        W98658  32.727   2.545  12.569
26234W        W98659   8.929   3.025  12.991
26235W        W98660  17.138  42.837  11.402
26236W        W98661  19.123   0.417  14.981
26237W        W98662  36.919  29.531  13.401
26238W        W98663  25.734   6.359   1.952
26239W        W98664  23.221  40.388  14.047
26240W        W98665  12.567   5.315   2.486
26241W        W98666  41.792  23.206  11.952
26242W        W98667  26.684   7.808  13.383
26243W        W98668  41.838  33.149  11.570
26244W        W98669  25.479  26.428   1.578
26245W        W98670   4.351  31.005   0.393
26246W        W98671  18.210  33.190  14.020
26247W        W98672  20.634  19.612   1.908
26248W        W98673  39.480  23.545  10.525
26249W        W98674  28.228  30.987  14.446
26250W        W98675  11.301  38.046  11.091
26251W        W98676  44.310  24.597  14.827
26252W        W98677  15.606  15.587  11.257
26253W        W98678  16.769   5.279  14.900
26254W        W98679   9.071  37.999  12.818
26255W        W98680  16.722  37.653   3.043
26256W        W98681  16.216   6.127  14.303
26257W        W98682  24.719  33.348  12.037
26258W        W98683  33.500  32.578   0.570
26259W        W98684  31.031  19.609   0.006
26260W        W98685   5.647   3.225  12.117
26261W        W98686  37.428  30.169   1.145
26262W        W98687   8.095  17.200   3.803
26263W        W98688  41.747  16.608   2.752
26264W        W98689   7.224  37.360  13.921
26265W        W98690  40.439  25.753  10.925
26266W        W98691  29.585   5.475   4.144
26267W        W98692  17.291  18.766   0.345
26268W        W98693   3.763  35.097   4.457
26269W        W98694  13.110  14.150   0.834
26270W        W98695  34.529  19.682  14.981
26271W        W98696  29.682  37.420   3.809
26272W        W98697  30.568  11.926   4.187
26273W        W98698  21.871   7.664  12.518
26274W        W98699  40.279   4.752  11.328
26275W        W98700  31.971  24.199  10.625
26276W        W98701  31.011  35.613  11.956
26277W        W98702  16.015  42.245   4.103
26278W        W98703  35.692  31.738   3.504
26279W        W98704  19.115  35.543   2.848
26280W        W98705  21.178  39.999  10.688
26281W        W98706  31.403  14.387  11.571
26282W        W98707  25.755  11.170   0.835
26283W        W98708  44.814   6.120   1.944
26284W        W98709  37.905  29.095   2.202
26285W        W98710  36.833  20.593  14.325
26286W        W98711  17.540   8.790   3.588
26287W        W98712  40.885  28.603  14.388
26288W        W98713  30.974  20.515   4.301
26289W        W98714  28.748  29.426   1.660
26290W        W98715  44.167   9.620   4.505
26291W        W98716   5.558  18.314   3.695
26292W        W98717  11.657  19.158   2.426
26293W        W98718  31.834  17.353   1.315
26294W        W98719  24.664   1.022   0.763
26295W        W98720   2.807  12.670   1.321
26296W        W98721  25.433  19.260  13.481
26297W        W98722  34.301   1.610  14.394
26298W        W98723  26.612  15.045   1.962
26299W        W98724   9.176  16.530  12.595
26300W        W98725  24.024  22.993  12.112
26301W        W98726  30.419  29.361  14.577
26302W        W98727  40.459  44.244   4.531
26303W        W98728  10.652  30.216   3.352
26304W        W98729  12.939  18.261   1.260
26305W        W98730  20.792  36.442   1.212
26306W        W98731  20.707  43.012   1.791
26307W        W98732  33.633   4.230   2.227
26308W        W98733  30.126  32.985  11.061
26309W        W98734  10.414  11.926  13.336
26310W        W98735  29.737   7.235   2.884
26311W        W98736  23.868  13.362  11.490
26312W        W98737  39.290  32.405   2.746
26313W        W98738  31.186  27.660  10.505
26314W        W98739  44.722  26.211   2.847
26315W        W98740  18.311  35.061  11.563
26316W        W98741  20.721  42.715   2.226
26317W        W98742  43.974   1.963  13.490
26318W        W98743   2.256  26.126  14.493
26319W        W98744  36.488  34.703  12.807
26320W        W98745  32.031  39.262  11.609
26321W        W98746  21.351  12.959   2.275
26322W        W98747  30.651  18.142  11.237
26323W        W98748  32.983  28.926   2.795
26324W        W98749  22.179  15.300  11.314
26325W        W98750  39.402  13.323  11.109
26326W        W98751   1.808  38.780   0.750
26327W        W98752  11.260  40.914   0.088
26328W        W98753  34.560  31.949   0.776
26329W        W98754   5.607  25.172  14.424
26330W        W98755  30.401   3.790  13.724
26331W        W98756  21.549  36.075  11.964
26332W        W98757  10.765  13.480   3.712
26333W        W98758  42.037  14.255  12.672
26334W        W98759  39.837   2.452  12.923
26335W        W98760   6.220  14.019   3.041
26336W        W98761  37.294  40.150   1.865
26337W        W98762   6.433  14.225  11.645
26338W        W98763   9.207  44.271  12.925
26339W        W98764  21.232  18.516  13.858
26340W        W98765  20.049   8.315   1.471
26341W        W98766  37.084  29.016   4.464
26342W        W98767   7.175  36.118   2.859
26343W        W98768  21.819  19.277  14.943
26344W        W98769  38.842  27.379  14.499
26345W        W98770  36.301  40.444   3.711
26346W        W98771  12.398  24.662   2.840
26347W        W98772   5.711   9.340   2.592
26348W        W98773   3.287  13.861   1.432
26349W        W98774  18.611   9.490  13.420
26350W        W98775  18.551  27.549   4.265
26351W        W98776  35.422   6.376  12.378
26352W        W98777   9.375  19.483  14.662
26353W        W98778  44.275  31.614   1.415
26354W        W98779  42.405  44.791   2.389
26355W        W98780  36.075  42.095   4.012
26356W        W98781  43.272   9.840   4.078
26357W        W98782  40.267   6.539   1.463
26358W        W98783  38.626  10.103   5.011
26359W        W98784  38.284   6.695  12.881
26360W        W98785  38.956  15.285   1.904
26361W        W98786  14.798  36.985  10.753
26362W        W98787  42.486  19.740  14.887
26363W        W98788   0.664   9.683   2.340
26364W        W98789  12.712  40.516  14.303
26365W        W98790   0.538  26.694  13.011
26366W        W98791  39.417  11.305   1.934
26367W        W98792  43.203  12.228  13.630
26368W        W98793  23.820  13.688  14.317
26369W        W98794   2.206  13.776   3.210
26370W        W98795  10.556   2.871   1.829
26371W        W98796  39.483  31.335   2.735
26372W        W98797  21.337   4.756   1.843
26373W        W98798  25.441   0.999   0.263
26374W        W98799  29.375   5.156   3.209
26375W        W98800   7.756   6.242   3.159
26376W        W98801   3.867   9.324  12.017
26377W        W98802  40.389  37.422  11.222
26378W        W98803  25.494  23.930   2.170
26379W        W98804  19.203  39.628   0.798
26380W        W98805  31.805  41.839   2.931
26381W        W98806  17.099  28.548   1.716
26382W        W98807  11.293  18.776   3.201
26383W        W98808   3.385  10.626   4.474
26384W        W98809  12.102  28.137  14.989
26385W        W98810  23.565   1.384   4.464
26386W        W98811   2.713   5.738   3.996
26387W        W98812   9.440  11.783   3.617
26388W        W98813   1.442   8.056  11.096
26389W        W98814  18.620  20.049  14.026
26390W        W98815  18.889   3.669  12.427
26391W        W98816  19.462  18.697   4.198
26392W        W98817   2.286  41.525   1.752
26393W        W98818  11.593  17.222   5.142
26394W        W98819  34.410  34.996  13.091
26395W        W98820  37.620   5.409   0.341
26396W        W98821  38.838   6.631   0.227
26397W        W98822   1.501   5.196  14.038
26398W        W98823   7.991  44.975   1.333
26399W        W98824  41.109  16.350   3.720
26400W        W98825  27.691  32.931  10.875
26401W        W98826  31.666  22.013   2.737
26402W        W98827  40.763  29.130  11.647
26403W        W98828  32.240  17.319   3.329
26404W        W98829  20.572  22.965  13.035
26405W        W98830   7.443  39.994   0.767
26406W        W98831  18.221  24.276  12.861
26407W        W98832   8.350  43.463  12.585
26408W        W98833  38.085  29.601   2.027
26409W        W98834  14.096   0.435   2.616
26410W        W98835  19.165  39.884  12.486
26411W        W98836  17.013  44.986   3.731
26412W        W98837  38.458  38.000  10.554
26413W        W98838   2.036  16.784  12.426
26414W        W98839  31.556  35.070   4.849
26415W        W98840  44.277  18.236  12.544
26416W        W98841  38.795  20.978   3.183
26417W        W98842   4.916  43.370   4.042
26418W        W98843  34.141   1.531  12.532
26419W        W98844  26.095  30.153  14.502
26420W        W98845  14.178  40.138   1.099
26421W        W98846  30.028  37.318  14.446
26422W        W98847  34.983  32.425  14.097
26423W        W98848  19.834  36.976  10.573
26424W        W98849  44.817  35.843   4.427
26425W        W98850   8.429  34.475  14.475
26426W        W98851  17.229  24.134  11.340
26427W        W98852  30.733   2.387   4.458
26428W        W98853   0.715  38.587   3.081
26429W        W98854  44.303  29.392   3.691
26430W        W98855  33.849   5.263  13.053
26431W        W98856  18.299  19.154  13.506
26432W        W98857   8.265  28.480  14.008
26433W        W98858   9.145   9.872  11.689
26434W        W98859   6.744   9.618  14.325
26435W        W98860  19.777  32.340   0.454
26436W        W98861  42.098   8.782  12.115
26437W        W98862  14.755   5.792  10.500
26438W        W98863   0.344   6.674   0.058
26439W        W98864  11.789  29.982   3.362
26440W        W98865  41.984  38.038  11.109
26441W        W98866   3.800  27.964  12.625
26442W        W98867  21.556  38.865   0.994
26443W        W98868   0.140  10.213  14.931
26444W        W98869  26.145   8.818   1.248
26445W        W98870  23.742   3.381  14.655
26446W        W98871  43.369  27.307   3.674
26447W        W98872  17.581  32.518   3.770
26448W        W98873  18.317  36.764  12.937
26449W        W98874  32.976   4.676   4.111
26450W        W98875  40.617  10.287  12.074
26451W        W98876  17.819   7.897  13.921
26452W        W98877  40.405  19.535  14.491
26453W        W98878  25.646  29.132   3.692
26454W        W98879  37.985  16.836  13.317
26455W        W98880   3.452  27.004  14.371
26456W        W98881  41.995  24.038   1.302
26457W        W98882  36.574  37.921   4.189
26458W        W98883  36.815   2.370   4.150
26459W        W98884  16.443  31.138  10.683
26460W        W98885   3.260   8.138  11.635
26461W        W98886  35.834  22.128   2.390
26462W        W98887   8.939  10.264  12.402
26463W        W98888  25.462  16.253  11.951
26464W        W98889  11.146  16.734  10.282
26465W        W98890   5.055  12.170  14.036
26466W        W98891  11.316  40.485  12.044
26467W        W98892  34.376  41.736  12.722
26468W        W98893   0.598   7.428  14.033
26469W        W98894  35.000  13.868   2.308
26470W        W98895   6.639   2.769  13.590
26471W        W98896  11.955  10.222   3.314
26472W        W98897   4.423  32.991   0.320
26473W        W98898  12.918  44.981   1.714
26474W        W98899  18.547  13.466  12.554
26475W        W98900  24.042  18.241  13.125
26476W        W98901  40.808   7.334   1.847
26477W        W98902  41.615  33.231   0.146
26478W        W98903  25.059   1.734  11.451
26479W        W98904  18.497  14.173   4.112
26480W        W98905  30.137  13.093   1.238
26481W        W98906  23.677  34.698   0.402
26482W        W98907  36.988  18.737   4.267
26483W        W98908  38.010   4.896  12.667
26484W        W98909  10.262  14.099  11.772
26485W        W98910  41.568  25.646   2.437
26486W        W98911   5.245   0.073  14.515
26487W        W98912  23.628  18.832   3.206
26488W        W98913  21.265  20.804  14.362
26489W        W98914  29.424  30.634   2.286
26490W        W98915  24.260   5.096  13.855
26491W        W98916   1.697   0.730  13.047
26492W        W98917  29.559  19.713  12.826
26493W        W98918  42.896  16.044   3.347
26494W        W98919   1.957  21.257  14.470
26495W        W98920  41.635   6.791  13.947
26496W        W98921  13.337  17.834  13.397
26497W        W98922  12.166  24.385   2.163
26498W        W98923  33.031   5.979  14.971
26499W        W98924  21.114  23.984  11.697
26500W        W98925  44.469  22.716   1.590
26501W        W98926   1.426  19.349   1.142
26502W        W98927  19.784  41.065   4.113
26503W        W98928  36.864  38.655   3.898
26504W        W98929  39.590   1.682  11.238
26505W        W98930  24.620  20.008  14.735
26506W        W98931  16.337  24.364  14.970
26507W        W98932  12.245   0.345  11.914
26508W        W98933  19.203  15.019   1.070
26509W        W98934  11.732   9.316   2.698
26510W        W98935  20.431  39.507  14.179
26511W        W98936  35.843  14.728   2.436
26512W        W98937  24.675   5.788  12.908
26513W        W98938  33.428  29.139   0.051
26514W        W98939  11.277  33.881   3.621
26515W        W98940  38.853   3.287   3.663
26516W        W98941  24.916   7.130  13.900
26517W        W98942   1.908  16.266   0.059
26518W        W98943   8.760   5.785   4.593
26519W        W98944  11.130   1.412   2.732
26520W        W98945  37.341  44.974   1.661
26521W        W98946  12.253  22.383   1.338
26522W        W98947  34.296   1.936  13.752
26523W        W98948   8.243  21.301  14.224
26524W        W98949  36.074  16.751  10.503
26525W        W98950   9.838   1.578  12.591
26526W        W98951  15.712  34.486   5.447
26527W        W98952  12.298   4.347   4.586
26528W        W98953  22.009  40.930  13.831
26529W        W98954  39.837  27.642   1.618
26530W        W98955  10.715  15.752  13.909
26531W        W98956   2.488  34.979  14.414
26532W        W98957  31.505  17.973   0.774
26533W        W98958  22.005   8.677   0.312
26534W        W98959  15.864  19.062  14.453
26535W        W98960  31.976  31.446  11.915
26536W        W98961  30.627   1.073  12.574
26537W        W98962  20.962  42.050  12.947
26538W        W98963  43.767  37.921  14.741
26539W        W98964  42.347   1.267   0.317
26540W        W98965  41.900  23.131   4.005
26541W        W98966  37.965   5.852   3.295
26542W        W98967  42.554  28.151   3.393
26543W        W98968  18.708   4.367  13.571
26544W        W98969  10.088  37.668  14.260
26545W        W98970  44.226  30.241  12.289
26546W        W98971  34.390  41.372   3.358
26547W        W98972   4.840  41.886   1.388
26548W        W98973  44.563  34.912  14.349
26549W        W98974  44.193  23.305  11.402
26550W        W98975  16.577  14.691   3.235
26551W        W98976  39.470  20.226  13.531
26552W        W98977  33.096  32.003  13.879
26553W        W98978  21.200  35.461   3.084
26554W        W98979  31.975  20.831   3.342
26555W        W98980  15.049  22.592  14.631
26556W        W98981  26.566  28.548  11.935
26557W        W98982   1.342  10.148   4.615
26558W        W98983  40.933  36.206  13.402
26559W        W98984  23.425  35.453   0.969
26560W        W98985  29.969  33.385   4.498
26561W        W98986  23.730  12.272  14.108
26562W        W98987   1.384  14.533  11.332
26563W        W98988  16.013  44.736  12.547
26564W        W98989   2.747  25.504  12.555
26565W        W98990   2.511  43.948  14.536
26566W        W98991  29.907   2.257  14.414
26567W        W98992  37.498  27.502  12.499
26568W        W98993  43.501  20.156  12.172
26569W        W98994  44.765   2.526   2.718
26570W        W98995  13.440  20.719  12.374
26571W        W98996  14.153  16.953  12.315
26572W        W98997  24.453   1.896   3.703
26573W        W98998  34.946  35.002  13.129
26574W        W98999  30.979   5.725   3.825
26575W        W99000  30.029  30.952  12.849
26576W        W99001  20.730  20.119  14.413
26577W        W99002   3.862   0.888   1.481
26578W        W99003  12.260  12.633  12.577
26579W        W99004   1.203   4.439   4.124
26580W        W99005  40.562  11.685  11.358
26581W        W99006  11.882  39.836   3.434
26582W        W99007  44.595   1.022   4.578
26583W        W99008   5.942   1.159   2.829
26584W        W99009  38.377  35.143  11.337
26585W        W99010  35.185  16.323   2.768
26586W        W99011   9.207   9.914   2.709
26587W        W99012  43.540  42.585   2.814
26588W        W99013  33.964  24.003  11.091
26589W        W99014   5.236  24.653  13.103
26590W        W99015  23.573  11.364  11.500
26591W        W99016  40.361   8.598   0.231
26592W        W99017  16.933   2.934   3.845
26593W        W99018  15.740   5.234  14.492
26594W        W99019  42.427  43.528  14.302
26595W        W99020  24.965  34.544   1.607
26596W        W99021  43.892  30.113  10.505
26597W        W99022  22.677   0.369  13.745
26598W        W99023  30.508   5.856  10.714
26599W        W99024  26.674  25.280   1.270
26600W        W99025  37.806   7.729   3.220
26601W        W99026  29.148  13.681  12.148
26602W        W99027  35.512  38.187  11.000
26603W        W99028  25.948  26.210  11.988
26604W        W99029  33.349  27.121  12.971
26605W        W99030  14.681  38.559  12.019
26606W        W99031  37.817  13.920  11.667
26607W        W99032  36.608   7.176  14.491
26608W        W99033  24.468  14.915  11.166
26609W        W99034  19.613  20.270   3.617
26610W        W99035  12.890  34.402  12.363
26611W        W99036   8.671  38.492   3.657
26612W        W99037  30.639  13.373  11.551
26613W        W99038  16.698  35.030  10.361
26614W        W99039  38.823   0.285  10.756
26615W        W99040  14.026  36.832  13.268
26616W        W99041  33.311   5.530   0.000
26617W        W99042   6.820  29.953  12.948
26618W        W99043  44.938  36.625   1.266
26619W        W99044   5.733  19.518   2.848
26620W        W99045  41.224  17.548  12.069
26621W        W99046  23.166  15.335   3.221
26622W        W99047  24.477  21.312   3.188
26623W        W99048   8.144  36.481   3.827
26624W        W99049  26.201  43.986   1.129
26625W        W99050  39.482   4.421  13.010
26626W        W99051   2.204  25.370   3.364
26627W        W99052  30.922  26.937   4.699
26628W        W99053  17.347  42.449  14.437
26629W        W99054   5.655  14.631  11.507
26630W        W99055   8.436  41.565   4.586
26631W        W99056   9.746  38.019   1.856
26632W        W99057  41.333  40.744   1.887
26633W        W99058  30.909  34.594   0.867
26634W        W99059  34.547  24.936   1.185
26635W        W99060  41.961  40.113  14.993
26636W        W99061   8.763  26.576  10.861
26637W        W99062  44.442  15.779   0.926
26638W        W99063  32.302  17.311  11.131
26639W        W99064  12.129  23.998  13.564
26640W        W99065  17.740  35.231   3.231
26641W        W99066  35.398   1.418   2.781
26642W        W99067   3.750  17.241   0.362
26643W        W99068  35.095  22.098  13.388
26644W        W99069  35.260  21.729   0.492
26645W        W99070  28.885  30.458  12.379
26646W        W99071  43.705   6.431  13.373
26647W        W99072  44.141  39.344   4.123
26648W        W99073  21.516  43.965  14.573
26649W        W99074  22.133  35.444   1.553
26650W        W99075   2.888   3.018  12.665
26651W        W99076  11.080  15.105   2.224
26652W        W99077  34.687  33.200   3.168
26653W        W99078  32.344  44.403  11.436
26654W        W99079  17.997  19.400  11.534
26655W        W99080  33.392  16.684  11.648
26656W        W99081   1.935  29.452  12.069
26657W        W99082  27.908  38.876   0.719
26658W        W99083   7.804  42.739   0.526
26659W        W99084  40.598   4.445   4.123
26660W        W99085  28.227  12.921  11.377
26661W        W99086  34.116  40.516  12.921
26662W        W99087   4.751  37.020   1.646
26663W        W99088  18.659  29.488   2.881
26664W        W99089  21.083  17.319  11.781
26665W        W99090  34.641  26.445  11.065
26666W        W99091  35.379   6.645   2.238
26667W        W99092  38.353   0.432  10.605
26668W        W99093  19.159   8.222   0.124
26669W        W99094  37.403   6.382   0.306
26670W        W99095  11.079  23.614  12.607
26671W        W99096  43.004  30.939   5.110
26672W        W99097  32.138  42.392  12.526
26673W        W99098  20.561  43.808   1.427
26674W        W99099  13.630  44.017  11.630
26675W        W99100  39.071  19.116  14.414
26676W        W99101   5.094  35.486   2.396
26677W        W99102   3.857  21.543   0.279
26678W        W99103  20.887  26.536  10.724
26679W        W99104  18.018   6.677   3.946
26680W        W99105   9.192  41.498  13.146
26681W        W99106  28.729   4.188  12.955
26682W        W99107  28.497   4.365   0.860
26683W        W99108  29.526  20.229  13.992
26684W        W99109  44.262  43.272   4.133
26685W        W99110   5.751  21.118   4.084
26686W        W99111  29.592  41.474  12.907
26687W        W99112  11.654   9.512  10.700
26688W        W99113  40.455   4.315   2.325
26689W        W99114  25.390   6.116   4.140
26690W        W99115  25.101   4.391   0.636
26691W        W99116   6.158  32.479  14.786
26692W        W99117  40.902  21.897   1.675
26693W        W99118  37.385   4.790   2.776
26694W        W99119  17.199  21.289  10.353
26695W        W99120  24.569  22.078  14.596
26696W        W99121   3.743  32.803  11.500
26697W        W99122   5.397  40.526  14.532
26698W        W99123  35.379  21.505  13.075
26699W        W99124  21.788  31.995   0.424
26700W        W99125  11.671  16.670   0.431
26701W        W99126  15.699  42.829  13.818
26702W        W99127  36.054  38.618   3.194
26703W        W99128  12.288   7.923   2.743
26704W        W99129  25.383  37.330  12.458
26705W        W99130  31.541   3.613  11.253
26706W        W99131  21.591  38.943  11.291
26707W        W99132   5.182   0.808   3.124
26708W        W99133   6.290  32.525  12.590
26709W        W99134  10.637  16.668   4.303
26710W        W99135   2.310  38.562  13.753
26711W        W99136  35.828  33.996   4.585
26712W        W99137   5.799  22.643  12.444
26713W        W99138  33.120   6.970   4.175
26714W        W99139  36.982  23.796   3.923
26715W        W99140  10.920  43.778   3.208
26716W        W99141  25.393  20.949   3.202
26717W        W99142  24.947  41.681  13.109
26718W        W99143  17.857   3.001   1.318
26719W        W99144   0.284   0.262   3.885
26720W        W99145  38.927  39.256   0.184
26721W        W99146  41.656  13.803  11.532
26722W        W99147  14.522  13.948   5.081
26723W        W99148  36.177  18.101   3.918
26724W        W99149  40.256   3.507  14.338
26725W        W99150  42.992   4.444   0.811
26726W        W99151  44.942  40.878   4.066
26727W        W99152  30.625   8.384   4.013
26728W        W99153   8.620  37.876  12.045
26729W        W99154  17.514  43.691  11.627
26730W        W99155  39.489  15.771   4.048
26731W        W99156  19.565   3.746   5.068
26732W        W99157  15.218  31.412   3.852
26733W        W99158  32.503  16.167   1.844
26734W        W99159  18.827  41.901   2.283
26735W        W99160  42.681   3.867  12.945
26736W        W99161  14.864  19.681  11.197
26737W        W99162  24.066  13.808   3.626
26738W        W99163  12.373   3.705   0.465
26739W        W99164  40.811   6.731  10.482
26740W        W99165  24.723  18.245   4.564
26741W        W99166  33.908   7.625   2.719
26742W        W99167   0.924  23.731   1.625
26743W        W99168  35.447  30.624   4.927
26744W        W99169  29.747  33.352  14.513
26745W        W99170  30.699  16.258   3.728
26746W        W99171  34.264   5.488   2.429
26747W        W99172  30.157  19.224  11.544
26748W        W99173  20.256  30.173  12.431
26749W        W99174  32.717  42.063  14.610
26750W        W99175  31.646  25.264  11.913
26751W        W99176  12.599  26.371   3.363
26752W        W99177  28.537  40.087  11.114
26753W        W99178  29.920  20.645   4.511
26754W        W99179  14.786  18.558  11.937
26755W        W99180  39.081  10.791  13.502
26756W        W99181   6.735  19.553  14.489
26757W        W99182   0.698  14.529  13.494
26758W        W99183  27.020  37.856   0.745
26759W        W99184  31.689  29.197  13.607
26760W        W99185  39.122  24.461   3.845
26761W        W99186  38.511   9.004  13.443
26762W        W99187  23.542  38.912   2.985
26763W        W99188  22.246  19.795  13.046
26764W        W99189   8.403  29.511  14.522
26765W        W99190  31.924   2.014  14.773
26766W        W99191  38.317  34.502   0.320
26767W        W99192  44.014  38.149   0.203
26768W        W99193  10.881  21.979  14.315
26769W        W99194  29.193  26.564   1.821
26770W        W99195  33.383  38.961  10.609
26771W        W99196  40.087  36.442   4.180
26772W        W99197  34.932   3.897   3.602
26773W        W99198  13.143  43.277   4.136
26774W        W99199  42.875  30.129  11.930
26775W        W99200  15.348  34.393   2.781
26776W        W99201  39.692  18.736  14.680
26777W        W99202  41.974   4.787   1.784
26778W        W99203   9.096  14.001   3.143
26779W        W99204   3.840   1.917   2.755
26780W        W99205  29.110  10.902   1.918
26781W        W99206   4.994   5.272  12.441
26782W        W99207  13.259   4.019  10.564
26783W        W99208  40.820   9.308  11.885
26784W        W99209  37.905  37.017   3.786
26785W        W99210  38.974  40.588  11.644
26786W        W99211  32.772  25.142   4.568
26787W        W99212  28.617  22.807   5.108
26788W        W99213  37.116   2.402   2.903
26789W        W99214  28.020  14.253  14.962
26790W        W99215  24.723  19.032   0.783
26791W        W99216  27.914  43.267  14.450
26792W        W99217  32.439  13.350   4.806
26793W        W99218   5.492  15.205  13.090
26794W        W99219   3.238  41.847   3.457
26795W        W99220   0.198  42.401   1.863
26796W        W99221  26.196  14.156   3.578
26797W        W99222  35.667  12.347  11.142
26798W        W99223  38.850  14.652  11.553
26799W        W99224  44.091  20.384   2.259
26800W        W99225  42.218  17.792  11.719
26801W        W99226  15.165  15.613  13.396
26802W        W99227   8.404  26.418   1.355
26803W        W99228  21.046   1.596  11.524
26804W        W99229  31.825  14.038   5.005
26805W        W99230  15.751  31.289   2.216
26806W        W99231  26.407  20.221   2.714
26807W        W99232   5.840  18.782  13.772
26808W        W99233  24.031  42.693  14.728
26809W        W99234  26.786  16.424  14.400
26810W        W99235  26.487  28.204   4.383
26811W        W99236  41.428   6.202   2.626
26812W        W99237  12.181   2.916  14.819
26813W        W99238   1.675   0.236   4.193
26814W        W99239  44.986   8.377   0.273
26815W        W99240  25.228  16.696   2.593
26816W        W99241  34.412  42.259  14.860
26817W        W99242   5.058   5.951  14.867
26818W        W99243  27.546   4.928   4.143
26819W        W99244  40.003  25.497   3.330
26820W        W99245   4.925   8.758  10.581
26821W        W99246  40.290  13.910   0.795
26822W        W99247   4.841  20.074   5.199
26823W        W99248   4.449  29.243  12.624
26824W        W99249  40.084  17.209  14.461
26825W        W99250  19.177  24.242   0.407
26826W        W99251  21.695  21.023  11.578
26827W        W99252  38.925  37.848  10.083
26828W        W99253  11.718   1.284  12.081
26829W        W99254  39.403  37.669   2.718
26830W        W99255  19.710  10.182  14.232
26831W        W99256   1.737  12.629  11.519
26832W        W99257  38.533  44.004  14.839
26833W        W99258  32.813   3.810   0.376
26834W        W99259  42.023  27.729   0.707
26835W        W99260  36.455  33.855  11.331
26836W        W99261  38.164  18.396   1.905
26837W        W99262  22.171  22.740  11.078
26838W        W99263  41.297   1.955   0.776
26839W        W99264  18.025   8.562  14.910
26840W        W99265  24.049  38.921   5.141
26841W        W99266  35.549  14.651   4.672
26842W        W99267  34.510  41.919   3.091
26843W        W99268  12.292   2.427  12.846
26844W        W99269  11.295  20.182  11.078
26845W        W99270  24.124   1.928   3.157
26846W        W99271  12.685  26.573  11.438
26847W        W99272   8.219   6.687   2.351
26848W        W99273  11.940  23.912   4.825
26849W        W99274  25.041  30.984   1.899
26850W        W99275   8.981  28.889   1.090
26851W        W99276  27.719   4.401  12.238
26852W        W99277  21.556   2.006  12.581
26853W        W99278  10.261  16.506  11.715
26854W        W99279  16.029  35.006  13.408
26855W        W99280  11.794   0.856   1.097
26856W        W99281  38.251  22.210   2.266
26857W        W99282  39.091  44.418  14.114
26858W        W99283  21.608  37.329   3.864
26859W        W99284  10.827  28.460   0.605
26860W        W99285  15.248  16.600  13.414
26861W        W99286  43.967  19.960   5.058
26862W        W99287  32.392  23.338  10.420
26863W        W99288  34.647   5.317  12.862
26864W        W99289  41.911  43.998  14.867
26865W        W99290  11.353   4.329  13.280
26866W        W99291   4.818  22.730   4.362
26867W        W99292  28.562  39.587  11.984
26868W        W99293  42.946  36.802   1.770
26869W        W99294  10.257  18.090   2.524
26870W        W99295  39.302  25.974   1.721
26871W        W99296  17.503  16.104  10.741
26872W        W99297  27.334  21.363   9.752
26873W        W99298  41.873  44.697  11.183
26874W        W99299  41.808  43.749   0.318
26875W        W99300   2.943  32.382  11.211
26876W        W99301   7.389   0.583  10.755
26877W        W99302  38.042  26.435  13.415
26878W        W99303  19.076  37.883   2.250
26879W        W99304  32.562  24.226  11.624
26880W        W99305  35.087   9.961   3.198
26881W        W99306   8.353   0.737  12.168
26882W        W99307  17.272  32.632  12.792
26883W        W99308   0.353  41.814  13.019
26884W        W99309  34.668  28.724  12.899
26885W        W99310   3.408  27.122  11.026
26886W        W99311   7.456  42.753  12.414
26887W        W99312  34.129  33.848  12.394
26888W        W99313  39.269  36.941  14.507
26889W        W99314   6.991  37.397  14.826
26890W        W99315  22.246  27.700   4.525
26891W        W99316  40.728  14.875   0.254
26892W        W99317   5.818   0.976   2.313
26893W        W99318  31.607   4.787   4.202
26894W        W99319   4.715   7.058  11.566
26895W        W99320  26.752  22.677  14.499
26896W        W99321  24.500  14.144  14.426
26897W        W99322  13.689  19.650   1.370
26898W        W99323  32.070  34.976   0.278
26899W        W99324  11.118   7.698   4.125
26900W        W99325  13.845  36.111  13.999
26901W        W99326   1.765   8.055   3.649
26902W        W99327   8.427  36.256   4.831
26903W        W99328  41.445  15.499   3.955
26904W        W99329  43.049   0.864  11.105
26905W        W99330  22.769  23.730   4.102
26906W        W99331  42.026  30.601   0.157
26907W        W99332  20.234   8.717  13.842
26908W        W99333  35.380  15.083   1.879
26909W        W99334  33.147  17.663   3.766
26910W        W99335  35.111  22.195  10.789
26911W        W99336  13.283  16.258   3.595
26912W        W99337  43.017  20.243   0.829
26913W        W99338  40.527   0.532  11.606
26914W        W99339   6.292  30.883   2.789
26915W        W99340  34.856  17.246  10.770
26916W        W99341  12.644  34.034   4.319
26917W        W99342   0.041  11.283   2.702
26918W        W99343  28.154  15.537   1.918
26919W        W99344   7.265  39.557   3.420
26920W        W99345  40.425  40.625  14.561
26921W        W99346  29.892  23.723   0.898
26922W        W99347   8.177  22.103  13.582
26923W        W99348  29.686  16.553  13.421
26924W        W99349  27.004   3.306  12.818
26925W        W99350  35.072  12.169  14.195
26926W        W99351   9.172  24.734   1.719
26927W        W99352  27.639   7.664   4.854
26928W        W99353   7.996  10.098  12.438
26929W        W99354  16.155  13.251  12.130
26930W        W99355  34.996  38.533   2.311
26931W        W99356  19.070  19.797   0.863
26932W        W99357  20.834  25.598  12.946
26933W        W99358  19.735  13.697  11.195
26934W        W99359   5.180  37.445  12.821
26935W        W99360  33.606   3.733  13.436
26936W        W99361  11.753  24.401  13.135
26937W        W99362  20.275   6.163  14.439
26938W        W99363  21.584   2.157   0.786
26939W        W99364  12.776   7.450   1.647
26940W        W99365  15.055  36.662   1.070
26941W        W99366  44.417  23.420   1.387
26942W        W99367  26.689  31.993  14.298
26943W        W99368   5.242  30.147  14.774
26944W        W99369  22.047   6.495   1.306
26945W        W99370  15.399  41.677   2.760
26946W        W99371   8.250  32.701  13.923
26947W        W99372  24.602  40.949   0.011
26948W        W99373  12.254   5.676   3.123
26949W        W99374  14.424  15.382  12.369
26950W        W99375  39.980  11.827   3.837
26951W        W99376   3.398  17.406   2.450
26952W        W99377   0.905  33.323   4.623
26953W        W99378  24.998   4.897  11.004
26954W        W99379  23.169   3.357   2.385
26955W        W99380  43.901   6.263   0.904
26956W        W99381  33.095  10.712  12.883
26957W        W99382  39.561  26.628  13.484
26958W        W99383   5.349  25.510   0.846
26959W        W99384  29.928  10.395   0.310
26960W        W99385  26.177  22.296   2.837
26961W        W99386  39.430  26.035  14.769
26962W        W99387  12.801  41.021   1.472
26963W        W99388  14.226  39.826  10.676
26964W        W99389  38.563  34.833  14.471
26965W        W99390  32.530   4.974   4.146
26966W        W99391  14.612  44.437   4.145
26967W        W99392   5.835   5.121  13.957
26968W        W99393   1.715  22.128   3.637
26969W        W99394  28.448  21.957   4.060
26970W        W99395   4.188  15.582  13.366
26971W        W99396  26.842  25.701   2.249
26972W        W99397   5.915  14.199  11.639
26973W        W99398   3.499  19.273  10.516
26974W        W99399  15.058   3.178  10.478
26975W        W99400   5.388  38.803  12.409
26976W        W99401  32.649   1.843   2.817
26977W        W99402   6.779  20.207  14.683
26978W        W99403  43.474  20.784  12.493
26979W        W99404   7.144   5.198   0.415
26980W        W99405   2.237   4.178  12.460
26981W        W99406  27.264  26.558   2.630
26982W        W99407  19.047   3.595   0.468
26983W        W99408  27.362   3.523  11.449
26984W        W99409   0.973   0.833   0.478
26985W        W99410  35.288  12.125   1.842
26986W        W99411   7.293  21.601   2.281
26987W        W99412  10.236   7.597  12.427
26988W        W99413   4.916  37.828  14.693
26989W        W99414  26.733  44.595   1.841
26990W        W99415  22.525  13.721   1.197
26991W        W99416  35.101  14.765   3.738
26992W        W99417   2.434  21.684  14.972
26993W        W99418  18.857  25.793  14.836
26994W        W99419  17.870   1.414   1.202
26995W        W99420  22.046  22.098   0.049
26996W        W99421  24.804  18.736  14.010
26997W        W99422  16.243  24.989   3.251
26998W        W99423   5.453  43.312   4.183
26999W        W99424  41.349  22.239   1.002
27000W        W99425  41.086  16.988  14.521
27001W        W99426  44.916  10.304  10.641
27002W        W99427   7.677  28.241  12.816
27003W        W99428  27.628  26.118   1.012
27004W        W99429  33.161   2.734   0.512
27005W        W99430  38.649   8.249  11.945
27006W        W99431  10.133   3.620  13.995
27007W        W99432  23.732  28.595   0.396
27008W        W99433   4.456  36.310  14.979
27009W        W99434  22.038  40.799   2.913
27010W        W99435   3.543  32.247   1.756
27011W        W99436   2.232  11.784   2.408
27012W        W99437  11.714   2.672   9.987
27013W        W99438   6.814  37.085   4.860
27014W        W99439  27.061  14.508  14.336
27015W        W99440  35.805   2.649  11.201
27016W        W99441  38.451  29.985  14.399
27017W        W99442  28.396   2.278   3.352
27018W        W99443  33.675  19.401   2.793
27019W        W99444  40.521  36.039  10.806
27020W        W99445  14.158   8.663  11.559
27021W        W99446  33.710   7.276   3.325
27022W        W99447  39.895  19.844   1.274
27023W        W99448  10.999   6.862  10.493
27024W        W99449  34.876  41.970  12.023
27025W        W99450  15.050  36.593   1.580
27026W        W99451  44.733  39.140   4.800
27027W        W99452  30.005   4.076   4.313
27028W        W99453  22.279  36.545  12.980
27029W        W99454  41.517  29.636   2.717
27030W        W99455  35.891  29.917   3.640
27031W        W99456  27.943  13.608  12.590
27032W        W99457   3.777  39.386  13.877
27033W        W99458  12.485  15.265  14.227
27034W        W99459   3.969  23.650  10.677
27035W        W99460  19.074  39.360  13.241
27036W        W99461  38.818  23.453  12.641
27037W        W99462  16.103  24.426   2.565
27038W        W99463  44.908  33.667   3.690
27039W        W99464  18.872  40.971  14.069
27040W        W99465   4.898  36.959  10.703
27041W        W99466  13.304   9.641   1.732
27042W        W99467  15.071  30.901  13.030
27043W        W99468  39.658  12.358  14.861
27044W        W99469  14.774   9.244   1.344
27045W        W99470  36.599  14.013   0.438
27046W        W99471  26.682  44.087   1.789
27047W        W99472  28.993  41.583  11.693
27048W        W99473  25.704  25.076  10.747
27049W        W99474   8.197  31.564   1.715
27050W        W99475  20.659  14.844  13.038
27051W        W99476  21.347  33.031   3.698
27052W        W99477  13.849  25.906  13.430
27053W        W99478  24.004  33.913  10.348
27054W        W99479   9.730  25.517   0.840
27055W        W99480   3.774   2.113   3.248
27056W        W99481  40.493  11.865   5.084
27057W        W99482   8.305  42.455  10.992
27058W        W99483  24.143  30.532  11.533
27059W        W99484  36.887  36.953  13.726
27060W        W99485  15.836  41.917   0.239
27061W        W99486   1.919  15.924   3.673
27062W        W99487  15.098  19.570   1.173
27063W        W99488  17.132  17.053  10.468
27064W        W99489  12.611  10.369   3.802
27065W        W99490  32.022  40.377  12.562
27066W        W99491   1.109   2.271  11.849
27067W        W99492   6.741  38.495   2.223
27068W        W99493   7.351  34.140   1.927
27069W        W99494  19.840  43.770   2.344
27070W        W99495   3.725  44.829   4.099
27071W        W99496   8.026  39.459   1.936
27072W        W99497  11.844  18.157   0.282
27073W        W99498   9.680  18.073  14.706
27074W        W99499  37.660  32.904  12.009
27075W        W99500  12.060   2.498   2.833
27076W        W99501   9.876  34.962   2.927
27077W        W99502  13.107  34.859   1.493
27078W        W99503  16.227  32.632   4.218
27079W        W99504  44.783  34.022   1.355
27080W        W99505  32.529  15.842  13.773
27081W        W99506  42.819  44.071   3.731
27082W        W99507  34.403  22.157  13.933
27083W        W99508  31.103  24.698  14.940
27084W        W99509  18.588   3.939   2.200
27085W        W99510   5.667  19.729   4.708
27086W        W99511  21.260  31.529   0.861
27087W        W99512  14.092  43.494   3.743
27088W        W99513  31.104  23.753   0.871
27089W        W99514  42.988   8.301   3.138
27090W        W99515  14.194  33.399   0.223
27091W        W99516   4.033  14.391  12.004
27092W        W99517  36.532  41.430   1.804
27093W        W99518  25.518  10.847   3.355
27094W        W99519  26.736   7.101  14.429
27095W        W99520  33.064  44.902  11.006
27096W        W99521  15.705  42.997   3.531
27097W        W99522  39.073  24.404  12.382
27098W        W99523  44.089   3.141   0.051
27099W        W99524  21.740  36.556  11.111
27100W        W99525  24.491  15.524   3.160
27101W        W99526  24.079   1.908  14.991
27102W        W99527  39.358   9.737   3.330
27103W        W99528  25.142   9.370   1.647
27104W        W99529  33.673  36.451   0.894
27105W        W99530  21.849  44.468   0.993
27106W        W99531  17.687  20.655  10.593
27107W        W99532   1.728  13.198   0.300
27108W        W99533  10.880  11.514  11.671
27109W        W99534   8.269  43.371   3.582
27110W        W99535  42.210  18.882   5.623
27111W        W99536  17.349  25.259  10.669
27112W        W99537  24.706  36.377   1.681
27113W        W99538   1.420  17.219  13.962
27114W        W99539  24.196  39.546  13.169
27115W        W99540  35.571  19.992  12.973
27116W        W99541   4.836   7.133   2.697
27117W        W99542  22.699  21.258   3.280
27118W        W99543  37.108  31.940  14.562
27119W        W99544  14.182  26.482   0.284
27120W        W99545  20.467  38.619   0.299
27121W        W99546  39.255  32.432  11.117
27122W        W99547  11.896  25.500  10.717
27123W        W99548  17.298  29.913   0.379
27124W        W99549   1.808  30.270   4.133
27125W        W99550   4.148  20.270   2.676
27126W        W99551  13.883  43.822   4.093
27127W        W99552   7.821  28.427  13.786
27128W        W99553  17.724  41.361  12.543
27129W        W99554  24.238   4.556  13.054
27130W        W99555   5.570   7.709  13.377
27131W        W99556  40.858  14.082  11.356
27132W        W99557  33.512  34.106  11.081
27133W        W99558  28.563  43.276   1.837
27134W        W99559   5.851  34.170  10.978
27135W        W99560  31.587  40.283  10.460
27136W        W99561   0.014  21.596  13.953
27137W        W99562  33.205   0.360  14.501
27138W        W99563  12.644  22.533  13.046
27139W        W99564  34.056  24.106  12.561
27140W        W99565  12.888   3.898   9.740
27141W        W99566  30.080  22.727   1.756
27142W        W99567  26.807   9.106   0.971
27143W        W99568   7.270   5.247   1.859
27144W        W99569  14.095  18.085  14.048
27145W        W99570  39.134  19.671   4.073
27146W        W99571  27.718  18.953  13.534
27147W        W99572  42.982  39.799  11.968
27148W        W99573  25.501  29.994  11.719
27149W        W99574  28.497  27.780  10.772
27150W        W99575   4.701   2.498   2.727
27151W        W99576  23.682  42.057   0.265
27152W        W99577  28.461  36.941   1.263
27153W        W99578  32.923  32.683  11.965
27154W        W99579  24.524   1.478   1.514
27155W        W99580  31.099  10.295   2.755
27156W        W99581   7.118   5.991   0.849
27157W        W99582  44.685   4.971  11.404
27158W        W99583  44.782  25.975  14.868
27159W        W99584  10.795  19.318   2.945
27160W        W99585  34.835  13.201   1.384
27161W        W99586  23.614  33.607  14.657
27162W        W99587   9.596  34.361  14.523
27163W        W99588   6.368  40.831   3.612
27164W        W99589  20.210   1.331   5.064
27165W        W99590  44.632  36.829   2.795
27166W        W99591  35.114  10.609  14.466
27167W        W99592  22.779   5.280   0.646
27168W        W99593  43.382   6.723  12.907
27169W        W99594  29.966   6.126  14.393
27170W        W99595  40.249  14.664   0.244
27171W        W99596  38.524   3.398  12.536
27172W        W99597  20.295  21.769   4.371
27173W        W99598  32.943   6.329  13.349
27174W        W99599  41.886  15.237   0.059
27175W        W99600  29.460  17.294  11.979
27176W        W99601   2.833  18.014   4.210
27177W        W99602  41.473  24.450   2.642
27178W        W99603   7.170  10.321  10.804
27179W        W99604  19.760  19.311   1.300
27180W        W99605  25.117  27.722   3.605
27181W        W99606  26.677  36.347  14.328
27182W        W99607   7.345  33.387  11.980
27183W        W99608  28.603  12.823   2.609
27184W        W99609   8.954  14.300   2.511
27185W        W99610  44.797   2.064   1.278
27186W        W99611  32.056  37.770   2.037
27187W        W99612  20.241  44.266   0.906
27188W        W99613   5.643  31.157  13.657
27189W        W99614  44.914  37.690   1.038
27190W        W99615  29.075  29.419  14.835
27191W        W99616  28.223  26.655  11.482
27192W        W99617  21.728  43.025   1.075
27193W        W99618   6.473  43.786  12.814
27194W        W99619  35.126  10.007   2.683
27195W        W99620  28.966  44.295   3.977
27196W        W99621  39.888  35.960  14.986
27197W        W99622  27.035  41.766   3.562
27198W        W99623  44.998  32.075  11.513
27199W        W99624  38.706  27.000   0.799
27200W        W99625  31.375  44.809  13.344
27201W        W99626  43.916  20.682  13.960
27202W        W99627  14.321  39.500   3.599
27203W        W99628  41.287  16.997   1.282
27204W        W99629  44.802  25.481  12.492
27205W        W99630  42.759  28.632   4.322
27206W        W99631   0.818  28.717   1.755
27207W        W99632   0.872  12.958  10.823
27208W        W99633  33.457  40.777  12.595
27209W        W99634  40.893  43.413  14.971
27210W        W99635   3.411   1.761  11.153
27211W        W99636  14.182  44.390   2.757
27212W        W99637  30.033  28.628   2.630
27213W        W99638  19.063  35.400  13.578
27214W        W99639  19.782   3.345  12.401
27215W        W99640  14.721  42.267   4.515
27216W        W99641   8.363   0.075   0.954
27217W        W99642   5.377  39.325   2.233
27218W        W99643   0.455  30.924  12.446
27219W        W99644  15.866  43.740   2.191
27220W        W99645  14.691   6.641  10.796
27221W        W99646  19.102   2.899   3.605
27222W        W99647  16.651  21.801   2.690
27223W        W99648  18.261  23.556  14.370
27224W        W99649  14.392  14.270   4.329
27225W        W99650   3.755  10.827   2.357
27226W        W99651   6.672  32.849   2.259
27227W        W99652   1.715  32.136  13.069
27228W        W99653  19.525  28.799  11.691
27229W        W99654  10.198  25.049  14.340
27230W        W99655  11.450  16.680   3.718
27231W        W99656  12.650  24.286   2.375
27232W        W99657  37.035  40.018   0.831
27233W        W99658  13.050  22.996  11.912
27234W        W99659  32.068  26.688   0.712
27235W        W99660  21.477  18.801  11.182
27236W        W99661   3.575  40.993  14.851
27237W        W99662  32.191  15.230  14.347
27238W        W99663   2.394   3.453   4.639
27239W        W99664  19.063  40.481  11.543
27240W        W99665   5.242  32.481  12.977
27241W        W99666  44.286  21.618  10.179
27242W        W99667  20.591  22.005  12.782
27243W        W99668  39.603  28.061   0.432
27244W        W99669   5.093  39.568  12.434
27245W        W99670  44.596  23.617  12.615
27246W        W99671  27.744  23.424   0.169
27247W        W99672  13.055  12.725  12.102
27248W        W99673  15.625  21.253   0.989
27249W        W99674  19.636  13.239  10.954
27250W        W99675  25.654  39.626  14.414
27251W        W99676  10.626  15.153  13.163
27252W        W99677   6.403  28.507   3.213
27253W        W99678  18.374  19.633  13.312
27254W        W99679  13.237  18.274  13.684
27255W        W99680  21.466  39.192  10.502
27256W        W99681   1.400  11.779  12.487
27257W        W99682  24.509  18.038   4.093
27258W        W99683   0.272  17.789   0.978
27259W        W99684  17.645  37.861  11.631
27260W        W99685  18.097  35.525  13.902
27261W        W99686   9.750  39.353   2.701
27262W        W99687  39.588  18.130   3.308
27263W        W99688  43.906  20.550  12.667
27264W        W99689  43.513  21.556  11.077
27265W        W99690  44.242  37.237  14.934
27266W        W99691  29.420   7.436  14.447
27267W        W99692  11.300  28.125   4.607
27268W        W99693  11.340  15.762   4.129
27269W        W99694  31.344  29.380  14.920
27270W        W99695  23.712  29.260  14.901
27271W        W99696  15.135   0.531  11.651
27272W        W99697  37.501  44.815   3.084
27273W        W99698  38.251  38.871   3.647
27274W        W99699  37.528   9.734   4.310
27275W        W99700  24.098  44.975   0.592
27276W        W99701   7.271  15.520   4.937
27277W        W99702  43.259  23.070   3.397
27278W        W99703  15.589  33.128   2.216
27279W        W99704   7.903   0.220  11.952
27280W        W99705  38.134  19.101  11.128
27281W        W99706  10.892   2.737  11.138
27282W        W99707   7.081  20.602   3.695
27283W        W99708  31.656  25.621  12.292
27284W        W99709  30.194  34.036   2.355
27285W        W99710  36.131  26.153  11.168
27286W        W99711   3.207  13.146  13.768
27287W        W99712  33.242  12.665  11.184
27288W        W99713  16.244  33.398   4.675
27289W        W99714  42.414  11.194  12.587
27290W        W99715  16.346  17.687   2.717
27291W        W99716  19.687  14.687   0.524
27292W        W99717   3.940   5.974   3.744
27293W        W99718  13.169  41.413  11.925
27294W        W99719  41.795  29.613   5.132
27295W        W99720  15.732   2.479   5.444
27296W        W99721  17.568   1.716   3.788
27297W        W99722  34.661  24.690   3.749
27298W        W99723  40.157   3.738   1.142
27299W        W99724  43.500  33.989   4.519
27300W        W99725   1.202  32.282   2.772
27301W        W99726  22.544  35.944  13.069
27302W        W99727  13.451   7.456   1.240
27303W        W99728   8.233  44.073  13.987
27304W        W99729  20.744  37.786  13.339
27305W        W99730  32.853  33.008   0.106
27306W        W99731  18.202  19.858  14.392
27307W        W99732  18.548  38.845   2.217
27308W        W99733  11.430  33.338  13.002
27309W        W99734  40.947  25.493  11.129
27310W        W99735  40.030  32.865  13.858
27311W        W99736   0.433   9.365   3.569
27312W        W99737   0.442   9.216  14.821
27313W        W99738  43.790  33.539   2.824
27314W        W99739  43.876   4.321  14.113
27315W        W99740  10.797   1.929   1.875
27316W        W99741  11.788   2.385  10.780
27317W        W99742  13.079  20.586  14.495
27318W        W99743  15.649   9.201   0.812
27319W        W99744  13.013  42.603  10.548
27320W        W99745  12.835  35.185  11.113
27321W        W99746  29.129  10.291   3.295
27322W        W99747  20.267  30.462  11.622
27323W        W99748  30.385  35.013  13.418
27324W        W99749  43.106   5.776   4.744
27325W        W99750  20.545  18.144   0.906
27326W        W99751  25.769   5.679  11.426
27327W        W99752  31.985   5.717  13.131
27328W        W99753  44.791  42.421   0.525
27329W        W99754  42.455  12.042   3.189
27330W        W99755  44.045  37.315   3.168
27331W        W99756  28.445  39.559  13.945
27332W        W99757  40.515   1.471  11.531
27333W        W99758   7.878  43.662   2.876
27334W        W99759   3.228  43.374   1.269
27335W        W99760   2.265  22.757  12.572
27336W        W99761   3.465  17.160  10.755
27337W        W99762  34.901  36.649   3.116
27338W        W99763  27.642  42.493  11.471
27339W        W99764  22.232  18.297   1.291
27340W        W99765  21.524  44.047   0.980
27341W        W99766   4.460  23.601   4.811
27342W        W99767  28.932  12.412  12.127
27343W        W99768   0.158   9.574   2.185
27344W        W99769  18.035  30.015   1.791
27345W        W99770   6.927  16.749   1.235
27346W        W99771  41.566  22.211   4.693
27347W        W99772   1.623  37.389   3.340
27348W        W99773  32.181   5.292   0.882
27349W        W99774  25.460  29.273   5.507
27350W        W99775  19.276  24.986   1.205
27351W        W99776   3.833  30.803   4.808
27352W        W99777  35.946  23.652  13.014
27353W        W99778  36.055  24.004  14.851
27354W        W99779  10.133   5.864   1.888
27355W        W99780  18.725  14.914   1.351
27356W        W99781  27.595  16.823   1.848
27357W        W99782   3.179  42.861   1.372
27358W        W99783  28.176   0.010   0.267
27359W        W99784  34.513   3.742  14.976
27360W        W99785   2.388  23.734  14.716
27361W        W99786  22.319  19.428  12.055
27362W        W99787  27.997  14.512   2.832
27363W        W99788  38.509  22.867   3.373
27364W        W99789  39.775  26.723  11.530
27365W        W99790  20.051  34.798  11.076
27366W        W99791   0.475   5.809  13.361
27367W        W99792   7.639  31.021  10.937
27368W        W99793  26.718  38.442  10.695
27369W        W99794  31.786  37.022   3.379
27370W        W99795   0.504   9.112  13.280
27371W        W99796   0.614  16.027  11.925
27372W        W99797  29.481  10.321   5.081
27373W        W99798  23.644  39.546   0.434
27374W        W99799  18.316  29.794   2.639
27375W        W99800  32.632  31.368  11.269
27376W        W99801  18.821  17.581   2.186
27377W        W99802   4.898  37.519   2.366
27378W        W99803  25.684  21.728   1.930
27379W        W99804  40.972  28.261  11.546
27380W        W99805   5.454  30.125   2.689
27381W        W99806   8.633  12.171   4.661
27382W        W99807  30.490  17.715  12.462
27383W        W99808  12.620   5.789   4.662
27384W        W99809  31.030  23.837   5.686
27385W        W99810  41.463   7.810  10.662
27386W        W99811  31.475  29.492   0.778
27387W        W99812  29.724  21.227  12.079
27388W        W99813  25.487  38.421   4.590
27389W        W99814  24.268   7.413   4.659
27390W        W99815  24.588  10.588  12.967
27391W        W99816  30.445  30.607   0.426
27392W        W99817  24.583  39.982   4.583
27393W        W99818  41.976  15.025   3.227
27394W        W99819   5.176   3.021  12.145
27395W        W99820   9.745  40.458  11.770
27396W        W99821  29.532  10.299   1.762
27397W        W99822   6.110  31.365   2.793
27398W        W99823  19.764   8.770   1.450
27399W        W99824  14.860  37.431   1.086
27400W        W99825  20.395  21.092   4.504
27401W        W99826  28.046   5.434  13.990
27402W        W99827  15.367  19.314   3.322
27403W        W99828  25.656  40.222  12.849
27404W        W99829  15.354   3.816  11.830
27405W        W99830  14.591  21.497  13.380
27406W        W99831  19.281   6.376   0.215
27407W        W99832  18.740  39.570   0.433
27408W        W99833  20.589  30.985   3.155
27409W        W99834  41.365  43.305  14.345
27410W        W99835  17.512   8.686   1.776
27411W        W99836  34.830  27.275  13.142
27412W        W99837   7.694  21.784   2.711
27413W        W99838  22.775   0.891  11.547
27414W        W99839  37.033  30.443  12.337
27415W        W99840  23.169  28.158  11.666
27416W        W99841  17.220  36.668   4.541
27417W        W99842  44.736  35.796  13.383
27418W        W99843  33.447  27.650  14.022
27419W        W99844  37.288  39.926  11.983
27420W        W99845  24.718  33.981   4.260
27421W        W99846  24.363  12.274  12.594
27422W        W99847  22.615   9.679  10.145
27423W        W99848  14.262  23.654   2.335
27424W        W99849   6.885  15.679   0.428
27425W        W99850  44.019   0.585   2.546
27426W        W99851  42.902  39.579  12.424
27427W        W99852  27.149  35.106  11.599
27428W        W99853  26.088   4.263   2.320
27429W        W99854  12.834  18.649  13.151
27430W        W99855   9.262  11.874   1.039
27431W        W99856   3.021  14.285  14.973
27432W        W99857  39.530  35.920   2.318
27433W        W99858  37.791  20.274  14.874
27434W        W99859  10.258   7.679   0.029
27435W        W99860  40.885  39.876   0.799
27436W        W99861  34.926   9.382  13.951
27437W        W99862  35.087  28.420  12.976
27438W        W99863  18.067  39.417  13.135
27439W        W99864  40.151  24.405   1.662
27440W        W99865  10.283  28.463   3.164
27441W        W99866  37.868  18.616  11.624
27442W        W99867  40.748  37.541  14.767
27443W        W99868  23.489  42.838   3.231
27444W        W99869  19.681  41.875  14.713
27445W        W99870  37.481  30.450  12.655
27446W        W99871  43.225  20.045   1.255
27447W        W99872   9.167  32.925   1.388
27448W        W99873  10.456   8.318  14.483
27449W        W99874  14.335  37.469  11.561
27450W        W99875  22.253  39.416   4.644
27451W        W99876  32.666  10.775   1.226
27452W        W99877  30.924   1.375   3.653
27453W        W99878  37.900   9.676   0.524
27454W        W99879  29.934  43.201   1.777
27455W        W99880  40.290   4.672   2.713
27456W        W99881  24.593   5.294  12.647
27457W        W99882  37.092   4.434  10.990
27458W        W99883  24.224  38.704   4.166
27459W        W99884  17.633  12.177  14.479
27460W        W99885  34.958  20.722   3.231
27461W        W99886  18.481  36.091   2.231
27462W        W99887  36.276  28.503   1.380
27463W        W99888  13.896  39.334  14.844
27464W        W99889  31.074  44.795   0.763
27465W        W99890  22.682  31.904  14.295
27466W        W99891  34.809  43.883  14.508
27467W        W99892  31.468  30.917   3.726
27468W        W99893  32.036  26.606   2.440
27469W        W99894  16.508  32.858   2.329
27470W        W99895  13.433   7.659   3.268
27471W        W99896  18.035  31.054  14.814
27472W        W99897  27.440  21.982  14.878
27473W        W99898   9.571  30.502  11.953
27474W        W99899  10.405  16.793  14.987
27475W        W99900   8.200   8.360  11.889
27476W        W99901  16.407  21.237  12.316
27477W        W99902  16.306  25.226   2.383
27478W        W99903   5.215  27.538  11.317
27479W        W99904  26.156   0.720  11.666
27480W        W99905  15.187  24.819   3.144
27481W        W99906  35.952  41.684  13.365
27482W        W99907   2.675  34.395  11.375
27483W        W99908  26.293  12.385   2.747
27484W        W99909  28.471  30.922  13.992
27485W        W99910   4.676   6.959  12.066
27486W        W99911   5.414  33.926  14.369
27487W        W99912   8.110   4.984   0.906
27488W        W99913   5.412  22.643   0.367
27489W        W99914  41.516  21.404  12.410
27490W        W99915  34.171  11.697   2.650
27491W        W99916   0.002   3.473  10.438
27492W        W99917  24.611  21.171  10.150
27493W        W99918  10.255  31.956   2.170
27494W        W99919  23.729  10.171   2.966
27495W        W99920   1.893  27.064  13.907
27496W        W99921   9.806   2.861  14.365
27497W        W99922  24.598   1.322  13.971
27498W        W99923  26.700  31.945  10.329
27499W        W99924   4.921   7.314  10.709
27500W        W99925  44.872  25.930   0.820
27501W        W99926  13.894   0.425  12.084
27502W        W99927  21.233  17.191   3.972
27503W        W99928   9.986   3.103   0.849
27504W        W99929  11.086  34.830  12.843
27505W        W99930  40.806  21.652  11.171
27506W        W99931   0.703   3.825  13.488
27507W        W99932  36.637   3.344  10.293
27508W        W99933   7.218  38.043  14.471
27509W        W99934  40.472  13.405  12.017
27510W        W99935  17.141  12.944  10.741
27511W        W99936  28.714  18.674  12.054
27512W        W99937   1.941  19.225  11.182
27513W        W99938  44.289  25.129   0.746
27514W        W99939   4.066   4.343   4.148
27515W        W99940  12.578  16.191  13.831
27516W        W99941  19.038  43.359  12.014
27517W        W99942  24.781  24.680   2.403
27518W        W99943   0.926  39.355   0.765
27519W        W99944   2.435   2.500  13.751
27520W        W99945   9.300  40.755  11.029
27521W        W99946  39.131  33.126  12.752
27522W        W99947  38.995  14.828   3.719
27523W        W99948  38.081  43.870   4.489
27524W        W99949  26.554  25.776   4.593
27525W        W99950  35.622  21.807  12.571
27526W        W99951  36.662  41.427  14.695
27527W        W99952  27.598  38.739   0.301
27528W        W99953  37.101   3.391   4.036
27529W        W99954   1.924  16.541   1.166
27530W        W99955  40.821  40.758   0.714
27531W        W99956  42.813  14.081  13.848
27532W        W99957  11.753  19.335  12.062
27533W        W99958  40.104  26.058   1.416
27534W        W99959  29.415   8.733   2.267
27535W        W99960   6.961  35.972  13.769
27536W        W99961   9.687  28.565  10.657
27537W        W99962  28.210  19.299   0.133
27538W        W99963  44.752  35.497  14.950
27539W        W99964  40.999   1.203   2.822
27540W        W99965  15.345   0.020   4.615
27541W        W99966   2.830  14.686  14.709
27542W        W99967  10.282  19.581   4.254
27543W        W99968  37.062   8.436   4.734
27544W        W99969  14.751   3.365   1.885
27545W        W99970  17.352   0.407  14.495
27546W        W99971   8.202  35.925   2.877
27547W        W99972  10.687  44.240  12.055
27548W        W99973  11.665  37.818   4.525
27549W        W99974  42.454  34.672   4.042
27550W        W99975  44.124  43.765   1.374
27551W        W99976  41.801   3.815  11.062
27552W        W99977   3.796  36.446  11.591
27553W        W99978  11.362   1.035   1.845
27554W        W99979   8.855  13.509  14.810
27555W        W99980  35.939   7.834   3.681
27556W        W99981  37.058  26.223  11.071
27557W        W99982   2.663  28.559   2.065
27558W        W99983  38.476  44.989   3.653
27559W        W99984  37.517  30.977   2.225
27560W        W99985  43.794   5.440   2.779
27561W        W99986  16.259   3.628   4.194
27562W        W99987  16.402  11.821  11.660
27563W        W99988   6.339   5.322  12.303
27564W        W99989  35.045  30.937   2.215
27565W        W99990   8.680  12.880  13.354
27566W        W99991  18.768  17.543   3.754
27567W        W99992  34.973  26.159   4.602
27568W        W99993  16.589  21.968  13.960
27569W        W99994  28.484   4.737   1.797
27570W        W99995   5.570  12.871  10.806
27571W        W99996  42.446  42.225  11.677
27572W        W99997  39.942   9.270   0.676
27573W        W99998  21.007  38.081   1.906
27574W        W99999  41.540  30.895  11.888
27575W        W    0  16.069  16.858   2.178
27576W        W    1  23.181  36.883   4.770
27577W        W    2  37.093  31.482   0.435
27578W        W    3  23.289  14.301   0.989
27579W        W    4  20.366   7.108  13.318
27580W        W    5  23.070   7.469  14.507
27581W        W    6  20.866  12.616  14.900
27582W        W    7  15.521  27.932   1.309
27583W        W    8  44.972  28.045  12.551
27584W        W    9   1.135  16.687  10.515
27585W        W   10  44.249  12.147  13.503
27586W        W   11   2.383  13.255  14.162
27587W        W   12  22.113  40.004  12.801
27588W        W   13  34.913  17.063   1.203
27589W        W   14   1.984  23.661  14.339
27590W        W   15  23.478  44.867   0.021
27591W        W   16   7.077   4.621   4.316
27592W        W   17   7.593   2.757  12.639
27593W        W   18  30.055  24.582   4.728
27594W        W   19   3.775   3.117   3.890
27595W        W   20  25.988   0.014  12.843
27596W        W   21   9.318  36.205   0.025
27597W        W   22  28.100  40.586  12.469
27598W        W   23  11.835  15.394   0.638
27599W        W   24  17.489  32.814   1.176
27600W        W   25  21.680  25.203  10.571
27601W        W   26   4.410  26.073  13.409
27602W        W   27  16.681   4.968  13.063
27603W        W   28  21.170  38.189  14.160
27604W        W   29  40.338  36.460  11.076
27605W        W   30  41.956  18.348  10.963
27606W        W   31  43.198  22.985  10.698
27607W        W   32  38.537   1.557  12.458
27608W        W   33  35.502  28.822  14.047
27609W        W   34  40.135  28.442  12.356
27610W        W   35  34.065  40.462   4.564
27611W        W   36  24.476  18.092  11.905
27612W        W   37  17.857  33.939   3.326
27613W        W   38  25.172   2.791  14.780
27614W        W   39  39.442  33.575   4.225
27615W        W   40   6.729   7.127  11.524
27616W        W   41  41.696  26.724   0.377
27617W        W   42  30.132  20.678   4.001
27618W        W   43  19.041  41.293   4.551
27619W        W   44   5.155   8.771  11.972
27620W        W   45   0.415   9.866   2.789
27621W        W   46   3.230  43.083  13.150
27622W        W   47  29.865   9.603  14.863
27623W        W   48   4.775  41.986  12.964
27624W        W   49  15.172  19.201   2.482
27625W        W   50  19.712  16.086   2.210
27626W        W   51  11.099  12.304   4.165
27627W        W   52  33.229  18.280   1.608
27628W        W   53  11.236  12.049  11.582
27629W        W   54  33.816   2.810  12.520
27630W        W   55  15.289  37.019   4.442
27631W        W   56  34.899  23.408   3.335
27632W        W   57  24.049   9.286  10.906
27633W        W   58  21.281  22.199  11.051
27634W        W   59   0.233  21.143  10.094
27635W        W   60  40.047  16.071   2.780
27636W        W   61  31.892  13.045  12.896
27637W        W   62  20.261  24.932  12.011
27638W        W   63   3.685  13.641  11.573
27639W        W   64   0.295   4.971   1.370
27640W        W   65  22.434  37.281   4.325
27641W        W   66  27.990  32.580   0.747
27642W        W   67  20.665  17.639   1.870
27643W        W   68  18.195  37.815  13.801
27644W        W   69  20.144  20.740  10.674
27645W        W   70   4.833   5.959   4.149
27646W        W   71  39.054   8.137   2.362
27647W        W   72   9.862  10.348  11.079
27648W        W   73  40.996  21.795  11.619
27649W        W   74   6.425   7.890   4.181
27650W        W   75  16.796  44.276  13.939
27651W        W   76  14.836  23.382  12.283
27652W        W   77  20.126  42.014  12.824
27653W        W   78  32.529  31.434   1.445
27654W        W   79  11.655  33.488   3.166
27655W        W   80  36.472   0.102  12.520
27656W        W   81  36.623  22.358   3.160
27657W        W   82  41.290  30.256  13.853
27658W        W   83  30.735   2.944   1.541
27659W        W   84   1.273  24.145   0.372
27660W        W   85   1.679   7.166   1.355
27661W        W   86  17.674  25.125  13.846
27662W        W   87  36.965  41.111   4.772
27663W        W   88   9.358  32.083   1.789
27664W        W   89  25.946  38.752   3.740
27665W        W   90  15.806  30.386  11.578
27666W        W   91  17.935   4.286   3.197
27667W        W   92   0.311   6.909  14.340
27668W        W   93  37.374   4.262   2.790
27669W        W   94  13.944  43.862   1.638
27670W        W   95  10.392   5.783  10.379
27671W        W   96   4.228  27.564   2.224
27672W        W   97  19.406  13.327  13.393
27673W        W   98  20.630  27.176   4.160
27674W        W   99  28.484  33.045   3.359
27675W        W  100  10.013  38.955  10.641
27676W        W  101  22.495   3.300   2.844
27677W        W  102  24.750  21.737  11.199
27678W        W  103  10.680  28.394  11.109
27679W        W  104  12.156   3.491   5.464
27680W        W  105  20.028  33.484   3.523
27681W        W  106  22.124  10.655  12.818
27682W        W  107  36.312  15.714   0.819
27683W        W  108  10.134  12.593  12.938
27684W        W  109   6.806  11.101   1.300
27685W        W  110  35.833   6.234  14.335
27686W        W  111  21.068  38.900   3.242
27687W        W  112  20.750  18.397   3.887
27688W        W  113  42.276  18.533   0.409
27689W        W  114  39.851   0.958   2.333
27690W        W  115   0.266  13.833  14.425
27691W        W  116  43.033   1.289   3.230
27692W        W  117   7.579  15.578  11.645
27693W        W  118  26.421  18.525  11.530
27694W        W  119  44.733  12.598  12.408
27695W        W  120  43.492  16.639   0.581
27696W        W  121  20.638  16.520   2.343
27697W        W  122  23.218   2.381   3.847
27698W        W  123  17.465  40.505   1.060
27699W        W  124   0.508  27.597  13.101
27700W        W  125  15.909  18.641  11.109
27701W        W  126  28.395   2.926  11.235
27702W        W  127  41.413  21.773   3.839
27703W        W  128  31.610  26.525  12.562
27704W        W  129  24.773  28.524   2.934
27705W        W  130  36.106  32.001  10.735
27706W        W  131  16.597  29.901   1.987
27707W        W  132  10.811  12.661   3.239
27708W        W  133  35.355  41.825   4.596
27709W        W  134  21.099   2.008  14.864
27710W        W  135   5.815   2.980  10.529
27711W        W  136  37.049  41.345  10.533
27712W        W  137  22.713  10.715  14.734
27713W        W  138   5.489  14.337   4.224
27714W        W  139   8.155  23.714  13.002
27715W        W  140   1.594  31.520   3.312
27716W        W  141  14.687  29.689  12.592
27717W        W  142  33.995  43.025   3.235
27718W        W  143  16.302  29.923  11.151
27719W        W  144   7.010  32.170   2.673
27720W        W  145   8.845  20.062   3.132
27721W        W  146  13.989  22.445  10.087
27722W        W  147   3.810  41.134  11.646
27723W        W  148  18.094  17.877  13.749
27724W        W  149   9.848  36.806  10.795
27725W        W  150  40.562  43.515  13.249
27726W        W  151   1.496  25.296  12.796
27727W        W  152  33.415  11.299  13.509
27728W        W  153  12.233  39.417  10.288
27729W        W  154  41.416  17.749   0.588
27730W        W  155   6.820  23.492  10.596
27731W        W  156  23.971  12.640  12.510
27732W        W  157   5.782  35.995   0.170
27733W        W  158  20.632  21.124  13.115
27734W        W  159   2.133  44.295   1.231
27735W        W  160  35.594  10.831  11.483
27736W        W  161  36.491  25.462  12.106
27737W        W  162  41.410   1.855  12.537
27738W        W  163   0.155   8.360   1.560
27739W        W  164  16.340  23.712  13.300
27740W        W  165  37.204   5.870   2.349
27741W        W  166  20.796  43.735  11.573
27742W        W  167  21.758  35.022   0.431
27743W        W  168  32.853  35.351   1.553
27744W        W  169  42.514  37.428  13.326
27745W        W  170   6.823  32.659  11.049
27746W        W  171  33.396  41.738  11.847
27747W        W  172  22.101  16.523  11.905
27748W        W  173  21.064  34.918  11.876
27749W        W  174  29.688  34.051  10.750
27750W        W  175  21.458  39.340   4.065
27751W        W  176  39.200   3.174   2.399
27752W        W  177  42.889   6.779  14.474
27753W        W  178  44.386  22.941  14.843
27754W        W  179  24.309  26.205   0.454
27755W        W  180  26.081  28.933  11.627
27756W        W  181  16.797  14.636  11.912
27757W        W  182  20.466  22.609  10.542
27758W        W  183   5.365  38.628   1.430
27759W        W  184   6.570  19.370   0.003
27760W        W  185  10.879   4.083  10.634
27761W        W  186  28.094  10.414  12.923
27762W        W  187  21.776  12.718   9.647
27763W        W  188  42.687  21.765   5.735
27764W        W  189  19.750  30.986  13.463
27765W        W  190  13.773   0.251  11.607
27766W        W  191  25.711  19.292  14.745
27767W        W  192  19.667  21.584  10.744
27768W        W  193  16.323  32.281   3.868
27769W        W  194  32.621  30.173   4.861
27770W        W  195  24.547  42.720   2.715
27771W        W  196   0.657  11.255  14.474
27772W        W  197   5.942  44.972   1.205
27773W        W  198   7.996   5.866   4.407
27774W        W  199  18.027  38.853   2.239
27775W        W  200   1.730  26.509   2.914
27776W        W  201  39.447  24.474  13.500
27777W        W  202  26.994   6.227  10.701
27778W        W  203  12.933  18.201  10.858
27779W        W  204   6.581  12.491  12.138
27780W        W  205   5.612  20.291  11.685
27781W        W  206  16.100  25.358  12.492
27782W        W  207  15.498  35.172   5.618
27783W        W  208  24.574  43.542  13.067
27784W        W  209   3.441  16.843   4.398
27785W        W  210  20.090  21.981  13.444
27786W        W  211   1.804  43.240   1.262
27787W        W  212  15.353  12.340   2.391
27788W        W  213   7.217  17.609   0.760
27789W        W  214  14.462   7.793   2.405
27790W        W  215  29.547  14.408  12.948
27791W        W  216  26.661   6.995   0.429
27792W        W  217  16.182  18.539   1.689
27793W        W  218  10.618   2.304   4.615
27794W        W  219  17.328  41.878   3.948
27795W        W  220  34.909  28.447  10.714
27796W        W  221  44.411  23.919  13.014
27797W        W  222  44.847  11.360   4.415
27798W        W  223  31.942  40.641  14.367
27799W        W  224  29.123  34.106   0.011
27800W        W  225  30.311  15.736   0.994
27801W        W  226  38.527  42.659  11.790
27802W        W  227  10.260  32.412  13.438
27803W        W  228   8.297  24.670  10.562
27804W        W  229  25.854  40.529   1.638
27805W        W  230   6.376   9.068  10.120
27806W        W  231  22.245  36.657  13.919
27807W        W  232   0.269   7.024   1.372
27808W        W  233  15.377  17.118  11.984
27809W        W  234  13.717  26.587  13.398
27810W        W  235   3.365  44.064  12.763
27811W        W  236  40.103  40.502   1.756
27812W        W  237   0.874  20.338   0.688
27813W        W  238  29.017  42.877   0.257
27814W        W  239  19.163  39.395   4.457
27815W        W  240  23.795  43.850   3.645
27816W        W  241  29.678   0.689  12.465
27817W        W  242  11.144   0.021  12.977
27818W        W  243  38.387  11.116   4.149
27819W        W  244   0.997   3.234  10.664
27820W        W  245   9.681   9.493  11.219
27821W        W  246  14.633  28.615  12.015
27822W        W  247  17.312   1.988   4.637
27823W        W  248   4.215  33.119  13.085
27824W        W  249  21.140  10.644   3.825
27825W        W  250  15.635  26.880   0.143
27826W        W  251  32.383  41.915  11.566
27827W        W  252  23.177  43.569  14.839
27828W        W  253  39.975   8.967  13.004
27829W        W  254  33.081  38.846  11.434
27830W        W  255  33.114   0.264  13.981
27831W        W  256  13.542  34.170   3.226
27832W        W  257  30.119  29.870  11.051
27833W        W  258  22.244  27.727  12.583
27834W        W  259  21.433  18.988  14.056
27835W        W  260  33.619  15.564   4.500
27836W        W  261   4.723   6.463  11.225
27837W        W  262  16.286  43.542   1.924
27838W        W  263   2.522  42.009   1.936
27839W        W  264  32.144  34.358   4.671
27840W        W  265  24.676  18.002   3.294
27841W        W  266   8.960   0.450   4.426
27842W        W  267  27.496  40.986   3.697
27843W        W  268  15.494  18.970   3.708
27844W        W  269  32.983  27.425  13.150
27845W        W  270   7.781  11.407   0.337
27846W        W  271  14.315  36.458  13.056
27847W        W  272  33.333   5.424   4.211
27848W        W  273  28.594   8.821   4.507
27849W        W  274   5.991  20.785   4.438
27850W        W  275  29.537  44.669  12.267
27851W        W  276  42.918   4.274   3.656
27852W        W  277  16.835  42.487  11.018
27853W        W  278  42.900   4.179   1.975
27854W        W  279  27.963  28.503   3.228
27855W        W  280  25.213  43.213  12.571
27856W        W  281  10.150   4.776   9.981
27857W        W  282   0.696  32.668  12.588
27858W        W  283  24.664  25.303  13.392
27859W        W  284  33.035  14.641  13.602
27860W        W  285  21.201  14.134  14.855
27861W        W  286  25.510   5.683   4.397
27862W        W  287   2.244  32.166   2.132
27863W        W  288  38.122  17.016  10.206
27864W        W  289  18.721  25.063   2.566
27865W        W  290  12.010   1.589   0.807
27866W        W  291  32.115   2.904  14.907
27867W        W  292   7.853  26.973   2.867
27868W        W  293  33.134  42.329   4.871
27869W        W  294  35.251  10.997  11.138
27870W        W  295  16.515  16.580  12.459
27871W        W  296   4.510  22.425   4.057
27872W        W  297   3.001  27.105   3.200
27873W        W  298  26.114  42.952   1.776
27874W        W  299  30.844  11.115   1.260
27875W        W  300   9.994   8.392   3.838
27876W        W  301   2.433  37.974   3.854
27877W        W  302  24.855  18.153  10.981
27878W        W  303  21.258   4.405  10.628
27879W        W  304  21.023  27.145  13.914
27880W        W  305  33.581  31.972  14.482
27881W        W  306  43.299   4.493  12.533
27882W        W  307   7.795  11.955  14.561
27883W        W  308  39.479   9.375  14.941
27884W        W  309   9.789  19.408   4.634
27885W        W  310   4.209  34.607   2.544
27886W        W  311  41.423  28.496   4.064
27887W        W  312  41.382  33.066  12.914
27888W        W  313  30.671   0.680  13.833
27889W        W  314   1.741  32.935  11.597
27890W        W  315   6.949   3.953  12.542
27891W        W  316   6.490  24.291   1.339
27892W        W  317  15.069   9.860  12.548
27893W        W  318  28.714   8.268   0.949
27894W        W  319  37.038  34.401  10.358
27895W        W  320  44.042  41.434  10.664
27896W        W  321  23.778  13.737  13.392
27897W        W  322  27.718  34.068   3.733
27898W        W  323   6.501   3.370   0.657
27899W        W  324  29.093  30.016  12.488
27900W        W  325  40.373  16.539   4.729
27901W        W  326  41.335   6.386   4.676
27902W        W  327  38.372  30.108   0.952
27903W        W  328  28.529   8.515  13.418
27904W        W  329  27.689  40.960   3.199
27905W        W  330  41.805  23.817  13.283
27906W        W  331  17.998  23.950   2.788
27907W        W  332  11.681  20.522  11.104
27908W        W  333  41.607  27.395  12.387
27909W        W  334  43.373  29.123  11.451
27910W        W  335  15.293  21.245   1.899
27911W        W  336  28.082   6.878   0.060
27912W        W  337  40.330   1.097   3.191
27913W        W  338  40.787  35.035  11.483
27914W        W  339   8.403  41.239  12.974
27915W        W  340  40.982  19.995  14.941
27916W        W  341  30.776  17.252   5.003
27917W        W  342  12.847  13.203  10.775
27918W        W  343  12.939  43.603   1.784
27919W        W  344  40.005  27.202  12.851
27920W        W  345  39.133  28.586   3.322
27921W        W  346  19.286  34.083  14.345
27922W        W  347  35.797   5.453   3.319
27923W        W  348  28.941   0.462   0.215
27924W        W  349  25.949  16.759   1.839
27925W        W  350  22.716  27.694   1.596
27926W        W  351   6.417  34.996  12.408
27927W        W  352  43.072  33.624   9.900
27928W        W  353  16.820   3.812  11.060
27929W        W  354  38.852  30.399   3.511
27930W        W  355  33.423   9.726   2.165
27931W        W  356  36.068  17.511   4.571
27932W        W  357  27.452   2.809  12.073
27933W        W  358  36.340  28.023   3.179
27934W        W  359  40.558  33.601   3.288
27935W        W  360  37.357   5.754  10.792
27936W        W  361  17.742  28.501   2.455
27937W        W  362  28.907  44.809  14.025
27938W        W  363  36.107  12.676   1.952
27939W        W  364   1.862   1.170   4.226
27940W        W  365   1.986   0.279  12.979
27941W        W  366  16.284  41.587   1.717
27942W        W  367  10.214  26.221  13.904
27943W        W  368  19.513  22.344  14.527
27944W        W  369  36.262  29.137   0.089
27945W        W  370  44.970  10.385  12.047
27946W        W  371  34.892   5.405   3.671
27947W        W  372   3.437   8.162  11.137
27948W        W  373  25.877  21.113  12.409
27949W        W  374  32.566  43.848  12.642
27950W        W  375  10.283   9.309  12.007
27951W        W  376   4.807   4.438   1.597
27952W        W  377   6.270   9.630   0.991
27953W        W  378  44.807  10.204  14.492
27954W        W  379  33.301  30.581   0.766
27955W        W  380  12.052  44.879  11.134
27956W        W  381  10.711   7.914   3.936
27957W        W  382  42.089   1.747   0.298
27958W        W  383   6.315  25.001  10.648
27959W        W  384  16.300   1.449  14.493
27960W        W  385   4.471  21.565  13.496
27961W        W  386   7.728   6.682  11.061
27962W        W  387  43.803   0.907  11.503
27963W        W  388  31.365  25.529   1.786
27964W        W  389  29.428   7.818   3.497
27965W        W  390   6.980  42.977  14.381
27966W        W  391  18.907  26.827  10.345
27967W        W  392  34.903  18.779  10.583
27968W        W  393  36.465  38.583  11.061
27969W        W  394   2.178   4.946   3.133
27970W        W  395   4.438  26.385  12.809
27971W        W  396  18.586  10.005  13.367
27972W        W  397   4.439   9.258  10.852
27973W        W  398  38.037  10.689  11.962
27974W        W  399  26.891   9.991   3.213
27975W        W  400   8.634   1.441   0.857
27976W        W  401   6.010  36.999  12.436
27977W        W  402  31.282  28.020  12.583
27978W        W  403  24.078  23.446  11.186
27979W        W  404  25.484  40.140  11.956
27980W        W  405  14.123  14.090   1.480
27981W        W  406  31.541  14.222   3.194
27982W        W  407  15.710   7.688  12.113
27983W        W  408   5.409  24.115   0.735
27984W        W  409  11.080  22.544   3.630
27985W        W  410   2.939  24.534  10.656
27986W        W  411   1.442  28.668  14.511
27987W        W  412  14.595  34.617  13.442
27988W        W  413   2.877  40.989   4.738
27989W        W  414  30.852  39.584  11.089
27990W        W  415  34.395  38.577  11.214
27991W        W  416   8.917  12.801   1.009
27992W        W  417  22.651   6.498   5.105
27993W        W  418  33.331  41.160   4.799
27994W        W  419  28.661  33.953   4.714
27995W        W  420  16.640  35.376   1.028
27996W        W  421   3.916  35.962  11.683
27997W        W  422   1.372  44.412   4.327
27998W        W  423  44.344  27.577   1.247
27999W        W  424  10.920  20.950   3.313
28000W        W  425  36.996  40.441   0.537
28001W        W  426  28.504  29.562   4.812
28002W        W  427  10.328  35.263  11.586
28003W        W  428  32.637  44.879   0.773
28004W        W  429  12.506  44.802   1.446
28005W        W  430  17.508  17.626  11.905
28006W        W  431   6.315   2.320   1.428
28007W        W  432  11.663  42.838   0.444
28008W        W  433  29.095  18.675  14.140
28009W        W  434  41.966   1.795  12.512
28010W        W  435  29.156  37.201   1.390
28011W        W  436  10.196  28.385  12.441
28012W        W  437  25.212  11.914   1.774
28013W        W  438  13.702  24.280  11.930
28014W        W  439  39.466   2.259   0.492
28015W        W  440  44.642  27.115   0.503
28016W        W  441  11.354  44.752  14.285
28017W        W  442  22.039  21.224   3.748
28018W        W  443  40.778  30.040  10.563
28019W        W  444  30.498  42.977   1.785
28020W        W  445   9.667  15.087  13.569
28021W        W  446  30.620  36.136  11.649
28022W        W  447  36.646  20.659   4.009
28023W        W  448   8.265   4.707   2.644
28024W        W  449  18.711  12.827  11.334
28025W        W  450  39.822   1.954  11.609
28026W        W  451  26.975  16.398   1.229
28027W        W  452  33.857  39.346  12.528
28028W        W  453  13.206  26.401  13.035
28029W        W  454  18.581   7.749   2.045
28030W        W  455  44.904  31.586  10.659
28031W        W  456  26.572  44.237   0.434
28032W        W  457   2.300  23.290  13.453
28033W        W  458  19.154  27.250   1.757
28034W        W  459  17.959  33.469   1.735
28035W        W  460  35.027   1.250  13.880
28036W        W  461  36.961  16.522   1.839
28037W        W  462  40.407  17.533  12.877
28038W        W  463  22.791  29.516  13.729
28039W        W  464   0.179  18.267   2.267
28040W        W  465  11.202  35.961  14.789
28041W        W  466  37.029  14.130  14.033
28042W        W  467  27.929  28.065   4.138
28043W        W  468  38.061  28.105  11.141
28044W        W  469  35.417   3.234  12.781
28045W        W  470  10.396  30.293  11.966
28046W        W  471  37.525  30.593   0.833
28047W        W  472  21.224  28.016  10.120
28048W        W  473  21.491  15.257  14.333
28049W        W  474   8.309  27.186  13.583
28050W        W  475  11.602  10.685  14.993
28051W        W  476  24.535  29.658   3.687
28052W        W  477  14.215  37.836   3.816
28053W        W  478  14.325  40.778   4.390
28054W        W  479  18.238  29.425  12.963
28055W        W  480  22.355   2.211  13.580
28056W        W  481   9.347  20.565   2.914
28057W        W  482   5.978   5.784  10.727
28058W        W  483   6.167  27.025   2.220
28059W        W  484  10.356   5.224   4.588
28060W        W  485  44.323  34.222  10.287
28061W        W  486  20.055  18.542   3.345
28062W        W  487  42.405   3.636   1.361
28063W        W  488  21.453  16.295   3.643
28064W        W  489   0.712  39.127  14.876
28065W        W  490  43.568  12.688   0.366
28066W        W  491   3.786  10.339  10.880
28067W        W  492  36.056  33.527  14.978
28068W        W  493  30.660  40.534  10.230
28069W        W  494  25.046  14.376   2.691
28070W        W  495   8.123   7.433  12.987
28071W        W  496  31.633  26.552  14.814
28072W        W  497  36.595  27.240  13.762
28073W        W  498  21.645  19.508   1.339
28074W        W  499  13.598   2.740  12.004
28075W        W  500  29.580  29.928   1.193
28076W        W  501   1.435  26.211   0.947
28077W        W  502  38.443  32.513   2.239
28078W        W  503  44.797  28.093  10.283
28079W        W  504  28.706  16.654  11.646
28080W        W  505  15.425   1.804   4.506
28081W        W  506  36.279  31.553  13.004
28082W        W  507  38.339   9.160  12.936
28083W        W  508  37.776   1.311   4.112
28084W        W  509  12.782   9.119  13.411
28085W        W  510  21.285   9.431   0.835
28086W        W  511   7.860   1.425   1.353
28087W        W  512  12.733   4.395   9.904
28088W        W  513   4.021   3.061  11.553
28089W        W  514  40.430   7.468  13.377
28090W        W  515   7.285  33.999   4.080
28091W        W  516   1.471  37.940  13.761
28092W        W  517  23.232  13.086   1.372
28093W        W  518  41.330  40.961   3.205
28094W        W  519   4.633  20.015  11.513
28095W        W  520  19.656   9.751   0.493
28096W        W  521  37.014  34.960   4.486
28097W        W  522  41.295  36.013   0.472
28098W        W  523  11.153  12.656   2.784
28099W        W  524  21.433  40.835   4.043
28100W        W  525  21.929   0.865   1.159
28101W        W  526   5.155  10.210   1.387
28102W        W  527  10.681   8.119   4.432
28103W        W  528   5.848  41.007  14.568
28104W        W  529   9.350  20.164   1.703
28105W        W  530   2.117   8.623  13.516
28106W        W  531   5.901  20.235  11.101
28107W        W  532  34.840  35.167  11.660
28108W        W  533  31.592  31.601  13.812
28109W        W  534  26.682  43.146   1.886
28110W        W  535  27.947   0.847   0.772
28111W        W  536  33.127   9.330   1.273
28112W        W  537  15.294  11.876   0.942
28113W        W  538   0.954  33.589  12.155
28114W        W  539  26.864  29.675  14.525
28115W        W  540  36.488  18.687   0.721
28116W        W  541  32.319  15.481   1.255
28117W        W  542   5.854   6.424  11.164
28118W        W  543  31.171   8.854   3.608
28119W        W  544  37.910   1.124  14.188
28120W        W  545  20.556  19.745   4.612
28121W        W  546  32.980  24.231  12.092
28122W        W  547  22.348  41.065  12.672
28123W        W  548  15.761  39.027   1.886
28124W        W  549   0.868  19.633  12.489
28125W        W  550  33.060  19.575  13.870
28126W        W  551   2.474  11.850   1.019
28127W        W  552  30.223  15.626  13.520
28128W        W  553  43.409  36.594  12.589
28129W        W  554  28.009  15.845   3.275
28130W        W  555  15.231  35.466  14.758
28131W        W  556  42.440  24.161   1.022
28132W        W  557  43.545  22.070  10.593
28133W        W  558  23.611  11.451   0.365
28134W        W  559  32.213  34.694  11.513
28135W        W  560  12.296   4.880  12.629
28136W        W  561  18.788  21.518   2.238
28137W        W  562  42.076  16.579  11.212
28138W        W  563  26.447  15.679  13.883
28139W        W  564  13.380  40.261   0.357
28140W        W  565  40.000   1.459  11.593
28141W        W  566  15.574   4.950   2.410
28142W        W  567   5.319  39.459   3.151
28143W        W  568  15.458  24.165   3.612
28144W        W  569  41.827   4.114  11.494
28145W        W  570  31.084  12.524   2.671
28146W        W  571  14.331  16.535   3.110
28147W        W  572  40.960  32.018  10.431
28148W        W  573  15.048   1.542  10.963
28149W        W  574  13.347   9.895   1.277
28150W        W  575   8.072  23.528  11.940
28151W        W  576  40.488  25.646   3.460
28152W        W  577  34.124  40.192  13.359
28153W        W  578  36.683  39.687   4.723
28154W        W  579   6.463   6.458   1.352
28155W        W  580  33.064  29.444  13.046
28156W        W  581  15.826  13.581  10.639
28157W        W  582  30.838  28.542  10.670
28158W        W  583   4.350   2.300  14.931
28159W        W  584  20.228  10.491  12.512
28160W        W  585  11.524  20.039  13.074
28161W        W  586  19.171   9.031  12.424
28162W        W  587  36.525  29.673  12.039
28163W        W  588  32.035  37.401  11.205
28164W        W  589  15.818  41.270  14.807
28165W        W  590  40.305  25.461   2.332
28166W        W  591  31.499  17.773  13.950
28167W        W  592  18.122  22.176  11.021
28168W        W  593   0.693  18.243   2.387
28169W        W  594  32.371  29.913   1.139
28170W        W  595  42.086   7.404  13.475
28171W        W  596  40.326   7.723   5.029
28172W        W  597   4.347  35.097   2.441
28173W        W  598  41.535  37.125   4.084
28174W        W  599  16.148  18.992  13.889
28175W        W  600  18.728   9.321   1.284
28176W        W  601  11.439   0.990  10.589
28177W        W  602   2.338   7.537   1.762
28178W        W  603  18.630  33.430  11.896
28179W        W  604  27.876  39.715  11.549
28180W        W  605   0.427  11.289   3.794
28181W        W  606   3.775  44.292   9.937
28182W        W  607   9.695  21.546   2.089
28183W        W  608  31.258   6.004  11.198
28184W        W  609  13.871   1.058  14.628
28185W        W  610   3.044  23.577   1.738
28186W        W  611   2.456  11.556  11.727
28187W        W  612  41.998  42.952   3.909
28188W        W  613  16.654  32.410   9.714
28189W        W  614   4.451   1.707  11.165
28190W        W  615  13.780  38.796  14.892
28191W        W  616  39.468  39.463   2.887
28192W        W  617  27.150  43.600  14.626
28193W        W  618  44.455  19.765  13.973
28194W        W  619   3.331  11.378   0.008
28195W        W  620  33.019   3.417   4.463
28196W        W  621   6.307  44.286   2.631
28197W        W  622   6.195  39.289   1.944
28198W        W  623  42.403  36.072  14.829
28199W        W  624  15.685  22.234  10.919
28200W        W  625  15.362  29.994  11.032
28201W        W  626  44.345  14.540  12.909
28202W        W  627   6.215  17.687   4.232
28203W        W  628  16.078  44.448  14.708
28204W        W  629  12.285  17.774   2.272
28205W        W  630   1.992   3.476   2.909
28206W        W  631  39.945  30.061   4.918
28207W        W  632   9.413  13.475  10.636
28208W        W  633  43.953  31.141  10.675
28209W        W  634   9.776  35.805  12.864
28210W        W  635  20.642  38.305  12.266
28211W        W  636  25.139  26.676  12.340
28212W        W  637   0.050  42.426   3.408
28213W        W  638  39.428  27.574   4.891
28214W        W  639   0.815  33.818   4.594
28215W        W  640  34.944  34.043  14.861
28216W        W  641  11.691  21.186  13.471
28217W        W  642   3.330  36.648   4.435
28218W        W  643   0.221  20.743  11.181
28219W        W  644  12.522  42.914   3.135
28220W        W  645   6.351  18.520   0.378
28221W        W  646   9.305   7.581   0.779
28222W        W  647  28.422  22.025  12.136
28223W        W  648  34.970  34.168   5.177
28224W        W  649  33.034  11.296   0.686
28225W        W  650  17.825   1.905   4.783
28226W        W  651   7.115  19.477  11.131
28227W        W  652  26.462  27.430  12.420
28228W        W  653  15.703  35.610  11.060
28229W        W  654   5.157   6.337  13.399
28230W        W  655  31.666   6.924   1.947
28231W        W  656  15.792  14.175  14.419
28232W        W  657   1.997  30.423   4.601
28233W        W  658  34.869  11.252  10.835
28234W        W  659  34.981  26.791   4.512
28235W        W  660   5.582  42.037   1.747
28236W        W  661  19.987  11.731   3.389
28237W        W  662  22.977  15.577  10.030
28238W        W  663  12.755  30.384   1.876
28239W        W  664  44.419   1.665   0.267
28240W        W  665  32.171  40.916   4.005
28241W        W  666  36.035  27.169  13.024
28242W        W  667  23.127   1.885   4.110
28243W        W  668  22.338  30.564   1.237
28244W        W  669  19.448  13.357   1.835
28245W        W  670  33.527  15.261   4.028
28246W        W  671  12.825  17.257  12.098
28247W        W  672  23.196   6.908  13.351
28248W        W  673  20.526  30.098   0.666
28249W        W  674  23.445  11.174   4.330
28250W        W  675  19.656  38.242  12.178
28251W        W  676   9.663  42.906   4.256
28252W        W  677  37.667  10.208  11.127
28253W        W  678  38.627  23.212  14.829
28254W        W  679  22.658   1.204   0.856
28255W        W  680  37.543  43.238  13.045
28256W        W  681  29.814  32.926   0.197
28257W        W  682   4.203  18.689   4.625
28258W        W  683  41.627  44.773  10.375
28259W        W  684  36.411  12.117   3.336
28260W        W  685  11.294  43.268   4.551
28261W        W  686  39.379  14.089   3.567
28262W        W  687  44.766  28.908  13.803
28263W        W  688  34.523  17.863  14.260
28264W        W  689  11.241   5.992  10.496
28265W        W  690   8.837  22.248   0.453
28266W        W  691  43.983  24.685  14.448
28267W        W  692  38.071  14.457  10.958
28268W        W  693  22.986   6.171   3.310
28269W        W  694  40.283  27.933  14.331
28270W        W  695   8.764  43.347  13.091
28271W        W  696  35.484  28.871   0.349
28272W        W  697  31.337  42.177   2.814
28273W        W  698  14.056  31.114  12.304
28274W        W  699  37.888  21.660   4.064
28275W        W  700  18.614  26.746   1.197
28276W        W  701  40.842   6.191   3.237
28277W        W  702  28.064  21.547   2.832
28278W        W  703  27.669  44.206   1.488
28279W        W  704  27.097  18.121   5.142
28280W        W  705  23.550  21.686   3.147
28281W        W  706  10.338  17.360  11.205
28282W        W  707  21.577  33.228  11.030
28283W        W  708  13.610  30.260   3.386
28284W        W  709  12.388  32.620   0.593
28285W        W  710  40.085  32.376   4.189
28286W        W  711  15.470  35.286  13.946
28287W        W  712  15.274  23.063   2.242
28288W        W  713  13.905   3.012   3.593
28289W        W  714  20.836  31.591  11.726
28290W        W  715  22.653   0.321  12.541
28291W        W  716  24.200   9.882  13.614
28292W        W  717  35.705  16.985  11.233
28293W        W  718   3.262  23.557  11.136
28294W        W  719  11.271   4.449   4.157
28295W        W  720  43.415  25.550  14.868
28296W        W  721  14.353  30.976   0.210
28297W        W  722  12.312   2.947  12.868
28298W        W  723  32.839   8.918   1.366
28299W        W  724   5.153  17.894  14.898
28300W        W  725  39.331  24.666  11.722
28301W        W  726  12.313   5.657   2.129
28302W        W  727  37.554  27.984  13.334
28303W        W  728  35.575  31.107   4.066
28304W        W  729  26.598   5.389  12.411
28305W        W  730  20.320  23.226   0.411
28306W        W  731   9.360  24.576   2.281
28307W        W  732  20.509  35.142   2.314
28308W        W  733  32.098  21.470  14.077
28309W        W  734  15.410   7.790   4.168
28310W        W  735  34.316   2.932  11.654
28311W        W  736  23.682  11.986  12.072
28312W        W  737  28.319  14.746   4.931
28313W        W  738  41.162  20.690   4.556
28314W        W  739  41.018  37.054   1.627
28315W        W  740  16.694  13.838  14.781
28316W        W  741  32.866  13.067   4.705
28317W        W  742  21.162  43.566   3.588
28318W        W  743  33.951   7.590  14.068
28319W        W  744  31.611  15.077  11.062
28320W        W  745  22.691  29.574  14.237
28321W        W  746  31.474  24.392  13.780
28322W        W  747   8.939  15.216  12.539
28323W        W  748  17.130  36.501   5.034
28324W        W  749  14.087  12.801   2.768
28325W        W  750  32.784   8.697   4.383
28326W        W  751  13.672  44.496   2.819
28327W        W  752  11.698  13.714   4.165
28328W        W  753   7.498  21.032  11.613
28329W        W  754  26.574  17.127  13.075
28330W        W  755  31.908  28.066  13.852
28331W        W  756   7.348  10.122   3.838
28332W        W  757  22.896  25.067   4.542
28333W        W  758   6.819  37.750  11.899
28334W        W  759  42.498  11.740  10.746
28335W        W  760  24.188   5.591   2.610
28336W        W  761  30.896  43.526   0.884
28337W        W  762  23.534  35.087  10.925
28338W        W  763  40.026  23.220  14.748
28339W        W  764  38.789  44.024   2.804
28340W        W  765  18.136  10.818   2.532
28341W        W  766  16.967  33.038   3.226
28342W        W  767  36.960  43.995   0.687
28343W        W  768  29.726   1.296  10.836
28344W        W  769  14.138  34.629  12.939
28345W        W  770  26.609  27.560   2.094
28346W        W  771  39.884  21.121   1.292
28347W        W  772   9.784  33.917   3.231
28348W        W  773  28.958  15.102  14.859
28349W        W  774  17.625  33.510   3.137
28350W        W  775   9.204  24.101   4.322
28351W        W  776  32.148  28.683   0.312
28352W        W  777  35.057  18.582  11.025
28353W        W  778   3.221  40.979   0.638
28354W        W  779  44.919   6.116   4.355
28355W        W  780  44.427   8.256   2.211
28356W        W  781  11.260  16.613  13.128
28357W        W  782  37.468   1.230   2.173
28358W        W  783  41.182  19.057   4.008
28359W        W  784   9.813  36.094   4.688
28360W        W  785  17.766  30.106   0.467
28361W        W  786  44.484  12.732   5.133
28362W        W  787  27.400  10.832   0.307
28363W        W  788  26.477  26.234  12.043
28364W        W  789  28.919   8.706  11.948
28365W        W  790  35.393   0.479   2.878
28366W        W  791  42.960  14.175  14.786
28367W        W  792  17.044  14.240  12.607
28368W        W  793  16.655   5.240   4.862
28369W        W  794  42.761  18.348  10.597
28370W        W  795   3.792  17.046  10.375
28371W        W  796  36.900  11.361   0.947
28372W        W  797  18.744  21.733  13.569
28373W        W  798  12.899  25.091   0.286
28374W        W  799  42.972  23.480  10.703
28375W        W  800  36.615  17.098  12.361
28376W        W  801   3.964  28.584  10.597
28377W        W  802  20.658   5.396   1.178
28378W        W  803  14.096   0.341  10.668
28379W        W  804  20.430  14.834  14.941
28380W        W  805  18.694  39.361  11.345
28381W        W  806  28.574  42.691   0.906
28382W        W  807   2.015   1.769  11.083
28383W        W  808  42.560  44.930   0.877
28384W        W  809  23.666  35.490   4.591
28385W        W  810  24.746   0.259   2.775
28386W        W  811  29.629  17.125  11.074
28387W        W  812  12.181   4.712   1.237
28388W        W  813  12.594  36.607   2.272
28389W        W  814  22.438  22.741   4.500
28390W        W  815  43.924  35.970  12.814
28391W        W  816  34.919  19.259   3.980
28392W        W  817  40.322  44.779  14.585
28393W        W  818  33.878  44.771  14.404
28394W        W  819  42.726  43.105  13.042
28395W        W  820  10.556  11.131  14.397
28396W        W  821  23.728  13.117   3.162
28397W        W  822  27.776  20.781   3.295
28398W        W  823  37.878  44.864   0.475
28399W        W  824  38.890   2.447   4.092
28400W        W  825  21.977  12.421   2.301
28401W        W  826  30.700   3.186  10.194
28402W        W  827   5.247  24.558   0.494
28403W        W  828  24.348  30.503   5.359
28404W        W  829  44.927  33.325   1.702
28405W        W  830  22.675  32.515  10.984
28406W        W  831  23.470  29.641  11.563
28407W        W  832  14.026  24.078   3.132
28408W        W  833  16.254   1.742  10.625
28409W        W  834   2.019  22.331   3.119
28410W        W  835  22.821  38.921   3.740
28411W        W  836  28.513   6.602   0.182
28412W        W  837  19.102  20.251   3.603
28413W        W  838   3.619  29.261   5.208
28414W        W  839  28.722  13.786  11.472
28415W        W  840  12.278  34.482   2.214
28416W        W  841   1.966  26.045   3.126
28417W        W  842  12.351  34.923   0.889
28418W        W  843  19.866   1.553  12.894
28419W        W  844  22.706  26.261   3.846
28420W        W  845  29.765   3.761  11.612
28421W        W  846  19.674  43.038   4.564
28422W        W  847  32.646  39.555   3.558
28423W        W  848  24.656  13.225  12.351
28424W        W  849   9.821  19.600   0.192
28425W        W  850  31.536  14.131  13.395
28426W        W  851   8.578   5.249   3.693
28427W        W  852   4.853  12.565   1.321
28428W        W  853  20.670   0.955   2.378
28429W        W  854  31.343  42.437  11.892
28430W        W  855  33.361  43.862  14.429
28431W        W  856  40.786  15.909  11.611
28432W        W  857  28.413  44.512   1.224
28433W        W  858   0.322  25.559  11.557
28434W        W  859  28.507   4.212  11.579
28435W        W  860  42.407   2.189  11.693
28436W        W  861  36.102   8.404   2.863
28437W        W  862  38.377   7.245  10.424
28438W        W  863  32.923  15.578  11.095
28439W        W  864   2.806   5.926  12.036
28440W        W  865  19.646  27.552  13.965
28441W        W  866  28.089  24.640  10.966
28442W        W  867   6.010   8.011   2.924
28443W        W  868   0.876  42.874   1.983
28444W        W  869  25.028  23.544  11.553
28445W        W  870  32.632  41.495  11.331
28446W        W  871  38.484  26.594   0.556
28447W        W  872  13.802  43.379   1.845
28448W        W  873   5.865  15.079  11.744
28449W        W  874  36.349   1.934  13.817
28450W        W  875  20.441  19.044  13.101
28451W        W  876   3.965  34.062  13.827
28452W        W  877  27.019  33.991  10.676
28453W        W  878  10.364  33.600   1.311
28454W        W  879  44.503   5.912   3.743
28455W        W  880  28.552   5.327   4.174
28456W        W  881  31.995  21.088   0.788
28457W        W  882  36.932  36.459  14.439
28458W        W  883  14.790   7.150   1.220
28459W        W  884  38.410  16.112  10.736
28460W        W  885  35.936  30.590   0.227
28461W        W  886  37.117  23.130   0.940
28462W        W  887  16.596  18.748  13.035
28463W        W  888  25.097  24.745  14.877
28464W        W  889   4.317  27.679   4.221
28465W        W  890  16.038  18.021   4.469
28466W        W  891  32.382  44.941  13.512
28467W        W  892  24.814  39.331   1.396
28468W        W  893  12.448  15.086  10.606
28469W        W  894  30.004   8.839  13.805
28470W        W  895   4.179  24.133  11.652
28471W        W  896  22.101  12.710   4.125
28472W        W  897   5.792  38.512  10.979
28473W        W  898  12.542  10.798  11.568
28474W        W  899   9.852  11.919   1.347
28475W        W  900  31.146   0.687   2.894
28476W        W  901  18.236  20.047  13.613
28477W        W  902  21.743   2.656   4.075
28478W        W  903  10.788  27.730   3.508
28479W        W  904  43.308  33.550  12.170
28480W        W  905   7.801  17.212  10.346
28481W        W  906   2.615   6.291   1.751
28482W        W  907  38.577   8.067   0.174
28483W        W  908  15.540   8.609  10.729
28484W        W  909   7.080  37.606   1.209
28485W        W  910  12.433  15.994   2.715
28486W        W  911  17.930  25.020   3.779
28487W        W  912  24.032  38.082  11.289
28488W        W  913  19.951  32.482   1.462
28489W        W  914  17.886  16.959   3.906
28490W        W  915  38.587   3.193   2.308
28491W        W  916  33.210  37.445  14.401
28492W        W  917   4.351  38.856   4.025
28493W        W  918   8.806  35.479   0.304
28494W        W  919   7.405   6.621   1.669
28495W        W  920  14.920  23.745  14.999
28496W        W  921  28.799   7.803  14.027
28497W        W  922  17.961  15.227   4.579
28498W        W  923  16.535   2.781  13.818
28499W        W  924  34.133  10.413   1.626
28500W        W  925  36.423   3.146   0.357
28501W        W  926   5.377   8.987   0.195
28502W        W  927  42.813  44.051   0.389
28503W        W  928  39.782  38.500   0.960
28504W        W  929  42.061  22.821   1.965
28505W        W  930   6.522  10.712   2.335
28506W        W  931  12.389  41.429  12.514
28507W        W  932  16.307  22.071   3.216
28508W        W  933   0.980  22.882   4.800
28509W        W  934  10.294   9.303   4.542
28510W        W  935  10.194  30.067   2.425
28511W        W  936  43.412  19.071  11.070
28512W        W  937  17.510  41.470  13.931
28513W        W  938  21.809  33.665  12.077
28514W        W  939  10.227  40.551  13.378
28515W        W  940  42.854   1.221  10.774
28516W        W  941  20.276  37.080   2.144
28517W        W  942  34.179  20.426   3.716
28518W        W  943  37.401  26.156  11.464
28519W        W  944   9.860  21.025  13.911
28520W        W  945  17.548  41.688  12.122
28521W        W  946  21.770  20.197  12.506
28522W        W  947   7.373  40.533   0.989
28523W        W  948  30.008  26.863   4.668
28524W        W  949   5.740  21.213  13.498
28525W        W  950   9.089   9.883   4.361
28526W        W  951  25.062   4.252   2.179
28527W        W  952   0.813  25.651   1.333
28528W        W  953  20.846  26.110   2.282
28529W        W  954  14.208  34.065  14.143
28530W        W  955  29.148  11.768   3.861
28531W        W  956  40.817  15.360   2.878
28532W        W  957  44.354   7.447   1.735
28533W        W  958  43.515  27.093   3.210
28534W        W  959   1.927  40.639   0.447
28535W        W  960  29.745  18.524   2.988
28536W        W  961  30.483   5.946  11.588
28537W        W  962  15.144  16.792   2.226
28538W        W  963   1.805  30.932  14.333
28539W        W  964  40.466  33.085   0.937
28540W        W  965   6.740  37.738   3.421
28541W        W  966  36.680  44.984   3.662
28542W        W  967  15.066   5.705   0.354
28543W        W  968  27.044  42.738  11.104
28544W        W  969  11.603  13.389   0.785
28545W        W  970  39.357  24.205   1.634
28546W        W  971  24.591  28.676   2.168
28547W        W  972  44.229  15.226  14.518
28548W        W  973  28.312  42.577   3.467
28549W        W  974  10.622  31.028  10.999
28550W        W  975  34.042  21.178   4.173
28551W        W  976   9.855  29.512   3.674
28552W        W  977  40.562   4.195  13.853
28553W        W  978  31.514  28.360  12.905
28554W        W  979   5.780   1.396  12.538
28555W        W  980  22.619   5.723   4.613
28556W        W  981  35.009   2.931  13.078
28557W        W  982  29.131  17.157  10.960
28558W        W  983  19.968   6.187   4.197
28559W        W  984  19.507   6.621  11.189
28560W        W  985  13.468  32.428  13.692
28561W        W  986  17.436  31.302  12.063
28562W        W  987   0.229  39.596  14.401
28563W        W  988  18.706   6.392  13.936
28564W        W  989  17.574  13.567  14.910
28565W        W  990  34.314  11.218  10.636
28566W        W  991   8.456  43.387  12.071
28567W        W  992  12.223  16.276  11.601
28568W        W  993  13.158  39.286  14.326
28569W        W  994  17.990   9.625   1.267
28570W        W  995  22.479  31.478  13.380
28571W        W  996   7.784  39.515   0.601
28572W        W  997   3.696   3.682  10.624
28573W        W  998  39.112  18.663   1.369
28574W        W  999  36.364  42.253  12.409
28575W        W 1000  42.131  43.271   0.390
28576W        W 1001  14.190   9.173  13.300
28577W        W 1002  36.724  11.773  13.980
28578W        W 1003  15.556   8.647   4.613
28579W        W 1004  10.024  24.606   1.454
28580W        W 1005   6.872  21.718  11.232
28581W        W 1006  33.430  15.090   0.269
28582W        W 1007   9.782   8.905  13.362
28583W        W 1008  32.462  11.278  11.498
28584W        W 1009  41.733  13.202   3.594
28585W        W 1010  26.658  17.071  11.208
28586W        W 1011   3.147  35.369   0.393
28587W        W 1012  33.831  44.835  12.641
28588W        W 1013  18.831  24.734  14.906
28589W        W 1014   5.337  30.129   0.287
28590W        W 1015   5.737  22.184   1.811
28591W        W 1016  25.524  15.847   0.347
28592W        W 1017  35.135  21.637   4.333
28593W        W 1018  24.074   4.878  13.454
28594W        W 1019  39.811  27.662   2.121
28595W        W 1020   8.213  22.309  14.665
28596W        W 1021  18.518  11.130  12.905
28597W        W 1022   7.731  26.589   1.935
28598W        W 1023  12.660   8.966   3.694
28599W        W 1024  36.798   4.962  12.518
28600W        W 1025  30.122   9.086   0.456
28601W        W 1026  27.728  40.531  14.437
28602W        W 1027  16.252   1.250   2.919
28603W        W 1028  21.266  33.304   4.129
28604W        W 1029  31.701  14.585   0.718
28605W        W 1030  40.877  39.357   1.512
28606W        W 1031  10.924  10.878   2.765
28607W        W 1032  33.359  22.464   2.382
28608W        W 1033  11.868   1.932  14.877
28609W        W 1034  33.848  17.160  12.547
28610W        W 1035  27.971  39.075   3.608
28611W        W 1036  17.024  16.078  11.622
28612W        W 1037   9.060   6.868  11.371
28613W        W 1038  20.002   5.950   2.118
28614W        W 1039  12.095  19.950  14.903
28615W        W 1040  40.454  38.263  11.340
28616W        W 1041  12.162  31.525  14.429
28617W        W 1042   4.818  29.609  13.586
28618W        W 1043   9.166  22.562   5.387
28619W        W 1044  39.474  38.386  11.150
28620W        W 1045  25.466  43.787  11.975
28621W        W 1046  39.367   2.910  11.576
28622W        W 1047  34.124  23.141   4.211
28623W        W 1048  34.854   3.257   3.831
28624W        W 1049   5.025  26.693  11.118
28625W        W 1050   0.521  38.767  12.442
28626W        W 1051  34.138   0.480  11.517
28627W        W 1052  12.432  42.662   0.909
28628W        W 1053  10.186  23.509  10.601
28629W        W 1054  15.771  11.698   1.871
28630W        W 1055  13.121  17.772   3.754
28631W        W 1056  15.450  13.272  10.750
28632W        W 1057  34.076   8.326   1.186
28633W        W 1058   8.028  23.330  13.987
28634W        W 1059  24.212  30.871  11.135
28635W        W 1060   0.284  42.445   0.380
28636W        W 1061  11.168   1.587   4.571
28637W        W 1062  25.125  35.954  10.629
28638W        W 1063  23.193   2.480  13.336
28639W        W 1064  34.938  21.259  12.340
28640W        W 1065  35.110  34.342   0.264
28641W        W 1066  14.274   6.179  12.960
28642W        W 1067  20.265  40.386   3.220
28643W        W 1068  16.025  20.783   4.093
28644W        W 1069  41.422  44.152   4.556
28645W        W 1070  42.977  21.070   1.470
28646W        W 1071   4.350  43.260   4.137
28647W        W 1072  37.392  25.950  14.989
28648W        W 1073   2.358  38.869  13.317
28649W        W 1074  13.092  29.128   1.833
28650W        W 1075  34.662  24.495  13.318
28651W        W 1076   1.739  40.334  14.488
28652W        W 1077  20.125  37.584   1.927
28653W        W 1078  18.605  34.382   4.779
28654W        W 1079  19.708  11.608  10.463
28655W        W 1080   3.619  37.946  13.978
28656W        W 1081  44.077  24.592   0.296
28657W        W 1082  23.583   2.252  12.000
28658W        W 1083  31.143  21.187   1.982
28659W        W 1084   6.641  12.086   4.884
28660W        W 1085  31.968  17.759   0.937
28661W        W 1086  10.721  32.066  11.125
28662W        W 1087   3.434   7.404   1.691
28663W        W 1088  29.623  21.979  11.498
28664W        W 1089  12.853   7.145   2.735
28665W        W 1090  21.327  44.440  11.284
28666W        W 1091  41.069  35.940   1.130
28667W        W 1092   3.194  36.337  11.995
28668W        W 1093   6.335  10.750  13.068
28669W        W 1094  31.145  28.126   0.905
28670W        W 1095  44.800  28.424  10.706
28671W        W 1096  40.220  10.636  13.903
28672W        W 1097  23.075  39.560   2.782
28673W        W 1098  44.680   0.266   4.106
28674W        W 1099  30.155  18.824   4.167
28675W        W 1100   7.236  20.529  10.988
28676W        W 1101  19.231  44.270   3.717
28677W        W 1102  29.989   3.346   0.493
28678W        W 1103   7.588  30.631   4.596
28679W        W 1104  12.763  38.911   1.305
28680W        W 1105  11.285  17.166   2.285
28681W        W 1106  43.983  41.011   3.680
28682W        W 1107  29.369  36.168   3.706
28683W        W 1108  28.630   3.324   2.206
28684W        W 1109   6.788  23.345   0.356
28685W        W 1110  31.472  31.875   0.951
28686W        W 1111  40.782   4.852   2.520
28687W        W 1112   5.024  35.473  10.125
28688W        W 1113  21.572  43.730  14.110
28689W        W 1114   8.675  26.952   3.908
28690W        W 1115   9.779  38.579  13.731
28691W        W 1116   6.264  17.642   2.156
28692W        W 1117   8.920  12.303  11.351
28693W        W 1118  12.701  29.947  12.796
28694W        W 1119   2.660  18.267   2.584
28695W        W 1120  14.272  29.759   1.406
28696W        W 1121   6.345  37.949   1.189
28697W        W 1122   7.769  32.028  13.859
28698W        W 1123   8.508  31.579   3.414
28699W        W 1124  23.767  19.902   3.838
28700W        W 1125  34.218   2.947   4.590
28701W        W 1126  17.334  19.497   3.149
28702W        W 1127  21.944  21.785   2.291
28703W        W 1128  14.672  37.233   2.249
28704W        W 1129  41.933  14.180   3.629
28705W        W 1130   2.459  15.325   3.217
28706W        W 1131   2.983  37.980  10.585
28707W        W 1132   8.877   0.199   1.140
28708W        W 1133   2.379   2.972   3.280
28709W        W 1134   8.204  22.274   4.149
28710W        W 1135  23.251  28.676  12.524
28711W        W 1136  24.850  17.248   1.487
28712W        W 1137  35.348  11.048   2.218
28713W        W 1138   3.767  14.339   3.148
28714W        W 1139  40.581   5.445   4.847
28715W        W 1140   9.758  20.544  11.749
28716W        W 1141  44.652  23.669   0.698
28717W        W 1142  11.570  28.586  13.859
28718W        W 1143  12.177  17.915  12.418
28719W        W 1144  42.899  23.401   2.152
28720W        W 1145   6.301  28.947   0.472
28721W        W 1146  32.026  13.403  14.843
28722W        W 1147  37.620  15.182  11.923
28723W        W 1148  30.789  31.572  11.070
28724W        W 1149  44.652   2.610  12.999
28725W        W 1150  36.360  44.795  12.015
28726W        W 1151  25.848   7.747  10.732
28727W        W 1152  40.229  15.865  12.553
28728W        W 1153  20.878  25.823   3.274
28729W        W 1154   6.255  40.084  10.547
28730W        W 1155  28.473  30.958   2.870
28731W        W 1156  22.215   3.916  14.518
28732W        W 1157  18.711  34.695   0.795
28733W        W 1158  25.448  11.079  11.526
28734W        W 1159  15.450  43.585  13.772
28735W        W 1160   3.590   7.213   3.150
28736W        W 1161  33.963  31.600   1.961
28737W        W 1162  29.428  40.830   0.707
28738W        W 1163  24.551  40.901   3.080
28739W        W 1164  28.472  20.196   0.826
28740W        W 1165  25.053  16.213   2.306
28741W        W 1166  22.239  40.025   4.141
28742W        W 1167   7.347   1.362   1.418
28743W        W 1168  13.657  30.165   2.473
28744W        W 1169  41.837   1.524  10.664
28745W        W 1170  24.725  25.433   1.688
28746W        W 1171  29.903   7.214  14.507
28747W        W 1172  32.386  32.059   2.958
28748W        W 1173  32.358  23.680   2.874
28749W        W 1174  19.920  10.894  12.592
28750W        W 1175   1.050  29.164   4.542
28751W        W 1176  34.920  29.782   4.193
28752W        W 1177  23.074  32.597   3.685
28753W        W 1178  12.309  12.201   0.266
28754W        W 1179   9.584  32.930   4.535
28755W        W 1180  43.655   7.399  14.315
28756W        W 1181  35.860   2.325  10.751
28757W        W 1182  24.207   2.384  14.877
28758W        W 1183  36.855  16.849  14.278
28759W        W 1184   9.424  29.168   1.180
28760W        W 1185  35.633  13.069   4.106
28761W        W 1186   0.874  36.529  11.025
28762W        W 1187  44.014  41.784   4.837
28763W        W 1188  19.642   8.785  12.278
28764W        W 1189   6.934  39.633  12.395
28765W        W 1190   3.612  22.548   0.470
28766W        W 1191  12.886   5.868  14.105
28767W        W 1192   5.834  40.864   0.549
28768W        W 1193  41.352  21.969  14.114
28769W        W 1194   4.807  25.860   4.181
28770W        W 1195  14.498  26.633  14.399
28771W        W 1196   3.694  44.854   4.616
28772W        W 1197  23.161  10.761   0.005
28773W        W 1198  35.571  40.156  11.959
28774W        W 1199  38.566  44.339   1.362
28775W        W 1200  42.967  42.732  14.302
28776W        W 1201   5.835   2.464   4.630
28777W        W 1202  19.977  33.015  14.914
28778W        W 1203   1.758  16.151   1.976
28779W        W 1204  20.836  22.084  12.320
28780W        W 1205  23.258  37.562   3.662
28781W        W 1206  28.229  13.709   0.704
28782W        W 1207  10.415   9.139  13.791
28783W        W 1208  28.514   6.073  14.998
28784W        W 1209  30.442  16.397  13.517
28785W        W 1210   5.003  42.750  12.427
28786W        W 1211  13.872  40.792   3.228
28787W        W 1212   8.264  29.994   4.131
28788W        W 1213  30.676   8.115   3.137
28789W        W 1214  27.556  40.037   3.242
28790W        W 1215  35.524  24.292   2.763
28791W        W 1216  12.609  27.621   4.256
28792W        W 1217   7.890   0.976   0.631
28793W        W 1218   3.455   6.432  10.905
28794W        W 1219  36.584  10.746   0.418
28795W        W 1220  16.709  34.154  10.292
28796W        W 1221  18.151   6.202  14.451
28797W        W 1222  20.367  26.710   1.211
28798W        W 1223  40.935  43.013   2.759
28799W        W 1224  10.806  18.322   1.941
28800W        W 1225  21.665   5.409   1.675
28801W        W 1226  15.869  36.535  11.192
28802W        W 1227  33.927  16.931  10.440
28803W        W 1228  25.861   4.873   2.699
28804W        W 1229  31.622  39.345   2.899
28805W        W 1230  40.939  34.432   3.221
28806W        W 1231  31.436  33.650   3.247
28807W        W 1232  18.638  14.348   0.086
28808W        W 1233  44.661  13.328  14.306
28809W        W 1234  44.968  24.701   1.218
28810W        W 1235  34.604  20.985  11.982
28811W        W 1236   9.819  22.083  11.656
28812W        W 1237  28.010   1.408   1.894
28813W        W 1238  33.069  10.394  10.387
28814W        W 1239  14.889  26.228  12.168
28815W        W 1240   6.693   3.960  14.803
28816W        W 1241  33.851  11.558  13.516
28817W        W 1242  41.802   8.464   0.340
28818W        W 1243  21.352  36.595   2.723
28819W        W 1244  22.809  25.465   2.760
28820W        W 1245   4.820   2.750  10.354
28821W        W 1246  43.804  19.545  10.173
28822W        W 1247   5.117  21.664  10.117
28823W        W 1248   2.811  22.479  14.458
28824W        W 1249   9.194  34.589  12.917
28825W        W 1250  20.360  10.537   2.254
28826W        W 1251  41.461  20.759  13.812
28827W        W 1252  12.797  17.602   2.282
28828W        W 1253  35.369  11.631   0.033
28829W        W 1254  27.306   6.350  14.394
28830W        W 1255  29.796  44.583  14.969
28831W        W 1256   5.728   5.271   3.158
28832W        W 1257  20.830  13.585   1.665
28833W        W 1258   5.638  21.513  13.072
28834W        W 1259   4.722  26.467  13.665
28835W        W 1260  27.014  43.654  12.601
28836W        W 1261  42.292   4.946  11.634
28837W        W 1262  13.129  35.035   4.073
28838W        W 1263  40.384  11.759  10.865
28839W        W 1264  41.813  30.459   4.737
28840W        W 1265  24.079  40.212  10.773
28841W        W 1266  10.748  29.446   2.014
28842W        W 1267  21.189  36.884   2.293
28843W        W 1268  13.984  44.724  14.786
28844W        W 1269  19.114  12.173  10.781
28845W        W 1270  28.597  38.572   3.305
28846W        W 1271  29.941   9.364   4.709
28847W        W 1272  32.993  18.576   1.269
28848W        W 1273  17.373   2.296   4.202
28849W        W 1274  15.275   4.939   0.744
28850W        W 1275  27.878  21.594  11.592
28851W        W 1276   6.865  35.919   2.110
28852W        W 1277  14.212   4.274   4.259
28853W        W 1278  32.611   0.870   0.011
28854W        W 1279  31.960  30.687   0.228
28855W        W 1280   2.732  39.278  12.096
28856W        W 1281   6.702  24.507   4.205
28857W        W 1282  35.764  29.735  11.550
28858W        W 1283   4.289  23.678   2.565
28859W        W 1284  19.803  30.972  14.959
28860W        W 1285  30.004  20.928   0.181
28861W        W 1286  13.272  36.508  11.022
28862W        W 1287  28.061   7.719   3.468
28863W        W 1288  30.177  29.654   2.204
28864W        W 1289  31.867  41.872  11.494
28865W        W 1290   1.909   0.002   2.596
28866W        W 1291  18.282  19.127  11.988
28867W        W 1292  30.458   8.756  14.972
28868W        W 1293  12.850  19.983  14.285
28869W        W 1294   2.961  24.962  12.576
28870W        W 1295  31.908  10.208  12.286
28871W        W 1296   5.013  16.760   4.817
28872W        W 1297  39.795  44.881   2.360
28873W        W 1298  33.992  43.625   0.014
28874W        W 1299   9.065   6.750   0.974
28875W        W 1300  45.000  23.707   4.567
28876W        W 1301  21.834   9.246  10.146
28877W        W 1302  41.872   4.202   3.746
28878W        W 1303  36.481  28.006  10.876
28879W        W 1304   1.192  36.480  13.825
28880W        W 1305  15.090  23.588  13.377
28881W        W 1306  15.051  29.583   0.961
28882W        W 1307  26.164  38.959  12.078
28883W        W 1308   6.306  22.003   2.958
28884W        W 1309  35.083  42.046  14.129
28885W        W 1310  40.896  21.544  12.046
28886W        W 1311  24.730  40.001  13.294
28887W        W 1312  11.175   9.741   0.873
28888W        W 1313  14.575   9.747  10.743
28889W        W 1314  37.098   9.202  11.047
28890W        W 1315  40.974  44.039   3.683
28891W        W 1316  43.250  22.525  14.812
28892W        W 1317   1.000  36.659   0.427
28893W        W 1318   6.848  26.762   4.042
28894W        W 1319  22.780  38.605   1.740
28895W        W 1320   4.272  15.185   1.036
28896W        W 1321  13.210  42.432   4.324
28897W        W 1322   7.941  19.096  13.592
28898W        W 1323  20.630  28.044  11.531
28899W        W 1324   9.625   6.449  13.462
28900W        W 1325  36.632  25.182   1.725
28901W        W 1326  25.551  11.326  11.065
28902W        W 1327  23.093  10.149   1.318
28903W        W 1328  19.202   1.580  11.990
28904W        W 1329  37.822  16.719  14.521
28905W        W 1330  34.668   9.678   3.319
28906W        W 1331  20.270  44.488  11.928
28907W        W 1332   8.228  16.850   2.175
28908W        W 1333   8.992  14.679   3.663
28909W        W 1334  21.189  29.635   1.240
28910W        W 1335   2.688   1.228   3.246
28911W        W 1336  24.475  43.754   0.383
28912W        W 1337  40.574  31.566   4.922
28913W        W 1338  36.893   3.973  12.349
28914W        W 1339   7.303  18.733  14.804
28915W        W 1340   9.629   4.212  11.045
28916W        W 1341  25.068  23.600   0.316
28917W        W 1342   5.904   3.478   3.206
28918W        W 1343   3.616  14.569   3.973
28919W        W 1344  27.638  18.274   3.288
28920W        W 1345  25.171  23.389  13.431
28921W        W 1346  19.054  23.114   2.821
28922W        W 1347  18.166  40.285  11.952
28923W        W 1348  40.519   3.891  10.465
28924W        W 1349  36.513  33.329  13.975
28925W        W 1350  17.256  42.097  11.909
28926W        W 1351   4.235  13.122   0.977
28927W        W 1352  28.247  38.318  12.580
28928W        W 1353  37.388  20.095  10.568
28929W        W 1354  39.523   5.788  13.523
28930W        W 1355  15.747  21.754   0.952
28931W        W 1356  38.355  34.078  12.552
28932W        W 1357  13.651  15.138  14.824
28933W        W 1358  33.560  40.162  11.038
28934W        W 1359   2.010  35.007   1.367
28935W        W 1360  30.415  15.063   2.651
28936W        W 1361   4.165  43.095  11.136
28937W        W 1362  33.392   6.645  13.405
28938W        W 1363  28.650  11.846   2.869
28939W        W 1364  42.526  20.584   4.575
28940W        W 1365  23.831   8.827  10.946
28941W        W 1366  15.207   9.927  11.013
28942W        W 1367  11.090  29.530   3.525
28943W        W 1368  29.299  32.529   0.594
28944W        W 1369  35.120  33.608   0.088
28945W        W 1370  26.076  20.489  14.957
28946W        W 1371  40.318  28.360  14.012
28947W        W 1372  24.644  41.305   3.862
28948W        W 1373  12.754   9.156   1.504
28949W        W 1374   3.274  26.737  11.526
28950W        W 1375  33.147  18.676   3.121
28951W        W 1376  34.186  20.929  11.637
28952W        W 1377  11.780  35.481   1.748
28953W        W 1378  32.515  22.136   1.688
28954W        W 1379  37.831   0.328   4.276
28955W        W 1380  27.979  25.659  10.781
28956W        W 1381  36.346  23.238   3.138
28957W        W 1382  36.066  33.240   4.185
28958W        W 1383  12.846  27.243  13.912
28959W        W 1384  35.026  13.439   3.305
28960W        W 1385  41.483  35.876   4.802
28961W        W 1386  31.146  21.566   4.264
28962W        W 1387   3.418   0.518   4.822
28963W        W 1388  27.578  25.266   0.275
28964W        W 1389  23.491  12.092   1.388
28965W        W 1390  36.084  43.391   1.041
28966W        W 1391  15.837  15.127   4.436
28967W        W 1392   1.977   5.069   0.115
28968W        W 1393   8.007  31.633   3.652
28969W        W 1394  24.269  42.421   0.816
28970W        W 1395  36.071  27.497   1.983
28971W        W 1396  27.862  14.774  13.514
28972W        W 1397  31.466  16.268  10.736
28973W        W 1398  38.390  30.837  11.573
28974W        W 1399   9.090  36.303  11.050
28975W        W 1400  43.329   1.435  10.661
28976W        W 1401  14.996   8.773  11.618
28977W        W 1402  31.122  35.688   1.670
28978W        W 1403  10.142  40.898  13.013
28979W        W 1404  29.742   3.406  11.215
28980W        W 1405  35.150  28.047   3.782
28981W        W 1406  37.680  29.597   3.630
28982W        W 1407   0.102  44.502   4.059
28983W        W 1408  28.748  19.077   2.451
28984W        W 1409  24.593  16.802  11.250
28985W        W 1410  18.664  40.127  10.318
28986W        W 1411  30.459  34.070  14.534
28987W        W 1412  17.822   5.817  14.499
28988W        W 1413  35.110  17.637  13.359
28989W        W 1414  25.697  40.390   0.933
28990W        W 1415  21.211  37.714  14.385
28991W        W 1416   3.292  12.612   2.689
28992W        W 1417  17.217  11.195  13.254
28993W        W 1418   0.253  16.572   4.666
28994W        W 1419   0.184  43.020   4.170
28995W        W 1420   9.722  22.173   2.912
28996W        W 1421  15.228   7.319  14.474
28997W        W 1422  39.267   8.841  12.994
28998W        W 1423  16.138  31.517  13.039
28999W        W 1424  37.408  42.055  14.939
29000W        W 1425  35.532  26.024   3.407
29001W        W 1426   9.109  24.698   3.341
29002W        W 1427  44.789  38.941  11.867
29003W        W 1428  19.026  43.407  10.571
29004W        W 1429  31.133  34.028  11.672
29005W        W 1430   1.169  21.604  10.537
29006W        W 1431  34.994  36.149   4.052
29007W        W 1432  10.315  39.388  12.985
29008W        W 1433  36.898  37.365   2.744
29009W        W 1434   8.224  44.310  14.819
29010W        W 1435  41.546  31.415   1.448
29011W        W 1436  15.004  42.449   2.256
29012W        W 1437   5.699  19.080  11.133
29013W        W 1438   0.865  37.342  14.444
29014W        W 1439  30.773  33.356   4.043
29015W        W 1440   3.990  14.345   1.240
29016W        W 1441  15.428  29.685   0.218
29017W        W 1442  18.246  30.678   3.620
29018W        W 1443  23.464   6.227  11.690
29019W        W 1444   6.338  14.587   1.497
29020W        W 1445  21.757  17.786   4.360
29021W        W 1446  44.260  27.461  12.256
29022W        W 1447  38.140  33.625   0.302
29023W        W 1448  30.503  27.594   4.755
29024W        W 1449   2.742  38.997  12.529
29025W        W 1450  23.249  33.309  10.680
29026W        W 1451  41.780  32.971  14.720
29027W        W 1452  33.067  19.450   0.910
29028W        W 1453  30.081   1.656  10.998
29029W        W 1454  25.024  42.348  14.394
29030W        W 1455  41.471  39.862  10.766
29031W        W 1456  39.928  38.140  11.187
29032W        W 1457  12.813  13.180  12.188
29033W        W 1458   6.695  11.766   3.657
29034W        W 1459  43.292  17.201  12.457
29035W        W 1460   0.351  26.692   4.329
29036W        W 1461   4.174  40.387  13.797
29037W        W 1462  23.080   0.788  11.120
29038W        W 1463  34.095   0.432  13.275
29039W        W 1464   6.343   9.097   4.685
29040W        W 1465  33.915  27.634  11.123
29041W        W 1466   2.040   6.283   3.729
29042W        W 1467  16.473  44.515   0.050
29043W        W 1468  25.789   3.396   0.269
29044W        W 1469  25.548  31.700   0.756
29045W        W 1470  11.856   8.341   0.174
29046W        W 1471   0.417  33.481  12.616
29047W        W 1472  35.830  31.748  12.343
29048W        W 1473  29.904  39.807   2.321
29049W        W 1474   1.984  37.401  14.314
29050W        W 1475   1.442  26.546  11.413
29051W        W 1476  43.420   9.385  10.475
29052W        W 1477   2.913  15.303  13.521
29053W        W 1478  27.440  27.555  13.423
29054W        W 1479  11.620  30.065  14.901
29055W        W 1480   9.122  10.909  12.498
29056W        W 1481  38.406  31.553  12.139
29057W        W 1482   9.872  32.740  13.287
29058W        W 1483  20.796  33.114   1.328
29059W        W 1484   4.812   5.886   3.639
29060W        W 1485  33.028  35.381  11.209
29061W        W 1486  23.439  39.135  14.205
29062W        W 1487  21.750  14.634   1.143
29063W        W 1488   2.445  42.826  14.331
29064W        W 1489  23.318  30.815   4.159
29065W        W 1490  10.216   5.353   1.884
29066W        W 1491   4.080  40.454  12.991
29067W        W 1492  14.138  14.769   1.371
29068W        W 1493  28.785  40.321   1.254
29069W        W 1494  20.320   7.322   4.091
29070W        W 1495  33.525  24.962  14.506
29071W        W 1496   0.889  29.530   3.228
29072W        W 1497  25.543  22.071  14.743
29073W        W 1498   7.399  38.395  11.955
29074W        W 1499  37.470  10.311   4.733
29075W        W 1500  17.611  14.044   1.643
29076W        W 1501  35.401   6.349  13.014
29077W        W 1502   5.449  28.454  10.997
29078W        W 1503  28.256  42.071  11.121
29079W        W 1504  44.844   6.321   2.433
29080W        W 1505  38.555   0.426   3.340
29081W        W 1506  37.620  35.142   2.232
29082W        W 1507   7.610  11.595  12.122
29083W        W 1508  27.808  17.534   2.383
29084W        W 1509  12.853  33.647   4.613
29085W        W 1510  26.483  35.231  12.903
29086W        W 1511   2.532  36.999  12.403
29087W        W 1512  38.134  34.194   4.353
29088W        W 1513  39.514  42.986   1.742
29089W        W 1514  18.829  44.940   1.687
29090W        W 1515  20.098  39.334  13.819
29091W        W 1516  18.268  27.687  13.762
29092W        W 1517   8.890  34.963   0.109
29093W        W 1518   8.804  37.127  11.221
29094W        W 1519  25.943   7.236   3.806
29095W        W 1520  31.114  28.438   0.271
29096W        W 1521  21.481  27.081   4.663
29097W        W 1522   8.635  34.610   3.277
29098W        W 1523  23.483  27.673   3.596
29099W        W 1524   9.380  19.103   3.703
29100W        W 1525  22.973  33.872  12.325
29101W        W 1526  25.411  22.325   4.166
29102W        W 1527  32.047   0.792   2.025
29103W        W 1528  23.712  20.103  12.484
29104W        W 1529  13.340  14.342  13.686
29105W        W 1530  11.392   9.877   0.425
29106W        W 1531  15.123   3.270  12.948
29107W        W 1532  17.967  35.388   1.226
29108W        W 1533  13.875  25.567   4.171
29109W        W 1534  10.309  20.325  11.179
29110W        W 1535  17.357  31.571  11.483
29111W        W 1536  36.998  24.086   1.420
29112W        W 1537  34.250  43.882  11.870
29113W        W 1538   7.762  25.947   2.872
29114W        W 1539  18.168  23.539   1.709
29115W        W 1540  44.773  44.858   2.643
29116W        W 1541  40.108  37.009  12.944
29117W        W 1542  17.532  26.151  11.857
29118W        W 1543  23.118  23.774  12.853
29119W        W 1544  18.852  24.383   3.672
29120W        W 1545  30.978   9.688   3.071
29121W        W 1546   6.849  23.503   1.605
29122W        W 1547   3.704  34.437  14.546
29123W        W 1548  25.581  25.978  12.878
29124W        W 1549  24.956  30.956  14.131
29125W        W 1550  44.500  30.152   2.158
29126W        W 1551  13.341   6.839   4.047
29127W        W 1552  32.348  15.309  11.651
29128W        W 1553  31.957  40.276   1.252
29129W        W 1554  40.323   6.928  10.482
29130W        W 1555  34.805  10.380   3.331
29131W        W 1556  35.356  12.123  14.675
29132W        W 1557  21.786  13.387   0.762
29133W        W 1558  37.136   1.963   2.630
29134W        W 1559  42.912   9.180  13.879
29135W        W 1560  43.048  11.396   3.820
29136W        W 1561  23.585  14.036   1.333
29137W        W 1562  43.781   7.631   4.810
29138W        W 1563   9.284   9.750  10.653
29139W        W 1564  39.487  35.974   0.377
29140W        W 1565  22.960  24.566  12.532
29141W        W 1566  29.494  36.059  14.038
29142W        W 1567  41.770  36.532   2.776
29143W        W 1568  25.416  12.902  10.224
29144W        W 1569   8.543  40.644   2.246
29145W        W 1570  28.724   0.370   1.208
29146W        W 1571  21.192  29.751   3.627
29147W        W 1572  36.363  33.909   0.221
29148W        W 1573  33.257  39.014  11.952
29149W        W 1574  32.244  16.254  11.968
29150W        W 1575  28.684   1.264  10.801
29151W        W 1576  37.979  34.929   0.666
29152W        W 1577  31.326  37.795  14.292
29153W        W 1578  24.209  40.272  14.326
29154W        W 1579  35.061  39.460  10.979
29155W        W 1580  17.420  29.216  13.924
29156W        W 1581  22.173  34.867   2.815
29157W        W 1582  33.878  18.748  11.635
29158W        W 1583   6.938  35.156   2.788
29159W        W 1584   3.427  33.503   1.008
29160W        W 1585  15.849  42.997  10.723
29161W        W 1586  15.689  43.889  10.231
29162W        W 1587   4.406  43.003   2.410
29163W        W 1588  18.032  32.273   4.950
29164W        W 1589  37.852  20.985  12.441
29165W        W 1590  36.985  26.511   1.233
29166W        W 1591  33.104  27.198   4.143
29167W        W 1592  34.510  35.431  13.378
29168W        W 1593  44.780  34.659   0.025
29169W        W 1594  43.010  30.814   0.785
29170W        W 1595  13.521  16.203  12.611
29171W        W 1596   8.666  20.334   0.328
29172W        W 1597  24.716  16.251   4.119
29173W        W 1598  36.037   2.966  12.153
29174W        W 1599  14.552   7.597   1.057
29175W        W 1600   9.471  23.079  13.562
29176W        W 1601  23.214  37.305  11.955
29177W        W 1602  21.714   1.468   3.178
29178W        W 1603  38.536  28.902   1.707
29179W        W 1604  16.816  20.710   3.246
29180W        W 1605  26.961  27.415   3.672
29181W        W 1606  44.940   1.554  12.343
29182W        W 1607  28.166  25.234  10.550
29183W        W 1608  19.885   0.433  11.893
29184W        W 1609   5.228   9.092   4.637
29185W        W 1610   5.891  42.480   1.757
29186W        W 1611   4.030   7.861   1.525
29187W        W 1612   9.618  41.213  11.788
29188W        W 1613   2.196  28.676   2.411
29189W        W 1614  25.360  26.162   3.154
29190W        W 1615  24.554   9.959  10.724
29191W        W 1616  15.327  34.819  11.155
29192W        W 1617  36.521  18.218   4.644
29193W        W 1618  38.898  38.037  13.588
29194W        W 1619  39.559  24.780  10.860
29195W        W 1620  26.017  12.752  14.562
29196W        W 1621  43.989  30.677  13.440
29197W        W 1622  24.566  25.465   3.774
29198W        W 1623  18.520   0.521  13.129
29199W        W 1624  16.646  34.654  12.644
29200W        W 1625  16.489  21.332  14.493
29201W        W 1626  28.897  21.675   3.218
29202W        W 1627   4.969  36.908  12.203
29203W        W 1628  40.213   5.706   0.845
29204W        W 1629  43.566  37.465   4.388
29205W        W 1630  20.419  11.119  12.694
29206W        W 1631  29.068   6.903   4.600
29207W        W 1632  34.987  14.352   2.127
29208W        W 1633  35.188  30.433  12.037
29209W        W 1634  44.452  11.926  11.166
29210W        W 1635  21.656  30.915  10.431
29211W        W 1636  39.771  37.608   0.453
29212W        W 1637  12.105  11.163   2.782
29213W        W 1638  39.048  37.473   3.031
29214W        W 1639  30.396   5.864   2.282
29215W        W 1640  23.250  40.472  12.057
29216W        W 1641  36.531  19.605   3.224
29217W        W 1642  26.600  12.800  14.757
29218W        W 1643  14.352   8.275   0.600
29219W        W 1644  15.300  14.603  12.878
29220W        W 1645   5.347  10.306   0.900
29221W        W 1646   5.226  21.901   4.047
29222W        W 1647  14.593  25.664   2.598
29223W        W 1648  31.989  42.600  12.977
29224W        W 1649  11.810  39.980   1.835
29225W        W 1650   8.604  23.059  12.529
29226W        W 1651  43.352  32.207   2.413
29227W        W 1652  13.808  34.417   0.021
29228W        W 1653   2.983   7.794  13.110
29229W        W 1654  16.096  26.183  13.255
29230W        W 1655  38.985  10.773   1.458
29231W        W 1656  35.803   8.155  14.044
29232W        W 1657   9.340  10.202  13.800
29233W        W 1658  15.836  25.591  11.069
29234W        W 1659  41.409   9.917  11.572
29235W        W 1660  32.158  41.439  11.522
29236W        W 1661  30.893   5.106  10.387
29237W        W 1662  12.354  14.227  10.825
29238W        W 1663  22.921  19.749   1.109
29239W        W 1664  33.477  43.037  12.552
29240W        W 1665  35.148  31.600   4.292
29241W        W 1666   0.736  14.926  12.947
29242W        W 1667  25.818  14.067  12.464
29243W        W 1668  22.626   7.867   1.224
29244W        W 1669   9.243  43.396  14.330
29245W        W 1670  15.562  23.612   2.770
29246W        W 1671  16.626  43.670   2.355
29247W        W 1672  15.973  12.627   2.664
29248W        W 1673  41.844  15.279  10.966
29249W        W 1674  23.199  11.841   4.623
29250W        W 1675  20.091  42.577  10.917
29251W        W 1676   4.699  11.386  11.582
29252W        W 1677  37.522  31.445  11.065
29253W        W 1678  11.391  30.625   0.785
29254W        W 1679  30.175  14.827   2.232
29255W        W 1680  44.241  39.832  10.163
29256W        W 1681  11.257  44.750  12.381
29257W        W 1682  20.253  14.684   4.612
29258W        W 1683  33.505  13.338  12.333
29259W        W 1684  17.316  22.572   0.469
29260W        W 1685  43.263  15.174   0.884
29261W        W 1686  31.453  11.373   2.886
29262W        W 1687  20.980  28.442  10.324
29263W        W 1688  27.084   8.761   5.041
29264W        W 1689  14.857  22.522   0.105
29265W        W 1690  24.528  29.518   1.799
29266W        W 1691   6.945   4.397  10.612
29267W        W 1692  33.021  24.790   0.485
29268W        W 1693  13.540  30.758  13.998
29269W        W 1694  38.242  22.067  14.293
29270W        W 1695  11.358  20.656   1.791
29271W        W 1696  22.685  13.562   4.156
29272W        W 1697  16.882  26.183  10.577
29273W        W 1698  30.397  36.329   1.763
29274W        W 1699  12.283   3.892  11.648
29275W        W 1700  39.050   6.347  12.896
29276W        W 1701  40.996  38.956   4.450
29277W        W 1702  11.497  19.374  13.425
29278W        W 1703  15.149   5.171   2.639
29279W        W 1704  32.522  41.505  11.869
29280W        W 1705  18.933  14.292  12.455
29281W        W 1706  44.294  35.685  14.059
29282W        W 1707  33.125  19.846   2.242
29283W        W 1708  44.999   5.414   2.751
29284W        W 1709  11.145  36.068   1.310
29285W        W 1710  11.294  43.981  14.760
29286W        W 1711  29.883  39.725  13.014
29287W        W 1712  38.417  43.367   1.227
29288W        W 1713  17.627  18.241   2.708
29289W        W 1714  36.650  13.625  10.752
29290W        W 1715  22.679  29.823   2.879
29291W        W 1716  14.101  31.964  12.349
29292W        W 1717  19.325  41.896   3.295
29293W        W 1718   4.395   1.404  10.612
29294W        W 1719  27.872  11.788  13.815
29295W        W 1720  27.599  20.514   0.512
29296W        W 1721   1.166  40.747  11.900
29297W        W 1722   9.921   6.896  14.471
29298W        W 1723  37.931   1.074   3.369
29299W        W 1724  39.514  11.410   1.456
29300W        W 1725  20.313  27.080   2.414
29301W        W 1726   0.053   2.013   3.676
29302W        W 1727  26.874  35.558  12.864
29303W        W 1728  41.726  33.678  13.288
29304W        W 1729  12.165  28.590   2.844
29305W        W 1730  31.691  16.293  11.211
29306W        W 1731  31.736  32.586   2.727
29307W        W 1732  24.744  12.289   0.873
29308W        W 1733  27.938  21.124  10.092
29309W        W 1734  23.526   2.566  14.371
29310W        W 1735   2.328  11.618  12.213
29311W        W 1736   7.716   4.932  14.939
29312W        W 1737   9.719  22.691  10.383
29313W        W 1738  32.988  44.588   0.402
29314W        W 1739  36.208   4.092  10.886
29315W        W 1740  12.119  42.762   3.724
29316W        W 1741   5.159   1.190  14.722
29317W        W 1742  14.315  34.194  10.669
29318W        W 1743  21.174   7.173   2.388
29319W        W 1744   8.318  14.131  14.558
29320W        W 1745  39.611  37.312  11.420
29321W        W 1746  37.022  27.802   3.575
29322W        W 1747  14.865   5.315   1.307
29323W        W 1748  41.403  44.041  14.047
29324W        W 1749  43.391  16.286   1.004
29325W        W 1750   2.907  17.536  13.345
29326W        W 1751  19.810  21.167  11.463
29327W        W 1752  10.843   1.845  13.308
29328W        W 1753  30.782  25.909  11.855
29329W        W 1754   6.828  35.419   0.780
29330W        W 1755   5.003  22.388  11.533
29331W        W 1756  21.054  13.771  13.990
29332W        W 1757  39.332  41.424   3.733
29333W        W 1758  14.642  36.984   0.884
29334W        W 1759  30.456  17.761  11.963
29335W        W 1760  23.274  25.619  13.466
29336W        W 1761  13.170  35.519   4.631
29337W        W 1762   6.853  43.417  11.557
29338W        W 1763  10.915  24.154  10.057
29339W        W 1764  44.992   3.770   3.834
29340W        W 1765  21.063  41.359  11.158
29341W        W 1766  38.902  30.185   1.873
29342W        W 1767   8.443  41.476   3.144
29343W        W 1768   7.294  33.879  14.836
29344W        W 1769  41.472   1.289   0.770
29345W        W 1770  12.239  19.231   1.440
29346W        W 1771  23.386  18.259   1.800
29347W        W 1772  27.260  27.725  11.085
29348W        W 1773  24.022  34.358  10.644
29349W        W 1774   0.719  35.022  13.627
29350W        W 1775  34.469   2.238   0.726
29351W        W 1776  41.936   3.394   1.210
29352W        W 1777   6.203  14.355   0.066
29353W        W 1778  43.137  35.437   2.811
29354W        W 1779  16.554  17.305  11.671
29355W        W 1780  13.878  21.589  11.241
29356W        W 1781  38.085  38.017   4.006
29357W        W 1782  42.546  38.866   0.416
29358W        W 1783  31.366  41.314  11.068
29359W        W 1784  28.061  18.917  11.784
29360W        W 1785  12.351  24.696   3.349
29361W        W 1786  12.827   9.899   3.943
29362W        W 1787   4.864   8.090   1.135
29363W        W 1788  43.106  12.835  12.923
29364W        W 1789   0.062  34.438   1.187
29365W        W 1790  31.093  28.930   3.472
29366W        W 1791  21.380  31.391   2.792
29367W        W 1792  16.747  19.958   1.035
29368W        W 1793   3.854  36.949   1.365
29369W        W 1794  43.314   0.856   3.253
29370W        W 1795   9.647  42.532   1.757
29371W        W 1796  42.933  16.708   0.272
29372W        W 1797  16.106  29.441   3.854
29373W        W 1798  21.552   8.811   4.582
29374W        W 1799  25.271  38.349   0.267
29375W        W 1800  39.603  30.666   4.115
29376W        W 1801  40.483  19.226  12.150
29377W        W 1802  22.925   5.006   3.350
29378W        W 1803  19.152  12.748   0.835
29379W        W 1804  21.539  25.975  13.872
29380W        W 1805  16.164  32.944  10.623
29381W        W 1806  37.066   7.721  14.547
29382W        W 1807  12.358  44.361  13.883
29383W        W 1808  15.320  25.195  12.567
29384W        W 1809  31.834  44.512  11.575
29385W        W 1810   5.536  23.224   1.373
29386W        W 1811   3.538   7.257   4.464
29387W        W 1812  43.788  34.023  12.025
29388W        W 1813   2.761  30.343  11.073
29389W        W 1814  27.518  29.221   3.730
29390W        W 1815  39.512  32.461  10.659
29391W        W 1816   8.365  19.039   0.783
29392W        W 1817   1.787   0.615   2.484
29393W        W 1818  32.706  17.654   0.615
29394W        W 1819  15.679   6.306  10.682
29395W        W 1820  25.220  21.729  14.526
29396W        W 1821  39.250  33.132   3.297
29397W        W 1822  15.288  35.772   2.873
29398W        W 1823  41.481  28.032  14.974
29399W        W 1824  36.023   6.964   0.439
29400W        W 1825  31.684  41.869  13.255
29401W        W 1826  27.380  28.947   4.150
29402W        W 1827  15.756  12.666   0.248
29403W        W 1828  28.540  30.950   0.418
29404W        W 1829  15.889  36.923  10.866
29405W        W 1830  30.663  16.081  14.351
29406W        W 1831  41.311   1.264  12.003
29407W        W 1832  17.251   9.579  14.294
29408W        W 1833  17.629  20.130  14.937
29409W        W 1834   0.529  38.078  14.084
29410W        W 1835  32.086  14.270   0.909
29411W        W 1836  14.680  20.966  10.768
29412W        W 1837  29.983  25.442  11.455
29413W        W 1838  24.520   6.150   0.677
29414W        W 1839  33.393  25.250   1.938
29415W        W 1840  16.650  10.499  10.984
29416W        W 1841  44.809  35.886  12.785
29417W        W 1842  13.968   4.575   9.975
29418W        W 1843  13.181  30.219  12.150
29419W        W 1844  12.805  38.098  14.471
29420W        W 1845   1.239  17.545   5.036
29421W        W 1846  43.521  22.256   4.110
29422W        W 1847  44.343   2.820  13.969
29423W        W 1848   7.332  26.104  13.161
29424W        W 1849   4.990  23.706  10.718
29425W        W 1850  32.690  17.327  14.311
29426W        W 1851  33.146  13.065   1.098
29427W        W 1852  20.312  17.873  10.017
29428W        W 1853   9.734  42.851  13.818
29429W        W 1854  42.120  15.680  11.168
29430W        W 1855  27.358  17.259  11.695
29431W        W 1856  14.313   5.949  11.324
29432W        W 1857  21.639  11.051   1.652
29433W        W 1858  17.753   6.704   3.059
29434W        W 1859   9.554   8.182   1.449
29435W        W 1860  26.017  22.686  10.926
29436W        W 1861  31.509  43.970  13.995
29437W        W 1862  37.093  34.840  12.345
29438W        W 1863  26.707   5.042   1.368
29439W        W 1864  17.467  26.090   0.870
29440W        W 1865  23.493  15.593   3.945
29441W        W 1866   6.977  38.868  10.590
29442W        W 1867  32.401  12.822   4.766
29443W        W 1868  39.629   5.515   0.546
29444W        W 1869  27.955  36.276  12.451
29445W        W 1870  34.812   1.860  11.250
29446W        W 1871  36.471  27.366  13.250
29447W        W 1872  12.799  21.514  14.335
29448W        W 1873  38.600  23.737   3.081
29449W        W 1874   2.236  33.413   0.306
29450W        W 1875  29.227  33.824   2.129
29451W        W 1876  41.329  11.494   4.656
29452W        W 1877   2.803   5.583  11.645
29453W        W 1878  13.810  28.949   3.650
29454W        W 1879   7.848  37.375   1.618
29455W        W 1880  38.661  18.703  14.996
29456W        W 1881  18.269  13.541   3.622
29457W        W 1882   3.823  32.030   2.209
29458W        W 1883  32.946  23.948   4.133
29459W        W 1884  42.050  26.142  14.153
29460W        W 1885   4.322  28.163   4.510
29461W        W 1886   9.822  15.135   0.989
29462W        W 1887  11.573  34.564  12.911
29463W        W 1888   0.975  26.276  10.775
29464W        W 1889   0.874  31.913   4.553
29465W        W 1890   6.931  19.013  11.237
29466W        W 1891  40.190  11.532  11.697
29467W        W 1892  16.378  19.739   1.979
29468W        W 1893  35.659  29.387  12.356
29469W        W 1894  14.131  25.336   4.689
29470W        W 1895  32.076  12.222  13.898
29471W        W 1896  41.687  42.724  10.901
29472W        W 1897  26.437  25.632   2.742
29473W        W 1898  34.122   8.880   4.076
29474W        W 1899  42.911  33.079   1.450
29475W        W 1900   1.755  23.051  10.892
29476W        W 1901   3.879  41.493   0.554
29477W        W 1902   0.868  21.794   1.867
29478W        W 1903  31.990  10.710  12.093
29479W        W 1904  36.584   1.383   2.665
29480W        W 1905  21.959  44.430  14.782
29481W        W 1906  40.544   2.542   1.716
29482W        W 1907  33.044  41.502  14.786
29483W        W 1908  19.933  11.859  11.259
29484W        W 1909  17.596  40.627  11.234
29485W        W 1910  28.126  39.205  10.147
29486W        W 1911  26.543  38.066   0.737
29487W        W 1912  34.381  44.890   4.147
29488W        W 1913  43.687  11.328  10.679
29489W        W 1914  20.688  20.808   0.393
29490W        W 1915  12.663   0.712  11.622
29491W        W 1916  20.789  42.547  12.948
29492W        W 1917  33.207  24.221   4.474
29493W        W 1918  22.022  11.250   4.534
29494W        W 1919   3.330  29.913  14.901
29495W        W 1920   9.807  41.902   3.950
29496W        W 1921  38.458  24.218   4.322
29497W        W 1922  12.117   3.999   5.567
29498W        W 1923   8.345   3.844  11.658
29499W        W 1924  26.572  39.597  11.221
29500W        W 1925   3.353   6.826   3.366
29501W        W 1926  36.537  32.443   1.847
29502W        W 1927  20.072  18.739   4.250
29503W        W 1928   0.705   1.565   1.200
29504W        W 1929  43.279  27.773  10.299
29505W        W 1930   4.930  28.002  13.542
29506W        W 1931  11.147  19.775  12.222
29507W        W 1932  30.504  30.123  13.411
29508W        W 1933  12.974  23.629  14.605
29509W        W 1934  41.952  25.963   0.729
29510W        W 1935   5.742  30.569  11.228
29511W        W 1936  15.183   3.056   1.739
29512W        W 1937   2.871   5.260   4.168
29513W        W 1938  39.997  24.226   2.535
29514W        W 1939  16.630  40.372   1.554
29515W        W 1940  25.377  29.180  13.849
29516W        W 1941  19.499  16.160   2.730
29517W        W 1942  12.166  24.764  14.437
29518W        W 1943   1.812  10.812   4.413
29519W        W 1944  13.147  32.890   2.219
29520W        W 1945  35.371  27.911   1.949
29521W        W 1946  21.720  39.477  14.327
29522W        W 1947  28.086  43.248  13.933
29523W        W 1948  27.543  44.404  11.564
29524W        W 1949  27.444  24.779   5.115
29525W        W 1950  14.456  40.266  11.586
29526W        W 1951  34.985   0.507   1.933
29527W        W 1952  10.449  19.414  13.468
29528W        W 1953   4.850  10.158  12.158
29529W        W 1954  21.251  44.788  11.962
29530W        W 1955  36.905  35.451  13.364
29531W        W 1956   0.344  20.259   0.204
29532W        W 1957   2.723  33.212  12.401
29533W        W 1958   9.264  34.274   4.713
29534W        W 1959  37.490   6.786   4.557
29535W        W 1960  20.293  23.661   2.772
29536W        W 1961   6.486  15.170  14.820
29537W        W 1962  43.422  37.707  13.845
29538W        W 1963  44.553  25.465  13.799
29539W        W 1964   7.381  32.168   4.752
29540W        W 1965  38.611   2.763   3.100
29541W        W 1966   2.683  37.806   0.336
29542W        W 1967  20.772   4.766  12.063
29543W        W 1968  43.514  19.678  12.439
29544W        W 1969  23.080  12.187  12.098
29545W        W 1970  34.500  27.924   2.587
29546W        W 1971  25.486  15.218   3.160
29547W        W 1972  31.951  24.501  13.489
29548W        W 1973  24.312  17.321  13.068
29549W        W 1974   4.258   5.284   1.324
29550W        W 1975  44.282  29.666   2.263
29551W        W 1976  22.367  23.350   2.424
29552W        W 1977  27.955   7.712  14.969
29553W        W 1978   0.669   2.057  13.022
29554W        W 1979  26.631  16.846   0.301
29555W        W 1980  11.289   3.849   0.358
29556W        W 1981  15.723   4.520  10.962
29557W        W 1982   2.017   3.770   4.828
29558W        W 1983  28.376  34.525  10.664
29559W        W 1984  23.940  27.050  11.831
29560W        W 1985  33.201  33.485   4.760
29561W        W 1986  27.408  18.400  14.397
29562W        W 1987   8.203   2.918  11.072
29563W        W 1988  29.982  20.994  13.273
29564W        W 1989  12.603  11.180   1.320
29565W        W 1990   8.629  25.573   1.617
29566W        W 1991  16.206  22.528  12.103
29567W        W 1992  39.818  44.311   0.934
29568W        W 1993   4.692  18.973  13.430
29569W        W 1994   2.003  28.109   3.191
29570W        W 1995  12.216  38.477   0.692
29571W        W 1996  43.905  38.857  10.334
29572W        W 1997  11.640  38.002  10.712
29573W        W 1998  42.849  13.206   4.531
29574W        W 1999  20.173  20.798   2.320
29575W        W 2000  33.891  37.912  14.848
29576W        W 2001  18.603   8.149   4.802
29577W        W 2002   8.369  32.396  11.163
29578W        W 2003   0.477  22.195   4.306
29579W        W 2004  33.686  21.294  11.186
29580W        W 2005  21.992  13.314   4.540
29581W        W 2006   4.431  37.584   3.840
29582W        W 2007   8.349  26.535   3.385
29583W        W 2008  42.527  34.694   2.240
29584W        W 2009  39.470  35.720  14.003
29585W        W 2010   9.051  17.547  11.520
29586W        W 2011   9.622   6.987   0.284
29587W        W 2012   8.221   0.921  14.133
29588W        W 2013   4.021   1.294  11.949
29589W        W 2014  39.836  26.927  12.450
29590W        W 2015  22.522  31.483   1.469
29591W        W 2016  26.335  32.503   5.045
29592W        W 2017  20.511  39.319   3.137
29593W        W 2018  13.292  39.454   1.884
29594W        W 2019   4.124  14.707   3.901
29595W        W 2020  10.796  27.681  13.123
29596W        W 2021  28.440  16.046  13.530
29597W        W 2022   7.383  34.703  12.446
29598W        W 2023  44.477  26.660   0.156
29599W        W 2024  42.169  42.815   4.395
29600W        W 2025  15.490  34.312  11.078
29601W        W 2026  16.159  12.283   1.358
29602W        W 2027  10.692  30.018   4.674
29603W        W 2028  30.101  37.750   3.735
29604W        W 2029  16.519  26.325   0.833
29605W        W 2030   6.754  40.581  14.791
29606W        W 2031   5.490  26.142   0.228
29607W        W 2032  26.160  16.596  13.465
29608W        W 2033   9.715  16.292  11.684
29609W        W 2034  20.324  42.771   0.513
29610W        W 2035   2.970  37.632   0.768
29611W        W 2036  32.419   6.015   3.258
29612W        W 2037  28.007  40.889   9.730
29613W        W 2038  27.455  34.019   4.181
29614W        W 2039  27.423  40.365  12.015
29615W        W 2040  14.679  12.234  13.826
29616W        W 2041  21.706   2.786  14.081
29617W        W 2042  25.782  28.538   2.756
29618W        W 2043  34.447  16.024  10.697
29619W        W 2044  10.172  27.742   1.269
29620W        W 2045  23.790  16.926   4.666
29621W        W 2046  17.188  24.200   2.334
29622W        W 2047  30.705  18.001  13.621
29623W        W 2048   3.987  40.986   2.257
29624W        W 2049  22.388  32.373  11.436
29625W        W 2050   8.592   3.276  11.134
29626W        W 2051   4.926  33.029  14.853
29627W        W 2052  42.870  41.983   2.736
29628W        W 2053  14.125  21.830   4.553
29629W        W 2054  23.678  11.627   3.837
29630W        W 2055  18.142  11.188  12.543
29631W        W 2056   0.496  39.096   0.700
29632W        W 2057  33.863   7.952   2.279
29633W        W 2058  12.763  41.971   4.751
29634W        W 2059  34.090   2.729   0.978
29635W        W 2060  10.460  35.429  13.946
29636W        W 2061   1.317   6.754  11.677
29637W        W 2062  15.097  37.708   1.458
29638W        W 2063  40.301   0.045   1.332
29639W        W 2064  14.093  29.943  10.741
29640W        W 2065  16.677  14.258   1.807
29641W        W 2066  19.082  38.304   4.525
29642W        W 2067  36.866  11.264   0.426
29643W        W 2068  10.634   8.884   0.846
29644W        W 2069  31.399  35.986  14.796
29645W        W 2070  29.928  41.418  14.992
29646W        W 2071   3.428  39.933  13.141
29647W        W 2072  39.996  44.488  11.100
29648W        W 2073  24.688  33.061   0.943
29649W        W 2074  35.345  35.097  10.981
29650W        W 2075  17.096   5.389   4.483
29651W        W 2076  22.418  27.592   1.167
29652W        W 2077  36.626  34.673  12.282
29653W        W 2078  21.707  21.589  11.978
29654W        W 2079   9.237   2.434  14.695
29655W        W 2080  22.144  38.082   2.344
29656W        W 2081  15.996  35.282   5.574
29657W        W 2082  33.212  39.727   1.772
29658W        W 2083  12.626   6.431   1.112
29659W        W 2084   9.073  39.605  12.903
29660W        W 2085  36.254  35.267  14.015
29661W        W 2086  29.215  35.461   0.122
29662W        W 2087  32.497  17.792  11.876
29663W        W 2088  40.099  44.587  10.596
29664W        W 2089  22.621  32.756   3.975
29665W        W 2090  23.653  15.242   2.626
29666W        W 2091  21.975  10.845  10.664
29667W        W 2092   2.486  25.726  10.842
29668W        W 2093  42.996   3.003   3.815
29669W        W 2094  24.630  16.473  12.982
29670W        W 2095  40.692   2.119   1.957
29671W        W 2096  41.355  26.462  11.555
29672W        W 2097  39.808  13.912  14.879
29673W        W 2098  27.041  12.368  12.853
29674W        W 2099  27.108  40.346  11.504
29675W        W 2100  26.968   8.184   4.475
29676W        W 2101  13.703  17.162   3.343
29677W        W 2102  24.453   4.893   1.254
29678W        W 2103   6.114  41.985   3.394
29679W        W 2104  41.397  35.995  13.422
29680W        W 2105  42.347  44.004  11.939
29681W        W 2106  24.747  19.140   3.367
29682W        W 2107  41.829  31.144   4.161
29683W        W 2108  26.689  25.458   1.812
29684W        W 2109  17.785   3.764   0.653
29685W        W 2110  26.221  16.150   3.139
29686W        W 2111  30.331   7.600  12.564
29687W        W 2112  25.292   2.299   2.857
29688W        W 2113  26.079   5.356  13.142
29689W        W 2114  25.039  42.113   3.180
29690W        W 2115  16.619   9.781  11.675
29691W        W 2116  22.676  26.642   3.474
29692W        W 2117  31.814  26.212   0.692
29693W        W 2118  35.048  38.082  14.031
29694W        W 2119  35.790  25.597   4.205
29695W        W 2120   0.227  17.761   3.170
29696W        W 2121  19.706  17.300   3.396
29697W        W 2122  33.752  13.064   4.774
29698W        W 2123  21.755  32.034  14.598
29699W        W 2124  39.611  32.544   0.798
29700W        W 2125  33.077  36.775  12.680
29701W        W 2126  23.727  40.727   2.810
29702W        W 2127  18.169   0.802   0.417
29703W        W 2128  39.255  39.335  14.310
29704W        W 2129  27.472  26.522  13.410
29705W        W 2130  32.397  40.097  11.648
29706W        W 2131   5.729   7.199  12.473
29707W        W 2132   5.186  18.921   3.208
29708W        W 2133  26.114  34.899   3.334
29709W        W 2134   4.133  12.042   0.347
29710W        W 2135  11.852  40.009   2.371
29711W        W 2136  19.849  23.272  11.002
29712W        W 2137  21.512  16.365  10.820
29713W        W 2138  16.571  15.245  14.024
29714W        W 2139  20.562  42.193  12.648
29715W        W 2140  24.474  13.178   2.774
29716W        W 2141  33.049  41.968  10.787
29717W        W 2142  31.673  15.168  14.409
29718W        W 2143   9.836  27.666   3.248
29719W        W 2144  35.353  38.408  11.518
29720W        W 2145  34.404  16.157   0.075
29721W        W 2146  31.613  43.789   4.412
29722W        W 2147   9.704  10.373  10.106
29723W        W 2148   0.915  40.714   4.868
29724W        W 2149  11.789  12.414   2.472
29725W        W 2150  36.840   5.686   2.742
29726W        W 2151  39.420  18.999   0.366
29727W        W 2152  30.431  15.301   2.205
29728W        W 2153  38.633  30.682  12.552
29729W        W 2154  32.358  27.674  11.577
29730W        W 2155  41.546  30.447  14.240
29731W        W 2156  43.992  17.717  11.490
29732W        W 2157   4.178   8.859   3.720
29733W        W 2158   7.660  24.103   4.090
29734W        W 2159   9.782  25.204   2.706
29735W        W 2160  40.386  25.042   0.335
29736W        W 2161  20.005  42.975   4.170
29737W        W 2162  38.919  34.824   4.211
29738W        W 2163  32.166  36.794  14.809
29739W        W 2164  12.445  38.038   4.544
29740W        W 2165  38.478  19.964  14.366
29741W        W 2166  28.156  23.457   4.212
29742W        W 2167  17.393  17.834  12.352
29743W        W 2168  40.258   7.664  11.649
29744W        W 2169  23.605  13.028   3.948
29745W        W 2170  32.623  25.554   3.207
29746W        W 2171   8.552  15.121   2.376
29747W        W 2172  35.947  12.293   2.382
29748W        W 2173   2.297  13.667  11.400
29749W        W 2174  40.207  42.999   3.863
29750W        W 2175  37.360  26.945  10.981
29751W        W 2176  19.271  44.443  14.050
29752W        W 2177  24.526  19.535   3.031
29753W        W 2178   7.356  21.466   0.435
29754W        W 2179  30.060  23.036   2.181
29755W        W 2180  28.679  25.087   2.959
29756W        W 2181  32.439  38.798  12.045
29757W        W 2182  13.608   7.810   0.891
29758W        W 2183  12.285   6.442   2.800
29759W        W 2184  26.098  20.293   1.036
29760W        W 2185   9.834  19.866   3.074
29761W        W 2186   1.423  26.510   0.230
29762W        W 2187  18.818  44.681   5.165
29763W        W 2188  18.374  23.005  13.420
29764W        W 2189   5.648  25.082  12.986
29765W        W 2190  10.836  38.090  12.601
29766W        W 2191  28.953  31.509  13.557
29767W        W 2192  28.004  36.297  10.232
29768W        W 2193   3.669  44.479  13.673
29769W        W 2194  33.153  14.732  12.183
29770W        W 2195  29.783  13.822  13.802
29771W        W 2196  29.671  37.377  11.386
29772W        W 2197  12.968  34.172   2.733
29773W        W 2198  20.253  43.489   0.059
29774W        W 2199  22.171  33.652  13.882
29775W        W 2200   9.070  30.540   1.181
29776W        W 2201  30.469   4.720  13.801
29777W        W 2202  40.604   1.748  12.009
29778W        W 2203   4.492  14.330   1.375
29779W        W 2204  12.222  19.739   3.584
29780W        W 2205  41.915  21.120  12.594
29781W        W 2206   5.315  30.122  13.763
29782W        W 2207  43.824  28.468   4.051
29783W        W 2208  21.212  32.094   1.860
29784W        W 2209  42.294  17.580  13.100
29785W        W 2210  35.337  10.735  14.901
29786W        W 2211  33.150  18.671  13.762
29787W        W 2212  17.944   0.978   0.916
29788W        W 2213  27.580  29.298   2.383
29789W        W 2214  38.612  12.850  12.081
29790W        W 2215   4.832  36.563   0.276
29791W        W 2216   9.377  36.895   5.016
29792W        W 2217   2.264  18.734  13.024
29793W        W 2218  38.553  42.651  12.290
29794W        W 2219  28.875  13.281   1.732
29795W        W 2220  37.120  38.959   4.844
29796W        W 2221  20.664  32.630   4.903
29797W        W 2222   7.202  22.996  13.455
29798W        W 2223  31.734  42.311   2.011
29799W        W 2224  19.217   4.899  13.910
29800W        W 2225  27.194  25.361   1.038
29801W        W 2226  29.776  40.417   1.338
29802W        W 2227  27.013  16.826  12.031
29803W        W 2228  34.862  12.408  11.926
29804W        W 2229   3.444  30.762   0.516
29805W        W 2230  19.567  16.658   2.887
29806W        W 2231   4.627   7.301  11.129
29807W        W 2232  29.148  14.205  11.982
29808W        W 2233  23.289   8.849   1.800
29809W        W 2234  35.537  36.104  12.897
29810W        W 2235   5.313  37.093  14.949
29811W        W 2236  15.889  21.876   2.883
29812W        W 2237  11.602  31.648  11.999
29813W        W 2238   8.481   1.304   3.732
29814W        W 2239  39.799  28.534   4.624
29815W        W 2240  13.748  42.293  13.274
29816W        W 2241   2.720  20.319  11.582
29817W        W 2242   6.280  41.940   2.908
29818W        W 2243  39.993  22.531  10.378
29819W        W 2244  26.046  26.528  12.424
29820W        W 2245  21.535  37.037  11.260
29821W        W 2246  13.140  17.614  12.407
29822W        W 2247   1.335  13.634   4.120
29823W        W 2248  28.936  26.890  14.966
29824W        W 2249  26.015  40.397  12.518
29825W        W 2250  17.081  34.578   0.357
29826W        W 2251  11.579  15.192  13.856
29827W        W 2252  35.361  26.958   2.899
29828W        W 2253  14.342  40.756   0.260
29829W        W 2254   5.903  30.043   4.416
29830W        W 2255  23.076  36.270   3.242
29831W        W 2256  21.158  35.604   0.818
29832W        W 2257  15.034  25.165  11.637
29833W        W 2258  43.160   9.255   4.750
29834W        W 2259   2.460  11.205  11.019
29835W        W 2260  19.025  15.819  10.958
29836W        W 2261  19.605  21.688   4.689
29837W        W 2262  25.191  23.908  13.479
29838W        W 2263  13.958  38.918  11.153
29839W        W 2264  21.610  19.350  13.378
29840W        W 2265  31.986  14.689   2.770
29841W        W 2266  30.444  24.476  14.752
29842W        W 2267  21.568  39.472   2.723
29843W        W 2268  25.573  24.762   4.329
29844W        W 2269  42.039  29.976   4.740
29845W        W 2270  19.484  13.196   3.836
29846W        W 2271  42.283  18.598   1.269
29847W        W 2272   5.685  26.455   1.766
29848W        W 2273  22.053   3.883  12.561
29849W        W 2274  23.895  40.058  11.584
29850W        W 2275  35.140  42.299   4.594
29851W        W 2276  24.738  30.718   3.136
29852W        W 2277  42.730  22.208  13.043
29853W        W 2278  16.958  25.411  14.426
29854W        W 2279  13.168  12.774  13.455
29855W        W 2280   2.213  41.550  12.500
29856W        W 2281  39.451  23.958  14.355
29857W        W 2282  21.498  23.793   0.271
29858W        W 2283  33.305  35.364   4.502
29859W        W 2284   6.316   9.836   3.340
29860W        W 2285  32.636  30.888   1.909
29861W        W 2286  21.257  44.841   2.838
29862W        W 2287  12.758   9.284   0.076
29863W        W 2288   1.826  32.167  13.564
29864W        W 2289  20.243  15.739   1.151
29865W        W 2290  38.451  24.128  14.754
29866W        W 2291   5.347  20.787  11.084
29867W        W 2292  37.430  28.808   4.787
29868W        W 2293  30.145  16.738   3.215
29869W        W 2294  42.352  35.617   4.392
29870W        W 2295  33.362   8.498   1.776
29871W        W 2296  29.671   3.438   0.891
29872W        W 2297   3.379  21.432  12.953
29873W        W 2298  22.635  23.525  12.670
29874W        W 2299  20.374  40.919  11.336
29875W        W 2300  21.737  19.751   4.614
29876W        W 2301   6.503  25.195  13.461
29877W        W 2302  12.628   1.947   4.590
29878W        W 2303  25.035   5.961   3.580
29879W        W 2304   8.332   1.736  12.193
29880W        W 2305  10.757  14.237  14.234
29881W        W 2306  42.396  10.715   1.935
29882W        W 2307  15.910  18.140  14.874
29883W        W 2308  40.550  24.746   3.624
29884W        W 2309  33.076  31.994   2.319
29885W        W 2310  44.245   5.143   9.964
29886W        W 2311  37.091  22.996  13.431
29887W        W 2312  41.687  39.534   4.113
29888W        W 2313   8.742   8.793   2.615
29889W        W 2314  35.428   3.307   2.139
29890W        W 2315  37.993   9.221  13.335
29891W        W 2316   0.806  44.267   3.093
29892W        W 2317  32.162  25.095   4.033
29893W        W 2318  34.770  28.333  11.619
29894W        W 2319  34.597  31.914   3.756
29895W        W 2320  34.044  25.972   4.577
29896W        W 2321  28.208  30.402  13.097
29897W        W 2322  36.147  32.955  11.966
29898W        W 2323  13.284  25.132  14.916
29899W        W 2324  30.358  19.732   3.052
29900W        W 2325   8.268  13.317   1.259
29901W        W 2326  13.856  23.906   9.801
29902W        W 2327  35.154  26.608  11.069
29903W        W 2328   0.403  36.410  13.436
29904W        W 2329  23.704   4.871  11.449
29905W        W 2330  23.992  43.435   0.309
29906W        W 2331   7.791  43.497  12.669
29907W        W 2332  24.631  10.776  13.506
29908W        W 2333  22.131  16.949   1.422
29909W        W 2334  26.826   9.319  12.888
29910W        W 2335   0.093  34.496  10.182
29911W        W 2336  23.315  34.720  12.823
29912W        W 2337  12.805  12.108   4.582
29913W        W 2338  25.249  33.568   0.802
29914W        W 2339  19.628  21.771  11.239
29915W        W 2340  18.695  16.237  13.432
29916W        W 2341   6.439  18.135  12.148
29917W        W 2342  41.812  20.692  11.091
29918W        W 2343  41.794   3.617   1.666
29919W        W 2344  10.256  41.762   0.908
29920W        W 2345  26.263  19.080   4.160
29921W        W 2346  19.743  37.138   3.345
29922W        W 2347   4.732  13.019   3.880
29923W        W 2348  31.104  18.675   2.744
29924W        W 2349   0.848  20.394  14.218
29925W        W 2350  38.820  37.251  13.307
29926W        W 2351  30.501  31.088  14.761
29927W        W 2352  22.788  14.347   1.011
29928W        W 2353  11.671  17.734  11.188
29929W        W 2354  38.506  27.082  14.768
29930W        W 2355  44.042  37.414   4.546
29931W        W 2356   4.080  37.292  12.362
29932W        W 2357  26.210   7.626   4.805
29933W        W 2358   9.204  19.004   2.205
29934W        W 2359   2.878  32.528   0.415
29935W        W 2360  37.913  37.559  11.963
29936W        W 2361  33.011  40.990  14.796
29937W        W 2362   9.574  24.939  13.565
29938W        W 2363  33.412  19.215   1.464
29939W        W 2364  39.075  43.995   3.714
29940W        W 2365  44.201  10.204  13.124
29941W        W 2366  30.999   9.322   3.846
29942W        W 2367   6.244  43.795   3.985
29943W        W 2368   4.855  39.803  13.961
29944W        W 2369  35.066   1.708   0.630
29945W        W 2370  43.834   1.928  10.775
29946W        W 2371  41.429  23.940  12.420
29947W        W 2372   3.301  32.105  10.779
29948W        W 2373  11.844  29.207   4.530
29949W        W 2374  36.789  36.940   0.343
29950W        W 2375   8.904  41.834  14.366
29951W        W 2376  27.930  27.287  13.445
29952W        W 2377  36.919   8.364  14.830
29953W        W 2378  12.251  24.849   4.238
29954W        W 2379  18.140  41.044   2.232
29955W        W 2380  20.680  22.998  13.996
29956W        W 2381  26.268   2.408   2.701
29957W        W 2382   5.182   5.715  14.401
29958W        W 2383  38.964  44.810  12.132
29959W        W 2384  23.152  40.991   1.944
29960W        W 2385  21.558   0.463   3.321
29961W        W 2386  44.880  24.291  11.692
29962W        W 2387  30.512  36.260  13.886
29963W        W 2388   8.729  24.547   0.881
29964W        W 2389  36.929  43.325  12.516
29965W        W 2390  23.718  31.602   2.245
29966W        W 2391  37.874  38.543   0.925
29967W        W 2392   9.360  32.938   3.253
29968W        W 2393  23.630  25.692   0.477
29969W        W 2394  35.557  35.308   2.787
29970W        W 2395  38.469  43.106   0.359
29971W        W 2396   6.906   5.092   2.183
29972W        W 2397   9.377  14.020   2.352
29973W        W 2398  37.806  44.719  13.916
29974W        W 2399  27.066  17.708  11.637
29975W        W 2400  19.586  24.962   0.393
29976W        W 2401  31.546  31.454  14.852
29977W        W 2402   4.151  15.095  14.283
29978W        W 2403  40.280  39.061  10.120
29979W        W 2404   8.318  40.307  14.847
29980W        W 2405  21.205   3.218   4.680
29981W        W 2406  37.159   9.357   3.714
29982W        W 2407  12.858  11.149   2.272
29983W        W 2408  23.633  31.472   1.348
29984W        W 2409  32.664  20.550  10.478
29985W        W 2410  16.085  12.076  11.299
29986W        W 2411  16.635   7.297   3.833
29987W        W 2412  36.131  20.729   1.809
29988W        W 2413   1.174  38.442   4.595
29989W        W 2414  29.938  23.933  12.945
29990W        W 2415  34.335  35.126  11.694
29991W        W 2416  43.336  44.453  13.277
29992W        W 2417  37.126   4.816   1.944
29993W        W 2418   1.215  42.588  12.409
29994W        W 2419  11.171   6.739  12.897
29995W        W 2420   1.889  12.009   4.782
29996W        W 2421  25.233   8.474  13.817
29997W        W 2422   8.231  29.122  12.363
29998W        W 2423  32.084   6.935   2.843
29999W        W 2424  20.117   4.899  13.345
30000W        W 2425  17.155  21.763  10.153
30001W        W 2426  42.392   5.722  12.971
30002W        W 2427   2.152   7.096   4.119
30003W        W 2428  44.938  28.838  13.107
30004W        W 2429  40.712  28.552   2.056
30005W        W 2430  14.187   3.711  12.900
30006W        W 2431  39.542  18.240   2.437
30007W        W 2432  44.043  18.042  14.440
30008W        W 2433  43.339  39.615   4.378
30009W        W 2434  42.068  44.994  13.061
30010W        W 2435   2.374   7.816  13.955
30011W        W 2436  28.600  28.081  13.615
30012W        W 2437   2.858  25.133   2.398
30013W        W 2438  33.381  26.445  14.916
30014W        W 2439  35.352  34.811  12.855
30015W        W 2440  35.920   4.337   0.824
30016W        W 2441   4.893  28.924  12.577
30017W        W 2442  28.184  15.333   3.351
30018W        W 2443  17.580  20.735   3.605
30019W        W 2444  34.788  12.071   1.712
30020W        W 2445  29.412  20.129  13.365
30021W        W 2446  14.866  11.230   3.623
30022W        W 2447  39.094   4.736  14.821
30023W        W 2448   3.429  35.538   3.860
30024W        W 2449   4.265  12.589   0.991
30025W        W 2450  25.612  12.775  11.926
30026W        W 2451  25.574  19.049   1.206
30027W        W 2452   9.218  32.472  10.426
30028W        W 2453  42.903  27.161  14.433
30029W        W 2454  43.076  37.576   3.485
30030W        W 2455  31.959  34.924  13.357
30031W        W 2456   2.489   1.242  13.003
30032W        W 2457  13.707   2.228  12.114
30033W        W 2458  44.751  10.758  11.397
30034W        W 2459  26.375   6.920  10.327
30035W        W 2460   9.146   6.938  13.809
30036W        W 2461   8.353  24.062   2.861
30037W        W 2462   1.504   5.471   2.270
30038W        W 2463  44.286  38.031  12.379
30039W        W 2464  10.142  25.104  11.255
30040W        W 2465  32.243  29.944   2.809
30041W        W 2466  20.639  13.877   3.886
30042W        W 2467   4.019  21.213   4.156
30043W        W 2468  41.728  25.171   0.568
30044W        W 2469  22.700  15.804  10.926
30045W        W 2470  33.676  37.388  11.099
30046W        W 2471  26.585  37.095   0.751
30047W        W 2472  41.814  42.930   1.272
30048W        W 2473  39.964  29.405  10.732
30049W        W 2474   3.674  42.064   2.752
30050W        W 2475  32.853  35.662   2.123
30051W        W 2476  17.114  15.578   3.316
30052W        W 2477  40.014  33.686   0.897
30053W        W 2478  26.036  35.484  13.112
30054W        W 2479  17.092   1.548   3.668
30055W        W 2480  28.907  21.224   3.580
30056W        W 2481   3.467  29.482   1.281
30057W        W 2482  21.237  28.531  11.991
30058W        W 2483  44.133  42.234   2.283
30059W        W 2484  15.859  28.507   2.206
30060W        W 2485   5.235  18.711   3.693
30061W        W 2486  10.896  24.271   1.311
30062W        W 2487  37.947  13.131   1.824
30063W        W 2488  10.762   6.794   2.732
30064W        W 2489  32.716   4.713   1.248
30065W        W 2490  40.530   2.076  11.172
30066W        W 2491  33.284  29.027   1.067
30067W        W 2492  19.130  20.840   4.287
30068W        W 2493   0.777   4.453  14.357
30069W        W 2494  26.134  24.117  10.621
30070W        W 2495  17.577  43.306   2.173
30071W        W 2496  34.871  16.346   0.170
30072W        W 2497  30.635  40.114  13.553
30073W        W 2498  38.862  41.878  12.891
30074W        W 2499   1.489  12.745  11.050
30075W        W 2500   2.280  13.087   1.887
30076W        W 2501  31.105  13.433   0.073
30077W        W 2502  25.220  40.540   4.603
30078W        W 2503   2.001   4.537   0.081
30079W        W 2504  29.649  18.825   4.294
30080W        W 2505  28.390  28.242   2.790
30081W        W 2506  27.009  44.425  11.956
30082W        W 2507  24.412  12.123   2.642
30083W        W 2508  23.094  28.919   3.409
30084W        W 2509   2.185  17.675   2.843
30085W        W 2510  39.548  36.846  14.986
30086W        W 2511  15.034  19.758   3.296
30087W        W 2512  33.402  13.837  12.579
30088W        W 2513  32.940   8.987  13.904
30089W        W 2514  22.041   1.310  12.020
30090W        W 2515   1.465  30.228  11.087
30091W        W 2516  42.555  39.303   2.399
30092W        W 2517  40.717  27.457   3.406
30093W        W 2518  15.090  10.415  12.491
30094W        W 2519  14.808  19.578   1.887
30095W        W 2520  37.392   5.237  13.831
30096W        W 2521  44.876  29.477   1.168
30097W        W 2522  37.151  32.084  12.144
30098W        W 2523  29.347  26.076  11.470
30099W        W 2524  43.225  35.008   1.383
30100W        W 2525  16.642  20.223   1.920
30101W        W 2526  11.921  41.995   1.931
30102W        W 2527  26.163   1.226  14.242
30103W        W 2528   6.746   5.485  13.859
30104W        W 2529   9.852  41.209   2.640
30105W        W 2530  11.469   1.282   3.102
30106W        W 2531   9.357  41.076  12.325
30107W        W 2532   8.103  18.275  14.148
30108W        W 2533  30.560  14.742  13.967
30109W        W 2534  30.097  14.410  11.107
30110W        W 2535  28.078  23.441   0.969
30111W        W 2536  19.554  19.586  13.814
30112W        W 2537   6.446   4.384  13.103
30113W        W 2538   5.293   2.655  11.420
30114W        W 2539  22.984  41.467   3.976
30115W        W 2540   8.282  21.924   4.541
30116W        W 2541  20.456  33.899   0.931
30117W        W 2542  31.229  44.449  14.904
30118W        W 2543   6.857  15.708   0.956
30119W        W 2544  18.836  41.072  14.952
30120W        W 2545  15.492  24.707   4.592
30121W        W 2546  44.999  18.073  10.386
30122W        W 2547   3.813  19.279  11.678
30123W        W 2548   7.699   6.028  12.609
30124W        W 2549   7.362   2.841  11.702
30125W        W 2550   8.514  36.832   0.252
30126W        W 2551   3.919  22.404  10.734
30127W        W 2552   8.376   0.274  11.236
30128W        W 2553  30.046  27.179   4.260
30129W        W 2554  18.217  43.140  11.899
30130W        W 2555   1.005  24.914   0.757
30131W        W 2556   9.260   1.513   1.264
30132W        W 2557  35.636  28.108  11.668
30133W        W 2558  40.184  15.591  10.764
30134W        W 2559  23.100  43.031   4.568
30135W        W 2560  25.719  16.165   4.736
30136W        W 2561  40.477   3.819  10.959
30137W        W 2562  16.057  37.844   3.284
30138W        W 2563  41.075  30.007  12.435
30139W        W 2564  30.973  38.113   0.661
30140W        W 2565  36.223  19.764   0.376
30141W        W 2566  26.470   7.776   2.891
30142W        W 2567  35.936  11.356   0.074
30143W        W 2568   2.911  41.783   1.240
30144W        W 2569  40.907  38.368  14.417
30145W        W 2570  38.786   0.879   3.143
30146W        W 2571  22.184  37.193  10.562
30147W        W 2572  13.364  14.237   3.223
30148W        W 2573  22.507  27.893  13.844
30149W        W 2574  33.181   9.305   2.733
30150W        W 2575  16.572  13.784   3.129
30151W        W 2576  33.408  23.784   4.324
30152W        W 2577  14.680   3.513  10.702
30153W        W 2578  16.874  35.551   9.518
30154W        W 2579  29.317  19.832  14.503
30155W        W 2580   8.501  26.774  12.414
30156W        W 2581  19.313  42.561  14.078
30157W        W 2582  33.488  10.301   1.398
30158W        W 2583  24.673  40.932  14.319
30159W        W 2584  19.202  41.301   1.330
30160W        W 2585  32.158  25.356   1.898
30161W        W 2586  39.031  37.460   3.537
30162W        W 2587  43.855  33.147  10.526
30163W        W 2588  29.164   4.107   3.334
30164W        W 2589  19.022  11.137  13.091
30165W        W 2590   1.739  12.463   4.544
30166W        W 2591  26.874  32.841   4.523
30167W        W 2592   5.194  34.493  12.572
30168W        W 2593  16.562  42.692  14.309
30169W        W 2594  38.052  25.564  11.044
30170W        W 2595  31.901  12.234  11.109
30171W        W 2596   7.812  42.250   0.308
30172W        W 2597  26.887  38.866  11.633
30173W        W 2598  13.525  40.447   2.289
30174W        W 2599  28.158  11.521  13.434
30175W        W 2600  38.435  36.852  12.657
30176W        W 2601   1.214  37.610  12.402
30177W        W 2602   3.649   7.671   2.863
30178W        W 2603  23.715  32.355   4.702
30179W        W 2604  15.004  43.970  10.705
30180W        W 2605  32.593  12.847   1.979
30181W        W 2606  44.823  16.208   2.877
30182W        W 2607  33.127  35.747  11.568
30183W        W 2608  29.690   4.717  14.365
30184W        W 2609  42.377  43.047  13.575
30185W        W 2610  22.011  43.348   1.948
30186W        W 2611  41.808  41.733  12.465
30187W        W 2612  20.096  35.376  12.370
30188W        W 2613  21.313  29.602  11.158
30189W        W 2614   0.205  26.640  14.427
30190W        W 2615  41.875   5.764  10.772
30191W        W 2616  21.632  20.325  13.479
30192W        W 2617  37.907  32.223  14.521
30193W        W 2618  18.729   2.312   1.030
30194W        W 2619  38.755  40.900   0.895
30195W        W 2620  20.063   2.093  12.875
30196W        W 2621  11.808   1.331  13.941
30197W        W 2622   3.966   3.828   1.029
30198W        W 2623  17.665   0.852   2.680
30199W        W 2624  33.088  19.260  11.932
30200W        W 2625  25.676  26.735   5.167
30201W        W 2626  23.957  27.856  10.829
30202W        W 2627  32.712  30.526  10.696
30203W        W 2628  25.110   4.982  12.993
30204W        W 2629  26.951   0.731   0.474
30205W        W 2630  36.858  23.591  14.789
30206W        W 2631  35.111  21.289  13.820
30207W        W 2632   2.675   9.829   4.236
30208W        W 2633  24.599  35.030   2.983
30209W        W 2634  20.892   6.028   2.797
30210W        W 2635  10.215  19.342  14.942
30211W        W 2636  27.686  43.273  13.054
30212W        W 2637  14.698   4.518  14.821
30213W        W 2638  21.245  11.190  12.998
30214W        W 2639  42.971   3.374   2.504
30215W        W 2640   1.273  41.490  12.925
30216W        W 2641  19.068   4.460  12.588
30217W        W 2642  27.912   7.113  11.175
30218W        W 2643  26.034   6.629  11.986
30219W        W 2644  23.595  24.049  12.966
30220W        W 2645  35.937  11.325  10.657
30221W        W 2646   9.873  44.319  12.618
30222W        W 2647  36.397  11.449  14.240
30223W        W 2648   9.222  34.053  14.297
30224W        W 2649  37.550   9.500  13.414
30225W        W 2650   5.727   6.338   4.627
30226W        W 2651  28.445  39.816  10.693
30227W        W 2652  21.555  26.495   3.924
30228W        W 2653  13.156   9.462   3.739
30229W        W 2654  37.940  29.605  10.377
30230W        W 2655  13.199  23.635   2.249
30231W        W 2656  41.559   4.733   1.471
30232W        W 2657  32.644  10.639   5.024
30233W        W 2658  22.778  29.458  14.898
30234W        W 2659  30.018  36.790   0.104
30235W        W 2660  31.728  26.210  13.490
30236W        W 2661  36.081  16.423  13.317
30237W        W 2662  43.402   9.820   0.305
30238W        W 2663  32.046  33.992   2.930
30239W        W 2664  27.252  38.089  11.895
30240W        W 2665  32.947  26.229   2.286
30241W        W 2666  41.924  23.994  10.588
30242W        W 2667  12.324  31.995  10.481
30243W        W 2668  10.296  23.824  10.988
30244W        W 2669  44.247  25.490   2.969
30245W        W 2670   8.066   5.242  13.020
30246W        W 2671  16.810  42.284   4.615
30247W        W 2672  14.827  28.540  13.351
30248W        W 2673  29.181  44.286   2.284
30249W        W 2674  24.597   3.558   4.577
30250W        W 2675  39.885  20.091   2.445
30251W        W 2676  44.491  24.119  12.034
30252W        W 2677  27.212  16.731  14.955
30253W        W 2678  20.452  13.454  11.522
30254W        W 2679   8.399  32.121  10.728
30255W        W 2680  23.793  34.364  14.211
30256W        W 2681  12.783  31.480   3.758
30257W        W 2682  41.568   3.021  10.679
30258W        W 2683  28.619  28.134   3.728
30259W        W 2684  14.814   9.126  10.616
30260W        W 2685  28.045   2.211  11.683
30261W        W 2686   4.543  37.493   3.341
30262W        W 2687   3.173  32.438   4.055
30263W        W 2688  20.500  16.344   2.825
30264W        W 2689  25.157  18.581   4.534
30265W        W 2690  31.354  17.212   1.433
30266W        W 2691  33.950   3.745  12.107
30267W        W 2692  27.145   9.227   3.800
30268W        W 2693  24.680  34.402   4.602
30269W        W 2694  23.152  30.620  14.625
30270W        W 2695  25.590  12.678   4.179
30271W        W 2696  21.299   7.992  14.371
30272W        W 2697  31.965  17.266  14.729
30273W        W 2698  39.356   4.140   0.472
30274W        W 2699   9.868  22.031  12.209
30275W        W 2700   0.764  24.203  12.934
30276W        W 2701   4.451  40.981  14.380
30277W        W 2702   7.990  41.759   0.398
30278W        W 2703  38.344  20.007   0.706
30279W        W 2704   1.541  18.826   3.342
30280W        W 2705  20.186  41.406   1.238
30281W        W 2706  15.085   4.248   3.695
30282W        W 2707  29.903  30.353   2.959
30283W        W 2708  14.639   4.312  13.401
30284W        W 2709   8.361   9.610  10.754
30285W        W 2710  26.165   8.039  11.149
30286W        W 2711  19.020  36.151  12.378
30287W        W 2712  12.714  40.122  11.499
30288W        W 2713  40.527   8.842  14.786
30289W        W 2714  13.418  31.856   4.071
30290W        W 2715  27.907  37.622  14.565
30291W        W 2716  21.462   9.765  10.695
30292W        W 2717  20.006  12.837  12.149
30293W        W 2718   4.449   2.150   1.470
30294W        W 2719  11.735  22.689   0.326
30295W        W 2720  30.693  16.651   4.082
30296W        W 2721  35.193  24.959  14.840
30297W        W 2722  20.885   5.941   0.050
30298W        W 2723  39.342  40.510   0.431
30299W        W 2724  27.232  26.228  10.657
30300W        W 2725  30.000   1.888   3.126
30301W        W 2726  28.708  25.918  14.582
30302W        W 2727  35.171   6.145   4.002
30303W        W 2728   8.440  14.185   0.973
30304W        W 2729  34.607  40.349  12.002
30305W        W 2730  39.431   8.731   0.702
30306W        W 2731  23.783   8.582   0.454
30307W        W 2732  34.569  11.784  12.583
30308W        W 2733  22.189  12.609  14.685
30309W        W 2734  40.441   2.375   0.282
30310W        W 2735  35.594  23.720  14.417
30311W        W 2736  10.285  27.016  13.632
30312W        W 2737  19.587  38.630   1.654
30313W        W 2738  25.051  19.738   4.798
30314W        W 2739  40.096  30.578   3.197
30315W        W 2740  29.427  17.993  11.434
30316W        W 2741  37.908   4.335   2.881
30317W        W 2742  29.705  34.844  10.960
30318W        W 2743  19.733  17.112   2.407
30319W        W 2744   0.196  25.490   0.723
30320W        W 2745  39.060  38.946  11.520
30321W        W 2746  26.860  42.388   1.969
30322W        W 2747  30.120  23.131   4.662
30323W        W 2748  34.908  41.111   1.696
30324W        W 2749  27.106   6.198   4.659
30325W        W 2750   4.337  21.656  14.368
30326W        W 2751  39.778  39.377   2.379
30327W        W 2752   6.794  16.902   4.126
30328W        W 2753  22.766  28.459  12.607
30329W        W 2754  37.431  29.601  11.505
30330W        W 2755   2.838  16.165   4.615
30331W        W 2756  20.329  10.162   2.673
30332W        W 2757  22.014  11.462  13.829
30333W        W 2758  42.829  37.221  12.019
30334W        W 2759  30.092  43.973   1.325
30335W        W 2760  33.969  22.455  14.010
30336W        W 2761  10.676  42.403   4.924
30337W        W 2762   8.692  42.381  11.334
30338W        W 2763  35.572  39.027  13.872
30339W        W 2764   4.653  44.442   4.109
30340W        W 2765  32.972  15.136   4.300
30341W        W 2766  17.131  19.572   0.881
30342W        W 2767   8.393   6.644  11.924
30343W        W 2768  24.029   4.754   1.002
30344W        W 2769   3.692   5.390  11.941
30345W        W 2770  35.170   3.953  12.550
30346W        W 2771   4.305   9.525   4.929
30347W        W 2772  26.398  19.716  13.381
30348W        W 2773  14.223  22.088   4.104
30349W        W 2774   6.464   9.838  14.979
30350W        W 2775   8.490  42.365   0.686
30351W        W 2776  33.360   5.172   3.301
30352W        W 2777  41.872  16.458   0.753
30353W        W 2778  36.918  37.491   0.399
30354W        W 2779  30.823   4.802  11.530
30355W        W 2780   4.697   5.802   2.111
30356W        W 2781  43.489  40.078   1.364
30357W        W 2782  23.411   5.272   3.240
30358W        W 2783   5.436  17.085   3.112
30359W        W 2784  19.045  44.482  10.602
30360W        W 2785   2.848   3.010   0.295
30361W        W 2786  33.328  19.704   3.083
30362W        W 2787  27.978  27.674  12.408
30363W        W 2788  44.458  37.299   2.847
30364W        W 2789  35.174   7.904   5.512
30365W        W 2790  35.912   8.259   3.335
30366W        W 2791  12.564  20.106   2.698
30367W        W 2792  40.344  28.741  13.666
30368W        W 2793   5.370  38.296  14.071
30369W        W 2794  31.675   7.600  12.894
30370W        W 2795  39.862  22.687   4.660
30371W        W 2796  33.133  21.064  14.906
30372W        W 2797  40.333  31.074   3.559
30373W        W 2798  26.928  22.769   1.154
30374W        W 2799  19.271  28.542   0.411
30375W        W 2800  37.044  16.111  11.255
30376W        W 2801  18.504  31.926  10.835
30377W        W 2802  41.871  38.533  12.921
30378W        W 2803  44.796  19.014  13.908
30379W        W 2804   2.227  27.394   1.431
30380W        W 2805  10.040  35.043  13.102
30381W        W 2806  29.414  11.111  13.540
30382W        W 2807  19.541  18.692  14.070
30383W        W 2808   2.749   0.341   0.730
30384W        W 2809  35.605  12.223   0.693
30385W        W 2810   1.524  41.766   0.052
30386W        W 2811  40.370  30.547  12.015
30387W        W 2812  16.013   0.281  11.092
30388W        W 2813   4.495  25.472  12.761
30389W        W 2814  22.791  30.973   4.076
30390W        W 2815  26.611  37.059   3.682
30391W        W 2816   8.967  34.122   0.238
30392W        W 2817  11.210  37.909   1.418
30393W        W 2818  20.003  24.593   2.910
30394W        W 2819  35.005  41.350  10.697
30395W        W 2820  16.377   6.896  14.747
30396W        W 2821   0.144  21.674  10.746
30397W        W 2822   8.237   4.988  14.052
30398W        W 2823  20.269  40.960  10.568
30399W        W 2824   3.239  17.231   4.753
30400W        W 2825  29.280   6.789   2.381
30401W        W 2826  36.106   0.288   3.668
30402W        W 2827   7.959  11.155  13.371
30403W        W 2828  11.795  36.573  13.154
30404W        W 2829  11.361  18.810   4.639
30405W        W 2830  29.943  26.092   3.748
30406W        W 2831  17.190  23.953   1.063
30407W        W 2832   8.242  21.592  11.888
30408W        W 2833   9.965  10.807   4.688
30409W        W 2834  37.024  30.983   2.009
30410W        W 2835  44.339  22.827  12.592
30411W        W 2836   6.584   3.571   1.131
30412W        W 2837  19.594  12.867   1.648
30413W        W 2838  29.139  29.470   3.825
30414W        W 2839   2.874  24.036   3.387
30415W        W 2840  33.330  13.793  13.441
30416W        W 2841  29.095   6.750  13.997
30417W        W 2842  28.199  10.769  14.748
30418W        W 2843   8.254  29.029   3.203
30419W        W 2844  26.157  11.553   0.350
30420W        W 2845  20.732   2.488   3.243
30421W        W 2846  15.351   2.836   5.454
30422W        W 2847  41.604  38.845  14.462
30423W        W 2848   7.542  17.005  13.431
30424W        W 2849   1.859  28.144  11.057
30425W        W 2850  13.378  43.993  13.790
30426W        W 2851  34.891   5.912   3.624
30427W        W 2852  27.644  41.560  11.348
30428W        W 2853  37.665   9.871  12.628
30429W        W 2854  24.645  11.730   2.889
30430W        W 2855   5.736  24.490   3.651
30431W        W 2856  33.859  35.004  14.008
30432W        W 2857   1.047  32.700   3.318
30433W        W 2858   4.238   3.826   0.023
30434W        W 2859  42.424  41.057   3.100
30435W        W 2860  43.322  41.582   3.317
30436W        W 2861   2.813  21.231  12.505
30437W        W 2862  28.466  36.622   4.142
30438W        W 2863  18.017  36.909   0.490
30439W        W 2864  31.576  40.309   2.184
30440W        W 2865   8.489   7.754  13.151
30441W        W 2866  16.296  23.062   3.643
30442W        W 2867  42.361  27.947  12.522
30443W        W 2868  38.190  28.767  10.504
30444W        W 2869   5.158  27.446   2.717
30445W        W 2870  34.620  23.283  12.961
30446W        W 2871  34.652   2.529  11.584
30447W        W 2872  19.811   7.314   2.303
30448W        W 2873  36.653   9.213  12.099
30449W        W 2874   5.023   3.161  10.684
30450W        W 2875  38.992   0.071   4.616
30451W        W 2876  14.854  32.062   3.666
30452W        W 2877  27.547  36.664  12.488
30453W        W 2878  31.301  10.908  10.754
30454W        W 2879   1.797  31.732  13.881
30455W        W 2880  14.595  41.791  11.928
30456W        W 2881  42.762   7.810  11.628
30457W        W 2882   7.525  31.597   3.787
30458W        W 2883  20.283  35.041   1.193
30459W        W 2884   7.800  44.974  12.411
30460W        W 2885  11.474  34.139  14.388
30461W        W 2886  34.263  21.444  11.880
30462W        W 2887  42.379  31.936  13.000
30463W        W 2888  18.661   9.312  14.746
30464W        W 2889   3.783  29.720  14.209
30465W        W 2890  39.047   6.769  14.780
30466W        W 2891  15.116  20.859  12.191
30467W        W 2892  26.004  11.612  13.100
30468W        W 2893  25.563  24.609  10.953
30469W        W 2894  43.117  26.411   1.843
30470W        W 2895  27.357  19.692   4.949
30471W        W 2896  26.735  17.207  14.507
30472W        W 2897  20.637  10.745  11.840
30473W        W 2898  31.475  43.965   3.919
30474W        W 2899  16.266  13.352   3.183
30475W        W 2900   3.775  12.507  13.515
30476W        W 2901   6.691   9.786  11.979
30477W        W 2902   7.766   4.794  10.045
30478W        W 2903   3.264  26.502  10.634
30479W        W 2904  19.981  19.295  14.050
30480W        W 2905  33.407  25.691   0.630
30481W        W 2906   8.975   2.272  11.280
30482W        W 2907  33.286  34.427  14.219
30483W        W 2908  43.485  36.053  10.657
30484W        W 2909  32.325  37.467   3.287
30485W        W 2910  25.474  22.191   1.801
30486W        W 2911  18.131  39.040  14.555
30487W        W 2912  31.585  21.118  11.196
30488W        W 2913  10.171  18.783   4.057
30489W        W 2914  20.651  16.919  10.584
30490W        W 2915  19.326   8.774   3.694
30491W        W 2916  29.966  29.506  14.304
30492W        W 2917   9.848   3.003   2.416
30493W        W 2918  15.691   6.640  14.974
30494W        W 2919  44.490  33.919  10.686
30495W        W 2920   2.425  34.981  10.565
30496W        W 2921  13.587  30.845  11.123
30497W        W 2922  19.160  43.962  10.537
30498W        W 2923  23.918   2.390   3.065
30499W        W 2924  34.046  29.873   2.911
30500W        W 2925  38.212   9.179   1.375
30501W        W 2926   4.855  28.286   0.886
30502W        W 2927  14.724  20.754   2.694
30503W        W 2928   1.989  18.073  14.873
30504W        W 2929  34.629  34.564  12.438
30505W        W 2930  33.887  30.533   0.792
30506W        W 2931  33.437  41.682   1.233
30507W        W 2932  10.755  38.548  12.840
30508W        W 2933   7.270  41.375   3.857
30509W        W 2934  14.900  41.500  14.834
30510W        W 2935  29.099  10.756   0.838
30511W        W 2936  28.740  43.782  11.481
30512W        W 2937  23.836  18.531  11.513
30513W        W 2938  20.257   6.788  14.819
30514W        W 2939  11.138   3.067  13.958
30515W        W 2940   2.819  25.397  10.605
30516W        W 2941  39.383   8.789   3.348
30517W        W 2942   2.404  44.571   3.624
30518W        W 2943   9.380  15.270  14.708
30519W        W 2944  25.919  35.115  11.438
30520W        W 2945  35.055  21.032  12.799
30521W        W 2946   4.962   2.880  12.618
30522W        W 2947  39.970  11.800  14.064
30523W        W 2948  42.056  21.159  11.096
30524W        W 2949  29.001  11.821  14.235
30525W        W 2950  31.688   7.392   3.355
30526W        W 2951  25.393  34.382   3.129
30527W        W 2952   3.523  29.462  12.558
30528W        W 2953  35.600   3.471  11.082
30529W        W 2954  15.572  16.215  14.799
30530W        W 2955  19.574   2.460  11.005
30531W        W 2956  17.138  28.518  12.798
30532W        W 2957  37.545  19.212   1.699
30533W        W 2958   7.215  33.444   1.134
30534W        W 2959  34.644   1.446   1.468
30535W        W 2960  19.747  30.631   2.760
30536W        W 2961  43.629  37.512   4.900
30537W        W 2962  37.443  42.922   4.580
30538W        W 2963  30.625  26.652  11.555
30539W        W 2964  42.293  24.958  12.177
30540W        W 2965  13.115   3.045  10.665
30541W        W 2966   4.581  22.684  11.551
30542W        W 2967  42.030  26.487  13.006
30543W        W 2968  15.164   1.274  12.575
30544W        W 2969  41.864  11.704   3.879
30545W        W 2970  43.736  22.931  10.574
30546W        W 2971  25.173  35.634  11.016
30547W        W 2972  43.553  15.798   3.705
30548W        W 2973  11.465  20.347  14.760
30549W        W 2974  13.307   8.786  14.997
30550W        W 2975  31.999   7.680   4.672
30551W        W 2976  43.313  18.104   2.139
30552W        W 2977  24.384  17.055   4.109
30553W        W 2978  19.117   3.310  11.689
30554W        W 2979  35.679  32.446  12.905
30555W        W 2980  33.044   9.959  10.712
30556W        W 2981  18.971  35.327  13.045
30557W        W 2982   8.271  32.901  11.087
30558W        W 2983  13.655  41.393   2.373
30559W        W 2984  21.097  39.071  11.473
30560W        W 2985   4.910  21.654   2.709
30561W        W 2986  18.774  25.222   2.080
30562W        W 2987  43.025  35.904  13.965
30563W        W 2988  34.363   6.363   0.392
30564W        W 2989  24.857  15.883  14.621
30565W        W 2990  38.336  39.791   4.500
30566W        W 2991  38.847  27.529  12.615
30567W        W 2992  27.204  41.555   1.932
30568W        W 2993  43.708  33.939  12.968
30569W        W 2994  14.586  41.967   0.969
30570W        W 2995  37.270  35.930  13.505
30571W        W 2996  37.614  10.411  12.909
30572W        W 2997  33.069  28.074   1.867
30573W        W 2998  31.468  29.184  11.706
30574W        W 2999  32.906  13.948  11.476
30575W        W 3000  14.080  39.375   2.128
30576W        W 3001  28.148  33.935   0.458
30577W        W 3002  15.010   1.411  13.963
30578W        W 3003   3.009  38.131  12.774
30579W        W 3004  22.887  21.578  13.833
30580W        W 3005  43.431  37.429  13.403
30581W        W 3006   5.270  22.775   0.858
30582W        W 3007   3.750  23.159  14.901
30583W        W 3008  23.045  11.392   5.531
30584W        W 3009  22.301  38.828   1.773
30585W        W 3010  10.633  23.401  12.790
30586W        W 3011  35.872   5.125  11.187
30587W        W 3012  24.490  28.958   2.906
30588W        W 3013  30.163  44.336   0.940
30589W        W 3014   1.964  20.030   1.737
30590W        W 3015  21.107  10.503   5.119
30591W        W 3016   6.940  43.446  10.551
30592W        W 3017  44.203   8.896   0.732
30593W        W 3018  14.693  38.646   3.978
30594W        W 3019  30.553  39.446  14.738
30595W        W 3020   4.868  30.806   2.247
30596W        W 3021  36.140  44.285  12.036
30597W        W 3022   0.895   9.402  13.123
30598W        W 3023  35.842  24.533   1.789
30599W        W 3024  20.074  43.888   2.793
30600W        W 3025  24.057  28.861  10.884
30601W        W 3026   6.655   5.320   4.094
30602W        W 3027  22.657  29.903  12.872
30603W        W 3028   1.519  31.038   0.335
30604W        W 3029  27.444  18.996  14.016
30605W        W 3030  38.995  41.894   4.544
30606W        W 3031   2.685  32.051  12.080
30607W        W 3032  30.269  44.808  11.161
30608W        W 3033   9.394   6.282   2.147
30609W        W 3034  38.003  26.977  14.092
30610W        W 3035  24.614  36.902  14.320
30611W        W 3036  36.100  17.503   2.160
30612W        W 3037  28.027  44.082   0.290
30613W        W 3038  42.559  39.632   3.258
30614W        W 3039  36.772  42.702   0.918
30615W        W 3040  28.540  28.728   2.682
30616W        W 3041  10.334  41.774   1.846
30617W        W 3042   7.008  22.054   0.948
30618W        W 3043   6.937  29.552  11.443
30619W        W 3044  27.547  24.082   4.713
30620W        W 3045  38.955  22.401   2.819
30621W        W 3046   6.508  15.615  11.278
30622W        W 3047  35.074  35.103   4.143
30623W        W 3048  16.354  33.257  11.044
30624W        W 3049  27.041  12.927  14.498
30625W        W 3050  34.836   4.793  14.410
30626W        W 3051   9.488  16.346  13.292
30627W        W 3052  43.923  10.860  10.669
30628W        W 3053  35.532  41.052   1.447
30629W        W 3054  42.401  11.270  11.564
30630W        W 3055   3.223   8.991  11.411
30631W        W 3056  26.029  18.147   4.083
30632W        W 3057  43.950  18.281   1.471
30633W        W 3058   2.175  32.496  12.467
30634W        W 3059  24.469  40.547   2.182
30635W        W 3060  44.508  25.471   1.605
30636W        W 3061  33.053  27.648  14.391
30637W        W 3062  23.986   9.111  13.794
30638W        W 3063   6.693  22.006  11.650
30639W        W 3064   1.452  21.241   4.063
30640W        W 3065  42.117  13.554   1.448
30641W        W 3066  24.444   6.727  14.759
30642W        W 3067  40.550  11.186  11.552
30643W        W 3068   2.492   6.396  12.564
30644W        W 3069  18.219  30.521   4.712
30645W        W 3070  33.830   4.810  11.924
30646W        W 3071  12.900   0.752   3.900
30647W        W 3072   3.840  13.130   4.896
30648W        W 3073  36.810  13.949   0.930
30649W        W 3074   0.202  22.999  11.489
30650W        W 3075  35.225   1.892   2.679
30651W        W 3076   4.932  29.127  14.712
30652W        W 3077  20.513  33.127  13.064
30653W        W 3078  39.569   6.784  12.367
30654W        W 3079  32.488  30.143  14.741
30655W        W 3080  26.039  29.409   2.348
30656W        W 3081  29.200  25.549   0.491
30657W        W 3082  36.091  31.866  14.332
30658W        W 3083  13.985  14.090  11.904
30659W        W 3084   7.831  36.841   4.741
30660W        W 3085   1.215  25.607  12.424
30661W        W 3086  36.397  41.819   2.698
30662W        W 3087  23.131  36.581   4.317
30663W        W 3088  16.099  36.240   0.250
30664W        W 3089  41.553   5.194   2.333
30665W        W 3090  21.161  17.982  13.879
30666W        W 3091   9.830  35.840  10.386
30667W        W 3092  29.649  38.517   3.862
30668W        W 3093  33.176   5.387   0.834
30669W        W 3094   2.133   3.852  10.466
30670W        W 3095  42.745  29.521   1.247
30671W        W 3096  21.853  31.886  12.614
30672W        W 3097  29.011  27.054   1.939
30673W        W 3098  17.091  13.310  12.110
30674W        W 3099  44.229  44.116  10.694
30675W        W 3100  37.690  22.630  12.058
30676W        W 3101  14.750  24.674  11.975
30677W        W 3102   7.301   4.282   3.995
30678W        W 3103  29.007  33.900  10.771
30679W        W 3104  29.661  30.344   0.861
30680W        W 3105   3.169  33.638   3.688
30681W        W 3106   0.369  34.690   4.915
30682W        W 3107  10.161  36.050   1.726
30683W        W 3108  40.125  32.904   3.101
30684W        W 3109  22.703   7.529  14.150
30685W        W 3110   2.512  25.766  12.099
30686W        W 3111  15.828  16.961   5.088
30687W        W 3112  23.248  19.700  13.036
30688W        W 3113  29.954   1.321  11.365
30689W        W 3114  35.652   5.747   0.526
30690W        W 3115  43.245  38.994  13.738
30691W        W 3116   0.821  16.119  11.070
30692W        W 3117  31.027   5.819   4.328
30693W        W 3118  12.719  42.376   1.943
30694W        W 3119  28.030   1.678  11.684
30695W        W 3120   6.770  28.880   3.030
30696W        W 3121  40.083  31.653   3.843
30697W        W 3122  16.989  20.457   1.507
30698W        W 3123  35.813   6.875   3.646
30699W        W 3124  30.248  26.502   3.706
30700W        W 3125  25.216  26.377  10.681
30701W        W 3126   6.105  28.871   4.756
30702W        W 3127   0.021   8.205  14.345
30703W        W 3128  30.508  40.462   3.682
30704W        W 3129  10.901   4.594  13.405
30705W        W 3130   8.764  43.772  14.921
30706W        W 3131  26.595   0.463  11.593
30707W        W 3132   4.722  34.820  12.031
30708W        W 3133  38.950  36.009   3.594
30709W        W 3134   0.457  24.680   1.886
30710W        W 3135  21.009  33.544   4.556
30711W        W 3136  39.361  16.173   3.760
30712W        W 3137  14.862  11.039  12.494
30713W        W 3138  26.586  23.198   2.429
30714W        W 3139   7.779  19.849  13.898
30715W        W 3140  35.389  33.424   4.130
30716W        W 3141  18.624  18.229   1.385
30717W        W 3142  24.536  11.603  13.010
30718W        W 3143   2.320  23.673  12.454
30719W        W 3144  37.455  14.214  11.954
30720W        W 3145  29.125  22.623  12.216
30721W        W 3146  19.471  23.586   4.589
30722W        W 3147  36.725  19.163   0.670
30723W        W 3148  35.141  33.133   0.313
30724W        W 3149  29.640  21.134  14.053
30725W        W 3150  33.992  36.834   0.449
30726W        W 3151  33.398   0.818   1.384
30727W        W 3152   8.442  18.558   3.192
30728W        W 3153  43.660  23.293   4.192
30729W        W 3154  19.178  36.924  13.372
30730W        W 3155  21.977   3.718  13.376
30731W        W 3156  13.142  26.919  11.855
30732W        W 3157  27.200  37.864   4.928
30733W        W 3158  11.304  10.087  14.954
30734W        W 3159  42.433   0.317  10.673
30735W        W 3160  31.822  26.007  12.598
30736W        W 3161  34.454  22.994  11.974
30737W        W 3162  23.538   3.430   0.535
30738W        W 3163  41.317  40.404   3.651
30739W        W 3164   3.982  35.587   4.609
30740W        W 3165  41.560  32.561  14.963
30741W        W 3166  39.583  10.744   2.762
30742W        W 3167   1.816  42.548   2.832
30743W        W 3168   9.999  12.182  10.767
30744W        W 3169  36.562  44.334  12.925
30745W        W 3170   5.812  13.262  14.357
30746W        W 3171  39.764   3.731  14.242
30747W        W 3172  16.676   8.953  12.080
30748W        W 3173  25.930   6.715  13.329
30749W        W 3174  32.439   2.924  10.689
30750W        W 3175  15.471   4.857   0.269
30751W        W 3176  38.475   4.952  13.906
30752W        W 3177   5.418  27.510  14.302
30753W        W 3178   1.781  44.996   1.714
30754W        W 3179  11.303   3.925   3.230
30755W        W 3180   6.383  35.791   3.678
30756W        W 3181   5.351  33.849   2.439
30757W        W 3182  15.212  44.465  10.795
30758W        W 3183  37.871   6.284   3.024
30759W        W 3184   0.294   9.652   4.242
30760W        W 3185  16.508  19.221   1.292
30761W        W 3186  38.828   5.893  12.764
30762W        W 3187  34.667  36.310   0.742
30763W        W 3188  41.584  14.318  11.207
30764W        W 3189  24.719  27.958   3.299
30765W        W 3190  36.145   0.909   0.415
30766W        W 3191  22.512  17.138  11.145
30767W        W 3192  21.586   3.211  10.764
30768W        W 3193   4.577   4.824   1.311
30769W        W 3194  24.363   7.765   1.906
30770W        W 3195  22.185  41.997  12.602
30771W        W 3196  35.104  35.838  12.001
30772W        W 3197  20.717   9.068  12.941
30773W        W 3198  34.770  32.916   1.126
30774W        W 3199  25.440  44.413   1.320
30775W        W 3200  41.909  43.220   2.921
30776W        W 3201  38.768  39.451  13.384
30777W        W 3202   4.332   8.251  13.260
30778W        W 3203   9.676  21.867  13.662
30779W        W 3204  28.978  39.706  13.026
30780W        W 3205  35.892   0.860  11.112
30781W        W 3206  16.763  19.073  13.402
30782W        W 3207  25.072  23.017   1.139
30783W        W 3208  11.252  35.549  11.069
30784W        W 3209  29.709   8.035   2.660
30785W        W 3210   3.463  32.297  12.093
30786W        W 3211  18.869  39.499   2.470
30787W        W 3212  34.965  41.925   1.194
30788W        W 3213   4.801  16.851  11.407
30789W        W 3214  17.657  10.733   0.763
30790W        W 3215  36.893  23.213   2.955
30791W        W 3216   4.187  27.048  13.369
30792W        W 3217  34.419  28.682  10.652
30793W        W 3218  19.926  30.650  11.245
30794W        W 3219  26.730  24.652   2.955
30795W        W 3220  13.666  43.540  13.530
30796W        W 3221  10.247  10.535  14.708
30797W        W 3222  25.592   4.661  10.060
30798W        W 3223   6.678  10.801  12.027
30799W        W 3224  32.368  32.925  11.629
30800W        W 3225  39.192   8.326  13.033
30801W        W 3226   1.799   9.779   3.730
30802W        W 3227  41.638   0.719   2.903
30803W        W 3228  21.830   2.965  11.188
30804W        W 3229  14.198   0.908  10.937
30805W        W 3230  40.284  35.937   4.010
30806W        W 3231  28.641  19.581   3.117
30807W        W 3232  17.604  15.610   4.536
30808W        W 3233  39.933  12.283   0.953
30809W        W 3234  11.352  16.334  12.710
30810W        W 3235   6.553  29.485   4.315
30811W        W 3236  24.703  11.732   1.662
30812W        W 3237   9.264  11.867   4.090
30813W        W 3238  18.135   8.699   4.372
30814W        W 3239   9.291  11.773  13.112
30815W        W 3240  11.347  17.699   3.915
30816W        W 3241  42.025   7.514   4.840
30817W        W 3242  32.067  13.725  13.336
30818W        W 3243  28.335  23.290   1.874
30819W        W 3244   8.658   1.499  11.857
30820W        W 3245  29.127  20.926   9.797
30821W        W 3246  31.307  40.437   4.586
30822W        W 3247  40.772  30.528  12.888
30823W        W 3248  43.698  20.643   2.454
30824W        W 3249  24.599  32.709  14.210
30825W        W 3250  36.172  13.160  13.332
30826W        W 3251  13.297  41.738   0.369
30827W        W 3252  29.340  31.131   3.345
30828W        W 3253  11.661  23.346  11.393
30829W        W 3254   2.883  26.573   4.366
30830W        W 3255  13.748  43.299   3.395
30831W        W 3256  10.013  28.615   4.873
30832W        W 3257  37.666   3.790  11.601
30833W        W 3258  23.115  41.856   4.651
30834W        W 3259  32.509  19.455  13.391
30835W        W 3260  13.842   8.939   3.206
30836W        W 3261   6.288   3.991   2.888
30837W        W 3262   2.279  22.035   2.767
30838W        W 3263  40.875  42.755   3.207
30839W        W 3264   6.286  12.673   0.682
30840W        W 3265  31.183  43.310  12.935
30841W        W 3266   7.906  19.737  10.700
30842W        W 3267  13.629  21.068  14.745
30843W        W 3268  21.193  27.968  11.630
30844W        W 3269  32.661  14.621   3.371
30845W        W 3270  37.103  43.881   1.181
30846W        W 3271  23.071  27.176  11.456
30847W        W 3272   4.850  11.834  12.853
30848W        W 3273  28.583   0.753  10.868
30849W        W 3274  11.871   1.895   0.405
30850W        W 3275  10.345   7.091  12.408
30851W        W 3276  25.405  18.576   3.403
30852W        W 3277   6.701  28.154  13.672
30853W        W 3278  15.469   5.949  11.823
30854W        W 3279   7.217  42.378   1.298
30855W        W 3280   0.940  43.265   1.645
30856W        W 3281  20.650  38.012   4.529
30857W        W 3282  35.516   6.231   1.640
30858W        W 3283  21.519  35.036   4.139
30859W        W 3284  21.487  41.535   3.674
30860W        W 3285  19.778   5.285   2.678
30861W        W 3286  17.216  16.753   4.864
30862W        W 3287  24.587   6.208  11.662
30863W        W 3288  23.508  20.620   2.711
30864W        W 3289  32.130  22.687  14.334
30865W        W 3290  39.333  11.746   2.204
30866W        W 3291  20.609  29.857   0.222
30867W        W 3292  11.449   7.303   1.387
30868W        W 3293  27.571   8.691   0.874
30869W        W 3294  33.573  35.605  14.942
30870W        W 3295   9.290  42.164   1.845
30871W        W 3296  26.934  44.562   0.752
30872W        W 3297   0.428  25.798   3.857
30873W        W 3298   2.855  36.504   4.222
30874W        W 3299  15.734  31.626   3.746
30875W        W 3300  24.791  29.550  13.111
30876W        W 3301   8.220  11.884   0.934
30877W        W 3302  35.176   6.267   0.805
30878W        W 3303   9.486  26.168  11.507
30879W        W 3304  32.487  14.730   1.736
30880W        W 3305  43.201  32.952  14.384
30881W        W 3306  29.361  29.508  10.754
30882W        W 3307   0.292  27.150  13.880
30883W        W 3308  21.526  41.238  12.932
30884W        W 3309   9.161  17.793  12.532
30885W        W 3310  10.094   7.754  11.142
30886W        W 3311  15.577  34.200   0.795
30887W        W 3312  38.128   6.708  11.037
30888W        W 3313  43.546   0.445  11.556
30889W        W 3314  35.367  18.293  11.313
30890W        W 3315  26.662  13.973   3.678
30891W        W 3316  31.574   4.559  11.632
30892W        W 3317  13.806   0.436   0.454
30893W        W 3318   9.926  37.528  14.756
30894W        W 3319  34.718  15.948  11.123
30895W        W 3320  16.568  30.889   1.305
30896W        W 3321  39.443  10.911  11.903
30897W        W 3322   7.888  43.255  10.694
30898W        W 3323  40.285   6.221  14.261
30899W        W 3324   8.174   6.128  14.960
30900W        W 3325  39.836  22.050  12.450
30901W        W 3326  26.971  28.581  11.153
30902W        W 3327  39.459   5.254  14.162
30903W        W 3328   0.551  11.168  10.796
30904W        W 3329  21.361  30.132  11.114
30905W        W 3330  31.466   8.655   3.103
30906W        W 3331  18.149  24.208  11.933
30907W        W 3332  23.635  41.359   4.794
30908W        W 3333  40.395  41.481  14.505
30909W        W 3334  22.302  14.802   2.406
30910W        W 3335  35.383   4.327  14.901
30911W        W 3336   4.801  43.526   3.207
30912W        W 3337  32.632   7.197  11.481
30913W        W 3338  36.696  28.700   3.677
30914W        W 3339  13.634  42.414   3.949
30915W        W 3340  20.617  13.097  10.574
30916W        W 3341  21.660   3.201   0.837
30917W        W 3342  27.966  10.779  10.905
30918W        W 3343  43.822  21.616   3.841
30919W        W 3344  17.192   6.386   1.787
30920W        W 3345   1.777  36.606   1.192
30921W        W 3346  23.633  24.090   1.030
30922W        W 3347  41.983  24.249   1.798
30923W        W 3348   0.820   4.728  12.074
30924W        W 3349  27.826  34.200   1.753
30925W        W 3350  19.433  10.330  12.171
30926W        W 3351  13.215   2.046  12.081
30927W        W 3352   4.836   8.379   0.298
30928W        W 3353   4.820  42.009  13.504
30929W        W 3354  29.774  34.213   4.538
30930W        W 3355  43.500  40.119   4.305
30931W        W 3356   5.094  44.223  11.563
30932W        W 3357  26.123  26.767  13.888
30933W        W 3358  25.972  16.364  11.998
30934W        W 3359  30.479  12.182   0.730
30935W        W 3360  34.042  30.088   2.425
30936W        W 3361  14.349  36.954  12.891
30937W        W 3362  20.100  14.761   4.117
30938W        W 3363  26.481   6.369  10.671
30939W        W 3364  18.444   1.185   3.573
30940W        W 3365  29.140   3.140  13.396
30941W        W 3366  14.674  11.286  12.029
30942W        W 3367  24.106  39.496   3.206
30943W        W 3368   0.030   2.669  13.362
30944W        W 3369  13.814  24.230  14.030
30945W        W 3370   3.842   0.018  12.562
30946W        W 3371  36.838   3.939   4.849
30947W        W 3372  31.671   5.315   0.935
30948W        W 3373  31.159  36.590  13.085
30949W        W 3374  37.905  37.024  14.403
30950W        W 3375  28.508  42.853  11.469
30951W        W 3376  24.653  30.976   3.842
30952W        W 3377  33.419  32.314   3.250
30953W        W 3378  42.891  39.374  11.174
30954W        W 3379  44.356   7.466  12.464
30955W        W 3380   8.203   0.492   1.235
30956W        W 3381   3.702  20.655   3.390
30957W        W 3382  14.156  38.069  13.218
30958W        W 3383   2.373  33.388   2.752
30959W        W 3384   1.403  32.350   5.024
30960W        W 3385  19.840  30.416   4.121
30961W        W 3386  30.734   7.251   4.222
30962W        W 3387   7.458  41.468   3.394
30963W        W 3388  28.462  44.777   4.933
30964W        W 3389  41.035  42.269  12.866
30965W        W 3390  18.296  40.360  10.642
30966W        W 3391   9.801  20.158   0.026
30967W        W 3392  41.928  32.997  12.950
30968W        W 3393  34.523  30.721   0.278
30969W        W 3394  43.048  20.385  10.899
30970W        W 3395  15.139  33.118  13.565
30971W        W 3396   5.182  13.815   0.436
30972W        W 3397   7.448  43.407  10.485
30973W        W 3398  42.504  33.969   3.793
30974W        W 3399  33.655  16.108   2.774
30975W        W 3400  11.489   4.634  11.165
30976W        W 3401   1.960  26.838   2.414
30977W        W 3402  26.064  18.781  13.285
30978W        W 3403  25.412   3.952  11.198
30979W        W 3404   3.772  27.644   3.310
30980W        W 3405   7.331  38.972   0.739
30981W        W 3406  23.006  14.646  12.187
30982W        W 3407  17.124  42.763   1.526
30983W        W 3408  31.102  40.467  14.766
30984W        W 3409   2.980   9.222  10.472
30985W        W 3410  40.616  40.447   1.684
30986W        W 3411  13.406  15.622  10.036
30987W        W 3412  33.414  35.839   1.449
30988W        W 3413  37.617   6.699  14.039
30989W        W 3414  20.668  10.758  12.368
30990W        W 3415  43.498  36.553  10.886
30991W        W 3416  13.022  27.678  13.618
30992W        W 3417   2.071  12.216   1.686
30993W        W 3418  14.070  10.707   2.640
30994W        W 3419  44.457  19.000   2.330
30995W        W 3420  22.736  33.554  13.120
30996W        W 3421  25.539  16.473   2.220
30997W        W 3422  23.765  20.732   3.154
30998W        W 3423  20.777  25.152   4.032
30999W        W 3424  11.756  39.373  10.510
31000W        W 3425   7.728   1.383   3.264
31001W        W 3426  18.103  38.877   1.364
31002W        W 3427  41.352  16.536  11.979
31003W        W 3428  13.141  29.329   3.259
31004W        W 3429  16.327   6.852  10.497
31005W        W 3430  41.011  31.447   1.425
31006W        W 3431  36.569   7.293   4.745
31007W        W 3432  27.003  43.994   2.825
31008W        W 3433   0.377  24.174   2.808
31009W        W 3434  28.974  42.518   0.615
31010W        W 3435  14.287  13.129   2.360
31011W        W 3436   6.523   9.787  11.091
31012W        W 3437   3.500  37.130  11.141
31013W        W 3438   5.306  19.672  10.722
31014W        W 3439  21.587   0.485   2.818
31015W        W 3440   6.885   8.169   0.295
31016W        W 3441   9.951  28.585   0.423
31017W        W 3442  11.667   1.351  10.908
31018W        W 3443  33.875  10.263  11.548
31019W        W 3444   1.208   0.897  13.052
31020W        W 3445  34.102  27.206  14.758
31021W        W 3446   5.731  15.382   4.247
31022W        W 3447   3.530  10.812   1.203
31023W        W 3448  12.714  30.102  12.316
31024W        W 3449  27.380   1.875   3.902
31025W        W 3450   5.134   2.749   1.907
31026W        W 3451   0.747  18.205  13.350
31027W        W 3452  38.113   4.997  14.777
31028W        W 3453  42.349  40.724  13.802
31029W        W 3454  30.923   6.364   1.833
31030W        W 3455  26.459  15.061   4.956
31031W        W 3456   6.292  18.773   2.814
31032W        W 3457  15.398  22.672  13.687
31033W        W 3458  12.913  34.444   1.255
31034W        W 3459   5.386   4.291  11.526
31035W        W 3460  43.773  18.169  12.648
31036W        W 3461  24.443   0.315  13.906
31037W        W 3462  37.744  24.504   2.722
31038W        W 3463  38.350  18.309  14.853
31039W        W 3464  41.442  44.184  12.000
31040W        W 3465  40.933   3.556   3.141
31041W        W 3466   9.428   6.762   1.946
31042W        W 3467  37.304  17.318   2.741
31043W        W 3468  43.868  18.622  13.936
31044W        W 3469  18.482  29.649  13.584
31045W        W 3470   5.411  42.470   2.978
31046W        W 3471  22.752  44.651   3.337
31047W        W 3472  44.563   4.253  12.848
31048W        W 3473  42.027  23.070  14.894
31049W        W 3474  32.713  36.684   3.281
31050W        W 3475  42.969  22.258   3.521
31051W        W 3476  31.912  28.600   3.113
31052W        W 3477  26.020  26.651  11.366
31053W        W 3478  36.851   6.868  12.884
31054W        W 3479   6.818  34.001   3.165
31055W        W 3480  36.947  43.382  13.035
31056W        W 3481   6.829  31.379  13.081
31057W        W 3482  38.935  44.860  11.120
31058W        W 3483   8.080   8.244  11.023
31059W        W 3484   0.364   9.343   3.062
31060W        W 3485  32.680  40.797   3.347
31061W        W 3486  31.167   4.815  14.423
31062W        W 3487  28.948  34.388   4.661
31063W        W 3488  27.760  25.641  12.440
31064W        W 3489  13.863  11.226  14.671
31065W        W 3490  44.429  16.878   1.754
31066W        W 3491  18.496  38.869  14.203
31067W        W 3492   2.317  38.402   3.596
31068W        W 3493  19.842  38.551  11.224
31069W        W 3494   7.496  38.998   3.699
31070W        W 3495  38.468  23.130   3.799
31071W        W 3496   6.822  23.928   1.057
31072W        W 3497  23.954   0.938   1.325
31073W        W 3498  25.708   5.412   1.066
31074W        W 3499  43.714  32.320  12.446
31075W        W 3500  34.430  18.835  14.586
31076W        W 3501  20.246  41.486  10.642
31077W        W 3502  23.811  35.763  11.893
31078W        W 3503   9.215  43.691   0.194
31079W        W 3504  17.944  44.266  10.007
31080W        W 3505  18.243  30.145   3.557
31081W        W 3506  36.226  29.972   4.749
31082W        W 3507  20.973  22.936   5.494
31083W        W 3508  16.871  34.561   2.658
31084W        W 3509   0.955   1.964   3.322
31085W        W 3510  32.453  10.668  12.361
31086W        W 3511   0.007  42.007   0.262
31087W        W 3512  31.548  17.760  11.968
31088W        W 3513   6.344  12.571  14.231
31089W        W 3514  13.281   5.898  13.411
31090W        W 3515  24.911  33.971   0.984
31091W        W 3516   9.362  12.741   0.705
31092W        W 3517  25.604  44.608   2.630
31093W        W 3518  12.604  42.912  13.027
31094W        W 3519  23.019  14.554  13.713
31095W        W 3520  38.587  25.293   9.832
31096W        W 3521  43.188   6.475  13.468
31097W        W 3522   3.746   1.356   0.392
31098W        W 3523  22.292  43.868   1.207
31099W        W 3524  19.244   0.374   2.824
31100W        W 3525   8.367  23.783  14.840
31101W        W 3526   7.689  19.253  10.623
31102W        W 3527  24.704  24.529  10.491
31103W        W 3528  44.275  24.454  13.914
31104W        W 3529   8.954  39.005  10.814
31105W        W 3530  26.107   0.975  12.095
31106W        W 3531  29.559  35.054  13.934
31107W        W 3532   6.487  22.327  14.707
31108W        W 3533  12.787   1.894   0.768
31109W        W 3534  30.508   6.435  11.471
31110W        W 3535  14.351  14.007   2.992
31111W        W 3536   9.729  44.760  14.376
31112W        W 3537  19.834  30.450   1.227
31113W        W 3538  44.716  25.220   0.437
31114W        W 3539   3.737   3.426   0.280
31115W        W 3540  42.121  17.100  11.293
31116W        W 3541  19.697   2.438   3.194
31117W        W 3542  21.545  17.217  11.541
31118W        W 3543  39.945   4.901   4.586
31119W        W 3544  34.458   1.915   1.335
31120W        W 3545  43.577  32.800   4.222
31121W        W 3546  37.463  19.774  12.424
31122W        W 3547   7.462  11.647   3.225
31123W        W 3548  42.357  32.457   0.026
31124W        W 3549  30.197   8.151   2.863
31125W        W 3550  30.876  35.604   3.782
31126W        W 3551  42.582  35.055  14.831
31127W        W 3552  24.515  33.312   3.767
31128W        W 3553  44.326  12.315  10.684
31129W        W 3554  38.159  23.713   4.945
31130W        W 3555  43.375  12.372   3.755
31131W        W 3556  44.975  34.963   9.966
31132W        W 3557  40.802   9.408   0.227
31133W        W 3558  36.876  16.785  14.783
31134W        W 3559  22.218  16.733   3.674
31135W        W 3560  19.832   0.181   3.790
31136W        W 3561  30.386   9.191  14.450
31137W        W 3562  23.515  10.727   0.882
31138W        W 3563  14.783  30.671  14.324
31139W        W 3564  15.120  25.452   4.788
31140W        W 3565  12.865  32.450   4.856
31141W        W 3566  35.872  33.478   2.264
31142W        W 3567   4.973  42.371   2.185
31143W        W 3568  22.576   8.532   2.011
31144W        W 3569  35.122  11.793   2.643
31145W        W 3570  31.535  40.336  13.827
31146W        W 3571   6.434  24.353  12.882
31147W        W 3572  21.972  31.658   2.150
31148W        W 3573  11.076  17.356  12.130
31149W        W 3574  37.629  34.208   3.596
31150W        W 3575  15.119   0.177  12.600
31151W        W 3576  24.723   3.747   0.254
31152W        W 3577  10.143  10.045   1.123
31153W        W 3578   2.681   7.103   4.194
31154W        W 3579  17.287  23.318   1.673
31155W        W 3580   4.490  17.328   1.690
31156W        W 3581  20.192   4.098  12.072
31157W        W 3582  13.550  22.928   0.502
31158W        W 3583  39.792  43.043   1.180
31159W        W 3584  21.089  26.637   2.603
31160W        W 3585   5.223  30.355   1.014
31161W        W 3586  16.287  13.370  10.761
31162W        W 3587   6.476  19.679   3.237
31163W        W 3588   1.900  12.536  12.367
31164W        W 3589  13.168   8.886   1.335
31165W        W 3590  31.777   8.782  13.409
31166W        W 3591   4.966  16.565  14.043
31167W        W 3592  20.179   6.213  13.029
31168W        W 3593  26.093  42.793   0.782
31169W        W 3594   2.715   8.515  11.073
31170W        W 3595  13.035  40.015   4.528
31171W        W 3596  19.646  28.099   1.430
31172W        W 3597  33.235   9.573  13.564
31173W        W 3598  31.032  13.100   1.313
31174W        W 3599   3.819  44.730   3.609
31175W        W 3600  29.630   2.908  10.483
31176W        W 3601   9.877   7.413  13.748
31177W        W 3602  23.169  24.000  10.574
31178W        W 3603  12.157  43.195   1.159
31179W        W 3604  18.529  29.451  10.502
31180W        W 3605  15.436  35.482  12.327
31181W        W 3606  14.831  14.169   3.199
31182W        W 3607  18.463  36.247  14.510
31183W        W 3608  37.262   7.465  12.376
31184W        W 3609  35.211   2.720  14.879
31185W        W 3610  21.122  22.585   2.604
31186W        W 3611   5.710   9.871   1.818
31187W        W 3612  13.752  34.814  14.565
31188W        W 3613   0.704  35.378   0.773
31189W        W 3614  21.386  17.117  13.022
31190W        W 3615   8.691  21.066  14.405
31191W        W 3616  29.815   3.764   2.028
31192W        W 3617  23.296  25.948   1.170
31193W        W 3618   2.009  12.751  11.020
31194W        W 3619  33.607   8.184   4.052
31195W        W 3620  29.687   4.355   1.248
31196W        W 3621  39.316   2.003   1.888
31197W        W 3622  28.254   2.931   3.535
31198W        W 3623  40.036  12.262   3.202
31199W        W 3624   1.714  41.427   2.745
31200W        W 3625  26.432  26.918  11.545
31201W        W 3626   2.417  37.526   4.746
31202W        W 3627  31.496  16.738  13.570
31203W        W 3628  43.347  34.574  12.394
31204W        W 3629  19.991  22.593  10.313
31205W        W 3630  42.071  43.384   0.902
31206W        W 3631   4.458  11.277  10.405
31207W        W 3632  23.384  39.009  13.426
31208W        W 3633  13.090  39.359  10.436
31209W        W 3634  43.483  19.614   9.771
31210W        W 3635  20.508  39.387  14.902
31211W        W 3636  35.964   3.116  11.085
31212W        W 3637  37.278   4.309   1.867
31213W        W 3638   7.640  43.802   4.923
31214W        W 3639  32.944  21.042   4.082
31215W        W 3640   0.646  39.528  11.040
31216W        W 3641  33.482   1.707   1.158
31217W        W 3642  44.455   1.309   3.512
31218W        W 3643   4.850  31.923  14.540
31219W        W 3644   5.109   8.756  13.278
31220W        W 3645  21.569  17.830   0.849
31221W        W 3646   5.231  33.215  14.071
31222W        W 3647  43.533  25.250   1.331
31223W        W 3648  28.646  23.654   0.314
31224W        W 3649  34.996  13.376   2.419
31225W        W 3650  17.760  37.470   2.200
31226W        W 3651  43.766  15.608   1.681
31227W        W 3652  18.028  19.089   4.677
31228W        W 3653  20.436  36.576  12.913
31229W        W 3654   8.357   7.412  11.614
31230W        W 3655   4.551   1.348  12.883
31231W        W 3656   2.184  43.323   5.049
31232W        W 3657  23.427  35.858  13.985
31233W        W 3658  31.103   4.899  11.959
31234W        W 3659   0.454  42.361   3.697
31235W        W 3660  22.758  32.842   0.412
31236W        W 3661  17.677  32.367   0.280
31237W        W 3662  12.284  26.062   3.640
31238W        W 3663  31.432  13.655  10.668
31239W        W 3664   5.246  21.582  10.652
31240W        W 3665  26.359  21.509   2.658
31241W        W 3666  10.229  12.748   4.058
31242W        W 3667  21.755  35.060  11.599
31243W        W 3668  42.812  25.085  12.824
31244W        W 3669  13.185  18.287  12.640
31245W        W 3670  14.693  31.547  11.168
31246W        W 3671   6.872   7.166   3.393
31247W        W 3672  40.621  18.497  12.022
31248W        W 3673  40.683  39.843   3.293
31249W        W 3674  35.379  14.896  11.322
31250W        W 3675   2.389   6.636   1.312
31251W        W 3676  10.657  20.734   4.528
31252W        W 3677  15.095   7.357  13.950
31253W        W 3678   7.242   1.572  10.696
31254W        W 3679  35.682  31.556  11.903
31255W        W 3680  18.238  33.122   9.790
31256W        W 3681  34.148  44.521   4.469
31257W        W 3682   6.436  39.462  12.377
31258W        W 3683  34.266  23.424  14.418
31259W        W 3684  44.939   3.021   2.693
31260W        W 3685  20.990  35.490   2.126
31261W        W 3686  40.119  37.707  13.898
31262W        W 3687  17.365  20.224   1.269
31263W        W 3688   5.341  37.657  10.330
31264W        W 3689  16.652  12.308   2.012
31265W        W 3690  25.014  20.275  12.984
31266W        W 3691  19.959   8.815  12.664
31267W        W 3692  17.166   7.751   4.767
31268W        W 3693   7.339  26.743  12.376
31269W        W 3694  38.941  27.090  11.499
31270W        W 3695  14.111  34.889  11.395
31271W        W 3696  13.145  20.411   1.295
31272W        W 3697  18.199   2.723   2.806
31273W        W 3698   4.629  14.723   2.292
31274W        W 3699  30.633  43.860   4.043
31275W        W 3700   3.457  38.147   2.164
31276W        W 3701  23.010  27.681  11.592
31277W        W 3702  29.702  12.065   1.421
31278W        W 3703  11.037  22.569   9.900
31279W        W 3704  37.517  33.557  11.553
31280W        W 3705  23.519  44.851   4.817
31281W        W 3706  44.309   9.345   0.965
31282W        W 3707   8.413  35.049   2.607
31283W        W 3708  33.373  33.497   2.288
31284W        W 3709  41.493  27.749   2.273
31285W        W 3710  10.271  42.785  13.833
31286W        W 3711  11.400  36.432  12.797
31287W        W 3712  28.888  23.126   1.050
31288W        W 3713   2.467  14.298  11.587
31289W        W 3714  11.260   9.452  12.036
31290W        W 3715  23.536  37.184  12.347
31291W        W 3716  13.579  42.616  13.670
31292W        W 3717  25.128  44.381   2.768
31293W        W 3718  27.297   7.955   4.119
31294W        W 3719   1.021  18.782   3.365
31295W        W 3720   0.323  42.908  11.446
31296W        W 3721  28.559   3.518  10.384
31297W        W 3722  20.181  17.004  11.453
31298W        W 3723  13.413  38.836  12.362
31299W        W 3724   9.860  25.786  10.571
31300W        W 3725  33.365  19.692  14.935
31301W        W 3726  40.002   9.897  12.756
31302W        W 3727  31.474  13.889  11.604
31303W        W 3728  18.166   7.876   4.951
31304W        W 3729  31.542  39.805  12.088
31305W        W 3730  36.380  43.707  13.461
31306W        W 3731  13.834   8.203  13.297
31307W        W 3732   9.389  37.082  10.736
31308W        W 3733  27.931  42.299   1.846
31309W        W 3734  27.695   4.398  12.900
31310W        W 3735   6.272   2.718  12.419
31311W        W 3736  34.625  24.136  10.468
31312W        W 3737  25.759  25.370  11.177
31313W        W 3738  21.932   9.443  12.210
31314W        W 3739  36.013  30.558   2.660
31315W        W 3740  30.488  29.558  13.355
31316W        W 3741  13.273  42.771  14.557
31317W        W 3742  28.031  44.928   2.367
31318W        W 3743   5.891  24.029   3.843
31319W        W 3744  38.664  10.722   4.707
31320W        W 3745  35.334  33.275  11.080
31321W        W 3746   2.368  11.642  14.187
31322W        W 3747  37.813  39.579  11.184
31323W        W 3748  42.961  34.908   4.599
31324W        W 3749  17.770   9.607   0.421
31325W        W 3750  40.518  13.632  13.473
31326W        W 3751  24.051   5.298  12.498
31327W        W 3752  22.743  14.829  13.333
31328W        W 3753  25.004  12.121   2.228
31329W        W 3754   9.750  35.549   4.646
31330W        W 3755  39.589  24.179   1.181
31331W        W 3756  38.937   1.213  13.822
31332W        W 3757  22.153  43.532   2.439
31333W        W 3758  17.611  14.039   1.112
31334W        W 3759  21.005  35.512  11.550
31335W        W 3760  40.194  17.662  12.395
31336W        W 3761  16.380  11.288  13.922
31337W        W 3762   0.303  14.271  12.039
31338W        W 3763  22.489  17.573  10.404
31339W        W 3764  14.141  10.881  11.554
31340W        W 3765  41.871  19.696   3.095
31341W        W 3766  14.518  42.769  14.896
31342W        W 3767  43.002   9.733   2.081
31343W        W 3768  41.532  15.349   3.229
31344W        W 3769  17.489  17.208  14.327
31345W        W 3770  24.123   4.657   3.115
31346W        W 3771  12.637  21.193  11.395
31347W        W 3772   3.298  19.479  13.773
31348W        W 3773  18.095  42.925  14.319
31349W        W 3774   4.263  16.827   1.687
31350W        W 3775   9.760  36.011   4.174
31351W        W 3776  15.069  17.343  12.402
31352W        W 3777   0.923  21.450   4.682
31353W        W 3778  43.527   9.728  14.304
31354W        W 3779  21.582  28.423  13.783
31355W        W 3780  17.139  20.274   2.238
31356W        W 3781  41.342  13.199  14.436
31357W        W 3782  32.103  31.071  13.294
31358W        W 3783  11.348  38.541   2.666
31359W        W 3784   4.257  24.027   4.554
31360W        W 3785  44.681  30.293  11.981
31361W        W 3786  41.465  15.154  12.584
31362W        W 3787  10.109  21.549   1.770
31363W        W 3788  33.367   8.844   3.673
31364W        W 3789   3.320   0.707   2.156
31365W        W 3790  18.277  33.885   1.927
31366W        W 3791  22.493   6.726  12.100
31367W        W 3792  19.309  42.313  14.991
31368W        W 3793  30.624  17.121  14.863
31369W        W 3794  16.289  40.907  10.967
31370W        W 3795  39.304  20.662   3.996
31371W        W 3796   3.494  12.154   3.796
31372W        W 3797  24.694  44.466  11.650
31373W        W 3798   2.778  42.820  12.975
31374W        W 3799  34.155  13.871   2.419
31375W        W 3800  41.514  42.506  12.826
31376W        W 3801  17.295  39.053   3.199
31377W        W 3802   4.958  32.345   1.813
31378W        W 3803   4.811   3.977   4.546
31379W        W 3804  18.815  33.607   2.744
31380W        W 3805  15.581  29.849   2.590
31381W        W 3806  16.114  22.873  11.603
31382W        W 3807  28.102  12.868  13.967
31383W        W 3808  19.144  38.773   1.350
31384W        W 3809  35.525  39.935   4.559
31385W        W 3810   3.481  34.084   2.936
31386W        W 3811  20.791  24.678  10.739
31387W        W 3812   7.641  15.657  10.754
31388W        W 3813   4.705   7.529  10.262
31389W        W 3814  12.842  19.133  12.981
31390W        W 3815  22.100   0.262  11.563
31391W        W 3816   2.852  11.400  12.871
31392W        W 3817   7.197  14.285  12.164
31393W        W 3818   8.459   0.486  13.918
31394W        W 3819  39.540  36.504  14.547
31395W        W 3820   6.907  20.996  14.243
31396W        W 3821   0.944   6.607   1.215
31397W        W 3822  22.431  22.277   2.787
31398W        W 3823  24.315   4.378   2.311
31399W        W 3824  16.418   7.282  13.564
31400W        W 3825  44.989  12.940  14.419
31401W        W 3826   6.872  28.881   1.069
31402W        W 3827  26.216  29.485   0.667
31403W        W 3828   2.894  30.167  12.953
31404W        W 3829  24.513   9.566  12.846
31405W        W 3830  41.456  17.081   3.206
31406W        W 3831  32.093   2.762   2.885
31407W        W 3832  18.354  25.115  13.231
31408W        W 3833  28.477   7.856  11.734
31409W        W 3834  14.371  15.789   2.099
31410W        W 3835   7.435  36.456  14.833
31411W        W 3836  40.588   8.594   4.030
31412W        W 3837  39.093   8.615  14.813
31413W        W 3838  18.333  17.258   3.909
31414W        W 3839   4.796  42.692  11.662
31415W        W 3840  21.442   4.869   0.921
31416W        W 3841  12.115   1.257  11.181
31417W        W 3842  39.582  30.536  14.820
31418W        W 3843  15.087  14.834  14.954
31419W        W 3844  19.683  15.552  13.101
31420W        W 3845   9.141  20.083   0.277
31421W        W 3846  31.529  15.082   4.232
31422W        W 3847  21.970  13.123   5.030
31423W        W 3848  42.059  22.345   4.585
31424W        W 3849  23.197   7.830   4.442
31425W        W 3850   7.062  44.381  11.518
31426W        W 3851  20.258  18.204  13.544
31427W        W 3852  28.762  38.352  12.512
31428W        W 3853   2.201  16.759   3.889
31429W        W 3854  10.689  21.584  14.008
31430W        W 3855   6.181  30.600  14.097
31431W        W 3856  17.116  25.879  14.244
31432W        W 3857  30.470  41.438  11.913
31433W        W 3858  26.924   3.368  10.539
31434W        W 3859  21.543  26.930  11.096
31435W        W 3860  24.807  18.138   1.412
31436W        W 3861  32.030   3.215   1.906
31437W        W 3862  22.263  24.586   3.089
31438W        W 3863  11.885  26.017  11.478
31439W        W 3864  21.799  12.418   1.021
31440W        W 3865  23.523  19.235  14.522
31441W        W 3866  42.268  11.063  13.769
31442W        W 3867  34.087   8.163  11.387
31443W        W 3868   6.452   1.277  11.904
31444W        W 3869  30.981   2.843   4.385
31445W        W 3870  13.127   3.224   2.345
31446W        W 3871  43.497  43.396  13.295
31447W        W 3872  42.022   2.183  12.050
31448W        W 3873  32.557  20.013  11.967
31449W        W 3874   2.992  40.503  11.571
31450W        W 3875  31.946  14.839  10.732
31451W        W 3876  24.423  20.169   2.800
31452W        W 3877  28.886  22.596  14.155
31453W        W 3878  42.161  37.952  11.583
31454W        W 3879  42.934   2.368  12.784
31455W        W 3880  12.800  34.405   0.272
31456W        W 3881   1.478  20.295  14.567
31457W        W 3882  30.078   6.808  13.513
31458W        W 3883  13.835  18.084   4.174
31459W        W 3884  37.359  20.263  12.285
31460W        W 3885  13.892  33.699  13.333
31461W        W 3886  39.927  36.319  10.730
31462W        W 3887  11.672  38.868  13.829
31463W        W 3888  14.617  21.194  12.026
31464W        W 3889  13.900  29.821  11.223
31465W        W 3890   6.851  13.273   4.203
31466W        W 3891  36.547   8.342   4.667
31467W        W 3892  38.913   0.531   4.826
31468W        W 3893  27.621  28.007  12.707
31469W        W 3894   9.063  12.165  14.269
31470W        W 3895  32.326  16.112  12.455
31471W        W 3896  26.547   7.946  12.306
31472W        W 3897   4.719  11.390  14.990
31473W        W 3898  26.203   4.899  11.408
31474W        W 3899  17.935   0.854  11.132
31475W        W 3900  15.244  13.070   1.669
31476W        W 3901   9.309   5.952  14.780
31477W        W 3902  35.525  14.680  12.359
31478W        W 3903  32.486   8.257  14.430
31479W        W 3904  12.665  26.471   1.236
31480W        W 3905  16.159   8.111   0.715
31481W        W 3906   8.357  38.282  14.966
31482W        W 3907  23.275  22.675   3.641
31483W        W 3908  30.304  21.294  14.995
31484W        W 3909  44.028  24.941   2.816
31485W        W 3910  16.247   6.364   1.946
31486W        W 3911  18.096  43.914  12.469
31487W        W 3912  28.509   2.531   3.799
31488W        W 3913  19.105  15.236   1.529
31489W        W 3914  21.049  30.997   2.903
31490W        W 3915  26.557   7.606  11.913
31491W        W 3916  23.121  15.991   1.235
31492W        W 3917  42.415  42.721   4.873
31493W        W 3918  14.254  38.086  14.580
31494W        W 3919   0.554  27.146  11.070
31495W        W 3920  25.948  20.589   1.416
31496W        W 3921   3.936  37.995  11.631
31497W        W 3922  30.929  31.623   3.661
31498W        W 3923  32.416  27.087   3.631
31499W        W 3924  29.700  25.319  11.874
31500W        W 3925  22.562   7.730  14.600
31501W        W 3926  21.209  12.644   4.296
31502W        W 3927   8.825  22.166   2.812
31503W        W 3928   6.330  37.056  12.046
31504W        W 3929  11.532   8.210  12.341
31505W        W 3930   1.640  40.800   3.632
31506W        W 3931  12.173  35.175   4.565
31507W        W 3932  28.913   5.306  10.887
31508W        W 3933  32.562  12.310   2.341
31509W        W 3934  38.857   2.278  10.617
31510W        W 3935  39.889  25.538  12.074
31511W        W 3936  21.556  40.581   4.485
31512W        W 3937  38.597  12.240  11.545
31513W        W 3938  41.492  24.130  10.914
31514W        W 3939   3.639   9.905   0.719
31515W        W 3940  27.226  33.151  10.844
31516W        W 3941  16.834  39.908   0.735
31517W        W 3942  38.144  39.279  11.494
31518W        W 3943  23.571   7.722   0.588
31519W        W 3944  26.188  18.315  13.471
31520W        W 3945  30.980  15.971  12.184
31521W        W 3946  39.692   8.047  13.889
31522W        W 3947   7.338  30.042  12.903
31523W        W 3948  30.634  26.244   2.855
31524W        W 3949  20.228  21.234  12.422
31525W        W 3950   3.409  16.767  14.842
31526W        W 3951  25.091  26.779   1.368
31527W        W 3952  10.133  35.005  13.939
31528W        W 3953  20.770  27.499   1.702
31529W        W 3954  18.826  35.697   0.818
31530W        W 3955   3.987   5.743  13.831
31531W        W 3956  17.151  33.187   2.746
31532W        W 3957  32.511   2.902  11.608
31533W        W 3958  38.495   6.390  11.636
31534W        W 3959  19.786  44.040   4.452
31535W        W 3960  12.318  37.435   3.976
31536W        W 3961  30.269  13.962  13.917
31537W        W 3962  20.308  33.983   4.683
31538W        W 3963  29.433  28.967   0.815
31539W        W 3964  42.483  31.380   3.780
31540W        W 3965   6.457   5.668  14.254
31541W        W 3966  11.652  41.454   0.801
31542W        W 3967  43.855  15.848   0.229
31543W        W 3968  41.906  20.545   1.869
31544W        W 3969  15.102  31.673  11.484
31545W        W 3970  32.494  25.303   3.656
31546W        W 3971  17.704  15.849  12.932
31547W        W 3972  44.315  15.116   0.013
31548W        W 3973  35.381  24.988  13.907
31549W        W 3974  25.756  20.678   2.265
31550W        W 3975  37.158   6.173   1.610
31551W        W 3976   1.218  19.272   4.099
31552W        W 3977  10.090  12.808  12.470
31553W        W 3978  30.073  27.023  12.146
31554W        W 3979  21.253   6.223   2.455
31555W        W 3980  11.126  34.154  12.139
31556W        W 3981  13.169   7.328   4.139
31557W        W 3982  21.913  12.601  12.987
31558W        W 3983  40.038  29.086   2.813
31559W        W 3984  11.807  11.704   3.666
31560W        W 3985  42.952  39.407  13.756
31561W        W 3986  42.109  24.193  11.548
31562W        W 3987  42.610  20.179  13.109
31563W        W 3988  28.721   9.303  14.437
31564W        W 3989  10.755  22.660  12.878
31565W        W 3990  33.263   2.136   0.388
31566W        W 3991  18.053   8.341  13.079
31567W        W 3992  10.756  12.757  10.849
31568W        W 3993  44.009  25.313  12.336
31569W        W 3994   1.952  43.322  12.019
31570W        W 3995  31.625  28.697  11.722
31571W        W 3996  31.990   4.172   4.193
31572W        W 3997   1.486   2.741   2.928
31573W        W 3998   2.172  24.484  11.605
31574W        W 3999  44.418  41.446  14.836
31575W        W 4000   9.571  12.235  14.391
31576W        W 4001  35.605  35.718  12.012
31577W        W 4002  25.740  25.778   4.208
31578W        W 4003  41.920  16.844  12.079
31579W        W 4004  34.229  10.780   2.819
31580W        W 4005  29.455  43.006  13.079
31581W        W 4006  16.758   6.037   0.824
31582W        W 4007  26.021  15.188   2.232
31583W        W 4008   4.672  35.898  14.036
31584W        W 4009  17.598  12.097   1.207
31585W        W 4010  31.396  12.073  13.326
31586W        W 4011  44.326  18.748  13.286
31587W        W 4012  20.185  39.830   4.731
31588W        W 4013  34.891  28.975  10.758
31589W        W 4014  23.483  43.383   0.382
31590W        W 4015   1.723   3.716  14.808
31591W        W 4016  39.003   0.182  14.856
31592W        W 4017  19.631  44.048   4.943
31593W        W 4018  28.508  30.133   3.897
31594W        W 4019   7.319  38.732  13.762
31595W        W 4020  36.686  24.664  11.215
31596W        W 4021  34.340   2.823  13.938
31597W        W 4022  11.115  23.050   4.685
31598W        W 4023  39.935  37.562  12.099
31599W        W 4024  28.591  33.913   0.866
31600W        W 4025  16.061  17.614  10.508
31601W        W 4026  40.855  15.826  13.724
31602W        W 4027  28.366  28.961  13.890
31603W        W 4028   9.179   2.937  10.621
31604W        W 4029  36.861  21.522  14.227
31605W        W 4030  18.490  12.582  13.056
31606W        W 4031  26.426   7.754  14.769
31607W        W 4032  38.548  38.502   1.291
31608W        W 4033  31.163  39.072  12.014
31609W        W 4034  23.044  12.257   5.528
31610W        W 4035  43.727  34.920   0.257
31611W        W 4036  29.160  23.716   0.399
31612W        W 4037   2.212   7.079   1.991
31613W        W 4038  17.183  44.260   1.760
31614W        W 4039  39.952   4.295  14.783
31615W        W 4040  23.529  40.840  14.928
31616W        W 4041  19.026   9.769  13.700
31617W        W 4042  41.011  23.771  11.896
31618W        W 4043  32.791  13.346  10.754
31619W        W 4044   8.828  31.088  12.083
31620W        W 4045  19.255  25.809   0.154
31621W        W 4046  17.515  44.783  12.575
31622W        W 4047  11.133  18.021  12.923
31623W        W 4048  30.519  30.834   3.778
31624W        W 4049  34.829  11.632   3.996
31625W        W 4050  35.994   9.175   3.659
31626W        W 4051  22.666  32.399   0.153
31627W        W 4052   8.204  16.580  12.362
31628W        W 4053  40.571  24.084  11.956
31629W        W 4054  25.054   0.265  13.170
31630W        W 4055  10.071  43.772   3.645
31631W        W 4056  39.560  43.845  13.517
31632W        W 4057  30.007  24.255   9.660
31633W        W 4058   0.820  21.490   0.008
31634W        W 4059  16.199  10.797  14.161
31635W        W 4060  32.830   8.698  11.248
31636W        W 4061  11.314  35.883  12.821
31637W        W 4062   8.151  14.217  11.180
31638W        W 4063  25.576  35.817  11.480
31639W        W 4064  38.519  35.505  12.954
31640W        W 4065  38.308   3.423  13.993
31641W        W 4066  22.215   5.947   0.436
31642W        W 4067  25.369  32.925  14.539
31643W        W 4068  43.379  17.106   4.098
31644W        W 4069   4.788  10.193   0.132
31645W        W 4070   0.030  30.912   5.462
31646W        W 4071   5.737   1.873   3.747
31647W        W 4072  44.468   8.333  14.468
31648W        W 4073  44.342  34.976   0.803
31649W        W 4074  31.939  27.237  12.630
31650W        W 4075   8.381   6.434  13.016
31651W        W 4076  22.227  29.547   2.885
31652W        W 4077  39.623  32.096  11.043
31653W        W 4078   9.428   7.349  13.999
31654W        W 4079  27.300  44.860   0.042
31655W        W 4080  40.409  19.903  11.603
31656W        W 4081  44.979  18.979  10.960
31657W        W 4082  24.143  41.725  12.564
31658W        W 4083  30.971  27.903  12.192
31659W        W 4084  18.870  20.788   9.754
31660W        W 4085  11.903  14.353  13.480
31661W        W 4086   0.567  23.682  10.775
31662W        W 4087   2.460   9.954   1.008
31663W        W 4088  20.952  20.466  10.518
31664W        W 4089  28.158  23.039  14.274
31665W        W 4090  22.047  10.790  14.901
31666W        W 4091  41.746  25.572   1.533
31667W        W 4092  36.956   9.964   9.771
31668W        W 4093   6.460  40.174   0.855
31669W        W 4094  34.917   3.962   2.708
31670W        W 4095  25.697   0.473  11.532
31671W        W 4096   5.955  25.222   2.271
31672W        W 4097  27.645  34.650   1.926
31673W        W 4098  34.811  43.820   0.953
31674W        W 4099  40.894   1.084   1.897
31675W        W 4100  22.313  29.498  12.844
31676W        W 4101  20.658  10.846   2.546
31677W        W 4102  21.632  11.630  10.547
31678W        W 4103  12.110  21.652   9.430
31679W        W 4104   3.525  24.700  11.999
31680W        W 4105  28.474   2.331   1.890
31681W        W 4106  11.935  14.898   0.701
31682W        W 4107   3.826  30.419  11.119
31683W        W 4108  20.916  32.735   3.167
31684W        W 4109  15.406  32.072   0.396
31685W        W 4110  19.543  13.835   0.093
31686W        W 4111  41.549  40.001   3.421
31687W        W 4112   9.844  11.304  13.433
31688W        W 4113   0.327  20.622  14.046
31689W        W 4114   2.343   9.676   1.939
31690W        W 4115  14.208  12.229   1.025
31691W        W 4116  25.131  22.193   2.646
31692W        W 4117  34.234  21.277   4.671
31693W        W 4118   4.268   3.243   4.598
31694W        W 4119  27.390  13.301  13.454
31695W        W 4120   6.296   9.319   4.214
31696W        W 4121  42.775  21.276  12.992
31697W        W 4122  22.731  35.310   1.234
31698W        W 4123  34.562  25.702   1.488
31699W        W 4124   3.939  10.867   1.848
31700W        W 4125  18.742   1.400   0.860
31701W        W 4126   8.104   0.291  14.882
31702W        W 4127   0.528  14.618   2.362
31703W        W 4128  34.860   7.403  10.624
31704W        W 4129  43.340   2.689  14.505
31705W        W 4130  37.527  35.953   1.443
31706W        W 4131  34.534  29.722  11.665
31707W        W 4132   0.856  26.092   1.762
31708W        W 4133  39.568  25.990   2.745
31709W        W 4134   1.396  21.476   0.700
31710W        W 4135  22.570   1.861  11.578
31711W        W 4136  21.447   1.826   1.256
31712W        W 4137  22.275  21.624   1.904
31713W        W 4138  26.135  40.596   3.078
31714W        W 4139  22.514  15.323   3.687
31715W        W 4140  33.162  28.096  14.684
31716W        W 4141  18.966   7.389  11.677
31717W        W 4142   9.666  22.083  14.977
31718W        W 4143  26.417  44.629  10.385
31719W        W 4144   0.869  44.463   0.024
31720W        W 4145  22.963   0.863   4.259
31721W        W 4146  10.796  39.079   1.101
31722W        W 4147   1.791  43.896  11.441
31723W        W 4148  14.549  34.979   1.341
31724W        W 4149  14.248   7.359  11.064
31725W        W 4150  39.015   2.405  13.611
31726W        W 4151  16.298   8.894   3.269
31727W        W 4152  31.109  39.267   4.524
31728W        W 4153  13.787  15.272  13.822
31729W        W 4154  27.898  38.519   2.059
31730W        W 4155  41.295  18.599   4.699
31731W        W 4156  12.833  28.978   2.286
31732W        W 4157  43.341  28.448  11.085
31733W        W 4158  13.575  38.476   1.176
31734W        W 4159  27.239   0.979   4.140
31735W        W 4160  17.815  33.420  11.150
31736W        W 4161   3.236  42.717  11.940
31737W        W 4162   9.885  15.868   1.560
31738W        W 4163   7.966  36.068  13.327
31739W        W 4164  11.790  38.456   0.368
31740W        W 4165   9.574  41.432   0.960
31741W        W 4166  27.224  36.942  14.252
31742W        W 4167  33.416  11.230  10.818
31743W        W 4168  30.421   3.941   0.838
31744W        W 4169   4.789  19.964   3.241
31745W        W 4170   8.959  30.343  14.830
31746W        W 4171  36.030   9.411  14.353
31747W        W 4172  41.803  28.560   3.298
31748W        W 4173   3.497  34.426   0.020
31749W        W 4174  23.121  39.927  13.778
31750W        W 4175  43.384  27.130  13.986
31751W        W 4176  22.457  24.307   3.597
31752W        W 4177  10.820   8.242  13.954
31753W        W 4178  44.975  15.122  12.476
31754W        W 4179  24.749   5.314  12.120
31755W        W 4180  27.429  26.008  13.436
31756W        W 4181  11.833  12.997   3.107
31757W        W 4182  12.186  23.243  14.269
31758W        W 4183  12.136  22.476  12.872
31759W        W 4184  15.664  13.187   3.933
31760W        W 4185  11.343  20.723  13.320
31761W        W 4186  25.140  42.945  11.019
31762W        W 4187  31.104  23.080  11.379
31763W        W 4188  41.781  12.266   1.707
31764W        W 4189  18.758  10.737   4.604
31765W        W 4190  24.042   0.488   1.047
31766W        W 4191  37.551   0.665   0.227
31767W        W 4192   8.453  11.321  11.956
31768W        W 4193  15.653  19.187  13.958
31769W        W 4194   1.062  34.124   1.343
31770W        W 4195  34.792   0.076  14.333
31771W        W 4196   0.386  11.785  12.145
31772W        W 4197   0.313  13.764  10.764
31773W        W 4198  23.681  31.536   9.615
31774W        W 4199   8.810  31.100  14.354
31775W        W 4200  38.813  27.617   3.267
31776W        W 4201   8.718   7.367  14.777
31777W        W 4202   8.109   7.116  11.203
31778W        W 4203  23.927  40.432   2.416
31779W        W 4204  12.718  14.819  14.318
31780W        W 4205  39.249  31.658  10.433
31781W        W 4206   5.726   7.032   1.133
31782W        W 4207  23.959  34.649   4.176
31783W        W 4208   5.007   5.945  12.066
31784W        W 4209   1.768  44.456  10.730
31785W        W 4210  31.834  25.963   4.156
31786W        W 4211  42.486  39.155  12.961
31787W        W 4212   7.799  27.748  11.110
31788W        W 4213  10.300  44.490  10.991
31789W        W 4214  28.956  16.015  13.524
31790W        W 4215  13.047  44.015  10.458
31791W        W 4216  13.259  36.628  11.945
31792W        W 4217  36.367  41.848   0.868
31793W        W 4218  26.425  41.050  11.678
31794W        W 4219  36.505   1.296   5.015
31795W        W 4220  29.222   0.842   4.257
31796W        W 4221   8.322  33.377   1.554
31797W        W 4222  25.432   0.265  13.549
31798W        W 4223  15.082  43.398   2.261
31799W        W 4224  40.715  20.738  14.305
31800W        W 4225  38.725  13.683  11.553
31801W        W 4226   6.021  10.736   2.288
31802W        W 4227  43.319  34.857  10.546
31803W        W 4228  29.309  40.954   1.700
31804W        W 4229  15.226  38.789  12.519
31805W        W 4230  33.660   8.153   3.118
31806W        W 4231  33.668   8.848   0.349
31807W        W 4232  14.822  31.233  11.561
31808W        W 4233  25.523  29.573   0.858
31809W        W 4234   6.208  14.110  10.308
31810W        W 4235  31.016  13.872  14.310
31811W        W 4236  43.495  42.251   0.343
31812W        W 4237  10.719  30.337   0.464
31813W        W 4238  17.964  25.181   0.902
31814W        W 4239  23.045   3.999   0.835
31815W        W 4240   5.081  39.019   4.735
31816W        W 4241  14.695  26.661   2.135
31817W        W 4242  33.328  25.768  13.962
31818W        W 4243  19.546  16.693  12.094
31819W        W 4244  42.322  14.111  10.772
31820W        W 4245  23.569  11.538   2.473
31821W        W 4246  24.418   4.019  14.938
31822W        W 4247  41.464  26.148   4.287
31823W        W 4248  22.235  32.081   3.384
31824W        W 4249   7.600  22.832   4.103
31825W        W 4250  41.320   4.427  11.450
31826W        W 4251   0.875  18.001  11.580
31827W        W 4252  24.147  38.651   0.925
31828W        W 4253  12.773  29.400   0.475
31829W        W 4254   5.096  11.771   3.943
31830W        W 4255  16.635  21.166  13.638
31831W        W 4256  40.124  24.549   1.160
31832W        W 4257  40.563  29.431  14.756
31833W        W 4258  22.107   9.171   2.735
31834W        W 4259   3.351  29.634   4.154
31835W        W 4260  26.931  30.455   0.815
31836W        W 4261  29.934   4.591  10.671
31837W        W 4262  10.697  31.225  14.938
31838W        W 4263  34.718  25.499  12.520
31839W        W 4264  29.213  25.735  12.514
31840W        W 4265  28.672  41.294   2.350
31841W        W 4266  38.503  39.021  12.214
31842W        W 4267  24.094  21.300   2.279
31843W        W 4268   0.448  22.694   4.070
31844W        W 4269  12.078  34.686   4.780
31845W        W 4270  44.003   9.399  13.798
31846W        W 4271  43.450  22.725   2.597
31847W        W 4272  11.297   0.329   4.618
31848W        W 4273  44.048  28.395   0.878
31849W        W 4274  18.537   1.900  12.769
31850W        W 4275   3.233  36.669   0.788
31851W        W 4276  23.408  42.088   2.682
31852W        W 4277  42.894  29.903  12.481
31853W        W 4278  25.630   7.659   2.343
31854W        W 4279  11.825   8.003   1.974
31855W        W 4280   3.891  10.633  12.019
31856W        W 4281  32.563  25.569  10.497
31857W        W 4282  35.681   9.874   4.783
31858W        W 4283   3.839  43.553  12.473
31859W        W 4284  37.940  18.351  10.673
31860W        W 4285  22.330  42.227  11.283
31861W        W 4286   3.320   6.318  13.151
31862W        W 4287  31.590  35.469   1.621
31863W        W 4288  13.763   3.371  11.095
31864W        W 4289  36.609  28.707  12.028
31865W        W 4290  30.120  39.424  13.361
31866W        W 4291  42.245  29.626   1.273
31867W        W 4292   8.360  24.752  14.955
31868W        W 4293  14.610  38.628  11.480
31869W        W 4294  19.172  30.583   3.150
31870W        W 4295  41.467   9.875  12.462
31871W        W 4296  31.277   9.391   1.883
31872W        W 4297  10.623  20.167   3.275
31873W        W 4298  33.062  11.673   1.376
31874W        W 4299  36.805   2.767   1.440
31875W        W 4300  44.387  14.811  11.619
31876W        W 4301  39.270  16.272  12.490
31877W        W 4302  33.212  16.783  11.160
31878W        W 4303  15.679  11.138   1.155
31879W        W 4304   5.889   2.015  10.876
31880W        W 4305  42.958  35.324   1.018
31881W        W 4306  41.861  13.354  13.910
31882W        W 4307  29.738  23.737   2.641
31883W        W 4308   8.753  10.629  12.757
31884W        W 4309   3.028  17.746  11.172
31885W        W 4310  16.914  11.126   0.784
31886W        W 4311  18.771  21.024   2.326
31887W        W 4312   8.864  35.999   0.165
31888W        W 4313  17.791  38.883   4.521
31889W        W 4314  44.835   5.657   4.100
31890W        W 4315  24.103   0.343   3.354
31891W        W 4316   1.605  21.586  13.003
31892W        W 4317   9.300   8.568  13.894
31893W        W 4318  26.552   8.356   1.846
31894W        W 4319  35.429   6.469   4.333
31895W        W 4320  34.952  28.042   0.743
31896W        W 4321  25.954  41.580   3.265
31897W        W 4322   7.622  32.346  12.554
31898W        W 4323  27.848   9.033   1.859
31899W        W 4324  31.961  38.015  13.374
31900W        W 4325  16.221   0.792  11.989
31901W        W 4326  16.112  12.104   0.878
31902W        W 4327  41.460  27.092  14.002
31903W        W 4328  42.560  25.850  12.029
31904W        W 4329   9.150  21.145  12.128
31905W        W 4330  12.085   7.668  14.238
31906W        W 4331  31.139  30.290  13.947
31907W        W 4332  34.951  19.199   4.499
31908W        W 4333   3.435   0.234   1.842
31909W        W 4334  31.394  39.884  12.576
31910W        W 4335  42.424   8.198   4.162
31911W        W 4336  23.358  31.591  13.098
31912W        W 4337   1.158  42.280  12.842
31913W        W 4338  41.504  39.009   2.773
31914W        W 4339   1.971  26.134   0.909
31915W        W 4340  35.796  32.169  13.554
31916W        W 4341   4.438   4.638   4.364
31917W        W 4342  28.279   7.342   0.734
31918W        W 4343   2.937  24.672   2.147
31919W        W 4344  41.353   7.235  13.929
31920W        W 4345   4.136  25.207   1.655
31921W        W 4346  39.569  17.110   3.908
31922W        W 4347  37.404  11.210   0.392
31923W        W 4348  24.029  28.110   1.948
31924W        W 4349   0.188  23.485  14.799
31925W        W 4350  21.072  43.231  12.051
31926W        W 4351   2.151  40.879   3.688
31927W        W 4352   0.058  18.133  12.832
31928W        W 4353   5.655  15.093  12.611
31929W        W 4354   8.868  44.765   2.814
31930W        W 4355  23.445   1.628  11.153
31931W        W 4356  10.314  11.645  13.927
31932W        W 4357  19.682  34.444  12.013
31933W        W 4358  24.130  29.399  14.556
31934W        W 4359  21.942  21.257   1.023
31935W        W 4360  43.361  21.651   4.642
31936W        W 4361  34.017  41.476  11.138
31937W        W 4362  43.384  20.787   5.133
31938W        W 4363  30.053  21.736  12.436
31939W        W 4364  12.361  41.484   0.048
31940W        W 4365  30.845  14.383   0.563
31941W        W 4366  31.672  25.168   2.740
31942W        W 4367  29.720   5.918  10.932
31943W        W 4368   8.423  31.900  12.473
31944W        W 4369  32.458  43.086   2.735
31945W        W 4370   8.991  40.331  10.573
31946W        W 4371  36.860   8.421  12.523
31947W        W 4372  10.183  17.196   3.729
31948W        W 4373  25.447  21.243   2.740
31949W        W 4374  12.434  14.398   0.203
31950W        W 4375  22.081  35.315  12.483
31951W        W 4376  40.216  22.791   2.659
31952W        W 4377  36.446  21.436   4.623
31953W        W 4378  32.617   2.429  10.718
31954W        W 4379  35.569  23.069  14.915
31955W        W 4380  31.621   2.220  11.171
31956W        W 4381  33.155  41.979  12.425
31957W        W 4382  14.158  43.244  14.225
31958W        W 4383  26.167  33.034   2.316
31959W        W 4384  24.629  33.144   1.434
31960W        W 4385  28.171  25.192   2.399
31961W        W 4386  39.016  25.548   1.783
31962W        W 4387  39.465  10.634  14.465
31963W        W 4388   0.246  11.576   2.262
31964W        W 4389  18.547  30.626  11.112
31965W        W 4390  40.543  30.077  13.355
31966W        W 4391  43.969  27.531  14.395
31967W        W 4392  15.112  15.343  14.951
31968W        W 4393   1.508   3.360   3.672
31969W        W 4394  36.395  37.478   0.378
31970W        W 4395  36.998  13.489  12.843
31971W        W 4396  18.691  33.667  14.853
31972W        W 4397  22.697  39.044   2.032
31973W        W 4398  22.590  40.350   2.840
31974W        W 4399  26.473  23.813  13.082
31975W        W 4400  29.468   1.374   0.519
31976W        W 4401  44.609  44.331   0.333
31977W        W 4402  15.651  18.385   2.705
31978W        W 4403  28.625  14.281   3.649
31979W        W 4404  34.671   1.454   3.322
31980W        W 4405  12.141  38.563  14.818
31981W        W 4406  15.331  21.683  12.207
31982W        W 4407  35.364  25.735   2.032
31983W        W 4408  31.511  44.370   3.590
31984W        W 4409  21.995  17.670  12.124
31985W        W 4410  12.810  20.542  13.385
31986W        W 4411  34.646   1.259  13.442
31987W        W 4412  12.859   4.929  13.496
31988W        W 4413   3.661  17.233  14.846
31989W        W 4414  24.925  17.299  14.915
31990W        W 4415  20.141   4.651  14.332
31991W        W 4416  40.897  25.751   1.467
31992W        W 4417  38.221   0.491   3.945
31993W        W 4418  32.993  12.050   1.729
31994W        W 4419   2.752  14.732   3.474
31995W        W 4420  19.080  18.866  14.232
31996W        W 4421   8.166   5.350  12.216
31997W        W 4422  39.974  23.569   4.708
31998W        W 4423  39.230  13.232  13.367
31999W        W 4424  10.839  26.089   0.935
32000W        W 4425  11.835  21.097  12.509
32001W        W 4426  42.131  35.420  11.046
32002W        W 4427   0.498  16.248  13.118
32003W        W 4428  27.404  18.139   1.852
32004W        W 4429   1.056  18.295   3.899
32005W        W 4430  16.660   3.908  11.929
32006W        W 4431  34.033  19.165  14.434
32007W        W 4432  14.661   8.379   3.787
32008W        W 4433   1.740  20.606  13.051
32009W        W 4434  16.093  18.984  12.982
32010W        W 4435  22.222  25.705  13.133
32011W        W 4436  25.244  24.668  13.143
32012W        W 4437  18.255  44.757  13.111
32013W        W 4438   2.926  10.428  12.986
32014W        W 4439  18.347   8.739   0.345
32015W        W 4440  31.085  40.282  12.625
32016W        W 4441  21.097  16.079  12.003
32017W        W 4442  18.318   7.697   2.484
32018W        W 4443  15.644  31.196  11.171
32019W        W 4444  22.159   6.400   4.714
32020W        W 4445   1.565  34.163  10.591
32021W        W 4446  39.833   1.620   4.005
32022W        W 4447   9.901  15.721   3.667
32023W        W 4448   2.229  34.460  10.655
32024W        W 4449  25.452  29.560   5.074
32025W        W 4450  12.127  21.874   1.366
32026W        W 4451  26.710   8.808  12.766
32027W        W 4452  13.667  14.763  13.838
32028W        W 4453  35.904  20.330  12.174
32029W        W 4454   8.175  31.541  10.721
32030W        W 4455  36.780  30.074   1.860
32031W        W 4456  10.774   2.246   2.333
32032W        W 4457  32.144  30.406   4.162
32033W        W 4458  43.037  20.758   4.094
32034W        W 4459  15.575  12.350   3.386
32035W        W 4460  37.318  39.334   2.238
32036W        W 4461  27.466   7.107  10.882
32037W        W 4462  10.223  32.498   3.374
32038W        W 4463  27.031  15.303  14.926
32039W        W 4464  39.809  10.623   1.405
32040W        W 4465  17.649   4.566   0.259
32041W        W 4466  33.866  20.165  10.431
32042W        W 4467  21.139  32.492   3.692
32043W        W 4468  11.875  37.534  13.389
32044W        W 4469  17.669  11.153  14.484
32045W        W 4470  35.287   6.744   5.423
32046W        W 4471   0.232  23.342  11.003
32047W        W 4472  25.313   3.844   1.950
32048W        W 4473   2.672   7.704  13.513
32049W        W 4474   6.263  30.891  13.097
32050W        W 4475  43.694  18.179   3.806
32051W        W 4476  40.033  29.193   3.856
32052W        W 4477   3.222  11.222  12.492
32053W        W 4478  17.061  32.166   3.180
32054W        W 4479  15.982  19.141   1.261
32055W        W 4480   4.704   0.907  11.554
32056W        W 4481   9.890  23.895  13.985
32057W        W 4482   1.820  43.512  12.937
32058W        W 4483  33.848   9.778  13.015
32059W        W 4484  29.030  12.265   3.732
32060W        W 4485   1.663  27.470   0.541
32061W        W 4486   1.896  30.429  13.459
32062W        W 4487   9.740  43.112  10.572
32063W        W 4488  29.553  20.976   5.439
32064W        W 4489   5.930  14.602  11.950
32065W        W 4490  26.931  44.757   4.008
32066W        W 4491  35.621  18.992   1.371
32067W        W 4492   5.079  26.695   2.396
32068W        W 4493  19.547  20.210   0.394
32069W        W 4494  32.890  23.987  14.423
32070W        W 4495  29.153  43.500  11.425
32071W        W 4496  13.646   2.726   3.112
32072W        W 4497   6.931  32.659   4.118
32073W        W 4498  27.907  16.041  14.833
32074W        W 4499  34.893   0.998   0.678
32075W        W 4500  21.229  31.966  10.983
32076W        W 4501  19.352  37.995   1.819
32077W        W 4502  38.044  27.863   3.683
32078W        W 4503  39.468  19.722   4.541
32079W        W 4504  38.083  38.819   4.579
32080W        W 4505  18.180  18.298  14.026
32081W        W 4506  33.117  41.452   4.402
32082W        W 4507  13.581  17.269   0.484
32083W        W 4508  39.587   5.279   3.274
32084W        W 4509  26.893  31.029   1.858
32085W        W 4510  32.481   4.724   4.597
32086W        W 4511  20.125  12.818  14.372
32087W        W 4512   4.894  29.058  11.094
32088W        W 4513  35.191  33.375  14.609
32089W        W 4514  43.547  22.434  13.099
32090W        W 4515   0.709   4.326   1.357
32091W        W 4516  32.937  16.989  12.625
32092W        W 4517  19.544  35.597  14.511
32093W        W 4518   8.957  23.289   3.963
32094W        W 4519   0.140  24.258  13.616
32095W        W 4520  16.874  17.803   2.576
32096W        W 4521  32.965  44.492  10.650
32097W        W 4522  42.369  32.671   3.848
32098W        W 4523   9.821  20.685  10.764
32099W        W 4524  34.370  31.138   4.185
32100W        W 4525  33.895   4.223   4.881
32101W        W 4526  31.377  25.963   3.906
32102W        W 4527   3.166   5.289  12.898
32103W        W 4528   7.191  40.013  14.449
32104W        W 4529  11.159   3.328  12.970
32105W        W 4530  18.135  19.729   1.529
32106W        W 4531  42.086   5.453   0.346
32107W        W 4532  41.046   1.828   4.456
32108W        W 4533  11.163  24.543   4.687
32109W        W 4534  32.933  31.735  11.069
32110W        W 4535  32.136  13.067   2.097
32111W        W 4536   7.476  40.076   1.275
32112W        W 4537  35.089  29.905  13.332
32113W        W 4538  40.941  14.116  12.859
32114W        W 4539  11.350   7.176  14.058
32115W        W 4540  19.520  29.945  12.503
32116W        W 4541  11.264  27.889   1.927
32117W        W 4542  10.315  14.225  14.543
32118W        W 4543  20.326  17.188   0.770
32119W        W 4544  43.076  34.514   1.455
32120W        W 4545   5.314  19.649   0.987
32121W        W 4546  27.390  24.564   4.566
32122W        W 4547  27.200  39.761  13.229
32123W        W 4548  39.016  32.323   3.267
32124W        W 4549  15.681  20.625  14.411
32125W        W 4550  34.132  43.692   0.497
32126W        W 4551  37.784   1.445  12.962
32127W        W 4552  22.003  30.082   4.236
32128W        W 4553  16.297  12.603   1.760
32129W        W 4554  21.615   7.638   4.712
32130W        W 4555  40.451  24.636  13.915
32131W        W 4556  44.537  37.267  13.065
32132W        W 4557   9.179  34.339   3.798
32133W        W 4558   8.548   6.941  11.495
32134W        W 4559  25.569  23.739   3.136
32135W        W 4560  32.407  22.558  11.581
32136W        W 4561  10.777  39.179   4.550
32137W        W 4562   4.854  42.459  11.196
32138W        W 4563  17.798  34.168   4.211
32139W        W 4564   8.756  43.765   0.446
32140W        W 4565   8.853   7.912  10.450
32141W        W 4566  29.883  25.569   2.795
32142W        W 4567  37.510  20.746   3.891
32143W        W 4568  19.172   6.214   3.392
32144W        W 4569   6.323  10.280  11.826
32145W        W 4570  20.736   1.931   4.643
32146W        W 4571  37.973  27.444  11.764
32147W        W 4572  44.954  43.731   1.714
32148W        W 4573  25.659   7.971  11.180
32149W        W 4574  20.351  37.464  12.470
32150W        W 4575  43.215  44.254   3.323
32151W        W 4576  33.604  41.266  12.597
32152W        W 4577  26.121  10.289   0.312
32153W        W 4578  40.268  15.197  11.096
32154W        W 4579  30.734  31.384   2.281
32155W        W 4580   0.931  26.740  10.005
32156W        W 4581  13.583  39.415   2.328
32157W        W 4582  26.974  33.362  13.810
32158W        W 4583  43.987   6.902  12.037
32159W        W 4584  14.072   9.209   2.768
32160W        W 4585  18.655   0.329  12.145
32161W        W 4586  39.905  23.439   2.900
32162W        W 4587  10.814   7.229   1.860
32163W        W 4588  44.546  42.812  13.494
32164W        W 4589   6.249   0.806  12.573
32165W        W 4590  18.700   9.270   3.389
32166W        W 4591  18.178  21.555   1.800
32167W        W 4592  21.413   0.206  13.137
32168W        W 4593   0.897  43.510   0.265
32169W        W 4594  43.359   9.711   3.573
32170W        W 4595  14.446  18.931  12.000
32171W        W 4596  24.601  41.986  12.825
32172W        W 4597  35.860  15.653  12.995
32173W        W 4598  15.298   6.854  11.660
32174W        W 4599   0.848   4.703  13.524
32175W        W 4600  16.697   1.934   3.926
32176W        W 4601  15.681  10.846  14.091
32177W        W 4602  13.618  29.555   1.799
32178W        W 4603  27.245  27.012  12.618
32179W        W 4604  16.072  11.004  14.871
32180W        W 4605  11.820  10.734  14.455
32181W        W 4606  21.518  34.592  11.682
32182W        W 4607  32.179  28.203   2.915
32183W        W 4608   7.818  27.436  10.698
32184W        W 4609  24.635  12.756  14.962
32185W        W 4610  31.059  31.556  14.640
32186W        W 4611  14.251   6.072  14.222
32187W        W 4612  37.346  30.190  10.549
32188W        W 4613  12.594   0.390  10.660
32189W        W 4614   5.943  15.680   4.618
32190W        W 4615  23.533   2.916   0.635
32191W        W 4616  28.238  43.487  11.004
32192W        W 4617   3.684  33.329  11.488
32193W        W 4618  19.732  33.474   4.858
32194W        W 4619   7.682  29.697   2.906
32195W        W 4620  10.269  43.444  12.533
32196W        W 4621  13.866   7.507  14.994
32197W        W 4622  13.440  22.103  13.000
32198W        W 4623  13.761  34.153   0.511
32199W        W 4624  36.108   0.984  13.025
32200W        W 4625  27.446  23.007   3.630
32201W        W 4626   8.980  21.784   4.092
32202W        W 4627  21.958  27.601   0.327
32203W        W 4628   8.253  28.232  13.552
32204W        W 4629  23.428  11.393   1.247
32205W        W 4630  43.329  27.688  12.580
32206W        W 4631   7.937  13.334   4.252
32207W        W 4632   5.866   3.801  13.810
32208W        W 4633  24.646  31.683  14.282
32209W        W 4634   0.002   2.454   0.505
32210W        W 4635  21.225   8.102   3.828
32211W        W 4636   4.494  17.252   2.627
32212W        W 4637  37.488  34.061  13.350
32213W        W 4638  21.142  36.494   0.471
32214W        W 4639  26.209  43.582  14.088
32215W        W 4640   8.723  22.572  14.545
32216W        W 4641  24.368  39.329   2.777
32217W        W 4642   2.185  27.090  14.725
32218W        W 4643  26.204  26.657  11.923
32219W        W 4644  18.796  32.614  12.898
32220W        W 4645  23.209   4.742  11.509
32221W        W 4646  27.291  44.383  11.047
32222W        W 4647  26.656  43.903  11.509
32223W        W 4648  22.429  34.555  14.914
32224W        W 4649  23.983  24.918   2.313
32225W        W 4650  31.372  40.494  13.301
32226W        W 4651  10.920  34.553  12.399
32227W        W 4652  12.319   5.270   3.451
32228W        W 4653  32.944  20.184  13.326
32229W        W 4654  25.580  23.221   3.111
32230W        W 4655  28.510   3.510   3.226
32231W        W 4656  21.946  44.957  14.820
32232W        W 4657   5.841  26.147   2.774
32233W        W 4658   7.194  20.685  10.476
32234W        W 4659  12.314  32.997   1.896
32235W        W 4660  29.601  43.271   3.652
32236W        W 4661  36.034  14.611  12.970
32237W        W 4662  15.674  33.123  10.739
32238W        W 4663  14.418  18.511   3.242
32239W        W 4664  24.957  38.334   3.235
32240W        W 4665   5.996  23.019   0.957
32241W        W 4666  15.352  14.265  13.570
32242W        W 4667  22.716  10.180  13.964
32243W        W 4668  43.471  40.189  13.070
32244W        W 4669  22.054  38.077  11.515
32245W        W 4670  22.105  11.927   2.263
32246W        W 4671   3.345  11.594   0.840
32247W        W 4672  18.483  14.742  13.305
32248W        W 4673  44.436   9.084  13.798
32249W        W 4674  30.476  39.921  14.964
32250W        W 4675  30.181  17.008   0.817
32251W        W 4676  36.380  19.668  13.340
32252W        W 4677  23.710  31.013   9.611
32253W        W 4678  35.990  10.189   2.698
32254W        W 4679  40.544  41.441  12.813
32255W        W 4680   8.450   8.217   3.663
32256W        W 4681   4.504  26.924   9.832
32257W        W 4682   1.482   5.761   0.243
32258W        W 4683  29.638  16.971   4.988
32259W        W 4684   8.138   1.688  13.047
32260W        W 4685  14.758  11.710   3.407
32261W        W 4686   4.769   3.457   2.548
32262W        W 4687  36.242   3.461   3.191
32263W        W 4688   2.300  38.007  14.001
32264W        W 4689   5.039  21.065   0.414
32265W        W 4690   2.346  19.084  12.051
32266W        W 4691  40.244  37.383  14.817
32267W        W 4692  40.872  26.274  11.659
32268W        W 4693  23.451  39.836   0.818
32269W        W 4694  21.343  33.139   4.616
32270W        W 4695  17.033  39.014  12.337
32271W        W 4696  34.543   5.664   1.423
32272W        W 4697  31.424  19.380  10.469
32273W        W 4698  20.379  22.404  13.555
32274W        W 4699  24.503  16.308   2.804
32275W        W 4700  11.239   4.392  13.773
32276W        W 4701  41.984  27.094   4.660
32277W        W 4702  29.160  43.365   2.292
32278W        W 4703   6.224  35.051  11.161
32279W        W 4704  16.787  36.932  13.478
32280W        W 4705  17.600  28.634  14.879
32281W        W 4706  38.775  42.362  14.984
32282W        W 4707  15.901   7.207   0.887
32283W        W 4708  38.490  36.762  11.194
32284W        W 4709   7.737  20.115   0.461
32285W        W 4710  33.606  24.003   0.428
32286W        W 4711  14.307  24.197   0.310
32287W        W 4712  26.205  18.025  13.962
32288W        W 4713   6.742  31.922  14.722
32289W        W 4714  23.054   4.267  13.974
32290W        W 4715  44.047   3.879  11.353
32291W        W 4716  22.542  37.993  12.924
32292W        W 4717  18.554   8.875  11.131
32293W        W 4718  24.383  41.324   1.218
32294W        W 4719   1.042   9.703  11.667
32295W        W 4720  27.193  10.741   0.791
32296W        W 4721  22.519  44.983   4.571
32297W        W 4722  29.076  18.015   4.971
32298W        W 4723  14.636  18.323   3.757
32299W        W 4724   2.404  35.102   3.070
32300W        W 4725  20.108   6.743  12.952
32301W        W 4726   2.093  23.991   1.335
32302W        W 4727   3.621  22.196   2.193
32303W        W 4728   7.414  19.585   0.773
32304W        W 4729  34.835  27.060  12.636
32305W        W 4730  38.506  17.590  13.476
32306W        W 4731  13.149  37.432   3.141
32307W        W 4732  27.602  41.400  10.866
32308W        W 4733  11.242   7.308  11.033
32309W        W 4734   1.965  31.321   1.931
32310W        W 4735  15.727  28.604   3.196
32311W        W 4736  18.609  10.436   4.220
32312W        W 4737  31.695  43.975  13.164
32313W        W 4738   1.833  32.208  10.578
32314W        W 4739   1.245  39.492  13.111
32315W        W 4740  30.641  19.536   0.792
32316W        W 4741  30.804  41.961   4.956
32317W        W 4742  38.047  10.755   0.732
32318W        W 4743   0.120   1.305  11.042
32319W        W 4744   8.756  30.171  11.444
32320W        W 4745  10.597  43.193  14.027
32321W        W 4746  43.857  17.698  10.978
32322W        W 4747   3.993  23.032   3.711
32323W        W 4748   7.004  12.292  11.913
32324W        W 4749  16.774  31.486   4.180
32325W        W 4750  10.511  11.674  12.004
32326W        W 4751   7.359   1.042  13.137
32327W        W 4752  15.227  26.901  11.948
32328W        W 4753  38.420   8.174  14.265
32329W        W 4754  15.256  10.238  10.592
32330W        W 4755  19.680  30.226  10.518
32331W        W 4756  11.543  27.060  14.363
32332W        W 4757  19.320  36.985  11.475
32333W        W 4758  40.126  42.848  13.972
32334W        W 4759  32.454  43.621  10.347
32335W        W 4760  37.472   0.820  12.884
32336W        W 4761  42.345  39.930   0.870
32337W        W 4762  13.791   6.128   1.001
32338W        W 4763  36.126   1.796  11.212
32339W        W 4764  33.248  10.398  10.882
32340W        W 4765  29.461  34.521  11.604
32341W        W 4766   7.832  17.111   1.941
32342W        W 4767   4.439  17.841   4.397
32343W        W 4768  13.798   9.458   3.208
32344W        W 4769   1.931  10.179   1.344
32345W        W 4770   3.716  15.998  14.068
32346W        W 4771   9.586   1.825  10.523
32347W        W 4772  32.443  21.710   4.559
32348W        W 4773   4.748   2.603  13.392
32349W        W 4774  27.555   0.321   0.004
32350W        W 4775  44.793  16.001  10.447
32351W        W 4776  34.096  27.058   3.324
32352W        W 4777  22.402   0.750  12.442
32353W        W 4778  31.845  37.314  12.681
32354W        W 4779  26.764   8.740  11.780
32355W        W 4780  11.799   4.869  12.132
32356W        W 4781   7.202  32.006   4.272
32357W        W 4782   0.431  12.646   1.355
32358W        W 4783   1.966  35.084  14.563
32359W        W 4784  23.805   2.494   0.715
32360W        W 4785  34.931   0.246   3.425
32361W        W 4786   7.386  33.011   1.358
32362W        W 4787  19.586  18.552   0.873
32363W        W 4788  16.163  36.999   3.936
32364W        W 4789  35.372  40.953   1.919
32365W        W 4790  16.366   1.826  11.877
32366W        W 4791  30.578   6.370   3.203
32367W        W 4792   8.303   3.529   3.346
32368W        W 4793  21.943  26.699  12.997
32369W        W 4794  20.377  11.428   3.240
32370W        W 4795  24.225  36.893  13.358
32371W        W 4796   9.877  18.518   2.732
32372W        W 4797  35.010  35.617   4.111
32373W        W 4798  26.493  39.859  13.104
32374W        W 4799  32.483  12.493   2.864
32375W        W 4800  43.834  23.516   2.897
32376W        W 4801  19.888  32.575  14.218
32377W        W 4802  26.965  40.744   3.721
32378W        W 4803   2.911  32.519   0.955
32379W        W 4804  41.536  36.327   1.773
32380W        W 4805  22.558  35.830   1.251
32381W        W 4806  18.114   5.182  12.382
32382W        W 4807  26.905  27.114   4.713
32383W        W 4808   2.971   9.857   0.277
32384W        W 4809   4.602  43.786   2.819
32385W        W 4810  41.344  31.040   2.849
32386W        W 4811   3.716  20.264  13.539
32387W        W 4812   2.362   6.069   2.157
32388W        W 4813   7.884  22.704   1.127
32389W        W 4814  16.028  38.362   0.826
32390W        W 4815  18.987  18.016  13.855
32391W        W 4816  32.620   8.621  12.270
32392W        W 4817  13.307  17.004  13.990
32393W        W 4818   6.844  18.608  14.542
32394W        W 4819  32.494   3.190  13.361
32395W        W 4820  29.489  39.818   0.406
32396W        W 4821  36.593  40.001  14.858
32397W        W 4822  44.107  18.308  13.038
32398W        W 4823  44.280  16.271   3.568
32399W        W 4824  23.703  29.647  11.105
32400W        W 4825  19.804  40.497  13.300
32401W        W 4826  41.878  39.057  12.968
32402W        W 4827   8.342  17.357  12.114
32403W        W 4828  27.506  23.546   4.850
32404W        W 4829  29.848  33.601   1.218
32405W        W 4830  15.301  17.632   1.826
32406W        W 4831   0.071  10.711   0.197
32407W        W 4832  15.879  17.339  11.126
32408W        W 4833  27.644   0.666  11.966
32409W        W 4834  30.708   3.642   4.904
32410W        W 4835  22.769  18.656   3.853
32411W        W 4836  35.886  34.784   3.184
32412W        W 4837  31.963  22.614   0.692
32413W        W 4838   7.112  28.565   4.132
32414W        W 4839  12.010  32.577   2.920
32415W        W 4840  10.572  30.464  12.666
32416W        W 4841  10.154  26.438   4.114
32417W        W 4842  12.862  11.893   0.925
32418W        W 4843  43.134  26.507   5.203
32419W        W 4844  28.450  21.231   2.729
32420W        W 4845  21.946  34.578  13.021
32421W        W 4846   4.117  29.033  13.383
32422W        W 4847   0.416  24.946   1.367
32423W        W 4848  37.822  25.634   0.964
32424W        W 4849  38.765  32.229  10.146
32425W        W 4850   4.954  24.809  10.857
32426W        W 4851  41.872  17.223   0.043
32427W        W 4852  34.082  23.938   2.646
32428W        W 4853  14.894  38.937   3.165
32429W        W 4854  37.912  17.026  11.029
32430W        W 4855  24.434  37.996   4.244
32431W        W 4856  30.568   9.714  11.006
32432W        W 4857  33.774   1.962   4.693
32433W        W 4858  16.276   3.949   5.374
32434W        W 4859  30.193  18.698   1.703
32435W        W 4860  19.718  17.225   0.039
32436W        W 4861   6.896  35.798   3.790
32437W        W 4862  26.021  30.440  11.026
32438W        W 4863  14.353  16.118   1.507
32439W        W 4864  41.571  35.455  14.769
32440W        W 4865  24.817   3.744   1.824
32441W        W 4866   3.893  42.750  14.278
32442W        W 4867  29.056  11.138  14.899
32443W        W 4868  39.837  41.771  13.199
32444W        W 4869  40.811  27.543  13.038
32445W        W 4870  25.974   0.285   1.638
32446W        W 4871  22.481  35.563  11.405
32447W        W 4872   4.883  43.311  10.491
32448W        W 4873   7.261  44.473   3.420
32449W        W 4874  44.616  39.917   0.084
32450W        W 4875   2.481  42.887   0.974
32451W        W 4876   6.281  39.912  11.031
32452W        W 4877   1.648   3.785  10.335
32453W        W 4878   4.276  16.232   4.676
32454W        W 4879  29.990  18.746  11.570
32455W        W 4880  14.079  17.579  14.753
32456W        W 4881   7.264  25.533   0.123
32457W        W 4882  44.519  33.028   2.734
32458W        W 4883  29.095  26.707  10.350
32459W        W 4884  40.642  42.488  10.615
32460W        W 4885  16.515  31.552   5.491
32461W        W 4886  39.875  16.800  12.128
32462W        W 4887   7.197   5.973  13.019
32463W        W 4888  15.801  12.644   4.690
32464W        W 4889  42.348  14.654  12.931
32465W        W 4890  20.293  27.087  13.400
32466W        W 4891  42.357   9.144  10.753
32467W        W 4892  26.135  39.014   4.696
32468W        W 4893  28.351  41.588   3.705
32469W        W 4894  44.290  28.517  10.718
32470W        W 4895  29.218  38.124   3.695
32471W        W 4896  23.834   5.268  13.235
32472W        W 4897   3.097  31.592   2.262
32473W        W 4898  36.482  17.511  13.144
32474W        W 4899  32.417  29.338   1.241
32475W        W 4900  22.729  36.220   5.011
32476W        W 4901  38.632  44.392  13.182
32477W        W 4902  20.891  16.214  12.481
32478W        W 4903  22.645  34.631  12.081
32479W        W 4904  23.987  23.095   4.222
32480W        W 4905   2.735  11.091   4.124
32481W        W 4906  23.934   9.719   2.873
32482W        W 4907   6.443  43.495  10.747
32483W        W 4908  39.178  17.898   9.952
32484W        W 4909  29.155  24.260  14.697
32485W        W 4910  23.588   0.732  12.967
32486W        W 4911  43.485  15.047   0.413
32487W        W 4912  27.443  34.213   2.123
32488W        W 4913  18.069  13.893   3.267
32489W        W 4914  33.134   9.263  12.549
32490W        W 4915   0.757  10.263  14.623
32491W        W 4916  11.758   8.163   4.639
32492W        W 4917  21.293  42.864  10.845
32493W        W 4918   2.160  38.958   2.770
32494W        W 4919  30.369  27.482   3.740
32495W        W 4920  37.109   4.123   1.382
32496W        W 4921  36.047  20.020  12.560
32497W        W 4922  40.792  30.879   3.752
32498W        W 4923  21.989   9.165   4.022
32499W        W 4924  24.983  20.515   0.947
32500W        W 4925  21.108  36.538  14.943
32501W        W 4926  34.078  13.203  13.530
32502W        W 4927  43.375  14.503   4.976
32503W        W 4928  10.890  44.984  14.309
32504W        W 4929   5.665  14.082   4.667
32505W        W 4930  27.165  30.441  13.905
32506W        W 4931   4.213  27.210  13.855
32507W        W 4932  41.884   5.801   3.629
32508W        W 4933   2.464  14.493   9.956
32509W        W 4934  12.202  10.651   4.590
32510W        W 4935  10.783  43.010   2.732
32511W        W 4936  27.278   3.918   0.897
32512W        W 4937   6.850  43.033   4.219
32513W        W 4938  12.135   3.905   0.058
32514W        W 4939  23.668  27.916  12.513
32515W        W 4940  23.934   7.350  13.889
32516W        W 4941  35.088  19.979  11.240
32517W        W 4942  20.410  20.431   3.845
32518W        W 4943  43.065  20.678  14.504
32519W        W 4944  18.160  13.121  12.777
32520W        W 4945  32.620  22.655   1.810
32521W        W 4946  26.401  33.016  11.638
32522W        W 4947  44.321  25.745   1.193
32523W        W 4948  15.364  11.821   4.934
32524W        W 4949  21.070   1.042   0.143
32525W        W 4950  10.446  39.922  12.074
32526W        W 4951  15.187  12.898   0.885
32527W        W 4952  12.846  40.489  12.682
32528W        W 4953  34.077  20.568   0.022
32529W        W 4954   9.359  37.597  10.728
32530W        W 4955  31.588  13.874   2.807
32531W        W 4956  31.889  37.383  14.066
32532W        W 4957  20.089  39.929   4.226
32533W        W 4958  22.920   3.266   4.305
32534W        W 4959  27.487   0.825  12.449
32535W        W 4960   7.413   6.932  12.823
32536W        W 4961  27.234  44.998   2.807
32537W        W 4962   4.715  44.210  10.551
32538W        W 4963  37.964  27.591  12.868
32539W        W 4964  20.088   9.692  12.930
32540W        W 4965  21.962  25.537   0.017
32541W        W 4966  23.566  17.208  13.308
32542W        W 4967  23.605  39.348   3.265
32543W        W 4968  19.680  17.653   4.767
32544W        W 4969  42.177  27.316   4.225
32545W        W 4970  10.423  21.088   4.229
32546W        W 4971  10.233  20.081   4.242
32547W        W 4972   9.496   7.616   3.675
32548W        W 4973  41.955  31.747  10.055
32549W        W 4974  11.822  42.108  11.051
32550W        W 4975  17.363  34.917  12.496
32551W        W 4976  17.807   3.204   3.518
32552W        W 4977   9.285  13.029   2.368
32553W        W 4978  36.962  24.718  12.072
32554W        W 4979  28.946  16.616  12.117
32555W        W 4980   5.855  28.567   3.334
32556W        W 4981   4.902   0.381   3.693
32557W        W 4982   5.953  15.818  14.443
32558W        W 4983  31.722   5.647  14.428
32559W        W 4984   8.681   2.349  11.723
32560W        W 4985  37.956  14.546  12.857
32561W        W 4986  34.937  40.200   9.586
32562W        W 4987   5.189   1.167  11.654
32563W        W 4988  23.143  24.433   1.187
32564W        W 4989  42.199   2.933  13.820
32565W        W 4990  17.078  24.611  11.505
32566W        W 4991  33.469  38.878   2.805
32567W        W 4992  26.654  36.008  12.013
32568W        W 4993  15.830  25.727  13.927
32569W        W 4994  18.764  26.586  12.158
32570W        W 4995  19.554   6.945  13.012
32571W        W 4996  37.326   2.868   2.795
32572W        W 4997  31.071  38.352   4.890
32573W        W 4998  22.001  11.721  12.758
32574W        W 4999  25.265  27.680   0.483
32575W        W 5000  12.092  39.792   4.933
32576W        W 5001  31.369  22.192   3.674
32577W        W 5002  35.225  35.340  11.957
32578W        W 5003  11.510  14.793   0.375
32579W        W 5004   3.814  37.574  10.490
32580W        W 5005  23.289   4.591   3.899
32581W        W 5006   5.720  11.394  13.057
32582W        W 5007  21.825  27.538   1.906
32583W        W 5008  14.682  26.757   4.506
32584W        W 5009   7.285  15.926   1.215
32585W        W 5010  33.391  20.471  13.454
32586W        W 5011  28.434   4.712   2.735
32587W        W 5012  12.190  41.006   4.103
32588W        W 5013  41.402   9.382  12.499
32589W        W 5014   1.341  37.859  14.415
32590W        W 5015  24.594  38.588  11.558
32591W        W 5016  12.655   8.275  12.654
32592W        W 5017  38.896  29.701   1.721
32593W        W 5018  40.407  37.608  12.462
32594W        W 5019  20.626  38.884  14.889
32595W        W 5020  27.440  32.009   0.550
32596W        W 5021  20.425  38.085   3.626
32597W        W 5022  40.297   0.076   3.186
32598W        W 5023  17.555  38.979  12.374
32599W        W 5024  10.118  44.525   2.310
32600W        W 5025   7.493  15.198   1.596
32601W        W 5026  20.513  11.862  14.436
32602W        W 5027  27.487  26.335  11.766
32603W        W 5028  33.032  21.418   1.515
32604W        W 5029  14.326  32.367   4.017
32605W        W 5030  30.081  11.401   3.591
32606W        W 5031  31.127  25.031  13.571
32607W        W 5032  38.635  30.530   1.132
32608W        W 5033  13.378  10.734  14.332
32609W        W 5034  23.624  29.002   2.549
32610W        W 5035   7.604  19.143  14.008
32611W        W 5036  35.863  40.487  11.649
32612W        W 5037  14.409  29.532  10.614
32613W        W 5038  17.700   2.996  14.563
32614W        W 5039  44.450   0.038   0.970
32615W        W 5040  26.301  24.015   1.751
32616W        W 5041  16.197  44.895  10.646
32617W        W 5042  33.434  29.210   2.736
32618W        W 5043   0.385   9.119   0.331
32619W        W 5044  29.156  27.475  13.577
32620W        W 5045  42.674   0.879   0.714
32621W        W 5046  28.236  11.698  14.766
32622W        W 5047  44.089  25.959   4.275
32623W        W 5048  17.813   2.138  12.577
32624W        W 5049  33.553  16.324  12.891
32625W        W 5050  21.704  11.378  14.296
32626W        W 5051   5.803  21.547   0.958
32627W        W 5052  39.422  30.129  14.456
32628W        W 5053  41.889  26.507   0.856
32629W        W 5054  24.980  39.469   0.884
32630W        W 5055  14.263  21.772  14.937
32631W        W 5056  21.961  14.146   3.921
32632W        W 5057  24.520  21.272  13.527
32633W        W 5058  37.088   7.709   1.557
32634W        W 5059  36.545  17.232   2.272
32635W        W 5060  32.193   0.332   2.707
32636W        W 5061  39.303  18.343  13.344
32637W        W 5062  29.108  18.837   0.992
32638W        W 5063  17.201   7.157  10.596
32639W        W 5064  13.831  17.718  10.596
32640W        W 5065  43.955  33.515  13.623
32641W        W 5066  37.110  21.811   1.331
32642W        W 5067  38.797  14.787   0.395
32643W        W 5068  44.848  29.648  14.341
32644W        W 5069  30.093  25.137   3.022
32645W        W 5070  39.253  16.395   2.345
32646W        W 5071  32.905  28.668   2.352
32647W        W 5072  23.538  43.258  13.977
32648W        W 5073  40.758  36.404  13.857
32649W        W 5074  16.647   7.781   3.661
32650W        W 5075   1.058  32.394   4.579
32651W        W 5076  14.716   2.535   1.569
32652W        W 5077  14.148  35.335   4.213
32653W        W 5078  11.672   9.670   0.801
32654W        W 5079   7.384  29.313   3.340
32655W        W 5080  24.532   8.927   2.771
32656W        W 5081  21.297  40.437  12.528
32657W        W 5082  27.610  15.826  14.478
32658W        W 5083  42.970  42.175  11.948
32659W        W 5084  40.119  32.993  11.027
32660W        W 5085  37.358  37.083   0.551
32661W        W 5086  41.218  32.616  14.528
32662W        W 5087  12.369   9.885  14.708
32663W        W 5088   8.429  26.286  13.358
32664W        W 5089  27.891   8.357   1.373
32665W        W 5090  15.525  40.243  13.759
32666W        W 5091  43.900  23.129   3.248
32667W        W 5092  35.875  20.916   0.263
32668W        W 5093  15.702   0.920   3.664
32669W        W 5094  37.794   6.286   3.536
32670W        W 5095   8.353  42.291   2.730
32671W        W 5096  36.995  13.210   3.336
32672W        W 5097  41.218   4.363  12.352
32673W        W 5098  20.447  35.539  10.873
32674W        W 5099  17.377  39.026  10.999
32675W        W 5100  20.493   6.095  11.242
32676W        W 5101  14.127  44.234   0.499
32677W        W 5102  24.606   7.443   2.716
32678W        W 5103  39.316   7.423  10.674
32679W        W 5104  38.967  38.984  13.359
32680W        W 5105  19.468  25.152   3.739
32681W        W 5106  40.965   9.816  13.134
32682W        W 5107  42.825  28.053   2.398
32683W        W 5108  38.334  29.509  14.199
32684W        W 5109  13.213  41.533  12.988
32685W        W 5110  41.468  15.282  14.051
32686W        W 5111  25.250  29.542  12.855
32687W        W 5112   6.067  29.419   4.129
32688W        W 5113  27.340  27.112   0.271
32689W        W 5114  43.538  44.739   4.034
32690W        W 5115   8.747  41.615   2.190
32691W        W 5116   1.774  39.323  13.568
32692W        W 5117  28.006  25.149   5.143
32693W        W 5118  24.574  32.407  12.827
32694W        W 5119   9.198  28.006  12.613
32695W        W 5120  21.419  24.731   3.516
32696W        W 5121  25.884  30.606  14.360
32697W        W 5122  18.013  35.698  13.016
32698W        W 5123  33.616  19.229   4.125
32699W        W 5124  39.083  37.108  14.956
32700W        W 5125  26.428   3.534   4.697
32701W        W 5126   8.659   9.246  14.768
32702W        W 5127  37.957  17.773   1.258
32703W        W 5128  29.539  20.592  10.688
32704W        W 5129   4.770  17.040   0.869
32705W        W 5130  32.349  11.884  12.207
32706W        W 5131   9.329   6.178   1.644
32707W        W 5132  12.617  35.055   1.378
32708W        W 5133  19.312  42.500  12.123
32709W        W 5134  40.153  40.574   3.613
32710W        W 5135   7.761  18.289   0.532
32711W        W 5136   1.282  34.125  10.020
32712W        W 5137  43.585  31.629  11.501
32713W        W 5138  25.519   3.222  14.840
32714W        W 5139  14.444  17.404   3.661
32715W        W 5140  39.047  43.982   2.200
32716W        W 5141  15.582  42.304  13.028
32717W        W 5142  39.827  35.941   4.244
32718W        W 5143   3.833  42.488   3.111
32719W        W 5144  38.011   2.381   4.656
32720W        W 5145   8.470  38.972   3.672
32721W        W 5146   5.660  15.528  11.518
32722W        W 5147  13.344  15.509   2.713
32723W        W 5148  24.519  18.617  14.467
32724W        W 5149  12.736  18.099   2.234
32725W        W 5150  10.329  10.195  10.887
32726W        W 5151   2.810   5.808   2.951
32727W        W 5152  24.827  24.248  14.799
32728W        W 5153  23.429  33.131  12.391
32729W        W 5154  32.939   2.887  10.834
32730W        W 5155  32.996  36.925   3.650
32731W        W 5156   4.468  19.334   0.989
32732W        W 5157  23.068  26.805   3.045
32733W        W 5158  42.474   7.760   0.550
32734W        W 5159  41.290   6.832   4.354
32735W        W 5160   4.642  27.265   4.643
32736W        W 5161  25.008  22.896  13.278
32737W        W 5162  37.980  10.207   3.184
32738W        W 5163  12.810  18.711  11.605
32739W        W 5164  10.759  19.187   1.965
32740W        W 5165  18.582   3.836   3.572
32741W        W 5166  15.198  27.550   3.361
32742W        W 5167  31.415  11.912   1.846
32743W        W 5168  28.159   5.385   0.758
32744W        W 5169  40.834   0.947   0.273
32745W        W 5170  30.429  35.784   1.616
32746W        W 5171  38.263   8.096  12.939
32747W        W 5172   6.695   1.092  12.332
32748W        W 5173  27.983  30.420   0.241
32749W        W 5174   2.190   1.139  11.769
32750W        W 5175  10.417  42.940  12.421
32751W        W 5176  34.002  40.453   3.051
32752W        W 5177  24.785  40.018   4.103
32753W        W 5178  11.137  40.399  12.521
32754W        W 5179  30.035  35.140   2.331
32755W        W 5180  12.620  27.114  11.853
32756W        W 5181  13.650  16.869   2.840
32757W        W 5182   4.775  37.079  14.021
32758W        W 5183  20.676  33.456  13.442
32759W        W 5184  34.080   2.846   2.299
32760W        W 5185  24.768  31.380  12.423
32761W        W 5186  11.903  42.242  11.913
32762W        W 5187   6.905  40.460  13.265
32763W        W 5188  29.537  18.138  14.866
32764W        W 5189   1.896  30.398   2.350
32765W        W 5190   2.776  40.860  10.788
32766W        W 5191  25.899   3.938   1.152
32767W        W 5192  10.195  28.165   1.669
32768W        W 5193   9.999  15.073  12.029
32769W        W 5194  28.085  17.345  11.092
32770W        W 5195   1.911   5.334   0.922
32771W        W 5196  16.861   8.012   1.257
32772W        W 5197  29.614  22.560  12.100
32773W        W 5198   5.361  43.506   3.706
32774W        W 5199  39.511  23.929  12.778
32775W        W 5200  12.186  34.914  12.676
32776W        W 5201  31.158  34.833   2.753
32777W        W 5202  29.481  41.734  13.485
32778W        W 5203  41.941  38.016  14.353
32779W        W 5204   4.424  14.276  13.810
32780W        W 5205  34.589  36.503   1.810
32781W        W 5206  16.937  24.095   4.028
32782W        W 5207  23.514  29.669   3.313
32783W        W 5208  34.466  36.595   2.825
32784W        W 5209  20.077  24.188   4.159
32785W        W 5210   8.748  43.345  14.119
32786W        W 5211   5.912   6.642  13.840
32787W        W 5212  12.744  10.527   4.692
32788W        W 5213  41.409  13.086   4.486
32789W        W 5214   0.995  39.347   1.986
32790W        W 5215  12.741  30.610  10.888
32791W        W 5216  42.272  40.347   0.379
32792W        W 5217  38.766  32.871   4.150
32793W        W 5218  12.817  30.080  14.325
32794W        W 5219   5.109  16.178  11.919
32795W        W 5220  36.428  35.909   3.453
32796W        W 5221  14.606  27.249  13.749
32797W        W 5222  10.623  11.244   3.558
32798W        W 5223  43.260  22.699  13.454
32799W        W 5224  32.032  32.018  10.775
32800W        W 5225  28.610  32.921  13.325
32801W        W 5226  15.765  11.267   4.070
32802W        W 5227  32.609  32.567  12.443
32803W        W 5228  36.766  24.169   1.912
32804W        W 5229  15.825  21.994  13.453
32805W        W 5230  37.287  22.153   4.849
32806W        W 5231  13.158  10.375   1.254
32807W        W 5232  44.484  10.523  14.093
32808W        W 5233  39.513   0.828  10.948
32809W        W 5234  42.430  37.452   2.228
32810W        W 5235  17.283  13.620  13.929
32811W        W 5236   5.225  44.073  10.700
32812W        W 5237  28.166   2.740  10.813
32813W        W 5238  33.495  22.755  10.508
32814W        W 5239  31.982   5.572  14.944
32815W        W 5240  41.684  32.646  14.292
32816W        W 5241  13.875  12.859   4.233
32817W        W 5242  11.754  31.913   1.484
32818W        W 5243   5.200  42.224  11.989
32819W        W 5244  27.568  28.633  13.935
32820W        W 5245  16.511  21.337   3.606
32821W        W 5246   3.255  28.507   3.317
32822W        W 5247  44.428  12.563   0.460
32823W        W 5248  39.620  33.430  10.662
32824W        W 5249  31.646  25.679   0.802
32825W        W 5250  42.574  11.201   3.813
32826W        W 5251  27.647  42.527   2.679
32827W        W 5252  28.913   5.407   0.440
32828W        W 5253  19.107   7.296  13.045
32829W        W 5254   3.487   7.735   5.262
32830W        W 5255   7.690  13.214   1.495
32831W        W 5256  14.045  11.896  13.043
32832W        W 5257  44.032  18.581   2.700
32833W        W 5258  38.661  18.195   0.729
32834W        W 5259  36.770  35.983  13.377
32835W        W 5260  24.144  41.919  13.068
32836W        W 5261  22.737  37.379  12.103
32837W        W 5262  37.919  37.213  13.884
32838W        W 5263   9.770  10.412   3.794
32839W        W 5264  23.984  12.247   0.516
32840W        W 5265  37.315  10.838   2.954
32841W        W 5266  14.390  26.964   0.405
32842W        W 5267   2.371  19.873   0.984
32843W        W 5268  21.512  31.812  14.083
32844W        W 5269   5.356  20.965  14.255
32845W        W 5270  36.726  34.326   0.407
32846W        W 5271  14.596  39.388   3.179
32847W        W 5272  18.330  37.033   1.809
32848W        W 5273   1.914   2.656   2.272
32849W        W 5274  35.960  24.408  11.686
32850W        W 5275  34.156  13.828  13.885
32851W        W 5276  15.835  15.549   4.074
32852W        W 5277  20.796  26.577   1.814
32853W        W 5278   6.798   3.257  12.920
32854W        W 5279  28.684   6.307  10.046
32855W        W 5280  41.713  38.399   3.890
32856W        W 5281   1.699  12.147  12.647
32857W        W 5282  27.424  22.103   1.244
32858W        W 5283   4.261  36.027   1.502
32859W        W 5284  20.290  29.441  12.056
32860W        W 5285  18.268  44.757  10.669
32861W        W 5286   7.190  25.584  14.616
32862W        W 5287  41.171  14.482   1.683
32863W        W 5288  32.467   5.391  11.034
32864W        W 5289  27.191   8.707   3.697
32865W        W 5290   7.703  32.987   1.742
32866W        W 5291  38.244  17.077   3.678
32867W        W 5292  35.874   5.456  10.774
32868W        W 5293  38.924  15.777   9.558
32869W        W 5294   5.947   1.480   2.413
32870W        W 5295  44.482  20.517   3.252
32871W        W 5296  20.068   1.841  13.408
32872W        W 5297  39.074  14.228   3.972
32873W        W 5298  37.800  23.333  13.943
32874W        W 5299  35.437  36.870  12.685
32875W        W 5300  27.178  40.436   4.872
32876W        W 5301  36.076  40.270  14.981
32877W        W 5302  15.228  44.932  12.146
32878W        W 5303  14.800  29.068  13.434
32879W        W 5304   7.719  23.138  14.848
32880W        W 5305   8.900  10.976   3.847
32881W        W 5306   7.535  26.167  13.669
32882W        W 5307  34.352  26.293  13.006
32883W        W 5308  25.623  29.473  13.432
32884W        W 5309   2.865  27.039   2.586
32885W        W 5310  29.034   7.426   4.604
32886W        W 5311  36.089  17.308  12.039
32887W        W 5312  44.144  33.345  11.563
32888W        W 5313   9.301  14.058  14.401
32889W        W 5314  23.050  44.713   2.032
32890W        W 5315   5.441  41.337  11.947
32891W        W 5316   1.688  31.645  12.910
32892W        W 5317  13.933  34.126   2.879
32893W        W 5318   2.915  39.022   2.193
32894W        W 5319   6.781  24.526   2.785
32895W        W 5320  10.209   0.965  14.146
32896W        W 5321  23.995  39.727   3.752
32897W        W 5322  36.286   9.615   3.809
32898W        W 5323  30.000  41.964   3.908
32899W        W 5324   1.910  32.449   0.428
32900W        W 5325  36.966  42.225  11.498
32901W        W 5326  34.622  15.212   1.291
32902W        W 5327  41.961  28.790   4.981
32903W        W 5328   0.808  20.158   2.679
32904W        W 5329  18.610  18.540   3.656
32905W        W 5330  22.524  13.750   4.625
32906W        W 5331  11.697  27.002  13.511
32907W        W 5332   9.979  34.184  13.587
32908W        W 5333  17.781  32.813   9.863
32909W        W 5334  26.082  18.501  12.835
32910W        W 5335  26.061  25.357   3.566
32911W        W 5336  30.138  30.446   4.451
32912W        W 5337  10.089  26.058   3.113
32913W        W 5338  14.216  25.854  11.584
32914W        W 5339  30.991  39.831  12.938
32915W        W 5340   1.626   8.575  13.635
32916W        W 5341  10.123  28.623  14.895
32917W        W 5342  35.486  26.476   3.125
32918W        W 5343  38.557  34.395  12.043
32919W        W 5344  40.762   2.934  11.106
32920W        W 5345   2.533   3.280   0.581
32921W        W 5346  25.292  14.405   4.902
32922W        W 5347  34.862   0.371  10.226
32923W        W 5348  14.563   0.957  10.171
32924W        W 5349   3.182   9.952   2.447
32925W        W 5350   7.742   1.448  14.799
32926W        W 5351   9.383  16.601   1.073
32927W        W 5352   7.270   4.803  10.268
32928W        W 5353  18.037  17.185  10.474
32929W        W 5354  26.528  44.557   3.353
32930W        W 5355   1.955  38.594   0.230
32931W        W 5356  23.691  22.645   1.338
32932W        W 5357   6.665  33.848  13.457
32933W        W 5358   8.741  44.925  11.388
32934W        W 5359   0.944  37.865   2.387
32935W        W 5360  19.600   5.744  11.540
32936W        W 5361  32.877   2.176  14.420
32937W        W 5362  31.053  30.477   2.207
32938W        W 5363  39.590  39.853   4.588
32939W        W 5364  35.479  41.830  14.918
32940W        W 5365   3.204   5.707   3.817
32941W        W 5366  35.293   9.213  11.591
32942W        W 5367  36.070   8.616   4.150
32943W        W 5368   8.874  26.077  10.731
32944W        W 5369   0.164  37.395  14.790
32945W        W 5370  12.527  25.908  14.832
32946W        W 5371  42.739  39.425  14.938
32947W        W 5372  30.406  26.893  13.764
32948W        W 5373  17.134  18.095   2.933
32949W        W 5374  18.559  40.085   4.162
32950W        W 5375  30.721  22.602  12.909
32951W        W 5376   2.377  26.918  12.795
32952W        W 5377  16.801   9.113  10.635
32953W        W 5378  28.942  20.725   1.378
32954W        W 5379  28.647   1.984  13.200
32955W        W 5380  12.117  12.116   3.154
32956W        W 5381   4.781   7.792  14.012
32957W        W 5382  15.521  36.292  12.588
32958W        W 5383  10.452   5.207   1.176
32959W        W 5384  13.808  40.611  14.441
32960W        W 5385  28.500   0.582  11.868
32961W        W 5386  41.319   2.234  14.838
32962W        W 5387  11.040  19.761  14.076
32963W        W 5388  33.402  32.495  13.024
32964W        W 5389  35.392  10.313  11.444
32965W        W 5390  31.179  18.109   1.349
32966W        W 5391  28.460  16.743  12.962
32967W        W 5392  35.644  26.112   2.272
32968W        W 5393  36.540  12.798  14.908
32969W        W 5394  14.636   5.735   0.674
32970W        W 5395  25.578   3.442  11.117
32971W        W 5396  26.812  14.237   1.248
32972W        W 5397  35.133  17.498  11.141
32973W        W 5398  27.795  33.491   2.814
32974W        W 5399  10.802   1.236   3.707
32975W        W 5400  40.551  40.897   2.450
32976W        W 5401   3.286   1.143   0.225
32977W        W 5402   5.427  38.931  12.956
32978W        W 5403   3.215  44.745   2.380
32979W        W 5404  31.232  15.286  10.756
32980W        W 5405  36.216  32.933  13.303
32981W        W 5406  18.515  43.421  10.558
32982W        W 5407  10.884   7.904  12.268
32983W        W 5408  19.988  17.472  11.603
32984W        W 5409  39.372  35.908  14.830
32985W        W 5410   5.711  16.224   3.277
32986W        W 5411  13.853  32.501   4.837
32987W        W 5412  24.152   1.359  10.652
32988W        W 5413  12.290  32.665   0.013
32989W        W 5414  30.020  19.235   2.403
32990W        W 5415  11.863   6.235   1.393
32991W        W 5416  34.965  44.157   5.413
32992W        W 5417  23.982   2.313  14.421
32993W        W 5418  37.889  12.398  12.014
32994W        W 5419  34.482  34.493  12.924
32995W        W 5420  15.734  43.558  12.461
32996W        W 5421  38.261  34.851   3.696
32997W        W 5422  32.435  28.021   0.393
32998W        W 5423   5.335  34.337   2.253
32999W        W 5424   2.553  33.790   1.528
33000W        W 5425  13.598  43.284   3.882
33001W        W 5426  16.236   9.223  12.099
33002W        W 5427   6.839   7.323  14.717
33003W        W 5428  36.793  32.544  10.642
33004W        W 5429  33.915   8.998  10.997
33005W        W 5430  34.035  18.647   2.642
33006W        W 5431  40.945  10.024  12.446
33007W        W 5432  38.819  13.312   5.090
33008W        W 5433  14.809  32.716  11.616
33009W        W 5434  10.647  35.271   1.195
33010W        W 5435  12.234   2.774   4.180
33011W        W 5436  37.287  24.853   4.257
33012W        W 5437  25.272  12.951   1.719
33013W        W 5438  30.883  18.158   2.849
33014W        W 5439  41.865  11.560   1.459
33015W        W 5440  10.850  11.976   1.868
33016W        W 5441  24.960  33.868   0.463
33017W        W 5442  32.018  12.701   1.379
33018W        W 5443  19.113  16.315  11.105
33019W        W 5444  13.670  44.251   3.826
33020W        W 5445  31.369   1.364   4.922
33021W        W 5446  23.343   2.418   0.409
33022W        W 5447  15.196   5.191  14.344
33023W        W 5448   3.734  26.008   3.728
33024W        W 5449  29.449  44.805  12.755
33025W        W 5450  29.933  44.916  10.593
33026W        W 5451  30.542  31.996  12.408
33027W        W 5452  19.662  28.499   0.750
33028W        W 5453  25.267  28.254   2.447
33029W        W 5454   1.512  38.007   3.870
33030W        W 5455  26.128  42.665  11.477
33031W        W 5456  13.979   5.217   1.523
33032W        W 5457  40.930  41.057   1.135
33033W        W 5458  21.164  36.673   0.960
33034W        W 5459  26.066  18.138   2.142
33035W        W 5460   4.399  43.901  13.598
33036W        W 5461  20.726   2.404  13.934
33037W        W 5462  27.577  25.183   1.331
33038W        W 5463  37.254  14.838  14.997
33039W        W 5464  40.979   9.489   1.286
33040W        W 5465  25.554   9.565  10.608
33041W        W 5466  15.171  12.372   3.683
33042W        W 5467  29.517  27.166  13.815
33043W        W 5468  14.401  34.928   9.914
33044W        W 5469  21.919  23.131  11.991
33045W        W 5470   9.911   6.718  12.549
33046W        W 5471   0.631  16.509   2.651
33047W        W 5472  19.547   4.926   2.142
33048W        W 5473   4.800   0.523   0.387
33049W        W 5474  23.299  16.238   1.730
33050W        W 5475  34.460  12.301  13.528
33051W        W 5476  17.053  31.625  11.924
33052W        W 5477   1.479  32.407   0.717
33053W        W 5478   2.679  32.474   1.904
33054W        W 5479   0.820  32.178  12.835
33055W        W 5480  40.466  34.999  14.831
33056W        W 5481  38.357  14.883  10.806
33057W        W 5482  13.891  18.040  10.992
33058W        W 5483  41.753  16.189   0.314
33059W        W 5484  40.507  18.287   1.804
33060W        W 5485   3.726  40.228  11.994
33061W        W 5486  19.023   8.170  10.638
33062W        W 5487  14.582  28.556   2.846
33063W        W 5488   0.977  36.891   1.166
33064W        W 5489  27.422  42.132  13.797
33065W        W 5490  42.204  31.518  10.679
33066W        W 5491   4.019  28.741  13.795
33067W        W 5492  11.314  29.225   4.501
33068W        W 5493  35.133   9.121  13.048
33069W        W 5494  32.986  31.669   1.552
33070W        W 5495  15.301   0.995  14.523
33071W        W 5496   7.535  35.954  14.864
33072W        W 5497  31.412  31.567   2.750
33073W        W 5498   4.337  25.663   0.389
33074W        W 5499  40.526  23.269  12.450
33075W        W 5500  25.206  17.160   0.333
33076W        W 5501  42.342  12.368   2.778
33077W        W 5502  23.702  33.247  11.039
33078W        W 5503   8.623  36.963   2.648
33079W        W 5504   1.443  31.894   0.890
33080W        W 5505  21.327  10.437   0.879
33081W        W 5506   6.277  25.950  13.777
33082W        W 5507  12.091  41.988  11.518
33083W        W 5508  38.824  18.571  11.587
33084W        W 5509  29.948  11.294  10.763
33085W        W 5510  20.657  10.950  11.359
33086W        W 5511  17.882  21.190  10.653
33087W        W 5512   7.682  41.814   2.586
33088W        W 5513  13.017  39.944  13.464
33089W        W 5514  10.771  26.860  10.997
33090W        W 5515   0.876  40.816   0.851
33091W        W 5516  35.826  16.633  14.040
33092W        W 5517  33.023  28.652   1.355
33093W        W 5518   0.922  26.623  11.540
33094W        W 5519   6.716  36.965  11.704
33095W        W 5520   1.504  38.857   4.543
33096W        W 5521  43.907  35.790   0.734
33097W        W 5522  37.755   5.743   3.745
33098W        W 5523   6.227   4.809   2.424
33099W        W 5524  11.243  18.260   0.663
33100W        W 5525   6.803  32.140  11.922
33101W        W 5526  31.377  19.569  13.784
33102W        W 5527  37.473  28.166  12.377
33103W        W 5528  23.199  28.704  13.404
33104W        W 5529  36.834  29.200  13.001
33105W        W 5530   9.439   8.232  14.251
33106W        W 5531  42.613  44.509  14.619
33107W        W 5532  30.597   7.264  12.843
33108W        W 5533  40.795  43.161   4.062
33109W        W 5534  29.228  21.537  12.855
33110W        W 5535  30.366   2.598   1.504
33111W        W 5536   3.463  30.840  13.103
33112W        W 5537  32.449  17.154   1.951
33113W        W 5538  36.060  16.217  13.790
33114W        W 5539   1.185  12.276   3.149
33115W        W 5540  39.837  29.924  10.771
33116W        W 5541   9.933  34.919   0.909
33117W        W 5542  39.352   9.665   4.805
33118W        W 5543  20.954  13.074   3.861
33119W        W 5544  16.235  11.371  13.419
33120W        W 5545  33.429   5.839   1.008
33121W        W 5546  31.186  22.379  10.837
33122W        W 5547  17.864  37.744   4.100
33123W        W 5548  14.262  33.888  11.619
33124W        W 5549  35.413  40.932   4.714
33125W        W 5550  12.804   3.437   4.317
33126W        W 5551  12.569  18.170   4.124
33127W        W 5552   1.713  33.011   2.406
33128W        W 5553  17.329  43.009  12.980
33129W        W 5554   6.677  18.109   2.727
33130W        W 5555  39.631  33.076  11.914
33131W        W 5556  31.436  30.098  11.619
33132W        W 5557  34.597  19.738   1.463
33133W        W 5558   4.229  31.764  13.128
33134W        W 5559  39.148  19.517   3.232
33135W        W 5560   0.713  44.820  12.455
33136W        W 5561   9.819  17.259   3.339
33137W        W 5562  13.863  13.441  13.453
33138W        W 5563  31.914  35.979   3.752
33139W        W 5564  23.538  41.329   1.871
33140W        W 5565  16.783  34.579  13.833
33141W        W 5566  29.109   6.738  12.469
33142W        W 5567  31.897  15.111  13.900
33143W        W 5568  21.190  24.719   0.366
33144W        W 5569  35.068  13.685   0.646
33145W        W 5570  21.540  36.620   1.334
33146W        W 5571  20.973   8.488  13.463
33147W        W 5572  31.479  35.376  14.803
33148W        W 5573  30.006  24.217   3.280
33149W        W 5574  17.140   9.995  12.700
33150W        W 5575  12.154  26.495  13.965
33151W        W 5576  12.554  16.598  13.521
33152W        W 5577  33.787  28.387   3.666
33153W        W 5578  28.208  43.075   4.175
33154W        W 5579  27.527  44.551  14.580
33155W        W 5580   0.730  21.186   2.815
33156W        W 5581   7.003  34.922   0.809
33157W        W 5582  23.644  29.717  12.053
33158W        W 5583  30.158  33.680  14.391
33159W        W 5584  29.400  40.557  10.762
33160W        W 5585  14.024  21.039   0.083
33161W        W 5586  10.259  11.695   2.181
33162W        W 5587   2.333  21.610   0.496
33163W        W 5588  20.758   8.273  10.803
33164W        W 5589  22.291  28.227  12.458
33165W        W 5590   5.668  41.510  11.548
33166W        W 5591  35.609  44.594  13.405
33167W        W 5592  33.007  30.130  14.806
33168W        W 5593   2.236  15.999  12.105
33169W        W 5594  10.899   5.592  13.411
33170W        W 5595  41.829  14.327  12.219
33171W        W 5596  44.421  29.336   4.545
33172W        W 5597  18.462  15.393   4.507
33173W        W 5598  15.222  24.977  12.080
33174W        W 5599  32.700  23.622   1.180
33175W        W 5600  14.639   4.821  13.331
33176W        W 5601  41.497  37.800  14.514
33177W        W 5602  13.904   2.070  11.663
33178W        W 5603  44.614  27.076  11.451
33179W        W 5604  40.567  12.426  13.478
33180W        W 5605  20.678  33.346   1.764
33181W        W 5606  38.379  15.079   4.607
33182W        W 5607  16.859  26.223   3.849
33183W        W 5608  21.913   6.652  11.131
33184W        W 5609   0.703   5.615  14.993
33185W        W 5610  42.403  25.963   1.018
33186W        W 5611   8.733   2.257   1.289
33187W        W 5612  41.361  41.954   0.843
33188W        W 5613  15.734  36.061   2.115
33189W        W 5614   6.661  39.264   3.084
33190W        W 5615  15.283  15.224   2.256
33191W        W 5616  28.125  36.528   1.148
33192W        W 5617  11.491   8.284   3.355
33193W        W 5618  39.021  34.035  13.814
33194W        W 5619  22.249  19.114   2.635
33195W        W 5620  22.549  21.480  10.489
33196W        W 5621  37.723  16.535  11.141
33197W        W 5622  22.265  44.865  12.965
33198W        W 5623   8.768  28.101  12.366
33199W        W 5624  22.237  22.161  14.465
33200W        W 5625  14.919  29.643  10.756
33201W        W 5626  24.633  35.024   4.425
33202W        W 5627   5.977  23.360  10.763
33203W        W 5628   2.316   7.849  14.948
33204W        W 5629  13.239  21.186   4.385
33205W        W 5630   5.876  26.114  11.048
33206W        W 5631   1.718   9.814   2.414
33207W        W 5632  35.708   6.407   3.902
33208W        W 5633  32.151   5.846   1.980
33209W        W 5634  28.533  19.903  12.386
33210W        W 5635  11.862  14.333  14.435
33211W        W 5636  15.516   6.867   3.168
33212W        W 5637  18.128   2.222   2.631
33213W        W 5638   1.171  30.175   0.454
33214W        W 5639   0.573  20.044   4.109
33215W        W 5640  44.867  22.062  10.971
33216W        W 5641  41.635  28.524  14.879
33217W        W 5642  25.033   7.941   4.195
33218W        W 5643   6.467   5.266   2.383
33219W        W 5644  11.340   1.530  13.902
33220W        W 5645   0.372  28.061  14.810
33221W        W 5646  43.340  32.498   1.061
33222W        W 5647  26.123  11.243   2.234
33223W        W 5648  27.528  37.559  12.568
33224W        W 5649   4.417  43.502  13.927
33225W        W 5650  21.267  27.987   3.685
33226W        W 5651  14.656  17.784   4.609
33227W        W 5652  27.255   7.669  13.603
33228W        W 5653   3.842  43.979   1.767
33229W        W 5654  36.175  24.287   1.500
33230W        W 5655  12.390   3.719   5.076
33231W        W 5656  37.584  18.573   1.381
33232W        W 5657  38.461  20.994   4.247
33233W        W 5658  18.064  34.204  12.059
33234W        W 5659  16.143  30.400  12.048
33235W        W 5660  39.305  11.380  13.959
33236W        W 5661  10.368  14.476   1.325
33237W        W 5662   2.455   0.752   3.212
33238W        W 5663  20.253   5.113   1.912
33239W        W 5664  18.653  31.612   2.966
33240W        W 5665   7.498  12.902   2.580
33241W        W 5666  13.731  37.934   2.735
33242W        W 5667  22.021  25.080  10.968
33243W        W 5668  17.185  33.486  14.874
33244W        W 5669   9.831  16.750   0.049
33245W        W 5670   0.502  26.615  14.872
33246W        W 5671  24.950  35.425  10.590
33247W        W 5672   6.867  18.549   0.065
33248W        W 5673  17.223   0.445  13.361
33249W        W 5674  10.311   0.833   1.026
33250W        W 5675  32.610  21.716  11.957
33251W        W 5676   8.862   3.747   0.883
33252W        W 5677  24.678  15.766   0.186
33253W        W 5678  18.629  35.375   2.253
33254W        W 5679   6.212  44.430  13.951
33255W        W 5680  31.666  16.066   1.341
33256W        W 5681   8.408   6.748   4.558
33257W        W 5682  40.067  18.353  11.998
33258W        W 5683  24.591  29.741   3.185
33259W        W 5684  21.281  38.953   2.750
33260W        W 5685  40.470  10.020  14.434
33261W        W 5686  12.756  40.793   0.970
33262W        W 5687   2.003  42.065   3.344
33263W        W 5688  28.539  28.096  13.120
33264W        W 5689  27.509   2.868   1.907
33265W        W 5690   7.928  11.260  11.887
33266W        W 5691  38.510   4.430  13.945
33267W        W 5692   6.140   2.739   1.692
33268W        W 5693  33.900  27.503  13.727
33269W        W 5694  32.690  43.384   4.842
33270W        W 5695  42.945  17.005  11.650
33271W        W 5696  13.091  24.173  14.778
33272W        W 5697  21.061   5.651  13.950
33273W        W 5698  37.559  12.803  11.155
33274W        W 5699  23.175  39.362   0.164
33275W        W 5700  32.047   2.122   4.299
33276W        W 5701  15.978  30.090   0.691
33277W        W 5702  14.081   1.462   5.103
33278W        W 5703   7.174   0.301   1.291
33279W        W 5704  10.577  22.348   3.273
33280W        W 5705  17.766  21.626  11.062
33281W        W 5706   8.948  22.298  11.902
33282W        W 5707  23.899  27.289  12.991
33283W        W 5708  12.821   1.437   0.476
33284W        W 5709  16.676  17.276  10.479
33285W        W 5710  24.163  30.028   2.304
33286W        W 5711  41.862  10.710   3.643
33287W        W 5712  38.513  39.497  12.895
33288W        W 5713   7.668   4.522  11.887
33289W        W 5714  34.116  28.195   2.359
33290W        W 5715  10.898  37.626   1.742
33291W        W 5716  13.131  31.667  14.338
33292W        W 5717   7.172  41.418  13.456
33293W        W 5718  29.431  38.300  11.142
33294W        W 5719  16.384  41.425   0.871
33295W        W 5720  29.018  42.977  14.314
33296W        W 5721  29.261  23.500   1.805
33297W        W 5722  26.065   9.284   2.899
33298W        W 5723  14.693  17.216   0.417
33299W        W 5724  43.939  24.760  13.046
33300W        W 5725   1.469  15.138  13.728
33301W        W 5726   0.428  11.838   2.675
33302W        W 5727  27.254  22.444  12.283
33303W        W 5728  16.833   1.358   3.245
33304W        W 5729  25.035  27.494   0.920
33305W        W 5730  28.752  36.192  13.491
33306W        W 5731  10.362  40.470   0.288
33307W        W 5732   2.391  43.038  13.462
33308W        W 5733  44.047  42.472   2.783
33309W        W 5734  27.841  14.189   1.255
33310W        W 5735  39.824   5.732   4.233
33311W        W 5736  43.041  41.477   1.854
33312W        W 5737  44.705   7.999   0.038
33313W        W 5738  16.040  29.647   2.492
33314W        W 5739  18.016  12.771  12.071
33315W        W 5740   1.666  40.796  14.778
33316W        W 5741  30.686   8.669   0.442
33317W        W 5742   5.510  23.631  14.185
33318W        W 5743   2.832  19.766  13.794
33319W        W 5744   3.533  28.663  13.920
33320W        W 5745  21.970  25.168   3.698
33321W        W 5746  10.755  18.851  13.322
33322W        W 5747  17.751  10.453   4.425
33323W        W 5748  14.308  44.206   3.237
33324W        W 5749   7.273  38.220  11.039
33325W        W 5750   3.253   8.317   2.183
33326W        W 5751  17.193   2.040   1.473
33327W        W 5752  41.245  33.329  13.930
33328W        W 5753  21.598  39.028  12.590
33329W        W 5754  35.609  40.912  11.488
33330W        W 5755  44.527  38.077  14.750
33331W        W 5756  30.707  17.495  13.451
33332W        W 5757  23.480  30.699   2.566
33333W        W 5758   1.342  36.504  11.712
33334W        W 5759  38.913   4.440   3.209
33335W        W 5760  24.216  36.432  13.089
33336W        W 5761  30.675  24.031   0.881
33337W        W 5762   0.238   2.626   4.846
33338W        W 5763  18.714  23.553  13.022
33339W        W 5764  32.382  12.200  14.344
33340W        W 5765  26.560   1.814   2.704
33341W        W 5766  35.621  37.595  14.898
33342W        W 5767  32.604  16.806   1.262
33343W        W 5768   3.287  14.733  11.920
33344W        W 5769  13.723   2.681  13.004
33345W        W 5770  35.569  10.614  11.017
33346W        W 5771  44.266  28.435  13.759
33347W        W 5772   3.797  24.566   4.555
33348W        W 5773  17.858  35.960  13.446
33349W        W 5774  19.281  14.533  12.179
33350W        W 5775  12.844   1.642   1.262
33351W        W 5776  35.297  15.116  12.188
33352W        W 5777  38.544   0.845   4.090
33353W        W 5778  30.744  13.400  13.567
33354W        W 5779  25.584  35.509   0.349
33355W        W 5780  31.527  30.394   3.749
33356W        W 5781  19.960  36.425  11.614
33357W        W 5782  25.524  43.868  13.031
33358W        W 5783  13.297  12.280  11.971
33359W        W 5784  31.154  17.034  14.559
33360W        W 5785  31.695  10.732  11.673
33361W        W 5786   2.938   3.834   4.529
33362W        W 5787   7.473  42.553  12.887
33363W        W 5788  25.694  23.654  13.843
33364W        W 5789  30.205  40.376   0.168
33365W        W 5790   4.732   9.748  13.469
33366W        W 5791  29.222  44.810  11.081
33367W        W 5792  43.915   7.636   3.896
33368W        W 5793  26.264  16.299   1.748
33369W        W 5794  41.353  38.585   4.258
33370W        W 5795  33.941  37.356  13.833
33371W        W 5796  37.414  14.333  10.695
33372W        W 5797  25.522  44.539  11.584
33373W        W 5798  31.392  28.839  11.294
33374W        W 5799   5.570   5.386  14.337
33375W        W 5800   4.940   7.421  11.864
33376W        W 5801   5.982  39.331   4.579
33377W        W 5802  13.834  32.635   0.077
33378W        W 5803  18.602  40.747  12.571
33379W        W 5804  38.657  12.579  11.129
33380W        W 5805  21.118  39.922   4.299
33381W        W 5806   6.339  30.166  13.855
33382W        W 5807  26.998  11.731  12.627
33383W        W 5808  23.721  20.695  14.314
33384W        W 5809  40.584  11.182   0.585
33385W        W 5810  38.439  39.444   4.079
33386W        W 5811  20.254  19.548  12.244
33387W        W 5812  36.935  35.818   3.506
33388W        W 5813   0.829   0.853   1.750
33389W        W 5814  31.202   2.237  12.356
33390W        W 5815  24.282  10.334  11.139
33391W        W 5816  34.545   8.198  11.139
33392W        W 5817  30.196   8.931  11.072
33393W        W 5818  28.577   2.953  12.164
33394W        W 5819  12.270   5.169  11.075
33395W        W 5820  17.879   0.181  11.481
33396W        W 5821  24.472  25.084   2.336
33397W        W 5822  39.898  41.900   4.330
33398W        W 5823  21.704   2.505  11.366
33399W        W 5824  18.267  36.899   2.734
33400W        W 5825  36.965  28.670  13.000
33401W        W 5826  41.922  44.096   1.251
33402W        W 5827  20.550  41.705  12.909
33403W        W 5828  37.846   3.194  11.858
33404W        W 5829  11.270  27.607   2.910
33405W        W 5830  27.346  12.684   3.109
33406W        W 5831  14.033   4.743  12.026
33407W        W 5832   8.962   3.454  13.904
33408W        W 5833  26.129  43.970  14.426
33409W        W 5834   5.922  44.167  10.981
33410W        W 5835  39.088  19.810  11.226
33411W        W 5836   7.791  38.535  13.394
33412W        W 5837  30.439  25.666  10.781
33413W        W 5838   8.264   5.220   2.764
33414W        W 5839  12.768  12.895  11.696
33415W        W 5840  30.453  22.068   4.618
33416W        W 5841  32.089  26.620   1.931
33417W        W 5842  28.458  24.920   3.384
33418W        W 5843  12.918  42.593  12.696
33419W        W 5844  23.223   1.275  12.626
33420W        W 5845   7.344   5.255   1.351
33421W        W 5846   9.730  20.709   4.606
33422W        W 5847  37.251  24.202   3.274
33423W        W 5848  11.164  28.063  13.049
33424W        W 5849  13.118  15.056   2.876
33425W        W 5850  14.795  37.543   2.642
33426W        W 5851  44.721   5.429  11.134
33427W        W 5852   1.009  32.171   3.299
33428W        W 5853  33.545  33.924  12.872
33429W        W 5854  22.251  37.566  14.938
33430W        W 5855  38.541   0.906  13.896
33431W        W 5856  39.661   1.402   3.110
33432W        W 5857  21.031  40.138   3.705
33433W        W 5858   4.801  31.323   0.954
33434W        W 5859  33.070  10.243   2.710
33435W        W 5860  23.300  26.150   0.419
33436W        W 5861  34.489  14.158   2.100
33437W        W 5862  33.830  26.917   3.779
33438W        W 5863  15.093  25.721   2.415
33439W        W 5864  16.357  35.091  12.592
33440W        W 5865  10.676  13.301  12.044
33441W        W 5866   4.729   6.454   4.063
33442W        W 5867   4.015  22.586  13.483
33443W        W 5868  43.263   4.724   2.610
33444W        W 5869   4.011   0.724   1.001
33445W        W 5870   0.070  42.746  13.568
33446W        W 5871  12.753  27.490   1.249
33447W        W 5872  19.766  28.078   3.555
33448W        W 5873  39.077  13.196  12.822
33449W        W 5874  12.995  23.727   0.938
33450W        W 5875  17.192  12.440  10.883
33451W        W 5876  30.454  32.348  14.551
33452W        W 5877  27.429  42.360  12.785
33453W        W 5878  20.946  36.823   4.089
33454W        W 5879   7.786  39.016   1.919
33455W        W 5880  26.116  16.322   4.088
33456W        W 5881  39.211  20.684   2.955
33457W        W 5882  15.774  11.611   3.627
33458W        W 5883  27.464  23.313   2.092
33459W        W 5884   2.935  30.586  13.288
33460W        W 5885  39.468  18.408   0.592
33461W        W 5886  16.255  39.638   0.118
33462W        W 5887  34.301   4.310  11.460
33463W        W 5888  37.443  11.281  13.789
33464W        W 5889  23.500  37.480   4.697
33465W        W 5890  23.977  29.061   0.304
33466W        W 5891  23.144  37.021   0.962
33467W        W 5892   5.822   6.906  14.333
33468W        W 5893  27.525   9.783  13.298
33469W        W 5894  33.173   5.253  11.545
33470W        W 5895  41.614  41.583  11.481
33471W        W 5896  30.656  18.215   1.169
33472W        W 5897  22.715  21.828   0.678
33473W        W 5898  12.183   6.916  13.897
33474W        W 5899  26.593  19.676   1.517
33475W        W 5900   3.719  13.709  14.372
33476W        W 5901  15.663   1.722  11.480
33477W        W 5902  16.618   4.096   2.589
33478W        W 5903  23.810  30.698  12.981
33479W        W 5904   5.604   4.417   2.287
33480W        W 5905  35.833  41.193  13.171
33481W        W 5906   2.554  10.922   1.307
33482W        W 5907  43.836  30.861  11.154
33483W        W 5908  12.428  26.031  13.478
33484W        W 5909  31.509  18.875   4.498
33485W        W 5910  29.676  36.096   4.110
33486W        W 5911   8.398  44.422  13.440
33487W        W 5912   2.456  25.207  14.800
33488W        W 5913  12.408  42.300  12.014
33489W        W 5914  28.526  22.798  12.896
33490W        W 5915  11.244  22.291  13.470
33491W        W 5916  41.710  35.164   0.179
33492W        W 5917  19.307  36.530   1.279
33493W        W 5918  30.586  31.934   1.358
33494W        W 5919  25.931   7.548  14.932
33495W        W 5920   8.425  17.284  11.187
33496W        W 5921  14.126  30.806  11.081
33497W        W 5922   9.182  25.969  12.906
33498W        W 5923  23.054  34.451  10.595
33499W        W 5924  28.039  23.509   1.498
33500W        W 5925  17.661  26.652   2.019
33501W        W 5926  14.037  10.307   2.293
33502W        W 5927   4.994  24.170  14.777
33503W        W 5928  32.140  24.487   2.262
33504W        W 5929   7.626   7.944   3.690
33505W        W 5930  25.903  43.973   4.534
33506W        W 5931  36.149  31.309  11.558
33507W        W 5932  15.120  38.765  11.455
33508W        W 5933  34.056  31.845   0.525
33509W        W 5934   6.051   7.768   0.250
33510W        W 5935  16.802  37.377   1.155
33511W        W 5936  23.719  26.932  11.121
33512W        W 5937   4.386  34.019   3.752
33513W        W 5938  33.508   2.852  14.288
33514W        W 5939   1.788  37.701  11.116
33515W        W 5940  33.107  34.506   4.659
33516W        W 5941  42.243  17.764   3.170
33517W        W 5942  33.177  27.440  11.624
33518W        W 5943  41.254   9.489   0.851
33519W        W 5944  16.132  34.295   0.276
33520W        W 5945  37.282  10.804   3.514
33521W        W 5946  11.001  24.089   0.826
33522W        W 5947  19.650  15.753   3.132
33523W        W 5948  43.223  21.031  12.909
33524W        W 5949  23.211  19.320   2.590
33525W        W 5950  31.619  12.889  13.626
33526W        W 5951  25.077   8.432  12.959
33527W        W 5952  13.585  20.170  14.858
33528W        W 5953  15.614  12.900  14.793
33529W        W 5954   5.167  33.025  12.515
33530W        W 5955  36.424  43.995   4.649
33531W        W 5956  25.569  25.209   2.843
33532W        W 5957  41.701  22.633  14.986
33533W        W 5958   2.920  30.840  11.986
33534W        W 5959  35.548  24.091  10.483
33535W        W 5960   0.489   0.691  12.540
33536W        W 5961  15.059   7.782  14.246
33537W        W 5962  43.960   2.713  11.497
33538W        W 5963  11.431  39.451  11.159
33539W        W 5964  26.018   3.042  12.959
33540W        W 5965  14.289   3.686  14.533
33541W        W 5966  42.916   5.692  12.934
33542W        W 5967  12.283  28.274   1.446
33543W        W 5968  42.865  16.634  14.400
33544W        W 5969  32.166  19.564   2.309
33545W        W 5970   7.318   3.540   0.544
33546W        W 5971  10.201  38.580  14.772
33547W        W 5972   5.806  10.472   4.879
33548W        W 5973   0.742  44.043  11.192
33549W        W 5974  30.259  13.604   2.858
33550W        W 5975  14.043  38.434   3.586
33551W        W 5976  28.237  42.765  13.771
33552W        W 5977  20.491  16.864  12.975
33553W        W 5978   1.354  36.678  11.222
33554W        W 5979  31.620  24.547  11.393
33555W        W 5980   0.321  37.962   1.227
33556W        W 5981  44.416  36.448  13.462
33557W        W 5982  10.208   6.529  14.074
33558W        W 5983  24.617  37.189   0.698
33559W        W 5984  14.660  42.716  11.227
33560W        W 5985  19.723  40.333   0.949
33561W        W 5986  24.158  21.577  12.605
33562W        W 5987   2.486  22.502   2.927
33563W        W 5988  36.656   0.231   2.493
33564W        W 5989   6.525  36.638   4.844
33565W        W 5990  32.475   8.630  12.765
33566W        W 5991   8.466  38.586  12.111
33567W        W 5992   0.902   6.273  12.398
33568W        W 5993  16.614   3.150   0.693
33569W        W 5994  24.432  31.478  13.275
33570W        W 5995  40.604  21.571  12.503
33571W        W 5996   5.863  29.029  11.142
33572W        W 5997  37.310  25.750  11.788
33573W        W 5998  19.827  17.528  11.104
33574W        W 5999  12.083  41.507   1.750
33575W        W 6000  22.329  34.033   0.042
33576W        W 6001  34.724  40.480   3.789
33577W        W 6002  44.748  27.624   0.405
33578W        W 6003  37.489   7.822   1.265
33579W        W 6004  40.800   3.745  13.488
33580W        W 6005  31.422  30.112  14.365
33581W        W 6006  33.377  41.544  13.528
33582W        W 6007  13.767  30.163  11.599
33583W        W 6008   1.327   5.248  12.494
33584W        W 6009  26.732  20.214   5.088
33585W        W 6010  18.877  15.908  10.451
33586W        W 6011  19.419  30.591  11.466
33587W        W 6012  18.972   1.847  14.054
33588W        W 6013  41.956  44.286   1.756
33589W        W 6014  19.100   4.416   1.195
33590W        W 6015  29.414   0.518   1.838
33591W        W 6016  26.250  16.142  12.377
33592W        W 6017  22.176  41.756  11.125
33593W        W 6018  35.927  27.774  14.448
33594W        W 6019   8.801  31.624  14.315
33595W        W 6020  38.105  15.264  14.896
33596W        W 6021  34.698   3.875   1.351
33597W        W 6022  23.273  27.252  10.994
33598W        W 6023  27.509   7.501  10.558
33599W        W 6024  34.059  37.128  14.494
33600W        W 6025  32.490  44.344  11.924
33601W        W 6026  36.808  33.698   0.413
33602W        W 6027   7.638  32.246  13.406
33603W        W 6028  18.096  41.556  10.662
33604W        W 6029  29.697  29.583  11.127
33605W        W 6030  40.396   0.338   3.648
33606W        W 6031  43.567  11.745  14.906
33607W        W 6032  31.185   5.728  14.420
33608W        W 6033   4.440  11.357   1.433
33609W        W 6034  43.823  19.833   4.021
33610W        W 6035   1.714  37.410  13.850
33611W        W 6036  22.254  19.217   1.681
33612W        W 6037  17.095  32.058   5.089
33613W        W 6038  25.197  19.530  13.853
33614W        W 6039  43.461  40.570  14.565
33615W        W 6040  40.274   2.974   4.158
33616W        W 6041  43.403   8.712   3.258
33617W        W 6042  26.409   0.222  13.036
33618W        W 6043   9.245  31.034   1.452
33619W        W 6044  44.361   2.333  11.530
33620W        W 6045   0.726  31.097   1.473
33621W        W 6046  28.867   1.964  14.994
33622W        W 6047  25.502  40.502  13.254
33623W        W 6048  29.961   6.848   2.629
33624W        W 6049  38.187  33.586   0.803
33625W        W 6050  31.601  20.567   4.588
33626W        W 6051  43.308  39.946   4.791
33627W        W 6052  28.974  42.752  13.837
33628W        W 6053  20.714  27.453   4.910
33629W        W 6054  25.089  30.609  13.757
33630W        W 6055   3.265  27.558   3.359
33631W        W 6056  32.972  22.599  12.429
33632W        W 6057  26.800  13.496   1.640
33633W        W 6058  22.786  24.672   3.884
33634W        W 6059  34.595  22.926   0.799
33635W        W 6060  13.626  22.551   4.140
33636W        W 6061  15.060  25.956   4.666
33637W        W 6062   1.815  21.119  13.084
33638W        W 6063  34.913  26.565  12.413
33639W        W 6064  11.432  26.988  11.650
33640W        W 6065  43.518  39.221   4.054
33641W        W 6066   8.981   2.299  13.593
33642W        W 6067  42.775  13.392  11.121
33643W        W 6068   7.618  19.725   4.629
33644W        W 6069  28.619  21.917  12.592
33645W        W 6070  44.385  11.738   3.353
33646W        W 6071  17.166  32.557  13.778
33647W        W 6072  23.568  14.301  14.798
33648W        W 6073   1.081  18.232  11.159
33649W        W 6074  28.012  14.420  13.867
33650W        W 6075  18.734  39.765   3.788
33651W        W 6076  43.565  25.205   4.072
33652W        W 6077  15.534  33.997   4.629
33653W        W 6078  42.555  30.060   1.078
33654W        W 6079  30.996  22.091  14.916
33655W        W 6080  22.091  42.244   2.693
33656W        W 6081  38.075  32.697  12.943
33657W        W 6082   5.491   3.090   0.342
33658W        W 6083  25.825  40.914  11.680
33659W        W 6084   8.752  32.117   0.222
33660W        W 6085   5.059   1.459  13.907
33661W        W 6086  18.811  19.689   0.405
33662W        W 6087  29.447  23.788   2.203
33663W        W 6088  15.190  14.346  11.593
33664W        W 6089   3.822   6.466   3.884
33665W        W 6090  10.897  29.977   2.814
33666W        W 6091  20.993  25.596   2.365
33667W        W 6092  40.798  35.712  13.465
33668W        W 6093   1.534  25.993  12.604
33669W        W 6094  24.002  44.264   1.394
33670W        W 6095  35.900   8.437  12.821
33671W        W 6096  30.004  26.157  12.032
33672W        W 6097  31.295  19.637   4.086
33673W        W 6098   9.860  16.069  12.130
33674W        W 6099   0.454  14.694  11.833
33675W        W 6100  30.154  33.049  14.827
33676W        W 6101  19.756  13.546  13.063
33677W        W 6102   7.692  28.479  10.690
33678W        W 6103  39.523  42.929  14.715
33679W        W 6104   8.765  36.552   3.607
33680W        W 6105  31.290  38.613   3.393
33681W        W 6106  27.188   4.845   1.398
33682W        W 6107  33.569  42.733   3.263
33683W        W 6108  25.210   1.690  10.623
33684W        W 6109   4.496  33.167  11.203
33685W        W 6110   0.555  24.979  12.454
33686W        W 6111  19.581   4.724   3.194
33687W        W 6112  36.298  43.832   2.796
33688W        W 6113   1.805  42.232   1.362
33689W        W 6114  30.494  15.161  14.297
33690W        W 6115  30.938  41.042  12.529
33691W        W 6116  19.559  10.853   4.144
33692W        W 6117   9.231  39.857   1.895
33693W        W 6118  17.616   4.538   4.767
33694W        W 6119  26.688  31.799  11.254
33695W        W 6120  40.170  41.966   1.800
33696W        W 6121  39.741  26.223  10.624
33697W        W 6122   6.868  27.897   1.386
33698W        W 6123  20.902  26.632   1.255
33699W        W 6124  40.064   7.648   2.796
33700W        W 6125  15.834  25.066   0.271
33701W        W 6126  24.092  17.841   0.681
33702W        W 6127   0.914  31.717  14.983
33703W        W 6128   3.227  24.446   0.336
33704W        W 6129   6.797  24.435   0.932
33705W        W 6130   4.951  36.540   1.716
33706W        W 6131  23.993  20.657   1.908
33707W        W 6132  42.654   9.249   4.865
33708W        W 6133  21.492  20.659  10.598
33709W        W 6134  25.559   0.408   4.814
33710W        W 6135  30.093  43.452   1.345
33711W        W 6136  39.805  32.229   1.954
33712W        W 6137  12.310  29.113   2.223
33713W        W 6138   7.416   1.357  12.529
33714W        W 6139  31.929  42.704   3.210
33715W        W 6140   1.223   3.302  12.915
33716W        W 6141   9.635  28.903  14.384
33717W        W 6142  15.258  20.002   3.995
33718W        W 6143  23.648  43.461  13.500
33719W        W 6144   8.307  26.550   2.873
33720W        W 6145  12.974  33.518  14.386
33721W        W 6146  34.352  24.766  12.964
33722W        W 6147  11.416  18.259   1.135
33723W        W 6148   0.964  18.774   0.856
33724W        W 6149  14.275   8.906  14.768
33725W        W 6150  36.039   9.669   5.274
33726W        W 6151  31.183  28.115   3.160
33727W        W 6152   3.398   6.459   2.218
33728W        W 6153   0.392  25.362  13.395
33729W        W 6154  11.959   7.234   1.346
33730W        W 6155   6.083  20.226  13.893
33731W        W 6156  37.916  40.097   0.828
33732W        W 6157  16.684  30.949  14.792
33733W        W 6158  16.117  23.698  11.414
33734W        W 6159  27.487  13.569   4.750
33735W        W 6160  13.594  24.627  11.392
33736W        W 6161  21.472   9.604   3.215
33737W        W 6162  24.786   8.179  14.821
33738W        W 6163  39.281  23.548   4.637
33739W        W 6164  37.849  24.657   0.057
33740W        W 6165   5.226  35.035   0.953
33741W        W 6166  13.125   1.808   1.705
33742W        W 6167  22.173   7.537  11.589
33743W        W 6168  40.036  25.369  14.957
33744W        W 6169  38.011   9.767  13.320
33745W        W 6170   1.826  13.075  14.464
33746W        W 6171   6.882  12.431   1.786
33747W        W 6172  27.452  23.629   3.460
33748W        W 6173   5.192  41.226   1.682
33749W        W 6174  25.364  20.677  13.629
33750W        W 6175  14.202  11.270  10.685
33751W        W 6176  21.840   7.258   3.720
33752W        W 6177  16.219  35.514   0.771
33753W        W 6178   2.944  10.252   4.397
33754W        W 6179  25.200  39.379  11.395
33755W        W 6180   9.678   5.468   2.341
33756W        W 6181  35.380  44.387  13.822
33757W        W 6182  39.937  29.961   4.323
33758W        W 6183  44.003   2.926   0.511
33759W        W 6184  36.510  38.887  14.016
33760W        W 6185  40.040  31.413   2.329
33761W        W 6186  28.132  17.509   0.796
33762W        W 6187  24.416  15.669  12.489
33763W        W 6188   4.632  41.489  14.309
33764W        W 6189  25.344  44.113   3.713
33765W        W 6190   3.960  30.798  10.790
33766W        W 6191  15.057  39.631  11.072
33767W        W 6192  39.111  44.835  12.624
33768W        W 6193   5.860  27.425   3.631
33769W        W 6194  36.389  30.886   0.365
33770W        W 6195   9.407   9.772  14.075
33771W        W 6196  39.387  17.291  13.301
33772W        W 6197  13.319  34.884   0.548
33773W        W 6198   5.286  19.418  11.175
33774W        W 6199  27.323  15.295   1.917
33775W        W 6200  34.412  26.907  11.123
33776W        W 6201  24.577  11.149  13.915
33777W        W 6202  12.827  23.604  11.086
33778W        W 6203  21.727  32.527  11.453
33779W        W 6204  20.893   3.610  11.328
33780W        W 6205   2.363  18.589   4.538
33781W        W 6206  10.210  30.139  12.857
33782W        W 6207  19.383  27.793  14.350
33783W        W 6208  44.729   9.921  11.950
33784W        W 6209  42.505  21.597   2.632
33785W        W 6210  13.650  26.000  14.787
33786W        W 6211  30.083  38.766   2.291
33787W        W 6212  29.767  12.229   0.217
33788W        W 6213  19.969   5.197  10.440
33789W        W 6214  24.763   1.789   1.930
33790W        W 6215  11.303   4.731   3.702
33791W        W 6216  39.495  24.971  13.556
33792W        W 6217  20.161  13.805   0.889
33793W        W 6218   2.491   6.941   0.426
33794W        W 6219   9.724  40.301   1.484
33795W        W 6220  19.777  13.257   3.414
33796W        W 6221   7.439   8.969   3.332
33797W        W 6222  15.577  17.668   1.357
33798W        W 6223  24.567  13.395   4.143
33799W        W 6224  29.375  32.043   3.279
33800W        W 6225  43.285  18.658  13.491
33801W        W 6226  17.545  16.527  14.824
33802W        W 6227   5.091  14.209   1.381
33803W        W 6228  32.019  10.222   1.803
33804W        W 6229  32.394   2.956  12.436
33805W        W 6230   6.438   3.186  13.339
33806W        W 6231  36.679  30.280  11.144
33807W        W 6232   5.410  36.586   4.506
33808W        W 6233  42.254  43.211   1.366
33809W        W 6234  16.595  41.517   2.132
33810W        W 6235  19.249  24.550  12.399
33811W        W 6236   3.485   3.873  14.544
33812W        W 6237  14.082   2.911  14.913
33813W        W 6238  26.676  12.849   2.769
33814W        W 6239  43.924  23.848   0.028
33815W        W 6240  33.614  25.715   1.827
33816W        W 6241   6.903  26.479   2.631
33817W        W 6242  19.742  40.835  10.657
33818W        W 6243  44.732  30.929  11.330
33819W        W 6244  11.125   9.263  10.721
33820W        W 6245   3.225  15.700   4.052
33821W        W 6246  39.342  12.586   2.249
33822W        W 6247   5.216  43.093  12.823
33823W        W 6248   9.412  27.944   4.221
33824W        W 6249   0.946  34.294   4.513
33825W        W 6250   0.788  11.166  12.679
33826W        W 6251  42.978  38.980  14.176
33827W        W 6252   0.195  20.713   1.922
33828W        W 6253   3.149  10.606  12.411
33829W        W 6254  15.649   2.617  13.338
33830W        W 6255  16.621  39.846  14.725
33831W        W 6256  38.884  18.210   1.218
33832W        W 6257  41.331   6.741   1.310
33833W        W 6258   7.344  31.376   0.469
33834W        W 6259  39.708   8.423   3.706
33835W        W 6260  15.857  32.707   0.712
33836W        W 6261  14.252   2.330   3.881
33837W        W 6262  21.468   0.198  14.851
33838W        W 6263  44.870  12.182   3.870
33839W        W 6264  38.022  44.248  13.922
33840W        W 6265  33.567  34.376  11.886
33841W        W 6266  33.632  15.556  12.375
33842W        W 6267  28.841  29.706  13.506
33843W        W 6268   0.914   4.338  11.145
33844W        W 6269   7.739  29.912   2.435
33845W        W 6270  10.683  34.553   2.196
33846W        W 6271  43.488  16.282  11.440
33847W        W 6272  13.787  25.659   2.210
33848W        W 6273  17.558  34.393   3.198
33849W        W 6274  11.162  36.960  11.103
33850W        W 6275  16.599  16.105   2.160
33851W        W 6276  42.462  25.656  10.818
33852W        W 6277  34.439  26.198  10.607
33853W        W 6278  15.779  30.530   2.405
33854W        W 6279  13.572  42.909   3.125
33855W        W 6280  16.137  44.142  10.364
33856W        W 6281  39.870  34.452  13.838
33857W        W 6282   6.665  20.752   1.913
33858W        W 6283  33.964  32.359   4.723
33859W        W 6284  12.608  43.693   3.705
33860W        W 6285  43.502  34.642   2.336
33861W        W 6286  41.838  25.104   0.074
33862W        W 6287  34.427  33.690  11.102
33863W        W 6288  15.596   3.373   3.778
33864W        W 6289  41.332  21.076  10.604
33865W        W 6290  20.241  11.679  11.624
33866W        W 6291   1.032  23.527  10.941
33867W        W 6292  27.599  13.721   1.407
33868W        W 6293  17.354  13.053   4.632
33869W        W 6294  38.113  40.242  12.583
33870W        W 6295  21.177   0.813   2.770
33871W        W 6296  14.357  32.390  13.376
33872W        W 6297  28.855  42.000  12.619
33873W        W 6298   6.450  10.134   3.773
33874W        W 6299  20.576  22.776  11.477
33875W        W 6300   1.474  43.798  14.436
33876W        W 6301  25.562  40.446  14.952
33877W        W 6302  38.051  20.084   3.568
33878W        W 6303  34.634  25.255  12.085
33879W        W 6304  11.630  28.254  14.794
33880W        W 6305  30.891  15.584   2.170
33881W        W 6306  28.416   8.945   2.344
33882W        W 6307  42.756  26.766   1.821
33883W        W 6308  27.103  39.809  13.741
33884W        W 6309  27.697  23.057  10.715
33885W        W 6310   5.963  41.635   3.753
33886W        W 6311  44.316   4.715   1.682
33887W        W 6312  43.867  41.323   1.273
33888W        W 6313   2.034  37.031   3.869
33889W        W 6314  19.089  41.620   3.688
33890W        W 6315   1.875  17.893  14.086
33891W        W 6316  27.469  37.423   4.858
33892W        W 6317  21.083  22.003   3.292
33893W        W 6318   9.198   9.373   4.188
33894W        W 6319  32.104  24.614  11.190
33895W        W 6320  40.141  28.050  11.087
33896W        W 6321   6.217  26.965  13.867
33897W        W 6322   7.605  15.334   2.375
33898W        W 6323  17.704  14.294   3.668
33899W        W 6324  30.011  26.705  14.298
33900W        W 6325  24.659  20.347  11.893
33901W        W 6326  11.685  13.851  14.636
33902W        W 6327  36.107  17.336   2.651
33903W        W 6328  12.377  32.955  13.283
33904W        W 6329  18.464   4.621  11.601
33905W        W 6330   4.989  21.567  11.982
33906W        W 6331  37.045  41.328   2.433
33907W        W 6332  21.078  35.840  11.918
33908W        W 6333   1.850   8.954   1.952
33909W        W 6334  41.932  15.338  12.413
33910W        W 6335  36.045  18.603  12.383
33911W        W 6336  36.047  24.952  12.536
33912W        W 6337  28.205  35.793  12.408
33913W        W 6338  42.153  38.436  11.420
33914W        W 6339  36.191  31.535  12.016
33915W        W 6340  22.074  18.252   2.785
33916W        W 6341  38.342  13.031  13.445
33917W        W 6342  35.323  16.725  13.913
33918W        W 6343  32.120  25.581  12.585
33919W        W 6344   7.243  34.429   3.780
33920W        W 6345  35.280  20.005   2.214
33921W        W 6346  11.721  23.814  11.608
33922W        W 6347   8.165  29.265  10.613
33923W        W 6348  32.426  30.057   0.638
33924W        W 6349  38.827  33.836  10.834
33925W        W 6350  17.015   6.145   1.355
33926W        W 6351  22.401  27.618   3.684
33927W        W 6352  29.133   4.732   2.185
33928W        W 6353  27.366  29.991   5.080
33929W        W 6354   6.923  26.948  11.535
33930W        W 6355  31.734  28.191  12.394
33931W        W 6356  15.107  18.621  13.265
33932W        W 6357   4.146  40.856   1.406
33933W        W 6358  43.413   8.493   0.215
33934W        W 6359   2.641  18.136  11.566
33935W        W 6360  30.186  11.267  12.786
33936W        W 6361  17.097  40.642  11.409
33937W        W 6362  35.561   1.916  13.412
33938W        W 6363  34.971   9.458   9.591
33939W        W 6364  28.173   7.419   4.366
33940W        W 6365  33.420  27.164   4.573
33941W        W 6366  23.058  22.160   0.006
33942W        W 6367  15.248   3.989  10.216
33943W        W 6368  19.310  12.040   0.543
33944W        W 6369  36.735   3.697   3.161
33945W        W 6370   0.238  38.509  11.208
33946W        W 6371   3.675  33.589   0.199
33947W        W 6372  28.166  41.601  12.585
33948W        W 6373  13.775  33.810  13.841
33949W        W 6374  40.825  11.596  13.434
33950W        W 6375  29.169  22.156   1.880
33951W        W 6376  22.122  25.627  11.647
33952W        W 6377  37.993  17.521  12.506
33953W        W 6378   1.599  33.736   0.739
33954W        W 6379  15.933  29.494  11.899
33955W        W 6380  18.475  16.045   2.656
33956W        W 6381  22.217  43.993   3.701
33957W        W 6382  27.915  29.933  13.117
33958W        W 6383  22.779  28.122  14.237
33959W        W 6384   6.332  27.414  12.027
33960W        W 6385  19.310   4.555  12.132
33961W        W 6386  38.097  36.338   1.976
33962W        W 6387  24.959   4.362  11.478
33963W        W 6388  30.478  22.680  11.148
33964W        W 6389  28.137  14.531   0.702
33965W        W 6390   0.028  43.806   0.408
33966W        W 6391  43.283  33.979  10.857
33967W        W 6392   6.981  43.762  12.900
33968W        W 6393   5.393  39.788  12.027
33969W        W 6394  23.614  37.910  10.549
33970W        W 6395  44.726   8.509  12.414
33971W        W 6396   9.933  20.547  14.194
33972W        W 6397   9.358  44.272  12.411
33973W        W 6398   4.881  28.028   3.275
33974W        W 6399   1.944  30.856   2.125
33975W        W 6400  31.663  18.221   4.780
33976W        W 6401  42.018  43.854  14.367
33977W        W 6402   2.829   0.989  10.600
33978W        W 6403   0.853  30.400   4.267
33979W        W 6404   4.264   7.308   3.556
33980W        W 6405  37.321  21.053   2.427
33981W        W 6406   7.284   7.510  14.916
33982W        W 6407  30.041  39.027   0.635
33983W        W 6408  16.216  25.681   3.260
33984W        W 6409  27.873  16.684  10.617
33985W        W 6410  29.724  22.350  14.220
33986W        W 6411  15.637  25.643   0.905
33987W        W 6412   6.924  39.037  13.965
33988W        W 6413  33.941   4.692  12.403
33989W        W 6414   2.900   3.314   2.894
33990W        W 6415   8.848  12.912  12.520
33991W        W 6416  24.590  17.781   2.848
33992W        W 6417   2.910  24.121  12.904
33993W        W 6418  34.561  27.899   1.247
33994W        W 6419  43.631   5.598  14.484
33995W        W 6420   4.751  43.905  13.232
33996W        W 6421  18.833  11.213   2.736
33997W        W 6422   6.368  19.992  11.848
33998W        W 6423  15.027  38.389   1.808
33999W        W 6424  36.951  14.295  12.050
34000W        W 6425  40.831  10.159   4.897
34001W        W 6426   5.074  14.109  14.539
34002W        W 6427  13.053  17.598   0.932
34003W        W 6428  35.097  12.265  11.499
34004W        W 6429  14.846  30.546   1.865
34005W        W 6430  25.712  38.104   1.915
34006W        W 6431  26.517  27.724  14.352
34007W        W 6432  29.283  25.992  14.789
34008W        W 6433   3.278  39.050  11.066
34009W        W 6434  26.662  14.162  12.919
34010W        W 6435  24.688  42.478  11.451
34011W        W 6436   2.938  15.332  12.539
34012W        W 6437  43.040  21.231   5.173
34013W        W 6438   5.536  11.338   1.836
34014W        W 6439  40.357  39.473   4.353
34015W        W 6440  30.955  25.339   4.568
34016W        W 6441  27.532   2.195   0.939
34017W        W 6442  38.556  36.030  13.011
34018W        W 6443   2.849   7.353  11.826
34019W        W 6444  16.214  44.953  13.890
34020W        W 6445  14.350  40.431   3.724
34021W        W 6446   9.600   3.379   0.104
34022W        W 6447  28.728  22.172  10.259
34023W        W 6448  30.478  37.372  11.975
34024W        W 6449  28.787  26.366  14.845
34025W        W 6450   6.309  28.560  10.194
34026W        W 6451  12.533  16.590  11.297
34027W        W 6452  35.949   0.945   2.292
34028W        W 6453  27.995  31.072   2.641
34029W        W 6454   8.861  32.841   0.762
34030W        W 6455  15.822  26.080  11.293
34031W        W 6456  32.962  43.013   3.275
34032W        W 6457  40.089  26.058  12.007
34033W        W 6458  11.346  21.825  14.076
34034W        W 6459   9.421  38.100  13.974
34035W        W 6460  44.472  18.752   3.682
34036W        W 6461  42.768  20.469   0.416
34037W        W 6462  33.152  33.333   1.863
34038W        W 6463  44.052  33.962   4.549
34039W        W 6464  17.207  30.631  14.925
34040W        W 6465  38.638  32.869  11.912
34041W        W 6466   4.907  42.313   3.224
34042W        W 6467  11.347  34.910  13.283
34043W        W 6468  14.718  22.697   4.620
34044W        W 6469  32.738  21.288  12.979
34045W        W 6470  34.443  28.210   1.619
34046W        W 6471  19.131   7.235   0.509
34047W        W 6472  30.550  28.572   4.403
34048W        W 6473   3.905  42.369   4.177
34049W        W 6474  28.202  23.573  13.543
34050W        W 6475   0.800  31.271  14.544
34051W        W 6476  18.659  42.815  11.242
34052W        W 6477  32.563   3.824  14.807
34053W        W 6478  44.962   8.785   1.314
34054W        W 6479  33.628  19.857  14.514
34055W        W 6480  24.726  35.328  11.049
34056W        W 6481  20.493  13.382   0.346
34057W        W 6482  22.465  30.647   1.851
34058W        W 6483  13.777   9.112   1.413
34059W        W 6484  27.926  27.544   3.183
34060W        W 6485  32.853  39.474  13.948
34061W        W 6486   7.787   4.662   5.028
34062W        W 6487  38.156  12.683  11.194
34063W        W 6488  10.100  15.575  14.268
34064W        W 6489  11.409  13.400  12.493
34065W        W 6490   3.177  15.254  14.357
34066W        W 6491  16.392  33.801   0.381
34067W        W 6492  13.737  17.693   3.234
34068W        W 6493  17.363  13.628   1.811
34069W        W 6494  39.671  18.084  13.661
34070W        W 6495  28.189  21.527  11.188
34071W        W 6496  42.106  34.305   3.909
34072W        W 6497  21.114  31.142  13.046
34073W        W 6498  28.888   3.010  14.996
34074W        W 6499   6.340  13.398  11.173
34075W        W 6500  17.182  10.913  12.343
34076W        W 6501  34.684  22.664  14.951
34077W        W 6502  17.746  37.378  12.454
34078W        W 6503  15.639   8.213  12.223
34079W        W 6504  23.845   3.164   0.131
34080W        W 6505  12.295  13.511   1.437
34081W        W 6506  10.675  15.987   4.241
34082W        W 6507  30.634  21.055   0.878
34083W        W 6508  29.601  38.889   9.771
34084W        W 6509  21.554  24.433   0.106
34085W        W 6510   3.718  13.219   1.960
34086W        W 6511  14.322   2.949   1.262
34087W        W 6512  33.776  12.989  12.001
34088W        W 6513  43.663  34.884  12.022
34089W        W 6514  26.725  21.600  12.350
34090W        W 6515   2.001  26.719   4.187
34091W        W 6516  16.032  42.486  10.523
34092W        W 6517   9.720  19.671  11.937
34093W        W 6518  15.774  13.236   3.398
34094W        W 6519  13.323  22.582   4.732
34095W        W 6520  20.258  35.030  14.446
34096W        W 6521  34.582  10.336  13.299
34097W        W 6522  12.766  36.938   3.092
34098W        W 6523  41.981   8.160   2.449
34099W        W 6524  19.787  20.760   3.628
34100W        W 6525  26.683  29.996   0.798
34101W        W 6526  11.551   9.332   4.114
34102W        W 6527  20.505  11.057   0.716
34103W        W 6528  34.414  41.992   2.560
34104W        W 6529  33.119  34.972  11.989
34105W        W 6530  42.366  44.335   3.766
34106W        W 6531  41.339  10.955  11.657
34107W        W 6532  21.177   9.680   5.488
34108W        W 6533   6.710  10.177   1.511
34109W        W 6534  29.184  43.210   3.264
34110W        W 6535  19.250   6.445   4.700
34111W        W 6536   7.394  15.215  12.009
34112W        W 6537  20.636  34.431   4.093
34113W        W 6538  41.089  38.537  14.873
34114W        W 6539  26.369  43.232   4.235
34115W        W 6540  39.053  40.765   1.281
34116W        W 6541  26.145  24.585   0.426
34117W        W 6542  28.702  23.917   3.480
34118W        W 6543  40.844   7.589   2.294
34119W        W 6544   5.057  42.252   1.685
34120W        W 6545  20.189  26.258  13.021
34121W        W 6546   5.788   5.132  12.094
34122W        W 6547   9.135  15.195   0.729
34123W        W 6548  15.966  32.926  11.112
34124W        W 6549  16.507  11.862   2.240
34125W        W 6550  16.947   2.174  14.938
34126W        W 6551  41.948  41.911   1.573
34127W        W 6552   4.976  23.099  14.267
34128W        W 6553  18.330   7.971  12.208
34129W        W 6554  34.710   2.895   4.587
34130W        W 6555  42.036   0.872  13.056
34131W        W 6556  19.326  21.566  14.340
34132W        W 6557  40.043   3.284  12.546
34133W        W 6558  37.000   9.994  12.982
34134W        W 6559  30.387  24.319  13.515
34135W        W 6560  21.659  17.105   1.294
34136W        W 6561  14.576  25.259   1.840
34137W        W 6562   4.933  44.266   3.731
34138W        W 6563  43.077  20.150   2.081
34139W        W 6564  12.742  25.763  10.232
34140W        W 6565   1.282  31.533  10.910
34141W        W 6566  25.516  17.626  11.719
34142W        W 6567   7.722  20.542   3.152
34143W        W 6568  33.877  38.495   3.655
34144W        W 6569  23.095  20.605   2.349
34145W        W 6570  11.837   1.831  10.081
34146W        W 6571   0.835  10.215   2.319
34147W        W 6572  29.018  40.196  12.299
34148W        W 6573  28.910  29.096  12.840
34149W        W 6574  40.772  16.578  14.654
34150W        W 6575  24.472  28.073   2.864
34151W        W 6576   6.992  27.482   2.613
34152W        W 6577  26.621  17.426  13.514
34153W        W 6578  31.379  20.548   1.351
34154W        W 6579  41.495  24.927  11.547
34155W        W 6580  11.886  41.600  12.448
34156W        W 6581  25.702  12.220   3.959
34157W        W 6582  27.837   9.373   2.778
34158W        W 6583  44.479  38.126  11.551
34159W        W 6584  17.828  34.764   3.413
34160W        W 6585  13.758   6.334   1.968
34161W        W 6586  34.542  28.399  12.428
34162W        W 6587  43.867   6.967  14.113
34163W        W 6588  26.458  44.810  12.318
34164W        W 6589   6.457  36.992  13.471
34165W        W 6590   3.170  24.396  14.449
34166W        W 6591  32.434  11.260  13.470
34167W        W 6592   1.287  40.403   3.799
34168W        W 6593   2.709  16.624   3.830
34169W        W 6594  27.417  16.226  14.843
34170W        W 6595   8.352  27.419  11.846
34171W        W 6596   6.193  18.240   2.878
34172W        W 6597  23.315  43.206  14.446
34173W        W 6598   2.930  10.105   0.779
34174W        W 6599  42.836  10.343   3.447
34175W        W 6600  22.679  23.691   0.902
34176W        W 6601  17.172   4.949  11.337
34177W        W 6602   5.843   0.831   0.277
34178W        W 6603  12.156  13.206   0.763
34179W        W 6604   7.542  41.630   4.337
34180W        W 6605  20.936  20.641  13.062
34181W        W 6606  37.373   7.309   1.385
34182W        W 6607  27.145  28.112   3.185
34183W        W 6608   3.941  28.138   3.254
34184W        W 6609   5.034  10.572  12.508
34185W        W 6610   5.371  31.074   3.721
34186W        W 6611  43.511  10.464  11.154
34187W        W 6612   6.818  29.005   0.585
34188W        W 6613  15.471  33.084  11.204
34189W        W 6614  26.416  23.696   4.197
34190W        W 6615  21.566  25.891  14.944
34191W        W 6616  18.578  11.327   3.204
34192W        W 6617  24.749  36.888  11.087
34193W        W 6618  14.896  44.702   2.383
34194W        W 6619  41.395  12.220   0.428
34195W        W 6620  11.152  19.577   5.034
34196W        W 6621   2.889   3.741   3.166
34197W        W 6622  36.942  34.862  13.413
34198W        W 6623  11.615  33.010   0.762
34199W        W 6624  31.172  36.868   4.576
34200W        W 6625  41.768  40.406   0.384
34201W        W 6626   5.503  28.534  10.491
34202W        W 6627   9.457  36.435   2.702
34203W        W 6628  31.636  34.468  13.457
34204W        W 6629  25.738  30.577  11.497
34205W        W 6630  14.214  22.695  14.943
34206W        W 6631  36.330   2.749  12.790
34207W        W 6632  25.665   8.794   1.437
34208W        W 6633  38.452  22.205  13.296
34209W        W 6634  37.520  12.508  14.347
34210W        W 6635  39.504  13.140   3.313
34211W        W 6636   6.262  36.173  11.576
34212W        W 6637   1.129   7.508   4.205
34213W        W 6638   1.588  41.749   3.594
34214W        W 6639   0.382  39.541  14.922
34215W        W 6640  41.319   2.827   2.230
34216W        W 6641  42.901  31.547  13.803
34217W        W 6642  33.983  14.315  10.896
34218W        W 6643   6.386  19.075   4.491
34219W        W 6644  24.180  22.717   3.945
34220W        W 6645  38.910  19.685  12.547
34221W        W 6646  39.830  25.531  12.592
34222W        W 6647  44.665  25.925   9.851
34223W        W 6648   7.447  36.510   4.617
34224W        W 6649  11.945  16.098   2.621
34225W        W 6650  32.457  21.487  13.356
34226W        W 6651  35.025  27.223  14.905
34227W        W 6652  33.116  19.572  12.338
34228W        W 6653  29.434  31.574   0.231
34229W        W 6654  37.038  44.891   2.387
34230W        W 6655  14.757  33.849  12.404
34231W        W 6656  43.898  38.400  12.142
34232W        W 6657  43.272  21.230   0.856
34233W        W 6658  19.496  36.064   2.564
34234W        W 6659  16.334   8.913  13.557
34235W        W 6660  43.756  27.731  11.433
34236W        W 6661  27.203  44.803  11.671
34237W        W 6662  35.053  25.504   0.288
34238W        W 6663   7.919  16.634   1.162
34239W        W 6664   3.743  31.581  14.020
34240W        W 6665  29.191  36.336  14.895
34241W        W 6666  17.709   4.305   0.732
34242W        W 6667  38.310  35.265  11.839
34243W        W 6668   6.477   6.346   3.545
34244W        W 6669  29.767  30.844   0.796
34245W        W 6670  31.658   9.620   2.171
34246W        W 6671  23.961  21.632  10.534
34247W        W 6672   8.361   2.739  12.212
34248W        W 6673   5.359  42.715  14.713
34249W        W 6674  22.991  18.761   0.440
34250W        W 6675  42.371  20.629  13.271
34251W        W 6676  24.072  19.347   2.760
34252W        W 6677  13.435  34.635  13.961
34253W        W 6678   1.804  22.740   0.636
34254W        W 6679   7.643  41.067  13.388
34255W        W 6680  35.381  12.810  12.540
34256W        W 6681  38.479   7.673  14.336
34257W        W 6682  11.541  39.132   2.260
34258W        W 6683  24.964  44.275  12.073
34259W        W 6684  17.193   5.925   2.330
34260W        W 6685  40.369  39.808   0.806
34261W        W 6686  29.438  11.622  14.430
34262W        W 6687  26.948  11.767  11.639
34263W        W 6688  17.096  39.801  14.529
34264W        W 6689  15.329  38.586  11.001
34265W        W 6690   7.249  37.862  12.647
34266W        W 6691  15.407  26.122   1.866
34267W        W 6692  17.218  23.743   1.992
34268W        W 6693  10.525  31.983   4.100
34269W        W 6694  42.659  28.593   4.866
34270W        W 6695   5.740  43.904  10.566
34271W        W 6696  14.695  42.342  13.041
34272W        W 6697  37.258  33.097  10.309
34273W        W 6698  19.069  11.150   1.264
34274W        W 6699  43.750  43.596  11.139
34275W        W 6700  44.216   7.762   3.178
34276W        W 6701  10.473  23.892  10.328
34277W        W 6702  40.957  36.130   2.160
34278W        W 6703  41.337   5.287  13.863
34279W        W 6704   4.671  36.768  14.831
34280W        W 6705  38.525  26.151   3.338
34281W        W 6706   4.698   1.985  12.175
34282W        W 6707  34.027  44.522   1.822
34283W        W 6708  18.029  36.338  13.087
34284W        W 6709  31.171  16.696   4.298
34285W        W 6710  15.364  20.605  12.601
34286W        W 6711   7.660   1.822  12.883
34287W        W 6712  21.781  33.386   1.075
34288W        W 6713  23.991  10.811   0.735
34289W        W 6714   5.379  27.635   3.626
34290W        W 6715  34.873  31.473   3.737
34291W        W 6716  28.537  38.519  12.060
34292W        W 6717  28.670   7.019  12.392
34293W        W 6718  22.659  30.971   1.209
34294W        W 6719  42.125   4.466   4.148
34295W        W 6720   9.572  33.461   4.402
34296W        W 6721  38.316   1.269  11.808
34297W        W 6722   5.466   6.775  13.353
34298W        W 6723  17.922  28.408   1.088
34299W        W 6724  34.363  13.757  11.425
34300W        W 6725   2.123  16.744   0.086
34301W        W 6726  16.486  14.849   4.951
34302W        W 6727  19.576  15.268   2.834
34303W        W 6728  42.286   7.428  12.330
34304W        W 6729  27.213  23.695  11.185
34305W        W 6730  19.698  10.793  12.133
34306W        W 6731  20.266   7.847   0.215
34307W        W 6732  32.581  27.317   2.244
34308W        W 6733  25.793  24.960  14.999
34309W        W 6734  42.510  39.348  13.458
34310W        W 6735  41.963  10.431   0.585
34311W        W 6736   7.827  27.293  14.522
34312W        W 6737  16.433  34.517   9.547
34313W        W 6738   2.354   4.885   4.626
34314W        W 6739  38.331  26.247   4.717
34315W        W 6740   8.609  30.324  13.811
34316W        W 6741  29.215   0.655   1.382
34317W        W 6742  24.050  41.130  10.261
34318W        W 6743  34.013  19.155   3.226
34319W        W 6744  42.469   7.306   4.494
34320W        W 6745   2.468   4.353   0.015
34321W        W 6746  43.929  32.578   4.603
34322W        W 6747  11.548  35.902  14.373
34323W        W 6748  19.763  27.206  11.880
34324W        W 6749   1.345  16.482  11.918
34325W        W 6750   5.266  17.016   2.121
34326W        W 6751  15.569   3.934  14.934
34327W        W 6752  33.626  25.537   0.203
34328W        W 6753   5.287  17.449  14.051
34329W        W 6754  21.720   1.925  13.074
34330W        W 6755  38.731   0.304  12.925
34331W        W 6756  31.042   7.152   0.747
34332W        W 6757  32.423  28.748  11.828
34333W        W 6758  11.264  43.368   3.215
34334W        W 6759  43.964   7.615   2.501
34335W        W 6760  42.391  22.764  11.038
34336W        W 6761  26.147   1.539   1.052
34337W        W 6762  13.341  16.097  12.109
34338W        W 6763  32.647  16.683   3.848
34339W        W 6764  11.138  36.416  11.826
34340W        W 6765   3.420  13.542   0.646
34341W        W 6766  31.639  24.024  12.838
34342W        W 6767  22.694  31.337   3.711
34343W        W 6768  18.048  21.340  13.079
34344W        W 6769   4.978  36.869   4.389
34345W        W 6770  41.621  30.700  13.788
34346W        W 6771  11.820  10.094  13.636
34347W        W 6772  39.994  34.029  11.406
34348W        W 6773  29.086  20.089  11.431
34349W        W 6774  40.913  33.930   3.096
34350W        W 6775   1.650  29.401   0.869
34351W        W 6776  38.187  43.674   3.366
34352W        W 6777   7.647  22.254   3.331
34353W        W 6778   6.929  21.795  12.610
34354W        W 6779   5.131   4.294   2.453
34355W        W 6780  32.550  31.696   3.294
34356W        W 6781  34.585  26.092   3.791
34357W        W 6782  37.750  17.747   0.797
34358W        W 6783  31.971  37.781  12.504
34359W        W 6784  29.158   5.186  10.457
34360W        W 6785  34.600  20.293  13.004
34361W        W 6786  38.346  38.446  14.885
34362W        W 6787  37.387  26.879   3.431
34363W        W 6788  30.415  32.464  12.168
34364W        W 6789  37.620  21.484  12.471
34365W        W 6790   8.637  34.151  11.530
34366W        W 6791  11.644  21.648   1.268
34367W        W 6792  24.380  15.106   0.319
34368W        W 6793  18.800  25.420  10.702
34369W        W 6794  26.542  38.757   1.811
34370W        W 6795   4.238   3.779   4.259
34371W        W 6796   4.850   9.876   2.273
34372W        W 6797  11.731  44.946  12.526
34373W        W 6798  29.645  31.849   1.223
34374W        W 6799  29.515  17.671   1.202
34375W        W 6800  22.172   7.849   4.573
34376W        W 6801  19.202   3.399  11.197
34377W        W 6802  42.720   2.242  10.841
34378W        W 6803  19.555  33.523  11.460
34379W        W 6804   4.263  18.403   0.889
34380W        W 6805  20.311   6.066   3.814
34381W        W 6806  42.196   1.923  14.809
34382W        W 6807  13.323  39.753   2.624
34383W        W 6808  22.577  10.989   1.661
34384W        W 6809  33.039  12.607   1.920
34385W        W 6810  10.788   6.920  14.547
34386W        W 6811   1.189  18.343   3.158
34387W        W 6812  11.512  24.165  14.945
34388W        W 6813   0.093  27.050  11.681
34389W        W 6814  26.021  32.071   3.386
34390W        W 6815   1.313   0.840  11.466
34391W        W 6816  25.958  40.525  12.010
34392W        W 6817  25.580  30.677   0.786
34393W        W 6818  41.861   7.301   1.727
34394W        W 6819  31.010  33.172  12.604
34395W        W 6820  19.726  25.488   1.868
34396W        W 6821   5.451   6.514   2.682
34397W        W 6822  14.776  33.293   1.840
34398W        W 6823  20.496   1.255   2.787
34399W        W 6824  19.255  25.717   2.804
34400W        W 6825   8.577  18.609   1.743
34401W        W 6826  26.458  21.145   3.356
34402W        W 6827  15.608   7.733  11.608
34403W        W 6828  35.980  15.859  14.702
34404W        W 6829  19.767   2.509  11.520
34405W        W 6830  34.283  16.796  13.934
34406W        W 6831  33.340  37.355   0.529
34407W        W 6832  22.566   1.234   3.254
34408W        W 6833   9.978  29.530  13.429
34409W        W 6834   7.743  29.394   2.422
34410W        W 6835  17.274  23.733  14.367
34411W        W 6836  24.059  20.757  10.584
34412W        W 6837  36.583  24.013   4.669
34413W        W 6838  10.828  23.025   1.936
34414W        W 6839  44.002   0.688   0.423
34415W        W 6840  20.539   3.197   2.456
34416W        W 6841  33.389   7.017  12.083
34417W        W 6842  17.741  44.118   0.248
34418W        W 6843  14.633  43.901  13.339
34419W        W 6844  15.972   5.295   2.292
34420W        W 6845  25.623  25.437  13.069
34421W        W 6846   6.971  15.127  14.976
34422W        W 6847  17.199   6.813  11.516
34423W        W 6848  31.034  41.293   2.756
34424W        W 6849  18.869  20.302  11.055
34425W        W 6850  15.759  14.628   4.663
34426W        W 6851  19.742  15.717   2.623
34427W        W 6852   8.050  36.941   1.773
34428W        W 6853  13.736  16.770   3.769
34429W        W 6854  12.761   3.690  13.059
34430W        W 6855  33.189  17.753  14.849
34431W        W 6856  29.579  40.467  13.948
34432W        W 6857  44.867  42.475   2.947
34433W        W 6858  34.054  44.673  13.924
34434W        W 6859  20.848   1.245  11.185
34435W        W 6860  39.293  19.253   2.777
34436W        W 6861  39.959  19.331   1.374
34437W        W 6862  43.759   6.905   2.237
34438W        W 6863   7.730  40.396  10.089
34439W        W 6864   7.629  38.306  13.815
34440W        W 6865  30.218   4.429   1.356
34441W        W 6866  13.049  34.376  10.983
34442W        W 6867  19.774  32.317   3.266
34443W        W 6868   2.960  43.978  14.059
34444W        W 6869  16.797  29.844  13.995
34445W        W 6870   7.362  29.675   0.772
34446W        W 6871  19.852  43.056   3.257
34447W        W 6872  26.124  28.379   2.355
34448W        W 6873  13.403   0.830   4.242
34449W        W 6874  35.138   9.831  13.750
34450W        W 6875   3.463  32.092   0.258
34451W        W 6876   1.543  11.349  11.130
34452W        W 6877  17.184  40.410  11.862
34453W        W 6878  24.070  37.344   4.188
34454W        W 6879  16.054   0.734  10.475
34455W        W 6880  28.658  11.666   0.943
34456W        W 6881  10.433  18.341  11.023
34457W        W 6882  20.503  22.558   0.598
34458W        W 6883  32.120  23.955  12.466
34459W        W 6884   1.714  17.263  13.427
34460W        W 6885   5.832   1.680   2.872
34461W        W 6886  27.032  39.562   1.689
34462W        W 6887  25.468  30.682  12.399
34463W        W 6888  13.640  25.391   2.690
34464W        W 6889  30.899   6.389  13.588
34465W        W 6890  27.682   3.382   4.244
34466W        W 6891  18.562  15.883  11.657
34467W        W 6892  28.555  44.985  12.507
34468W        W 6893  35.169  31.354   0.356
34469W        W 6894  36.217  24.449   2.553
34470W        W 6895  44.909   7.684   4.334
34471W        W 6896  33.274  37.864   3.371
34472W        W 6897  38.867  43.270  12.809
34473W        W 6898  43.283  36.471  14.425
34474W        W 6899   1.912  35.051   2.871
34475W        W 6900  34.899  16.429  11.198
34476W        W 6901  23.285  31.639   4.601
34477W        W 6902  33.390  40.538  11.382
34478W        W 6903  23.112   4.922   4.914
34479W        W 6904   7.149  33.936   3.567
34480W        W 6905  11.195  10.688  11.093
34481W        W 6906  39.325  34.373  14.557
34482W        W 6907  44.368   5.292   2.226
34483W        W 6908  24.661  23.727  14.070
34484W        W 6909  23.912   0.823   2.645
34485W        W 6910   3.810  32.044  13.805
34486W        W 6911  24.148  29.359   1.174
34487W        W 6912  44.590  41.158  11.637
34488W        W 6913  27.291   3.414  14.225
34489W        W 6914  29.097  41.813  12.174
34490W        W 6915  19.602   7.913   0.539
34491W        W 6916  16.013  40.136   3.737
34492W        W 6917  23.086   8.180  10.587
34493W        W 6918  17.214   9.713  13.772
34494W        W 6919  14.820  42.961   4.014
34495W        W 6920   0.444   6.504   1.304
34496W        W 6921  41.891  30.893   2.630
34497W        W 6922  29.439  25.427   0.931
34498W        W 6923  29.687  35.345   4.629
34499W        W 6924  28.437  15.624  11.571
34500W        W 6925  20.525   3.923   4.268
34501W        W 6926   5.658  32.489   0.787
34502W        W 6927  44.009  44.752   4.267
34503W        W 6928  28.463  24.433  13.438
34504W        W 6929  32.313   2.982   4.025
34505W        W 6930  27.225   6.839  14.562
34506W        W 6931   9.327   5.453   0.673
34507W        W 6932  19.232   6.263  13.052
34508W        W 6933  13.411  29.513  12.611
34509W        W 6934  29.056  17.583   1.419
34510W        W 6935   7.645   7.690   4.621
34511W        W 6936  12.146  23.752  14.417
34512W        W 6937  34.308   7.827   1.422
34513W        W 6938  32.047  39.050  10.144
34514W        W 6939  38.542   2.638  13.533
34515W        W 6940   7.424  19.696  14.747
34516W        W 6941   4.457  39.103   0.507
34517W        W 6942  22.992  17.275   1.801
34518W        W 6943  10.846  14.386  12.102
34519W        W 6944  37.866  22.523   2.188
34520W        W 6945   1.375  16.808   3.289
34521W        W 6946   1.059  27.091  11.345
34522W        W 6947  33.182   3.399  12.555
34523W        W 6948  28.907   8.692  12.987
34524W        W 6949  19.192  10.985  11.403
34525W        W 6950  12.154  32.971   3.633
34526W        W 6951  37.965  19.367  10.688
34527W        W 6952   6.813  13.476  12.023
34528W        W 6953  37.815  29.437  10.854
34529W        W 6954  30.200  22.669  12.937
34530W        W 6955  37.102  38.763  12.138
34531W        W 6956  35.638  30.660  11.937
34532W        W 6957   7.710   3.495  13.800
34533W        W 6958   1.819  11.267  13.444
34534W        W 6959  24.744  19.738  11.954
34535W        W 6960   0.821   6.685  13.316
34536W        W 6961  13.122  39.431   4.200
34537W        W 6962  25.442   0.497   2.204
34538W        W 6963  28.068  34.833  11.142
34539W        W 6964  24.602  11.455   2.461
34540W        W 6965  44.352  43.754  14.926
34541W        W 6966  38.393   9.352  13.851
34542W        W 6967  25.490  23.387  11.080
34543W        W 6968  21.469  32.075   0.822
34544W        W 6969  14.401   6.721   0.285
34545W        W 6970  10.566  19.651   1.827
34546W        W 6971  23.488  25.772   3.242
34547W        W 6972  21.130  43.056   3.419
34548W        W 6973  15.593  27.672  13.493
34549W        W 6974   3.302  44.227   0.467
34550W        W 6975  25.264  24.552  12.650
34551W        W 6976  24.728  42.542   3.180
34552W        W 6977  10.139  19.686   3.727
34553W        W 6978  43.684   1.726  14.773
34554W        W 6979  40.381  37.962  12.867
34555W        W 6980  14.561  16.268   1.970
34556W        W 6981  33.123  21.086   2.376
34557W        W 6982  28.449  42.294   1.886
34558W        W 6983  34.890  33.768   1.410
34559W        W 6984  29.910  33.118  12.600
34560W        W 6985  38.984   5.678  10.787
34561W        W 6986   3.893  19.520   0.312
34562W        W 6987  29.060  37.620  10.382
34563W        W 6988  24.996  17.678   1.764
34564W        W 6989  43.467  33.022  13.028
34565W        W 6990  21.513   7.786   4.226
34566W        W 6991  36.616  31.562  13.416
34567W        W 6992  34.034  32.055   1.727
34568W        W 6993  31.429  22.634   3.385
34569W        W 6994  16.767   9.786   1.972
34570W        W 6995  10.931  27.961  13.875
34571W        W 6996  33.393  17.325   3.030
34572W        W 6997  39.851  12.807  13.770
34573W        W 6998   4.233  34.801   0.193
34574W        W 6999  14.853  12.555   3.253
34575W        W 7000   3.885  30.266  10.630
34576W        W 7001  43.233  26.641   3.193
34577W        W 7002  40.835   1.981  10.667
34578W        W 7003  21.878   8.788  11.250
34579W        W 7004  26.023  21.573  12.200
34580W        W 7005  20.971  16.586  12.074
34581W        W 7006  34.412   6.654   3.775
34582W        W 7007  36.723  22.792   1.653
34583W        W 7008   0.955   3.273  12.464
34584W        W 7009   6.713   9.415   1.862
34585W        W 7010  40.583  27.675   1.464
34586W        W 7011  32.993   1.314  14.106
34587W        W 7012  30.191   8.304  14.939
34588W        W 7013   7.967  41.923   2.154
34589W        W 7014   5.360  37.043  11.850
34590W        W 7015  37.344  19.066  11.913
34591W        W 7016  20.369   5.406  14.029
34592W        W 7017   6.748  26.601   1.684
34593W        W 7018  18.207  30.156   2.273
34594W        W 7019  21.676   6.462   3.262
34595W        W 7020  16.684  11.467   0.408
34596W        W 7021  21.256  29.473   2.719
34597W        W 7022  43.797  40.883   0.942
34598W        W 7023  22.585  31.419  14.415
34599W        W 7024  31.030  26.978  11.658
34600W        W 7025  29.074  30.838  12.708
34601W        W 7026   6.021   8.431   2.373
34602W        W 7027  38.904   2.903  13.812
34603W        W 7028  41.781  18.664  13.084
34604W        W 7029   6.405   0.339   3.654
34605W        W 7030  12.072  23.125   2.971
34606W        W 7031  11.613   2.883  13.922
34607W        W 7032  40.521  29.093  13.318
34608W        W 7033  32.369   3.356  10.253
34609W        W 7034  35.587  29.167  13.181
34610W        W 7035  26.179  38.313   2.858
34611W        W 7036  33.162   9.185   4.889
34612W        W 7037  23.461  18.106   0.010
34613W        W 7038   0.850  28.233  12.574
34614W        W 7039  30.448  29.810   3.699
34615W        W 7040  24.081  44.872   3.581
34616W        W 7041   9.607  34.198  11.391
34617W        W 7042  29.924  21.587   4.085
34618W        W 7043  30.443  27.986   3.593
34619W        W 7044  11.224  13.162  13.916
34620W        W 7045  25.507  41.522  14.758
34621W        W 7046  40.324  38.131  12.371
34622W        W 7047  28.573  17.441   3.664
34623W        W 7048  29.600   0.167  12.338
34624W        W 7049  38.874  43.208  13.325
34625W        W 7050  42.191  44.018  10.771
34626W        W 7051  35.536  38.410   4.694
34627W        W 7052  11.264  35.582  11.903
34628W        W 7053   1.389   7.955  12.032
34629W        W 7054  20.669  36.152   2.420
34630W        W 7055  18.242  29.466  14.026
34631W        W 7056  21.204  34.325  10.249
34632W        W 7057  25.244   9.384   4.367
34633W        W 7058   0.312  32.077   3.303
34634W        W 7059   1.077  24.067  14.027
34635W        W 7060  32.436  43.530  13.759
34636W        W 7061  10.980  39.997   2.746
34637W        W 7062  20.699  11.959  12.963
34638W        W 7063   8.844  36.619  11.651
34639W        W 7064  10.165   9.868   2.268
34640W        W 7065  33.398  35.329  11.577
34641W        W 7066  31.064   2.028   1.448
34642W        W 7067  17.771  38.388   2.297
34643W        W 7068  39.815   2.929   4.549
34644W        W 7069  27.025  10.696   2.303
34645W        W 7070  16.110  14.512   5.094
34646W        W 7071  12.265  31.670   3.839
34647W        W 7072  41.900  19.608   5.058
34648W        W 7073  21.092  37.506   0.719
34649W        W 7074  11.427  43.873   3.271
34650W        W 7075   7.820  25.727   4.168
34651W        W 7076  26.562  20.486  11.498
34652W        W 7077  25.056  20.577  12.100
34653W        W 7078  28.048  27.084  12.946
34654W        W 7079  29.164   2.094  13.235
34655W        W 7080   7.918   9.219  13.416
34656W        W 7081  35.906  10.148  12.382
34657W        W 7082  38.845  16.521   2.655
34658W        W 7083   7.126  17.302  11.549
34659W        W 7084  31.110  20.221  12.356
34660W        W 7085  26.009   9.109   3.839
34661W        W 7086  37.427  16.998   3.186
34662W        W 7087   8.804   1.998   4.320
34663W        W 7088  10.611   1.780  10.886
34664W        W 7089  13.079  29.391  13.938
34665W        W 7090  36.580   5.691  11.903
34666W        W 7091   9.844  39.044   3.854
34667W        W 7092  26.698  30.612   2.170
34668W        W 7093   3.780  39.338   4.574
34669W        W 7094  21.664  40.087  12.549
34670W        W 7095   2.531   1.315  14.870
34671W        W 7096   3.900  31.872   0.031
34672W        W 7097  40.044  15.693   3.158
34673W        W 7098  24.650  18.713  11.218
34674W        W 7099  20.227   0.290   1.855
34675W        W 7100  31.937  32.085   4.656
34676W        W 7101  26.169  29.850  13.085
34677W        W 7102  36.371  30.966  14.442
34678W        W 7103  19.292   8.900  11.932
34679W        W 7104  27.147   1.220   3.348
34680W        W 7105  13.078  24.074   3.157
34681W        W 7106  26.129  15.811   4.111
34682W        W 7107  28.211  17.222   5.067
34683W        W 7108   3.843  42.754   0.731
34684W        W 7109  16.379  37.357   0.803
34685W        W 7110  26.647  24.069  11.500
34686W        W 7111   2.165   8.261   4.253
34687W        W 7112  25.269  40.549   0.533
34688W        W 7113  32.145   6.163  12.896
34689W        W 7114  10.108   0.944  12.652
34690W        W 7115  28.096   0.037   4.597
34691W        W 7116  13.132  16.271   3.102
34692W        W 7117  25.080  11.139  14.084
34693W        W 7118  30.582  30.586   3.338
34694W        W 7119  44.705   6.444  12.999
34695W        W 7120  32.658   8.172  12.003
34696W        W 7121  25.983  17.779  11.642
34697W        W 7122  30.435  41.601   1.312
34698W        W 7123  32.636  27.397  12.374
34699W        W 7124   5.757  34.672  10.810
34700W        W 7125  37.065  32.482  13.993
34701W        W 7126  25.137  42.216   1.359
34702W        W 7127  18.995  41.520   0.878
34703W        W 7128  23.496  10.328   1.967
34704W        W 7129  17.227   3.913  13.514
34705W        W 7130   5.971  21.172  10.623
34706W        W 7131  36.177  11.617   2.818
34707W        W 7132  13.676  25.355  14.223
34708W        W 7133  38.973  15.014  14.936
34709W        W 7134  23.118   8.600   1.303
34710W        W 7135  27.402  22.849   0.950
34711W        W 7136  40.893  19.319   1.252
34712W        W 7137  24.974   3.851  13.449
34713W        W 7138   7.407  34.651   4.797
34714W        W 7139   3.900  43.911   3.045
34715W        W 7140  27.026  28.525  12.180
34716W        W 7141  14.879  28.538  14.449
34717W        W 7142  44.801  39.126   2.896
34718W        W 7143   0.636  11.874  13.884
34719W        W 7144   4.183  37.316   1.548
34720W        W 7145  41.770   8.856  13.545
34721W        W 7146   1.138  38.080   0.741
34722W        W 7147   5.531  38.519   2.758
34723W        W 7148   6.668   4.085   1.212
34724W        W 7149   9.295  11.317   4.148
34725W        W 7150  15.076  30.891   4.030
34726W        W 7151  16.179  41.126   0.509
34727W        W 7152   6.366  12.641   4.605
34728W        W 7153  16.523  12.647   0.055
34729W        W 7154  42.276  29.534  13.279
34730W        W 7155  26.430   7.715   0.823
34731W        W 7156   6.737  41.302   4.676
34732W        W 7157  30.324   6.822   2.260
34733W        W 7158   2.031  25.132  11.599
34734W        W 7159  12.576  37.063  12.683
34735W        W 7160  12.794  31.713  10.603
34736W        W 7161  32.169  41.796  13.433
34737W        W 7162  28.094  31.645  14.972
34738W        W 7163  18.817  28.500  13.059
34739W        W 7164  10.110  12.124   4.411
34740W        W 7165  25.870  23.484   1.240
34741W        W 7166  13.039   1.101   0.012
34742W        W 7167  35.055  43.809  14.027
34743W        W 7168   3.032  34.328  13.923
34744W        W 7169  37.109  40.263  11.110
34745W        W 7170   1.250  14.148   4.203
34746W        W 7171  44.468  37.043  10.675
34747W        W 7172  21.075  38.580  13.475
34748W        W 7173  33.875  42.537  13.032
34749W        W 7174  19.797  40.957   2.238
34750W        W 7175  23.626  15.937  11.355
34751W        W 7176  38.965   8.972   3.656
34752W        W 7177  28.160  44.348   0.747
34753W        W 7178  16.645  18.772   4.362
34754W        W 7179  17.306  43.251   0.721
34755W        W 7180  34.880  44.141  12.474
34756W        W 7181  23.562  14.379   1.775
34757W        W 7182  22.261  20.487   3.283
34758W        W 7183  31.205  24.249   0.764
34759W        W 7184  32.053  17.232   0.843
34760W        W 7185  22.999  30.688   2.862
34761W        W 7186   0.828  21.904  13.444
34762W        W 7187  19.660  24.341   4.862
34763W        W 7188  27.100  23.081  14.751
34764W        W 7189  14.324   7.313  14.788
34765W        W 7190  17.871  25.010  13.371
34766W        W 7191  38.048  33.538  13.297
34767W        W 7192  26.872  14.882   1.514
34768W        W 7193   1.795   9.048   0.023
34769W        W 7194  35.633  21.435  11.027
34770W        W 7195   4.908  17.622  10.577
34771W        W 7196  20.675  20.286   0.476
34772W        W 7197  23.624  18.256  12.849
34773W        W 7198   6.825  39.507   2.655
34774W        W 7199  30.136  13.444  13.662
34775W        W 7200   7.127  27.229  11.157
34776W        W 7201  37.473   2.273  10.577
34777W        W 7202   9.345  31.935  13.464
34778W        W 7203  28.674  25.805   3.339
34779W        W 7204  14.883   3.679   0.826
34780W        W 7205  26.260   5.434   3.857
34781W        W 7206  22.140   5.863  12.916
34782W        W 7207  30.352  23.372   3.838
34783W        W 7208  44.432  30.869   3.823
34784W        W 7209   2.401   3.402   1.063
34785W        W 7210   7.907   9.502  11.676
34786W        W 7211  10.628  28.098  12.875
34787W        W 7212   6.158   1.111  14.927
34788W        W 7213   2.398  19.655  13.520
34789W        W 7214  40.299  42.529  11.969
34790W        W 7215   0.715  21.953   2.736
34791W        W 7216  31.159  14.231  13.053
34792W        W 7217  42.837  40.728  14.365
34793W        W 7218  10.189  38.858   0.931
34794W        W 7219  42.257  24.522   4.196
34795W        W 7220  28.403  26.491   0.199
34796W        W 7221   7.906  18.000   4.141
34797W        W 7222  25.992  23.547  12.950
34798W        W 7223  13.845   0.475   3.112
34799W        W 7224   0.465  30.102   0.771
34800W        W 7225  23.639  30.737  13.911
34801W        W 7226  23.982  43.952   0.411
34802W        W 7227   3.754  28.546   3.533
34803W        W 7228  31.505  23.472   2.811
34804W        W 7229  19.188  31.031   2.875
34805W        W 7230  14.149  16.494   4.543
34806W        W 7231  31.944  32.045   1.258
34807W        W 7232   3.963   8.495   0.470
34808W        W 7233  33.152   7.734   4.611
34809W        W 7234  27.138  28.133  11.388
34810W        W 7235  17.084  41.136  11.576
34811W        W 7236  40.808   1.270  12.034
34812W        W 7237  16.163  40.438   4.121
34813W        W 7238  39.352  23.166  11.840
34814W        W 7239  23.776   2.938  12.592
34815W        W 7240  29.008  23.083   1.948
34816W        W 7241  37.503  36.580   0.774
34817W        W 7242  12.962  15.370  12.202
34818W        W 7243  10.118  24.994  11.742
34819W        W 7244  16.592  11.199   1.244
34820W        W 7245  27.370  13.820  13.406
34821W        W 7246   9.136  35.627   2.264
34822W        W 7247   3.748   1.164   3.342
34823W        W 7248  23.929  11.208   1.320
34824W        W 7249  32.583  11.925  10.720
34825W        W 7250  11.305   7.633  10.645
34826W        W 7251   7.020   9.075  11.440
34827W        W 7252   9.821   5.110   3.994
34828W        W 7253  24.246  17.616  11.664
34829W        W 7254  12.244  20.771  10.584
34830W        W 7255  22.973  36.331   2.133
34831W        W 7256  11.688  30.459  13.898
34832W        W 7257   5.473   8.376  12.121
34833W        W 7258  20.934  10.258  11.148
34834W        W 7259  33.001   5.091   4.457
34835W        W 7260   7.768   5.223   1.720
34836W        W 7261  41.933  39.988  14.039
34837W        W 7262  14.132  16.850  13.264
34838W        W 7263   9.800  36.958   0.479
34839W        W 7264   4.414   4.366  12.033
34840W        W 7265  35.433  17.739   1.613
34841W        W 7266  39.890   8.116  10.676
34842W        W 7267  12.344  27.696  14.350
34843W        W 7268  40.562   7.925   3.186
34844W        W 7269  31.097  42.795  12.170
34845W        W 7270  42.175  30.395   5.148
34846W        W 7271   7.931  12.627  13.789
34847W        W 7272  21.112  21.109  12.941
34848W        W 7273  30.131   5.903   1.379
34849W        W 7274  19.735  12.788   3.153
34850W        W 7275  33.963  31.293   2.924
34851W        W 7276  14.392  42.438  12.580
34852W        W 7277  17.317  15.851  14.462
34853W        W 7278  44.814  36.392  12.617
34854W        W 7279  13.301   0.381   0.631
34855W        W 7280  25.490  43.953   1.577
34856W        W 7281  30.542  13.762  12.906
34857W        W 7282  27.136  12.361  11.920
34858W        W 7283  32.973  31.848  13.390
34859W        W 7284  21.772  18.589   3.666
34860W        W 7285  21.733  36.558  13.839
34861W        W 7286   7.089  19.645   4.574
34862W        W 7287  29.474   6.397  10.699
34863W        W 7288   8.198  30.772   2.370
34864W        W 7289  28.220   1.864   2.119
34865W        W 7290   6.718  41.632   2.886
34866W        W 7291  17.653  14.695   0.457
34867W        W 7292  35.578  21.822  14.428
34868W        W 7293  12.374   5.801  13.344
34869W        W 7294  16.760  43.207  13.942
34870W        W 7295  30.082  34.548  12.285
34871W        W 7296  29.840  30.037   4.382
34872W        W 7297   2.854  19.702  14.811
34873W        W 7298  14.637   4.479   2.522
34874W        W 7299  43.875  18.789   2.235
34875W        W 7300  13.133  29.397   4.209
34876W        W 7301   6.715  30.542   3.653
34877W        W 7302  15.847  38.136   2.778
34878W        W 7303  35.710  38.895   0.462
34879W        W 7304  34.274  21.082   0.935
34880W        W 7305  38.030  22.490  13.443
34881W        W 7306  39.827  31.890  13.352
34882W        W 7307  42.125   8.101  14.788
34883W        W 7308  40.320  38.608   3.298
34884W        W 7309  44.452  34.594   5.520
34885W        W 7310   0.858   6.400   4.638
34886W        W 7311  13.328   9.866  14.968
34887W        W 7312  30.652  41.509  13.793
34888W        W 7313  16.600  43.316  10.390
34889W        W 7314  41.232   5.158  14.753
34890W        W 7315  14.921  18.508   0.011
34891W        W 7316  44.613  18.604  10.994
34892W        W 7317  11.580  19.833  11.802
34893W        W 7318  31.512  19.620   1.486
34894W        W 7319  23.344  12.159  14.938
34895W        W 7320  44.241  31.799   3.751
34896W        W 7321   1.842  12.735   4.112
34897W        W 7322  12.371  40.826  14.059
34898W        W 7323  34.137  37.613  11.024
34899W        W 7324   1.391  37.141   1.908
34900W        W 7325   8.193  12.896  13.032
34901W        W 7326  23.006  22.931  13.830
34902W        W 7327  25.964  36.562  13.395
34903W        W 7328  23.440   5.357   4.172
34904W        W 7329   9.432  12.385  11.348
34905W        W 7330  43.275  35.087  14.779
34906W        W 7331   4.024  41.198  11.170
34907W        W 7332  16.801  18.117  13.371
34908W        W 7333  12.400  40.846   2.218
34909W        W 7334  24.400  30.460   9.803
34910W        W 7335  33.118  22.113  12.671
34911W        W 7336  18.842  22.688   0.260
34912W        W 7337   6.812  40.648   1.832
34913W        W 7338  28.193   5.773   3.069
34914W        W 7339   5.138  15.525  11.489
34915W        W 7340  21.199  35.909  12.860
34916W        W 7341  18.405  28.490   1.250
34917W        W 7342  41.061  43.791   0.976
34918W        W 7343   2.388  34.090  12.026
34919W        W 7344  18.727  26.701  14.955
34920W        W 7345  20.786  38.813  11.931
34921W        W 7346   9.336  23.939   4.991
34922W        W 7347  29.673   9.451  12.968
34923W        W 7348  42.465   8.980   0.842
34924W        W 7349  37.962  36.521  11.896
34925W        W 7350  30.016  37.304   4.955
34926W        W 7351  30.181  35.885  10.761
34927W        W 7352  25.142   9.157  12.495
34928W        W 7353   1.431  18.541  12.045
34929W        W 7354   3.418  15.221   3.944
34930W        W 7355  29.852  20.664  13.855
34931W        W 7356  14.578   5.750  14.507
34932W        W 7357   8.114  43.166   2.710
34933W        W 7358  44.010  39.527  12.048
34934W        W 7359  39.486  19.274   4.802
34935W        W 7360  25.559  14.563  12.523
34936W        W 7361   2.991  41.259  13.049
34937W        W 7362  41.483  38.876   1.881
34938W        W 7363  37.708   9.100   9.787
34939W        W 7364  21.338  24.815  10.697
34940W        W 7365  19.560  37.281   0.847
34941W        W 7366  21.811  37.082   1.913
34942W        W 7367   3.523  33.391   2.356
34943W        W 7368  15.766  23.242   2.392
34944W        W 7369  23.617  33.878   3.868
34945W        W 7370  37.576  39.973   4.223
34946W        W 7371   4.184  20.770   0.699
34947W        W 7372  20.320  16.491  11.476
34948W        W 7373  44.584  19.126   4.104
34949W        W 7374  37.443  18.262  12.585
34950W        W 7375  37.901  15.863   2.283
34951W        W 7376  42.276  28.588  11.888
34952W        W 7377   1.736  30.481   2.828
34953W        W 7378  10.729  28.980   0.727
34954W        W 7379   2.105   6.274  11.523
34955W        W 7380  11.885  35.736   5.143
34956W        W 7381  43.054  32.659  12.886
34957W        W 7382  31.112  14.573   2.601
34958W        W 7383  19.688  34.932  13.316
34959W        W 7384  27.206  14.600  10.714
34960W        W 7385  13.416  25.598   4.427
34961W        W 7386  41.213  23.193  11.184
34962W        W 7387  12.393  24.611  12.450
34963W        W 7388  15.764  10.741   3.135
34964W        W 7389  17.258  41.124  12.592
34965W        W 7390  24.613  43.544   1.417
34966W        W 7391  30.475  41.923   4.072
34967W        W 7392  37.781  44.755   1.477
34968W        W 7393  33.140  14.415  11.366
34969W        W 7394  38.339  43.573  12.139
34970W        W 7395  24.653   5.212   3.588
34971W        W 7396  43.597  34.408  10.488
34972W        W 7397   8.624  15.477  11.577
34973W        W 7398  23.209  20.970  13.534
34974W        W 7399   5.451  39.465  11.635
34975W        W 7400   8.219  20.140  11.697
34976W        W 7401  19.861   0.116  13.839
34977W        W 7402  34.837  32.301   4.977
34978W        W 7403  28.539  40.252   0.797
34979W        W 7404  12.401  22.085  13.120
34980W        W 7405  21.547   2.979  11.600
34981W        W 7406   9.170   2.794  13.512
34982W        W 7407  21.830  21.173   0.528
34983W        W 7408  17.501   4.799  10.597
34984W        W 7409  43.213  24.903   0.386
34985W        W 7410  13.013  15.256  14.324
34986W        W 7411   1.481   2.569   1.997
34987W        W 7412  10.748  35.881  12.406
34988W        W 7413  39.022  31.990   2.857
34989W        W 7414   2.549  35.620  14.913
34990W        W 7415   3.189  27.694   2.343
34991W        W 7416  21.115  23.733  13.843
34992W        W 7417  17.554   3.893  12.508
34993W        W 7418  21.745  19.838  13.299
34994W        W 7419   2.247  16.929  13.773
34995W        W 7420   5.172  10.585  11.939
34996W        W 7421  18.953  35.092  11.050
34997W        W 7422  14.893   9.425  13.356
34998W        W 7423  26.894  15.169  12.589
34999W        W 7424  27.593   8.823  14.431
35000W        W 7425  41.969  16.138   2.721
35001W        W 7426  39.083  35.912   1.345
35002W        W 7427  33.947   0.826   0.974
35003W        W 7428   3.444  27.517  14.471
35004W        W 7429  29.438  36.073  13.517
35005W        W 7430  17.492  19.224   3.575
35006W        W 7431  33.063   9.689  11.155
35007W        W 7432  40.879   2.780  13.808
35008W        W 7433   8.639  41.305  12.398
35009W        W 7434  18.582  14.048  13.848
35010W        W 7435   7.952  21.649  13.420
35011W        W 7436   7.612   2.370   1.457
35012W        W 7437  12.392  16.578  14.323
35013W        W 7438  39.972  33.140   0.833
35014W        W 7439  26.979  14.263   2.158
35015W        W 7440  40.430  27.291  13.471
35016W        W 7441   6.183  11.369   4.447
35017W        W 7442  26.086  31.954   0.770
35018W        W 7443  29.703   7.311   4.242
35019W        W 7444  16.796  37.914   1.890
35020W        W 7445  20.733   0.919  10.790
35021W        W 7446   8.919  36.151   4.907
35022W        W 7447   6.406  18.360  14.877
35023W        W 7448  40.395  18.336   2.800
35024W        W 7449   8.115  27.074   0.359
35025W        W 7450   6.498  27.715  14.548
35026W        W 7451  34.009  41.320   2.224
35027W        W 7452  35.585   6.411  14.914
35028W        W 7453  32.150  20.592  14.964
35029W        W 7454  13.785   1.582  14.694
35030W        W 7455  21.711  40.039   1.836
35031W        W 7456   3.694   9.739  13.861
35032W        W 7457   7.821  35.860   4.503
35033W        W 7458  21.228  28.599  12.863
35034W        W 7459  13.649  26.945   0.862
35035W        W 7460  17.618  12.597  14.946
35036W        W 7461  10.828   2.837  14.314
35037W        W 7462  33.972   0.358   3.080
35038W        W 7463  24.637   3.024  11.666
35039W        W 7464   6.765  11.176   3.320
35040W        W 7465   4.762   1.380   4.602
35041W        W 7466  44.644  27.405   3.179
35042W        W 7467  25.906  22.428  14.207
35043W        W 7468   8.030  22.171   0.986
35044W        W 7469   5.801   3.382  13.501
35045W        W 7470  42.522   6.688  12.128
35046W        W 7471   9.810  17.721   2.443
35047W        W 7472  32.557  34.343   1.437
35048W        W 7473   2.454  41.883   0.007
35049W        W 7474  18.423  26.279   3.782
35050W        W 7475  23.800  24.545  12.966
35051W        W 7476  43.483  25.242   3.166
35052W        W 7477   7.424  20.224  13.900
35053W        W 7478  21.069  11.173   3.776
35054W        W 7479  28.520   9.063  10.593
35055W        W 7480   1.170  19.695   3.759
35056W        W 7481   8.066   6.373   4.488
35057W        W 7482   6.664  41.539  10.719
35058W        W 7483  33.718  25.918  11.063
35059W        W 7484  28.728  26.982  14.459
35060W        W 7485  36.005  31.456   3.839
35061W        W 7486  19.693  13.760   3.298
35062W        W 7487  18.875  18.072  11.512
35063W        W 7488  11.716  17.976  12.162
35064W        W 7489   2.686  16.259   0.742
35065W        W 7490  22.011  11.702   2.704
35066W        W 7491  16.253  38.312  13.544
35067W        W 7492  32.469   8.907  10.947
35068W        W 7493   9.668   9.849   0.989
35069W        W 7494  29.645  32.475   3.142
35070W        W 7495  11.294  10.218  11.302
35071W        W 7496  26.386  15.193  12.718
35072W        W 7497  41.991  12.609   4.856
35073W        W 7498  23.092  12.421  12.587
35074W        W 7499   0.001  21.554   0.387
35075W        W 7500  44.796  35.263   0.848
35076W        W 7501   1.859   6.219  14.391
35077W        W 7502  23.952  30.650  12.456
35078W        W 7503  37.300  33.410   1.324
35079W        W 7504  35.523  38.477  10.573
35080W        W 7505   1.327  43.419   4.198
35081W        W 7506  25.951   2.929  13.891
35082W        W 7507  31.465  24.703   2.829
35083W        W 7508  40.741  38.876   3.198
35084W        W 7509  32.922  10.521  13.335
35085W        W 7510  23.856  21.672  14.027
35086W        W 7511  44.379  40.944   3.357
35087W        W 7512  31.828   5.493   3.139
35088W        W 7513  10.285  35.806   0.785
35089W        W 7514  24.016  32.818   9.897
35090W        W 7515   0.907  15.300  11.422
35091W        W 7516  40.720  30.845  11.750
35092W        W 7517  36.379   6.199  14.325
35093W        W 7518  21.866  37.392  13.280
35094W        W 7519  36.826  21.203   2.443
35095W        W 7520  13.172  25.927  13.889
35096W        W 7521  19.694  43.589   4.675
35097W        W 7522  36.521  37.235   3.351
35098W        W 7523  21.233  18.987  13.588
35099W        W 7524  41.996   4.389   2.155
35100W        W 7525  25.678   6.718  13.989
35101W        W 7526  41.534  30.169   2.711
35102W        W 7527  13.339   3.248   0.736
35103W        W 7528   0.429  11.548  11.663
35104W        W 7529  41.729  30.504  11.577
35105W        W 7530  15.108  20.341  12.194
35106W        W 7531  27.119  11.039   1.931
35107W        W 7532  23.629  38.490  12.282
35108W        W 7533  39.354  19.788   3.628
35109W        W 7534  35.525  33.543   4.630
35110W        W 7535   1.719  28.692   2.644
35111W        W 7536  20.244  30.521   2.567
35112W        W 7537  18.810  34.401   2.194
35113W        W 7538  28.906  28.333  11.220
35114W        W 7539  20.919   4.424  13.408
35115W        W 7540   6.263  44.125  11.876
35116W        W 7541  15.708  23.618  13.985
35117W        W 7542   8.476  29.540   0.046
35118W        W 7543  28.217  36.769  12.476
35119W        W 7544   5.279  21.306  13.822
35120W        W 7545   3.898  12.742  12.184
35121W        W 7546   0.840  34.932  14.538
35122W        W 7547  28.625  26.501  13.727
35123W        W 7548  12.679   0.944   4.792
35124W        W 7549  36.444  39.332   4.214
35125W        W 7550  21.300  36.899   3.146
35126W        W 7551   2.879   6.653   2.532
35127W        W 7552  43.345  42.678   4.615
35128W        W 7553  16.414   4.903   4.522
35129W        W 7554  13.846  20.596  14.926
35130W        W 7555  20.748  15.176   2.339
35131W        W 7556  44.934  27.073  10.651
35132W        W 7557  39.489  14.250  12.562
35133W        W 7558  26.698   2.357   4.232
35134W        W 7559  24.372  19.791  10.337
35135W        W 7560  19.246  21.305   2.289
35136W        W 7561  41.948  19.317  11.127
35137W        W 7562   6.910  34.162  14.396
35138W        W 7563  24.433   9.780   2.742
35139W        W 7564  16.310  18.016  12.496
35140W        W 7565  22.979   5.527  14.318
35141W        W 7566  32.340  14.512   0.505
35142W        W 7567   0.954  40.473  12.276
35143W        W 7568   1.299  16.076   0.210
35144W        W 7569  32.331  20.803   2.390
35145W        W 7570  21.640  41.409   1.024
35146W        W 7571   2.229  23.088   1.864
35147W        W 7572   0.412  41.313  13.898
35148W        W 7573  18.520  16.798   0.014
35149W        W 7574  30.977  11.844   4.854
35150W        W 7575   8.282  43.416  10.965
35151W        W 7576  30.214  21.785  12.952
35152W        W 7577  32.518   1.064   2.264
35153W        W 7578  29.219  35.038  13.003
35154W        W 7579  19.462  24.978  13.192
35155W        W 7580  20.676  12.088  12.445
35156W        W 7581  12.153  23.688   1.406
35157W        W 7582  16.163  19.579   3.976
35158W        W 7583  16.575   4.979  10.669
35159W        W 7584   6.917  25.416   4.039
35160W        W 7585  38.153  39.909  13.961
35161W        W 7586  41.611  42.858  14.213
35162W        W 7587  42.329  13.644   3.415
35163W        W 7588  35.663  10.672   2.112
35164W        W 7589  11.648  44.546   1.212
35165W        W 7590  28.223   9.441  14.466
35166W        W 7591  28.280  34.816  13.356
35167W        W 7592  35.050  36.653  14.017
35168W        W 7593  37.983   7.821  10.175
35169W        W 7594  27.941  29.151   1.721
35170W        W 7595  43.827   2.917  11.981
35171W        W 7596   6.481  30.119  12.575
35172W        W 7597  20.621  43.622  13.775
35173W        W 7598  25.635   6.965  12.268
35174W        W 7599   0.280  24.549  12.965
35175W        W 7600  26.293  24.664  11.905
35176W        W 7601  25.479  26.401  10.204
35177W        W 7602  12.330  13.078  11.439
35178W        W 7603  30.856  30.045   4.128
35179W        W 7604  13.545  44.578  12.523
35180W        W 7605   9.778  30.727   3.161
35181W        W 7606  41.080   6.850  14.961
35182W        W 7607  30.085   4.327   0.875
35183W        W 7608   0.313  11.364  12.543
35184W        W 7609  18.244   2.405   2.148
35185W        W 7610   9.939  40.198  13.134
35186W        W 7611  34.528  37.585  13.027
35187W        W 7612  22.691   6.644  13.896
35188W        W 7613   1.060  11.731  14.843
35189W        W 7614  34.845   1.789  14.723
35190W        W 7615  11.757  39.029  14.582
35191W        W 7616  11.873   3.444   1.905
35192W        W 7617  20.120  30.651  12.523
35193W        W 7618  37.981  12.976   4.693
35194W        W 7619  27.875   0.431  13.520
35195W        W 7620   8.690  22.528  14.011
35196W        W 7621  43.449  41.279  13.807
35197W        W 7622  37.498  39.775  13.045
35198W        W 7623  36.098  37.268  13.438
35199W        W 7624   8.011  13.384  10.730
35200W        W 7625  10.694   6.892   3.714
35201W        W 7626  27.690  30.452  13.876
35202W        W 7627  37.253  30.610   2.490
35203W        W 7628   6.124  24.733   3.929
35204W        W 7629  35.922  29.231   1.408
35205W        W 7630  13.425  41.558  11.511
35206W        W 7631   2.876  33.240   2.854
35207W        W 7632   1.454  13.618  12.508
35208W        W 7633  41.747  38.836   2.344
35209W        W 7634  18.402   0.979  14.983
35210W        W 7635  13.445  18.141   3.174
35211W        W 7636  19.325  30.406   4.072
35212W        W 7637  40.801   2.642   4.559
35213W        W 7638  31.323  21.533   1.435
35214W        W 7639  43.467  40.494   1.041
35215W        W 7640  37.839  29.244  14.525
35216W        W 7641  32.444  39.067   0.347
35217W        W 7642  11.936  26.320  11.907
35218W        W 7643  43.281  43.411  11.040
35219W        W 7644   0.564  21.941   3.226
35220W        W 7645   4.204  28.615   4.285
35221W        W 7646  44.975  17.606  12.124
35222W        W 7647  27.069  40.963   1.804
35223W        W 7648   6.440   8.817   4.196
35224W        W 7649  23.635  13.548   3.879
35225W        W 7650  23.673   5.876   2.724
35226W        W 7651   8.838  17.623   2.298
35227W        W 7652   2.496  36.795   0.325
35228W        W 7653  29.244   7.532  12.766
35229W        W 7654  31.429  22.027   1.336
35230W        W 7655  16.026  43.089   1.921
35231W        W 7656  44.208  39.168  11.484
35232W        W 7657  38.334  10.178   2.299
35233W        W 7658  30.279   4.837   0.709
35234W        W 7659  11.796   2.051   0.917
35235W        W 7660  29.827  13.272  11.825
35236W        W 7661  19.152  38.291  14.529
35237W        W 7662  22.322  23.901  12.474
35238W        W 7663  28.019  25.168  11.060
35239W        W 7664  16.041  17.855   2.298
35240W        W 7665  23.789  28.959   3.479
35241W        W 7666   7.172  40.545  14.492
35242W        W 7667   0.221   9.394  11.910
35243W        W 7668  25.901  15.692   4.564
35244W        W 7669  39.888  19.779  11.069
35245W        W 7670  21.696  30.882   2.224
35246W        W 7671  21.172   2.803  12.550
35247W        W 7672   5.877  37.408   3.454
35248W        W 7673   3.754  38.956  10.925
35249W        W 7674   5.851  34.753   0.461
35250W        W 7675  31.125  43.787  11.949
35251W        W 7676  28.234  11.783  10.494
35252W        W 7677  32.365  39.862   2.744
35253W        W 7678  22.133  23.642  13.911
35254W        W 7679  44.884  24.187   1.321
35255W        W 7680  18.668  24.092  11.094
35256W        W 7681  44.260  33.578   1.282
35257W        W 7682  35.424   0.837  12.371
35258W        W 7683   2.082  43.482  11.549
35259W        W 7684   7.938  19.573   3.143
35260W        W 7685   8.188  37.972  12.308
35261W        W 7686   2.838  44.572   4.285
35262W        W 7687  29.093   8.326   2.543
35263W        W 7688  25.232  14.461  14.297
35264W        W 7689  14.227  43.440  12.430
35265W        W 7690  22.558  40.133  12.591
35266W        W 7691  23.735  16.516   3.965
35267W        W 7692  22.605   9.330   1.712
35268W        W 7693  36.067  23.491  14.375
35269W        W 7694  28.413  10.770   4.673
35270W        W 7695  26.871  11.681  13.923
35271W        W 7696   4.802  38.762   4.320
35272W        W 7697  41.401  41.402  13.253
35273W        W 7698  28.176  39.535  13.468
35274W        W 7699  26.031  40.249  14.807
35275W        W 7700  44.225   2.269  10.665
35276W        W 7701   7.416  39.083   4.242
35277W        W 7702  38.367  30.237   5.109
35278W        W 7703  14.086  25.423   3.232
35279W        W 7704  41.119   1.840   0.314
35280W        W 7705  11.938  36.939   2.825
35281W        W 7706  27.090  14.105   2.706
35282W        W 7707  20.033  36.960   0.608
35283W        W 7708  27.379  17.178   1.445
35284W        W 7709  12.180  33.958   3.696
35285W        W 7710   8.463  42.060   4.894
35286W        W 7711  31.732  18.870   0.857
35287W        W 7712  35.436   4.248  12.994
35288W        W 7713  27.207  30.587  10.265
35289W        W 7714   2.690  43.213  13.994
35290W        W 7715   7.767  41.400  11.629
35291W        W 7716  24.918   3.798   3.648
35292W        W 7717  42.914  26.678   0.991
35293W        W 7718   4.883  34.428  10.342
35294W        W 7719  29.521  37.230  11.839
35295W        W 7720  21.391  15.981   4.084
35296W        W 7721  42.091  33.980   1.634
35297W        W 7722  36.639  11.701   0.155
35298W        W 7723  20.152   9.655   3.803
35299W        W 7724  16.693  26.540  12.620
35300W        W 7725  12.893   4.523   0.222
35301W        W 7726  12.989  14.744  11.154
35302W        W 7727  27.231  25.554  14.406
35303W        W 7728  20.915   3.892  11.808
35304W        W 7729  37.002  11.234  12.112
35305W        W 7730  34.476   2.052  11.575
35306W        W 7731  36.536   8.794  13.954
35307W        W 7732   4.513  35.849   1.914
35308W        W 7733  41.489  35.426   1.212
35309W        W 7734  28.864  40.701  12.930
35310W        W 7735  29.004  40.026   3.455
35311W        W 7736  42.752  29.100  14.609
35312W        W 7737   4.155  11.522   1.031
35313W        W 7738  22.987  25.458  10.672
35314W        W 7739  29.906  25.676   0.894
35315W        W 7740  32.920  29.173   1.413
35316W        W 7741   0.930  31.926   0.951
35317W        W 7742  34.240   4.129   0.667
35318W        W 7743  32.514   6.423  11.345
35319W        W 7744  34.348  10.093   3.247
35320W        W 7745  13.113  10.314  14.745
35321W        W 7746  39.332   9.467   2.767
35322W        W 7747   0.712  28.725  13.824
35323W        W 7748  38.114   1.404   3.740
35324W        W 7749  33.788  41.948   4.326
35325W        W 7750  20.288  18.602   3.788
35326W        W 7751  24.285  42.347   2.363
35327W        W 7752   9.289  31.821   2.229
35328W        W 7753   7.604  20.659   2.138
35329W        W 7754  37.321   5.502  13.008
35330W        W 7755  20.055  13.294  11.239
35331W        W 7756  20.075  36.372  12.114
35332W        W 7757  21.052  29.890  12.132
35333W        W 7758   3.793  39.096   4.106
35334W        W 7759  38.995  19.330   4.919
35335W        W 7760  41.024  22.118  11.198
35336W        W 7761  43.598  33.008   1.826
35337W        W 7762   3.293   8.314   2.715
35338W        W 7763  28.620  18.763  13.497
35339W        W 7764  41.491  19.363   3.227
35340W        W 7765  29.089  23.991   1.794
35341W        W 7766  41.429  41.053  12.803
35342W        W 7767  33.284  31.202   3.581
35343W        W 7768  12.736  21.021   3.761
35344W        W 7769   7.989  29.686  14.801
35345W        W 7770  38.750  38.449   2.643
35346W        W 7771  29.033  39.544   2.660
35347W        W 7772  13.205   3.384   5.054
35348W        W 7773  44.778   6.344   4.819
35349W        W 7774  15.260  41.938   1.823
35350W        W 7775   6.340   8.239   1.597
35351W        W 7776   6.940  21.872  12.107
35352W        W 7777  35.489  40.538  10.696
35353W        W 7778  20.638  40.120   0.417
35354W        W 7779  38.543   5.857   2.450
35355W        W 7780  44.423  13.700  12.356
35356W        W 7781  44.934  23.140   4.588
35357W        W 7782  26.665  28.751   2.582
35358W        W 7783  11.269  39.839  12.730
35359W        W 7784   2.399  19.168   2.191
35360W        W 7785  13.280  29.844   3.280
35361W        W 7786  36.736  14.936  11.458
35362W        W 7787  21.290  38.936   0.156
35363W        W 7788  38.886  13.301  10.935
35364W        W 7789   0.776  10.842   3.663
35365W        W 7790  31.586  16.796   4.894
35366W        W 7791  12.437  31.380   3.398
35367W        W 7792  31.970   6.164   4.319
35368W        W 7793  41.400  32.694   0.969
35369W        W 7794  40.344  39.407  10.538
35370W        W 7795  15.874  16.337  14.333
35371W        W 7796  25.505  29.553   2.243
35372W        W 7797   3.300  27.577  14.968
35373W        W 7798  16.559  41.776  14.315
35374W        W 7799  19.409  18.056   1.732
35375W        W 7800  17.509  34.511  10.604
35376W        W 7801  10.391   2.093  11.902
35377W        W 7802   1.423  33.122   1.986
35378W        W 7803  44.036  26.693   4.646
35379W        W 7804  35.037  31.524   1.375
35380W        W 7805  32.431  32.536  11.971
35381W        W 7806  34.660  42.237   4.772
35382W        W 7807   6.059  26.978  12.029
35383W        W 7808   3.420  17.021   5.227
35384W        W 7809   9.695  37.678  13.471
35385W        W 7810  33.688  33.056   2.309
35386W        W 7811  31.936  26.712  12.947
35387W        W 7812  28.618  27.722   0.751
35388W        W 7813  33.326  16.283   3.151
35389W        W 7814   2.904   0.884  14.039
35390W        W 7815   9.719  44.112  14.566
35391W        W 7816  17.656  11.655  12.431
35392W        W 7817  41.758  40.490  12.037
35393W        W 7818  32.871   4.512  13.004
35394W        W 7819  44.965  14.381   4.654
35395W        W 7820   0.662  29.232  10.485
35396W        W 7821  43.314   4.813   2.014
35397W        W 7822  21.514  30.860   2.713
35398W        W 7823  17.041  37.092   4.287
35399W        W 7824   8.962   7.739  11.838
35400W        W 7825  43.061  11.159  10.830
35401W        W 7826  21.093  13.860  12.549
35402W        W 7827   7.317  40.092   4.312
35403W        W 7828  16.681  42.787   4.551
35404W        W 7829  21.766  11.290  13.367
35405W        W 7830  21.931  12.607   5.066
35406W        W 7831  13.275   2.068  14.965
35407W        W 7832  38.914  26.963   1.264
35408W        W 7833  22.290  30.405  14.060
35409W        W 7834   5.198  33.138  11.540
35410W        W 7835  32.015  44.184  14.646
35411W        W 7836  18.227  44.796   3.234
35412W        W 7837  31.555  28.767   2.787
35413W        W 7838  13.587  36.777  12.427
35414W        W 7839  35.657  32.076  14.072
35415W        W 7840  36.266  26.162  12.595
35416W        W 7841  12.580  44.386  12.502
35417W        W 7842  26.615  25.984   1.882
35418W        W 7843  32.416   8.163  12.483
35419W        W 7844   5.197  37.978  12.123
35420W        W 7845  27.230  44.792   1.972
35421W        W 7846  29.585  12.054  11.111
35422W        W 7847  15.821  28.253  14.086
35423W        W 7848  44.544  42.335  12.322
35424W        W 7849  35.799   4.660  14.937
35425W        W 7850  16.279  32.414   2.435
35426W        W 7851   9.314   1.067   0.283
35427W        W 7852  39.511  30.323  13.977
35428W        W 7853  26.579   0.039  11.317
35429W        W 7854   2.472  40.662   2.328
35430W        W 7855   5.338  15.745  13.955
35431W        W 7856  19.596  42.911  12.302
35432W        W 7857   9.551   5.264   3.577
35433W        W 7858  10.156  14.397  10.924
35434W        W 7859  35.198  27.251  14.400
35435W        W 7860  10.443   5.779   2.800
35436W        W 7861  44.894  24.569  14.627
35437W        W 7862  42.082  27.084  10.915
35438W        W 7863  24.475  35.137  13.403
35439W        W 7864   9.632  17.088   2.807
35440W        W 7865  43.524   4.696   3.361
35441W        W 7866  26.405  24.046  11.052
35442W        W 7867   5.962   1.598  11.158
35443W        W 7868   0.609   0.137   2.257
35444W        W 7869  16.015   7.258  10.603
35445W        W 7870  24.084   9.107  14.307
35446W        W 7871  13.874  38.008   3.232
35447W        W 7872  42.924  43.434   2.589
35448W        W 7873   6.856   6.423  14.237
35449W        W 7874  38.796   6.224  12.386
35450W        W 7875   8.866  21.370   2.384
35451W        W 7876  24.631  29.467  13.577
35452W        W 7877  10.724  26.886  12.439
35453W        W 7878  28.343   9.364   2.698
35454W        W 7879  30.107   8.234  11.681
35455W        W 7880  26.652  17.232   2.895
35456W        W 7881  15.173   0.456  14.476
35457W        W 7882   7.832  10.600  12.578
35458W        W 7883  27.505  39.444  11.933
35459W        W 7884  12.325   0.295   2.288
35460W        W 7885  13.831  32.160   4.192
35461W        W 7886  20.066  34.426  10.488
35462W        W 7887  44.417  36.517   4.068
35463W        W 7888   8.985  41.851   0.263
35464W        W 7889  34.459  26.851  12.318
35465W        W 7890  43.791  35.981  14.709
35466W        W 7891  36.391  21.939   4.734
35467W        W 7892  24.018   7.309  10.407
35468W        W 7893  23.135  14.555  14.816
35469W        W 7894  31.053   5.871   4.851
35470W        W 7895  23.063   1.376   4.171
35471W        W 7896   1.187  36.945  14.340
35472W        W 7897   2.459  17.131   2.185
35473W        W 7898  28.672  34.219   2.405
35474W        W 7899  41.814   2.246  13.861
35475W        W 7900  30.515  42.264  12.984
35476W        W 7901  35.537  24.685  12.589
35477W        W 7902  21.233  10.132  11.578
35478W        W 7903  18.190  32.419   4.104
35479W        W 7904   1.031   1.870   1.452
35480W        W 7905  41.449  26.184  12.807
35481W        W 7906  26.691  29.865   3.702
35482W        W 7907  14.211  11.848  14.551
35483W        W 7908   8.536  17.795  13.041
35484W        W 7909  26.637  34.104   0.960
35485W        W 7910  33.259  19.074   2.391
35486W        W 7911   1.302  13.348   2.743
35487W        W 7912  16.893  24.140   3.536
35488W        W 7913  13.823  36.466  12.866
35489W        W 7914  19.012  17.147  11.467
35490W        W 7915   2.226   0.744  13.001
35491W        W 7916   5.567  10.668  14.644
35492W        W 7917  28.173  40.617   0.330
35493W        W 7918  41.131  29.935   1.899
35494W        W 7919  15.714  34.639   3.590
35495W        W 7920   8.356   5.757   0.483
35496W        W 7921  30.059   7.319  12.969
35497W        W 7922  12.768  16.201  14.313
35498W        W 7923  42.537  14.926  13.370
35499W        W 7924   1.770  39.981   3.808
35500W        W 7925  20.221  17.889  12.493
35501W        W 7926  10.248  43.158   4.577
35502W        W 7927   2.837  11.898   4.584
35503W        W 7928  28.210  13.431  10.200
35504W        W 7929  31.277  21.129  10.757
35505W        W 7930  16.213  35.749   0.284
35506W        W 7931  44.255  20.725   1.842
35507W        W 7932   0.835  32.438   5.029
35508W        W 7933  30.011  29.065  12.379
35509W        W 7934  17.825  31.912   4.595
35510W        W 7935  16.139   8.403   3.326
35511W        W 7936  19.147  23.839  13.064
35512W        W 7937  10.441  44.971   0.491
35513W        W 7938  30.644  32.015  13.377
35514W        W 7939  18.230   7.377  12.957
35515W        W 7940  12.671   8.307  14.008
35516W        W 7941  21.011  17.976  12.437
35517W        W 7942  19.062  12.223  13.857
35518W        W 7943  19.530  11.866  10.948
35519W        W 7944  10.348  25.094   4.460
35520W        W 7945  25.064  12.274   3.209
35521W        W 7946  20.772   8.681  13.932
35522W        W 7947  41.025   0.560   2.031
35523W        W 7948  22.958  17.861   3.784
35524W        W 7949  24.162  25.257  12.463
35525W        W 7950  28.630  12.367   2.851
35526W        W 7951  22.230   4.856   2.809
35527W        W 7952  35.837   7.941  12.949
35528W        W 7953   5.463  25.077   2.149
35529W        W 7954  30.660  36.313   3.312
35530W        W 7955  34.053  10.429   0.457
35531W        W 7956  24.525  10.642   3.146
35532W        W 7957  24.982  33.292   0.448
35533W        W 7958  34.004   2.340   4.002
35534W        W 7959  29.132  18.280  13.306
35535W        W 7960  40.919  21.522  14.944
35536W        W 7961  40.478  20.201  14.896
35537W        W 7962  27.539  17.618  13.467
35538W        W 7963  43.566   0.323   1.748
35539W        W 7964  31.115  35.939   4.086
35540W        W 7965  32.447  21.855  12.963
35541W        W 7966  31.584  43.847  11.720
35542W        W 7967  43.343  11.407  11.913
35543W        W 7968  34.646  39.882   4.204
35544W        W 7969  32.776  21.565  11.475
35545W        W 7970  38.505  24.753   3.306
35546W        W 7971  17.625  12.258   1.710
35547W        W 7972  21.661  38.427  12.019
35548W        W 7973  10.121   9.657   0.785
35549W        W 7974  21.111   7.661   3.566
35550W        W 7975  28.623  12.779  12.932
35551W        W 7976  39.552  10.582  13.604
35552W        W 7977   2.179   0.301   2.267
35553W        W 7978  41.211  14.716  12.480
35554W        W 7979  12.685  20.798   1.848
35555W        W 7980  32.912  39.284  11.661
35556W        W 7981   7.732   7.393  12.659
35557W        W 7982  13.777  44.979  14.380
35558W        W 7983  11.273  20.270   3.318
35559W        W 7984  28.090  25.996  12.152
35560W        W 7985  39.055  21.616   3.349
35561W        W 7986  20.709  32.139   0.400
35562W        W 7987  27.151   0.491  10.966
35563W        W 7988  39.672  12.677  14.450
35564W        W 7989  18.588  16.244   0.820
35565W        W 7990   9.907   4.401  10.642
35566W        W 7991  40.586  10.701  10.326
35567W        W 7992   2.536   5.141  13.849
35568W        W 7993  19.040  27.140  13.433
35569W        W 7994  26.331   9.900  10.804
35570W        W 7995  36.963  15.721   2.252
35571W        W 7996   8.412   8.600   1.879
35572W        W 7997  25.903  32.539  13.492
35573W        W 7998   3.681  18.175   4.525
35574W        W 7999   3.946  40.942  13.022
35575W        W 8000   8.125  24.947  11.871
35576W        W 8001  31.945  15.462  13.429
35577W        W 8002   8.950  28.731   3.727
35578W        W 8003  42.082  24.954   4.459
35579W        W 8004  42.847  20.103  14.865
35580W        W 8005  29.009  14.121   4.909
35581W        W 8006   4.951   3.219  14.059
35582W        W 8007  44.277  27.095  13.981
35583W        W 8008  36.991  11.369  14.912
35584W        W 8009   3.131  31.732   0.419
35585W        W 8010  25.606  19.124  11.442
35586W        W 8011  35.965   9.815   0.283
35587W        W 8012   3.945  30.403  13.935
35588W        W 8013  17.773   2.399  13.013
35589W        W 8014  31.473  27.157   3.476
35590W        W 8015   8.262   0.784  11.279
35591W        W 8016  40.653  25.690   1.937
35592W        W 8017  42.894   2.711   4.226
35593W        W 8018   4.213   2.800  13.371
35594W        W 8019  28.991  27.507   3.549
35595W        W 8020  44.641   0.921  12.862
35596W        W 8021  22.663  23.656  11.210
35597W        W 8022  30.141  28.673   3.148
35598W        W 8023   0.363  30.236   2.159
35599W        W 8024  21.337   7.288   3.866
35600W        W 8025   0.983  18.668   4.255
35601W        W 8026  34.591  22.765  12.857
35602W        W 8027  37.426   1.004   1.712
35603W        W 8028  43.473  25.838  11.615
35604W        W 8029  35.417  39.475   2.514
35605W        W 8030  25.657   8.176   2.285
35606W        W 8031  24.021  28.086  11.290
35607W        W 8032  38.983  13.618  13.106
35608W        W 8033  40.816  39.011  13.805
35609W        W 8034  18.582   0.029   4.854
35610W        W 8035  42.442  36.552   1.769
35611W        W 8036  20.530  43.211   2.256
35612W        W 8037  44.448  24.644   2.887
35613W        W 8038  26.026   8.165  12.872
35614W        W 8039   6.732  40.359  11.469
35615W        W 8040  39.321  36.072   1.872
35616W        W 8041  43.427  14.650  10.829
35617W        W 8042  30.943   2.914  14.740
35618W        W 8043  25.662  32.140   1.557
35619W        W 8044   3.383  35.484  13.625
35620W        W 8045  43.781   1.862   1.142
35621W        W 8046  44.053  41.301   0.777
35622W        W 8047  10.337  10.769   3.722
35623W        W 8048  41.065  39.825  13.860
35624W        W 8049   3.913  27.258  14.465
35625W        W 8050  31.803  22.430  11.003
35626W        W 8051   2.077  30.391   3.712
35627W        W 8052  44.437  24.805  12.024
35628W        W 8053  32.063  34.310   1.295
35629W        W 8054  41.692  26.631  12.652
35630W        W 8055  20.130  28.617   2.906
35631W        W 8056  41.626  23.864   1.743
35632W        W 8057  26.462  17.988  11.661
35633W        W 8058  11.065  16.223  11.498
35634W        W 8059  25.866  26.403   3.758
35635W        W 8060   5.065   8.082   0.646
35636W        W 8061  35.667  41.390   4.587
35637W        W 8062  19.624  40.804  13.688
35638W        W 8063  44.742  23.011   3.058
35639W        W 8064   9.428  21.986   2.203
35640W        W 8065  20.270  10.696   5.156
35641W        W 8066  30.492  31.948   4.619
35642W        W 8067  32.061  34.957  12.858
35643W        W 8068  11.900  31.588  13.440
35644W        W 8069  13.825  27.071   1.396
35645W        W 8070  40.314  42.412   5.012
35646W        W 8071  44.506  32.053   0.321
35647W        W 8072   3.989  13.233   3.423
35648W        W 8073  16.189  42.777  12.692
35649W        W 8074  42.869  38.845  11.207
35650W        W 8075  13.408  26.169  13.475
35651W        W 8076  14.741  21.278   2.639
35652W        W 8077   7.710   4.038  14.715
35653W        W 8078  38.435  27.250   3.751
35654W        W 8079  22.223  26.519  13.906
35655W        W 8080  22.300   9.375  11.523
35656W        W 8081  23.679  10.816  11.408
35657W        W 8082  22.519  14.698   4.876
35658W        W 8083  17.207   5.138  10.851
35659W        W 8084  37.618  39.172  13.775
35660W        W 8085  32.704   3.808   4.632
35661W        W 8086  20.795  19.688  13.041
35662W        W 8087  21.142  19.668   1.129
35663W        W 8088  33.896  39.626  12.048
35664W        W 8089  14.161  17.197   2.414
35665W        W 8090  19.718   2.145   0.728
35666W        W 8091   2.730  41.017   0.849
35667W        W 8092  18.020  12.168   0.908
35668W        W 8093  21.208  26.656  12.330
35669W        W 8094  36.588   2.715   3.848
35670W        W 8095  12.345  34.848  13.169
35671W        W 8096  40.778  41.411   3.670
35672W        W 8097  43.879  17.268  11.301
35673W        W 8098  11.892  19.611   0.237
35674W        W 8099  24.165  18.702  12.563
35675W        W 8100   1.491  21.564   3.186
35676W        W 8101  23.199  41.618   2.679
35677W        W 8102  13.622  33.923   4.617
35678W        W 8103  15.709   7.904   0.472
35679W        W 8104  31.210  42.048  12.274
35680W        W 8105  22.220  25.452   4.064
35681W        W 8106  13.393  21.596  13.062
35682W        W 8107  28.853  15.160   2.182
35683W        W 8108  39.801  18.704   2.331
35684W        W 8109  37.502  34.929   0.405
35685W        W 8110   0.668  19.709  10.759
35686W        W 8111  40.453  22.308   0.986
35687W        W 8112  14.115   2.204   0.830
35688W        W 8113   1.266   3.103  13.402
35689W        W 8114  29.091  19.561   3.951
35690W        W 8115  44.549  19.757   1.911
35691W        W 8116  44.517  21.131   4.073
35692W        W 8117  16.743  35.432   2.954
35693W        W 8118  18.706  30.923   3.622
35694W        W 8119  18.807  34.757  12.346
35695W        W 8120   7.395  17.243   0.441
35696W        W 8121  11.900  36.090   2.909
35697W        W 8122  19.563   1.922  12.141
35698W        W 8123  22.555  29.469   4.655
35699W        W 8124  42.441  18.237   3.057
35700W        W 8125  31.332  23.660   0.419
35701W        W 8126  12.126   8.440   4.229
35702W        W 8127  41.014   5.378   1.779
35703W        W 8128  21.976  20.171   3.654
35704W        W 8129  43.945   9.913  11.374
35705W        W 8130  15.667  38.447   4.862
35706W        W 8131  10.689  23.297   3.188
35707W        W 8132  42.542  13.336  12.553
35708W        W 8133  30.111  27.137  11.654
35709W        W 8134  37.034   3.050  10.458
35710W        W 8135  16.189  33.650   3.300
35711W        W 8136  30.474  31.916  14.263
35712W        W 8137  44.986  14.562   0.600
35713W        W 8138   2.465  24.656  14.857
35714W        W 8139   6.931   2.336  13.465
35715W        W 8140  22.539  19.614   1.856
35716W        W 8141  18.067   1.174  12.450
35717W        W 8142  38.486   1.672  13.311
35718W        W 8143  37.366  19.681  11.255
35719W        W 8144  15.092   8.642  14.391
35720W        W 8145  19.743  37.919   1.139
35721W        W 8146  14.287  19.348   2.303
35722W        W 8147  12.081  23.525  12.505
35723W        W 8148  29.445  36.701   2.606
35724W        W 8149  12.111  29.039  14.316
35725W        W 8150  34.554  43.293   4.141
35726W        W 8151  29.109  22.632   1.145
35727W        W 8152  41.281   1.183  10.900
35728W        W 8153  44.568  23.437  13.118
35729W        W 8154  20.667   0.059   1.658
35730W        W 8155  15.146  31.485  11.973
35731W        W 8156  36.590  15.686  13.454
35732W        W 8157  23.458  10.320  13.541
35733W        W 8158   8.292  43.448  13.315
35734W        W 8159  33.408  41.006  14.064
35735W        W 8160  31.173  27.061   0.450
35736W        W 8161   7.446  29.089  11.935
35737W        W 8162  22.050   1.385  14.803
35738W        W 8163  12.726  18.195  12.919
35739W        W 8164  20.163  43.385  13.850
35740W        W 8165   5.174  42.688   3.434
35741W        W 8166   4.956   9.368   3.274
35742W        W 8167  12.190  35.812  12.997
35743W        W 8168  37.939  26.539  11.966
35744W        W 8169  25.087  12.141  13.357
35745W        W 8170  29.835  28.594  10.684
35746W        W 8171  34.596  27.413   1.375
35747W        W 8172  13.642  13.493  11.802
35748W        W 8173  28.616   2.062   2.391
35749W        W 8174  16.073  40.656   3.627
35750W        W 8175  15.696  37.978   0.998
35751W        W 8176  29.306  44.362   3.597
35752W        W 8177  26.942  41.974   2.634
35753W        W 8178  10.172  14.601  11.910
35754W        W 8179  42.896  41.839  11.578
35755W        W 8180  11.852  11.398   0.884
35756W        W 8181   7.766  24.032   0.909
35757W        W 8182   5.373  32.958   0.899
35758W        W 8183  38.345   4.415  12.035
35759W        W 8184  17.512   4.746   0.946
35760W        W 8185  19.762   4.891  12.124
35761W        W 8186  18.286  42.987   3.226
35762W        W 8187  40.083  19.628  13.812
35763W        W 8188  29.050  32.950  13.049
35764W        W 8189   1.950   2.688  13.925
35765W        W 8190  23.955  16.593   3.243
35766W        W 8191  27.920  20.186   0.821
35767W        W 8192  13.587   6.378  10.689
35768W        W 8193   5.769  18.505  13.356
35769W        W 8194   2.663  34.445   2.574
35770W        W 8195  12.219  12.624  11.174
35771W        W 8196   7.909  19.754   0.796
35772W        W 8197  20.119  15.261   2.202
35773W        W 8198  36.827  28.967  11.640
35774W        W 8199  39.400  17.326  11.584
35775W        W 8200  27.578  17.998   2.339
35776W        W 8201  41.267  33.545  13.061
35777W        W 8202  15.273  42.817   3.789
35778W        W 8203  17.257  24.671   4.560
35779W        W 8204   0.305   4.329   3.283
35780W        W 8205  25.392  18.724  11.650
35781W        W 8206  21.741  36.393   1.770
35782W        W 8207   2.885  44.528  11.702
35783W        W 8208   7.131  11.064   0.852
35784W        W 8209  34.610  31.137  11.192
35785W        W 8210  12.309  23.502   3.219
35786W        W 8211  43.615  27.078   0.477
35787W        W 8212  22.943  22.716   0.705
35788W        W 8213  17.692   0.313  13.526
35789W        W 8214  10.511  30.225   4.215
35790W        W 8215  32.436  10.646   0.361
35791W        W 8216  36.567  38.231   1.384
35792W        W 8217  20.686   7.196   2.209
35793W        W 8218  38.412  33.349   3.436
35794W        W 8219  30.091   0.790  12.077
35795W        W 8220  44.368  18.916  14.531
35796W        W 8221  16.502  36.674  12.620
35797W        W 8222  34.600  21.211  13.911
35798W        W 8223  44.436  43.356   0.768
35799W        W 8224  41.306  21.162  14.954
35800W        W 8225  34.972  30.797  13.268
35801W        W 8226  39.522  31.616   3.155
35802W        W 8227  23.521  28.153  12.057
35803W        W 8228  18.779   1.445  12.954
35804W        W 8229  23.265   2.414  11.067
35805W        W 8230  14.113  20.137  14.843
35806W        W 8231  28.980   7.759  12.389
35807W        W 8232  16.343   8.210  11.623
35808W        W 8233  41.137  43.295   0.890
35809W        W 8234  34.970   0.479   4.263
35810W        W 8235  24.676  36.096   0.714
35811W        W 8236  19.829  25.601  13.959
35812W        W 8237  20.852  12.962   5.143
35813W        W 8238  27.067  33.472   4.223
35814W        W 8239  33.634  25.776   4.117
35815W        W 8240  30.637  10.741   3.720
35816W        W 8241  16.542   8.736  11.437
35817W        W 8242  22.479  33.793  14.537
35818W        W 8243  12.805  14.375   2.473
35819W        W 8244   0.026  24.985  14.313
35820W        W 8245  38.522  18.752  13.949
35821W        W 8246  19.481  30.446  10.027
35822W        W 8247   2.491  33.430   2.219
35823W        W 8248   4.025   1.444   2.648
35824W        W 8249  10.251   5.150  14.778
35825W        W 8250  33.239  35.394   1.892
35826W        W 8251  41.414  10.829   3.876
35827W        W 8252  23.199  17.781   0.758
35828W        W 8253   5.952  31.554  13.623
35829W        W 8254   0.254  18.028   2.711
35830W        W 8255   4.951  44.093   1.406
35831W        W 8256  15.200   0.941   2.131
35832W        W 8257  32.425  27.797   2.142
35833W        W 8258  44.699  43.800  13.527
35834W        W 8259  17.331  21.624  14.537
35835W        W 8260  14.571  42.798  11.976
35836W        W 8261  38.541  12.150  14.030
35837W        W 8262  20.811  32.660   0.369
35838W        W 8263  17.191  33.049  13.590
35839W        W 8264   4.903  32.402  13.735
35840W        W 8265  34.562  43.989   0.522
35841W        W 8266  25.805  17.211  10.648
35842W        W 8267  20.481   4.406  14.016
35843W        W 8268  22.530   9.671   0.361
35844W        W 8269  31.546  24.618   4.605
35845W        W 8270  23.068  38.139   4.139
35846W        W 8271  18.217   6.717  10.778
35847W        W 8272  25.735  33.960   3.269
35848W        W 8273  12.011  40.890  14.411
35849W        W 8274   3.810  14.963  13.903
35850W        W 8275  16.105  37.468  14.821
35851W        W 8276  36.699  25.569   3.877
35852W        W 8277  34.382  32.581  13.045
35853W        W 8278  21.183   1.327  12.780
35854W        W 8279   3.272  20.673  10.674
35855W        W 8280  19.776  43.942  12.035
35856W        W 8281   3.310  33.941   0.031
35857W        W 8282  34.133   1.355  14.824
35858W        W 8283  27.094  27.130   1.465
35859W        W 8284  40.115  25.827   0.921
35860W        W 8285  33.389  26.456   2.459
35861W        W 8286  44.753  18.165  11.351
35862W        W 8287  33.344   6.317   5.120
35863W        W 8288  32.501  21.829  12.449
35864W        W 8289  38.892   7.132   2.327
35865W        W 8290  20.683   0.244  11.469
35866W        W 8291  18.501   8.010   0.651
35867W        W 8292  22.047  10.949  13.999
35868W        W 8293   3.011   0.312  12.891
35869W        W 8294  28.467   5.434  12.527
35870W        W 8295  33.194  13.733   2.270
35871W        W 8296  13.348  32.525  11.398
35872W        W 8297   0.668  43.411   4.728
35873W        W 8298   1.912  31.587  13.389
35874W        W 8299  37.125  24.674   0.506
35875W        W 8300  11.360  12.385   0.285
35876W        W 8301  42.383  32.522   1.021
35877W        W 8302   1.405  29.536   3.312
35878W        W 8303  27.115  19.399  12.933
35879W        W 8304  27.865  26.984   0.270
35880W        W 8305   5.221   0.267   0.920
35881W        W 8306   2.195   7.118   3.572
35882W        W 8307   0.991  42.745   0.937
35883W        W 8308   6.075   1.496  13.070
35884W        W 8309   0.536  10.861   4.581
35885W        W 8310  34.373  34.807   0.805
35886W        W 8311  17.459  17.716  11.063
35887W        W 8312  32.917  16.634   2.399
35888W        W 8313   8.319  31.317  12.094
35889W        W 8314  29.508  26.406   3.217
35890W        W 8315  33.107  34.130  10.768
35891W        W 8316  33.788   9.162  14.222
35892W        W 8317  26.969  42.320  13.548
35893W        W 8318  20.738  43.792   3.390
35894W        W 8319  42.039  42.308  14.421
35895W        W 8320  16.091  14.270  13.079
35896W        W 8321  24.508  13.684   1.393
35897W        W 8322  40.850   3.924   2.347
35898W        W 8323  14.538  44.813  13.914
35899W        W 8324  10.356  40.130   1.337
35900W        W 8325  15.112   2.734   2.645
35901W        W 8326  26.540   8.774   0.002
35902W        W 8327  35.012  36.132  13.931
35903W        W 8328  12.678  27.427   3.305
35904W        W 8329  27.509   8.727  12.941
35905W        W 8330  40.798  22.589   0.667
35906W        W 8331  13.361  22.573  11.877
35907W        W 8332  37.306  12.751  11.616
35908W        W 8333  43.061  30.718  13.398
35909W        W 8334   6.747  20.286   1.697
35910W        W 8335  20.295  29.625  11.129
35911W        W 8336  22.797  37.402  10.679
35912W        W 8337  42.100  37.391   4.494
35913W        W 8338   0.457  31.964   1.127
35914W        W 8339  28.040  32.612  14.912
35915W        W 8340  41.048  24.145  12.834
35916W        W 8341  29.494  15.213   1.193
35917W        W 8342  24.947  27.538   4.054
35918W        W 8343  39.869  17.020  11.661
35919W        W 8344  13.107  11.541  12.390
35920W        W 8345  42.889  26.424  14.083
35921W        W 8346  36.198   7.376   0.724
35922W        W 8347  30.636  40.315   3.151
35923W        W 8348   8.237   5.436  14.343
35924W        W 8349  41.044  36.886  14.495
35925W        W 8350  24.957  32.917  11.891
35926W        W 8351   5.779  11.472  10.751
35927W        W 8352  39.031  17.624   1.248
35928W        W 8353  11.248   1.781  11.506
35929W        W 8354  42.015  29.142   4.615
35930W        W 8355  29.915  12.610   1.208
35931W        W 8356  14.814  39.951  14.447
35932W        W 8357  23.938  38.902  11.959
35933W        W 8358  27.391  20.340  11.986
35934W        W 8359   3.931  41.545   2.279
35935W        W 8360  25.001  42.293  12.370
35936W        W 8361  29.198  39.802  13.481
35937W        W 8362   7.612  13.279  13.905
35938W        W 8363  23.991   3.989   2.387
35939W        W 8364  15.414  20.300  13.035
35940W        W 8365  36.339  21.550   1.761
35941W        W 8366  24.024  42.894   0.233
35942W        W 8367  41.499   4.228   2.297
35943W        W 8368  17.504   8.685  11.074
35944W        W 8369   6.160  42.405  11.692
35945W        W 8370  30.206  43.494  12.914
35946W        W 8371   7.508  37.357  11.448
35947W        W 8372  17.524  13.794  11.474
35948W        W 8373  24.315   0.792   3.573
35949W        W 8374  35.625  26.317   3.822
35950W        W 8375  25.033  18.944  13.471
35951W        W 8376  11.770   1.903   5.075
35952W        W 8377  39.938  39.065   2.762
35953W        W 8378  43.519  39.476   1.653
35954W        W 8379   1.865  14.893  11.193
35955W        W 8380   7.693  21.436   3.573
35956W        W 8381  24.028   1.951   4.037
35957W        W 8382  26.993   8.665  13.624
35958W        W 8383   3.957  30.635  13.098
35959W        W 8384  26.430  12.099   1.382
35960W        W 8385  37.779  35.493   2.979
35961W        W 8386  34.881   4.815   1.803
35962W        W 8387  32.900  32.010   0.782
35963W        W 8388  44.508  17.026   3.274
35964W        W 8389  37.198  34.034   0.360
35965W        W 8390  12.176  39.637  14.856
35966W        W 8391  16.230  15.180   4.104
35967W        W 8392  26.083   0.065   4.597
35968W        W 8393  40.399  25.109   5.567
35969W        W 8394  25.658   2.148   1.938
35970W        W 8395  43.077  25.511  12.891
35971W        W 8396  28.765  16.607   2.222
35972W        W 8397   1.920  26.706  12.946
35973W        W 8398  24.163  20.576  13.460
35974W        W 8399  24.927  11.301   2.883
35975W        W 8400  11.134  17.766   4.845
35976W        W 8401  37.389  11.226   4.610
35977W        W 8402   7.389   3.035   0.465
35978W        W 8403  41.622  12.417  12.471
35979W        W 8404  22.002  34.621  11.488
35980W        W 8405  11.745  29.999   0.411
35981W        W 8406   3.662  36.780   1.817
35982W        W 8407  24.570  21.377   0.477
35983W        W 8408   4.673  32.642  14.640
35984W        W 8409  18.178  18.604   4.582
35985W        W 8410  40.239  15.551   3.700
35986W        W 8411  31.112  17.245  13.594
35987W        W 8412  22.071  43.141  11.527
35988W        W 8413  25.263  41.097   0.514
35989W        W 8414   8.768  44.298  10.187
35990W        W 8415   1.688   7.737  13.272
35991W        W 8416  30.589   2.875  11.419
35992W        W 8417  22.837   1.978  11.998
35993W        W 8418  29.496  15.130  13.493
35994W        W 8419  44.266  30.541   2.445
35995W        W 8420  37.647   9.151   0.560
35996W        W 8421  27.739  23.704  11.184
35997W        W 8422  33.128  15.592  12.456
35998W        W 8423  20.356  32.605  13.959
35999W        W 8424  35.487  10.180   1.421
36000W        W 8425  44.328  34.139   4.149
36001W        W 8426  37.825  37.059   1.669
36002W        W 8427  44.837  31.686  13.027
36003W        W 8428  22.215  42.926  13.823
36004W        W 8429   3.810   4.052   2.852
36005W        W 8430  35.563   8.488  12.454
36006W        W 8431  27.897  21.140   0.052
36007W        W 8432  41.579   0.222   2.660
36008W        W 8433  43.867  39.476  14.974
36009W        W 8434  19.732  29.269   0.264
36010W        W 8435  31.079  14.927   3.977
36011W        W 8436  16.066  22.014  11.198
36012W        W 8437  14.596  37.734   4.651
36013W        W 8438  31.454  34.185  14.248
36014W        W 8439  13.659  33.039  14.813
36015W        W 8440   2.432  42.005   0.518
36016W        W 8441   5.504   3.334   3.561
36017W        W 8442   7.733  30.635  13.482
36018W        W 8443  16.752  44.902   4.286
36019W        W 8444   6.646   8.682  14.551
36020W        W 8445  29.841  22.654   0.875
36021W        W 8446   7.940  23.874   0.432
36022W        W 8447  25.464  24.122  14.023
36023W        W 8448  10.289  33.851  11.797
36024W        W 8449   7.149  14.337   1.324
36025W        W 8450  29.166  36.997  13.072
36026W        W 8451  21.281   4.116   2.926
36027W        W 8452  24.647  30.229   2.378
36028W        W 8453  17.716   5.415   4.201
36029W        W 8454  25.567  26.451  12.217
36030W        W 8455   4.676  40.530   2.126
36031W        W 8456  28.541  35.048  14.727
36032W        W 8457  38.009  31.106   1.357
36033W        W 8458  16.526  22.740  11.273
36034W        W 8459  33.701  11.596   0.288
36035W        W 8460  40.046   3.963   2.276
36036W        W 8461  40.932   0.353  10.685
36037W        W 8462  31.230  36.309  10.040
36038W        W 8463  44.169  12.583   9.975
36039W        W 8464  28.480   1.251   0.636
36040W        W 8465  22.884   0.273  10.388
36041W        W 8466  20.594  33.353   4.836
36042W        W 8467  19.063   8.267   1.734
36043W        W 8468  40.398   0.866  13.449
36044W        W 8469  34.844  21.792  13.036
36045W        W 8470  12.237   4.587   9.741
36046W        W 8471   3.332  18.758  12.093
36047W        W 8472   6.058  17.328  11.889
36048W        W 8473  37.956   3.054  13.820
36049W        W 8474   7.685  36.498  13.490
36050W        W 8475  44.940  11.067   0.998
36051W        W 8476  20.938  36.030  10.168
36052W        W 8477  44.422  26.661  11.210
36053W        W 8478  44.914   3.169  13.369
36054W        W 8479   2.903  40.297  13.317
36055W        W 8480  16.753   4.804   3.628
36056W        W 8481  16.846  16.081  14.335
36057W        W 8482  28.511  19.213  11.158
36058W        W 8483   5.890   0.440  12.019
36059W        W 8484  36.683  28.996   1.814
36060W        W 8485   6.011   9.671  11.075
36061W        W 8486  13.863  22.774   1.357
36062W        W 8487   4.793   7.373   4.542
36063W        W 8488   2.443  10.380   2.262
36064W        W 8489   2.455  13.794  12.864
36065W        W 8490   5.836   9.158   4.046
36066W        W 8491  12.872  42.383  11.782
36067W        W 8492  19.936  27.367  10.662
36068W        W 8493  28.069  21.810   1.265
36069W        W 8494  37.827  10.130   2.280
36070W        W 8495  39.994  10.402  13.427
36071W        W 8496  16.385  18.477  11.181
36072W        W 8497  15.198  42.837  14.371
36073W        W 8498   8.208   2.819  14.728
36074W        W 8499  19.744   9.271   1.258
36075W        W 8500  22.507  43.810  10.104
36076W        W 8501  29.046   1.222   2.404
36077W        W 8502  18.963   3.830  14.723
36078W        W 8503   9.119  32.712   4.780
36079W        W 8504  15.100  39.568   2.308
36080W        W 8505  33.832  30.363  13.955
36081W        W 8506  12.790   6.463  12.888
36082W        W 8507  11.757  27.570  11.914
36083W        W 8508  44.747  18.213   0.417
36084W        W 8509  32.851   9.915   4.598
36085W        W 8510  32.918   8.295  10.657
36086W        W 8511  15.742  44.361   0.122
36087W        W 8512   7.020  42.328  12.891
36088W        W 8513  35.962  31.508   1.582
36089W        W 8514  19.669   4.356   0.408
36090W        W 8515  27.908  10.792   0.209
36091W        W 8516  37.419  42.977  10.939
36092W        W 8517  40.555  13.345  11.236
36093W        W 8518  15.614   9.831  13.954
36094W        W 8519  24.546  27.709  14.832
36095W        W 8520  44.894  21.220  10.571
36096W        W 8521  29.944  42.590  11.924
36097W        W 8522  28.631  35.508  11.135
36098W        W 8523  14.869  38.553  13.561
36099W        W 8524  44.917   7.867   1.487
36100W        W 8525  39.369   2.179   2.407
36101W        W 8526  35.510  15.343  13.612
36102W        W 8527  31.885  19.195  12.861
36103W        W 8528  17.058   2.376   2.138
36104W        W 8529   5.435  44.937  14.031
36105W        W 8530  23.246  18.280   2.676
36106W        W 8531   6.668  35.812  12.443
36107W        W 8532  37.985  41.735  12.389
36108W        W 8533  21.063  40.377   2.741
36109W        W 8534  29.655  16.335   3.560
36110W        W 8535  34.600  37.444   2.103
36111W        W 8536  42.432   1.436  13.942
36112W        W 8537   8.572  17.605   4.359
36113W        W 8538  25.934   3.443  11.488
36114W        W 8539   6.728  12.867  14.065
36115W        W 8540   7.620  28.428   3.224
36116W        W 8541  36.562  10.971   4.075
36117W        W 8542  35.677   4.295   4.601
36118W        W 8543  43.404  15.460  10.345
36119W        W 8544  34.735   8.647   2.240
36120W        W 8545  39.757  33.873   4.558
36121W        W 8546  29.176  29.552   1.361
36122W        W 8547  28.951  35.376  14.591
36123W        W 8548  42.967  42.990   3.884
36124W        W 8549  44.938  21.861  13.466
36125W        W 8550  11.742  36.870   3.321
36126W        W 8551   2.813  41.322   0.440
36127W        W 8552  11.407  31.684   4.209
36128W        W 8553  22.087   6.911   4.520
36129W        W 8554  29.823  22.179   4.155
36130W        W 8555  18.647  26.716  13.471
36131W        W 8556   7.948   8.106   0.243
36132W        W 8557   5.613  21.121   4.588
36133W        W 8558  21.027  12.012   5.156
36134W        W 8559  43.742  22.937   3.698
36135W        W 8560  28.203  27.754   2.774
36136W        W 8561   8.685   4.773  11.832
36137W        W 8562  37.113  44.964  14.335
36138W        W 8563  30.501   2.336   4.928
36139W        W 8564  12.135  34.011  12.500
36140W        W 8565  17.479  42.382   1.873
36141W        W 8566  14.213  37.000   3.206
36142W        W 8567  44.817  26.438   2.355
36143W        W 8568   5.377  16.638   3.363
36144W        W 8569  39.601   1.260  14.454
36145W        W 8570  31.127  33.561  11.895
36146W        W 8571   9.726   2.827   1.219
36147W        W 8572   8.603   4.842  13.727
36148W        W 8573  10.534  19.592  10.373
36149W        W 8574   6.488  18.867  14.927
36150W        W 8575  37.985   2.739  10.960
36151W        W 8576   1.790  41.390  12.996
36152W        W 8577  44.528  29.817  12.090
36153W        W 8578   4.924  30.391  12.468
36154W        W 8579  26.609  15.896  10.129
36155W        W 8580  16.641  42.827  10.158
36156W        W 8581   6.358   0.596   2.426
36157W        W 8582  15.631  31.996   1.477
36158W        W 8583  27.526  36.362   2.950
36159W        W 8584  24.858  18.195   1.959
36160W        W 8585  16.620   5.305   4.311
36161W        W 8586  36.544   3.248   1.367
36162W        W 8587  41.509   0.766  11.984
36163W        W 8588  15.642  18.158  10.929
36164W        W 8589  41.554  17.260   0.458
36165W        W 8590   9.195   0.987  12.745
36166W        W 8591  11.617  41.307   1.842
36167W        W 8592   5.217  30.499  12.014
36168W        W 8593  37.243  31.523   3.221
36169W        W 8594  18.417  13.167   0.660
36170W        W 8595   8.671  23.015   1.773
36171W        W 8596  40.584  12.657   0.405
36172W        W 8597   6.831   9.557   0.204
36173W        W 8598  36.956  26.818   3.711
36174W        W 8599  32.009  38.603  12.319
36175W        W 8600  25.892  41.864   1.847
36176W        W 8601  18.020  11.652   0.877
36177W        W 8602  26.519  11.918   0.234
36178W        W 8603   6.739  25.491  13.104
36179W        W 8604  43.519   7.930  12.548
36180W        W 8605  30.671  24.567   3.267
36181W        W 8606  13.166  30.733  12.104
36182W        W 8607   2.638  10.145   4.853
36183W        W 8608  35.778  21.774   0.400
36184W        W 8609   3.177  16.539   4.034
36185W        W 8610  28.396  42.312  14.943
36186W        W 8611  44.530   4.431   2.247
36187W        W 8612  18.184   1.830  12.416
36188W        W 8613  26.914  44.483   2.597
36189W        W 8614   8.707  41.905  11.701
36190W        W 8615  25.006  12.601  13.547
36191W        W 8616  17.485  44.834   3.704
36192W        W 8617  22.402  21.787  12.921
36193W        W 8618   0.260   1.979   0.622
36194W        W 8619   6.418  35.409  13.183
36195W        W 8620   2.625   1.195   1.943
36196W        W 8621  38.792  13.145   0.499
36197W        W 8622  17.059  20.502   2.735
36198W        W 8623  34.033  28.158   3.252
36199W        W 8624  10.061  23.812  13.014
36200W        W 8625  32.165  36.956  10.956
36201W        W 8626  30.590  37.118  12.400
36202W        W 8627  29.580  43.947  10.627
36203W        W 8628  14.809  35.453   0.080
36204W        W 8629   1.188  24.719  10.337
36205W        W 8630  35.407   3.351  14.328
36206W        W 8631   5.365   4.214   3.837
36207W        W 8632   0.687   1.918  12.120
36208W        W 8633   8.409  11.582  11.059
36209W        W 8634   1.863  29.704   3.164
36210W        W 8635   4.417  27.218   3.010
36211W        W 8636  10.693  31.896  14.036
36212W        W 8637  37.409  30.037  11.879
36213W        W 8638  10.067  38.366  11.268
36214W        W 8639  28.986  33.374  10.764
36215W        W 8640  17.696  23.727   1.786
36216W        W 8641  34.362  26.532   2.192
36217W        W 8642   6.021  27.668  14.762
36218W        W 8643  37.516  30.950  11.195
36219W        W 8644  10.787   2.681  10.634
36220W        W 8645  39.451  17.056  12.006
36221W        W 8646  21.136  41.004   1.374
36222W        W 8647  32.424  25.047   3.211
36223W        W 8648  42.578  32.987  13.954
36224W        W 8649  20.182  41.995  14.944
36225W        W 8650   5.665  16.662   1.446
36226W        W 8651   9.380  13.371  13.823
36227W        W 8652  27.540  40.880   5.444
36228W        W 8653   5.399  17.539   2.179
36229W        W 8654  34.774  10.865   2.890
36230W        W 8655  16.304   6.697   4.653
36231W        W 8656  12.729  38.395  12.454
36232W        W 8657  44.537  36.424   0.266
36233W        W 8658   2.241  28.604   0.536
36234W        W 8659  18.155  25.245  14.929
36235W        W 8660   3.870  27.989   4.259
36236W        W 8661  24.235   8.032   1.200
36237W        W 8662  35.106  41.015  11.629
36238W        W 8663  24.224   5.994   0.267
36239W        W 8664  14.721  13.635  11.352
36240W        W 8665   0.799  33.314  14.840
36241W        W 8666  30.858   0.484   4.753
36242W        W 8667  10.315  18.412   2.124
36243W        W 8668  25.463  34.481   4.066
36244W        W 8669  19.252  27.892  12.122
36245W        W 8670  29.175  28.027  14.953
36246W        W 8671  11.092   8.247  12.609
36247W        W 8672  33.503  15.796  14.428
36248W        W 8673  38.011  12.654  13.482
36249W        W 8674   6.045  27.224   0.002
36250W        W 8675   0.213  14.188   4.207
36251W        W 8676   8.162  22.279   3.233
36252W        W 8677  28.507   2.154   4.604
36253W        W 8678  24.233   2.191   2.705
36254W        W 8679  33.617  38.921   1.766
36255W        W 8680  13.400  29.826   4.169
36256W        W 8681  32.009   2.236   3.785
36257W        W 8682  41.738  23.057   0.330
36258W        W 8683   5.903   9.701   0.649
36259W        W 8684  39.841  40.129   3.567
36260W        W 8685   5.388  38.278  12.507
36261W        W 8686   3.480  40.752   3.643
36262W        W 8687   2.862  19.271  12.941
36263W        W 8688  17.279  19.242  14.505
36264W        W 8689  25.180  29.457  12.343
36265W        W 8690   1.318  38.365  14.483
36266W        W 8691  28.935   0.565  11.532
36267W        W 8692  19.494  44.710  11.470
36268W        W 8693   8.566  41.470   0.998
36269W        W 8694  30.952  44.181   2.721
36270W        W 8695  19.670  44.196  10.340
36271W        W 8696  32.348  37.038   2.509
36272W        W 8697   8.699  33.000   2.788
36273W        W 8698  28.985  34.628   1.249
36274W        W 8699  23.258  19.227   1.782
36275W        W 8700  43.851  16.760   1.186
36276W        W 8701  43.497  15.591   0.482
36277W        W 8702  40.487  32.356  11.580
36278W        W 8703  42.609   5.781   3.140
36279W        W 8704   0.211   4.857  11.470
36280W        W 8705  33.565   4.681  10.805
36281W        W 8706   0.979   7.367  11.565
36282W        W 8707  17.305  31.559   1.992
36283W        W 8708  36.570  27.150   3.545
36284W        W 8709  10.645  19.169   2.485
36285W        W 8710  16.539  36.910   1.211
36286W        W 8711   0.822  28.231   0.786
36287W        W 8712   9.975  18.056   3.635
36288W        W 8713  22.227  26.108  11.844
36289W        W 8714  36.638  10.273   0.196
36290W        W 8715  34.593   8.445  10.665
36291W        W 8716  15.197   2.482   1.764
36292W        W 8717  18.673  29.683   4.169
36293W        W 8718   5.779  10.926   3.662
36294W        W 8719  23.022  27.699   2.494
36295W        W 8720   6.948   4.691  12.829
36296W        W 8721   9.822  27.585   0.831
36297W        W 8722  19.483  15.984  11.180
36298W        W 8723  41.551  35.851   0.922
36299W        W 8724  43.898  11.355   0.302
36300W        W 8725  20.003   4.676  11.389
36301W        W 8726  14.580   8.775   1.173
36302W        W 8727  18.167  26.789   4.623
36303W        W 8728   6.203  11.563  10.480
36304W        W 8729   6.224  25.271  14.308
36305W        W 8730  43.125  11.689  11.458
36306W        W 8731   9.868  26.631   4.520
36307W        W 8732   1.464   6.661   0.345
36308W        W 8733  35.426   7.698   1.921
36309W        W 8734  38.593  26.799  12.413
36310W        W 8735   2.665   1.741  12.963
36311W        W 8736  35.903  10.189   2.186
36312W        W 8737  34.619  34.859   4.131
36313W        W 8738  17.281  23.102   4.646
36314W        W 8739  41.088   2.702   2.693
36315W        W 8740   5.912  37.485   3.991
36316W        W 8741  31.612  10.601  14.903
36317W        W 8742   7.642   9.362  14.809
36318W        W 8743  25.235  10.865   2.901
36319W        W 8744  31.658   4.871   0.367
36320W        W 8745  22.693  42.441   4.389
36321W        W 8746  17.778   8.232  12.650
36322W        W 8747  28.935  41.773   0.389
36323W        W 8748   1.398  44.046  13.585
36324W        W 8749  25.838  44.754   1.576
36325W        W 8750   0.242  43.786  13.956
36326W        W 8751  37.146   0.843   4.781
36327W        W 8752  43.035  41.412   3.754
36328W        W 8753   7.595  23.621   3.315
36329W        W 8754   7.738   9.736   4.491
36330W        W 8755  33.317  20.605   3.986
36331W        W 8756  17.674  21.802  14.896
36332W        W 8757  44.353  39.105   2.642
36333W        W 8758  12.961  22.668  11.522
36334W        W 8759  42.771  14.718  12.516
36335W        W 8760  19.341  27.301   3.942
36336W        W 8761  41.292  11.739  11.178
36337W        W 8762  26.028   5.326   3.417
36338W        W 8763  13.057  44.864  12.908
36339W        W 8764  36.755  25.184  14.399
36340W        W 8765  31.632   8.574   3.632
36341W        W 8766   1.330  32.431  10.208
36342W        W 8767  42.335  42.003   4.128
36343W        W 8768  40.348   7.716   2.332
36344W        W 8769   7.432   0.833   0.299
36345W        W 8770  12.299  12.833   0.369
36346W        W 8771  28.118  16.122   3.734
36347W        W 8772  42.374  15.072   2.310
36348W        W 8773  44.871  30.631  10.623
36349W        W 8774  21.319  43.340  11.133
36350W        W 8775  21.491  12.034   0.825
36351W        W 8776  10.256  35.055  12.107
36352W        W 8777   5.882  25.293  10.711
36353W        W 8778  24.167  12.724   3.757
36354W        W 8779  34.139  16.630  13.254
36355W        W 8780  44.286   2.974  12.985
36356W        W 8781   6.923  19.668  12.933
36357W        W 8782   3.130  44.492  12.925
36358W        W 8783  21.645  19.600   5.072
36359W        W 8784   5.239   9.948  13.545
36360W        W 8785  11.688  30.374   3.687
36361W        W 8786  33.167  17.238  11.517
36362W        W 8787   1.141  21.117  11.237
36363W        W 8788  40.550  19.732  13.988
36364W        W 8789  14.813  39.112   4.161
36365W        W 8790   2.905  31.908   2.680
36366W        W 8791   5.444  40.385   2.240
36367W        W 8792   0.854  36.628  11.539
36368W        W 8793  44.030   1.289   3.852
36369W        W 8794   2.581   1.537   0.745
36370W        W 8795   5.689   7.360   4.573
36371W        W 8796  42.571  10.605  14.759
36372W        W 8797  29.428  27.663   3.763
36373W        W 8798  24.398  16.696  12.569
36374W        W 8799  13.957  10.577  11.163
36375W        W 8800  35.233  18.162  10.797
36376W        W 8801  31.950  27.060  11.262
36377W        W 8802  40.742  22.483  14.745
36378W        W 8803  16.591  33.219  13.687
36379W        W 8804   2.512  42.018   3.519
36380W        W 8805  43.762  35.885   1.235
36381W        W 8806  21.044  44.804  13.345
36382W        W 8807  14.312  24.658   3.691
36383W        W 8808  20.564  12.355   9.613
36384W        W 8809   1.215  18.058  14.261
36385W        W 8810  18.831  26.454  13.926
36386W        W 8811  29.474  14.369   4.131
36387W        W 8812  31.424  27.388  12.888
36388W        W 8813  15.861  43.464   0.721
36389W        W 8814   1.436  26.401   1.616
36390W        W 8815  28.669  20.858  12.507
36391W        W 8816  18.490  12.619  10.910
36392W        W 8817  33.835   1.780  14.833
36393W        W 8818   2.750  42.888   4.115
36394W        W 8819  20.048  42.079  11.102
36395W        W 8820  18.580  29.422  11.419
36396W        W 8821  40.036   3.871   3.827
36397W        W 8822  43.758   2.003   4.018
36398W        W 8823  20.186  22.124   1.686
36399W        W 8824  13.652  36.625   4.181
36400W        W 8825   2.753   2.442  10.708
36401W        W 8826  35.496  11.831   1.000
36402W        W 8827  43.313  34.067  12.266
36403W        W 8828   9.901  23.594  12.513
36404W        W 8829  19.149  12.166  14.952
36405W        W 8830   6.172  12.182  10.897
36406W        W 8831  23.116   8.472  11.536
36407W        W 8832  31.997  44.660  14.436
36408W        W 8833  12.664  41.845   0.860
36409W        W 8834  35.764  15.743  10.908
36410W        W 8835  23.601  15.334   2.117
36411W        W 8836   3.064  27.836  13.590
36412W        W 8837  28.950  22.709  14.642
36413W        W 8838  20.050  41.967   1.309
36414W        W 8839  29.883  41.426  13.348
36415W        W 8840  27.984  34.773   3.775
36416W        W 8841   7.225  35.342   3.189
36417W        W 8842   2.431   9.280  13.050
36418W        W 8843   0.264  15.266  14.489
36419W        W 8844  19.110   7.171   1.592
36420W        W 8845  18.216  37.842   2.774
36421W        W 8846   8.302  17.512   3.394
36422W        W 8847  17.128  20.813   4.087
36423W        W 8848  15.255   7.666  12.410
36424W        W 8849  36.169   2.749   0.094
36425W        W 8850  13.840   4.001   0.924
36426W        W 8851  41.265  23.665  13.363
36427W        W 8852   5.305  28.422  11.485
36428W        W 8853  28.626   1.225  13.946
36429W        W 8854   5.849  33.174   1.163
36430W        W 8855  38.875  24.453   4.678
36431W        W 8856  13.218  44.441   3.988
36432W        W 8857  13.096   7.656   0.860
36433W        W 8858  31.893  32.957   1.603
36434W        W 8859  14.681   4.849   2.149
36435W        W 8860  15.182  12.223   1.393
36436W        W 8861  29.794   9.907   0.271
36437W        W 8862  23.906  32.230  13.922
36438W        W 8863  39.538  29.668   3.212
36439W        W 8864  37.049  15.196   2.338
36440W        W 8865  17.359   3.736   4.262
36441W        W 8866  10.657  24.209   4.136
36442W        W 8867  35.968  19.256   4.240
36443W        W 8868  14.603  12.028  11.185
36444W        W 8869  14.800  32.172  11.210
36445W        W 8870  11.786  29.482  13.791
36446W        W 8871  38.200  24.455  11.143
36447W        W 8872  36.578  22.633  12.451
36448W        W 8873  38.980   1.470   0.784
36449W        W 8874   7.246   1.454  14.356
36450W        W 8875  44.793  18.595  13.583
36451W        W 8876  35.980  20.486  11.362
36452W        W 8877  14.567  22.747  11.135
36453W        W 8878  11.951   4.448  11.342
36454W        W 8879  22.459   0.531   2.458
36455W        W 8880  31.499   1.833  10.342
36456W        W 8881  11.187  32.117  13.557
36457W        W 8882  12.312   1.841  11.873
36458W        W 8883  11.895  40.675  13.882
36459W        W 8884  35.049   4.317  14.427
36460W        W 8885   6.659  28.262   4.326
36461W        W 8886  35.021  16.739  10.798
36462W        W 8887   8.837   1.465  13.963
36463W        W 8888  11.106  37.344   0.490
36464W        W 8889  19.940   8.309   4.112
36465W        W 8890  34.852   0.362   4.815
36466W        W 8891  26.733  24.693   3.724
36467W        W 8892  26.920  20.013  13.424
36468W        W 8893   4.018  24.708  14.433
36469W        W 8894  13.636   2.395  13.416
36470W        W 8895  40.652  13.586   2.818
36471W        W 8896  19.036  28.008   2.182
36472W        W 8897  11.899  19.991  13.947
36473W        W 8898  41.456  43.794   3.648
36474W        W 8899  37.376  43.233  11.905
36475W        W 8900  23.630  29.386   3.720
36476W        W 8901  35.776  27.555  12.814
36477W        W 8902  10.700  29.096   2.765
36478W        W 8903  11.855  30.413   2.776
36479W        W 8904  30.550  16.875  12.649
36480W        W 8905  42.076  16.088   3.731
36481W        W 8906  17.384  34.570   1.800
36482W        W 8907  21.607  33.144  12.858
36483W        W 8908  33.993  21.017  12.678
36484W        W 8909  30.095   4.185  11.631
36485W        W 8910  22.238  38.082   2.848
36486W        W 8911  15.793  32.018  13.924
36487W        W 8912  15.336  40.957   0.443
36488W        W 8913   2.662  32.381   2.811
36489W        W 8914   4.505  33.392  12.134
36490W        W 8915  16.591   2.396   2.409
36491W        W 8916   3.877  13.453  10.771
36492W        W 8917   7.406  34.197  14.454
36493W        W 8918  27.223  17.627   1.877
36494W        W 8919  33.324  16.964  13.716
36495W        W 8920  43.535   6.655  13.833
36496W        W 8921  17.133  20.961   1.546
36497W        W 8922   9.901  16.597  12.077
36498W        W 8923  11.054  19.006  14.713
36499W        W 8924  11.402  14.206   3.283
36500W        W 8925  29.256  24.462   1.005
36501W        W 8926  10.848   1.456  13.991
36502W        W 8927  29.891  30.492  12.624
36503W        W 8928   0.042  19.083   0.844
36504W        W 8929  40.308  12.876  10.328
36505W        W 8930  35.186  26.258   0.894
36506W        W 8931  27.623  42.896   0.071
36507W        W 8932  28.924  43.025   2.841
36508W        W 8933   6.145   8.606   2.861
36509W        W 8934  15.047  35.351  11.003
36510W        W 8935  20.485  41.063  14.865
36511W        W 8936  11.771  28.567   2.461
36512W        W 8937  11.226  39.114  14.013
36513W        W 8938  14.848  38.951   0.231
36514W        W 8939  11.327  22.985  10.651
36515W        W 8940  37.598  16.062  11.419
36516W        W 8941  33.764  26.600  11.635
36517W        W 8942   0.400   1.470  12.094
36518W        W 8943  10.766  29.924  13.532
36519W        W 8944  28.058  16.386  12.908
36520W        W 8945   9.642  13.351  11.106
36521W        W 8946  34.404  30.755  10.807
36522W        W 8947  17.267  44.333  12.556
36523W        W 8948  14.050  32.049  12.853
36524W        W 8949  11.649   4.378  12.042
36525W        W 8950  14.196   8.194   2.628
36526W        W 8951  40.443  12.018   4.599
36527W        W 8952  23.116  11.228   0.325
36528W        W 8953  44.038  12.427  13.887
36529W        W 8954  42.873   6.189  12.791
36530W        W 8955  15.341  30.280   2.255
36531W        W 8956  35.485  44.266  14.324
36532W        W 8957  34.148  31.851  11.580
36533W        W 8958  41.227  35.459  13.790
36534W        W 8959  18.209   1.898   4.428
36535W        W 8960  20.219  43.779   1.861
36536W        W 8961  32.471  29.722   2.156
36537W        W 8962  30.689  18.605  11.976
36538W        W 8963  37.926  23.016   4.522
36539W        W 8964  14.732  34.042  11.920
36540W        W 8965  39.468  27.355   1.870
36541W        W 8966  16.859  14.238  14.471
36542W        W 8967   1.674   4.728  13.896
36543W        W 8968   3.435  36.062   3.893
36544W        W 8969   6.393  15.487   1.184
36545W        W 8970  10.779  23.634  11.088
36546W        W 8971  18.414  42.326  14.150
36547W        W 8972   1.455  15.678   3.592
36548W        W 8973  24.075  44.521  13.754
36549W        W 8974  11.352   6.605  11.592
36550W        W 8975  28.959  16.337   1.819
36551W        W 8976   9.374   8.650  10.797
36552W        W 8977  17.174  41.842  10.422
36553W        W 8978   7.771  33.174   3.625
36554W        W 8979  23.580  18.144   4.404
36555W        W 8980  38.040  12.204  11.551
36556W        W 8981  38.860   2.738  10.902
36557W        W 8982   8.216  41.120  11.537
36558W        W 8983   4.485  10.662  12.812
36559W        W 8984  31.604  11.140   0.805
36560W        W 8985  22.481  31.490   1.987
36561W        W 8986  12.691   3.733  14.989
36562W        W 8987   9.912   4.751   3.634
36563W        W 8988   2.262   1.347   2.268
36564W        W 8989   8.222  15.269  11.288
36565W        W 8990  29.160  30.400  13.030
36566W        W 8991  28.078  44.441  13.492
36567W        W 8992  17.304  18.048  10.706
36568W        W 8993  16.359   8.334  14.457
36569W        W 8994  22.830  28.315   2.621
36570W        W 8995  30.343   2.913  13.900
36571W        W 8996  28.983  24.141   0.677
36572W        W 8997   9.636  19.713  14.234
36573W        W 8998  14.021  32.056   0.811
36574W        W 8999   9.871   5.010   0.510
36575W        W 9000  11.794  39.327   1.838
36576W        W 9001   9.906   3.556   3.316
36577W        W 9002   4.188  44.251   4.202
36578W        W 9003  11.635  33.430  14.888
36579W        W 9004  39.462  16.545   2.789
36580W        W 9005  35.118  38.586  13.938
36581W        W 9006  42.120  42.459   0.899
36582W        W 9007   0.443  27.897   2.859
36583W        W 9008  35.180  38.081   3.319
36584W        W 9009   5.511  14.065   1.744
36585W        W 9010  36.507  14.382   0.827
36586W        W 9011  12.198  33.089  13.739
36587W        W 9012  32.934   0.300   3.387
36588W        W 9013  43.901  13.195   0.798
36589W        W 9014  18.820  18.573  12.517
36590W        W 9015  38.742  30.018   2.780
36591W        W 9016  21.201  38.886  12.884
36592W        W 9017  38.549  22.099   3.711
36593W        W 9018  33.362  20.202  14.237
36594W        W 9019  29.674   9.939  12.119
36595W        W 9020  36.425  25.079  10.089
36596W        W 9021  37.763  23.113  11.842
36597W        W 9022   9.048  38.726  12.097
36598W        W 9023  32.161  25.560   4.809
36599W        W 9024  17.161   4.409  10.328
36600W        W 9025  29.545  11.484   0.886
36601W        W 9026  41.494   2.402   2.478
36602W        W 9027   5.318  25.897  12.493
36603W        W 9028   9.011   3.625   3.892
36604W        W 9029   3.300  32.070   2.189
36605W        W 9030  16.373   2.217   4.254
36606W        W 9031  19.216  24.714  10.761
36607W        W 9032  28.513   5.543  10.629
36608W        W 9033   9.224   1.498   2.918
36609W        W 9034   6.093  17.807  12.996
36610W        W 9035   9.706  28.595  12.357
36611W        W 9036   8.911  43.750  12.748
36612W        W 9037  36.651   5.733  14.292
36613W        W 9038  30.271   0.834   2.545
36614W        W 9039   1.343  28.188   1.457
36615W        W 9040  33.094  11.425   2.210
36616W        W 9041  44.330   3.233  14.284
36617W        W 9042   6.706   2.579   4.218
36618W        W 9043  12.889  34.924   2.779
36619W        W 9044   5.609  28.635  14.972
36620W        W 9045   4.435  14.111   0.340
36621W        W 9046  24.594   7.176   3.142
36622W        W 9047  39.652  43.580   4.763
36623W        W 9048  34.452  17.277   1.399
36624W        W 9049  37.713   1.978  12.997
36625W        W 9050  36.418  29.860   0.434
36626W        W 9051  42.211  34.274  10.179
36627W        W 9052  18.213  22.164  10.506
36628W        W 9053   6.650  30.455   3.147
36629W        W 9054  13.769   3.036   2.720
36630W        W 9055  15.039  23.021  11.966
36631W        W 9056  21.493  44.770  12.420
36632W        W 9057  18.181  43.223   3.696
36633W        W 9058  33.663  11.741  12.264
36634W        W 9059  16.381  27.026  13.802
36635W        W 9060  30.940  18.795   3.658
36636W        W 9061  25.644  10.470  10.770
36637W        W 9062  28.753   0.732   4.054
36638W        W 9063  41.974  10.177  14.026
36639W        W 9064  35.361  17.083  14.863
36640W        W 9065  24.988  24.543  14.398
36641W        W 9066  44.609   4.925  10.274
36642W        W 9067  13.751   0.480  10.283
36643W        W 9068  38.071  25.207  12.008
36644W        W 9069  26.185  33.052   1.290
36645W        W 9070  15.680  44.732  10.696
36646W        W 9071  32.451   5.285  11.968
36647W        W 9072  38.660  30.618   2.634
36648W        W 9073  37.878   0.681  11.176
36649W        W 9074  26.296  17.163  10.414
36650W        W 9075   0.555  12.827  11.272
36651W        W 9076  41.079  24.960  12.296
36652W        W 9077   4.180  34.971  12.116
36653W        W 9078  20.828  32.726  12.944
36654W        W 9079  44.095  14.310   4.973
36655W        W 9080  32.984  43.594   4.140
36656W        W 9081   5.023  37.430   1.865
36657W        W 9082  23.129  41.096   2.756
36658W        W 9083  40.393   9.850  11.567
36659W        W 9084  26.263   5.567  11.060
36660W        W 9085   1.189  37.472  10.554
36661W        W 9086  18.149  10.146  12.522
36662W        W 9087   0.347   0.686   3.586
36663W        W 9088  18.705   5.594  11.562
36664W        W 9089  30.924  44.633  11.371
36665W        W 9090   7.344  26.481   4.134
36666W        W 9091  18.612  39.285  14.552
36667W        W 9092  20.990  13.323   0.275
36668W        W 9093  11.308  33.948   0.760
36669W        W 9094  16.431  41.338   4.542
36670W        W 9095  30.867  41.815   2.211
36671W        W 9096   1.634  14.627   1.408
36672W        W 9097  37.436  37.597   3.294
36673W        W 9098  31.507   4.309   3.994
36674W        W 9099  11.210   6.738   0.728
36675W        W 9100   5.798  26.513   0.818
36676W        W 9101  41.984  44.890   3.327
36677W        W 9102  28.721  19.035   1.288
36678W        W 9103  31.522   2.265   0.020
36679W        W 9104   6.036   3.356  10.815
36680W        W 9105   5.944  10.374  13.022
36681W        W 9106   1.411   7.055  12.103
36682W        W 9107  39.046  24.171  13.484
36683W        W 9108   7.768  39.252   2.369
36684W        W 9109  31.333  12.631   2.212
36685W        W 9110  26.898  16.268  14.881
36686W        W 9111   9.953  17.515   2.908
36687W        W 9112  26.555  18.851   2.127
36688W        W 9113   7.123   4.220   3.260
36689W        W 9114  13.587  20.623  14.467
36690W        W 9115  35.458  39.397  13.297
36691W        W 9116  28.048  17.989   9.833
36692W        W 9117  42.575   1.316  12.347
36693W        W 9118  20.025  32.385   2.375
36694W        W 9119  24.010   6.350   3.556
36695W        W 9120  35.522  22.128   0.698
36696W        W 9121  40.547  13.133   0.631
36697W        W 9122  25.498  26.998   3.621
36698W        W 9123  13.441  38.967  11.148
36699W        W 9124  20.090   9.185  11.478
36700W        W 9125  18.131  31.651  10.561
36701W        W 9126  36.910  20.160  13.033
36702W        W 9127   5.425  18.096  12.386
36703W        W 9128   0.917  27.524  11.698
36704W        W 9129   9.348  25.116  13.114
36705W        W 9130  35.250   8.925  11.144
36706W        W 9131  13.261  43.817  12.443
36707W        W 9132   4.901  26.132  14.017
36708W        W 9133  19.744  26.897   0.407
36709W        W 9134  40.864  27.049   0.297
36710W        W 9135  35.154   4.934  13.915
36711W        W 9136  23.987   8.950  11.823
36712W        W 9137   4.919  33.554   1.395
36713W        W 9138  25.338  40.993  11.541
36714W        W 9139  38.576  44.012  13.524
36715W        W 9140  42.674  20.315  12.331
36716W        W 9141   7.888  36.592   4.297
36717W        W 9142  32.134   5.780  12.478
36718W        W 9143  22.017  36.678  14.803
36719W        W 9144   3.979  23.227  11.927
36720W        W 9145  19.038  32.447   2.193
36721W        W 9146  42.868  19.664   1.338
36722W        W 9147  22.201   2.357   2.132
36723W        W 9148  30.807  33.446   1.177
36724W        W 9149   5.701  13.852  10.683
36725W        W 9150  44.910  39.392  12.553
36726W        W 9151  10.280   3.333   1.761
36727W        W 9152  19.540  34.741  11.072
36728W        W 9153  18.068   7.425   1.741
36729W        W 9154  33.059  37.739   4.207
36730W        W 9155  34.895  44.954   4.269
36731W        W 9156   2.676   0.474  12.479
36732W        W 9157  21.722   8.937   1.317
36733W        W 9158  28.573   6.278   2.045
36734W        W 9159  19.110  23.224   1.404
36735W        W 9160  11.562  37.319   5.109
36736W        W 9161  24.308   6.777   3.316
36737W        W 9162  33.380   9.165   0.845
36738W        W 9163  11.208  25.593  13.512
36739W        W 9164   3.180  18.824  12.850
36740W        W 9165  20.702  19.309   0.655
36741W        W 9166  22.302  40.394   1.204
36742W        W 9167   5.759  34.229   1.372
36743W        W 9168  41.711  14.272   1.857
36744W        W 9169  27.637  33.074   3.081
36745W        W 9170  29.133   9.436   1.334
36746W        W 9171  12.618  39.325   4.205
36747W        W 9172  11.156  37.429  12.505
36748W        W 9173  44.291  44.323  11.964
36749W        W 9174  40.406  15.771  13.955
36750W        W 9175  26.131  27.927   4.103
36751W        W 9176  36.909  12.127   4.208
36752W        W 9177  18.168   3.482   2.324
36753W        W 9178  22.483  33.343  13.538
36754W        W 9179  22.292  21.024   4.162
36755W        W 9180   0.918  34.140   5.001
36756W        W 9181  28.129  17.231  14.463
36757W        W 9182  23.640  20.470   0.218
36758W        W 9183   6.812  44.028  12.491
36759W        W 9184  34.513  25.551  13.323
36760W        W 9185  32.936  41.248   3.410
36761W        W 9186  38.087  12.012  14.791
36762W        W 9187  16.083  17.765  10.995
36763W        W 9188   8.766  25.061  10.730
36764W        W 9189  14.230   2.446  11.233
36765W        W 9190  26.552   2.269  13.128
36766W        W 9191  22.498  15.757  12.012
36767W        W 9192  27.433  35.534   1.936
36768W        W 9193   2.974  27.858   3.036
36769W        W 9194  35.858  30.214   4.118
36770W        W 9195  20.756  16.797   1.411
36771W        W 9196  27.849   6.580   0.894
36772W        W 9197  25.987  36.091  11.662
36773W        W 9198   0.816  27.906   2.229
36774W        W 9199  34.762  17.807   4.647
36775W        W 9200  35.525  32.079   3.887
36776W        W 9201   9.144  43.759  13.757
36777W        W 9202  28.918   0.415  10.660
36778W        W 9203  32.409  38.946   4.328
36779W        W 9204  25.676  36.022  10.450
36780W        W 9205  23.488   8.215   0.717
36781W        W 9206  25.064   6.344  10.630
36782W        W 9207  37.838   2.180   4.211
36783W        W 9208  42.075  11.568  13.480
36784W        W 9209  23.906  22.105   0.268
36785W        W 9210  15.384  32.538   0.841
36786W        W 9211  33.621  44.744  11.639
36787W        W 9212   5.699  30.664   3.576
36788W        W 9213  42.854  17.629  11.114
36789W        W 9214  26.673  18.172  12.952
36790W        W 9215  35.414  10.615   1.153
36791W        W 9216  31.195  42.497  12.582
36792W        W 9217  21.114  20.980  10.849
36793W        W 9218   9.390  23.194   4.252
36794W        W 9219  23.707  38.026  12.082
36795W        W 9220  41.715  32.577  11.230
36796W        W 9221  16.985  13.055  13.056
36797W        W 9222   2.797  26.546   0.730
36798W        W 9223  29.252  26.534  12.299
36799W        W 9224  35.798  24.345   2.280
36800W        W 9225  29.500  25.309   2.352
36801W        W 9226  10.207   9.808  14.213
36802W        W 9227   2.750   2.079   0.696
36803W        W 9228  31.175  43.912   1.346
36804W        W 9229  41.497   9.712   4.569
36805W        W 9230  43.798  10.831   0.267
36806W        W 9231   2.283  19.714   9.872
36807W        W 9232  44.416   8.782   4.300
36808W        W 9233  18.512  22.224   0.578
36809W        W 9234  36.026   5.011   3.502
36810W        W 9235  33.355  33.322   2.784
36811W        W 9236  30.507   8.862  10.649
36812W        W 9237   8.929  32.016  12.508
36813W        W 9238  36.565   1.008  10.347
36814W        W 9239  20.185  42.230   4.601
36815W        W 9240  21.781  30.391  13.922
36816W        W 9241  43.317  13.396   0.904
36817W        W 9242  23.648  44.485  12.473
36818W        W 9243  32.346  41.295   4.600
36819W        W 9244  39.571  42.614   3.002
36820W        W 9245  30.044   5.641  10.659
36821W        W 9246   3.047  44.119   2.661
36822W        W 9247  40.876  23.107   0.668
36823W        W 9248  44.943   0.837   1.896
36824W        W 9249  32.105  24.662  12.180
36825W        W 9250  15.663  38.310  11.882
36826W        W 9251  38.071  22.118   4.621
36827W        W 9252   4.832   4.975  12.937
36828W        W 9253  19.669   2.778   4.624
36829W        W 9254  12.150  40.368  10.330
36830W        W 9255  32.589  38.076   4.879
36831W        W 9256  44.291  29.506   2.782
36832W        W 9257  21.723  20.991   1.401
36833W        W 9258  34.100  29.562   1.154
36834W        W 9259  35.563  40.082  11.442
36835W        W 9260   8.504  31.028   1.904
36836W        W 9261  41.065   5.719  14.043
36837W        W 9262  23.582  15.350  14.913
36838W        W 9263  16.855  26.945  14.714
36839W        W 9264   4.912   2.387  12.950
36840W        W 9265  44.722  18.284   3.713
36841W        W 9266   7.850  32.793   1.237
36842W        W 9267  17.695   5.770   2.282
36843W        W 9268   1.072  32.173  13.791
36844W        W 9269  43.382  23.426  12.864
36845W        W 9270  39.851  26.454   3.744
36846W        W 9271  30.435   0.460  12.890
36847W        W 9272  19.677  31.651   3.806
36848W        W 9273  12.801   7.530   3.852
36849W        W 9274   0.873  17.584   4.682
36850W        W 9275  33.213  13.848  12.088
36851W        W 9276   8.409  42.965  14.334
36852W        W 9277  29.183   5.820  12.514
36853W        W 9278  31.735  35.163  13.928
36854W        W 9279  40.162  22.530  13.606
36855W        W 9280  21.910  31.474   4.172
36856W        W 9281  37.086   3.072   2.387
36857W        W 9282  36.515   4.920   3.329
36858W        W 9283   7.128  26.062   1.399
36859W        W 9284  37.984  30.268  12.085
36860W        W 9285  34.270  23.473   2.740
36861W        W 9286  10.813  32.668   2.184
36862W        W 9287  40.817  38.659   4.007
36863W        W 9288   6.679  37.817  13.298
36864W        W 9289  34.447   2.152   4.188
36865W        W 9290  13.791  42.248  12.748
36866W        W 9291  33.528  16.177  11.545
36867W        W 9292   7.879  22.263  12.044
36868W        W 9293   3.922  19.614   4.165
36869W        W 9294  43.850  18.680   1.171
36870W        W 9295  33.025   3.879   2.210
36871W        W 9296  40.076  18.069   4.098
36872W        W 9297  12.331   1.197  14.013
36873W        W 9298  19.243   3.405  14.563
36874W        W 9299  23.252  21.038   0.840
36875W        W 9300  22.488  12.367   3.101
36876W        W 9301  33.344   8.843   1.271
36877W        W 9302  37.054  36.681  14.942
36878W        W 9303  30.954  32.160   4.556
36879W        W 9304  44.508  12.985  13.040
36880W        W 9305  13.608  29.421  13.935
36881W        W 9306  42.925   3.837   1.381
36882W        W 9307  27.595  18.153  12.977
36883W        W 9308  18.180  29.194   1.417
36884W        W 9309   1.146  33.586   5.530
36885W        W 9310  14.060  29.677  12.014
36886W        W 9311  23.549  33.742  11.076
36887W        W 9312  20.097  35.970   3.696
36888W        W 9313  38.603  11.645  14.196
36889W        W 9314  43.689  26.195  11.330
36890W        W 9315  27.429  20.648  11.569
36891W        W 9316  44.769  34.867  10.453
36892W        W 9317   3.080  16.672   4.745
36893W        W 9318  37.342   8.723  11.015
36894W        W 9319   5.287  33.050   1.934
36895W        W 9320  40.680  34.696   2.204
36896W        W 9321  43.981  20.253   3.277
36897W        W 9322  27.417  10.021   3.749
36898W        W 9323   7.849  24.947  12.568
36899W        W 9324  16.793   0.234   4.686
36900W        W 9325   7.273  44.259  12.585
36901W        W 9326  44.662   6.924   2.992
36902W        W 9327   5.375  36.245   1.714
36903W        W 9328  10.891   4.912  14.875
36904W        W 9329   7.297  34.349   1.456
36905W        W 9330  27.655   8.820  10.992
36906W        W 9331   8.739  29.464  11.929
36907W        W 9332  11.730  20.541   4.416
36908W        W 9333  38.835  24.092  12.012
36909W        W 9334  11.275  11.286  11.957
36910W        W 9335  31.967  40.315   3.611
36911W        W 9336  32.865  33.969  11.731
36912W        W 9337  29.624  17.794   1.731
36913W        W 9338   6.395   0.346   1.981
36914W        W 9339  14.656   6.324   4.185
36915W        W 9340  13.687   7.483  11.928
36916W        W 9341  22.292  33.117   0.458
36917W        W 9342  25.531  30.110  14.044
36918W        W 9343   5.640  15.711  11.021
36919W        W 9344  36.103  32.957  10.716
36920W        W 9345  26.962   7.504   2.297
36921W        W 9346  38.823  18.664  14.381
36922W        W 9347   5.841  31.219  10.631
36923W        W 9348  34.613  33.863   0.800
36924W        W 9349  31.484  10.833  11.229
36925W        W 9350  25.799  28.178  13.396
36926W        W 9351  24.425   4.676   2.702
36927W        W 9352  11.587  25.578   0.382
36928W        W 9353  21.398  27.654  11.293
36929W        W 9354  30.584  31.431   4.621
36930W        W 9355  16.052  10.048  14.213
36931W        W 9356   1.625  35.495   3.339
36932W        W 9357  12.357   2.423   4.562
36933W        W 9358  20.273  12.480   3.724
36934W        W 9359   9.022  13.909  12.576
36935W        W 9360  29.720  39.648  14.257
36936W        W 9361  28.017  30.364   4.632
36937W        W 9362  29.949  29.943   3.885
36938W        W 9363  17.299  26.061   2.405
36939W        W 9364  28.261  44.739   2.818
36940W        W 9365  23.429   6.920  14.532
36941W        W 9366  17.720   7.986   0.865
36942W        W 9367  13.600   3.756   1.370
36943W        W 9368  29.282   0.752   3.249
36944W        W 9369  42.930  35.542   3.685
36945W        W 9370  17.862  18.042  12.377
36946W        W 9371   8.788  35.259  13.794
36947W        W 9372  16.793  37.426  13.803
36948W        W 9373  31.898  28.944  14.927
36949W        W 9374  16.182  28.442   4.273
36950W        W 9375  12.860  13.201  13.553
36951W        W 9376  14.295  17.660  12.178
36952W        W 9377   0.267  29.935  14.500
36953W        W 9378  42.738  28.621   3.272
36954W        W 9379   9.883  36.478   1.755
36955W        W 9380   4.219  30.359  13.505
36956W        W 9381  20.966  21.679  13.948
36957W        W 9382  27.626  31.854   9.883
36958W        W 9383  34.940   6.658  13.344
36959W        W 9384  18.788  20.752  14.648
36960W        W 9385  33.496  27.422  12.551
36961W        W 9386  29.047  16.235  13.990
36962W        W 9387   9.484   2.365  11.419
36963W        W 9388  22.478  12.822   0.995
36964W        W 9389  32.473  23.045  10.837
36965W        W 9390  33.618  38.968   3.784
36966W        W 9391  41.484  17.354   2.248
36967W        W 9392  43.007  22.323  10.149
36968W        W 9393  20.096  11.854   0.871
36969W        W 9394  34.085  16.811   3.297
36970W        W 9395   2.243  15.600   1.098
36971W        W 9396  20.787  34.332   2.787
36972W        W 9397  41.166  14.760  11.148
36973W        W 9398  29.367  22.620   4.767
36974W        W 9399  27.135  18.781   4.581
36975W        W 9400  32.746  31.509   4.738
36976W        W 9401  17.371  15.914   0.468
36977W        W 9402  39.441  17.566  12.871
36978W        W 9403  34.468  32.555   4.599
36979W        W 9404   2.834  32.320   3.538
36980W        W 9405  17.573   2.722  13.865
36981W        W 9406  40.233  18.970  10.938
36982W        W 9407  21.683   9.431  13.164
36983W        W 9408   1.472  23.770  14.291
36984W        W 9409  13.074  12.195  11.510
36985W        W 9410  32.461  36.023  10.932
36986W        W 9411  31.318  23.812  11.028
36987W        W 9412  42.864  13.035   0.064
36988W        W 9413  20.133  22.687  11.230
36989W        W 9414  25.038  22.561  10.608
36990W        W 9415  13.961  31.134   3.044
36991W        W 9416  33.514   6.669   3.596
36992W        W 9417   6.285  38.807  13.365
36993W        W 9418  10.312  36.784  14.544
36994W        W 9419  17.107  44.253  13.446
36995W        W 9420  18.066  28.632  14.148
36996W        W 9421  37.060  31.243  12.697
36997W        W 9422  34.356  11.871   3.898
36998W        W 9423  32.674  27.441  10.464
36999W        W 9424  33.920  24.022  14.819
37000W        W 9425  29.455  22.636   2.445
37001W        W 9426  17.720  39.794   4.106
37002W        W 9427   2.772   2.540   4.114
37003W        W 9428   4.351   2.734  14.389
37004W        W 9429  12.930  12.548  10.291
37005W        W 9430  43.317  11.348  14.641
37006W        W 9431   0.810  36.909   2.162
37007W        W 9432  14.621  32.520   0.391
37008W        W 9433   2.542  20.931  10.039
37009W        W 9434  17.063  17.421   3.280
37010W        W 9435  44.553  33.642  12.496
37011W        W 9436  43.227   2.853   2.538
37012W        W 9437  15.627  27.930  10.716
37013W        W 9438  43.321  10.669  12.370
37014W        W 9439  22.014  28.106  12.886
37015W        W 9440  26.055  39.720  14.776
37016W        W 9441   9.440   2.899  14.900
37017W        W 9442  38.437  33.528   4.762
37018W        W 9443   9.723  33.080  10.861
37019W        W 9444  42.360  38.188   4.508
37020W        W 9445  29.088  15.658   3.173
37021W        W 9446  31.051  18.058   1.894
37022W        W 9447  40.043  19.158   2.278
37023W        W 9448   4.240  28.994   4.664
37024W        W 9449  28.702  34.450  14.258
37025W        W 9450  39.285   7.305  12.568
37026W        W 9451  20.055   9.735  11.682
37027W        W 9452  21.968  12.040  10.162
37028W        W 9453  23.143  31.976  12.826
37029W        W 9454  39.316  40.995   1.657
37030W        W 9455  21.095   7.811   0.281
37031W        W 9456  10.164  17.554  13.867
37032W        W 9457  18.740  12.558   1.765
37033W        W 9458  40.766  13.653   0.849
37034W        W 9459  16.822  42.879  10.658
37035W        W 9460  25.119  35.624  14.434
37036W        W 9461  12.211   7.693   2.249
37037W        W 9462  12.506  17.143  12.616
37038W        W 9463  15.303   9.422   5.082
37039W        W 9464  28.863  14.260  14.328
37040W        W 9465  22.261   8.152  12.870
37041W        W 9466  41.317  13.279   2.166
37042W        W 9467  23.062  15.542   2.199
37043W        W 9468  36.526  17.654   3.720
37044W        W 9469  21.719  10.197   1.126
37045W        W 9470  20.282  12.604  11.749
37046W        W 9471   0.895   1.427   4.044
37047W        W 9472  16.074  25.485   4.552
37048W        W 9473  37.884  22.154   1.220
37049W        W 9474  23.158  22.118  11.380
37050W        W 9475   2.857  15.488   1.304
37051W        W 9476  16.573  25.551  12.483
37052W        W 9477  44.197  22.443  14.827
37053W        W 9478  12.365  32.454   4.771
37054W        W 9479  20.330  24.511   3.331
37055W        W 9480  32.505  15.085  14.952
37056W        W 9481  35.590  22.175  13.466
37057W        W 9482   0.733  14.277   4.215
37058W        W 9483  29.563   4.325   4.667
37059W        W 9484  30.119  11.187   3.129
37060W        W 9485  34.865  25.396   1.174
37061W        W 9486  44.030  27.542   1.822
37062W        W 9487   6.979  13.703  13.151
37063W        W 9488   4.890   0.075   2.807
37064W        W 9489  26.145  36.330   0.527
37065W        W 9490  37.323  18.514  13.607
37066W        W 9491   5.681   5.411   4.408
37067W        W 9492   9.608   8.771   3.148
37068W        W 9493  23.487  14.610  12.017
37069W        W 9494  11.641  14.222   2.266
37070W        W 9495  17.504  26.195  13.776
37071W        W 9496  23.530  44.091   4.019
37072W        W 9497  34.910  18.724   1.821
37073W        W 9498  10.970   7.777   2.632
37074W        W 9499  23.768  44.884  10.603
37075W        W 9500  42.454  26.235  13.837
37076W        W 9501  16.830  15.168   3.134
37077W        W 9502  19.823  27.012   2.558
37078W        W 9503  31.062  26.134  10.985
37079W        W 9504  19.718  36.755   4.558
37080W        W 9505  36.417  31.572  10.727
37081W        W 9506  16.954   1.235   0.929
37082W        W 9507  13.670   4.895   9.655
37083W        W 9508  36.468  16.664   1.204
37084W        W 9509  36.423  30.920   4.292
37085W        W 9510   6.808  24.652   2.237
37086W        W 9511   2.307   4.080  11.323
37087W        W 9512  22.863  11.319   3.654
37088W        W 9513  15.565  34.884   2.643
37089W        W 9514  14.186   4.809  10.383
37090W        W 9515  14.773  44.755   3.790
37091W        W 9516  21.420  43.258  14.268
37092W        W 9517  25.704  12.513  14.926
37093W        W 9518  34.876  24.006   0.767
37094W        W 9519  12.248  40.151  14.908
37095W        W 9520  39.333  35.092   4.414
37096W        W 9521  15.670  40.603   2.675
37097W        W 9522  15.657  26.455   4.178
37098W        W 9523   8.152  37.091   4.408
37099W        W 9524  42.316  32.170  13.448
37100W        W 9525  23.973  11.363  14.947
37101W        W 9526   4.734  41.212   2.732
37102W        W 9527  44.617   1.916  10.628
37103W        W 9528   9.790  30.019   3.692
37104W        W 9529   5.618   2.270   0.901
37105W        W 9530  39.016  27.476   4.574
37106W        W 9531  43.602   8.278  14.224
37107W        W 9532  32.208   3.725   4.039
37108W        W 9533  40.945  39.895  11.716
37109W        W 9534  32.281   1.186  12.853
37110W        W 9535  42.422   5.839   0.369
37111W        W 9536  14.826  12.848   1.880
37112W        W 9537  43.540  43.147   4.703
37113W        W 9538   3.334   3.304  10.651
37114W        W 9539   6.473  24.624  12.044
37115W        W 9540  37.667  28.596   3.380
37116W        W 9541  28.898  13.639  10.614
37117W        W 9542  40.414  28.494  11.119
37118W        W 9543  12.722  15.431   3.781
37119W        W 9544   5.817  10.401   1.936
37120W        W 9545   1.752  16.934   3.711
37121W        W 9546  33.009  42.401  11.026
37122W        W 9547   4.413  33.656   3.365
37123W        W 9548  25.179  26.095  13.521
37124W        W 9549  34.423  15.133  11.661
37125W        W 9550  13.585   8.422   2.801
37126W        W 9551  12.081  12.750   3.805
37127W        W 9552   3.520  32.929  11.065
37128W        W 9553  36.987  19.009   2.375
37129W        W 9554  12.274  24.012  10.188
37130W        W 9555  24.582  16.269   0.072
37131W        W 9556  39.007  13.763  14.484
37132W        W 9557  14.654  44.934  12.833
37133W        W 9558  42.875  27.037  12.687
37134W        W 9559  15.734  44.057   2.637
37135W        W 9560  42.970  33.396  10.900
37136W        W 9561  29.367   1.127   2.911
37137W        W 9562  30.635  18.189  13.146
37138W        W 9563  11.921  19.601  14.545
37139W        W 9564  12.116  41.883   3.345
37140W        W 9565  10.964   2.187   1.423
37141W        W 9566   0.195  14.377   3.342
37142W        W 9567  18.639  28.277   3.293
37143W        W 9568  44.440   4.392   4.901
37144W        W 9569  34.013  36.115   3.909
37145W        W 9570   9.792  11.645  13.059
37146W        W 9571  11.703  12.920  13.774
37147W        W 9572  29.775  29.477   2.484
37148W        W 9573  17.240  37.492  13.023
37149W        W 9574  30.010  38.562  13.116
37150W        W 9575   8.604  42.049  13.977
37151W        W 9576   9.162   3.280   0.885
37152W        W 9577  39.012  17.482   4.531
37153W        W 9578  38.049   2.764  13.389
37154W        W 9579  15.612  21.245   2.297
37155W        W 9580  32.359   5.864   4.625
37156W        W 9581  31.507  15.851   4.661
37157W        W 9582  19.799  25.613  12.074
37158W        W 9583  36.522   2.197  14.581
37159W        W 9584  40.569   3.272  12.546
37160W        W 9585  36.097  42.716  13.378
37161W        W 9586  13.337  38.972   2.195
37162W        W 9587   4.816  10.246  13.623
37163W        W 9588   6.871   8.976  14.934
37164W        W 9589  22.474   4.284   3.741
37165W        W 9590  26.423  20.193   0.232
37166W        W 9591  37.205   9.283   1.379
37167W        W 9592  13.999  42.920   1.667
37168W        W 9593   0.777  34.448  14.286
37169W        W 9594  21.795   9.132  14.022
37170W        W 9595  42.202  41.389  12.074
37171W        W 9596  36.868  32.286  11.076
37172W        W 9597  40.650  33.359   0.480
37173W        W 9598  39.472   0.290   0.665
37174W        W 9599  41.364   7.260   1.198
37175W        W 9600  17.540  14.808  10.638
37176W        W 9601   2.756  25.194  14.343
37177W        W 9602  23.292   5.772   1.670
37178W        W 9603  37.984  39.811   0.309
37179W        W 9604  17.511  27.138   1.953
37180W        W 9605  39.808   8.864   4.164
37181W        W 9606  19.569  34.945  11.911
37182W        W 9607  28.514   9.549  10.797
37183W        W 9608  28.840  28.057  10.469
37184W        W 9609  16.139   9.556  11.723
37185W        W 9610  11.596  33.532   0.747
37186W        W 9611   7.789  33.942   4.207
37187W        W 9612   4.948  35.076   4.947
37188W        W 9613  20.131  24.062   3.126
37189W        W 9614   5.534   9.838   0.305
37190W        W 9615  28.465  32.101   2.235
37191W        W 9616  40.624  12.308   2.291
37192W        W 9617  25.159  39.797   2.269
37193W        W 9618  23.592  38.366  11.338
37194W        W 9619  37.058  33.536  12.900
37195W        W 9620   9.387  41.187   1.388
37196W        W 9621  16.618  38.477  10.521
37197W        W 9622  13.689  42.282  11.111
37198W        W 9623  25.150  10.441   4.196
37199W        W 9624  23.550  15.699  14.512
37200W        W 9625  33.578  30.637  11.843
37201W        W 9626   1.759  39.265  11.131
37202W        W 9627  24.073  35.834   1.748
37203W        W 9628  26.948  37.404  10.369
37204W        W 9629  16.778  39.270  10.645
37205W        W 9630  14.111  25.140   3.696
37206W        W 9631  34.737  31.193  10.698
37207W        W 9632  17.550  39.543   0.924
37208W        W 9633  29.789  27.512   1.409
37209W        W 9634  13.128   2.367   3.883
37210W        W 9635  15.969  13.078  12.579
37211W        W 9636  12.170  19.056   2.377
37212W        W 9637  40.352  39.238  13.388
37213W        W 9638  32.871  33.198   2.650
37214W        W 9639  19.764  17.118   2.920
37215W        W 9640  43.860  23.913   1.293
37216W        W 9641  10.278  40.453   3.778
37217W        W 9642  24.244  35.420  14.927
37218W        W 9643  22.579  34.088   1.915
37219W        W 9644  38.571   6.925   0.999
37220W        W 9645   8.696  32.590  13.403
37221W        W 9646  39.564   8.360  14.765
37222W        W 9647  22.925  13.574  12.908
37223W        W 9648  33.803   3.492   1.144
37224W        W 9649   1.584  26.904   3.270
37225W        W 9650  18.575  15.164   2.841
37226W        W 9651  37.614   8.225  12.053
37227W        W 9652  29.462  14.124   4.595
37228W        W 9653  23.922   6.797  14.710
37229W        W 9654  16.059  44.729   0.376
37230W        W 9655  14.595  40.396  10.692
37231W        W 9656   8.920  36.070  13.500
37232W        W 9657   7.689  31.496   1.673
37233W        W 9658  31.127   2.728   2.357
37234W        W 9659   1.930  16.774   3.233
37235W        W 9660  11.112   9.289  11.540
37236W        W 9661  11.773  24.688  11.732
37237W        W 9662  12.811  22.135  12.392
37238W        W 9663  30.291   1.306   2.745
37239W        W 9664  32.255   3.623  12.064
37240W        W 9665  28.395  43.943  14.049
37241W        W 9666  22.033  38.524   4.119
37242W        W 9667  37.506   3.791  13.474
37243W        W 9668  32.640  37.273   3.785
37244W        W 9669  12.637  33.796   3.297
37245W        W 9670   3.974  34.839  13.506
37246W        W 9671  32.582  27.973   3.208
37247W        W 9672  35.986   9.717  10.503
37248W        W 9673   8.149  36.978   1.253
37249W        W 9674  21.063   0.536   3.258
37250W        W 9675  17.909  24.020  12.534
37251W        W 9676  39.294  36.572   4.429
37252W        W 9677   1.663  14.228   2.632
37253W        W 9678  37.586  16.084   3.199
37254W        W 9679  23.762  21.703   2.168
37255W        W 9680  39.244   6.197  13.377
37256W        W 9681  28.173  35.644   0.863
37257W        W 9682  23.759  19.413  12.965
37258W        W 9683  19.268  26.573  12.528
37259W        W 9684  38.106  27.852   2.814
37260W        W 9685  28.383  43.721   0.856
37261W        W 9686  42.606  26.771   0.046
37262W        W 9687  35.634   2.684   3.827
37263W        W 9688  31.882  44.967  12.020
37264W        W 9689  35.495  11.196  14.747
37265W        W 9690  28.108  28.450   1.257
37266W        W 9691  35.177  41.706   0.324
37267W        W 9692  35.075  32.646   0.118
37268W        W 9693  14.697   8.610  14.840
37269W        W 9694   6.673  25.614  13.964
37270W        W 9695  30.177  20.573  13.450
37271W        W 9696  40.058  24.170  12.029
37272W        W 9697  40.927  21.590   2.092
37273W        W 9698  12.726  15.181  13.317
37274W        W 9699  30.113  28.098  12.135
37275W        W 9700   1.698  23.548   1.296
37276W        W 9701  29.208  23.493  12.028
37277W        W 9702  11.679  11.445   1.713
37278W        W 9703  37.010  42.326   1.183
37279W        W 9704  29.939  41.831   0.419
37280W        W 9705  38.982  26.185   3.095
37281W        W 9706  27.411  30.666  13.450
37282W        W 9707  42.749   1.850  11.490
37283W        W 9708  16.599  18.603  11.944
37284W        W 9709  12.898   1.889  12.442
37285W        W 9710  22.597   7.601   1.692
37286W        W 9711  36.094  39.433  10.615
37287W        W 9712  41.037   5.284  14.297
37288W        W 9713  17.320  26.066  11.292
37289W        W 9714  19.673  22.755  11.007
37290W        W 9715  31.627  15.056   0.885
37291W        W 9716  17.583  28.435   3.752
37292W        W 9717  41.395  22.925  12.364
37293W        W 9718   9.177   2.038  11.691
37294W        W 9719   5.021  32.347   4.577
37295W        W 9720  27.963  23.612   5.091
37296W        W 9721  13.453  35.886   1.216
37297W        W 9722  25.500   1.586  13.076
37298W        W 9723  16.771  39.786  10.800
37299W        W 9724  31.628  17.173   2.782
37300W        W 9725  30.116  30.210  14.969
37301W        W 9726  24.235  42.589   3.324
37302W        W 9727  15.349  34.100   1.244
37303W        W 9728  11.352  37.542   3.797
37304W        W 9729  22.310  43.056  12.349
37305W        W 9730  15.218  34.859   3.069
37306W        W 9731  33.537  15.696  10.114
37307W        W 9732  30.143   6.910  14.847
37308W        W 9733  19.839   5.381   2.175
37309W        W 9734  42.310  27.045   1.769
37310W        W 9735  19.649  10.993  11.650
37311W        W 9736  27.893   5.614   1.181
37312W        W 9737  34.610  22.031  10.983
37313W        W 9738   2.019  23.565   1.705
37314W        W 9739   2.292  31.555  13.760
37315W        W 9740  28.027  20.222   2.293
37316W        W 9741  41.989  39.381  13.392
37317W        W 9742   4.606  33.022  12.509
37318W        W 9743  22.577  41.915   4.534
37319W        W 9744  37.572  24.499   2.228
37320W        W 9745  18.414  28.585  12.750
37321W        W 9746  25.031   2.343  13.533
37322W        W 9747  14.120  14.954  12.368
37323W        W 9748  10.831  38.118   1.788
37324W        W 9749  25.031  16.795  10.757
37325W        W 9750  23.890  18.286   1.883
37326W        W 9751  31.772   2.311  12.606
37327W        W 9752  24.581  36.646   4.522
37328W        W 9753   4.371  21.229   1.457
37329W        W 9754  27.213  27.377  14.761
37330W        W 9755  27.047  33.479   3.294
37331W        W 9756  20.181  33.662   4.002
37332W        W 9757  30.019   1.255  14.306
37333W        W 9758  11.207  15.834  12.673
37334W        W 9759  12.880  33.422  13.447
37335W        W 9760  38.806   7.318   2.813
37336W        W 9761  29.105  27.017  14.110
37337W        W 9762  31.143   6.439  14.055
37338W        W 9763  14.766  21.668  14.791
37339W        W 9764  12.129  27.279  13.431
37340W        W 9765  15.521  23.216  11.055
37341W        W 9766   4.944  18.567  11.997
37342W        W 9767   5.325  25.407  11.146
37343W        W 9768  33.595   5.931  14.765
37344W        W 9769  37.364  25.750   1.246
37345W        W 9770  27.478  29.960   4.144
37346W        W 9771  26.647  41.500   1.196
37347W        W 9772  31.630  36.811   0.925
37348W        W 9773  27.081  17.186  13.373
37349W        W 9774   1.596  16.485  10.646
37350W        W 9775  18.762  12.910   3.241
37351W        W 9776  14.894  14.790  10.733
37352W        W 9777   5.235  39.950   1.371
37353W        W 9778  39.114  21.593   0.164
37354W        W 9779  34.119  18.691  12.116
37355W        W 9780  13.662   3.304  14.264
37356W        W 9781  37.934  30.251  14.444
37357W        W 9782  34.035  13.709   2.894
37358W        W 9783  35.764   3.813  14.298
37359W        W 9784  33.660  21.601   1.876
37360W        W 9785   4.250  24.172  12.388
37361W        W 9786   0.275   3.772  10.772
37362W        W 9787  44.072  27.703   2.625
37363W        W 9788  12.030  13.607  14.974
37364W        W 9789   9.897  44.792   2.741
37365W        W 9790  19.585  18.054  14.811
37366W        W 9791  18.609  10.632   0.515
37367W        W 9792   3.542  39.387  12.474
37368W        W 9793   5.505  30.455   1.794
37369W        W 9794   4.400  28.562   0.856
37370W        W 9795   5.361   0.241  11.253
37371W        W 9796  22.011  30.581   1.640
37372W        W 9797  13.374  19.046   0.676
37373W        W 9798  36.818  11.062  11.555
37374W        W 9799  42.715  31.642   2.989
37375W        W 9800  32.912  20.222   4.665
37376W        W 9801   5.116  34.519   4.126
37377W        W 9802  26.670  34.383   3.825
37378W        W 9803   9.624  15.915  13.042
37379W        W 9804  17.809  39.325   3.936
37380W        W 9805  35.529  19.985  12.051
37381W        W 9806  39.876  33.427  14.428
37382W        W 9807   9.945   8.240  14.375
37383W        W 9808  42.525  36.121   0.835
37384W        W 9809  12.180  33.851   2.410
37385W        W 9810  28.496  32.118   9.977
37386W        W 9811  31.445  31.124  13.999
37387W        W 9812  17.570  30.877   3.275
37388W        W 9813  29.904  17.707   3.810
37389W        W 9814  22.737  18.621  11.608
37390W        W 9815   7.791   0.723  11.053
37391W        W 9816  42.110  37.520   0.851
37392W        W 9817  22.563  28.706   1.218
37393W        W 9818   3.387   9.063   5.070
37394W        W 9819  23.182  14.403  12.635
37395W        W 9820  37.846  39.487  14.844
37396W        W 9821   9.981  17.120  12.293
37397W        W 9822  43.779  21.977  13.141
37398W        W 9823  14.707  40.943   2.640
37399W        W 9824  37.867   0.380  10.764
37400W        W 9825  38.019  39.112   1.858
37401W        W 9826   1.213  30.513  10.744
37402W        W 9827  24.081  30.786  10.144
37403W        W 9828  16.285  28.992   3.647
37404W        W 9829   7.989  13.306   3.395
37405W        W 9830  28.130  38.448   0.485
37406W        W 9831  27.024   6.931  11.565
37407W        W 9832  19.207  40.393   0.284
37408W        W 9833   1.717   4.489   0.493
37409W        W 9834  31.009  29.575   0.285
37410W        W 9835  26.529  24.565  13.491
37411W        W 9836  30.625  19.356   1.307
37412W        W 9837   7.658  10.907   0.320
37413W        W 9838  24.029  23.254   1.806
37414W        W 9839  22.985  10.230   1.821
37415W        W 9840  30.078  27.232  11.159
37416W        W 9841   2.234  37.787   1.904
37417W        W 9842  17.890  35.812   2.067
37418W        W 9843  36.202   4.243  13.438
37419W        W 9844  36.241  43.934  13.026
37420W        W 9845   7.726   4.886  10.562
37421W        W 9846   7.348  39.474   0.906
37422W        W 9847  32.396  10.102  11.567
37423W        W 9848  14.107  15.224  13.032
37424W        W 9849  44.118   3.344  12.018
37425W        W 9850  24.288  44.059  14.493
37426W        W 9851  15.068   2.926  13.930
37427W        W 9852  18.777  13.277  12.106
37428W        W 9853  31.505  27.938   4.133
37429W        W 9854   1.448  37.365  14.491
37430W        W 9855   4.912  41.299   4.228
37431W        W 9856  31.956   6.254   0.230
37432W        W 9857  42.944  29.269   1.659
37433W        W 9858  36.926  24.585   3.084
37434W        W 9859   7.629   8.205   4.602
37435W        W 9860   9.091  44.861   4.664
37436W        W 9861  14.562  41.430   0.938
37437W        W 9862  14.530  41.350  11.169
37438W        W 9863   3.843  17.831   3.711
37439W        W 9864   4.806  16.771  13.599
37440W        W 9865  25.932  10.090   1.751
37441W        W 9866  31.922  20.648   3.837
37442W        W 9867  39.869  10.949  14.667
37443W        W 9868  20.632  24.647   4.106
37444W        W 9869   5.958  40.899   1.061
37445W        W 9870  33.815  12.075  13.565
37446W        W 9871  24.944   0.207  10.623
37447W        W 9872  14.050  37.668  10.744
37448W        W 9873  16.163  19.892   4.377
37449W        W 9874  40.120  30.384   2.278
37450W        W 9875   8.788   1.735   1.294
37451W        W 9876  38.257   5.469   3.664
37452W        W 9877  20.275   8.938  10.426
37453W        W 9878  38.869  32.521   1.402
37454W        W 9879  38.554  16.651   3.751
37455W        W 9880  38.485  40.032  10.515
37456W        W 9881   6.725  35.062  12.851
37457W        W 9882   2.314  41.023   1.502
37458W        W 9883  31.191  10.774  11.652
37459W        W 9884  42.344  21.619  11.905
37460W        W 9885  28.767  38.528  14.276
37461W        W 9886  22.162  44.995  13.911
37462W        W 9887  20.720  41.526   4.729
37463W        W 9888  16.989  41.728  12.111
37464W        W 9889  14.867  41.918   3.816
37465W        W 9890  41.957  38.925   4.710
37466W        W 9891   7.946   0.531   1.723
37467W        W 9892   7.362  17.826  10.858
37468W        W 9893  19.451  15.518  11.395
37469W        W 9894  20.551  15.134   4.571
37470W        W 9895  43.921  22.739   0.439
37471W        W 9896  10.113  17.225  14.965
37472W        W 9897  12.422   4.357   5.840
37473W        W 9898  22.190  27.123   0.278
37474W        W 9899  28.538   6.543  10.671
37475W        W 9900  42.623  29.538   4.527
37476W        W 9901   3.959  33.431   3.263
37477W        W 9902  12.580  10.954   2.723
37478W        W 9903  29.934  13.548   4.756
37479W        W 9904  18.165  27.005   3.078
37480W        W 9905  42.052  40.885   0.414
37481W        W 9906  25.660  29.213  12.457
37482W        W 9907   3.198   0.991   2.586
37483W        W 9908  19.565  35.374  12.207
37484W        W 9909  33.480  34.491   1.425
37485W        W 9910  11.889   2.572  11.644
37486W        W 9911  35.082  33.921   1.861
37487W        W 9912   2.854  43.518  11.955
37488W        W 9913  39.091  10.689   0.904
37489W        W 9914  36.551  26.375   0.513
37490W        W 9915  20.201   1.401  12.360
37491W        W 9916  24.205  38.303   2.801
37492W        W 9917  37.102  25.580   0.270
37493W        W 9918  24.947   7.591  11.696
37494W        W 9919  42.109  40.588   0.841
37495W        W 9920  44.697   1.004   0.896
37496W        W 9921  22.421  40.507  10.127
37497W        W 9922  10.321  44.826  13.599
37498W        W 9923  40.001   5.863  12.586
37499W        W 9924  24.996  38.225   3.749
37500W        W 9925  36.794  16.749   2.271
37501W        W 9926  22.656  16.044   2.955
37502W        W 9927  43.842   5.698  10.468
37503W        W 9928  22.993   4.462   2.466
37504W        W 9929  27.726  39.357   0.988
37505W        W 9930  20.663  12.775  14.420
37506W        W 9931  22.211  12.881  10.925
37507W        W 9932  19.616  42.407  12.542
37508W        W 9933  27.408   9.473  13.982
37509W        W 9934  32.331  25.869   1.879
37510W        W 9935  33.278  39.879   9.912
37511W        W 9936  31.891  30.804   4.519
37512W        W 9937  24.697  31.859   5.383
37513W        W 9938  35.946  29.528  11.970
37514W        W 9939  32.141  33.860  13.819
37515W        W 9940  18.264   0.321  11.816
37516W        W 9941   5.998   0.983   4.750
37517W        W 9942   7.381   8.305  13.483
37518W        W 9943  28.509   0.554   2.725
37519W        W 9944  27.958   1.208  12.577
37520W        W 9945  36.419  28.418   4.034
37521W        W 9946  23.418  15.036   4.705
37522W        W 9947  18.587  30.167  13.551
37523W        W 9948   8.853  25.921  12.451
37524W        W 9949  22.535   8.261  12.435
37525W        W 9950   6.983  38.219   3.213
37526W        W 9951  31.321  26.608  12.144
37527W        W 9952  14.670  12.951   4.697
37528W        W 9953  26.617   7.242  14.935
37529W        W 9954  30.179  33.848   3.746
37530W        W 9955  27.455   8.326  14.393
37531W        W 9956  30.196   9.947  11.251
37532W        W 9957  20.575  22.235  14.868
37533W        W 9958  33.918   7.943   3.662
37534W        W 9959  24.463   9.638   3.726
37535W        W 9960  28.711   6.236  11.896
37536W        W 9961  35.052  27.404  10.635
37537W        W 9962  25.960  27.556  11.541
37538W        W 9963  14.374   2.968  13.603
37539W        W 9964  25.487   7.805   0.817
37540W        W 9965  33.376  36.684  10.564
37541W        W 9966   6.154  19.810   2.819
37542W        W 9967  16.651   7.405  14.553
37543W        W 9968  30.396  39.069  12.543
37544W        W 9969   2.182   6.403  14.768
37545W        W 9970  18.727  28.445  13.946
37546W        W 9971  16.334   7.870   3.244
37547W        W 9972  35.891  25.461  11.630
37548W        W 9973  18.832  20.019   4.438
37549W        W 9974  22.930  37.050  14.855
37550W        W 9975   7.386  31.908   0.376
37551W        W 9976   1.253  24.525  12.794
37552W        W 9977  42.879  41.033  11.067
37553W        W 9978  38.536  29.561   3.051
37554W        W 9979  36.591  31.393   4.190
37555W        W 9980   9.292  21.951   2.733
37556W        W 9981  18.105  37.343   1.434
37557W        W 9982  39.148  41.491  12.643
37558W        W 9983  28.119  18.855  13.234
37559W        W 9984  31.567  20.992   2.649
37560W        W 9985   0.823  14.627  14.443
37561W        W 9986  11.313   5.472  10.630
37562W        W 9987  42.838  43.080  12.543
37563W        W 9988   5.243  12.579   2.659
37564W        W 9989  41.872  11.369   4.296
37565W        W 9990  35.812  36.932   4.633
37566W        W 9991  36.984  17.148   4.535
37567W        W 9992  22.635   0.929  14.439
37568W        W 9993   3.738  33.128  12.867
37569W        W 9994  20.490  32.874   0.748
37570W        W 9995   1.153  29.978   3.345
37571W        W 9996  14.649   2.253   3.152
37572W        W 9997  20.087  37.109  14.389
37573W        W 9998  41.015  14.600  11.991
37574W        W 9999   5.955   5.667  14.841
37575W        W10000  26.001  21.495  11.669
37576W        W10001  29.652   2.814  14.383
37577W        W10002   3.502  37.854   2.570
37578W        W10003  10.227  34.665   4.592
37579W        W10004   5.545  26.616  13.349
37580W        W10005   5.952  33.641  12.181
37581W        W10006  33.030  24.516   0.916
37582W        W10007  19.476  36.534  11.650
37583W        W10008  42.867  29.180  11.574
37584W        W10009  28.612  16.156  14.569
37585W        W10010  40.315  12.760   3.161
37586W        W10011  30.451  34.317  13.007
37587W        W10012  28.217  23.035   1.365
37588W        W10013  43.815  21.134   0.208
37589W        W10014  23.534  28.485   3.087
37590W        W10015  28.121  40.129   4.545
37591W        W10016  21.065  25.158  14.520
37592W        W10017   2.794   6.964   1.236
37593W        W10018  38.299  19.515  14.520
37594W        W10019  38.830  39.868   3.617
37595W        W10020  16.248  41.815   1.197
37596W        W10021   3.252  24.228   2.166
37597W        W10022  23.509  38.367  10.829
37598W        W10023  18.129  14.388  12.061
37599W        W10024  19.564  19.562  14.913
37600W        W10025  11.229  36.933  12.672
37601W        W10026  37.373  39.052  12.508
37602W        W10027  15.264  25.213   5.231
37603W        W10028   4.165  28.193  11.504
37604W        W10029  40.949  17.251   3.052
37605W        W10030  11.892  27.599   1.183
37606W        W10031   2.211  41.524   2.774
37607W        W10032   1.688  43.445  13.836
37608W        W10033  34.063  22.217  13.550
37609W        W10034  41.495  21.533   1.378
37610W        W10035  35.099  33.271   3.743
37611W        W10036  42.887  38.032  14.192
37612W        W10037  21.108   3.788   4.015
37613W        W10038  20.620  36.032  12.067
37614W        W10039  22.537  18.135  13.463
37615W        W10040  42.924  32.438  12.405
37616W        W10041  22.935   7.188  13.804
37617W        W10042   2.846  20.423   2.918
37618W        W10043   8.402  39.877   1.036
37619W        W10044  30.162   2.649  11.647
37620W        W10045  38.730   5.692   4.555
37621W        W10046  19.268  35.140   1.276
37622W        W10047  24.120  20.756   0.875
37623W        W10048  24.445  29.098  11.879
37624W        W10049  22.503  36.086  14.972
37625W        W10050   1.193  34.577   3.217
37626W        W10051   6.382  34.531   1.701
37627W        W10052  43.531   7.221  12.859
37628W        W10053  11.744  20.137  12.604
37629W        W10054  27.491  43.082   3.730
37630W        W10055  44.527  17.259  10.605
37631W        W10056  29.023  34.582  12.919
37632W        W10057   7.290  16.842  14.483
37633W        W10058  25.906   1.202  14.704
37634W        W10059  31.543   5.884   2.188
37635W        W10060  36.840  23.183   0.515
37636W        W10061   2.960  36.613  13.942
37637W        W10062  30.018  11.674  13.088
37638W        W10063  13.648   5.647  12.596
37639W        W10064  31.612  11.132  14.876
37640W        W10065  41.913  30.053  13.332
37641W        W10066  32.443  18.737  11.454
37642W        W10067  43.465  14.586  10.331
37643W        W10068  19.772  28.758  13.045
37644W        W10069   5.705  19.101  11.882
37645W        W10070  42.516  42.978   1.746
37646W        W10071   2.764  15.563  11.562
37647W        W10072   1.822  29.019  11.419
37648W        W10073  41.970  29.861   2.709
37649W        W10074   8.625  31.142  13.432
37650W        W10075   9.985   0.639   4.142
37651W        W10076  30.485  20.077   4.522
37652W        W10077  39.506  43.469  14.031
37653W        W10078   2.294  27.365   3.697
37654W        W10079  28.494  22.597   4.102
37655W        W10080  41.501  36.523   3.251
37656W        W10081  11.456   0.626   1.421
37657W        W10082   7.181  36.355   2.327
37658W        W10083   4.361  14.344  11.514
37659W        W10084  12.215   8.116   0.494
37660W        W10085  22.188  22.662  13.160
37661W        W10086  12.085  33.650   4.113
37662W        W10087  31.639  10.641   2.324
37663W        W10088  42.817  11.760   4.115
37664W        W10089  19.059  27.992   4.933
37665W        W10090   6.277  20.130   1.527
37666W        W10091  14.585  33.461   1.375
37667W        W10092  10.693  30.554  11.208
37668W        W10093  38.777  34.833   3.243
37669W        W10094  24.155  10.648  11.589
37670W        W10095  22.163   6.609   3.750
37671W        W10096   7.381  40.278  13.065
37672W        W10097  27.485   6.917  11.365
37673W        W10098  20.691  40.008  14.087
37674W        W10099   7.345  39.590   1.408
37675W        W10100  14.554  38.139  11.386
37676W        W10101  21.608  25.646  12.330
37677W        W10102  39.110   2.412  11.598
37678W        W10103   8.856   8.197  13.075
37679W        W10104  18.607  31.984   1.184
37680W        W10105   6.410  19.970  12.381
37681W        W10106  22.464   6.391   0.306
37682W        W10107  13.298   4.265  13.943
37683W        W10108  32.901  20.231   3.768
37684W        W10109  27.947  40.367  11.986
37685W        W10110  20.016  23.645   4.654
37686W        W10111   0.277  17.905  12.423
37687W        W10112   4.972  19.790  12.075
37688W        W10113  42.046  20.038   1.828
37689W        W10114  11.423  40.075  11.723
37690W        W10115  44.904  37.230   4.166
37691W        W10116  36.680  10.063   1.664
37692W        W10117   3.960  35.504  11.923
37693W        W10118  25.605  29.714  12.509
37694W        W10119  31.988  16.084   2.121
37695W        W10120   6.734  13.654   2.228
37696W        W10121  13.771  13.095  14.476
37697W        W10122  10.780  17.993   3.277
37698W        W10123  41.963  37.500  14.497
37699W        W10124  19.712  35.882   3.329
37700W        W10125  39.514  13.426  13.780
37701W        W10126  34.478   5.482   1.917
37702W        W10127   7.247  35.920  11.657
37703W        W10128  21.025  11.803   9.859
37704W        W10129  39.344   2.495  10.810
37705W        W10130  26.000  44.284  14.020
37706W        W10131  18.207  33.934   2.872
37707W        W10132  25.052   7.275   2.514
37708W        W10133  40.233   1.129  14.235
37709W        W10134  20.723  38.061   0.176
37710W        W10135   3.033  35.839  11.995
37711W        W10136  24.096  17.750   2.727
37712W        W10137  32.087   4.175   0.660
37713W        W10138  21.922  28.660  11.550
37714W        W10139  15.204  21.516   3.568
37715W        W10140  22.200   0.913   2.152
37716W        W10141  44.746   0.507   4.692
37717W        W10142   7.209  11.049  13.978
37718W        W10143   2.270  21.167   0.260
37719W        W10144  38.560  33.386   4.220
37720W        W10145  27.176   5.954   2.322
37721W        W10146  21.738   1.000  14.373
37722W        W10147   9.799  28.300  11.942
37723W        W10148  35.019  20.988  11.342
37724W        W10149  43.455  24.804  11.580
37725W        W10150  42.886  34.518   4.265
37726W        W10151   1.831  12.207   4.079
37727W        W10152  28.253  36.425  12.881
37728W        W10153  38.405   7.445  14.821
37729W        W10154   6.248  29.545   1.316
37730W        W10155   6.448  11.505   1.279
37731W        W10156   4.931  28.240  13.096
37732W        W10157  28.573  35.837  13.061
37733W        W10158  28.703  33.613  12.996
37734W        W10159  29.490   7.279   2.393
37735W        W10160   3.810  14.192  14.595
37736W        W10161   9.269  12.854   2.844
37737W        W10162   2.161  37.380  13.384
37738W        W10163   5.187  30.564   2.782
37739W        W10164  39.019  33.813   3.136
37740W        W10165  17.220  20.824  10.777
37741W        W10166  31.139  15.621  14.100
37742W        W10167  31.626   9.897  11.982
37743W        W10168  37.787  27.097   3.205
37744W        W10169  16.038  31.000  10.401
37745W        W10170  41.053  41.958  10.659
37746W        W10171  13.561  21.183  12.556
37747W        W10172  26.090  32.960   5.149
37748W        W10173  19.140  36.914  14.046
37749W        W10174  19.088   9.240   3.723
37750W        W10175  24.574   3.242   1.896
37751W        W10176  32.016  34.594   2.261
37752W        W10177  32.879   6.954   3.315
37753W        W10178  14.733  33.199  12.823
37754W        W10179  34.968  18.689   4.592
37755W        W10180   5.827  24.458  14.865
37756W        W10181  29.890   7.672   3.777
37757W        W10182   4.715   1.826  13.020
37758W        W10183  14.833  30.375   0.415
37759W        W10184  44.030  20.218  10.097
37760W        W10185  19.529  19.218   4.783
37761W        W10186  13.582  39.449   1.440
37762W        W10187  43.187   1.799  14.908
37763W        W10188  11.131  23.517   4.906
37764W        W10189  17.549  42.070   3.379
37765W        W10190  37.451  27.600   4.497
37766W        W10191   2.204  19.534   3.716
37767W        W10192   5.756  34.045  13.983
37768W        W10193  27.768  18.442  13.418
37769W        W10194  17.143  30.264   1.818
37770W        W10195  24.190  15.203  11.956
37771W        W10196  39.579  38.774  11.460
37772W        W10197  18.678  37.639  10.780
37773W        W10198   4.212  40.012  14.540
37774W        W10199  42.794  40.593   1.751
37775W        W10200   6.849  19.706  10.742
37776W        W10201   8.961  38.911  12.924
37777W        W10202   7.040  43.027  12.565
37778W        W10203  28.204  36.143  14.360
37779W        W10204  33.623  18.742  13.961
37780W        W10205  28.613   5.331  12.010
37781W        W10206  14.901  28.726  14.925
37782W        W10207   5.225   6.479  12.892
37783W        W10208  27.810  32.081   0.927
37784W        W10209  11.848  20.812  11.517
37785W        W10210  27.265  20.605  14.719
37786W        W10211  10.186   6.991  13.824
37787W        W10212  18.064   3.319  14.768
37788W        W10213  27.997  17.643   4.751
37789W        W10214  31.492   0.999   4.392
37790W        W10215  29.694  38.580   4.851
37791W        W10216  39.566  18.595  12.950
37792W        W10217  18.117  23.543   4.448
37793W        W10218  19.350  23.215   1.860
37794W        W10219  35.099  17.176  13.045
37795W        W10220  24.116   7.276  10.917
37796W        W10221  30.483  43.730  13.877
37797W        W10222   0.155  30.026   0.361
37798W        W10223  29.436  13.584   4.593
37799W        W10224   1.906   7.411   4.835
37800W        W10225  12.577  22.244   4.626
37801W        W10226   0.049  24.550   3.708
37802W        W10227  27.707  13.314   4.319
37803W        W10228  42.036  35.680  14.885
37804W        W10229   0.741   0.633   2.224
37805W        W10230  14.396  39.403  13.469
37806W        W10231  39.064  29.494   3.717
37807W        W10232  30.780  27.451  11.861
37808W        W10233  16.609   2.690   4.262
37809W        W10234  33.011  12.401   4.274
37810W        W10235  29.708   0.840  14.282
37811W        W10236   8.460  25.132   4.165
37812W        W10237   1.370  24.763  14.052
37813W        W10238  17.310   4.454  12.643
37814W        W10239  31.612  38.841  11.874
37815W        W10240  36.095  43.244  13.393
37816W        W10241  35.331  43.793  14.482
37817W        W10242  35.346  23.722  11.134
37818W        W10243  39.949   4.873   0.370
37819W        W10244  27.330  16.059   0.360
37820W        W10245   7.507  11.301  10.716
37821W        W10246  21.987  24.319  12.624
37822W        W10247  10.668  41.954  14.320
37823W        W10248  23.463  16.288  11.679
37824W        W10249  31.706  31.445  12.382
37825W        W10250   8.419  27.173   0.783
37826W        W10251  11.371  18.552  13.870
37827W        W10252   6.761   2.566  11.652
37828W        W10253   2.468  29.740  13.319
37829W        W10254  37.071   2.284  14.056
37830W        W10255  19.502   1.353   1.365
37831W        W10256  29.567  27.151   4.656
37832W        W10257  35.795  10.314  13.251
37833W        W10258  44.964   3.058  11.489
37834W        W10259  37.986   6.922   5.636
37835W        W10260  36.882   2.987   4.682
37836W        W10261  38.452   2.400  10.902
37837W        W10262  31.643  25.079  10.565
37838W        W10263  13.120  41.430  11.091
37839W        W10264  32.247  13.871  14.684
37840W        W10265  23.870  40.536  14.658
37841W        W10266  13.161  41.330   4.879
37842W        W10267  24.457  43.225  11.020
37843W        W10268  18.819  28.661   2.482
37844W        W10269  13.283   8.579   0.937
37845W        W10270  35.037  34.560   4.154
37846W        W10271  34.498  27.023   2.378
37847W        W10272   1.433  30.090  14.735
37848W        W10273  30.894   3.892   0.464
37849W        W10274  11.390  27.705  11.117
37850W        W10275  34.950  10.100   3.734
37851W        W10276  33.014  40.537  10.580
37852W        W10277   0.019   0.034   0.882
37853W        W10278  25.482  32.838   4.517
37854W        W10279  10.796  30.001   1.757
37855W        W10280  29.984  25.067   2.498
37856W        W10281  20.278   7.488   2.349
37857W        W10282   7.225   4.921  14.030
37858W        W10283  16.888  38.766   5.053
37859W        W10284  36.319  10.723  13.084
37860W        W10285  12.798  41.495   1.222
37861W        W10286  24.495  25.193  11.198
37862W        W10287  43.305  24.218   2.354
37863W        W10288  40.620   8.302  14.879
37864W        W10289  30.982  13.216  11.203
37865W        W10290   0.143   4.232   2.687
37866W        W10291  32.483   2.019  14.836
37867W        W10292   5.775  26.524   3.128
37868W        W10293  28.484  25.775   0.862
37869W        W10294  40.554   3.834   0.840
37870W        W10295  32.650  16.526   4.407
37871W        W10296   2.782  39.049  14.106
37872W        W10297  42.024  27.004  12.799
37873W        W10298   8.750  22.102   4.789
37874W        W10299  29.980  24.239   4.349
37875W        W10300   3.176   3.482  14.381
37876W        W10301  44.006  20.971  13.451
37877W        W10302  39.438  34.819  12.427
37878W        W10303  41.554  40.244  12.450
37879W        W10304  34.980   5.635   3.209
37880W        W10305  17.152  20.253  14.719
37881W        W10306   6.399  14.467   2.859
37882W        W10307  29.478  26.179  13.352
37883W        W10308  24.426  17.800  12.483
37884W        W10309   1.703  15.265   4.764
37885W        W10310  44.503  42.288   2.642
37886W        W10311  33.413  18.988   4.575
37887W        W10312   2.833  34.566  12.982
37888W        W10313  13.657   6.622  12.319
37889W        W10314  39.254  20.699   3.473
37890W        W10315  19.258  40.378   1.240
37891W        W10316  28.922  13.413   0.375
37892W        W10317  27.244  36.524   3.341
37893W        W10318  13.528  35.112  13.251
37894W        W10319   4.272  38.929  13.295
37895W        W10320  42.250  22.558   0.342
37896W        W10321   2.060  22.501   2.629
37897W        W10322  37.047  42.994   2.331
37898W        W10323  20.663  21.684   3.995
37899W        W10324  35.186   0.709   0.342
37900W        W10325   3.488  31.378  11.039
37901W        W10326  21.270  32.856  13.513
37902W        W10327  23.020   2.709  11.448
37903W        W10328  29.571  29.378  12.092
37904W        W10329  17.518  29.914   4.635
37905W        W10330  25.706  31.475  11.682
37906W        W10331  22.584  35.164   2.769
37907W        W10332  20.145   8.800   4.296
37908W        W10333  22.697  30.184  11.861
37909W        W10334  15.130   4.304   1.164
37910W        W10335   2.353  17.630   4.202
37911W        W10336   1.989  33.499  13.989
37912W        W10337   5.685  14.709   2.144
37913W        W10338  28.468  24.969  12.535
37914W        W10339  33.337   3.854  14.461
37915W        W10340   7.815  24.328  10.628
37916W        W10341  30.551   0.483   4.089
37917W        W10342  28.142   7.179   2.815
37918W        W10343  14.244   6.891  10.877
37919W        W10344  31.511  16.391   0.538
37920W        W10345  31.107  39.510  14.751
37921W        W10346  12.057  25.462   0.215
37922W        W10347  40.362  14.642   4.644
37923W        W10348  43.993  22.015   4.106
37924W        W10349  13.258  13.036   0.407
37925W        W10350  11.737  31.387  12.978
37926W        W10351  42.750  37.317   3.175
37927W        W10352  19.402  41.464  10.920
37928W        W10353  31.463  40.399   3.559
37929W        W10354   9.929  16.277   1.234
37930W        W10355   7.754  24.119  14.589
37931W        W10356  26.269  37.817   3.759
37932W        W10357  13.852  14.413   2.328
37933W        W10358  14.671  33.712  12.900
37934W        W10359  24.694  38.673   1.576
37935W        W10360  38.065  39.704  10.731
37936W        W10361  36.444  38.976   3.806
37937W        W10362  29.970   2.587  12.286
37938W        W10363  42.963  29.672   4.163
37939W        W10364   0.342  25.121  10.732
37940W        W10365  33.744   5.815  13.009
37941W        W10366  21.019  10.559   2.272
37942W        W10367  36.205  20.094   2.487
37943W        W10368  10.152  17.592   4.666
37944W        W10369  13.154  43.029   3.652
37945W        W10370   2.709  25.632   2.130
37946W        W10371  26.490  16.596  12.153
37947W        W10372  17.995  39.350   0.006
37948W        W10373   4.581  11.358  14.127
37949W        W10374  36.207   9.361   0.348
37950W        W10375  34.827  32.644  10.692
37951W        W10376  31.126  33.881  13.947
37952W        W10377  12.311  29.575   2.468
37953W        W10378  20.666  21.273   4.912
37954W        W10379  12.265  11.700   2.342
37955W        W10380  12.039  41.094   0.942
37956W        W10381  23.055  44.797   0.419
37957W        W10382  40.322  39.231   1.369
37958W        W10383  19.585  30.887   2.255
37959W        W10384  13.962  22.780   3.173
37960W        W10385  31.976  13.287  12.076
37961W        W10386  22.762  18.115   2.684
37962W        W10387   5.555  30.872  11.645
37963W        W10388  18.681   6.444   3.316
37964W        W10389   9.119  43.901   4.587
37965W        W10390  11.702  11.467   2.666
37966W        W10391  42.859  31.543  14.796
37967W        W10392   1.854  11.454   0.313
37968W        W10393   2.446  32.949   1.959
37969W        W10394  35.016   3.001   0.772
37970W        W10395  38.556   7.880   2.702
37971W        W10396  12.039  12.771  10.705
37972W        W10397   5.476  16.344   4.112
37973W        W10398   1.094   2.820   1.354
37974W        W10399  12.029  20.457  14.791
37975W        W10400  21.209  12.711   1.819
37976W        W10401  29.741  26.959  12.956
37977W        W10402  27.977   2.903   2.151
37978W        W10403  28.437  44.440  13.943
37979W        W10404   2.691  43.389   4.242
37980W        W10405  16.553   7.866  14.280
37981W        W10406  20.516   1.009   1.855
37982W        W10407   4.728   0.953  10.570
37983W        W10408  38.769  38.831   4.485
37984W        W10409   3.225   3.238   4.688
37985W        W10410  44.233  10.065   3.130
37986W        W10411   1.229  27.438   4.147
37987W        W10412  13.303   5.892  10.733
37988W        W10413  37.044  20.713  13.888
37989W        W10414   9.224  28.381   1.816
37990W        W10415   2.359  11.670   3.702
37991W        W10416   1.824   1.941   0.265
37992W        W10417  29.522  22.968  10.721
37993W        W10418  20.674  36.939  11.599
37994W        W10419  25.304  17.061  12.352
37995W        W10420   6.315  20.937   4.037
37996W        W10421  36.342  37.619  12.591
37997W        W10422  24.120  14.736   3.660
37998W        W10423  38.115  35.964   4.149
37999W        W10424  36.070  35.495   1.367
38000W        W10425  10.403  30.733   4.188
38001W        W10426  44.461  39.529  10.546
38002W        W10427  24.409  30.064  11.452
38003W        W10428  24.685  20.527  14.686
38004W        W10429  35.995  36.527   0.680
38005W        W10430  44.304  31.606  12.869
38006W        W10431  20.555  40.043  12.463
38007W        W10432  31.699  22.692  10.208
38008W        W10433  38.859  17.341  10.932
38009W        W10434  23.442  40.315   2.218
38010W        W10435  22.773  41.557   2.967
38011W        W10436  24.205  30.358   0.329
38012W        W10437   2.524  15.120   0.360
38013W        W10438  34.588  23.962   4.567
38014W        W10439  14.731  25.098   5.019
38015W        W10440  14.784   1.839   5.065
38016W        W10441  19.818  37.976  13.237
38017W        W10442   5.741   9.779  14.785
38018W        W10443  13.878  14.161   3.196
38019W        W10444   5.718  37.421  10.650
38020W        W10445  14.639  40.457  14.929
38021W        W10446  40.580   8.403   4.583
38022W        W10447  30.895  15.639  14.597
38023W        W10448  15.259  44.938  14.550
38024W        W10449  37.910  22.823  13.817
38025W        W10450  40.370  41.901   0.787
38026W        W10451  25.127  17.673  10.842
38027W        W10452  28.187  14.530   3.850
38028W        W10453  33.001  25.225  13.866
38029W        W10454  40.981  42.070   0.489
38030W        W10455   9.217  20.745   3.372
38031W        W10456  25.646   3.879   0.254
38032W        W10457  30.984  41.479  14.898
38033W        W10458  21.974  21.006  12.421
38034W        W10459  21.189  13.494  11.831
38035W        W10460  17.245  26.960   3.167
38036W        W10461   5.805  25.692  13.556
38037W        W10462  28.049   3.704   1.478
38038W        W10463   8.608   7.331   1.668
38039W        W10464  37.985  23.917   0.486
38040W        W10465   5.360  21.089  12.834
38041W        W10466  34.615  18.826   2.245
38042W        W10467  38.655  34.508  12.525
38043W        W10468  18.723  20.466   4.184
38044W        W10469   5.212  33.858   0.275
38045W        W10470  41.400  13.137  12.011
38046W        W10471  24.919  34.228  10.670
38047W        W10472  40.969  35.416   1.294
38048W        W10473  20.637  21.863   3.517
38049W        W10474  41.559  27.502   0.719
38050W        W10475  32.115  24.295   0.862
38051W        W10476  34.381  21.976   0.763
38052W        W10477  14.881  43.963   4.067
38053W        W10478  36.838  13.323   2.305
38054W        W10479  27.685  15.299   2.832
38055W        W10480   6.270  21.600   0.642
38056W        W10481  35.401  30.419  11.545
38057W        W10482   1.713  17.249  11.135
38058W        W10483  34.768  18.182   0.114
38059W        W10484  23.450   8.227  14.081
38060W        W10485  24.979  25.274   2.148
38061W        W10486  31.014  36.418   1.355
38062W        W10487   0.377  43.530  14.387
38063W        W10488  44.751   7.723   0.476
38064W        W10489  41.129  16.331  11.557
38065W        W10490  29.697  38.395  14.049
38066W        W10491  13.554  13.093  14.961
38067W        W10492   8.164  36.991  11.982
38068W        W10493  24.648   8.793  10.648
38069W        W10494  43.324  35.041  11.034
38070W        W10495   8.395  34.479  10.452
38071W        W10496  31.556  41.965  11.893
38072W        W10497  27.184  23.737   3.884
38073W        W10498   9.905   6.769   1.768
38074W        W10499  22.951  22.607   2.365
38075W        W10500  29.042  23.022  11.019
38076W        W10501  37.298  35.483   0.489
38077W        W10502  26.664  16.330   4.803
38078W        W10503  28.445  26.073  13.523
38079W        W10504  41.029   2.230  11.174
38080W        W10505  14.651  42.359   3.628
38081W        W10506   9.856  37.111  13.599
38082W        W10507  42.737  42.377   3.249
38083W        W10508  40.081  20.714  12.950
38084W        W10509   7.884  35.558  11.106
38085W        W10510  26.653  29.679  12.282
38086W        W10511  35.508  27.807   4.168
38087W        W10512  21.728   6.211  10.898
38088W        W10513  44.883  15.644  10.825
38089W        W10514  27.123  30.077   2.049
38090W        W10515  26.013   5.823   4.594
38091W        W10516  33.336  38.415   3.671
38092W        W10517  17.855  10.288  14.571
38093W        W10518  31.076  14.329  14.550
38094W        W10519   2.816  11.506   0.779
38095W        W10520  10.387  13.815   4.790
38096W        W10521  10.470   8.693   9.937
38097W        W10522  17.125   5.176   1.263
38098W        W10523  10.138  21.361  11.114
38099W        W10524  18.462  36.288   3.287
38100W        W10525  14.600   5.120   3.198
38101W        W10526  14.702  34.166  13.821
38102W        W10527  11.880  38.314  11.619
38103W        W10528  21.194  14.681  13.086
38104W        W10529  28.337  43.332  11.659
38105W        W10530   5.458   0.700   4.440
38106W        W10531   4.933  17.112  11.954
38107W        W10532  28.617   6.412   3.245
38108W        W10533  22.621  42.925  11.125
38109W        W10534  34.466  33.129  11.317
38110W        W10535   1.796   9.822  14.693
38111W        W10536  37.263  21.249   0.472
38112W        W10537   3.648  32.670   4.092
38113W        W10538  37.577  20.747  14.929
38114W        W10539  21.998  10.137   1.892
38115W        W10540  33.574  26.646  10.770
38116W        W10541  27.259  18.525  11.980
38117W        W10542  20.079  25.134   2.740
38118W        W10543  25.535  21.731  11.679
38119W        W10544  19.922  28.952   0.685
38120W        W10545  37.027   7.655  13.421
38121W        W10546  35.295  21.978  12.925
38122W        W10547  36.324  25.020  11.019
38123W        W10548  32.917  33.821  14.753
38124W        W10549   6.960  39.995  13.978
38125W        W10550  10.955  36.909  11.843
38126W        W10551  30.053  26.989   3.707
38127W        W10552  36.352  34.464   3.359
38128W        W10553  43.859  23.783   3.899
38129W        W10554  38.512  18.085   4.050
38130W        W10555   3.196  39.964  14.354
38131W        W10556   1.536  42.891   0.440
38132W        W10557  17.534  36.317   4.729
38133W        W10558  37.140   7.996  12.499
38134W        W10559  30.002  40.026   0.816
38135W        W10560  29.835  10.725  11.144
38136W        W10561  39.298  44.735  14.976
38137W        W10562   1.361  42.471   1.261
38138W        W10563  41.874   9.660  13.338
38139W        W10564  24.086  11.799  14.203
38140W        W10565  15.774   5.766   2.107
38141W        W10566   5.199  29.363   4.339
38142W        W10567  27.181  15.180   4.596
38143W        W10568  19.550  12.113  12.823
38144W        W10569  18.489  23.195  12.570
38145W        W10570  12.964  30.381  11.290
38146W        W10571  26.461  24.916   4.108
38147W        W10572  32.060   6.393  13.881
38148W        W10573  21.571  34.043   4.133
38149W        W10574  32.056   9.262   3.904
38150W        W10575  34.163   1.475  13.487
38151W        W10576   7.701  25.343   0.313
38152W        W10577  19.734   2.983  12.836
38153W        W10578  27.600   0.785  13.265
38154W        W10579  11.891  11.962   5.074
38155W        W10580  28.071  33.334   3.231
38156W        W10581   7.215   3.311  11.933
38157W        W10582  18.131   2.435  11.844
38158W        W10583  34.660   9.534  14.485
38159W        W10584  25.169  26.014   0.897
38160W        W10585  41.908  32.115   2.225
38161W        W10586   5.453  35.743   1.520
38162W        W10587  15.787  15.105  13.610
38163W        W10588  27.072  36.365   4.161
38164W        W10589  12.107  25.051  11.539
38165W        W10590  15.310  17.091  12.788
38166W        W10591  31.207  37.515   2.892
38167W        W10592   6.520  29.132   3.837
38168W        W10593  23.270  17.494   2.181
38169W        W10594  32.879  26.008  10.504
38170W        W10595   3.667  23.671  14.956
38171W        W10596  14.352  24.127   2.182
38172W        W10597   1.549  10.820  11.952
38173W        W10598   6.287  37.860   2.724
38174W        W10599  38.350  22.709   0.517
38175W        W10600  22.448  32.638  13.070
38176W        W10601  21.936   7.126  13.386
38177W        W10602  18.638   3.743  14.319
38178W        W10603  39.956  16.620   4.438
38179W        W10604  31.906  41.825   0.166
38180W        W10605  15.537   9.311  13.867
38181W        W10606  28.723  21.495  13.143
38182W        W10607  42.378   6.272   2.650
38183W        W10608  18.798  27.623   1.960
38184W        W10609  27.475   7.385   0.455
38185W        W10610  20.083  14.261  13.925
38186W        W10611  36.661  42.971  12.907
38187W        W10612  41.564  34.047  12.151
38188W        W10613  25.240  32.545   1.807
38189W        W10614  26.371   4.991   3.603
38190W        W10615  18.599  42.394  12.943
38191W        W10616  32.203  29.623  12.588
38192W        W10617  16.059  14.739  13.326
38193W        W10618   3.799   8.976  12.995
38194W        W10619  14.439  43.868  13.819
38195W        W10620  12.613  38.046  13.591
38196W        W10621  44.270   8.801  14.651
38197W        W10622   4.769  37.401  10.983
38198W        W10623  13.834  44.472  13.142
38199W        W10624   7.263  22.156   4.516
38200W        W10625   0.840  12.714   4.151
38201W        W10626  32.557  34.047   4.561
38202W        W10627  31.906   5.475   2.263
38203W        W10628  27.689  15.160   4.747
38204W        W10629   8.828  17.070   4.765
38205W        W10630  38.055  10.654  12.930
38206W        W10631  25.131  10.189  14.493
38207W        W10632  29.630  22.179   0.898
38208W        W10633  30.767  16.151   2.428
38209W        W10634  33.017   6.842  14.773
38210W        W10635   8.287  31.093   0.904
38211W        W10636   4.760  14.710  14.385
38212W        W10637  38.310  18.040   0.298
38213W        W10638  36.224  44.782   3.780
38214W        W10639  31.029   8.129  12.373
38215W        W10640  44.490  31.133   4.268
38216W        W10641   6.264  23.777   4.130
38217W        W10642  29.816  22.558  14.700
38218W        W10643  35.328  35.416   4.483
38219W        W10644  20.061  15.777  10.736
38220W        W10645  34.378  19.858   4.526
38221W        W10646  43.493  11.235   4.387
38222W        W10647   8.719  15.715  14.353
38223W        W10648  12.834  41.881  11.104
38224W        W10649  33.497  17.985   0.724
38225W        W10650  17.264  22.859   1.365
38226W        W10651   8.931  11.662   4.713
38227W        W10652  42.887  29.844  14.868
38228W        W10653  36.400  42.812  14.354
38229W        W10654  32.457   5.282   3.722
38230W        W10655  24.132  43.487   3.471
38231W        W10656  14.507  12.834   1.370
38232W        W10657  28.448  15.688   1.403
38233W        W10658   9.212  31.897  12.074
38234W        W10659  32.827  28.583   4.519
38235W        W10660   0.442  39.253  10.639
38236W        W10661  13.158  21.158  12.223
38237W        W10662  43.158  17.127   2.563
38238W        W10663  21.325   7.299  11.631
38239W        W10664  13.729  29.005  10.563
38240W        W10665  40.059  12.915   2.750
38241W        W10666  21.906  37.983   1.880
38242W        W10667  32.938   2.036   2.161
38243W        W10668  44.403   0.960  13.833
38244W        W10669  19.634  10.165   2.408
38245W        W10670  22.168   7.028  11.436
38246W        W10671  27.752  13.810  14.911
38247W        W10672  36.314   4.182   3.492
38248W        W10673  24.881  39.525  14.069
38249W        W10674  32.001   2.690   1.474
38250W        W10675  14.334  24.550  12.838
38251W        W10676  19.713  31.144   5.439
38252W        W10677   9.619  44.351   2.738
38253W        W10678  22.713  37.465   1.099
38254W        W10679  32.482  19.223   4.637
38255W        W10680   0.956  15.255  13.753
38256W        W10681  42.393  14.174   0.610
38257W        W10682  15.913   4.996  10.127
38258W        W10683  35.924  17.998  14.495
38259W        W10684  18.800   4.706  10.054
38260W        W10685  19.243   4.549   3.563
38261W        W10686  26.036  39.910  13.769
38262W        W10687  20.008   4.920   2.357
38263W        W10688  39.400  22.536  11.627
38264W        W10689  25.058  40.386  10.732
38265W        W10690   1.798  35.939   2.278
38266W        W10691  42.899  20.101   3.666
38267W        W10692  21.303  24.961   4.843
38268W        W10693  33.859  26.234  10.659
38269W        W10694   5.065  37.521   0.080
38270W        W10695  11.904  26.502  11.039
38271W        W10696  28.060   9.860  14.202
38272W        W10697   2.305  17.130  14.257
38273W        W10698  28.922  15.283  14.329
38274W        W10699  34.752  12.107   0.878
38275W        W10700   8.639  13.189  12.920
38276W        W10701  44.285  29.180   0.528
38277W        W10702   2.304   4.186  10.824
38278W        W10703  40.012  11.894   2.751
38279W        W10704  17.104  30.407  14.465
38280W        W10705  14.907   3.697   5.483
38281W        W10706  42.988  13.863  11.367
38282W        W10707  16.431  28.564   4.730
38283W        W10708  41.320  26.203   0.016
38284W        W10709  18.275   2.926   0.358
38285W        W10710  41.985  19.062  10.676
38286W        W10711  33.366  16.268   2.304
38287W        W10712  36.702  13.258  13.435
38288W        W10713  38.627  14.143  14.565
38289W        W10714  39.846  25.204  10.646
38290W        W10715   0.966  35.843  14.840
38291W        W10716  18.548   8.255   1.971
38292W        W10717   6.215   8.158  10.360
38293W        W10718  31.738   7.583   1.416
38294W        W10719   1.880  29.408   0.410
38295W        W10720  24.472  20.699   1.720
38296W        W10721  34.475  35.582   1.165
38297W        W10722  29.970  39.274   2.282
38298W        W10723  21.241  36.406   3.237
38299W        W10724  36.381  17.293  13.617
38300W        W10725   3.559   2.770   1.497
38301W        W10726   5.849  36.882  11.940
38302W        W10727  13.785  32.377  14.638
38303W        W10728  30.665  38.278  13.781
38304W        W10729  26.149  31.844  12.587
38305W        W10730  11.705  35.609   1.167
38306W        W10731  19.954  24.838  13.011
38307W        W10732   9.269   9.616   2.277
38308W        W10733  38.111   1.713  12.038
38309W        W10734  43.538   4.704  14.904
38310W        W10735  32.113  11.567  13.156
38311W        W10736  35.063  11.733  11.524
38312W        W10737  17.871  38.276   4.122
38313W        W10738  41.596   3.513  13.405
38314W        W10739  30.189  42.431   3.841
38315W        W10740   4.500   2.370  14.049
38316W        W10741  16.928  25.298   3.785
38317W        W10742  41.299  36.196   4.387
38318W        W10743  22.040   5.627  12.028
38319W        W10744   5.093  38.514  12.895
38320W        W10745  28.113   2.498  13.340
38321W        W10746  10.479  26.930   4.158
38322W        W10747  42.911  35.907  14.870
38323W        W10748  22.464  28.413  13.953
38324W        W10749   5.345  33.915   3.927
38325W        W10750   9.876  43.459   1.870
38326W        W10751  16.649  12.756  11.491
38327W        W10752  13.257  24.980   5.062
38328W        W10753   4.261  34.499  13.200
38329W        W10754  17.517  37.899   3.189
38330W        W10755  39.594  26.747   3.392
38331W        W10756  10.418   6.922   1.718
38332W        W10757  42.274  19.666  10.258
38333W        W10758   6.548  31.065   1.501
38334W        W10759  16.798  42.315  12.155
38335W        W10760  25.116   3.225  14.060
38336W        W10761   2.284   0.424  14.317
38337W        W10762  31.607  31.126  13.493
38338W        W10763  20.633  42.096   4.281
38339W        W10764   3.897   0.855  12.639
38340W        W10765  36.807  12.082  14.386
38341W        W10766   2.498   2.975   4.226
38342W        W10767   4.568   7.731   3.684
38343W        W10768  26.022  41.313  12.557
38344W        W10769  36.486  16.233  12.503
38345W        W10770  37.627  41.697   5.133
38346W        W10771  29.560  19.066   2.188
38347W        W10772   8.499  33.628  11.528
38348W        W10773  32.618  39.958   2.305
38349W        W10774  37.080  38.468  11.416
38350W        W10775   7.661  33.406  12.530
38351W        W10776  31.501  36.090   3.197
38352W        W10777  16.615  36.655   3.379
38353W        W10778  40.325  13.976   2.825
38354W        W10779  41.487  26.749  12.001
38355W        W10780  31.426  40.285   0.745
38356W        W10781  15.880  34.600   4.105
38357W        W10782  25.104  39.038  13.974
38358W        W10783  41.735  43.290   4.209
38359W        W10784  42.000  16.341  13.314
38360W        W10785  40.406   5.668  14.966
38361W        W10786  29.412  17.468  14.276
38362W        W10787  17.206  43.076   2.482
38363W        W10788  33.774  43.255   2.362
38364W        W10789   8.592   3.817  10.653
38365W        W10790  20.915   5.032   0.130
38366W        W10791  11.782  11.576   3.175
38367W        W10792  37.832   3.650   1.205
38368W        W10793  15.217   7.167   3.795
38369W        W10794  22.446  36.413  14.347
38370W        W10795  31.175   6.202   0.808
38371W        W10796  16.142  43.189  11.702
38372W        W10797   5.858   7.165  13.885
38373W        W10798  29.504   4.695  13.889
38374W        W10799  29.566  37.573  10.410
38375W        W10800   8.200   6.733   0.799
38376W        W10801   1.843  42.449   4.192
38377W        W10802  27.672  42.967  12.614
38378W        W10803  21.776  10.088  14.113
38379W        W10804  42.522  38.496  14.628
38380W        W10805  36.365  17.171  10.673
38381W        W10806   9.762   7.792   2.782
38382W        W10807  11.786  34.268  13.301
38383W        W10808  39.615   9.547  13.438
38384W        W10809   0.431   1.224  11.647
38385W        W10810  40.036  41.759  10.799
38386W        W10811  25.480  15.742  11.596
38387W        W10812   0.429   7.353   2.648
38388W        W10813  14.834  19.889   2.814
38389W        W10814  19.001   0.716  11.979
38390W        W10815  21.779  13.212   3.277
38391W        W10816  29.937  22.039   1.337
38392W        W10817  10.304  35.373   3.805
38393W        W10818  32.578   7.098   2.876
38394W        W10819  10.446  29.846  12.502
38395W        W10820   1.436  18.689   0.347
38396W        W10821  42.402  29.008  13.305
38397W        W10822   7.312  35.169  14.310
38398W        W10823  41.998  43.093  11.485
38399W        W10824  37.265  40.400   5.280
38400W        W10825  22.758  10.197   3.073
38401W        W10826  17.112  31.513   0.972
38402W        W10827  23.874  31.009   3.335
38403W        W10828  10.653  21.510   1.726
38404W        W10829  22.543   5.722  14.125
38405W        W10830   4.960  28.775   1.001
38406W        W10831  22.542  14.718   4.352
38407W        W10832   1.762  36.008  13.434
38408W        W10833  14.256  28.971   1.005
38409W        W10834  36.222  15.226  11.599
38410W        W10835  30.819  26.682  14.059
38411W        W10836  16.294  21.213  14.987
38412W        W10837  20.307  30.622  12.986
38413W        W10838   4.194   1.751  13.037
38414W        W10839  18.195  21.804  13.855
38415W        W10840  26.262  23.457   2.098
38416W        W10841  34.695  13.764  13.815
38417W        W10842  10.509  26.681   2.737
38418W        W10843  38.782   2.864   1.233
38419W        W10844   1.789  22.128  14.269
38420W        W10845  44.369  38.084  10.735
38421W        W10846  38.151   6.268  14.899
38422W        W10847  24.741  32.210  14.276
38423W        W10848   4.848  34.372   2.062
38424W        W10849  22.689  17.769   4.738
38425W        W10850  33.909  32.985  10.673
38426W        W10851  17.028   3.370  13.499
38427W        W10852  19.495  37.844  11.049
38428W        W10853   6.779  18.072   0.251
38429W        W10854  13.548  30.978   0.605
38430W        W10855   4.471  16.241  11.336
38431W        W10856  24.515  23.191   3.357
38432W        W10857  37.399   7.269  13.394
38433W        W10858  42.441   7.943   3.713
38434W        W10859   7.871  16.183  12.444
38435W        W10860  18.788   6.212   2.722
38436W        W10861  41.225  39.818   1.408
38437W        W10862  14.058  10.840   0.810
38438W        W10863  14.687   1.770   3.367
38439W        W10864   5.536   3.517  12.543
38440W        W10865  27.283  16.572  14.449
38441W        W10866  30.101  40.481   2.422
38442W        W10867   7.374   4.485  13.119
38443W        W10868  22.770  17.393   3.613
38444W        W10869  10.422  10.617  13.859
38445W        W10870  23.586   7.202   3.444
38446W        W10871  27.627   1.145  10.733
38447W        W10872  44.045  23.598   0.467
38448W        W10873  35.442  41.404  11.461
38449W        W10874   6.248  26.469   3.341
38450W        W10875  42.098  16.165  14.946
38451W        W10876  43.079  16.754   3.888
38452W        W10877  30.674  43.215   2.218
38453W        W10878  27.102   3.264  13.329
38454W        W10879   7.908  31.903  14.353
38455W        W10880  41.874  30.442   0.642
38456W        W10881   0.334  23.933   1.278
38457W        W10882  14.603  38.633   1.377
38458W        W10883  18.293  22.213   2.177
38459W        W10884  20.827  31.144  11.499
38460W        W10885  14.219  36.612  14.574
38461W        W10886  11.804   4.170  12.490
38462W        W10887  21.570  16.908   4.292
38463W        W10888  22.169  22.738  12.216
38464W        W10889   3.014  43.317   2.206
38465W        W10890  40.331  33.501  11.162
38466W        W10891   8.987  15.620  13.363
38467W        W10892  18.591  14.051   4.593
38468W        W10893  35.124  35.862   3.660
38469W        W10894  13.574   0.790  13.075
38470W        W10895   4.190  18.220  11.699
38471W        W10896  33.411  26.459   1.228
38472W        W10897  23.371  24.919   0.708
38473W        W10898  11.629   4.550   2.781
38474W        W10899  32.198   6.931  11.196
38475W        W10900  38.399   0.870   3.569
38476W        W10901  41.917  14.371  13.147
38477W        W10902  11.359  12.257  13.533
38478W        W10903  40.492  42.846   1.901
38479W        W10904  31.092  33.971   2.888
38480W        W10905  39.870  13.772  13.993
38481W        W10906  43.946   4.884   4.829
38482W        W10907   6.667  44.885   1.866
38483W        W10908  21.772  19.260  12.434
38484W        W10909  32.919  33.716   2.789
38485W        W10910  10.899  44.889   3.793
38486W        W10911   2.188  44.969  13.402
38487W        W10912  42.732  43.585  13.871
38488W        W10913   5.718  43.001  13.771
38489W        W10914   9.075   3.876  14.923
38490W        W10915  42.246   4.372   0.517
38491W        W10916  33.238   8.304  13.364
38492W        W10917  17.682  30.078  10.913
38493W        W10918   6.857  16.768  14.217
38494W        W10919  24.127   6.690  12.893
38495W        W10920  26.036  39.752   3.639
38496W        W10921   8.820  15.260   1.841
38497W        W10922  16.415  44.005  10.803
38498W        W10923   1.863  26.117   1.761
38499W        W10924   0.932  32.267  12.349
38500W        W10925  11.739   6.161  14.972
38501W        W10926  16.206  31.565   1.446
38502W        W10927   1.240  15.186  14.187
38503W        W10928  25.379  19.532  14.339
38504W        W10929   9.758   9.340  12.000
38505W        W10930  17.253  34.179  10.255
38506W        W10931   9.105   3.914   1.687
38507W        W10932  16.126  22.577   1.867
38508W        W10933  40.542  26.570  10.499
38509W        W10934  11.593  36.347  14.632
38510W        W10935  29.064  36.554  13.326
38511W        W10936  24.873  44.760   1.884
38512W        W10937   4.183  32.998  12.182
38513W        W10938  38.856  42.393   5.080
38514W        W10939   8.001  25.211  14.917
38515W        W10940  28.160  23.210   4.666
38516W        W10941  38.305   5.776  12.889
38517W        W10942   3.900  26.771   3.087
38518W        W10943  18.245  36.034   1.768
38519W        W10944  21.475  17.081   4.859
38520W        W10945  12.771  29.658   3.374
38521W        W10946  11.871  17.942   1.306
38522W        W10947  19.771  23.119   3.904
38523W        W10948  39.371  38.501   4.205
38524W        W10949  26.841  35.524  11.575
38525W        W10950  41.685  14.787  11.054
38526W        W10951   6.192  28.455  12.045
38527W        W10952  33.628  42.884   1.754
38528W        W10953  36.566  36.037  12.902
38529W        W10954  21.018  41.347   2.823
38530W        W10955  15.108   2.880  10.080
38531W        W10956   5.305  18.993  13.089
38532W        W10957   2.296  28.389   1.549
38533W        W10958  13.847  10.414   1.822
38534W        W10959  12.276  44.192  14.356
38535W        W10960  17.694  35.411  12.142
38536W        W10961  13.705  36.851   1.957
38537W        W10962  26.259  33.027   3.297
38538W        W10963  43.906  10.386  12.468
38539W        W10964  36.376   6.375   1.320
38540W        W10965  43.463  43.351   1.713
38541W        W10966   8.846   0.482  11.179
38542W        W10967   9.862   8.872   0.164
38543W        W10968  16.826  23.490  12.104
38544W        W10969  21.258  29.926   4.627
38545W        W10970  17.033  28.171   4.758
38546W        W10971   5.522  39.306  12.606
38547W        W10972  40.566   6.883   1.767
38548W        W10973  35.946   5.650  12.434
38549W        W10974   0.747  32.517  13.580
38550W        W10975   9.369  44.190   1.789
38551W        W10976  33.897  30.609  10.889
38552W        W10977  23.580  33.069   0.846
38553W        W10978   2.785  44.464   2.372
38554W        W10979  40.879  42.228   3.223
38555W        W10980  13.171   4.873   1.507
38556W        W10981   9.782  21.648  13.050
38557W        W10982   6.463  32.578   4.465
38558W        W10983  44.036  14.444  12.480
38559W        W10984   4.363  16.265   1.678
38560W        W10985  24.981  18.031  13.424
38561W        W10986  31.008  17.314  11.518
38562W        W10987   5.030  20.297  12.386
38563W        W10988   2.360  24.857  14.396
38564W        W10989  25.589  29.211   4.590
38565W        W10990   4.719  23.107   3.152
38566W        W10991  19.537  25.246   0.837
38567W        W10992  38.155   8.442  14.595
38568W        W10993  21.924   3.981  14.939
38569W        W10994  15.896  32.985   0.232
38570W        W10995  21.701  36.909   2.398
38571W        W10996  28.395  34.075  12.038
38572W        W10997   0.229  36.414   3.681
38573W        W10998  12.539   7.227  14.080
38574W        W10999  28.164   4.811  10.700
38575W        W11000  32.753  19.031   2.633
38576W        W11001  24.192  22.220  10.610
38577W        W11002   8.891   9.117   4.504
38578W        W11003  41.412  15.838   3.153
38579W        W11004  17.272  34.091   4.144
38580W        W11005  26.473  14.776  13.793
38581W        W11006   4.176  23.542   4.241
38582W        W11007  16.469  30.073   0.824
38583W        W11008   7.230   1.854  12.578
38584W        W11009  23.677  16.129  10.866
38585W        W11010  22.541  31.989  13.398
38586W        W11011  15.635   5.733  10.056
38587W        W11012  19.271  18.341  11.684
38588W        W11013   4.159  21.129  13.502
38589W        W11014   3.436  25.256  11.158
38590W        W11015  24.154  25.742  12.973
38591W        W11016  25.230  20.531  12.585
38592W        W11017  38.292  30.295  12.480
38593W        W11018  15.291  20.138   3.043
38594W        W11019  34.024  15.210   2.086
38595W        W11020  17.346   6.483  11.107
38596W        W11021  24.629   3.447   1.410
38597W        W11022  33.685  29.951   4.590
38598W        W11023  21.110   2.656  11.458
38599W        W11024  26.093  41.948  14.179
38600W        W11025   1.045  42.484   4.701
38601W        W11026  27.250  42.164   0.832
38602W        W11027  10.187  10.318  14.235
38603W        W11028  33.977   0.643  12.434
38604W        W11029  22.434  22.132   4.644
38605W        W11030  23.659  17.237  14.357
38606W        W11031  24.608  10.455  14.535
38607W        W11032  21.082   0.082   4.418
38608W        W11033   5.298  28.790  11.876
38609W        W11034   7.752  37.865   1.508
38610W        W11035  30.619  10.240  14.951
38611W        W11036  31.951  25.491   4.345
38612W        W11037   5.836  19.623   1.853
38613W        W11038   0.218   7.416   3.135
38614W        W11039  44.425  30.385  14.085
38615W        W11040  23.301  25.273   3.143
38616W        W11041  29.687  17.235   2.775
38617W        W11042  10.224  11.698   2.690
38618W        W11043  42.340  12.896   1.914
38619W        W11044  24.621  11.417   3.329
38620W        W11045  24.784  19.602   2.536
38621W        W11046   7.160  17.867   3.411
38622W        W11047  21.190  39.468  14.376
38623W        W11048   5.601   7.525   1.259
38624W        W11049  41.932   7.627  14.795
38625W        W11050  26.211  26.592   3.415
38626W        W11051   7.698   0.641   2.592
38627W        W11052  12.563   9.175  12.408
38628W        W11053  15.718   1.421   4.352
38629W        W11054  29.124  44.137   4.427
38630W        W11055  44.327  25.168   2.163
38631W        W11056  39.398  12.637  10.693
38632W        W11057  23.423  23.327   0.096
38633W        W11058  37.066   2.350  11.462
38634W        W11059  39.015  40.413   0.856
38635W        W11060  34.377  41.477  11.949
38636W        W11061  19.618  10.697   2.680
38637W        W11062   1.578  12.422   0.153
38638W        W11063  12.570  32.601  11.097
38639W        W11064  29.837  43.403   0.913
38640W        W11065  14.822  40.590   2.259
38641W        W11066  19.848  13.133  13.563
38642W        W11067   7.879  35.637   1.870
38643W        W11068   3.891   4.444  12.080
38644W        W11069   8.685  44.892   2.333
38645W        W11070  18.653  27.787   2.498
38646W        W11071  15.776   5.744   0.719
38647W        W11072  34.692  11.120   4.094
38648W        W11073  21.171  37.148  10.782
38649W        W11074  11.144  14.198  13.865
38650W        W11075  12.518  17.731  11.975
38651W        W11076  37.317   3.652   0.321
38652W        W11077  28.160  35.475  13.823
38653W        W11078  29.038  40.035  14.515
38654W        W11079  12.321  42.201   1.096
38655W        W11080  24.711  10.702   1.670
38656W        W11081  27.077  28.998  11.433
38657W        W11082  42.860  23.705   3.119
38658W        W11083  43.806   9.603   2.112
38659W        W11084  21.556  30.649   0.744
38660W        W11085   4.555   8.370  10.347
38661W        W11086   2.994  39.449  14.854
38662W        W11087  17.679  15.247  14.273
38663W        W11088  38.785   1.288  12.052
38664W        W11089  20.293  11.522  12.091
38665W        W11090  18.817  10.580  14.407
38666W        W11091  10.343  33.139   4.205
38667W        W11092  26.809  29.471   4.986
38668W        W11093  37.373  40.364   0.173
38669W        W11094  30.831   7.975  11.872
38670W        W11095  23.970  18.152  14.889
38671W        W11096   5.926  24.019   4.448
38672W        W11097  23.528   7.120   3.980
38673W        W11098  13.545  31.839   0.795
38674W        W11099  42.506  26.908   4.139
38675W        W11100  12.284  44.403   2.604
38676W        W11101  14.263  32.519   4.507
38677W        W11102  39.841   1.408  14.017
38678W        W11103  26.521  17.642  14.324
38679W        W11104  43.300  24.223  12.403
38680W        W11105  20.224  24.446   0.724
38681W        W11106  44.307  27.329   3.559
38682W        W11107  11.379  31.937   2.809
38683W        W11108  41.088  13.588   1.269
38684W        W11109  11.290  14.253  14.378
38685W        W11110   7.270  29.902   0.223
38686W        W11111   2.669  14.382   4.218
38687W        W11112  29.610  29.667   0.395
38688W        W11113   6.432  23.760   1.360
38689W        W11114  14.816  34.575   4.199
38690W        W11115  29.062   4.453   4.522
38691W        W11116  19.302  12.272   1.032
38692W        W11117  36.463  18.474  12.092
38693W        W11118  15.327  25.321   3.253
38694W        W11119  27.896   4.421  13.382
38695W        W11120  32.074  40.568   2.201
38696W        W11121  15.774  37.629  12.050
38697W        W11122  44.517   2.548   2.240
38698W        W11123  15.440  20.116  11.866
38699W        W11124  22.035  11.397  11.428
38700W        W11125  41.641  37.924  11.551
38701W        W11126  36.690   8.437   5.154
38702W        W11127  16.146  13.047   0.001
38703W        W11128   5.859  15.170  13.456
38704W        W11129  30.702  12.440   4.195
38705W        W11130  29.666  20.575  13.354
38706W        W11131  25.762  23.460   2.184
38707W        W11132  30.637   2.701  11.890
38708W        W11133  24.340  18.498   4.273
38709W        W11134   7.284   2.512  10.870
38710W        W11135  22.111  34.990  13.886
38711W        W11136  22.776   0.781  10.628
38712W        W11137  19.693  12.276   0.271
38713W        W11138  12.685  35.408   2.816
38714W        W11139  36.938  24.436  12.519
38715W        W11140  38.561  16.413   3.096
38716W        W11141  23.224  24.496  10.739
38717W        W11142  41.546   9.255  13.309
38718W        W11143  21.674  10.982   0.197
38719W        W11144  41.073  20.179   1.869
38720W        W11145  41.917  18.236   1.787
38721W        W11146   5.688  35.092   1.214
38722W        W11147  36.177   7.898   2.677
38723W        W11148  14.109  27.109  11.077
38724W        W11149  20.224  13.520   2.646
38725W        W11150  12.602  42.865  14.460
38726W        W11151  39.140   7.928   4.995
38727W        W11152  22.533  25.250  10.790
38728W        W11153  38.035   0.439  11.615
38729W        W11154  27.934  15.591   4.546
38730W        W11155  16.238  15.099   2.739
38731W        W11156   5.563   4.149  14.092
38732W        W11157  28.712  16.068   3.669
38733W        W11158  12.332   9.356  13.472
38734W        W11159  22.894  40.883   4.549
38735W        W11160   9.749  12.212   3.620
38736W        W11161  32.304  38.478   1.823
38737W        W11162   3.736  37.101   2.848
38738W        W11163  37.979  31.135  11.529
38739W        W11164  37.075   6.715  14.162
38740W        W11165   5.788  33.249   2.623
38741W        W11166   9.784  43.649  14.350
38742W        W11167  34.643  28.502   4.037
38743W        W11168  36.497   9.666   3.330
38744W        W11169  44.219  15.739  14.346
38745W        W11170  13.342  13.314  10.896
38746W        W11171  10.705  36.148  11.482
38747W        W11172  43.078   0.279   1.897
38748W        W11173  43.895  44.220  13.937
38749W        W11174  41.427  22.542   2.760
38750W        W11175   7.236   9.396   3.113
38751W        W11176  11.649  30.200  13.438
38752W        W11177  11.649  40.961   4.873
38753W        W11178   5.006   9.841  11.109
38754W        W11179  19.325  19.815   2.333
38755W        W11180  14.587  12.156   3.095
38756W        W11181  40.090  44.039  11.489
38757W        W11182  28.843   4.175  13.477
38758W        W11183  35.951  36.654   2.896
38759W        W11184  29.645  27.996   0.924
38760W        W11185   9.318   0.218   1.931
38761W        W11186  40.058  16.458  13.469
38762W        W11187  37.561  42.498   1.927
38763W        W11188  26.058  43.448  11.214
38764W        W11189  19.140  24.789   2.365
38765W        W11190  30.629  28.898  14.483
38766W        W11191  14.899  42.484  12.553
38767W        W11192  29.322  33.673  11.571
38768W        W11193  25.951   7.676   0.607
38769W        W11194  14.150  38.135  11.010
38770W        W11195   7.241   1.520  13.020
38771W        W11196  22.802   7.831   0.725
38772W        W11197  23.732  26.945  14.352
38773W        W11198  10.949   8.156   0.358
38774W        W11199  20.445   6.597  13.300
38775W        W11200  32.134  33.627   1.895
38776W        W11201  13.045  25.215  11.263
38777W        W11202  17.918   8.882  12.027
38778W        W11203  36.593  17.855  14.116
38779W        W11204  13.083  16.728  13.620
38780W        W11205  15.714  38.687   0.570
38781W        W11206  22.824   6.234  10.103
38782W        W11207  38.172  16.632   3.382
38783W        W11208  31.540  43.486   3.617
38784W        W11209  18.521  20.696   0.951
38785W        W11210  15.028   0.546  10.655
38786W        W11211  28.402  15.691  11.063
38787W        W11212  18.013   1.701  13.539
38788W        W11213  32.034  13.905   4.161
38789W        W11214   9.916  30.515   0.002
38790W        W11215  20.496   5.202   4.042
38791W        W11216  28.412  39.044  13.963
38792W        W11217  38.622  39.913   4.083
38793W        W11218  11.685  18.698  14.404
38794W        W11219  14.164   1.694   0.730
38795W        W11220   8.935  27.151   0.870
38796W        W11221   5.202  25.059   4.655
38797W        W11222   8.716   5.565  11.289
38798W        W11223  15.361  21.171   0.142
38799W        W11224  35.318  14.872   2.606
38800W        W11225  41.920   0.003  10.757
38801W        W11226   0.420  30.935  14.465
38802W        W11227   6.385  36.367  10.654
38803W        W11228   1.927  42.270  13.427
38804W        W11229   3.184  15.692   3.539
38805W        W11230  29.393  35.165  13.465
38806W        W11231  20.167  39.666   1.622
38807W        W11232  10.030  24.173  12.601
38808W        W11233  43.794  24.102   0.449
38809W        W11234   6.280  21.576  10.719
38810W        W11235  24.153  17.103   5.034
38811W        W11236   3.236  10.780  13.782
38812W        W11237   9.347  32.349   3.852
38813W        W11238  25.139  23.507   3.812
38814W        W11239   2.057  22.434   9.956
38815W        W11240  11.289  26.039   1.230
38816W        W11241  29.156  23.827  10.640
38817W        W11242  25.933  34.447   3.152
38818W        W11243  26.357  36.021   3.672
38819W        W11244  35.176   3.347  11.403
38820W        W11245   4.600  21.884   2.324
38821W        W11246  29.417  29.939  10.478
38822W        W11247  13.806  37.030  12.013
38823W        W11248  29.732  34.491   3.333
38824W        W11249  10.618  15.578  14.388
38825W        W11250  33.115  43.435   1.152
38826W        W11251  27.767   4.645   2.282
38827W        W11252   5.547   4.452  12.801
38828W        W11253  18.392  34.103   0.577
38829W        W11254  27.323   9.147   0.863
38830W        W11255  44.304  34.072  14.026
38831W        W11256  33.648  24.035  13.972
38832W        W11257  19.099  17.714   4.109
38833W        W11258  38.941  42.234   4.148
38834W        W11259  23.172  32.936   2.307
38835W        W11260  34.479  12.664  12.126
38836W        W11261  43.450  24.078   3.658
38837W        W11262  29.824  10.141   1.213
38838W        W11263  11.674  19.508   4.279
38839W        W11264  32.361  16.612  10.726
38840W        W11265  33.817  34.468  14.140
38841W        W11266  23.206   8.215  12.537
38842W        W11267  40.875   8.772  13.156
38843W        W11268   5.067   8.313  10.326
38844W        W11269  41.863  37.007   1.897
38845W        W11270  11.410  22.617  11.886
38846W        W11271  30.538  27.231  12.870
38847W        W11272   8.578   6.280  12.567
38848W        W11273  16.487  31.642   3.252
38849W        W11274  22.944  19.088   0.841
38850W        W11275   8.430  23.296   3.316
38851W        W11276  40.623   9.170  12.471
38852W        W11277   5.288  21.819   3.122
38853W        W11278   3.737  23.779  11.168
38854W        W11279   8.344   8.739   0.897
38855W        W11280   6.667   0.477   4.205
38856W        W11281  32.309   7.421   1.306
38857W        W11282  38.509  13.120   3.127
38858W        W11283  15.962  18.808   3.468
38859W        W11284  27.670  15.556   2.339
38860W        W11285  36.189  40.648   2.279
38861W        W11286  16.673  26.061  12.444
38862W        W11287  19.691  39.091  14.558
38863W        W11288  44.489  22.585  14.433
38864W        W11289   9.224  38.506   0.114
38865W        W11290  39.850  25.596   1.325
38866W        W11291  23.037  31.937  14.906
38867W        W11292  18.223  41.324  12.079
38868W        W11293   9.531  42.844  11.442
38869W        W11294  36.939   1.761  14.817
38870W        W11295   7.753  25.581   1.393
38871W        W11296  44.155  35.092   1.970
38872W        W11297  32.016  26.056  11.506
38873W        W11298  38.678   9.222  10.050
38874W        W11299  36.577   6.464  11.689
38875W        W11300  42.522   0.981   1.873
38876W        W11301  10.722  28.952   1.728
38877W        W11302  38.538   5.932  14.811
38878W        W11303  16.385  40.833   1.537
38879W        W11304  31.375  22.036   4.157
38880W        W11305  39.442  28.670  12.818
38881W        W11306   4.153  33.592  14.020
38882W        W11307  37.107  23.968  13.457
38883W        W11308  23.748  34.878  11.837
38884W        W11309  17.168  41.969  12.944
38885W        W11310  17.019  28.155   9.878
38886W        W11311  34.118  20.567  12.911
38887W        W11312  42.923  11.833  13.487
38888W        W11313  21.339  39.463  11.166
38889W        W11314   2.839  35.372   0.833
38890W        W11315  18.713   5.898   9.703
38891W        W11316  13.876  32.451  12.440
38892W        W11317   3.952   3.774  11.058
38893W        W11318  35.931   0.932  13.976
38894W        W11319  15.173  30.059  14.687
38895W        W11320  17.788  38.333  11.434
38896W        W11321  42.059  33.841   4.062
38897W        W11322   8.162  17.821   4.626
38898W        W11323  16.843  35.561   3.827
38899W        W11324  18.053  29.739   4.853
38900W        W11325  11.721   0.530  12.537
38901W        W11326  39.219   8.290   1.425
38902W        W11327  40.027  41.050   0.403
38903W        W11328  41.474  12.090   2.695
38904W        W11329  27.633   5.918  12.798
38905W        W11330  18.874  41.549  13.570
38906W        W11331  24.299  18.069   1.265
38907W        W11332  22.497  20.638  13.270
38908W        W11333   0.763  13.526   4.709
38909W        W11334  15.178   2.156  10.179
38910W        W11335  28.379  14.818   3.435
38911W        W11336   1.640  16.230   1.489
38912W        W11337  38.957  26.575  10.899
38913W        W11338   5.903   0.269   0.233
38914W        W11339  37.945  32.080  13.657
38915W        W11340  10.141  16.828   0.460
38916W        W11341  16.724   2.854  14.315
38917W        W11342  40.496  34.883   1.704
38918W        W11343  42.886  14.099   9.915
38919W        W11344   2.396  14.015  14.687
38920W        W11345  17.968  40.791   1.407
38921W        W11346  29.636  40.823   2.115
38922W        W11347   0.896  18.439  14.388
38923W        W11348  17.372   1.502   1.095
38924W        W11349  19.676  16.153  12.553
38925W        W11350  32.469  20.837  12.336
38926W        W11351  19.614  38.741  14.962
38927W        W11352  23.694   0.501   1.438
38928W        W11353  15.809  44.661  13.808
38929W        W11354  16.811  35.996   2.157
38930W        W11355   5.981  27.890   0.382
38931W        W11356  25.594  31.129   4.803
38932W        W11357  42.666   5.314  13.207
38933W        W11358   8.715  28.618   4.162
38934W        W11359   6.686  27.191  13.802
38935W        W11360  30.626  10.719   2.194
38936W        W11361  32.441  28.698   3.603
38937W        W11362  22.597  28.781   2.685
38938W        W11363  40.819  28.399  13.862
38939W        W11364   7.911   6.919  12.659
38940W        W11365  30.016  27.388   4.802
38941W        W11366  20.744  12.200   3.756
38942W        W11367  18.510  29.885   5.051
38943W        W11368   8.697  37.888   4.173
38944W        W11369  43.752  21.654   0.881
38945W        W11370  31.973  24.659   2.740
38946W        W11371  34.928   9.533   2.824
38947W        W11372  32.936   6.610  10.617
38948W        W11373  42.367  12.113  11.998
38949W        W11374  28.664  43.299  11.267
38950W        W11375  21.989  43.313  14.100
38951W        W11376  20.788  31.128  12.020
38952W        W11377  36.859  10.265   3.604
38953W        W11378  22.008  23.211   1.282
38954W        W11379  21.218  18.747  12.925
38955W        W11380  34.002   9.278   4.393
38956W        W11381  40.174   1.367  10.598
38957W        W11382  21.918  12.168   4.805
38958W        W11383  37.067  26.550  12.497
38959W        W11384  23.788  38.909  12.518
38960W        W11385   4.270  15.661  12.875
38961W        W11386   8.345  38.910   4.750
38962W        W11387   7.200  40.068  10.769
38963W        W11388  17.087  23.573   0.730
38964W        W11389  25.637  36.140   0.263
38965W        W11390  22.165  22.234  10.967
38966W        W11391  41.914   3.780  13.768
38967W        W11392  43.864   8.072   0.985
38968W        W11393  32.148  36.626   3.197
38969W        W11394  20.025   4.162  14.502
38970W        W11395  24.558  35.533  14.483
38971W        W11396   7.963  37.129   3.425
38972W        W11397  12.929  18.050   0.462
38973W        W11398  44.435  41.634  11.584
38974W        W11399   9.135  22.750   0.884
38975W        W11400  25.668  10.812  11.163
38976W        W11401  13.657  33.605   4.086
38977W        W11402   5.704  19.358  12.337
38978W        W11403  12.259  25.991  13.953
38979W        W11404  37.018  32.119   3.330
38980W        W11405  16.110   7.675  12.838
38981W        W11406  27.372  12.920   4.074
38982W        W11407  25.868  10.016  10.021
38983W        W11408  30.174   8.580   0.480
38984W        W11409  33.140  44.939   2.630
38985W        W11410  30.369  18.181  12.706
38986W        W11411  12.345  14.796   3.323
38987W        W11412  10.371   6.883   4.958
38988W        W11413   7.245  41.732   2.245
38989W        W11414  44.441   2.925  11.605
38990W        W11415   3.433   3.771  12.987
38991W        W11416  27.231   6.920  13.085
38992W        W11417  44.290  34.393   4.612
38993W        W11418  40.079  12.625   4.102
38994W        W11419  40.293  24.235  11.550
38995W        W11420  34.961   4.953  10.596
38996W        W11421  44.579  44.793  12.004
38997W        W11422   0.529  43.827   3.550
38998W        W11423   6.329   1.534   2.067
38999W        W11424  35.818  15.278   4.046
39000W        W11425  23.449  42.472   1.377
39001W        W11426  21.074  39.319  12.022
39002W        W11427   0.888  15.819  11.496
39003W        W11428   3.431  20.650  11.636
39004W        W11429   5.347  15.307  11.086
39005W        W11430  15.338  30.309  12.565
39006W        W11431  19.211  27.658  12.599
39007W        W11432   0.853  38.029  11.640
39008W        W11433   6.072  37.627  13.946
39009W        W11434   3.417  34.915   0.308
39010W        W11435  17.781  16.818   3.416
39011W        W11436  21.493   9.941  13.203
39012W        W11437  15.327  10.439  11.087
39013W        W11438  18.719  34.331   1.658
39014W        W11439  22.188  31.667  14.176
39015W        W11440  26.215   5.443  14.109
39016W        W11441  11.360   7.748  13.097
39017W        W11442  43.867  26.854  13.110
39018W        W11443   6.676  12.271   4.369
39019W        W11444  40.321   0.276  14.827
39020W        W11445  39.572   5.354  13.250
39021W        W11446  19.043   6.752  13.095
39022W        W11447  33.390  38.126   4.392
39023W        W11448   3.306   3.953  14.056
39024W        W11449  35.067  25.255   4.606
39025W        W11450  37.049  41.867   2.451
39026W        W11451  23.432  21.883   4.086
39027W        W11452  18.898   4.721   4.827
39028W        W11453  42.793   9.393   3.324
39029W        W11454  28.108   6.233   1.856
39030W        W11455  40.596  10.117   0.367
39031W        W11456   3.234  14.428  13.298
39032W        W11457  12.365  40.875  12.034
39033W        W11458  26.439   6.786  13.431
39034W        W11459   1.829   3.213  14.849
39035W        W11460  39.241   7.970   3.689
39036W        W11461  32.675  13.702   2.292
39037W        W11462  30.076  14.047   1.137
39038W        W11463  11.712   5.151  13.662
39039W        W11464  28.030  29.180  11.129
39040W        W11465  35.940  12.285   0.304
39041W        W11466  12.496  28.178   2.691
39042W        W11467  33.281  27.908  11.427
39043W        W11468   0.828  12.284   1.401
39044W        W11469   3.875  35.127   0.356
39045W        W11470  32.826  41.814   0.152
39046W        W11471  29.600  33.806  14.323
39047W        W11472  43.877  36.820   3.306
39048W        W11473   2.357   3.988   3.264
39049W        W11474  38.828  27.678  13.485
39050W        W11475   7.488  41.925   4.777
39051W        W11476  35.132  31.027   4.787
39052W        W11477  30.842  19.614   3.276
39053W        W11478  30.655  38.306   1.607
39054W        W11479  28.714   5.411   4.667
39055W        W11480  34.917  23.071   1.194
39056W        W11481  25.441  41.851  11.237
39057W        W11482   2.577  24.907  10.561
39058W        W11483  31.175   9.067  14.761
39059W        W11484  17.898  15.075   0.737
39060W        W11485  19.098   0.300  10.723
39061W        W11486  36.948   0.493   2.166
39062W        W11487  29.718  38.430   2.441
39063W        W11488  38.899   1.912   1.057
39064W        W11489  40.553   3.922   3.268
39065W        W11490  34.084   5.127   2.733
39066W        W11491  31.908  21.942  10.928
39067W        W11492  36.662  29.023  10.504
39068W        W11493  44.854  33.873   0.468
39069W        W11494  27.925   9.825  14.700
39070W        W11495  44.942   6.472   2.934
39071W        W11496  22.277  18.651   3.751
39072W        W11497  23.006  22.254   0.510
39073W        W11498  32.537  14.730  13.515
39074W        W11499  37.363  14.890   3.348
39075W        W11500  41.839  10.909   0.780
39076W        W11501   1.519   1.672  14.368
39077W        W11502  40.377   0.306   0.345
39078W        W11503  16.648   9.234   4.666
39079W        W11504   0.489  28.716   3.254
39080W        W11505  15.518  27.024  12.345
39081W        W11506  36.037  28.812  13.603
39082W        W11507  32.120  30.929   0.741
39083W        W11508  42.859  24.012   4.164
39084W        W11509  39.531  34.863  14.687
39085W        W11510   3.672  33.639  12.869
39086W        W11511  13.667  17.215  10.669
39087W        W11512   8.663   0.384   2.611
39088W        W11513   1.703  12.276   3.165
39089W        W11514  30.727   9.578  14.463
39090W        W11515   4.692  11.355  12.930
39091W        W11516   7.936   7.758   2.358
39092W        W11517  14.572  13.267  12.856
39093W        W11518  33.002   7.729   0.934
39094W        W11519   2.509  28.030  14.845
39095W        W11520  25.642  39.475  10.679
39096W        W11521  30.573   1.238   2.267
39097W        W11522   3.677  20.545   0.362
39098W        W11523   5.672  33.872  11.366
39099W        W11524  27.685  12.855  10.719
39100W        W11525   8.310  43.816   1.778
39101W        W11526  10.643   1.216  14.954
39102W        W11527   1.788  17.104   1.393
39103W        W11528  39.075  14.256  14.347
39104W        W11529  16.666  18.947  12.557
39105W        W11530  29.097  41.409  14.394
39106W        W11531   6.863  38.706  13.536
39107W        W11532  26.696  22.659   3.258
39108W        W11533  36.246  21.570   3.656
39109W        W11534  37.287  31.889  11.152
39110W        W11535  44.754  12.083   0.971
39111W        W11536  17.691  24.697   1.854
39112W        W11537  36.269  30.573  10.239
39113W        W11538   4.284  17.373   2.167
39114W        W11539  27.606   7.759  12.796
39115W        W11540  10.780  36.055   4.062
39116W        W11541  24.818   3.919  11.993
39117W        W11542   7.934  43.332  11.728
39118W        W11543  34.569  10.599   1.165
39119W        W11544   3.197   5.501  11.952
39120W        W11545   9.303  24.741  11.501
39121W        W11546  28.469  25.169   0.403
39122W        W11547   9.677  38.203   3.211
39123W        W11548  35.269  20.679  13.540
39124W        W11549  21.841  14.049   2.825
39125W        W11550   9.448  39.386   4.132
39126W        W11551  21.100  42.796   5.062
39127W        W11552   0.996   6.439   0.406
39128W        W11553  31.419  35.678   3.709
39129W        W11554  25.504  10.063  10.443
39130W        W11555  33.119  13.584  12.995
39131W        W11556  28.572  33.028  12.296
39132W        W11557  17.008  29.988   4.052
39133W        W11558  27.239  25.893   0.217
39134W        W11559  15.829  43.884   0.394
39135W        W11560  18.307  43.438  13.942
39136W        W11561  35.385  21.583   2.426
39137W        W11562   5.949  11.692   1.295
39138W        W11563  30.700   3.769   1.813
39139W        W11564  32.837  19.226  10.692
39140W        W11565  20.343  42.955   3.412
39141W        W11566  10.258  32.543   1.013
39142W        W11567  28.583  26.254   1.035
39143W        W11568  23.720  24.766   0.359
39144W        W11569  41.907  34.879   1.139
39145W        W11570   5.861  41.083  12.078
39146W        W11571  17.375   2.014  10.966
39147W        W11572  29.153  42.749  14.763
39148W        W11573  10.088  29.911   4.200
39149W        W11574   8.012  22.239  11.145
39150W        W11575  43.914  23.714  14.527
39151W        W11576   8.263  33.416  11.105
39152W        W11577   1.791  12.727   0.523
39153W        W11578  39.932  11.777  14.598
39154W        W11579  29.431  24.297   2.068
39155W        W11580  35.866  24.756   4.200
39156W        W11581  21.145   0.918  13.078
39157W        W11582  44.496   5.595   0.736
39158W        W11583  35.810   5.587  11.442
39159W        W11584  14.035  17.419  12.550
39160W        W11585   7.186  31.556   2.806
39161W        W11586  26.368  23.643   1.188
39162W        W11587  24.160  17.781  13.451
39163W        W11588  19.792  41.384  13.427
39164W        W11589  44.681  20.046  10.668
39165W        W11590  18.848  38.631   4.197
39166W        W11591  13.269  23.890   4.200
39167W        W11592  26.012  21.720   4.068
39168W        W11593  22.720  15.723   4.599
39169W        W11594  18.542  27.985  11.918
39170W        W11595   5.210   4.469  12.424
39171W        W11596  22.015   2.812   1.992
39172W        W11597  16.804   4.893  13.918
39173W        W11598  31.422  32.271   2.333
39174W        W11599  30.169   7.440  14.128
39175W        W11600  20.289  40.933   2.449
39176W        W11601  39.312  26.115   2.234
39177W        W11602  24.498   5.896  14.285
39178W        W11603  17.018  39.759   1.260
39179W        W11604  23.121  31.320   4.232
39180W        W11605  43.081  31.936   3.258
39181W        W11606  37.945  14.896  13.825
39182W        W11607  15.686  26.982   2.018
39183W        W11608  15.833   5.463  14.938
39184W        W11609  35.554  27.654   1.300
39185W        W11610  29.610   1.536   3.166
39186W        W11611  43.910  40.067   3.621
39187W        W11612  21.758   2.112   4.098
39188W        W11613  19.272   7.614   0.849
39189W        W11614   2.942  16.528  11.577
39190W        W11615  30.184  19.171   0.190
39191W        W11616   5.395  31.164   2.311
39192W        W11617  32.684  20.108   4.221
39193W        W11618  38.227   6.174  13.646
39194W        W11619   6.819  23.909  14.192
39195W        W11620  10.853  22.293   2.179
39196W        W11621  24.486  20.106   1.379
39197W        W11622  40.878  12.073   1.896
39198W        W11623  16.221  43.273   1.488
39199W        W11624  39.998  20.133   3.910
39200W        W11625  42.071   7.819  13.771
39201W        W11626  37.104  33.975   2.721
39202W        W11627   0.906  44.271  11.646
39203W        W11628  17.102  20.538   3.655
39204W        W11629  27.987  18.031   2.673
39205W        W11630   2.398  21.986  12.984
39206W        W11631  25.193  12.666   2.907
39207W        W11632  22.227  42.509   0.863
39208W        W11633  11.392  34.682   1.205
39209W        W11634  34.625  29.800  10.682
39210W        W11635  20.403  37.356   1.240
39211W        W11636  17.022  28.779   1.253
39212W        W11637  14.120  24.032   4.200
39213W        W11638  13.811  18.377   0.436
39214W        W11639  44.365   0.315   0.055
39215W        W11640   3.234  39.366  11.997
39216W        W11641  17.677  18.631  14.745
39217W        W11642   4.667   6.419  12.123
39218W        W11643  37.946  31.019  10.462
39219W        W11644  34.629  37.520  13.685
39220W        W11645  42.045   7.788   1.681
39221W        W11646  37.499  29.871   0.154
39222W        W11647  23.192   7.524   4.878
39223W        W11648   5.245  24.228   2.318
39224W        W11649  13.231  40.703  13.048
39225W        W11650  36.460   5.999   9.866
39226W        W11651  18.485  43.312   0.384
39227W        W11652  37.991  28.117  13.019
39228W        W11653  37.084   5.676   1.415
39229W        W11654  23.031  42.221   1.175
39230W        W11655  20.262  40.916  12.531
39231W        W11656   9.105  32.587  14.530
39232W        W11657  41.059  29.670  14.323
39233W        W11658   8.433   3.005   4.095
39234W        W11659  19.440  42.295  14.495
39235W        W11660  44.928  43.791  14.458
39236W        W11661  24.011  17.217   2.667
39237W        W11662  37.434  36.128   4.496
39238W        W11663  16.232   0.805  10.954
39239W        W11664   4.196   4.487   2.183
39240W        W11665  43.053   1.539  12.223
39241W        W11666  30.134  30.857   4.168
39242W        W11667  10.778   3.377  11.383
39243W        W11668   6.077   4.232  14.005
39244W        W11669   2.327   0.871  10.485
39245W        W11670  40.324  44.288   0.733
39246W        W11671  12.668   7.676   4.726
39247W        W11672  13.827  41.832  11.304
39248W        W11673   5.542  24.060  13.873
39249W        W11674  29.958  21.222   5.644
39250W        W11675  31.404  44.396  13.033
39251W        W11676  27.600  10.363   0.224
39252W        W11677  42.514   7.711  13.528
39253W        W11678  41.784  44.551   0.842
39254W        W11679  34.562  42.475  10.711
39255W        W11680   0.208   4.807   1.892
39256W        W11681  34.900   2.772   0.322
39257W        W11682  32.862  34.421   3.313
39258W        W11683  36.176  19.044  12.582
39259W        W11684  41.930  13.910  11.113
39260W        W11685   3.111  17.019  13.983
39261W        W11686   4.927  34.015  12.523
39262W        W11687  42.061  12.583   1.366
39263W        W11688  38.795  41.749  11.015
39264W        W11689  24.759  10.783   2.695
39265W        W11690  35.459  12.580   1.461
39266W        W11691  20.669  32.414  14.353
39267W        W11692  32.172   6.795   1.895
39268W        W11693  16.365   2.306   2.924
39269W        W11694  18.994  32.142   0.857
39270W        W11695  16.629   7.360  12.681
39271W        W11696  37.518   5.303  10.657
39272W        W11697  42.816  38.351  13.036
39273W        W11698  23.941  23.655  12.989
39274W        W11699  14.098  41.251  14.371
39275W        W11700  20.660  23.519  13.997
39276W        W11701  18.342  18.810   2.346
39277W        W11702  16.143  31.906   0.266
39278W        W11703  13.785  12.977   4.777
39279W        W11704  11.792  42.810   4.162
39280W        W11705  16.139  34.651   3.282
39281W        W11706   1.878  28.248  12.988
39282W        W11707  26.479  15.159   2.478
39283W        W11708  19.627  17.520   3.861
39284W        W11709   7.721  29.477   1.196
39285W        W11710  35.574  41.221  11.928
39286W        W11711  43.333  41.561  12.897
39287W        W11712   1.443  43.075   2.828
39288W        W11713  27.741  23.738  12.080
39289W        W11714  40.841   8.703  12.552
39290W        W11715   6.487  44.004   3.007
39291W        W11716  32.093  31.343  14.354
39292W        W11717   2.874  19.794  10.878
39293W        W11718   8.157  26.703   0.703
39294W        W11719  41.489  16.083   0.727
39295W        W11720   9.003  33.638   0.472
39296W        W11721  26.677  11.225   3.866
39297W        W11722  44.319  30.383  10.586
39298W        W11723  30.094  43.290   3.803
39299W        W11724  21.202  37.621  10.165
39300W        W11725  44.320  39.387  13.363
39301W        W11726  41.703   0.951  12.678
39302W        W11727  17.027   1.229   1.902
39303W        W11728   7.188  30.990   2.181
39304W        W11729  33.983  30.186   4.095
39305W        W11730  34.072  24.600   4.717
39306W        W11731  20.694  16.669  14.319
39307W        W11732  35.565  28.771   2.284
39308W        W11733  24.785  18.193   0.267
39309W        W11734   7.748  38.002  12.025
39310W        W11735  36.624  10.122  11.062
39311W        W11736  13.179  32.308  10.638
39312W        W11737  27.969  35.770  11.025
39313W        W11738  10.263  28.678   1.855
39314W        W11739  32.392  18.564   4.359
39315W        W11740  27.340   9.866   1.305
39316W        W11741  15.784  23.552  10.265
39317W        W11742   9.706  23.704   3.347
39318W        W11743  44.723  25.230  12.022
39319W        W11744  36.771   6.948  13.812
39320W        W11745  35.461  11.327  12.341
39321W        W11746  28.785  12.365  14.987
39322W        W11747  37.106  29.442   3.192
39323W        W11748  23.659  19.634   4.258
39324W        W11749  28.696   4.752  14.579
39325W        W11750  34.057  36.516  12.242
39326W        W11751  33.964   2.893   0.268
39327W        W11752   1.200  41.221  13.350
39328W        W11753  20.291  33.517   3.041
39329W        W11754   2.230  27.599  14.865
39330W        W11755   1.965  23.638  12.066
39331W        W11756  28.309  17.984  11.501
39332W        W11757  29.189  33.395   2.408
39333W        W11758  25.154   2.307   2.234
39334W        W11759   3.883  15.608  14.501
39335W        W11760   5.231  30.919   0.946
39336W        W11761   7.431   7.123   1.815
39337W        W11762  26.271  32.657   0.364
39338W        W11763  14.042   2.393   2.194
39339W        W11764  10.624  10.586  14.361
39340W        W11765  39.953  24.118   3.453
39341W        W11766  33.641   9.304   1.281
39342W        W11767  34.170  20.937  13.715
39343W        W11768  18.028  23.202   2.182
39344W        W11769  28.483  21.478  13.616
39345W        W11770  32.353   9.067  12.169
39346W        W11771  32.752  28.437   0.341
39347W        W11772  14.049  18.729   3.543
39348W        W11773  28.748   4.399   2.075
39349W        W11774  21.049  36.831   1.450
39350W        W11775  19.040  13.525  10.817
39351W        W11776  28.233  30.550  14.787
39352W        W11777  25.690  39.526  11.549
39353W        W11778   3.993  12.412  14.843
39354W        W11779  28.100  25.224   0.053
39355W        W11780  39.970  38.079   3.714
39356W        W11781  42.328  41.845   0.306
39357W        W11782   7.747   3.217  11.160
39358W        W11783  18.231  17.084   0.872
39359W        W11784  36.744  19.733   0.295
39360W        W11785   1.809   6.121   1.208
39361W        W11786  14.914  17.260   3.739
39362W        W11787  27.188  23.267   1.241
39363W        W11788  15.650  23.960   9.915
39364W        W11789   8.799  25.767   0.255
39365W        W11790  23.758  34.950   4.547
39366W        W11791  42.070  44.013   3.066
39367W        W11792  10.985   4.374  14.285
39368W        W11793  16.782  37.579  12.771
39369W        W11794   1.813  36.351   0.757
39370W        W11795  24.614  38.560  12.497
39371W        W11796   5.579  20.604  14.543
39372W        W11797  42.082  29.181   3.590
39373W        W11798  36.819   1.552   0.743
39374W        W11799  11.798  28.470   3.970
39375W        W11800  24.500  15.065   2.495
39376W        W11801   6.012  30.456   2.598
39377W        W11802  33.933  16.104   0.323
39378W        W11803  19.554  32.951   4.149
39379W        W11804  20.739  36.841   0.456
39380W        W11805  29.527  43.612  13.951
39381W        W11806  14.129  40.482  14.836
39382W        W11807  30.150  12.804   1.705
39383W        W11808  40.470  24.245   4.553
39384W        W11809  29.858  42.886  11.075
39385W        W11810   1.301  39.326  12.103
39386W        W11811  20.392   7.896  14.234
39387W        W11812  10.624  41.081  12.943
39388W        W11813  38.516   2.141   0.783
39389W        W11814   2.827  40.790   2.726
39390W        W11815  38.422  16.659   4.276
39391W        W11816  15.201  39.510   4.104
39392W        W11817  42.219  28.231   3.787
39393W        W11818  15.790  11.256   0.618
39394W        W11819   5.557  21.773  12.641
39395W        W11820  10.279   1.882  14.134
39396W        W11821  43.203  27.498   1.344
39397W        W11822  15.248  39.427  12.840
39398W        W11823  38.824  27.633   2.398
39399W        W11824   4.685   6.776  10.802
39400W        W11825  39.897  42.849   3.363
39401W        W11826  18.205   0.754   3.342
39402W        W11827  26.043  37.532  10.599
39403W        W11828  38.362   0.190   2.235
39404W        W11829  43.353  37.227  12.007
39405W        W11830  23.173  28.032  10.746
39406W        W11831  35.415  32.642   4.716
39407W        W11832   0.452  13.840   0.310
39408W        W11833  14.522  36.042  13.365
39409W        W11834  35.347  14.712   0.212
39410W        W11835  24.251  13.652   2.712
39411W        W11836  19.611   6.736   0.952
39412W        W11837  17.513  27.021  12.109
39413W        W11838  30.312   3.851   2.144
39414W        W11839  34.647  11.652   2.468
39415W        W11840  30.616  24.551  11.733
39416W        W11841   9.570  38.174  13.491
39417W        W11842  36.685  31.958   1.738
39418W        W11843  43.960  38.365   2.866
39419W        W11844  35.612  39.472   3.420
39420W        W11845   4.846  16.200  10.927
39421W        W11846   9.115  25.219  13.573
39422W        W11847  30.658  32.493   0.857
39423W        W11848  14.201   9.233   4.124
39424W        W11849  19.346  27.380  12.129
39425W        W11850   9.294  10.635  11.134
39426W        W11851   8.832   6.912   1.464
39427W        W11852   1.130  11.733   5.088
39428W        W11853  44.692  23.070  14.442
39429W        W11854  31.453  40.950   4.603
39430W        W11855  27.956  19.264  11.387
39431W        W11856   2.684  31.641  10.825
39432W        W11857  17.147  11.272   1.224
39433W        W11858   3.453  39.021  13.096
39434W        W11859  37.857   8.189  11.592
39435W        W11860  43.751  18.242   4.673
39436W        W11861  20.366  42.947  10.658
39437W        W11862   8.789  39.881  10.372
39438W        W11863  43.284  38.974   1.070
39439W        W11864  18.528  29.201   4.290
39440W        W11865  31.709  28.684  12.555
39441W        W11866  38.865  38.473   4.126
39442W        W11867  26.964  12.857   2.278
39443W        W11868  29.007  25.304   4.248
39444W        W11869  17.569  11.258  10.933
39445W        W11870  16.592  26.677   3.813
39446W        W11871  42.880   5.222   3.716
39447W        W11872  25.557  33.013  10.576
39448W        W11873  44.438   1.076   1.814
39449W        W11874  10.926  16.807   0.873
39450W        W11875  24.223  42.404  12.879
39451W        W11876  21.657  41.563  14.797
39452W        W11877   2.748   5.878  12.549
39453W        W11878  10.803  11.800   0.046
39454W        W11879  39.832  13.365   3.716
39455W        W11880   6.398  42.851  11.598
39456W        W11881  37.380  35.409  14.065
39457W        W11882  42.380  41.019   0.829
39458W        W11883  26.642  11.176   2.358
39459W        W11884  32.536   0.783  10.636
39460W        W11885  37.113   9.956   4.574
39461W        W11886  26.017  27.472   4.362
39462W        W11887  13.028  36.066  11.050
39463W        W11888   7.482  13.228   3.344
39464W        W11889  16.843  11.518   5.023
39465W        W11890  13.551   5.278  10.981
39466W        W11891   8.612  22.935  14.927
39467W        W11892   1.888  20.785  11.177
39468W        W11893  19.298  41.371   3.273
39469W        W11894  37.522  43.293   0.799
39470W        W11895  30.519  28.051   5.192
39471W        W11896   4.825  28.998   2.900
39472W        W11897  41.547  44.350  12.500
39473W        W11898  28.058  10.631   3.408
39474W        W11899  15.503   0.516  10.889
39475W        W11900  25.957  19.265  13.492
39476W        W11901   3.372  12.289   1.950
39477W        W11902  25.980   1.368   3.448
39478W        W11903  42.976  24.604  14.531
39479W        W11904  24.568  37.363   0.213
39480W        W11905  28.985  19.394   4.637
39481W        W11906  18.467  40.581   0.808
39482W        W11907  27.019  13.462  14.589
39483W        W11908  10.452  12.102   2.440
39484W        W11909  43.105  39.337   2.432
39485W        W11910  36.256  13.241  14.279
39486W        W11911  42.896  34.657   0.043
39487W        W11912  35.559  25.490   0.349
39488W        W11913  26.502   3.490   3.340
39489W        W11914  12.192  11.209  10.983
39490W        W11915  40.934  24.163  14.215
39491W        W11916  22.994  23.242  12.881
39492W        W11917  16.686  20.479   2.366
39493W        W11918  15.703  12.769   3.650
39494W        W11919   9.652  22.735   0.722
39495W        W11920  39.992  12.581  12.894
39496W        W11921  30.156  31.127  14.319
39497W        W11922  25.969  42.970   1.263
39498W        W11923   3.320   7.188   0.317
39499W        W11924   2.273   3.674  10.961
39500W        W11925  23.890  34.715  11.020
39501W        W11926  24.604  38.213  12.947
39502W        W11927  34.944   0.827   1.155
39503W        W11928  34.853  38.995  10.694
39504W        W11929  30.907  35.924  14.525
39505W        W11930  33.170  22.135   4.689
39506W        W11931   4.460  32.292   1.767
39507W        W11932   2.304  20.083  12.795
39508W        W11933  36.508   3.158  12.483
39509W        W11934  28.680   8.755   3.621
39510W        W11935   6.646  32.981  11.620
39511W        W11936   5.137  23.717  14.559
39512W        W11937  22.003   4.409  13.807
39513W        W11938  41.114  34.168  13.573
39514W        W11939  37.681  24.564  11.151
39515W        W11940   4.306  42.505   0.318
39516W        W11941   6.667  41.355  13.393
39517W        W11942  10.819  17.633   2.586
39518W        W11943  39.262   6.468  11.093
39519W        W11944   3.555  18.540  13.070
39520W        W11945  26.212   5.385   1.932
39521W        W11946  10.435  11.800   4.652
39522W        W11947  36.996  25.461  12.536
39523W        W11948  37.837  18.388  14.937
39524W        W11949   0.609   0.304  11.652
39525W        W11950  41.726  38.976   4.240
39526W        W11951   0.246  17.491   1.810
39527W        W11952  17.987   6.162  13.549
39528W        W11953   8.509  25.746  10.607
39529W        W11954  25.077  44.167   0.102
39530W        W11955  14.314  28.960   3.714
39531W        W11956  42.378  35.081  12.383
39532W        W11957  15.629   5.810  13.465
39533W        W11958  31.642  25.518   3.330
39534W        W11959  27.201  41.595  14.401
39535W        W11960  13.320  30.621  11.590
39536W        W11961  18.120   8.741  13.705
39537W        W11962  14.087   7.680   4.613
39538W        W11963  28.419   5.420   0.317
39539W        W11964  20.046  18.000  13.977
39540W        W11965  42.470  30.180  12.585
39541W        W11966  16.209  28.094  14.885
39542W        W11967   5.666  22.733   4.135
39543W        W11968   6.788  35.649   0.325
39544W        W11969  14.773   6.666  13.758
39545W        W11970  23.261  30.522   0.666
39546W        W11971  27.940  21.178  14.475
39547W        W11972  11.700  38.056  12.940
39548W        W11973  33.553  11.200   1.956
39549W        W11974   0.220  34.484  11.162
39550W        W11975  27.765   8.938   0.436
39551W        W11976  43.058  33.498  13.330
39552W        W11977   1.822  22.814   2.986
39553W        W11978  25.755  20.638  14.526
39554W        W11979  36.635   0.693   0.511
39555W        W11980  42.476   8.847  14.886
39556W        W11981  37.189  14.795  11.201
39557W        W11982  41.478  20.650  13.309
39558W        W11983  19.526   4.198  10.896
39559W        W11984   8.142  19.559   3.627
39560W        W11985  28.616   6.522   2.470
39561W        W11986  32.720  12.760  11.907
39562W        W11987  32.559  44.395  10.961
39563W        W11988  11.284  35.356   1.871
39564W        W11989  15.307  21.986  11.187
39565W        W11990  37.408  41.586  14.573
39566W        W11991  17.882  31.676  11.502
39567W        W11992  32.913  44.968  13.559
39568W        W11993   6.338  37.968  12.459
39569W        W11994  22.677  41.831  10.446
39570W        W11995  24.700   0.896   2.258
39571W        W11996  43.956  11.600   0.778
39572W        W11997  32.835  11.431   0.231
39573W        W11998  14.180  12.338  13.834
39574W        W11999  11.231  18.215   2.345
39575W        W12000  36.780  32.975   4.992
39576W        W12001  20.957   4.781   3.152
39577W        W12002  33.842  33.346  14.579
39578W        W12003  27.209  36.941  11.561
39579W        W12004   9.791   1.539   4.209
39580W        W12005  27.438  36.193  11.685
39581W        W12006  25.078  29.672  11.881
39582W        W12007  42.303  34.890   1.467
39583W        W12008  18.170  25.295  13.716
39584W        W12009   9.121  21.701  11.132
39585W        W12010  38.790  44.174   9.930
39586W        W12011  18.359  44.830  12.164
39587W        W12012  16.088   5.494  10.159
39588W        W12013  31.350   0.270   4.676
39589W        W12014  25.240  26.202  12.558
39590W        W12015  32.868  35.865   1.429
39591W        W12016  37.281   5.705  14.036
39592W        W12017  27.560  27.278  12.930
39593W        W12018  43.884  22.563   3.389
39594W        W12019  39.472  11.663   0.322
39595W        W12020  36.484  25.509   5.008
39596W        W12021  35.415  26.522  14.729
39597W        W12022  32.191   1.240   3.879
39598W        W12023  28.629  13.392   0.816
39599W        W12024   8.917  30.580  14.330
39600W        W12025  17.342  27.427  11.453
39601W        W12026  43.941  14.277   3.546
39602W        W12027  41.534  25.789  14.758
39603W        W12028  32.412  36.516  13.947
39604W        W12029   4.703  40.368   0.731
39605W        W12030  37.072   4.778   4.667
39606W        W12031  26.209  15.712   2.155
39607W        W12032  36.030  25.187  12.061
39608W        W12033  10.213   7.148   0.752
39609W        W12034  15.823  26.248   3.692
39610W        W12035  22.740  36.887   3.222
39611W        W12036   8.300  14.216   4.583
39612W        W12037  31.158  39.133   0.357
39613W        W12038  41.077   3.580   3.863
39614W        W12039  15.614  13.487  13.831
39615W        W12040  42.363  43.599   3.181
39616W        W12041  20.019  38.863   2.072
39617W        W12042   8.478  28.123   4.012
39618W        W12043  26.853  13.183   4.047
39619W        W12044  42.319  19.339   2.673
39620W        W12045  38.965   5.223  10.495
39621W        W12046  13.196  32.562  14.312
39622W        W12047  44.541   3.939  11.508
39623W        W12048  20.171  17.789   2.110
39624W        W12049  34.284  28.154  11.497
39625W        W12050  39.048  27.971   1.353
39626W        W12051  26.373   1.718   3.614
39627W        W12052  16.785   5.748   3.078
39628W        W12053  33.427  18.267   3.282
39629W        W12054  20.005  36.097   5.042
39630W        W12055  36.542  16.169  14.994
39631W        W12056  26.454   1.103  14.658
39632W        W12057  43.291  26.300  10.486
39633W        W12058  15.274  24.594  12.627
39634W        W12059  19.502  20.551  14.138
39635W        W12060  33.610  32.180  11.592
39636W        W12061  14.222   2.450   3.385
39637W        W12062   3.717  42.436   3.600
39638W        W12063   8.175  11.207   1.973
39639W        W12064  30.542  41.354   5.473
39640W        W12065   4.381   3.841  12.533
39641W        W12066  27.633  25.152   2.951
39642W        W12067  26.975  21.204   3.621
39643W        W12068  23.297   0.770  10.648
39644W        W12069  13.330   6.603  14.035
39645W        W12070   5.417  13.722   3.763
39646W        W12071  27.235  12.035   2.588
39647W        W12072   6.924  35.404   4.569
39648W        W12073   7.744   5.108   4.749
39649W        W12074  27.449  27.648   3.429
39650W        W12075  13.589   4.836   1.223
39651W        W12076  12.310   8.635  12.750
39652W        W12077   0.057  32.504   3.241
39653W        W12078  15.306  40.259   2.768
39654W        W12079  24.894   9.750  11.106
39655W        W12080  18.236  44.349   1.719
39656W        W12081   0.758  38.102   4.547
39657W        W12082  37.308   3.665   1.206
39658W        W12083  17.666  23.323   2.691
39659W        W12084   9.194  33.664   1.490
39660W        W12085  34.835   5.912   2.717
39661W        W12086   7.841  39.151  12.404
39662W        W12087  13.758   8.927  14.020
39663W        W12088  26.143  38.000  11.986
39664W        W12089  24.748  12.892  13.907
39665W        W12090  22.467  17.228   4.535
39666W        W12091   0.809  16.090   3.651
39667W        W12092  13.289  22.310   0.947
39668W        W12093   8.563  16.573  13.971
39669W        W12094  41.441  28.314   0.414
39670W        W12095  25.469  29.390   1.743
39671W        W12096   4.682   0.007   0.358
39672W        W12097  24.420  36.800  13.842
39673W        W12098  29.922  28.666  13.439
39674W        W12099  32.392   6.818   0.883
39675W        W12100  42.886  28.425   1.319
39676W        W12101  35.368  39.653   3.009
39677W        W12102  39.980  24.583   2.136
39678W        W12103  12.629  34.489   3.086
39679W        W12104  11.885  22.841   4.240
39680W        W12105  19.624  16.283   3.233
39681W        W12106  14.918  21.285  12.438
39682W        W12107  28.535  25.628  13.731
39683W        W12108  24.642   1.401  12.435
39684W        W12109  33.671  40.308   2.136
39685W        W12110  44.005  20.692  10.663
39686W        W12111  37.896   3.303  14.309
39687W        W12112  14.299  12.805  12.931
39688W        W12113  23.009   4.974   2.454
39689W        W12114  33.907  27.387   0.576
39690W        W12115   0.938  39.467  14.020
39691W        W12116  20.016  43.286   2.286
39692W        W12117   0.229  26.239  12.061
39693W        W12118  32.139  40.537  10.483
39694W        W12119   5.255  30.880   1.901
39695W        W12120  35.057  18.073  14.122
39696W        W12121  20.955   1.463   0.556
39697W        W12122  43.464  39.331   3.563
39698W        W12123   1.823  16.427   3.723
39699W        W12124  28.487  39.981  12.850
39700W        W12125  42.856  39.749   1.425
39701W        W12126  21.595  13.080   1.784
39702W        W12127  29.689  28.657   1.258
39703W        W12128  26.002  42.195  11.369
39704W        W12129  36.125  15.912  13.374
39705W        W12130   7.987  30.633  10.764
39706W        W12131  21.091  12.901  10.484
39707W        W12132   1.211  33.600   0.456
39708W        W12133  23.503  29.626  10.625
39709W        W12134   7.015  38.919   2.944
39710W        W12135  21.195  33.162   3.238
39711W        W12136   0.327  16.581  14.879
39712W        W12137   4.153  10.109   1.666
39713W        W12138  29.385  28.447   0.846
39714W        W12139  17.131  13.472  10.667
39715W        W12140  25.706  31.674   3.575
39716W        W12141  19.587   9.634  14.454
39717W        W12142  15.878  31.115  13.876
39718W        W12143   7.797  23.387   0.335
39719W        W12144  18.729  14.248   2.576
39720W        W12145  21.668  41.580  12.225
39721W        W12146  16.752  41.068   2.301
39722W        W12147  36.669  16.709  13.389
39723W        W12148  17.378  26.227   3.815
39724W        W12149  34.413  14.670  11.422
39725W        W12150  38.976  35.841   4.107
39726W        W12151  18.507   3.216  14.418
39727W        W12152  20.726  12.850   1.607
39728W        W12153  38.440   6.179  14.373
39729W        W12154   1.762   8.950  14.480
39730W        W12155  28.469  42.109  14.410
39731W        W12156  35.006  20.320   0.410
39732W        W12157  15.206   4.672  14.844
39733W        W12158  41.343  10.776  11.179
39734W        W12159  22.908  10.344   4.205
39735W        W12160  26.461   5.707  11.974
39736W        W12161  16.165  39.081   3.755
39737W        W12162  16.962  11.191  11.961
39738W        W12163  36.247   7.451  11.669
39739W        W12164  28.116  17.560  12.444
39740W        W12165   5.805   7.214   1.632
39741W        W12166  17.743  24.456   2.332
39742W        W12167  38.584   6.352   1.684
39743W        W12168  22.679  12.856   0.514
39744W        W12169  28.092  32.533  11.628
39745W        W12170  10.878  22.532   1.677
39746W        W12171  18.720  20.664  10.384
39747W        W12172   1.338  44.611   4.803
39748W        W12173   3.723   9.595  12.447
39749W        W12174  16.250   4.398   3.505
39750W        W12175  33.016  24.040  10.717
39751W        W12176  28.632   9.146  11.720
39752W        W12177  33.491  32.101   2.615
39753W        W12178   1.953  35.945  10.753
39754W        W12179  39.090  41.253   4.169
39755W        W12180  44.100  21.108  11.927
39756W        W12181   5.752   9.117  14.848
39757W        W12182   0.965  22.910  11.177
39758W        W12183  16.825  22.127   1.955
39759W        W12184  27.504  36.845   0.865
39760W        W12185  21.774  43.566   2.830
39761W        W12186  12.074   4.744   1.783
39762W        W12187   7.298  25.671  11.134
39763W        W12188  20.466   8.312   4.141
39764W        W12189  15.638  24.132  10.958
39765W        W12190   9.344  44.577  13.381
39766W        W12191   2.929  12.422  11.969
39767W        W12192  27.161  22.196  13.164
39768W        W12193  25.474  43.940   0.588
39769W        W12194   2.390   1.887   3.288
39770W        W12195  42.643  29.142   2.425
39771W        W12196  13.691   2.994  12.451
39772W        W12197  17.104   7.400  12.424
39773W        W12198  33.388  18.564   5.166
39774W        W12199   7.676   6.235  13.088
39775W        W12200   6.875  11.095  14.397
39776W        W12201  41.393  10.743   0.244
39777W        W12202  26.455  28.049  11.952
39778W        W12203   5.941  20.597   3.958
39779W        W12204  32.580   4.259  13.530
39780W        W12205  19.855  33.631   2.702
39781W        W12206  16.523  20.256   1.426
39782W        W12207  39.112  25.421   3.618
39783W        W12208  21.270  18.621   1.375
39784W        W12209  34.116  23.410  13.109
39785W        W12210  19.085  38.164  11.113
39786W        W12211   9.853  20.462   0.972
39787W        W12212   2.056   4.790   1.132
39788W        W12213  20.345   0.526   1.206
39789W        W12214  23.088  32.826  10.708
39790W        W12215  36.822  26.014   0.216
39791W        W12216   0.291  43.845  11.395
39792W        W12217  17.257  42.288   1.313
39793W        W12218   5.135  32.463  14.782
39794W        W12219  16.485  35.594   2.039
39795W        W12220   6.642   4.800   4.103
39796W        W12221  18.766  26.337  12.609
39797W        W12222  35.489  18.469  13.194
39798W        W12223  20.756  25.527   4.589
39799W        W12224  34.510  12.687  11.602
39800W        W12225  21.483  17.912  14.922
39801W        W12226   8.703  40.336  11.561
39802W        W12227  29.505  12.903  14.021
39803W        W12228  43.383  33.573  11.180
39804W        W12229  35.882   3.898  13.210
39805W        W12230  32.204  16.515  11.216
39806W        W12231  20.344   1.969  11.157
39807W        W12232  11.577   1.693   9.659
39808W        W12233  31.563  39.359  11.832
39809W        W12234  25.745  41.557  12.190
39810W        W12235   6.219  14.295  11.157
39811W        W12236  38.964  34.833   0.310
39812W        W12237  38.423  21.121   1.524
39813W        W12238  39.125  19.797  12.102
39814W        W12239  22.566   6.473   3.137
39815W        W12240  17.590  34.328  14.256
39816W        W12241   2.426  40.084   0.026
39817W        W12242  19.205  28.457   4.118
39818W        W12243   6.656  43.595   1.281
39819W        W12244  22.010  39.319   0.820
39820W        W12245  33.641  31.896   3.495
39821W        W12246  39.352  17.119  13.787
39822W        W12247  33.646   3.653  10.463
39823W        W12248  13.654   7.190  13.235
39824W        W12249  44.880   0.681  11.974
39825W        W12250  19.544  36.233  12.093
39826W        W12251   9.855  25.631  13.136
39827W        W12252  11.293  36.265   1.847
39828W        W12253   1.234  23.430   2.374
39829W        W12254  33.988  43.579  13.156
39830W        W12255  20.596  23.146  14.979
39831W        W12256  29.387   7.662  11.982
39832W        W12257  20.791  11.444  12.973
39833W        W12258   8.064   1.327  13.443
39834W        W12259  34.430  13.381  14.412
39835W        W12260  35.891  12.823   2.384
39836W        W12261   0.343  33.971   0.299
39837W        W12262  39.777   3.114  12.103
39838W        W12263  33.965  24.707   0.575
39839W        W12264  18.175  31.617  11.072
39840W        W12265  33.023  34.817  13.986
39841W        W12266  20.618  20.076   4.156
39842W        W12267   9.614   0.485  13.419
39843W        W12268  19.711  34.144   2.579
39844W        W12269  44.384  44.350  11.120
39845W        W12270   9.637   2.702  11.799
39846W        W12271  22.912   3.073  10.286
39847W        W12272  23.241  21.205  12.977
39848W        W12273  11.882  18.759   4.942
39849W        W12274  40.407  33.054  14.519
39850W        W12275  19.972  31.999   2.815
39851W        W12276  26.578  29.248  12.554
39852W        W12277   6.197   9.894  11.495
39853W        W12278   2.655  41.204   2.990
39854W        W12279  41.464  12.551  10.561
39855W        W12280  23.227  17.679  11.527
39856W        W12281   0.524   2.520  13.316
39857W        W12282  22.155   3.017  12.633
39858W        W12283  25.590  21.558  10.349
39859W        W12284  25.946  24.186   2.625
39860W        W12285  11.320  18.746   2.337
39861W        W12286   6.421  44.778  13.105
39862W        W12287  16.188  19.532   3.475
39863W        W12288  30.946  22.449   3.572
39864W        W12289  23.184   7.628  13.970
39865W        W12290  13.347  39.986  12.077
39866W        W12291  40.229  34.257   0.335
39867W        W12292  11.762   3.877   1.285
39868W        W12293  40.879  23.579   2.487
39869W        W12294  21.957   9.861  10.630
39870W        W12295  25.081  32.719   1.343
39871W        W12296  36.581  23.967  13.466
39872W        W12297   3.396  41.623  12.977
39873W        W12298  39.337  30.808  13.879
39874W        W12299  36.244  37.808   1.452
39875W        W12300   3.941  24.112  14.067
39876W        W12301  34.121  25.094  13.356
39877W        W12302   8.562  20.980  13.898
39878W        W12303  25.029  29.471   0.998
39879W        W12304  16.024  30.997  12.532
39880W        W12305   5.751  43.870   3.176
39881W        W12306  28.002   4.243  14.701
39882W        W12307  30.462  12.712   4.608
39883W        W12308  21.809  16.089   0.306
39884W        W12309  30.024  39.536   0.986
39885W        W12310  36.518  24.959  12.124
39886W        W12311  38.943  10.125  14.870
39887W        W12312   2.944  12.223  14.830
39888W        W12313   0.322  41.608  11.981
39889W        W12314  42.893  32.020  10.662
39890W        W12315  15.846  11.315  14.000
39891W        W12316  23.970   2.738  14.145
39892W        W12317  39.246  29.843   2.811
39893W        W12318   9.978  33.906   1.472
39894W        W12319  34.849  42.256   3.735
39895W        W12320  20.586  11.109  10.498
39896W        W12321  13.761  18.443  11.332
39897W        W12322  25.020  15.214  14.911
39898W        W12323  14.987  31.204   2.242
39899W        W12324   3.909  24.085   3.740
39900W        W12325  31.216  20.986   4.300
39901W        W12326  19.019  19.860  14.553
39902W        W12327  39.895  28.237   3.788
39903W        W12328  35.006   0.549  14.319
39904W        W12329  21.021  31.367  10.809
39905W        W12330  36.289  40.845  14.357
39906W        W12331  32.757  23.520  11.516
39907W        W12332  36.385  22.430   4.606
39908W        W12333  26.993  17.432  11.227
39909W        W12334  23.516   2.899   1.216
39910W        W12335  11.634  13.490   3.709
39911W        W12336  39.094  32.591   0.925
39912W        W12337   7.182  26.741   0.860
39913W        W12338  29.672  41.925  11.249
39914W        W12339  10.732  15.109   1.234
39915W        W12340   2.741  23.740   2.131
39916W        W12341  28.502  32.420  13.403
39917W        W12342  40.777  25.967  11.252
39918W        W12343  34.989  26.960   2.240
39919W        W12344  34.859  38.571  11.448
39920W        W12345   8.735  29.137  11.513
39921W        W12346  32.925   0.745   2.255
39922W        W12347  31.560  34.075  10.422
39923W        W12348  36.811  12.792  11.611
39924W        W12349   9.483  17.809  12.108
39925W        W12350  35.419  27.078   3.401
39926W        W12351  24.451  13.169   3.692
39927W        W12352   7.691  30.043  14.453
39928W        W12353  32.011   0.296   2.227
39929W        W12354   9.258  29.834   0.676
39930W        W12355   1.936  35.347  11.051
39931W        W12356  12.244  33.893  11.145
39932W        W12357  42.597   7.388  11.912
39933W        W12358  30.990  18.592   1.293
39934W        W12359  11.925  32.352  14.008
39935W        W12360   0.794  37.582  13.073
39936W        W12361   0.327  15.797  12.920
39937W        W12362  30.611   0.419   1.239
39938W        W12363  44.837  18.079   1.005
39939W        W12364   8.698  39.346   3.918
39940W        W12365  35.010   5.975  11.560
39941W        W12366  27.183  29.885  11.032
39942W        W12367  11.358  18.284   0.150
39943W        W12368  24.722  30.406  11.684
39944W        W12369   1.450  35.950  10.889
39945W        W12370  30.343  39.503   5.065
39946W        W12371   4.515  29.824   2.885
39947W        W12372  31.324  28.607   0.697
39948W        W12373  23.625  23.661  14.752
39949W        W12374   4.331  34.469  10.647
39950W        W12375   0.301  36.338   2.823
39951W        W12376  18.061  37.908   2.282
39952W        W12377   4.280  19.207  11.882
39953W        W12378  22.244  33.833  11.838
39954W        W12379  39.252  40.690  14.943
39955W        W12380  36.013  35.613   2.801
39956W        W12381  17.090  12.547   2.226
39957W        W12382   2.452  16.255  10.558
39958W        W12383  29.603   9.892  10.703
39959W        W12384  32.046  10.895  12.576
39960W        W12385   6.561  44.264  11.462
39961W        W12386  36.986  12.048  11.389
39962W        W12387   5.625  29.969   1.657
39963W        W12388   6.064  13.614   0.137
39964W        W12389  21.679  32.632   3.675
39965W        W12390  27.595  30.734   2.726
39966W        W12391  30.074  10.819  12.518
39967W        W12392  33.871  37.825   0.744
39968W        W12393  41.486  42.264  10.783
39969W        W12394  37.599  34.318   1.210
39970W        W12395  26.752  41.887  14.427
39971W        W12396  43.031   7.660   1.875
39972W        W12397  23.827  40.190   0.936
39973W        W12398  36.818  23.511  13.362
39974W        W12399  13.203  19.622  13.504
39975W        W12400  42.805  42.496   4.605
39976W        W12401  23.018  15.738   1.694
39977W        W12402  44.341  40.362   3.553
39978W        W12403   0.048  22.597   1.338
39979W        W12404  39.159   6.450   2.827
39980W        W12405  25.642  17.419   3.707
39981W        W12406  38.774  20.414  13.102
39982W        W12407  38.418  23.085   4.307
39983W        W12408   1.886  33.625  10.503
39984W        W12409  20.732   3.946  13.142
39985W        W12410  29.780  30.504  13.933
39986W        W12411  29.174  43.821  13.624
39987W        W12412  42.070   6.598  14.853
39988W        W12413  15.238  11.422  13.380
39989W        W12414  27.065  32.408   2.141
39990W        W12415  20.008   3.447   2.816
39991W        W12416  13.902  11.867  10.610
39992W        W12417  25.418  14.870   2.760
39993W        W12418   2.444  12.288  12.190
39994W        W12419  32.365   5.441  12.890
39995W        W12420  22.525  14.123  10.795
39996W        W12421  17.735  27.871  11.170
39997W        W12422  30.848  20.194  10.798
39998W        W12423  15.758  23.213  14.313
39999W        W12424   5.848  17.482  13.346
40000W        W12425  16.742   0.243   2.163
40001W        W12426  25.613  14.382   2.773
40002W        W12427  42.442  19.346  12.581
40003W        W12428  44.550   2.310   0.888
40004W        W12429  15.914  19.214  12.139
40005W        W12430  17.531  34.055   0.094
40006W        W12431   1.587   4.492  13.455
40007W        W12432  44.597  36.751  14.398
40008W        W12433  43.382   1.173  11.995
40009W        W12434  21.051  19.662   3.122
40010W        W12435  40.428  24.425   2.325
40011W        W12436  18.235  28.496  11.181
40012W        W12437  24.152  35.500  12.649
40013W        W12438  30.512  32.606  15.000
40014W        W12439  28.962   7.885  11.488
40015W        W12440  28.582   6.902   0.774
40016W        W12441  28.621  19.120   3.361
40017W        W12442  10.703   9.229  12.846
40018W        W12443  12.800  18.541   2.472
40019W        W12444   1.716  24.531   3.327
40020W        W12445   3.573  25.571   4.529
40021W        W12446  21.297  16.139   2.032
40022W        W12447  15.479  25.932  10.950
40023W        W12448  30.550  31.129   4.194
40024W        W12449  28.125  29.964  11.965
40025W        W12450  11.289  15.088   2.721
40026W        W12451  24.113   4.499  10.166
40027W        W12452  30.001  15.168  13.421
40028W        W12453  14.588  35.955   3.682
40029W        W12454  39.029  40.833  12.141
40030W        W12455   3.312  10.458  10.735
40031W        W12456  34.112   5.493  10.628
40032W        W12457  41.456  39.409  13.346
40033W        W12458  43.779  13.253  14.965
40034W        W12459   1.324   2.943   4.214
40035W        W12460  28.853  41.899   5.064
40036W        W12461   4.708   1.567   1.850
40037W        W12462  30.187  16.306   3.672
40038W        W12463  15.146  24.441  11.088
40039W        W12464   3.521  13.262   4.497
40040W        W12465  40.784  23.514  10.025
40041W        W12466  14.591  19.514   3.124
40042W        W12467  40.462  31.591   4.421
40043W        W12468  25.744  28.843  11.187
40044W        W12469  30.654  38.405  14.765
40045W        W12470  43.353   8.935   2.396
40046W        W12471  26.573  35.246   0.546
40047W        W12472   2.201  33.571  11.200
40048W        W12473   5.733  27.145  14.023
40049W        W12474  24.655  33.040   3.339
40050W        W12475   8.272  30.085   1.287
40051W        W12476  16.285  19.107   0.826
40052W        W12477  18.078  42.014   1.655
40053W        W12478  28.403   8.197  14.378
40054W        W12479  14.068  13.407  11.515
40055W        W12480  15.569  19.966  11.031
40056W        W12481  42.870   9.674   4.636
40057W        W12482   1.890  28.430  14.393
40058W        W12483  30.426  26.900  14.807
40059W        W12484  34.224   6.888  11.212
40060W        W12485  16.157  36.954  11.368
40061W        W12486  42.000  38.388   2.372
40062W        W12487  31.531  42.126  11.115
40063W        W12488  43.390   7.273   3.091
40064W        W12489  11.400  24.653   3.176
40065W        W12490  42.931  19.800   3.237
40066W        W12491  40.140  25.084  11.930
40067W        W12492  22.249  11.075  11.073
40068W        W12493  26.977  13.646  14.108
40069W        W12494  43.715  43.499  12.104
40070W        W12495   8.323  18.631  10.772
40071W        W12496  27.922   5.448  12.690
40072W        W12497  42.292   0.244  14.347
40073W        W12498  38.214  30.418   0.172
40074W        W12499  30.920   3.990  11.908
40075W        W12500  43.007  13.367  10.663
40076W        W12501  20.309  10.582   0.734
40077W        W12502   8.943   2.860  14.957
40078W        W12503  21.660  16.403   4.195
40079W        W12504  19.543  22.761   2.720
40080W        W12505  29.537   3.730   0.452
40081W        W12506  26.538  15.744   5.058
40082W        W12507  33.556  28.251   1.749
40083W        W12508  20.935  15.175   0.384
40084W        W12509  11.085  20.719  11.975
40085W        W12510  13.958  20.818  12.428
40086W        W12511   3.943   1.625   3.174
40087W        W12512  25.258  33.643   2.612
40088W        W12513   6.388  12.674  13.225
40089W        W12514  40.789  17.662  11.739
40090W        W12515  42.295  30.394  13.784
40091W        W12516  37.054   8.759   1.556
40092W        W12517  25.776  39.318   4.453
40093W        W12518  32.443   3.815   0.778
40094W        W12519  42.092  11.883   4.339
40095W        W12520  18.143  39.745  11.870
40096W        W12521  44.504  11.291   2.735
40097W        W12522   4.346  31.984   2.190
40098W        W12523  26.098  36.874   3.815
40099W        W12524  42.994  34.041   2.772
40100W        W12525  16.588   3.397  12.095
40101W        W12526   2.125  25.561   2.841
40102W        W12527   1.763  35.504   2.605
40103W        W12528   3.802  15.641  11.563
40104W        W12529  34.839   6.876  13.801
40105W        W12530  42.385  41.002  12.368
40106W        W12531  44.388  40.036  10.655
40107W        W12532  25.626   0.155   4.366
40108W        W12533  14.587   0.863  13.766
40109W        W12534  19.627  21.074  14.772
40110W        W12535   0.876  26.070   2.728
40111W        W12536  14.628  34.343  14.308
40112W        W12537  23.472  21.336  14.801
40113W        W12538  10.965   1.263   2.269
40114W        W12539  26.608  39.905   4.656
40115W        W12540  34.098  17.250  11.632
40116W        W12541  11.468   8.419  14.500
40117W        W12542   7.422  20.828  12.425
40118W        W12543  32.174   4.888   0.409
40119W        W12544  29.881  40.323  11.982
40120W        W12545  17.556  32.259   3.320
40121W        W12546  36.605  12.767   1.919
40122W        W12547  28.577  24.181   2.952
40123W        W12548   0.376  32.528   2.229
40124W        W12549  14.684  29.203  11.473
40125W        W12550  27.619  24.452  11.618
40126W        W12551   9.408   4.815   3.838
40127W        W12552  39.909  32.442   3.317
40128W        W12553  37.398  19.028   3.110
40129W        W12554  40.346  12.751   2.302
40130W        W12555  15.229   1.968   3.608
40131W        W12556  37.453  27.456  14.076
40132W        W12557  10.127  20.264  13.125
40133W        W12558  10.714  43.989  13.542
40134W        W12559  16.702  28.706  11.714
40135W        W12560   5.568  34.593  12.169
40136W        W12561  44.757  43.065  13.897
40137W        W12562  21.717  43.562   1.018
40138W        W12563  13.902  34.916   3.645
40139W        W12564  22.005   4.298   4.525
40140W        W12565  25.012  11.153   2.401
40141W        W12566  19.722  25.346  12.941
40142W        W12567  36.424  20.970   4.813
40143W        W12568  19.533   1.322   1.876
40144W        W12569  33.457  35.850   2.298
40145W        W12570  13.887   2.839  11.140
40146W        W12571  19.142  35.160   3.276
40147W        W12572  34.455  38.310   1.800
40148W        W12573  21.942   3.445  11.068
40149W        W12574  33.577  31.666   0.265
40150W        W12575   7.793  41.386   3.802
40151W        W12576  43.451  39.906  10.584
40152W        W12577  17.340  26.410   4.819
40153W        W12578  11.740  19.005  13.114
40154W        W12579  43.985  36.839  10.843
40155W        W12580  43.310  30.612  10.631
40156W        W12581   3.317  27.414  12.943
40157W        W12582  29.973  17.255  11.979
40158W        W12583   0.432   5.946  11.137
40159W        W12584  34.147  33.999   3.134
40160W        W12585  20.789  33.848   4.915
40161W        W12586  15.252  17.592   3.564
40162W        W12587   8.205  10.407   3.414
40163W        W12588  33.847  17.773  12.976
40164W        W12589   2.784  23.729   0.554
40165W        W12590  20.678  19.504   2.421
40166W        W12591   7.277   0.339   2.688
40167W        W12592  27.404  32.059  11.857
40168W        W12593  17.614  41.264   2.269
40169W        W12594  15.811  21.435  13.488
40170W        W12595  26.689  33.239   1.293
40171W        W12596  38.841  19.170  13.925
40172W        W12597  14.679  23.618   2.621
40173W        W12598  42.997  37.313   1.805
40174W        W12599  43.223  43.461   3.906
40175W        W12600  33.614   6.657   1.907
40176W        W12601   3.283  32.432  14.894
40177W        W12602  42.449  33.081   3.501
40178W        W12603   2.227   0.922   4.541
40179W        W12604  26.637  40.463   4.583
40180W        W12605  10.967  33.103   0.197
40181W        W12606  14.325  24.027  13.371
40182W        W12607  15.339  30.495  10.803
40183W        W12608  17.120  43.548   2.687
40184W        W12609  12.543  36.305  14.987
40185W        W12610  32.411  22.360  14.972
40186W        W12611  41.967  33.076  10.714
40187W        W12612  36.473  36.421   3.638
40188W        W12613   7.147  35.623  14.926
40189W        W12614  32.796   1.194  12.662
40190W        W12615   6.365  15.373   4.562
40191W        W12616  36.334  26.067   4.626
40192W        W12617  38.549  28.967   4.934
40193W        W12618  29.548  21.976  10.649
40194W        W12619  30.970  21.143  11.680
40195W        W12620  42.718  16.906   2.619
40196W        W12621  10.916   8.752   3.671
40197W        W12622   2.980  35.879   3.143
40198W        W12623   1.760  44.378   3.128
40199W        W12624  39.474   2.189  11.207
40200W        W12625  15.842  29.292  10.671
40201W        W12626  38.956  35.861   0.395
40202W        W12627  29.538  26.104  12.336
40203W        W12628  35.612  17.830   3.145
40204W        W12629  31.516   3.725  14.272
40205W        W12630  11.087  10.555   0.021
40206W        W12631  11.210  41.899  14.355
40207W        W12632  40.630   8.952   3.662
40208W        W12633  14.899  34.487   3.267
40209W        W12634  20.362  13.733  11.954
40210W        W12635  37.785  23.553   1.436
40211W        W12636  31.859  14.939  12.978
40212W        W12637  25.090  35.521   3.607
40213W        W12638  11.329  10.232  13.774
40214W        W12639  10.232  43.111  11.984
40215W        W12640  18.557  29.175   0.801
40216W        W12641  21.694  20.599  11.919
40217W        W12642  41.597   3.312  10.200
40218W        W12643  12.806  37.341   4.073
40219W        W12644   7.195  33.727  14.282
40220W        W12645  41.359  37.095  13.897
40221W        W12646  40.899  19.357  11.030
40222W        W12647  34.134  38.289   4.057
40223W        W12648   8.158  40.046  10.895
40224W        W12649  31.816  44.944   4.204
40225W        W12650  22.264  29.588  14.886
40226W        W12651  17.574  22.851   2.883
40227W        W12652  36.869  13.083  10.558
40228W        W12653  31.991  20.680  13.114
40229W        W12654  44.706  17.340   1.463
40230W        W12655   9.239  40.913   5.034
40231W        W12656  32.849  21.500   3.202
40232W        W12657  38.073   5.518  13.286
40233W        W12658  43.686  29.537  11.518
40234W        W12659  38.452  44.062  12.023
40235W        W12660  29.037  31.316  12.963
40236W        W12661  39.085  34.343   1.832
40237W        W12662  20.485  25.682  11.567
40238W        W12663   8.749  17.701  11.109
40239W        W12664  35.104  24.912  10.947
40240W        W12665   5.391  31.550  12.939
40241W        W12666  17.378  14.205   2.306
40242W        W12667   0.483  14.686   0.915
40243W        W12668   8.634  37.832   0.369
40244W        W12669  37.110  16.048  13.162
40245W        W12670   1.493   1.303  13.170
40246W        W12671  39.569  12.021   4.598
40247W        W12672   8.755   2.741  14.474
40248W        W12673  28.919  25.679   3.838
40249W        W12674  12.610  38.795  14.780
40250W        W12675  38.948  10.837  10.669
40251W        W12676  34.060  42.370   2.094
40252W        W12677  14.261   5.200   2.814
40253W        W12678  14.096  14.549  12.077
40254W        W12679   4.232  24.736   1.844
40255W        W12680  42.772  43.460   4.191
40256W        W12681  21.622  13.879   1.937
40257W        W12682  10.347   0.983  13.629
40258W        W12683  19.796  35.773   0.860
40259W        W12684  41.426  34.964   1.473
40260W        W12685  44.440  43.508  11.668
40261W        W12686  38.106  31.396   0.004
40262W        W12687  43.891  29.076   3.749
40263W        W12688   2.843  19.096   3.128
40264W        W12689  17.218   1.094   1.404
40265W        W12690  39.183  32.136  11.833
40266W        W12691  24.783  11.101   0.898
40267W        W12692  36.140  11.516  11.137
40268W        W12693  42.435  12.168   0.494
40269W        W12694  37.821  13.858   0.781
40270W        W12695  26.050  12.598   4.415
40271W        W12696   6.452  27.022   1.800
40272W        W12697  32.531   0.382   0.878
40273W        W12698  43.288  12.784   2.792
40274W        W12699  39.933  31.024   3.894
40275W        W12700  40.338  33.376   0.027
40276W        W12701  30.572  37.131   0.184
40277W        W12702   2.815  12.974   3.629
40278W        W12703  10.171   1.227  14.741
40279W        W12704   9.614   4.165  12.431
40280W        W12705  20.249   5.309   2.904
40281W        W12706  40.708  21.202  12.881
40282W        W12707   1.458  40.878   4.504
40283W        W12708   8.179  26.091  12.923
40284W        W12709  24.694  22.018   2.389
40285W        W12710  13.617  21.942  13.912
40286W        W12711  15.321  19.732  12.190
40287W        W12712  43.592  33.701   5.261
40288W        W12713  12.102  19.790  11.591
40289W        W12714  26.920  27.128   2.475
40290W        W12715  20.710  21.153  11.144
40291W        W12716  37.889   1.969  11.602
40292W        W12717  29.954  26.152  13.545
40293W        W12718   6.508  35.361  14.196
40294W        W12719  20.820   5.512   2.739
40295W        W12720   2.739  15.936  11.943
40296W        W12721   0.733  39.881   1.337
40297W        W12722  18.255  43.528   1.926
40298W        W12723  32.439  44.397   4.530
40299W        W12724  13.081  28.172  14.349
40300W        W12725  25.098  43.829  13.390
40301W        W12726   3.879   8.933   3.295
40302W        W12727  15.764  41.489  12.504
40303W        W12728  23.529  22.633  12.405
40304W        W12729  37.473  41.062  12.587
40305W        W12730   5.691  38.927   0.040
40306W        W12731  39.541  26.785   4.042
40307W        W12732  33.806   5.407  10.209
40308W        W12733  30.311   7.459  12.077
40309W        W12734  21.604  23.758  11.749
40310W        W12735  29.880  38.871  12.503
40311W        W12736  26.515  30.464  13.435
40312W        W12737  29.833  32.445  11.063
40313W        W12738  19.269  33.159  14.568
40314W        W12739  30.352  21.683  14.169
40315W        W12740  43.899  14.030   1.970
40316W        W12741  29.174   7.166   4.171
40317W        W12742   8.333  30.562  13.155
40318W        W12743  33.107  16.246  11.200
40319W        W12744  37.060  18.892  10.577
40320W        W12745  39.547  24.296  11.090
40321W        W12746  33.131  43.015   1.473
40322W        W12747   3.336  21.341  14.057
40323W        W12748   6.416  21.798  10.277
40324W        W12749  17.300  13.309  14.344
40325W        W12750  36.817  14.054  11.513
40326W        W12751  22.469   4.887  11.344
40327W        W12752  27.172  26.645  13.953
40328W        W12753  31.718  21.228   1.635
40329W        W12754  16.327  19.231   2.210
40330W        W12755  25.335  42.838   5.178
40331W        W12756  34.456   5.239   4.831
40332W        W12757  28.983  44.783   3.787
40333W        W12758  18.592   1.250   1.742
40334W        W12759  37.445  24.233  11.529
40335W        W12760  16.489  17.575   1.008
40336W        W12761  31.125  36.572   2.286
40337W        W12762   9.674  18.595   0.040
40338W        W12763  35.854  20.746   3.166
40339W        W12764   3.884  36.625   2.735
40340W        W12765  34.584  41.742   1.689
40341W        W12766  38.887   4.754   1.213
40342W        W12767   9.692  31.155  14.467
40343W        W12768  15.328  25.694  13.798
40344W        W12769  32.173   8.807  14.382
40345W        W12770  12.412  18.656  13.955
40346W        W12771  19.353  41.661  13.723
40347W        W12772  42.623   1.327  11.502
40348W        W12773  33.492   9.481   5.149
40349W        W12774  18.079  31.057   2.360
40350W        W12775  12.582  28.960   1.788
40351W        W12776  25.231  43.858  14.228
40352W        W12777   6.041  23.398   1.453
40353W        W12778  10.631   3.338   2.594
40354W        W12779  43.271  14.244  11.129
40355W        W12780   7.111  14.823  11.108
40356W        W12781  40.631  18.574   3.731
40357W        W12782  12.557  19.696   3.135
40358W        W12783  30.982  11.313   4.057
40359W        W12784   1.837  38.351   1.046
40360W        W12785  35.413  32.158   1.250
40361W        W12786  24.008  42.538   4.687
40362W        W12787  14.307  43.316  11.938
40363W        W12788  26.204   3.182   1.166
40364W        W12789  34.677  31.092   1.849
40365W        W12790  13.640   8.672   4.532
40366W        W12791  36.673  28.189   4.927
40367W        W12792  18.765   7.559   0.726
40368W        W12793  38.942  29.891  13.646
40369W        W12794  11.759  34.657   2.650
40370W        W12795  16.774  41.301  14.446
40371W        W12796   1.169   0.347   4.144
40372W        W12797  42.747  31.153   2.814
40373W        W12798  23.184  21.531   1.646
40374W        W12799  11.935  36.400  12.673
40375W        W12800   9.862  13.290  14.590
40376W        W12801   2.203   3.452   4.156
40377W        W12802   5.649  41.839  11.151
40378W        W12803  35.476  34.451   3.390
40379W        W12804  44.296   5.177  13.373
40380W        W12805  10.848  24.871   2.314
40381W        W12806   6.791  17.582  11.137
40382W        W12807  15.483  12.782   2.660
40383W        W12808  36.443  19.950  12.899
40384W        W12809  20.249   9.702   0.904
40385W        W12810  25.672   8.733   0.388
40386W        W12811   1.847   2.295   1.747
40387W        W12812   4.428  27.514  13.419
40388W        W12813   5.429  22.986   2.281
40389W        W12814  36.812  43.786   1.917
40390W        W12815  14.325  33.573  12.394
40391W        W12816  29.545   3.944   0.968
40392W        W12817  21.591  23.703   4.650
40393W        W12818  15.810  13.380   2.873
40394W        W12819   9.609  33.517   3.861
40395W        W12820   8.272  17.820  13.997
40396W        W12821  37.072  42.586  11.126
40397W        W12822  41.816  41.758   3.361
40398W        W12823  43.593  18.536   2.961
40399W        W12824  14.958  24.002  10.194
40400W        W12825  31.037  26.540  11.293
40401W        W12826  31.852  16.476  14.131
40402W        W12827   8.145  23.000   3.626
40403W        W12828  19.681  35.305  14.936
40404W        W12829  15.893  26.975  11.523
40405W        W12830  42.309  15.080   4.486
40406W        W12831  26.865   3.625  14.441
40407W        W12832   3.443  25.255  12.569
40408W        W12833   2.927   1.924   2.422
40409W        W12834  25.520  20.037   1.375
40410W        W12835  36.545  24.426  12.102
40411W        W12836  26.473  26.403  11.523
40412W        W12837  19.181   4.766  13.400
40413W        W12838  28.169  38.418  10.609
40414W        W12839  11.162   8.286   1.416
40415W        W12840   6.425  28.927  12.055
40416W        W12841   4.605  14.814  11.557
40417W        W12842  33.146  38.742   1.590
40418W        W12843  44.579  15.613   3.326
40419W        W12844  39.292  40.841   0.819
40420W        W12845  32.105  42.219  11.199
40421W        W12846  26.657   0.771   1.349
40422W        W12847  41.887  26.658  14.001
40423W        W12848  43.752  36.540  11.666
40424W        W12849  22.359  31.622  10.577
40425W        W12850   2.079  35.334  11.541
40426W        W12851   3.918  38.020   1.337
40427W        W12852  19.721  35.451  12.727
40428W        W12853  37.856   9.223  10.544
40429W        W12854   1.479  39.512  14.044
40430W        W12855  12.828  31.899  14.713
40431W        W12856   6.297  41.980  12.511
40432W        W12857  24.808  42.468   2.307
40433W        W12858   3.247  43.415   0.749
40434W        W12859  43.210  29.028  14.316
40435W        W12860  13.625  28.401   0.180
40436W        W12861  44.223  40.523   4.580
40437W        W12862  42.431  21.147  13.360
40438W        W12863   8.122   2.387   0.447
40439W        W12864   4.881  27.499  14.379
40440W        W12865   3.211  25.958  11.837
40441W        W12866  12.129   5.591   1.269
40442W        W12867  41.014   3.908  10.733
40443W        W12868  43.022   1.040  12.400
40444W        W12869  26.179  42.267  13.062
40445W        W12870   1.733   8.141   2.153
40446W        W12871  26.007   5.773   1.289
40447W        W12872  16.651  18.146  14.371
40448W        W12873  15.302  43.226  10.720
40449W        W12874   9.728   1.247   0.517
40450W        W12875  23.549  14.840  14.689
40451W        W12876  25.352  28.080   1.847
40452W        W12877  41.928  16.269   2.205
40453W        W12878   1.775  39.593   2.217
40454W        W12879  35.028   0.791   2.727
40455W        W12880   8.754   9.825   2.970
40456W        W12881  25.562  39.777   4.613
40457W        W12882   3.493  28.947  14.833
40458W        W12883  41.098  34.470   4.651
40459W        W12884  19.811  16.089  14.581
40460W        W12885  12.082   5.690   0.758
40461W        W12886  40.364  15.038   0.591
40462W        W12887  21.042  14.750   2.148
40463W        W12888  32.368  33.379  12.926
40464W        W12889  28.671   7.521  13.581
40465W        W12890  33.361   9.438   1.732
40466W        W12891   2.292  14.789  11.529
40467W        W12892  17.356   9.079  14.442
40468W        W12893   4.461  27.169   0.868
40469W        W12894  44.475  12.836  11.951
40470W        W12895  32.223  14.878   3.239
40471W        W12896   4.818  15.055   4.292
40472W        W12897  29.625  17.659  14.703
40473W        W12898   5.242  13.688  13.474
40474W        W12899  16.174  43.747   4.106
40475W        W12900  42.068   3.414  12.493
40476W        W12901  18.203   0.244  10.503
40477W        W12902  17.013  26.414  11.072
40478W        W12903   4.774  10.231   1.874
40479W        W12904  23.061  27.931  13.841
40480W        W12905  31.025  16.510   3.173
40481W        W12906   8.761  39.394   0.321
40482W        W12907  31.893  10.514  11.214
40483W        W12908  35.559  43.318  13.399
40484W        W12909   9.171  24.689  12.511
40485W        W12910  39.241  30.330  11.558
40486W        W12911   5.712   4.255   1.785
40487W        W12912  42.879  17.238  12.101
40488W        W12913  41.242  15.868   3.642
40489W        W12914   9.884  33.984   1.962
40490W        W12915   7.833   3.757  12.889
40491W        W12916  11.896  18.544  13.947
40492W        W12917  40.124  40.811   1.341
40493W        W12918  36.819   6.228  13.446
40494W        W12919  34.170  11.129   4.120
40495W        W12920  42.434  31.840  14.272
40496W        W12921  41.732   3.932  14.689
40497W        W12922   6.011  16.521  11.100
40498W        W12923  40.950   6.825   0.923
40499W        W12924  21.597   9.691  10.217
40500W        W12925  38.826  33.390   1.456
40501W        W12926   4.912   9.999  14.482
40502W        W12927  36.331  22.946   1.265
40503W        W12928  13.941  39.079   0.285
40504W        W12929  41.845  20.388  12.019
40505W        W12930   5.933   9.381   1.635
40506W        W12931  39.510  35.439   3.643
40507W        W12932  21.784  10.872  14.451
40508W        W12933  14.709  31.845   3.162
40509W        W12934  43.400  29.088   4.616
40510W        W12935  17.829  37.103   1.832
40511W        W12936  34.622  23.053  14.370
40512W        W12937  29.921  37.610   0.327
40513W        W12938  38.686  31.362   0.177
40514W        W12939   5.422  32.892  11.137
40515W        W12940  23.645  24.306   1.493
40516W        W12941   8.916  24.950   2.192
40517W        W12942  26.665   9.174   4.513
40518W        W12943  42.187  42.803   2.711
40519W        W12944  17.351  35.794  10.443
40520W        W12945  31.420   2.721  14.726
40521W        W12946  12.081  21.237   0.308
40522W        W12947  13.867  34.006  10.463
40523W        W12948  11.091   2.190   0.895
40524W        W12949   8.136  32.016  13.443
40525W        W12950   1.861  26.968  12.035
40526W        W12951  33.365  15.513  13.425
40527W        W12952  36.409  40.406   2.776
40528W        W12953  21.572  31.421   4.570
40529W        W12954  17.727  29.386  14.305
40530W        W12955  31.190  13.085  13.369
40531W        W12956  17.189  36.029  12.632
40532W        W12957  27.342  15.785   3.695
40533W        W12958  42.600  19.587   4.477
40534W        W12959  21.094   9.623  10.349
40535W        W12960  39.912  25.108  12.869
40536W        W12961  24.456  26.026   3.405
40537W        W12962  40.845  17.384  10.763
40538W        W12963  14.743  23.813  10.874
40539W        W12964  10.327  38.623  10.874
40540W        W12965  30.354  40.066  11.585
40541W        W12966   5.256  20.971   4.006
40542W        W12967  33.567  42.563   5.024
40543W        W12968  42.384  22.486  12.417
40544W        W12969  18.462  27.006  12.213
40545W        W12970  38.004  24.699  10.735
40546W        W12971  16.342  28.930  11.243
40547W        W12972   2.949  41.590   0.018
40548W        W12973   6.022  39.570   1.171
40549W        W12974  42.872  33.967  12.531
40550W        W12975  18.546  34.128   1.090
40551W        W12976   7.932  38.023   1.040
40552W        W12977  38.291  24.301  12.809
40553W        W12978   6.844  15.653   3.751
40554W        W12979  11.794  34.061   1.947
40555W        W12980  43.682  41.961   3.194
40556W        W12981  40.436  17.982   0.474
40557W        W12982  12.380   9.348  11.116
40558W        W12983  22.553  13.440   0.747
40559W        W12984  32.818  25.978   1.823
40560W        W12985  24.511  22.273  14.037
40561W        W12986  43.429  38.288   2.409
40562W        W12987  25.657  18.915   3.711
40563W        W12988  13.509  34.646   3.402
40564W        W12989   6.831  13.173  14.512
40565W        W12990  41.488  13.161   0.305
40566W        W12991   1.513  42.304  14.387
40567W        W12992  25.014   8.099  11.586
40568W        W12993  21.054  28.810  10.675
40569W        W12994  31.780  17.604  14.366
40570W        W12995   9.414  44.473  11.397
40571W        W12996  16.141  42.001   3.194
40572W        W12997  43.881  12.490   3.803
40573W        W12998  17.289  38.425   1.397
40574W        W12999   2.293   0.441   0.471
40575W        W13000  33.624  44.232  11.666
40576W        W13001  21.065   2.280  11.116
40577W        W13002  11.216  18.249   3.735
40578W        W13003  40.011   0.819  11.067
40579W        W13004  13.141  18.220   5.005
40580W        W13005  14.827  42.574   0.291
40581W        W13006   1.822  35.822  11.221
40582W        W13007  14.570  40.871  11.460
40583W        W13008   2.968  37.024  13.039
40584W        W13009  26.969  17.748   4.583
40585W        W13010  29.856  29.020   1.610
40586W        W13011  11.758   9.333  14.093
40587W        W13012   4.977  10.133  10.312
40588W        W13013  15.124  35.412  13.583
40589W        W13014  30.393  15.206   4.532
40590W        W13015  39.985   7.045   4.894
40591W        W13016  38.808  44.345   0.886
40592W        W13017  26.731  36.476  12.884
40593W        W13018   3.025   8.820   0.245
40594W        W13019  38.979  12.405  13.363
40595W        W13020   5.971  16.041   1.458
40596W        W13021  18.506  17.702   1.380
40597W        W13022  14.012  37.359  11.195
40598W        W13023  42.370  17.327  12.633
40599W        W13024   6.609  27.328  11.099
40600W        W13025   3.976  20.990  14.220
40601W        W13026   8.610  30.450   2.443
40602W        W13027  38.943  28.093   3.831
40603W        W13028  36.066  25.517  13.428
40604W        W13029   7.551  30.833   3.449
40605W        W13030  28.551  33.057  12.825
40606W        W13031  22.991  33.148  13.962
40607W        W13032  23.637  24.559  11.261
40608W        W13033  38.987   1.998   0.516
40609W        W13034  22.242   3.950   0.622
40610W        W13035  31.688  12.849  12.055
40611W        W13036  17.359  35.092  13.931
40612W        W13037  31.058  12.407  14.910
40613W        W13038  12.631  38.571  11.152
40614W        W13039  23.230  24.533   3.580
40615W        W13040  27.168  38.820  11.201
40616W        W13041  25.084   4.780  13.464
40617W        W13042  17.469  43.423   3.169
40618W        W13043  20.806  12.369   1.860
40619W        W13044  10.356  32.070   1.667
40620W        W13045  10.395  30.952  12.622
40621W        W13046  32.430  14.640   4.254
40622W        W13047   6.821  36.388  11.799
40623W        W13048  32.457  39.318  14.308
40624W        W13049  41.994  21.251  13.089
40625W        W13050  10.717  13.881  13.862
40626W        W13051  13.240   5.347  12.415
40627W        W13052   2.917  24.919  14.768
40628W        W13053  11.432  31.559   2.433
40629W        W13054  39.539   1.418  12.570
40630W        W13055   4.625  21.872   4.074
40631W        W13056  31.071  19.097   1.313
40632W        W13057  43.038  16.664   2.952
40633W        W13058   6.346  26.237   0.773
40634W        W13059  30.927  17.596  13.937
40635W        W13060  22.429  10.164  13.469
40636W        W13061  17.776  43.475   1.710
40637W        W13062  42.808  22.862  13.864
40638W        W13063   4.081  30.493  12.496
40639W        W13064   3.482  28.006  13.366
40640W        W13065   0.292  32.458   5.027
40641W        W13066  27.021  18.257   3.704
40642W        W13067  11.589  34.396   0.805
40643W        W13068  23.843  15.795   4.675
40644W        W13069   8.076  20.714  10.371
40645W        W13070  11.923  22.375   4.041
40646W        W13071  38.812  27.946  11.614
40647W        W13072  23.210  44.279  12.714
40648W        W13073   2.731   2.647   1.658
40649W        W13074  34.890  24.569   0.448
40650W        W13075  40.585   6.644  14.047
40651W        W13076  33.078   2.122   2.933
40652W        W13077  12.829  13.861   1.599
40653W        W13078  25.308   0.016  11.495
40654W        W13079   7.823  43.102   2.268
40655W        W13080  43.431  23.287   0.979
40656W        W13081  29.969  20.267  12.175
40657W        W13082   4.700  37.958  13.940
40658W        W13083  38.859  37.580   4.195
40659W        W13084   6.494  35.907  13.348
40660W        W13085  19.698  40.371   1.969
40661W        W13086   1.865  14.116   4.471
40662W        W13087  33.641   8.744  14.478
40663W        W13088  22.982  33.310   2.701
40664W        W13089  32.099  12.858   4.075
40665W        W13090  29.612   7.135   3.388
40666W        W13091  41.043   8.671   4.265
40667W        W13092  12.734   9.645   4.384
40668W        W13093   4.682  27.142  12.367
40669W        W13094  39.845  18.746   0.511
40670W        W13095  14.555  43.516   1.384
40671W        W13096  12.567  20.095  13.461
40672W        W13097   8.499  30.609  10.796
40673W        W13098  16.126   5.198   4.160
40674W        W13099  35.254  17.825   4.511
40675W        W13100  17.626  30.483   1.803
40676W        W13101   1.638   7.548  11.164
40677W        W13102  23.784   2.068  11.139
40678W        W13103  20.545  24.184   3.882
40679W        W13104  39.896  10.647  11.167
40680W        W13105  17.554  40.378   4.098
40681W        W13106   0.477   4.436   2.355
40682W        W13107  40.909  37.855   3.760
40683W        W13108  42.882  13.164  11.565
40684W        W13109  14.739  22.628   2.771
40685W        W13110  33.509  25.497   3.681
40686W        W13111  18.619   4.849  13.353
40687W        W13112  19.350  18.706   1.376
40688W        W13113  27.199  19.681  13.794
40689W        W13114  16.592   7.411   3.320
40690W        W13115  31.991  25.312   0.905
40691W        W13116  43.349  25.186  13.572
40692W        W13117  30.992   3.801   3.375
40693W        W13118  41.983  33.433  11.140
40694W        W13119  32.146   0.446   1.228
40695W        W13120  42.543  23.007   2.044
40696W        W13121   6.216  25.008  11.149
40697W        W13122  37.372  26.531   0.729
40698W        W13123   9.618  35.457  11.124
40699W        W13124  44.734   6.642  12.523
40700W        W13125  18.692  11.884   4.206
40701W        W13126  21.590  10.631  10.366
40702W        W13127  12.818  10.327  10.228
40703W        W13128  17.550  25.691  11.018
40704W        W13129  11.736  23.600  10.642
40705W        W13130  29.959  33.877   1.727
40706W        W13131  36.403  32.082   3.103
40707W        W13132  12.058  44.862  12.087
40708W        W13133   6.914  27.272  13.342
40709W        W13134  44.341  12.904   0.840
40710W        W13135  18.119  12.866  14.454
40711W        W13136  18.093  29.079  14.950
40712W        W13137   7.196  24.344   4.100
40713W        W13138  37.550  32.119   2.673
40714W        W13139   5.017  32.209  12.264
40715W        W13140  38.166   3.706   0.794
40716W        W13141  36.004  24.067  11.298
40717W        W13142  26.464  31.592   2.552
40718W        W13143  11.856  20.596  12.403
40719W        W13144  18.786  41.273  11.605
40720W        W13145  28.201  11.265   4.705
40721W        W13146  36.096  32.683  12.529
40722W        W13147   0.743  21.535   2.434
40723W        W13148  13.236  38.967   1.699
40724W        W13149  34.261  25.957   3.036
40725W        W13150   3.973  22.606   4.049
40726W        W13151  11.228  17.858  10.970
40727W        W13152  18.792   7.875  14.740
40728W        W13153   6.310  28.654  12.505
40729W        W13154  28.087   0.358  13.054
40730W        W13155  35.022  26.213  14.513
40731W        W13156  23.091  40.429  13.549
40732W        W13157  31.661  29.887  12.979
40733W        W13158   4.372  38.942  12.379
40734W        W13159  42.433  23.108  13.605
40735W        W13160  39.281  24.797   4.185
40736W        W13161  17.278  10.708  10.141
40737W        W13162  20.193   9.160   0.343
40738W        W13163  26.483  21.230   1.760
40739W        W13164  23.647  28.125  10.513
40740W        W13165  21.983  19.838   2.158
40741W        W13166  16.412   5.819   2.713
40742W        W13167  41.758  34.035   1.194
40743W        W13168  28.408  41.364   1.913
40744W        W13169   2.188  42.358   3.752
40745W        W13170  42.825  13.656   4.813
40746W        W13171  11.573   6.059   1.814
40747W        W13172  36.456   7.697   0.261
40748W        W13173  23.112  32.386   4.148
40749W        W13174  29.064  16.804  13.872
40750W        W13175   8.026  17.154  12.504
40751W        W13176  44.870   0.051   3.294
40752W        W13177  11.247  33.045   1.926
40753W        W13178  37.751  32.902  10.500
40754W        W13179  12.611  30.917  14.694
40755W        W13180  23.049  30.701  12.786
40756W        W13181  22.084  16.075   1.470
40757W        W13182  17.273  38.129   1.879
40758W        W13183  35.170  17.863   0.191
40759W        W13184  16.717  14.901   2.702
40760W        W13185   7.106   1.452   0.965
40761W        W13186  19.064  42.142   1.900
40762W        W13187  32.055   2.754   0.980
40763W        W13188   1.267   3.251   0.453
40764W        W13189  26.000   3.611  10.425
40765W        W13190   5.402  35.369   2.906
40766W        W13191  24.579  17.302  11.386
40767W        W13192   5.908  24.659  13.520
40768W        W13193  30.416   3.227  13.064
40769W        W13194   9.422   7.795  12.062
40770W        W13195  26.571  34.974  10.345
40771W        W13196   7.163  38.052   0.364
40772W        W13197  29.662  33.511   2.230
40773W        W13198  44.843  21.947  11.901
40774W        W13199  18.610  29.604  14.375
40775W        W13200  29.066   3.451  11.996
40776W        W13201  40.884  13.352  11.635
40777W        W13202  42.864  30.921  12.565
40778W        W13203  28.641  32.903   1.192
40779W        W13204  34.358  10.463  14.739
40780W        W13205  23.201  28.594   1.800
40781W        W13206  27.652  39.910  12.088
40782W        W13207  40.574  24.588   0.018
40783W        W13208  43.354  33.031  10.438
40784W        W13209   3.380  22.288  13.801
40785W        W13210   1.526  33.686  14.110
40786W        W13211   7.757  10.900   3.606
40787W        W13212  18.164  31.900   4.196
40788W        W13213   8.470  38.816  12.986
40789W        W13214   9.956  26.880   2.911
40790W        W13215  11.706  35.938   4.033
40791W        W13216  24.011  36.474   2.339
40792W        W13217   9.326   8.357   1.870
40793W        W13218  32.430  17.239   0.486
40794W        W13219   7.726  13.737   3.233
40795W        W13220  27.689  10.060  12.889
40796W        W13221  41.736  18.742   3.796
40797W        W13222  14.431   5.158   3.715
40798W        W13223  42.281  37.486  13.781
40799W        W13224   7.017  33.038  13.798
40800W        W13225  24.187  38.507  12.187
40801W        W13226   8.535  35.300   2.170
40802W        W13227  42.706  23.540   4.039
40803W        W13228  44.788   7.365  13.584
40804W        W13229  38.113  15.383  12.026
40805W        W13230   3.684  14.684  13.465
40806W        W13231  13.088  40.853  13.534
40807W        W13232  29.492  40.458   1.767
40808W        W13233  39.035  16.715   0.547
40809W        W13234  35.891  42.932  14.326
40810W        W13235  25.583   7.156  14.946
40811W        W13236  31.085   0.142  11.225
40812W        W13237  21.998  16.236  10.942
40813W        W13238  27.718   6.666  10.950
40814W        W13239  19.701  19.367  11.572
40815W        W13240  31.652   0.752   1.684
40816W        W13241  26.611  38.489  13.299
40817W        W13242  33.243  14.375  12.602
40818W        W13243  39.894  31.617   0.885
40819W        W13244  43.498  39.060  14.202
40820W        W13245  26.697  37.160  12.531
40821W        W13246  44.613  30.355   3.441
40822W        W13247  43.493  22.235   2.725
40823W        W13248  42.431  21.625   1.722
40824W        W13249  20.992  40.307  13.363
40825W        W13250  25.768  30.034   1.501
40826W        W13251   9.816  22.586   2.611
40827W        W13252  37.940  41.856  13.846
40828W        W13253   2.321  41.016  12.493
40829W        W13254   7.730  32.646   3.614
40830W        W13255  31.401   2.976  10.683
40831W        W13256  23.294  17.044  12.114
40832W        W13257   4.486   0.550  14.001
40833W        W13258  10.470  27.105   1.810
40834W        W13259  18.010  34.625   1.263
40835W        W13260   1.946  37.197   0.309
40836W        W13261  16.051  34.961   4.758
40837W        W13262  14.152  15.557   4.608
40838W        W13263  12.130   7.273   0.326
40839W        W13264  10.105  24.108   4.868
40840W        W13265   0.316   1.835  10.878
40841W        W13266  30.972  21.440   0.794
40842W        W13267  21.990  27.016  13.910
40843W        W13268  31.168  22.243   9.834
40844W        W13269  18.579   3.712   4.088
40845W        W13270  10.325   1.425  13.897
40846W        W13271  38.500  39.401   2.632
40847W        W13272  28.527  15.392   2.493
40848W        W13273   1.446   0.489   1.777
40849W        W13274  14.142  26.859  13.572
40850W        W13275  30.075  41.080   3.133
40851W        W13276  12.649  41.032  14.483
40852W        W13277  37.036  21.074   0.963
40853W        W13278  42.700  42.247  13.411
40854W        W13279  18.507  25.502  11.114
40855W        W13280  34.597  25.297   2.611
40856W        W13281   0.957  41.069   0.414
40857W        W13282   7.392   5.121   2.894
40858W        W13283  15.584   2.325  14.561
40859W        W13284  12.193  43.849  13.936
40860W        W13285   0.547   0.360  14.895
40861W        W13286  44.306  13.187   2.332
40862W        W13287   0.947  29.171  13.989
40863W        W13288  37.512  10.856  12.036
40864W        W13289  44.014  34.501  12.123
40865W        W13290  24.645  37.121  10.644
40866W        W13291  31.955  19.388   1.418
40867W        W13292  30.204  28.589  12.941
40868W        W13293  32.884  20.927   1.414
40869W        W13294  30.502   7.884   0.783
40870W        W13295  35.472  39.226  11.977
40871W        W13296  36.354  31.565  14.669
40872W        W13297  37.365  28.491   4.393
40873W        W13298  40.470  14.729   3.294
40874W        W13299  14.863  23.884  12.305
40875W        W13300  19.732  25.916   2.722
40876W        W13301  25.087   3.231   2.430
40877W        W13302  17.006   1.562   4.585
40878W        W13303  27.668  36.317   0.980
40879W        W13304   9.145  34.121  12.669
40880W        W13305  11.861  26.675   0.853
40881W        W13306  10.568  42.756   4.572
40882W        W13307  24.074  43.288  12.339
40883W        W13308  40.549  13.060   2.746
40884W        W13309  21.819  16.523   1.339
40885W        W13310  11.470  28.415  11.568
40886W        W13311  40.968   9.367   2.656
40887W        W13312  14.822   2.284  10.551
40888W        W13313   9.144  38.512   4.341
40889W        W13314  37.105  37.914  13.943
40890W        W13315   1.642  35.324   0.647
40891W        W13316   0.849   7.349   4.891
40892W        W13317  34.365  33.642   2.322
40893W        W13318  33.018  19.318   4.781
40894W        W13319  32.702  42.505   3.553
40895W        W13320   4.959  10.664  10.122
40896W        W13321  22.638  10.719  10.241
40897W        W13322  37.913  29.535  14.980
40898W        W13323  14.798  38.496  14.060
40899W        W13324  42.423   6.018  12.537
40900W        W13325  19.547  27.810   2.280
40901W        W13326   0.669  16.889  10.373
40902W        W13327   9.292   6.808  13.274
40903W        W13328   3.915  16.577   0.961
40904W        W13329  24.982  22.533  13.950
40905W        W13330  14.356  16.068  11.011
40906W        W13331  30.583  17.903  14.380
40907W        W13332  37.135  29.880   4.303
40908W        W13333  39.901   5.198   4.143
40909W        W13334   7.484  32.030   2.837
40910W        W13335  41.178  43.838   1.864
40911W        W13336  34.554  28.701  13.806
40912W        W13337  38.886  28.896   2.621
40913W        W13338  36.463  16.164   4.872
40914W        W13339  25.958  36.077   1.385
40915W        W13340  11.712   5.065   2.800
40916W        W13341   0.993  39.640   4.944
40917W        W13342  28.078  13.525   2.740
40918W        W13343   5.994  32.987  10.729
40919W        W13344  36.546  39.773   3.300
40920W        W13345  26.437   0.229  12.008
40921W        W13346  29.476   1.339   0.011
40922W        W13347  31.755  11.420   5.026
40923W        W13348   6.481  38.220   3.043
40924W        W13349  28.872  32.990   2.295
40925W        W13350   8.255  12.709  10.223
40926W        W13351  19.493  31.549  14.356
40927W        W13352  15.850  14.174   3.339
40928W        W13353  17.585   9.792   2.649
40929W        W13354  32.489  28.143  10.733
40930W        W13355  17.879  18.811   1.426
40931W        W13356  22.235   5.173  11.986
40932W        W13357  25.565   3.136   2.219
40933W        W13358  20.287  23.575  10.842
40934W        W13359  14.726  10.045   2.668
40935W        W13360  30.891   1.862  14.549
40936W        W13361  19.642   9.609   2.293
40937W        W13362   1.752  42.441   0.272
40938W        W13363  26.765   9.571  14.264
40939W        W13364  10.628  15.824  10.552
40940W        W13365  24.071  12.773  12.013
40941W        W13366  18.073  30.999   3.232
40942W        W13367  42.117  12.323   0.898
40943W        W13368  19.809  25.663   5.029
40944W        W13369  33.599  36.005  11.704
40945W        W13370  26.617   4.168   3.631
40946W        W13371  34.727  11.383  10.360
40947W        W13372  17.583  38.410  14.896
40948W        W13373   7.770  26.734  11.975
40949W        W13374   5.316  32.524   3.211
40950W        W13375  26.540  28.537  10.873
40951W        W13376  14.133   2.411  14.822
40952W        W13377  38.401  35.960   0.014
40953W        W13378  34.337  24.129   2.122
40954W        W13379  28.660   0.746  13.660
40955W        W13380  13.581  21.559   2.312
40956W        W13381  41.854   6.645   0.893
40957W        W13382  19.740  18.859  11.648
40958W        W13383  38.530  13.716   4.950
40959W        W13384  11.541  19.730   4.721
40960W        W13385  33.596  22.621   1.888
40961W        W13386  39.544  36.475  13.387
40962W        W13387  34.095  18.680  14.218
40963W        W13388  21.768  14.241   0.758
40964W        W13389  14.727   0.319   0.478
40965W        W13390  32.126  36.720  12.940
40966W        W13391   4.518  42.487   2.411
40967W        W13392   3.768   7.878  14.344
40968W        W13393   8.692  32.109   3.365
40969W        W13394  34.989  28.705   1.634
40970W        W13395  37.103  13.817  11.865
40971W        W13396  42.112  35.900  12.946
40972W        W13397  28.527  43.545   1.359
40973W        W13398  38.818  11.579  10.338
40974W        W13399   9.624  11.134  12.936
40975W        W13400  30.254   3.801  10.451
40976W        W13401   9.285   0.489   1.250
40977W        W13402  15.332  36.475  13.306
40978W        W13403  16.366   6.893  12.313
40979W        W13404  22.063  26.044  14.875
40980W        W13405  32.501  30.084  10.890
40981W        W13406  16.255   0.854   4.383
40982W        W13407  14.686   0.365   3.236
40983W        W13408  30.902   6.335   1.293
40984W        W13409  29.630  33.521   3.160
40985W        W13410  29.869  11.365   0.146
40986W        W13411  44.520   4.154  11.968
40987W        W13412  11.012  36.203   0.397
40988W        W13413  38.231  16.956   4.663
40989W        W13414  20.033  31.325  11.234
40990W        W13415  38.909   3.874  11.541
40991W        W13416  10.481  29.531   0.534
40992W        W13417  30.940  21.299  13.434
40993W        W13418  17.248  27.285   2.743
40994W        W13419  27.858  22.220   1.480
40995W        W13420  39.581  24.768   0.968
40996W        W13421  18.126  37.609  13.324
40997W        W13422  11.336   0.360   2.223
40998W        W13423  16.056  44.837   3.043
40999W        W13424  13.239  37.495  13.980
41000W        W13425  27.698  29.655  11.896
41001W        W13426   6.378  27.691  10.772
41002W        W13427  36.998  30.525  14.248
41003W        W13428  21.155  42.187   1.890
41004W        W13429   9.238   9.394  14.787
41005W        W13430   6.898   5.684   4.403
41006W        W13431  22.285  32.087   2.871
41007W        W13432   8.896  20.322  12.602
41008W        W13433   4.844  37.944   3.815
41009W        W13434   4.812  29.499   1.235
41010W        W13435  36.381  41.860   4.370
41011W        W13436  28.640  17.807  14.903
41012W        W13437  27.129  10.351   0.422
41013W        W13438  18.113  13.217   2.800
41014W        W13439  37.941  42.377   1.190
41015W        W13440  42.122   5.819   4.506
41016W        W13441  37.607   5.245   2.925
41017W        W13442   2.065  42.443  14.317
41018W        W13443  31.676  19.031  14.548
41019W        W13444  23.703  41.386  12.155
41020W        W13445   6.789   6.233   0.299
41021W        W13446  26.277  26.150  14.361
41022W        W13447   2.271  11.051  13.564
41023W        W13448  11.753  35.426  14.358
41024W        W13449  27.977  37.409   1.809
41025W        W13450   8.799   3.321   2.265
41026W        W13451  35.760   2.510   0.443
41027W        W13452  23.157   9.100   1.373
41028W        W13453   1.009  20.136  11.933
41029W        W13454  25.473  39.990   4.143
41030W        W13455  12.391  40.776   4.511
41031W        W13456  23.595  22.097  11.684
41032W        W13457  30.198  10.906  11.595
41033W        W13458  21.710  15.549   3.171
41034W        W13459  42.789  23.577  11.178
41035W        W13460  36.513   4.220  12.588
41036W        W13461  19.699  17.012  11.244
41037W        W13462  13.465  36.116   2.425
41038W        W13463  30.669  29.263   2.839
41039W        W13464  41.669  28.087  11.091
41040W        W13465  39.284   8.417  11.278
41041W        W13466  26.510  28.052  11.049
41042W        W13467  17.292  31.003   0.872
41043W        W13468   6.783  13.038   0.469
41044W        W13469   3.277  32.037  13.427
41045W        W13470   1.924  39.566  11.565
41046W        W13471  43.758  34.289   0.929
41047W        W13472  27.898   0.095   3.282
41048W        W13473   2.022  26.058  13.592
41049W        W13474  35.864  16.827  14.980
41050W        W13475  17.714  38.027  12.119
41051W        W13476  36.522  35.159   4.492
41052W        W13477  26.450  37.552  13.470
41053W        W13478  21.052  15.188  13.038
41054W        W13479  18.690  44.504   1.939
41055W        W13480   4.150  42.858  14.732
41056W        W13481  11.886  24.613  10.732
41057W        W13482  40.808  39.489  12.463
41058W        W13483  40.311  40.042   1.876
41059W        W13484  22.760  43.302   2.977
41060W        W13485  22.054  23.431  11.583
41061W        W13486  36.438  44.975  14.715
41062W        W13487  24.158  27.242  14.400
41063W        W13488   1.985  16.299  14.534
41064W        W13489   5.742   6.195   0.684
41065W        W13490  21.192  30.894  10.716
41066W        W13491  21.692  30.306   3.818
41067W        W13492  31.581   8.325   4.189
41068W        W13493   5.866  38.369   3.810
41069W        W13494   3.750  43.846  10.726
41070W        W13495   5.310  38.757   0.520
41071W        W13496  16.269  42.223   0.282
41072W        W13497  14.204  38.850   0.804
41073W        W13498  38.772  36.493  12.992
41074W        W13499  39.871  16.707   1.042
41075W        W13500  20.230  38.274  11.502
41076W        W13501  23.941   5.328   4.182
41077W        W13502  25.010  24.607   1.660
41078W        W13503  37.064  15.549   0.477
41079W        W13504  19.190  12.719   3.779
41080W        W13505   6.500  22.230   1.989
41081W        W13506  36.948  38.537   2.113
41082W        W13507   5.151  43.942  12.903
41083W        W13508  17.719  38.491  12.346
41084W        W13509  30.894   2.293  12.786
41085W        W13510  16.794  37.685   0.751
41086W        W13511  32.463  30.489  14.332
41087W        W13512  13.656  25.156   3.935
41088W        W13513  12.197   9.565  12.459
41089W        W13514  18.255  31.303   2.800
41090W        W13515  44.790  38.775   3.840
41091W        W13516  37.510  38.788   1.643
41092W        W13517   0.302  24.150  10.697
41093W        W13518  15.355  31.072  13.976
41094W        W13519  42.321  36.092   4.617
41095W        W13520  15.402  33.983   0.341
41096W        W13521  33.351  22.955   4.062
41097W        W13522  15.832  15.804   0.035
41098W        W13523  32.143  36.490  14.398
41099W        W13524   5.919  21.998   2.624
41100W        W13525  29.470  26.274   0.402
41101W        W13526   5.150  26.029  12.971
41102W        W13527   7.612   2.805   4.731
41103W        W13528  19.510  10.360   4.216
41104W        W13529  11.889  11.955   0.849
41105W        W13530  36.349   1.356  12.696
41106W        W13531  44.176  33.841  11.705
41107W        W13532  23.093  37.630   4.146
41108W        W13533  13.212  19.599  14.433
41109W        W13534   3.398  24.708  12.491
41110W        W13535  19.357  20.451  11.160
41111W        W13536  38.247   0.336  12.089
41112W        W13537  20.466  11.827   3.549
41113W        W13538  30.064   6.351   3.320
41114W        W13539  42.739  30.069  13.914
41115W        W13540  29.491  39.978   3.626
41116W        W13541  16.490  40.385  13.986
41117W        W13542  13.214  12.527   1.284
41118W        W13543  29.630  31.709  13.829
41119W        W13544  13.657  17.558  11.066
41120W        W13545  27.881  23.201  13.375
41121W        W13546  11.653  40.272   0.839
41122W        W13547  37.463  28.687   0.845
41123W        W13548  12.515  21.242  13.955
41124W        W13549  13.912  11.373  14.089
41125W        W13550  40.512  30.354   0.799
41126W        W13551  42.848  20.114   1.604
41127W        W13552  23.611  32.678  10.187
41128W        W13553  32.138  21.366   4.210
41129W        W13554  25.596  11.454   0.355
41130W        W13555   2.825  14.380  10.313
41131W        W13556  24.676   9.611   1.727
41132W        W13557   8.784  42.321   1.814
41133W        W13558  25.932   0.913   0.331
41134W        W13559  26.675  28.231   0.411
41135W        W13560  11.096  43.216  13.854
41136W        W13561  18.486  44.956   3.777
41137W        W13562  31.648  13.250  11.588
41138W        W13563  27.055  41.091   2.813
41139W        W13564  33.493   7.861  12.580
41140W        W13565  18.568  17.593   0.031
41141W        W13566  23.131   3.711   4.138
41142W        W13567  34.378   0.305  11.081
41143W        W13568   3.206  34.560   4.923
41144W        W13569  25.074  26.969   4.564
41145W        W13570  26.157  23.189   0.934
41146W        W13571   8.933   8.806  14.833
41147W        W13572  29.923  42.758  13.008
41148W        W13573   6.969  26.939  14.492
41149W        W13574  40.398  37.777   3.672
41150W        W13575  44.781  44.301  12.091
41151W        W13576  11.208   2.907   4.085
41152W        W13577  16.295  43.953  13.574
41153W        W13578   1.114  16.040  11.900
41154W        W13579   9.820  37.357   0.807
41155W        W13580  12.086  30.098  11.184
41156W        W13581  42.512  14.076  11.247
41157W        W13582  33.504   7.997   4.930
41158W        W13583  26.297   7.168   3.437
41159W        W13584  19.313  19.741   0.389
41160W        W13585  12.671  35.474  11.516
41161W        W13586  11.540  10.662   1.309
41162W        W13587   7.719  22.411  13.809
41163W        W13588   8.608   2.468  12.617
41164W        W13589   6.404  27.185  10.627
41165W        W13590  16.142  13.375   3.722
41166W        W13591  27.415  15.280   3.746
41167W        W13592  27.661   7.376   3.517
41168W        W13593  24.202  34.906   0.091
41169W        W13594   3.234  30.379  13.648
41170W        W13595  15.807  27.317  14.917
41171W        W13596  13.196  32.173   0.574
41172W        W13597  43.398  33.094  10.960
41173W        W13598  19.966   8.990  13.481
41174W        W13599  25.189  17.279  14.350
41175W        W13600  23.526   3.214  11.909
41176W        W13601  11.873  21.384   3.357
41177W        W13602  25.605  42.716  11.644
41178W        W13603  10.763  33.830  12.005
41179W        W13604   3.035  39.812  13.442
41180W        W13605  27.870  14.706   3.480
41181W        W13606  30.400   7.696   3.224
41182W        W13607  27.801  23.984   1.681
41183W        W13608   1.312   7.851  14.157
41184W        W13609  22.535  25.872  11.494
41185W        W13610  11.590  12.456   2.949
41186W        W13611   9.036  23.400   1.778
41187W        W13612   1.586   2.293  13.935
41188W        W13613  12.675   8.713   4.632
41189W        W13614  28.234   1.935   4.979
41190W        W13615  10.684  29.158   0.246
41191W        W13616   1.373  18.022  10.779
41192W        W13617  25.385   9.637  11.084
41193W        W13618  27.704  14.291   3.716
41194W        W13619  20.788  28.895   0.056
41195W        W13620  31.151  12.563  13.443
41196W        W13621  10.841  12.241  12.545
41197W        W13622  26.928  24.093  11.069
41198W        W13623   5.388  24.824   3.009
41199W        W13624  35.675  40.493  11.160
41200W        W13625  39.230  15.627   2.704
41201W        W13626  23.584  10.900   4.822
41202W        W13627   2.919  17.798  14.833
41203W        W13628  18.998  15.815  13.286
41204W        W13629  42.738  16.564  11.766
41205W        W13630  44.467  16.656  13.743
41206W        W13631  31.266  42.002   3.301
41207W        W13632  31.464  20.569   4.092
41208W        W13633  39.893  10.149   0.755
41209W        W13634   1.371  36.365   1.424
41210W        W13635  44.911  43.253   4.598
41211W        W13636  28.375  34.034  13.005
41212W        W13637  10.405  20.024  10.768
41213W        W13638   9.922  21.557  11.520
41214W        W13639  37.431  37.895   1.635
41215W        W13640  15.781   5.826  11.423
41216W        W13641  14.541  43.783  10.985
41217W        W13642  38.325  33.940  10.621
41218W        W13643  30.513  23.109  12.037
41219W        W13644  37.257   1.697   3.881
41220W        W13645  17.743  44.454   1.885
41221W        W13646  16.852   9.344   2.743
41222W        W13647   3.487  37.705   0.795
41223W        W13648  16.856  29.078   0.869
41224W        W13649  42.404  41.030  14.246
41225W        W13650   3.479  23.973   0.750
41226W        W13651  36.718  27.433   3.974
41227W        W13652  34.725  17.288   2.826
41228W        W13653  32.859  19.229   3.835
41229W        W13654  32.199   8.299   3.418
41230W        W13655  43.386  26.548   4.069
41231W        W13656   7.450  34.406  14.909
41232W        W13657   5.722  11.985  10.790
41233W        W13658  29.847  39.516  11.850
41234W        W13659  36.378  10.678  14.940
41235W        W13660   4.427  39.503  14.577
41236W        W13661  29.332  27.738   1.257
41237W        W13662  18.222  30.372  12.315
41238W        W13663  22.031   0.688  12.805
41239W        W13664  35.946  15.194   1.935
41240W        W13665  42.732  36.061   2.221
41241W        W13666  42.820  30.253  13.410
41242W        W13667   8.266  39.584  14.346
41243W        W13668  36.261  38.283  11.459
41244W        W13669  29.300   2.858  11.497
41245W        W13670   4.241  31.331   2.986
41246W        W13671  21.167  44.886  13.948
41247W        W13672   6.825  38.479   2.762
41248W        W13673   0.327  10.020  13.455
41249W        W13674  12.201  17.145   0.974
41250W        W13675  15.631  43.887  11.110
41251W        W13676  13.245  33.075   3.485
41252W        W13677  43.876   2.715   3.351
41253W        W13678  22.784   5.721   1.451
41254W        W13679  44.468  10.204   3.622
41255W        W13680  10.758  22.630  13.409
41256W        W13681  40.934  43.860  11.185
41257W        W13682   3.839  39.886  12.416
41258W        W13683  31.855  43.003  11.626
41259W        W13684  17.979  27.246  10.662
41260W        W13685   3.408   3.369  10.136
41261W        W13686  26.731  25.307  13.010
41262W        W13687  16.211   7.899  14.713
41263W        W13688  29.485  39.578   4.871
41264W        W13689  21.727  44.601   2.714
41265W        W13690  11.152  26.557  12.360
41266W        W13691   9.370  35.496   2.708
41267W        W13692  14.642  40.057   0.864
41268W        W13693   3.329  41.832  14.519
41269W        W13694  40.092  11.695  13.097
41270W        W13695  14.819  25.263  11.166
41271W        W13696  14.796  25.245   2.339
41272W        W13697   0.577  42.334   4.545
41273W        W13698  20.252   8.674   2.792
41274W        W13699  28.461  19.595   0.482
41275W        W13700  36.449  33.381  10.631
41276W        W13701   1.445  12.813   4.837
41277W        W13702  35.941  35.866   3.268
41278W        W13703   8.615  12.378   0.931
41279W        W13704  29.949  33.318   0.769
41280W        W13705  28.191  18.538   3.626
41281W        W13706  26.435  17.564   0.793
41282W        W13707  18.386  25.099  11.474
41283W        W13708  43.955  23.899  10.680
41284W        W13709  20.958  28.420  11.569
41285W        W13710  17.791  41.118  13.009
41286W        W13711  33.102  21.843  11.855
41287W        W13712  30.724  15.281   1.787
41288W        W13713  27.500  37.467  13.494
41289W        W13714  23.974   5.645  14.954
41290W        W13715   7.093  42.771   3.371
41291W        W13716  19.697  16.870  13.550
41292W        W13717   9.412  31.565   3.070
41293W        W13718  31.427   3.172  13.050
41294W        W13719  28.477  16.136  11.640
41295W        W13720  12.388  35.395   4.113
41296W        W13721  29.917  25.516   4.861
41297W        W13722  19.622  11.612   1.684
41298W        W13723  16.161  22.929   0.835
41299W        W13724   8.660  40.208   4.021
41300W        W13725  35.587  40.051  12.503
41301W        W13726  19.176  34.615   0.555
41302W        W13727   3.650  24.752  11.182
41303W        W13728  24.913  29.353  11.505
41304W        W13729  28.588  37.502  14.462
41305W        W13730  39.393  22.621   2.918
41306W        W13731  30.487  26.444  10.583
41307W        W13732  40.480  22.340  10.453
41308W        W13733  40.056  18.823   1.883
41309W        W13734  36.368   3.549   0.691
41310W        W13735   7.279  37.401   4.140
41311W        W13736  41.965  12.795   2.288
41312W        W13737  22.214  31.599   3.779
41313W        W13738   5.710  23.694   0.253
41314W        W13739   8.172  10.221   1.886
41315W        W13740  39.778  32.478  12.527
41316W        W13741   3.421  23.530   2.932
41317W        W13742  40.919  21.816  10.227
41318W        W13743  10.321  28.147  11.985
41319W        W13744  41.981  12.759  10.925
41320W        W13745  36.380   8.927  13.469
41321W        W13746  22.636  26.600   0.736
41322W        W13747   9.933   2.655  13.890
41323W        W13748  17.164  38.857  14.985
41324W        W13749   7.281  23.080  11.298
41325W        W13750  24.337  36.895   0.276
41326W        W13751   8.752  33.204   4.243
41327W        W13752  43.828   5.908   3.104
41328W        W13753  17.095  38.834  10.577
41329W        W13754  13.844  39.051   1.212
41330W        W13755  31.908  44.406  12.897
41331W        W13756  25.905  33.220  11.963
41332W        W13757  39.703  13.624   3.280
41333W        W13758  38.428  25.604   1.695
41334W        W13759   9.464  30.405  14.743
41335W        W13760  40.839  31.078  13.670
41336W        W13761  14.477  13.681   0.778
41337W        W13762  41.223  27.373   1.977
41338W        W13763   4.457  29.019   3.289
41339W        W13764  30.598  12.284   1.249
41340W        W13765  10.351   1.024  11.100
41341W        W13766   8.714   9.715   4.930
41342W        W13767   1.303   9.963   5.133
41343W        W13768  29.106   0.175   1.545
41344W        W13769  26.461  35.177   4.114
41345W        W13770  26.438  10.191   2.469
41346W        W13771  36.987  27.305  12.117
41347W        W13772  19.079   5.437  13.980
41348W        W13773  34.400  23.657  14.864
41349W        W13774  23.314  29.003   4.705
41350W        W13775  26.664  14.459   3.503
41351W        W13776   7.928   2.390   4.878
41352W        W13777  23.633  29.385   1.230
41353W        W13778   7.761  30.635   3.857
41354W        W13779   5.432  36.304  13.936
41355W        W13780  26.912  20.383   1.041
41356W        W13781  42.111  32.234  14.244
41357W        W13782  31.007  13.017   2.883
41358W        W13783  30.809  13.292  12.110
41359W        W13784  16.500  42.931   1.752
41360W        W13785   7.946  42.894  12.469
41361W        W13786   5.938  12.719   4.338
41362W        W13787  37.505  32.856  11.237
41363W        W13788  26.184  17.524  13.859
41364W        W13789  36.353  15.099   1.612
41365W        W13790  15.027  37.569  10.137
41366W        W13791  32.887  26.954   4.546
41367W        W13792  29.133  27.371  12.553
41368W        W13793   3.045  21.152  10.606
41369W        W13794   1.807  36.986  13.356
41370W        W13795  15.653  26.892   2.840
41371W        W13796  31.116  33.378   1.582
41372W        W13797  23.289  22.819  12.950
41373W        W13798  20.159  30.962   2.849
41374W        W13799   3.008   6.607  10.237
41375W        W13800  32.985  39.539  10.530
41376W        W13801   2.307  14.373   5.438
41377W        W13802  19.840  18.632   2.838
41378W        W13803  27.155  25.454   0.504
41379W        W13804  26.959  14.847  14.707
41380W        W13805  36.452  43.037   4.879
41381W        W13806   0.735  16.738  13.134
41382W        W13807  24.776   7.476   1.809
41383W        W13808  22.801  18.273  12.260
41384W        W13809  31.476  17.176  11.368
41385W        W13810  12.026  34.413  10.734
41386W        W13811  18.303  21.701  11.216
41387W        W13812  23.171  15.487   0.281
41388W        W13813  22.320   6.729   0.875
41389W        W13814  37.056   6.747   5.216
41390W        W13815   0.305   1.346   2.898
41391W        W13816  40.015  25.662  14.512
41392W        W13817  17.157  12.803  11.253
41393W        W13818  23.021  43.454  11.226
41394W        W13819  39.734  30.191   3.314
41395W        W13820  40.611  36.471   1.964
41396W        W13821  40.264  14.892  12.925
41397W        W13822  27.500   6.217  10.857
41398W        W13823  11.738  29.594  12.795
41399W        W13824  30.676  14.226   1.734
41400W        W13825  16.749  29.157  10.458
41401W        W13826  41.732   3.266   3.683
41402W        W13827  36.897   1.003   2.884
41403W        W13828   6.682  22.787  14.816
41404W        W13829  17.378  18.323  12.443
41405W        W13830  11.568   9.670  13.708
41406W        W13831   9.258  21.277  13.004
41407W        W13832  24.246   5.816  10.468
41408W        W13833  31.226  44.268   1.716
41409W        W13834   4.302  10.570   3.677
41410W        W13835   0.003   5.225   4.881
41411W        W13836  23.097   1.761  11.519
41412W        W13837  15.317  14.990   3.633
41413W        W13838  35.898  13.149  12.879
41414W        W13839  24.574  40.185  14.762
41415W        W13840   8.929  39.498  11.024
41416W        W13841   5.480  23.729   5.049
41417W        W13842   3.185  40.490   3.301
41418W        W13843   7.970  18.342   3.211
41419W        W13844   7.167  42.738  11.128
41420W        W13845   7.236  20.514  12.035
41421W        W13846  23.563   1.269  13.020
41422W        W13847   4.473   5.306   0.794
41423W        W13848  33.955  33.845  14.505
41424W        W13849  16.283   5.409  13.321
41425W        W13850  40.293   2.741   4.620
41426W        W13851  12.772   6.268  13.366
41427W        W13852  39.871  22.591   0.550
41428W        W13853  32.296  15.744   4.212
41429W        W13854  11.122  31.135   1.671
41430W        W13855  27.735  23.925   0.027
41431W        W13856  42.335  23.491   2.876
41432W        W13857   7.296  35.871   2.394
41433W        W13858  21.544  37.943  12.206
41434W        W13859  10.634  22.089  12.897
41435W        W13860  17.360  15.583   0.048
41436W        W13861  19.600  19.226   3.614
41437W        W13862  11.533  24.065   2.885
41438W        W13863  20.699  44.115  13.937
41439W        W13864  18.523  23.196   2.304
41440W        W13865  16.074  26.573   2.407
41441W        W13866  24.198  28.729   4.492
41442W        W13867   1.771  22.235   1.857
41443W        W13868   0.597  35.890   2.016
41444W        W13869  19.262  24.923  11.441
41445W        W13870  34.725  28.922  14.869
41446W        W13871  35.861  22.199   4.265
41447W        W13872   9.788   5.392   1.478
41448W        W13873   0.961  25.072   2.173
41449W        W13874  17.286  19.160  11.008
41450W        W13875   3.259   7.334   2.754
41451W        W13876  25.692  25.114   4.742
41452W        W13877  37.894  30.973   0.743
41453W        W13878  25.936  36.581   0.075
41454W        W13879  14.623   1.800   0.979
41455W        W13880  26.977  42.909   3.653
41456W        W13881  31.399  22.454   2.855
41457W        W13882  38.436  27.174   4.354
41458W        W13883  30.372  39.099   2.573
41459W        W13884  16.333  29.783   2.922
41460W        W13885   8.134  37.567   0.324
41461W        W13886  29.942  21.094   3.700
41462W        W13887  22.067   2.060  12.678
41463W        W13888  18.241  23.325  13.012
41464W        W13889  41.399  31.171  13.836
41465W        W13890  34.296  43.019  13.372
41466W        W13891  25.256  30.483  12.857
41467W        W13892  25.138  38.093  12.006
41468W        W13893  16.119  42.362  14.365
41469W        W13894  15.050   1.009   0.776
41470W        W13895  14.258  34.133   1.686
41471W        W13896  14.760  39.021  11.761
41472W        W13897  44.992  34.674   5.271
41473W        W13898  41.504  35.588   3.258
41474W        W13899  13.256  24.440  10.088
41475W        W13900   8.852   4.484  11.446
41476W        W13901  11.986  13.953  14.112
41477W        W13902  23.740  30.729  10.987
41478W        W13903  27.010   6.419   3.207
41479W        W13904  40.498   0.501  12.471
41480W        W13905  18.533   3.069  14.926
41481W        W13906  36.507  34.563  13.323
41482W        W13907   4.850  24.676  14.888
41483W        W13908  14.204  34.428   2.179
41484W        W13909  36.483  28.574  11.527
41485W        W13910  14.906  23.539  10.484
41486W        W13911   8.574  29.033  14.812
41487W        W13912  19.060  34.585  14.546
41488W        W13913  43.020  15.795  11.938
41489W        W13914  28.920  18.288  12.819
41490W        W13915  14.845  29.869  13.419
41491W        W13916   4.450  32.597  10.966
41492W        W13917   4.460  43.869   0.435
41493W        W13918  12.744  33.133   4.515
41494W        W13919   5.030   3.259   3.339
41495W        W13920  17.346  15.148   2.196
41496W        W13921  36.853  21.671  13.738
41497W        W13922  18.155   5.657   1.201
41498W        W13923  20.647  21.476   3.151
41499W        W13924  32.647  15.988   4.498
41500W        W13925  18.521  29.444   3.379
41501W        W13926  20.188  23.491   0.855
41502W        W13927  35.554  15.279   0.994
41503W        W13928  30.840  18.038   4.321
41504W        W13929  15.616  16.313   0.734
41505W        W13930  15.825  42.568   4.731
41506W        W13931  36.589  34.191   1.828
41507W        W13932  37.797  44.194  14.573
41508W        W13933  27.772  35.086   4.128
41509W        W13934   0.465  13.289   3.238
41510W        W13935  34.467   6.125   1.232
41511W        W13936   6.440  30.049   1.286
41512W        W13937  42.337   8.619   0.353
41513W        W13938  35.524  16.509   3.816
41514W        W13939  14.393  37.805   0.523
41515W        W13940  42.567  33.770  14.437
41516W        W13941   8.178  28.610   4.130
41517W        W13942  33.599  37.598  12.959
41518W        W13943  22.868   7.387   4.435
41519W        W13944  14.400  30.872   2.813
41520W        W13945  25.163  30.960   2.455
41521W        W13946  42.716   4.970   5.263
41522W        W13947  25.517   0.563   1.696
41523W        W13948   2.784   1.403   2.428
41524W        W13949   6.026   3.424   0.492
41525W        W13950  27.962   7.283   2.165
41526W        W13951  10.690  38.356   3.415
41527W        W13952  30.159  18.099  10.803
41528W        W13953  23.752  31.863   4.555
41529W        W13954  26.450  42.358  12.107
41530W        W13955   8.221   0.517  10.817
41531W        W13956  24.534  15.831  13.754
41532W        W13957  44.319  33.131  11.112
41533W        W13958  24.115  38.840   0.453
41534W        W13959  39.468   0.538  13.293
41535W        W13960   6.705   5.320   0.159
41536W        W13961  21.107  11.569   2.419
41537W        W13962  10.262  29.962  13.343
41538W        W13963  14.562  10.628  12.509
41539W        W13964  14.646  40.805  11.972
41540W        W13965  43.063  13.863   2.293
41541W        W13966  14.500  21.163  14.936
41542W        W13967  35.777   4.294   4.055
41543W        W13968  12.783  41.999   1.376
41544W        W13969   5.379  19.833  11.585
41545W        W13970  28.924  39.906   0.348
41546W        W13971   0.973  34.119   2.739
41547W        W13972  20.038  20.646   0.963
41548W        W13973  33.367  14.603   5.451
41549W        W13974  36.700  13.149   0.597
41550W        W13975  17.896  26.271   1.742
41551W        W13976  38.654  26.769  10.040
41552W        W13977  10.507  26.693   2.162
41553W        W13978   1.447  17.497  10.762
41554W        W13979  35.851  13.554   4.091
41555W        W13980  37.831  41.955  11.070
41556W        W13981  35.070  21.576   1.964
41557W        W13982   3.879  35.579  11.009
41558W        W13983  18.363  23.663   3.093
41559W        W13984  36.908  22.384   3.603
41560W        W13985  17.820  15.713   0.253
41561W        W13986  21.007  31.590  11.253
41562W        W13987   6.422   5.019   2.856
41563W        W13988  31.975   2.177  14.256
41564W        W13989   1.359   8.595   3.395
41565W        W13990  15.859  33.382   1.845
41566W        W13991   7.234  36.414  10.918
41567W        W13992  20.232  19.178   0.946
41568W        W13993  25.743  27.244   1.787
41569W        W13994   1.332  28.562   3.362
41570W        W13995   8.352   1.486  10.824
41571W        W13996  35.124   4.982   0.994
41572W        W13997   9.426  20.817  11.442
41573W        W13998  39.110  21.664   1.328
41574W        W13999  15.085  36.066   3.693
41575W        W14000  32.331   3.969   0.259
41576W        W14001  29.145  44.747  11.967
41577W        W14002  23.928  27.449   4.037
41578W        W14003   6.590  29.080   4.784
41579W        W14004  27.698  11.339   1.395
41580W        W14005  16.752  20.984  14.766
41581W        W14006  11.782  39.441   2.618
41582W        W14007  24.428   5.727  10.938
41583W        W14008  25.083   0.415  11.228
41584W        W14009  24.406  13.298  12.775
41585W        W14010   3.741  21.251  14.867
41586W        W14011  30.901  26.727  14.572
41587W        W14012  35.242  11.864   0.558
41588W        W14013  13.980  27.795   0.379
41589W        W14014  28.405  37.478   2.143
41590W        W14015  17.097  30.128   1.285
41591W        W14016   2.167  31.623  14.969
41592W        W14017  10.597   3.475   3.705
41593W        W14018   2.222  42.294  13.848
41594W        W14019  12.705  26.644  10.527
41595W        W14020  44.311  34.596   1.841
41596W        W14021  42.762  32.171   1.034
41597W        W14022  31.684  14.315   1.763
41598W        W14023  20.640   3.465  14.440
41599W        W14024  36.959  19.225   0.227
41600W        W14025  24.365  17.291  10.914
41601W        W14026  31.032  14.269  13.554
41602W        W14027   9.217  26.322   3.354
41603W        W14028  21.628  21.149  14.632
41604W        W14029  14.813   5.291  13.963
41605W        W14030   8.367  26.613   0.243
41606W        W14031  20.620  37.598   3.654
41607W        W14032  28.436  37.641  11.043
41608W        W14033   9.940  10.875  12.576
41609W        W14034   2.878  27.641   4.826
41610W        W14035  37.399  18.255  14.063
41611W        W14036  14.145  10.064   1.454
41612W        W14037  43.179  42.919  11.174
41613W        W14038  41.322  43.108   0.010
41614W        W14039  12.020  16.801   2.801
41615W        W14040  35.768   0.782   1.777
41616W        W14041  33.935  10.418   3.105
41617W        W14042   0.488  14.105  11.592
41618W        W14043  10.440  39.515  14.770
41619W        W14044  44.463  14.799  14.307
41620W        W14045  18.720   6.169  13.016
41621W        W14046  10.595  12.721  12.377
41622W        W14047  23.246   9.942  10.187
41623W        W14048   5.231  20.234   3.433
41624W        W14049   6.764  21.234   1.742
41625W        W14050  21.247  29.824  11.673
41626W        W14051  15.255  26.214   2.361
41627W        W14052  44.944  18.590   0.723
41628W        W14053   8.410   7.384   4.118
41629W        W14054   6.517  44.822  14.059
41630W        W14055   9.881  41.072   1.213
41631W        W14056  20.177  10.837   1.866
41632W        W14057  16.830  32.516   5.106
41633W        W14058  18.325  27.059  12.688
41634W        W14059   6.346  29.407  14.973
41635W        W14060  30.407   1.808  14.824
41636W        W14061  44.775   4.189   4.073
41637W        W14062  14.169  14.864   2.472
41638W        W14063  14.012  24.994  14.016
41639W        W14064  36.908   8.815  12.854
41640W        W14065  19.509  23.486   2.268
41641W        W14066  21.743  21.655   0.776
41642W        W14067  20.855  42.235   3.693
41643W        W14068   8.901   9.436  11.858
41644W        W14069  30.523  20.871   0.224
41645W        W14070  41.289  28.523   3.134
41646W        W14071  25.946  43.052   2.811
41647W        W14072   1.313  40.061   0.909
41648W        W14073  33.156   0.254  12.621
41649W        W14074  12.950   1.818   2.197
41650W        W14075   7.815  33.619  12.046
41651W        W14076  28.195  23.661  14.943
41652W        W14077  37.012  31.081   0.098
41653W        W14078  29.654  35.334  11.125
41654W        W14079  26.136   0.009   1.211
41655W        W14080  30.397  20.109  13.454
41656W        W14081  28.174  25.887   3.191
41657W        W14082  36.632   6.727  10.294
41658W        W14083  30.549  10.480  12.031
41659W        W14084  11.776  26.920   0.390
41660W        W14085   2.351   2.230  10.456
41661W        W14086  15.479  12.172  14.560
41662W        W14087  33.558  32.114   4.517
41663W        W14088  29.785  14.881   0.924
41664W        W14089  27.099  32.651  11.670
41665W        W14090  37.365  44.331   0.980
41666W        W14091   5.457  24.116   1.272
41667W        W14092  43.964   5.307  11.918
41668W        W14093  12.318  41.984  13.328
41669W        W14094   4.659  38.997   1.311
41670W        W14095  16.491  34.444  13.392
41671W        W14096  28.084   7.884   4.596
41672W        W14097  33.988  15.134   3.016
41673W        W14098  35.916  30.384  11.567
41674W        W14099  30.332  33.568   1.361
41675W        W14100  25.173  28.192   3.327
41676W        W14101  34.461  20.551  10.938
41677W        W14102  20.196  42.810   2.399
41678W        W14103  24.980  23.043  13.782
41679W        W14104  20.982  18.535  12.476
41680W        W14105  37.694   5.686   2.301
41681W        W14106  14.130  33.597  12.858
41682W        W14107  15.279  17.825  14.449
41683W        W14108  22.820   9.174   2.157
41684W        W14109   7.226  41.544  11.617
41685W        W14110  35.477   8.408   3.079
41686W        W14111  38.317  23.264  12.598
41687W        W14112  43.721  22.032  11.092
41688W        W14113  15.953  37.330   4.626
41689W        W14114  10.286  33.391   2.186
41690W        W14115  10.365  27.494   3.306
41691W        W14116  32.381  15.742  13.276
41692W        W14117  34.223   5.732   0.279
41693W        W14118  44.962  12.207  11.470
41694W        W14119   8.270  18.525   0.536
41695W        W14120  24.948  29.924  12.420
41696W        W14121  18.250  30.446  13.256
41697W        W14122  10.496  24.408  10.240
41698W        W14123  27.663   7.094   3.091
41699W        W14124  10.655  23.307   4.546
41700W        W14125   5.359  27.227   3.210
41701W        W14126  16.818   9.117  13.484
41702W        W14127  36.485   6.419   4.594
41703W        W14128  44.439  33.327  13.433
41704W        W14129  38.987   7.657   0.934
41705W        W14130   3.310  14.263  14.548
41706W        W14131   0.243   9.531  11.408
41707W        W14132  27.890  40.463   3.212
41708W        W14133  43.322  11.680  10.619
41709W        W14134  31.022  35.820   4.977
41710W        W14135  10.447  23.047  10.651
41711W        W14136  12.365  37.866   0.550
41712W        W14137  22.672  35.134  12.079
41713W        W14138  42.999   6.170   3.851
41714W        W14139  12.262  29.964  12.074
41715W        W14140  42.353   8.341  12.072
41716W        W14141  12.636  16.101   0.797
41717W        W14142  35.574   8.710   2.670
41718W        W14143  19.580  36.668  13.147
41719W        W14144   1.018  11.833   4.527
41720W        W14145  37.733  38.665  13.281
41721W        W14146  10.826  11.410  14.002
41722W        W14147  25.124   3.487  12.001
41723W        W14148  29.228  40.301   0.441
41724W        W14149  30.578  25.905   2.443
41725W        W14150  42.626   1.634  11.935
41726W        W14151  35.045   3.292  10.903
41727W        W14152   5.332  42.056  12.872
41728W        W14153  38.101  43.248  10.764
41729W        W14154  41.132  28.453  14.817
41730W        W14155  17.597  16.870  10.569
41731W        W14156  14.308  42.229  14.160
41732W        W14157  17.296  10.342   0.467
41733W        W14158  44.323  16.201  10.608
41734W        W14159  33.014   8.348  14.429
41735W        W14160  17.126   2.736   4.291
41736W        W14161   1.255  18.552  12.549
41737W        W14162  39.610  40.303   0.051
41738W        W14163  19.750  13.145   0.890
41739W        W14164  13.094  18.789  14.828
41740W        W14165  15.195  15.285  11.698
41741W        W14166  14.297  38.313   4.018
41742W        W14167  22.583   6.309   3.637
41743W        W14168  33.357  18.134   2.436
41744W        W14169  40.967  19.504   3.197
41745W        W14170  43.659   8.992  10.235
41746W        W14171  15.856  25.352   1.264
41747W        W14172  40.063   5.852   0.382
41748W        W14173   9.218  25.567   1.035
41749W        W14174  26.513  30.667   4.005
41750W        W14175  33.542   3.429  11.123
41751W        W14176  35.570  32.615  12.437
41752W        W14177  24.766  41.994  10.656
41753W        W14178  24.538  11.190  12.093
41754W        W14179  26.495  21.741  14.299
41755W        W14180  42.044  22.242   0.823
41756W        W14181  43.172  24.834  11.141
41757W        W14182  35.007  40.583   1.941
41758W        W14183  42.799  10.943  10.442
41759W        W14184  24.106  10.809   4.911
41760W        W14185  13.673  10.881   1.193
41761W        W14186  33.372  20.093   0.287
41762W        W14187  35.599  18.625  12.134
41763W        W14188  39.016  41.352   1.854
41764W        W14189  42.348   2.414  13.928
41765W        W14190  18.493   6.191   4.174
41766W        W14191  12.743   6.122   3.639
41767W        W14192  26.687  37.016   4.602
41768W        W14193  19.584   7.228   0.766
41769W        W14194  39.777  41.331  13.453
41770W        W14195   6.388  17.180   1.421
41771W        W14196  38.266   7.065   2.850
41772W        W14197   3.500  39.456  14.368
41773W        W14198  29.516   7.906   4.007
41774W        W14199  22.106   7.610   2.382
41775W        W14200  22.530  19.703   0.773
41776W        W14201  37.577  30.553   3.465
41777W        W14202  35.869  43.731  13.362
41778W        W14203  28.246  12.086  12.599
41779W        W14204  22.298  17.295  13.748
41780W        W14205  31.060  17.044   1.809
41781W        W14206  42.015  38.109   1.361
41782W        W14207   9.222  20.849   4.674
41783W        W14208   5.392  32.592   1.672
41784W        W14209  21.335   3.334  14.651
41785W        W14210   1.729   5.680   4.338
41786W        W14211  21.703  23.769  13.540
41787W        W14212  37.591  28.864   1.850
41788W        W14213  41.331   9.456   3.365
41789W        W14214  34.105  12.424   2.194
41790W        W14215   3.309  40.347   1.084
41791W        W14216  39.838  30.117   0.055
41792W        W14217  43.798  17.903   4.251
41793W        W14218  21.591  10.440  12.501
41794W        W14219   2.213  38.524  11.915
41795W        W14220  36.661  10.276  12.005
41796W        W14221  23.279  25.621   4.053
41797W        W14222  37.431  43.451  13.961
41798W        W14223   1.472  20.488   3.299
41799W        W14224  17.139  25.754   1.768
41800W        W14225  38.249  36.715   0.350
41801W        W14226  19.065  39.973  11.587
41802W        W14227   3.866  26.910   2.581
41803W        W14228  38.010   5.377  14.427
41804W        W14229  18.609  27.509  11.118
41805W        W14230  18.633   7.323  10.258
41806W        W14231  23.492  24.575  14.833
41807W        W14232  35.869  10.585  12.145
41808W        W14233   7.720  24.170  11.557
41809W        W14234  31.523  29.759   2.515
41810W        W14235  39.833  20.212  13.158
41811W        W14236  18.604   9.201  12.500
41812W        W14237  43.511   6.074   4.621
41813W        W14238   5.700  17.299  14.336
41814W        W14239   8.143  23.695   0.871
41815W        W14240  14.779  33.645  10.127
41816W        W14241  24.538  43.980  10.267
41817W        W14242  17.565  37.091   1.398
41818W        W14243   5.704   7.931  11.998
41819W        W14244  14.835  38.679  11.023
41820W        W14245   2.391  28.113   4.707
41821W        W14246  10.652   8.977   1.842
41822W        W14247  33.328  13.167   4.471
41823W        W14248  12.469  24.606   4.697
41824W        W14249  26.251  18.767  11.967
41825W        W14250  36.281   2.325  13.103
41826W        W14251   7.667  19.621   0.246
41827W        W14252  33.183  33.372  12.514
41828W        W14253  37.422  23.750  12.570
41829W        W14254  18.681  33.093   4.141
41830W        W14255   0.330  16.322   0.761
41831W        W14256  13.063  34.813   0.084
41832W        W14257  24.545  12.794  13.421
41833W        W14258  13.366  29.029  12.502
41834W        W14259  29.130   4.641   4.048
41835W        W14260  19.784  14.819   1.923
41836W        W14261  18.024   2.793  10.600
41837W        W14262  10.576  31.027  14.487
41838W        W14263   3.793  20.299  14.909
41839W        W14264   7.460  41.335  11.213
41840W        W14265  27.981  29.114  14.685
41841W        W14266  19.664  20.865  12.756
41842W        W14267   0.800  17.310   2.859
41843W        W14268   9.216  33.343  13.034
41844W        W14269  18.285  32.614  12.876
41845W        W14270  40.885  29.531  10.717
41846W        W14271  24.312  15.575   1.144
41847W        W14272  21.712   9.808  11.856
41848W        W14273  42.317  36.966   4.753
41849W        W14274   6.408  40.600   2.719
41850W        W14275  23.057  29.281   1.625
41851W        W14276  26.407  29.022   0.853
41852W        W14277  24.302  14.144  14.962
41853W        W14278  10.400  32.630   1.503
41854W        W14279  20.263   0.463  13.896
41855W        W14280  43.466   3.753  14.134
41856W        W14281   7.224   4.237  14.796
41857W        W14282  42.443  15.274  12.943
41858W        W14283  44.272  43.098  12.537
41859W        W14284   2.900  39.287   3.590
41860W        W14285   2.039  35.266  14.096
41861W        W14286  33.492   4.490   0.062
41862W        W14287  18.303  36.387   1.374
41863W        W14288  18.963  34.374  10.064
41864W        W14289  19.723  21.493  12.210
41865W        W14290  20.707  44.249   0.532
41866W        W14291  42.969   6.391  11.419
41867W        W14292  20.803  29.449  11.142
41868W        W14293  21.920  28.416   1.947
41869W        W14294  30.501  23.056   5.575
41870W        W14295  43.602   5.445   0.889
41871W        W14296   7.735  22.292   1.426
41872W        W14297   8.093  29.525   4.228
41873W        W14298  37.430  18.031   0.069
41874W        W14299  30.456  13.700   0.911
41875W        W14300   4.454  12.558  14.627
41876W        W14301   9.006  22.589  13.262
41877W        W14302  16.707   5.062  11.160
41878W        W14303  42.808  28.534  10.772
41879W        W14304  31.096  38.379  12.394
41880W        W14305  35.641  19.112   4.840
41881W        W14306  31.173  25.006   1.865
41882W        W14307  27.928  23.629  12.547
41883W        W14308  26.179  15.378  10.447
41884W        W14309  20.505  16.677   0.862
41885W        W14310  30.294   5.773  12.512
41886W        W14311  30.032   0.324  12.567
41887W        W14312   1.735  21.626  10.642
41888W        W14313   6.441  34.624  12.789
41889W        W14314  24.599  37.642  13.833
41890W        W14315   6.906  14.056   0.449
41891W        W14316  42.867  25.256  14.985
41892W        W14317  41.355  19.090  13.017
41893W        W14318  26.581  37.792  14.887
41894W        W14319   3.051   3.252   1.342
41895W        W14320  19.216  23.631  12.597
41896W        W14321  12.409  25.765   3.132
41897W        W14322   6.961  33.986   0.262
41898W        W14323   3.386   6.912  14.867
41899W        W14324   3.540   8.246  12.605
41900W        W14325   4.518  33.996  14.297
41901W        W14326   6.813  19.626   0.983
41902W        W14327   2.311  11.657   0.522
41903W        W14328  42.777  24.044   5.418
41904W        W14329  29.672  30.107  11.095
41905W        W14330  34.971  44.416   2.797
41906W        W14331  30.058  10.240  10.462
41907W        W14332  19.178   9.777  11.420
41908W        W14333   2.896  13.064   2.397
41909W        W14334  42.266  25.465  12.224
41910W        W14335  32.520  19.488   2.692
41911W        W14336  10.322  39.298  14.272
41912W        W14337  28.701  22.494  10.675
41913W        W14338  15.531  25.744  13.036
41914W        W14339  10.567  15.207  13.913
41915W        W14340  35.620  30.118  11.921
41916W        W14341  26.176  11.299   3.919
41917W        W14342  23.963  25.990  12.057
41918W        W14343  12.404   1.275  10.720
41919W        W14344  31.997  14.897   4.082
41920W        W14345  19.448  11.140  14.883
41921W        W14346  13.807   5.856  14.060
41922W        W14347  28.971  33.287  13.440
41923W        W14348  32.958  39.062   1.212
41924W        W14349  25.226   3.789   4.096
41925W        W14350  15.050   2.721   4.240
41926W        W14351  12.725  14.281   1.222
41927W        W14352  26.719   2.444  11.413
41928W        W14353  24.905  38.012   5.150
41929W        W14354   3.899   5.914   0.198
41930W        W14355  11.588   5.957  12.057
41931W        W14356  20.616  21.051   2.270
41932W        W14357  26.390  10.965  12.307
41933W        W14358   4.228   9.825   1.237
41934W        W14359  25.480   5.934  13.343
41935W        W14360   6.838  13.711  14.471
41936W        W14361  39.931  23.944   2.970
41937W        W14362  19.180  37.404  14.317
41938W        W14363  25.751   7.672   4.159
41939W        W14364  36.479  11.039   2.164
41940W        W14365  14.296  30.423  10.751
41941W        W14366  12.883   8.063   3.761
41942W        W14367  15.663  19.074  10.538
41943W        W14368  14.048  32.549  10.138
41944W        W14369  36.737  28.152   2.656
41945W        W14370  37.862  21.173  10.467
41946W        W14371  35.453   7.473   1.466
41947W        W14372   9.371  23.759  11.557
41948W        W14373  23.953  22.652   5.045
41949W        W14374  26.800   2.689   2.362
41950W        W14375  12.931  13.241   3.883
41951W        W14376   9.719   8.344  12.716
41952W        W14377  19.723  18.824  10.713
41953W        W14378   4.555  40.044   2.363
41954W        W14379  30.709   7.343  11.748
41955W        W14380  32.964  12.907   4.197
41956W        W14381  20.754  10.385  10.490
41957W        W14382   0.274  13.841   3.445
41958W        W14383  18.928  38.317   2.670
41959W        W14384   3.893  19.604  10.529
41960W        W14385  44.799  23.271  10.607
41961W        W14386   2.149  38.399  11.424
41962W        W14387   4.873   9.571  12.990
41963W        W14388   9.173  27.501  12.106
41964W        W14389   6.473  11.177  13.581
41965W        W14390   9.708  36.515   4.391
41966W        W14391  44.380  35.992   0.555
41967W        W14392   2.856  33.800  14.810
41968W        W14393  14.697  15.118  11.527
41969W        W14394  36.622  44.704  13.409
41970W        W14395  22.035  30.436   2.708
41971W        W14396  19.114   7.767   0.367
41972W        W14397  42.399  35.796   1.219
41973W        W14398  22.707  42.025   0.315
41974W        W14399   9.261  40.204  13.476
41975W        W14400   2.608  19.789   4.902
41976W        W14401  38.869  26.467   3.584
41977W        W14402   0.461   2.196   0.188
41978W        W14403  20.029  29.601  13.398
41979W        W14404  33.507   4.684   3.290
41980W        W14405  36.977  33.043  12.110
41981W        W14406  19.588  24.105  10.908
41982W        W14407  18.987  20.240  10.512
41983W        W14408  44.270  38.606   2.524
41984W        W14409   3.281  34.395  12.018
41985W        W14410  11.208  25.621  12.383
41986W        W14411  20.220   4.183  11.556
41987W        W14412   5.140  43.923  11.993
41988W        W14413  20.202   6.457   4.583
41989W        W14414  24.248   0.822   5.047
41990W        W14415  23.107  35.329  13.448
41991W        W14416  29.061  10.759  14.438
41992W        W14417   9.133  21.496  14.256
41993W        W14418   1.894  42.618  10.619
41994W        W14419  23.372  24.408   0.710
41995W        W14420  26.889   9.654   4.567
41996W        W14421  38.070  17.299   2.015
41997W        W14422   3.474   1.913   0.464
41998W        W14423  11.268  24.283  14.497
41999W        W14424  39.939  21.295   0.338
42000W        W14425   0.565  24.924   5.003
42001W        W14426   5.475   6.129   2.325
42002W        W14427  42.457  44.965  13.922
42003W        W14428   8.696  26.731  14.345
42004W        W14429  24.672  40.416  12.983
42005W        W14430  20.373  18.246   3.088
42006W        W14431  39.343  39.094  12.345
42007W        W14432   4.996   2.394   3.744
42008W        W14433   0.282  23.430  13.938
42009W        W14434  24.217   3.691  12.773
42010W        W14435  44.797  33.697  11.035
42011W        W14436  42.482  19.777   3.573
42012W        W14437  36.229  16.937  13.251
42013W        W14438  20.513   8.305   1.802
42014W        W14439  35.172  42.007  13.090
42015W        W14440  35.034  25.678  14.467
42016W        W14441  38.453  36.274   0.856
42017W        W14442  40.232  18.633  14.589
42018W        W14443  26.392  42.500  14.776
42019W        W14444  30.073  29.164   3.338
42020W        W14445  18.153   2.423   0.194
42021W        W14446   0.083  19.969  14.862
42022W        W14447  38.295  12.382   1.694
42023W        W14448  31.061  11.165  12.024
42024W        W14449   9.275  11.905  11.493
42025W        W14450  22.510  44.024   4.898
42026W        W14451  24.381  30.676  11.998
42027W        W14452  25.986  14.681   1.215
42028W        W14453   2.041  35.553   3.630
42029W        W14454  40.150  20.764  10.146
42030W        W14455  25.288  43.339  14.321
42031W        W14456  24.231  10.087   3.167
42032W        W14457   6.119  19.095  12.171
42033W        W14458  36.067  25.416  10.757
42034W        W14459  22.008  16.154  13.360
42035W        W14460  38.310  20.576  11.179
42036W        W14461   4.319  11.867   3.750
42037W        W14462  34.473   8.866  12.513
42038W        W14463  21.076  32.107  14.014
42039W        W14464  32.687  22.590  12.008
42040W        W14465   0.665  29.385  13.335
42041W        W14466  12.641  29.159   3.215
42042W        W14467   5.772  16.883   1.924
42043W        W14468  15.019  27.980   1.315
42044W        W14469  25.935  11.617  13.963
42045W        W14470  31.470   2.659  11.449
42046W        W14471  24.180   4.677   1.915
42047W        W14472  24.933  17.699  14.534
42048W        W14473   2.367  36.985   1.212
42049W        W14474  43.457  18.939  13.962
42050W        W14475  29.443   2.982  11.032
42051W        W14476  22.006  41.470   3.869
42052W        W14477  24.180   3.757   4.286
42053W        W14478  27.180   0.710   3.250
42054W        W14479  32.070  19.251   4.315
42055W        W14480   5.655  35.821   2.914
42056W        W14481   4.219  15.821  14.891
42057W        W14482  13.879  29.469  10.764
42058W        W14483  22.190  30.717  14.987
42059W        W14484  11.050  12.398  11.913
42060W        W14485  26.521  33.108  10.670
42061W        W14486   6.394  10.755   0.432
42062W        W14487  26.202   2.807   4.644
42063W        W14488   8.010  31.559   4.709
42064W        W14489  44.943   3.250   0.848
42065W        W14490   8.322  27.764  12.260
42066W        W14491  19.036  43.847   2.817
42067W        W14492  21.542   8.444   1.398
42068W        W14493   6.719  44.776  11.474
42069W        W14494  24.023  36.559   4.772
42070W        W14495  36.357  20.551  12.053
42071W        W14496  22.528  39.872   3.742
42072W        W14497   0.365   6.167   2.366
42073W        W14498   2.406  18.228   0.752
42074W        W14499  42.264   7.889  11.583
42075W        W14500  24.292  30.160  10.612
42076W        W14501  44.709   4.436  14.084
42077W        W14502  25.050  16.227  13.801
42078W        W14503  13.627  41.806   3.306
42079W        W14504  44.959  22.614   3.851
42080W        W14505   4.777  24.166   5.114
42081W        W14506  36.284   0.794   1.859
42082W        W14507  20.048  27.228   3.675
42083W        W14508  25.120  25.043   2.581
42084W        W14509  37.597  43.567  11.592
42085W        W14510  24.039   2.233   3.590
42086W        W14511  26.648   7.300   2.703
42087W        W14512   2.649  17.581   3.790
42088W        W14513  41.229  27.446  12.733
42089W        W14514  34.910  25.415   3.222
42090W        W14515  40.152  35.730   3.497
42091W        W14516   8.926   8.430  13.539
42092W        W14517  12.827  17.126  14.897
42093W        W14518  29.318  15.143   1.974
42094W        W14519  35.501  33.489  13.713
42095W        W14520  42.388  16.554  10.802
42096W        W14521   6.482  12.691   0.199
42097W        W14522   1.319   9.931  10.725
42098W        W14523   9.700  10.099  12.983
42099W        W14524   1.922  19.152  13.091
42100W        W14525  12.364  42.769   1.895
42101W        W14526  36.645  28.860   4.209
42102W        W14527  43.003   0.462   0.411
42103W        W14528   2.832  19.525   2.341
42104W        W14529  20.119  10.292   4.624
42105W        W14530   8.337  16.359   3.632
42106W        W14531  39.255  34.964   2.315
42107W        W14532  34.577  26.583   2.794
42108W        W14533   0.524  26.954  12.500
42109W        W14534  34.589  11.812   1.293
42110W        W14535  14.917  33.037   4.034
42111W        W14536  35.526  21.597   0.916
42112W        W14537  34.818  14.774  14.969
42113W        W14538  37.438  29.576  10.516
42114W        W14539   9.559  13.049  11.955
42115W        W14540  37.515  38.844   0.631
42116W        W14541  42.514  32.386  14.538
42117W        W14542  43.273  20.580   1.246
42118W        W14543  20.951  39.842  11.125
42119W        W14544  31.050  23.444   1.870
42120W        W14545  33.947  31.103  14.097
42121W        W14546  38.913  42.764  14.500
42122W        W14547  29.460  12.432  14.828
42123W        W14548  35.997  35.909   1.049
42124W        W14549  32.583  29.387   1.751
42125W        W14550  15.612  19.157   1.643
42126W        W14551  29.868  43.889  11.068
42127W        W14552  13.180  18.517  11.894
42128W        W14553  20.859  20.597  14.109
42129W        W14554   6.287  23.039   1.819
42130W        W14555  37.085  13.898   3.563
42131W        W14556   0.046  22.689  14.483
42132W        W14557  24.254  35.524  12.149
42133W        W14558   2.667  36.130   1.252
42134W        W14559  44.000  28.097  10.656
42135W        W14560  31.417   3.360   4.397
42136W        W14561  22.416  17.395   5.025
42137W        W14562  35.993  28.967  10.585
42138W        W14563   7.658  39.965   0.300
42139W        W14564  35.109  22.533  10.061
42140W        W14565  38.035  35.363   4.319
42141W        W14566  24.488   9.448  14.370
42142W        W14567  18.972  37.680  11.178
42143W        W14568  28.501  17.178   3.204
42144W        W14569  44.780  19.262   4.673
42145W        W14570  29.941  36.515   4.265
42146W        W14571  19.100  19.622   1.901
42147W        W14572  17.073  40.580   4.152
42148W        W14573   1.958  11.258   4.624
42149W        W14574  41.729  43.568  14.032
42150W        W14575  43.409  29.908  11.945
42151W        W14576   2.938   8.166   1.800
42152W        W14577  39.751   2.323   2.001
42153W        W14578  38.120  36.587   4.832
42154W        W14579  38.378  37.608   2.269
42155W        W14580  29.366  40.540  14.633
42156W        W14581  30.909  16.645   0.399
42157W        W14582  17.290  40.260  13.640
42158W        W14583  17.284  11.482   1.869
42159W        W14584  41.446  40.326   2.200
42160W        W14585  42.750  35.470  14.002
42161W        W14586  38.848  35.245  11.530
42162W        W14587  42.844  14.920   0.199
42163W        W14588  11.536  16.026   5.120
42164W        W14589   8.433  12.870   0.845
42165W        W14590  37.979   1.164   1.329
42166W        W14591  26.235  41.746  13.101
42167W        W14592  43.382   3.716   0.484
42168W        W14593  23.040  37.362  13.013
42169W        W14594  10.615   1.321   4.206
42170W        W14595  36.473  41.342   0.872
42171W        W14596  12.607  26.787  12.964
42172W        W14597  13.864  37.172  10.747
42173W        W14598  41.506  20.570  10.659
42174W        W14599   1.248   7.955   1.308
42175W        W14600  27.748  12.057   0.030
42176W        W14601  18.088  44.772  12.624
42177W        W14602  32.648  36.628   2.433
42178W        W14603  31.565  23.182   0.330
42179W        W14604  16.640  38.855   3.746
42180W        W14605  27.189   7.887   1.314
42181W        W14606   1.443   7.784   4.506
42182W        W14607   5.894  33.178  11.205
42183W        W14608  35.010  17.034  11.760
42184W        W14609   2.057  21.806   1.854
42185W        W14610  26.869  19.501  13.395
42186W        W14611  36.440   2.391  13.586
42187W        W14612   2.357   3.472   5.169
42188W        W14613  16.796  14.065   0.458
42189W        W14614   4.227   7.368  13.069
42190W        W14615  26.043  35.030   2.308
42191W        W14616  20.626  39.408   1.692
42192W        W14617   1.314  32.234   1.302
42193W        W14618   3.393  35.436  13.128
42194W        W14619  29.741   4.197  14.624
42195W        W14620  39.340  25.123  11.502
42196W        W14621   7.116  13.132  13.858
42197W        W14622  38.760  32.398  11.104
42198W        W14623  39.430  21.293   2.172
42199W        W14624  16.708  17.363   1.711
42200W        W14625  10.144  31.997   3.260
42201W        W14626  17.995  38.420  11.890
42202W        W14627  34.544  10.390  12.377
42203W        W14628  44.417  31.330  13.886
42204W        W14629  43.764   9.876   3.299
42205W        W14630  39.764   4.277  13.489
42206W        W14631  24.179  39.777  12.428
42207W        W14632  30.855   1.466   1.713
42208W        W14633  26.679  25.068  14.879
42209W        W14634  43.507   9.455  10.986
42210W        W14635   4.655  16.227   4.303
42211W        W14636  13.236  33.075   0.124
42212W        W14637   5.562   5.982   0.043
42213W        W14638   5.815  42.530  12.718
42214W        W14639  43.828  11.284  12.089
42215W        W14640  28.471   6.756  10.189
42216W        W14641  19.264  16.162   4.091
42217W        W14642  19.701  13.605  14.111
42218W        W14643  22.531  32.137   5.050
42219W        W14644  38.452  10.349  14.889
42220W        W14645  16.266  11.684   0.634
42221W        W14646   0.870   2.743  11.988
42222W        W14647   5.423  33.664  14.815
42223W        W14648  19.858  27.604  11.571
42224W        W14649  34.807   2.235  12.186
42225W        W14650  30.050  22.920   0.478
42226W        W14651   7.908   4.111   1.003
42227W        W14652  38.536   1.320   4.753
42228W        W14653  11.101  30.699   0.345
42229W        W14654   0.444  43.055   5.029
42230W        W14655  22.569  10.412   2.524
42231W        W14656  31.770  39.664   2.480
42232W        W14657  14.766  16.300   2.878
42233W        W14658  39.262  25.105   1.887
42234W        W14659  23.747  44.129  13.892
42235W        W14660  43.784   3.726  10.372
42236W        W14661   4.172   3.252   2.761
42237W        W14662  42.437  16.138  12.720
42238W        W14663  33.472   7.667   3.079
42239W        W14664  38.593  18.064  12.502
42240W        W14665  15.762  19.657  11.960
42241W        W14666  26.134  27.191   0.923
42242W        W14667  18.693  35.901  10.974
42243W        W14668  31.231  11.093  12.993
42244W        W14669  26.646   6.836  11.211
42245W        W14670  16.942  19.540  11.106
42246W        W14671   7.068  40.734  12.750
42247W        W14672  37.186  12.728  10.343
42248W        W14673  36.019  19.985  13.496
42249W        W14674  39.825  38.815   2.302
42250W        W14675   2.959  20.705  11.836
42251W        W14676  27.147  31.298   4.144
42252W        W14677  30.019  28.246  11.637
42253W        W14678  14.200  23.524  13.032
42254W        W14679   6.193   8.698   9.787
42255W        W14680  42.503  17.620   4.139
42256W        W14681  14.659  17.950  10.316
42257W        W14682  44.551  40.531   3.104
42258W        W14683   7.926  40.883  12.676
42259W        W14684  21.733  11.862  14.106
42260W        W14685   4.413  36.786  11.509
42261W        W14686  20.214  37.897   0.892
42262W        W14687  16.941  17.714  11.039
42263W        W14688  36.162   2.125   2.677
42264W        W14689   3.393  40.455  13.258
42265W        W14690  31.050   6.115  10.736
42266W        W14691  15.855  13.324  11.094
42267W        W14692  32.010  22.230  13.520
42268W        W14693  26.669  15.364   1.524
42269W        W14694  25.120  34.896   2.436
42270W        W14695  34.688  26.164   0.773
42271W        W14696  14.786  28.243  11.182
42272W        W14697  21.494  29.258   1.805
42273W        W14698  14.146  32.159  14.240
42274W        W14699  10.138  33.371  11.636
42275W        W14700  20.239  21.539  11.994
42276W        W14701  22.603  36.952   2.695
42277W        W14702  40.924   2.709   0.860
42278W        W14703  19.211  16.422   4.556
42279W        W14704  43.079  30.741  11.288
42280W        W14705  22.431  37.984  10.178
42281W        W14706  42.960  12.795  11.932
42282W        W14707   8.197  12.781  11.560
42283W        W14708   2.996   7.372   4.558
42284W        W14709  42.062  12.371   3.356
42285W        W14710  15.291  38.532  13.877
42286W        W14711  19.310  37.800  14.663
42287W        W14712  38.355  31.538   3.207
42288W        W14713  17.833  32.932  13.764
42289W        W14714  42.039   7.908  10.687
42290W        W14715   2.339  11.603   1.896
42291W        W14716   3.674   7.818  14.852
42292W        W14717  25.775  33.439   1.900
42293W        W14718  20.297  18.873  13.894
42294W        W14719  11.657  41.764   5.211
42295W        W14720  30.592  17.786   1.953
42296W        W14721  31.625  29.503   4.123
42297W        W14722   3.677  20.008   0.358
42298W        W14723  13.395  36.489   2.785
42299W        W14724  30.228  25.717  13.534
42300W        W14725  12.719  19.558  10.814
42301W        W14726  11.404   6.886   1.696
42302W        W14727  10.817  15.888  11.832
42303W        W14728  15.234   5.593   4.171
42304W        W14729  15.217  44.646   1.298
42305W        W14730  44.678  32.214  11.128
42306W        W14731  32.322   1.696   5.051
42307W        W14732  42.969  33.053   3.646
42308W        W14733  26.717  36.581  11.247
42309W        W14734   3.430   1.236  11.240
42310W        W14735  29.643  30.456   4.658
42311W        W14736  40.882   5.641   3.704
42312W        W14737  42.499  39.296   4.603
42313W        W14738  32.610  37.368  13.038
42314W        W14739  12.817   0.252   2.141
42315W        W14740  44.460   7.164  10.217
42316W        W14741  13.796  24.440   2.817
42317W        W14742  12.328  29.685  12.556
42318W        W14743   2.398   2.182   2.855
42319W        W14744   7.351   2.313  14.704
42320W        W14745  14.613  11.169   4.142
42321W        W14746   2.511  42.960  12.540
42322W        W14747  40.320   5.727   4.075
42323W        W14748  18.223   5.363   4.386
42324W        W14749   1.215  10.591   2.425
42325W        W14750  10.831  25.127   4.161
42326W        W14751  15.087  25.785  10.629
42327W        W14752  13.186  19.511   4.039
42328W        W14753   6.927  25.178  14.898
42329W        W14754   7.119  15.360  12.427
42330W        W14755  41.833  27.643  13.368
42331W        W14756  14.288  34.057  12.598
42332W        W14757  27.948  40.786   2.761
42333W        W14758   9.588   3.317   0.610
42334W        W14759  16.608  13.093  11.943
42335W        W14760  35.953  22.637  13.058
42336W        W14761  10.706  37.939   3.787
42337W        W14762   9.920  12.152   2.628
42338W        W14763  16.705  14.600   0.480
42339W        W14764  14.085  19.789   0.237
42340W        W14765  25.053  26.511   2.752
42341W        W14766  30.146  38.478  10.700
42342W        W14767  18.580  27.227   1.347
42343W        W14768  28.369  19.311   4.776
42344W        W14769   4.883  39.416  11.966
42345W        W14770  17.592  26.784  12.909
42346W        W14771   2.439   8.761  13.891
42347W        W14772  31.620  32.636   4.857
42348W        W14773  10.126  27.459   2.252
42349W        W14774  37.386  21.656  14.342
42350W        W14775   5.129  39.489   2.667
42351W        W14776  25.218  23.481   2.811
42352W        W14777  35.285  24.708  14.384
42353W        W14778  40.440  29.952   4.331
42354W        W14779  20.097  14.347   3.154
42355W        W14780   0.900   8.045   1.694
42356W        W14781  43.671   3.417   9.933
42357W        W14782  22.558  23.691   4.569
42358W        W14783  29.398  15.181   0.187
42359W        W14784   3.419  40.825  11.615
42360W        W14785  35.860  39.378   0.243
42361W        W14786  33.363  14.511   4.531
42362W        W14787   4.835  16.617  11.860
42363W        W14788   5.334  35.719   3.315
42364W        W14789  22.945  11.242   4.177
42365W        W14790  26.365   4.556   0.302
42366W        W14791   3.360  14.725   1.704
42367W        W14792  43.876   6.461  12.336
42368W        W14793  38.845  23.585  12.141
42369W        W14794  27.973   1.494   3.333
42370W        W14795   6.336   8.304  10.875
42371W        W14796  31.702  11.586   4.448
42372W        W14797  39.305  32.015  13.324
42373W        W14798   3.206  18.298   3.208
42374W        W14799  27.962  31.977   1.807
42375W        W14800  43.555  20.000  10.110
42376W        W14801  25.563  42.229  13.668
42377W        W14802  24.293  36.074   0.367
42378W        W14803  18.083  42.477  12.607
42379W        W14804  33.121  37.764   0.262
42380W        W14805  25.515  23.708  10.690
42381W        W14806  33.474  42.803   4.206
42382W        W14807  36.391  38.081  10.517
42383W        W14808  33.257  28.335   0.317
42384W        W14809  27.042  23.526   1.831
42385W        W14810  32.794  19.574   3.151
42386W        W14811  29.999  26.203  14.438
42387W        W14812  38.308  12.269   0.379
42388W        W14813   0.354  27.671   0.831
42389W        W14814  24.103   4.221  11.334
42390W        W14815  14.428  12.050   1.470
42391W        W14816  28.448  22.611  14.424
42392W        W14817   7.833  27.966   3.203
42393W        W14818  35.183  37.605  12.045
42394W        W14819  38.319  27.591   2.398
42395W        W14820  20.153  33.323  12.705
42396W        W14821   5.460  39.729   3.767
42397W        W14822  26.564   9.611   3.337
42398W        W14823  12.121   6.626  11.927
42399W        W14824  34.936  32.022  13.362
42400W        W14825  41.845   7.243  12.586
42401W        W14826   6.883   7.671   4.190
42402W        W14827  39.085  33.922  14.327
42403W        W14828  29.604  31.572   3.323
42404W        W14829   2.121   1.085   3.732
42405W        W14830  18.786  42.534   2.733
42406W        W14831  43.441   9.892  11.979
42407W        W14832  36.704   6.155   5.560
42408W        W14833  25.885   7.244  14.066
42409W        W14834  37.450  31.066  10.702
42410W        W14835  22.597   7.327   0.954
42411W        W14836  19.394  11.944   4.562
42412W        W14837   2.863  14.140   2.327
42413W        W14838   5.302   5.809  12.470
42414W        W14839  33.877  24.964  12.896
42415W        W14840  39.239  33.180   4.534
42416W        W14841  32.118  36.954  13.896
42417W        W14842  27.688  25.218  13.837
42418W        W14843  33.893  10.834   1.830
42419W        W14844  11.167   2.527  14.884
42420W        W14845  31.991   1.603   4.219
42421W        W14846  12.597  14.321   1.970
42422W        W14847  41.514  30.879  11.283
42423W        W14848  24.079  31.128  13.096
42424W        W14849  40.126  36.033   1.355
42425W        W14850   9.813  11.127   0.176
42426W        W14851  22.327  25.452   1.898
42427W        W14852   6.852  31.924  14.226
42428W        W14853  42.321  10.259  11.587
42429W        W14854  24.533  24.302   1.445
42430W        W14855  28.004  38.734  12.824
42431W        W14856  14.620   6.675   3.295
42432W        W14857  28.722  12.171   0.987
42433W        W14858  36.186  44.798   4.399
42434W        W14859  14.275  10.430  12.911
42435W        W14860  16.855  22.092  13.236
42436W        W14861   0.508  32.925  14.444
42437W        W14862  20.054  44.710   3.749
42438W        W14863  10.663  14.867   3.564
42439W        W14864  11.370   2.359  13.311
42440W        W14865  18.046  34.877   2.405
42441W        W14866  43.290   9.180   3.443
42442W        W14867   4.745  26.294   1.365
42443W        W14868  36.531  31.203  12.645
42444W        W14869  37.402  15.397   4.934
42445W        W14870  12.210  24.218   1.273
42446W        W14871  14.584  15.285   3.840
42447W        W14872   2.049  37.219  11.062
42448W        W14873  25.688  21.611   3.690
42449W        W14874  19.700   5.421   0.722
42450W        W14875  31.611  37.412  14.515
42451W        W14876  37.281   0.539  13.968
42452W        W14877  39.935  42.538   0.280
42453W        W14878  15.838   7.658   0.016
42454W        W14879   8.514  28.438   0.386
42455W        W14880  15.056  44.316   3.686
42456W        W14881   4.321  21.609  12.579
42457W        W14882   0.948  24.676   0.304
42458W        W14883  22.250  21.342   2.364
42459W        W14884  42.366   2.099  11.203
42460W        W14885  34.047  12.942  11.558
42461W        W14886  33.673  24.508  14.732
42462W        W14887  19.302   9.869  12.374
42463W        W14888  28.009  42.571   4.352
42464W        W14889  35.668  42.562  14.600
42465W        W14890  31.925  40.014   4.447
42466W        W14891  34.969  39.076  13.976
42467W        W14892  14.106  14.563  14.110
42468W        W14893  41.589  26.897   2.780
42469W        W14894  30.484  15.681   4.345
42470W        W14895   1.553  40.367   3.357
42471W        W14896  17.744  24.495   4.604
42472W        W14897  19.810  24.174  12.111
42473W        W14898   0.017   2.727   3.116
42474W        W14899  16.945  27.378   3.133
42475W        W14900  43.056  36.299  10.794
42476W        W14901   3.504  26.569  10.159
42477W        W14902  32.354   5.497   3.245
42478W        W14903  22.612  30.005   1.044
42479W        W14904  32.366  12.724   0.927
42480W        W14905   9.828  14.596  14.967
42481W        W14906  15.109  27.363  12.155
42482W        W14907  22.653  31.454  14.935
42483W        W14908  21.368  34.124  11.479
42484W        W14909  42.242  21.670  10.982
42485W        W14910  31.981  25.012   2.278
42486W        W14911  23.984  26.168   1.864
42487W        W14912  10.723  34.040   0.440
42488W        W14913  10.356   6.789   0.398
42489W        W14914  36.843  23.609   2.577
42490W        W14915  10.851  14.705  13.019
42491W        W14916  40.006   6.709  12.097
42492W        W14917   2.735  19.445   4.555
42493W        W14918  22.308   8.937   1.907
42494W        W14919  35.341   4.743  14.509
42495W        W14920  31.649  11.872  10.585
42496W        W14921  33.370  10.773  13.439
42497W        W14922  12.412  26.653   0.805
42498W        W14923  25.399  32.988   0.417
42499W        W14924  31.514  27.267   4.917
42500W        W14925   3.619  14.587   2.706
42501W        W14926   3.184  11.747   2.631
42502W        W14927  34.793  13.552  11.222
42503W        W14928  16.173  15.614   2.813
42504W        W14929  14.614  40.051   1.416
42505W        W14930   3.262  19.006  14.861
42506W        W14931  41.020  29.053  13.475
42507W        W14932  18.712  41.377   0.433
42508W        W14933  38.352   2.458   3.423
42509W        W14934  18.746  15.599   3.543
42510W        W14935  25.578  26.053  13.905
42511W        W14936   8.712  37.814   3.288
42512W        W14937  19.684  16.805  10.763
42513W        W14938   4.622   2.248  11.053
42514W        W14939  18.812  21.705   4.061
42515W        W14940  44.189  41.480  13.528
42516W        W14941   3.789  27.910   2.823
42517W        W14942  14.609  14.829   2.172
42518W        W14943   4.231  10.213  11.117
42519W        W14944  36.503  19.288  11.512
42520W        W14945  13.882  31.615   2.144
42521W        W14946  24.068  11.383  12.164
42522W        W14947   5.770  29.659  13.264
42523W        W14948  41.816  41.046   0.836
42524W        W14949  16.788  26.114   2.635
42525W        W14950  27.222  44.285  13.375
42526W        W14951  30.784  24.005  12.770
42527W        W14952  43.734  30.049  11.504
42528W        W14953  44.237  27.842   3.628
42529W        W14954  22.246   3.843   2.663
42530W        W14955   9.228  21.012   0.194
42531W        W14956  15.761  18.523   4.064
42532W        W14957   7.319  20.092   4.356
42533W        W14958  34.612  18.377  14.278
42534W        W14959  29.695  22.670  13.044
42535W        W14960  22.098  28.099   2.312
42536W        W14961  43.888  13.823   4.905
42537W        W14962   9.339  40.029   2.394
42538W        W14963  43.991  34.986   2.639
42539W        W14964  33.365  44.494   2.413
42540W        W14965  36.417  41.440  13.234
42541W        W14966  20.146  41.173   1.729
42542W        W14967  23.508  34.291  13.017
42543W        W14968  34.202  41.808  13.221
42544W        W14969  18.124   6.726  11.785
42545W        W14970   6.842   3.182   1.368
42546W        W14971  20.192   2.650  12.847
42547W        W14972  29.097  24.811   9.582
42548W        W14973  22.616  36.104   1.746
42549W        W14974  15.891  33.097  12.008
42550W        W14975  43.944  33.628   9.935
42551W        W14976  44.291  30.632  11.955
42552W        W14977  31.328  12.683   3.130
42553W        W14978  15.901  35.912   0.679
42554W        W14979  18.411  27.122   0.870
42555W        W14980  37.854  29.176  13.168
42556W        W14981  32.056  14.174   2.752
42557W        W14982   6.403  33.897  12.177
42558W        W14983  42.516  17.245   1.248
42559W        W14984  15.389  19.314  14.426
42560W        W14985   3.641  41.029   1.410
42561W        W14986  14.610   8.114   1.025
42562W        W14987  11.840  15.299   1.149
42563W        W14988  25.461   3.616   2.411
42564W        W14989  35.759  25.937   4.587
42565W        W14990  18.066  26.606   2.345
42566W        W14991  14.706   1.223   4.555
42567W        W14992   4.794  17.580   5.143
42568W        W14993  29.611  21.496   2.892
42569W        W14994  37.864  44.111   0.886
42570W        W14995  37.919  26.828  10.400
42571W        W14996   6.638  43.541   2.902
42572W        W14997  30.444  40.578  13.430
42573W        W14998  44.018   0.215  12.775
42574W        W14999   9.794  30.903  14.016
42575W        W15000  13.723   0.915  14.130
42576W        W15001  43.721   9.866  14.774
42577W        W15002   4.302  38.959  11.451
42578W        W15003  29.592  41.810   1.660
42579W        W15004  40.427  44.915  11.141
42580W        W15005  40.998  22.114   3.836
42581W        W15006  16.082  26.457  11.528
42582W        W15007   3.702  44.260   3.374
42583W        W15008  29.500  39.372   2.436
42584W        W15009   8.690  32.998   1.792
42585W        W15010  38.723   5.113   0.810
42586W        W15011  27.512  37.553   3.722
42587W        W15012   3.196  41.392  13.615
42588W        W15013  18.532  15.904  13.065
42589W        W15014  20.548  20.357   1.488
42590W        W15015  30.614  26.659   1.308
42591W        W15016  33.932  44.026   1.662
42592W        W15017  38.335  11.798  11.426
42593W        W15018  38.778   5.723   3.706
42594W        W15019  43.119  22.859  10.188
42595W        W15020  14.241  15.566  13.819
42596W        W15021   3.937   3.804   4.687
42597W        W15022   3.911  22.992   0.386
42598W        W15023  25.685  23.419  13.359
42599W        W15024   2.263  18.294   2.219
42600W        W15025  15.828   7.326   2.221
42601W        W15026  27.555  10.903   3.616
42602W        W15027  16.636   4.123  11.445
42603W        W15028   7.521  36.467   2.701
42604W        W15029  29.574  23.205  13.275
42605W        W15030  19.258  31.610  11.674
42606W        W15031  25.978   3.466  14.781
42607W        W15032  34.966  11.753  12.975
42608W        W15033  44.153   1.019   0.812
42609W        W15034  18.798   4.323   3.393
42610W        W15035  18.392  17.617   3.144
42611W        W15036  32.935   6.718  11.452
42612W        W15037  15.432  27.117  10.570
42613W        W15038  36.377  44.827  12.949
42614W        W15039  37.940  31.603  11.330
42615W        W15040  42.842  33.428   0.617
42616W        W15041  20.547  38.264   4.093
42617W        W15042   1.837   7.917   3.104
42618W        W15043  33.687  30.655   4.150
42619W        W15044  10.728  20.554  14.624
42620W        W15045  15.726   9.027  10.487
42621W        W15046  17.274   2.889  13.417
42622W        W15047   1.659   9.584   0.794
42623W        W15048  12.191  10.227  11.900
42624W        W15049  37.673  42.351   0.740
42625W        W15050  40.832  42.242   2.282
42626W        W15051  18.619  22.142  11.204
42627W        W15052  44.206  25.595  14.167
42628W        W15053   6.329   1.398   4.024
42629W        W15054  31.527  24.641   1.862
42630W        W15055  25.602  35.406  11.172
42631W        W15056  24.120   0.198  12.101
42632W        W15057  17.911   3.963   2.447
42633W        W15058  42.031  26.759   4.263
42634W        W15059  32.120  26.481   4.134
42635W        W15060  34.489   3.670   3.749
42636W        W15061  39.290  26.620  13.924
42637W        W15062  35.545  29.734  13.130
42638W        W15063  43.869   5.365  10.893
42639W        W15064  28.429  25.748  11.831
42640W        W15065  20.552  15.333  13.072
42641W        W15066  24.781  13.905   1.823
42642W        W15067  20.520  23.898  14.335
42643W        W15068  36.056  44.877  11.499
42644W        W15069  15.120  10.285  11.930
42645W        W15070  44.201  13.802  14.415
42646W        W15071  36.020  21.620   4.917
42647W        W15072  32.474   7.704  11.735
42648W        W15073   4.000  16.202  10.720
42649W        W15074  40.489  44.378   0.262
42650W        W15075   3.611   5.355   4.947
42651W        W15076   9.101  42.303   3.210
42652W        W15077  21.634  14.496   4.214
42653W        W15078  24.607   3.308  14.314
42654W        W15079   7.637   8.950   2.829
42655W        W15080   9.825  25.442   4.950
42656W        W15081  25.757  32.575   1.921
42657W        W15082  39.087   3.716   0.298
42658W        W15083  16.308  27.714   4.571
42659W        W15084  42.540  15.778   1.240
42660W        W15085  10.269  19.856  14.959
42661W        W15086  35.520  22.728   3.185
42662W        W15087  32.614  19.829  12.467
42663W        W15088  38.338  19.248  13.893
42664W        W15089   7.871  27.470   2.003
42665W        W15090   1.803  10.254  14.990
42666W        W15091  35.439  25.485  12.984
42667W        W15092  35.117   7.073  14.456
42668W        W15093  19.689  28.217  13.095
42669W        W15094  40.534  23.175  14.840
42670W        W15095   7.872  43.190   3.197
42671W        W15096  29.148  21.652   3.676
42672W        W15097   7.761  34.997  14.064
42673W        W15098  35.888  38.812  12.692
42674W        W15099  34.604  11.354  13.460
42675W        W15100  35.402  41.631   2.823
42676W        W15101  30.594   6.643  14.003
42677W        W15102  39.104  42.552   2.793
42678W        W15103  36.467  24.717  11.679
42679W        W15104  14.811   6.693  11.581
42680W        W15105   0.223  28.422   1.916
42681W        W15106   5.574  38.393  14.901
42682W        W15107  15.766  36.139   2.643
42683W        W15108  30.507  19.868  13.875
42684W        W15109  18.008  36.463   4.894
42685W        W15110   1.954  34.553   1.130
42686W        W15111  26.012   6.657   1.631
42687W        W15112  18.721  30.651  13.034
42688W        W15113  27.671  10.494  12.056
42689W        W15114  25.104   1.297  12.903
42690W        W15115  19.739  33.542  12.953
42691W        W15116  19.174   6.806  10.437
42692W        W15117  20.017  30.184  12.902
42693W        W15118   2.283  43.460   1.188
42694W        W15119  39.306  29.509   0.390
42695W        W15120   9.286  31.077  14.092
42696W        W15121  27.971  18.514  14.832
42697W        W15122  40.009  34.286  10.713
42698W        W15123  43.752  27.133   4.764
42699W        W15124  19.313  11.122   0.377
42700W        W15125  26.765   6.114   4.232
42701W        W15126  14.637  22.983  14.966
42702W        W15127  18.061  25.753  11.046
42703W        W15128  22.150  31.444   0.672
42704W        W15129  14.317  31.091  14.269
42705W        W15130  26.251   8.722  11.885
42706W        W15131  10.116  38.076  11.700
42707W        W15132  39.316  21.778   4.983
42708W        W15133  11.702  22.080   5.332
42709W        W15134  33.100  43.585  13.178
42710W        W15135  19.851  36.054   4.124
42711W        W15136  22.006  34.846   4.186
42712W        W15137  38.332  34.348  13.363
42713W        W15138  28.125  22.274   2.457
42714W        W15139  30.179  18.915  11.121
42715W        W15140   2.145  36.793   2.888
42716W        W15141  16.601  29.542   0.726
42717W        W15142  22.002  44.019   0.778
42718W        W15143   9.399  38.363  11.969
42719W        W15144  44.284  32.813   2.289
42720W        W15145  32.400  27.940   4.134
42721W        W15146  40.025  43.846   1.893
42722W        W15147  33.313  12.091  12.068
42723W        W15148  32.788  44.181  11.536
42724W        W15149  20.596   4.061  14.932
42725W        W15150  36.648   7.736   1.238
42726W        W15151  40.766  37.589   4.261
42727W        W15152  36.350   8.326  14.035
42728W        W15153  37.498  27.335  11.959
42729W        W15154  28.190  27.746   4.582
42730W        W15155  17.267  40.069  12.812
42731W        W15156  13.486  23.697   5.551
42732W        W15157  20.303  44.320  14.258
42733W        W15158  37.016   4.997   0.399
42734W        W15159   8.625  35.422   4.452
42735W        W15160   8.225  41.485  14.226
42736W        W15161  23.231   5.876   0.300
42737W        W15162  29.438  24.736  12.591
42738W        W15163  16.312  41.830  11.565
42739W        W15164  35.702   9.812   1.842
42740W        W15165  10.169  19.062   0.390
42741W        W15166  23.197  10.773   3.583
42742W        W15167  26.632  34.903  11.399
42743W        W15168  10.095  13.140   1.867
42744W        W15169  24.197  19.747   0.933
42745W        W15170  42.892  32.290  11.931
42746W        W15171  25.200  44.235  12.591
42747W        W15172  17.589  27.979   2.448
42748W        W15173  14.694  38.547   2.266
42749W        W15174   7.292  36.848   2.950
42750W        W15175   0.377   7.914   4.495
42751W        W15176  35.433  43.537   2.824
42752W        W15177  33.116  22.676   1.023
42753W        W15178  36.009  10.947   1.007
42754W        W15179   1.709  28.984  10.914
42755W        W15180  29.890  22.757  12.481
42756W        W15181  15.221  28.398   1.665
42757W        W15182  40.004   8.377   4.149
42758W        W15183  29.003  17.086   3.212
42759W        W15184  43.787   0.720   3.330
42760W        W15185  14.299  19.971   4.342
42761W        W15186  33.082  31.653   5.174
42762W        W15187  17.318   8.867   3.142
42763W        W15188  42.780  40.897  13.081
42764W        W15189   4.948  20.592   3.744
42765W        W15190   5.034  14.967  14.000
42766W        W15191  14.150  32.884   4.127
42767W        W15192  44.947  31.602   2.333
42768W        W15193  10.762   7.328   2.862
42769W        W15194  22.624  21.556   1.518
42770W        W15195  38.548  32.346  13.258
42771W        W15196  13.279  24.879  13.008
42772W        W15197  43.827  19.567   3.581
42773W        W15198  17.464  22.906  12.625
42774W        W15199  13.592  33.144   2.335
42775W        W15200  28.074  15.782   1.050
42776W        W15201  27.479  13.864  12.545
42777W        W15202  42.342  20.201   4.261
42778W        W15203  19.074   3.039   1.742
42779W        W15204  12.636  11.342  11.682
42780W        W15205   3.292  10.237   0.453
42781W        W15206  13.098  29.658   1.884
42782W        W15207  40.421  19.042   4.863
42783W        W15208   7.224  19.607   1.746
42784W        W15209   3.771  42.403   0.352
42785W        W15210  27.143  22.362   4.819
42786W        W15211  14.644  11.364   0.297
42787W        W15212   8.756   7.371   3.224
42788W        W15213  23.043  41.034  11.118
42789W        W15214  12.610  42.250   2.450
42790W        W15215   8.025  25.575  10.696
42791W        W15216  39.774   4.327  10.644
42792W        W15217  10.599  41.568  10.695
42793W        W15218   8.340  37.441  10.767
42794W        W15219   0.662  41.979   1.531
42795W        W15220  20.577   6.863  10.634
42796W        W15221  40.105   8.142   3.224
42797W        W15222   0.823  27.432   1.302
42798W        W15223  20.635  44.592   1.900
42799W        W15224  42.545  38.453  11.085
42800W        W15225   4.536   3.128  11.616
42801W        W15226  44.602  33.392   3.149
42802W        W15227  31.558  30.578  11.873
42803W        W15228  32.736   6.805  12.696
42804W        W15229  18.486  24.601   1.219
42805W        W15230  26.325  43.508  11.648
42806W        W15231  21.800  32.577   4.502
42807W        W15232   0.262   6.234   0.867
42808W        W15233   4.796  15.746  14.480
42809W        W15234  27.059  39.440  12.844
42810W        W15235   8.751  36.355   1.905
42811W        W15236  35.147   5.289  12.996
42812W        W15237  10.251   3.359  10.836
42813W        W15238  32.948  39.805   4.558
42814W        W15239  22.752  28.187   1.786
42815W        W15240  26.855  12.564   3.186
42816W        W15241  39.022  18.228  14.236
42817W        W15242  32.504  38.580  12.547
42818W        W15243   3.822  37.108  11.889
42819W        W15244  27.556  33.885  10.551
42820W        W15245   0.273  10.205   3.181
42821W        W15246   8.881  29.103   2.566
42822W        W15247   7.419  29.438  11.549
42823W        W15248  21.128  17.153   0.254
42824W        W15249  38.110   0.237  14.460
42825W        W15250  31.962  40.070  12.994
42826W        W15251  39.249  34.633  10.997
42827W        W15252  30.861  23.451   0.509
42828W        W15253  38.840  35.821  13.426
42829W        W15254   9.835  15.103  12.555
42830W        W15255  33.638  18.473   0.487
42831W        W15256  13.581  15.734  10.613
42832W        W15257  38.481   5.763   3.300
42833W        W15258  13.615  15.830  11.446
42834W        W15259   8.864  11.660  11.837
42835W        W15260  10.877  13.273  10.726
42836W        W15261  17.778  10.613  11.422
42837W        W15262  42.376   1.940   1.750
42838W        W15263  36.904  39.984   3.666
42839W        W15264  36.640  43.001  13.926
42840W        W15265  14.821  19.445  13.519
42841W        W15266  26.515  41.603  14.858
42842W        W15267  19.939  38.316  13.967
42843W        W15268  18.288   7.352   0.678
42844W        W15269  12.769   1.507  10.197
42845W        W15270  14.292  41.676   2.995
42846W        W15271  21.525  10.411   2.349
42847W        W15272  21.199  35.895   0.382
42848W        W15273  43.046  37.930   0.730
42849W        W15274  32.402   9.356   4.921
42850W        W15275   2.632  38.737  12.095
42851W        W15276  38.941  34.629  14.832
42852W        W15277  23.596   5.959  13.059
42853W        W15278   2.462  30.246  10.584
42854W        W15279  29.314   4.899   3.642
42855W        W15280   2.797   3.162  12.175
42856W        W15281  29.856  19.755  14.560
42857W        W15282  31.737  18.196   2.495
42858W        W15283  29.838  32.547  12.257
42859W        W15284  21.700  28.009   2.806
42860W        W15285   2.961  13.780  11.093
42861W        W15286  11.616   4.488   1.883
42862W        W15287  15.160  42.312  14.339
42863W        W15288  41.139   3.699   2.710
42864W        W15289   8.635  18.129   0.842
42865W        W15290  32.079   2.698   1.971
42866W        W15291   9.944  40.033  11.996
42867W        W15292  10.851  12.770   0.776
42868W        W15293   4.092   6.913   0.882
42869W        W15294  39.785  30.410  12.956
42870W        W15295  14.949  37.151   0.318
42871W        W15296  13.387  37.083  14.988
42872W        W15297  31.027   3.736   1.359
42873W        W15298  12.732  17.075  13.513
42874W        W15299  10.094  37.346   0.262
42875W        W15300  34.336  13.662  14.877
42876W        W15301  24.118  19.600   3.531
42877W        W15302  38.867  16.370  10.883
42878W        W15303   5.916   7.924   1.169
42879W        W15304  10.198   2.689   0.095
42880W        W15305  33.180  32.526  11.516
42881W        W15306  35.334  13.861  12.531
42882W        W15307  28.675  44.104  12.388
42883W        W15308  36.919  29.440  11.467
42884W        W15309  34.958  25.099   1.865
42885W        W15310  39.307  11.414  11.158
42886W        W15311  23.028   9.282   0.400
42887W        W15312  19.749  40.391   1.455
42888W        W15313  29.905  30.992   0.320
42889W        W15314  35.526  30.670   2.472
42890W        W15315  22.763  20.707   3.312
42891W        W15316  12.255   6.232   3.840
42892W        W15317  25.776   8.985   3.304
42893W        W15318  15.866   3.079  13.359
42894W        W15319   8.629   3.879   3.124
42895W        W15320  10.288  13.175  13.794
42896W        W15321  12.901  30.866   5.031
42897W        W15322  14.873   5.792   2.256
42898W        W15323  15.805  13.394  14.799
42899W        W15324  31.893  16.388   1.693
42900W        W15325  42.777  19.412  13.484
42901W        W15326  37.385  21.937  12.456
42902W        W15327   6.354  32.639   2.699
42903W        W15328  19.011  39.896   1.213
42904W        W15329  40.346   9.151   0.967
42905W        W15330  15.484  26.517   0.706
42906W        W15331   4.490  16.693  10.220
42907W        W15332  29.347  10.522  11.202
42908W        W15333  17.099  32.411   4.688
42909W        W15334  40.159  38.988   4.142
42910W        W15335  36.471  23.428  12.100
42911W        W15336  29.439  22.242  11.104
42912W        W15337   8.898  33.196   5.302
42913W        W15338  43.051  13.622  13.714
42914W        W15339  20.057  12.118   1.403
42915W        W15340  16.103  14.116   0.853
42916W        W15341   0.095   9.247   4.827
42917W        W15342  14.390  34.349   3.098
42918W        W15343  31.180  10.535   3.640
42919W        W15344  31.645  18.779  11.136
42920W        W15345  44.282  39.113  10.058
42921W        W15346  14.759  16.585  11.067
42922W        W15347  23.550  42.967  13.378
42923W        W15348  38.065  37.965  14.892
42924W        W15349   4.944  40.495  13.334
42925W        W15350  18.174  30.877  14.352
42926W        W15351  22.699  30.512   2.370
42927W        W15352  40.841  42.842   0.896
42928W        W15353  39.042   1.970   4.057
42929W        W15354  35.609  32.671   1.287
42930W        W15355  19.366  36.107   0.005
42931W        W15356  35.523   7.443   3.275
42932W        W15357  36.515   9.663   2.417
42933W        W15358  25.750  11.241   3.094
42934W        W15359   0.809  34.071  13.904
42935W        W15360   3.977  29.882   4.661
42936W        W15361   6.434  33.370  12.167
42937W        W15362  44.975  13.020  10.761
42938W        W15363  39.064  16.732   1.602
42939W        W15364   6.764  43.286  13.539
42940W        W15365  24.707  20.450   3.177
42941W        W15366  39.725  34.146   4.134
42942W        W15367  37.282  42.660   0.910
42943W        W15368  44.328   5.364  14.401
42944W        W15369  35.821   5.296   0.031
42945W        W15370   4.255  18.265   1.919
42946W        W15371  18.547  14.698   4.045
42947W        W15372  19.521  38.325  10.886
42948W        W15373  21.096  31.066  14.386
42949W        W15374  27.068  21.496  13.242
42950W        W15375  32.022   4.415  11.827
42951W        W15376  22.598  29.507   3.302
42952W        W15377  10.854  38.357   0.498
42953W        W15378   4.455  22.217   1.181
42954W        W15379  35.108  33.531   0.892
42955W        W15380  35.056  14.885  13.126
42956W        W15381  41.832  21.972   3.564
42957W        W15382  37.551  39.789  11.566
42958W        W15383  23.255  25.188  14.393
42959W        W15384  30.964  38.322   3.845
42960W        W15385  13.875   4.511   4.850
42961W        W15386   5.823   4.435  10.611
42962W        W15387  40.441  13.412   1.730
42963W        W15388  24.552   9.857  12.435
42964W        W15389  22.265  41.538   3.246
42965W        W15390  24.547  16.299  14.536
42966W        W15391  36.102  31.075  11.110
42967W        W15392  34.674  30.061   0.802
42968W        W15393  35.424   8.971  12.451
42969W        W15394  41.845  36.415  10.520
42970W        W15395  18.692  37.124  13.424
42971W        W15396   2.546   0.818   4.946
42972W        W15397  37.907   0.452   2.267
42973W        W15398   5.327   8.247  13.468
42974W        W15399   8.242  41.719  13.765
42975W        W15400   0.889  35.052   0.403
42976W        W15401  41.938  33.817   2.122
42977W        W15402  14.322  35.819  11.458
42978W        W15403  21.993   4.404  12.958
42979W        W15404  35.717  17.293   0.219
42980W        W15405  13.341  24.460  13.847
42981W        W15406  41.509  42.759   3.689
42982W        W15407  33.895  17.405  12.077
42983W        W15408  38.461   0.061  14.867
42984W        W15409  26.447  10.807   1.401
42985W        W15410  40.894  42.030  11.912
42986W        W15411  43.419  19.796   4.838
42987W        W15412  29.147  36.012  12.801
42988W        W15413   3.908  35.693   3.139
42989W        W15414  19.342  34.472   2.770
42990W        W15415  29.037  13.028  11.444
42991W        W15416  30.084   4.634   1.825
42992W        W15417  18.718  26.075   2.356
42993W        W15418  20.049  10.168   0.928
42994W        W15419  18.634  11.408  13.831
42995W        W15420  21.753   2.445   3.231
42996W        W15421  11.696  40.485  14.326
42997W        W15422   3.544  12.793   1.700
42998W        W15423  30.208  29.084  13.559
42999W        W15424  36.187  34.994   1.192
43000W        W15425  38.477  14.855  14.947
43001W        W15426  15.104  26.903   0.152
43002W        W15427  41.293  18.507   1.208
43003W        W15428  32.660  22.743  12.989
43004W        W15429  33.214   3.796   4.152
43005W        W15430  30.822  38.960   2.783
43006W        W15431   9.910  17.133  10.968
43007W        W15432  37.060  17.852   1.519
43008W        W15433   3.570  25.345   5.004
43009W        W15434   4.209  39.241   1.798
43010W        W15435   7.338  26.664  12.897
43011W        W15436  34.597   7.815  10.213
43012W        W15437  23.015  16.040   2.121
43013W        W15438  23.798   9.479  11.700
43014W        W15439  24.506  26.121  12.910
43015W        W15440  16.633  15.411   2.645
43016W        W15441  36.897   7.153  13.333
43017W        W15442  36.479  15.952   3.621
43018W        W15443  20.713  21.227  10.631
43019W        W15444  42.901  27.890  13.972
43020W        W15445  13.722  32.920  10.701
43021W        W15446   2.010  29.060   3.166
43022W        W15447  36.399  28.983   3.316
43023W        W15448  34.183  15.299  13.062
43024W        W15449  32.711  16.639  11.123
43025W        W15450   7.353  23.289  13.052
43026W        W15451   4.013  28.357  11.056
43027W        W15452  13.393  44.072   2.629
43028W        W15453  41.531   7.793   1.749
43029W        W15454   4.967   3.340   0.560
43030W        W15455  27.596  14.807  10.438
43031W        W15456  10.789  16.309   4.635
43032W        W15457  36.863  33.903  10.492
43033W        W15458  26.708  22.660   2.273
43034W        W15459  24.096  26.442   4.099
43035W        W15460  21.580  11.706  13.099
43036W        W15461  36.185   9.984   1.778
43037W        W15462  16.581  17.167  13.403
43038W        W15463  33.466  15.786   0.838
43039W        W15464  29.907   9.440   2.604
43040W        W15465   2.992  32.689   3.216
43041W        W15466  17.009  27.019  12.200
43042W        W15467  40.274  18.135   9.969
43043W        W15468  37.056  38.435   4.746
43044W        W15469  17.039  22.068  11.091
43045W        W15470   1.322  40.889   2.529
43046W        W15471  25.221   4.906   0.472
43047W        W15472   5.109  31.356   1.906
43048W        W15473  17.761   0.315  11.967
43049W        W15474  36.086  22.612   0.958
43050W        W15475   8.955   8.598   4.482
43051W        W15476  10.853   1.643  14.757
43052W        W15477  27.232  18.609  12.484
43053W        W15478  25.505  32.916   3.816
43054W        W15479  34.639  38.818  12.387
43055W        W15480  22.059   8.467  12.527
43056W        W15481  12.252  22.575  12.361
43057W        W15482  43.310  20.976   0.320
43058W        W15483  16.853  42.871  12.005
43059W        W15484  38.488   0.060  12.513
43060W        W15485  13.347  17.291  12.027
43061W        W15486  10.486  17.053   0.841
43062W        W15487   0.345  24.643  10.523
43063W        W15488  28.126  27.525   4.118
43064W        W15489   8.901   9.350  12.387
43065W        W15490   2.529  31.182  12.154
43066W        W15491  36.970  24.690  13.844
43067W        W15492   2.739   4.398   0.430
43068W        W15493  36.896  10.744  11.957
43069W        W15494  26.984  36.695  12.474
43070W        W15495  22.465   7.154  11.817
43071W        W15496  29.673  40.821   4.253
43072W        W15497  24.122  40.206   3.664
43073W        W15498  10.646  10.681   1.465
43074W        W15499  10.127  39.527   0.180
43075W        W15500  18.253   1.349   2.176
43076W        W15501   1.223   1.918   0.956
43077W        W15502  42.056  33.719  14.310
43078W        W15503  44.330   7.982  11.584
43079W        W15504  43.943  32.190  10.669
43080W        W15505  31.319  39.916   3.760
43081W        W15506  33.538   5.830  14.189
43082W        W15507  38.045   9.243   0.244
43083W        W15508   6.785  25.913   3.795
43084W        W15509   4.218  38.421   3.216
43085W        W15510  13.330  27.956  13.928
43086W        W15511  19.703   1.663   3.783
43087W        W15512  14.042   6.258   2.410
43088W        W15513  16.211   9.592   1.133
43089W        W15514   7.385   9.787  12.978
43090W        W15515  22.016   4.513   3.702
43091W        W15516   4.049  43.366   2.318
43092W        W15517   8.792   4.141   2.664
43093W        W15518  44.965   7.925   4.810
43094W        W15519  16.610  18.092  12.052
43095W        W15520  22.040  20.249  12.054
43096W        W15521   5.614   0.430   1.593
43097W        W15522  20.601  28.946   0.705
43098W        W15523   9.606  10.707   2.452
43099W        W15524  44.243  17.083   1.312
43100W        W15525  39.541   6.199  12.906
43101W        W15526  16.287  41.457  14.647
43102W        W15527  37.288  25.103  14.349
43103W        W15528  25.485  23.161   4.437
43104W        W15529  29.046  10.228   0.863
43105W        W15530  28.201  36.054  10.650
43106W        W15531  14.334  19.491  13.291
43107W        W15532   8.720   2.868  11.870
43108W        W15533  22.000  22.037  13.960
43109W        W15534  22.571  19.448   1.336
43110W        W15535  18.493   8.989  13.414
43111W        W15536  29.702  41.950  13.082
43112W        W15537  34.298  13.336   0.335
43113W        W15538  11.193  27.213   0.729
43114W        W15539  43.234   4.285   3.217
43115W        W15540   0.455  12.359  13.991
43116W        W15541  41.519  15.773  13.892
43117W        W15542  26.173  41.362   1.021
43118W        W15543   9.640  36.932   2.825
43119W        W15544   5.784  14.058  14.985
43120W        W15545  20.699  40.747   2.182
43121W        W15546  44.968  23.262   0.748
43122W        W15547   6.866  25.812   4.351
43123W        W15548  28.168  28.448   2.333
43124W        W15549  19.902   5.874  11.072
43125W        W15550   7.731  41.757   0.854
43126W        W15551   7.193  41.867   2.758
43127W        W15552  34.923  42.087   0.095
43128W        W15553  15.442   0.313  12.980
43129W        W15554  20.551   9.835   1.289
43130W        W15555   7.334  11.266   1.714
43131W        W15556  36.567  23.909  11.999
43132W        W15557  31.128   1.760   3.967
43133W        W15558  14.281  15.548  11.068
43134W        W15559   7.400   9.188  13.443
43135W        W15560  10.334  36.919   0.492
43136W        W15561  27.347   9.121   1.733
43137W        W15562  28.382  27.014   0.264
43138W        W15563  15.731   7.163  14.970
43139W        W15564  34.434   3.739   2.819
43140W        W15565   7.179   5.474  13.090
43141W        W15566  10.357  14.277  12.781
43142W        W15567   0.459  23.302   0.222
43143W        W15568  10.286  21.072   1.496
43144W        W15569   7.514  15.372   4.180
43145W        W15570  26.055  37.104   1.324
43146W        W15571  28.967  10.398   2.002
43147W        W15572  41.062   7.465  13.495
43148W        W15573  15.580  25.388   1.761
43149W        W15574  22.743  29.469  11.096
43150W        W15575   1.510  44.737   2.404
43151W        W15576  40.061  34.703   3.580
43152W        W15577  43.275  10.765   1.314
43153W        W15578  32.683  37.541   5.093
43154W        W15579  10.327  24.623   4.165
43155W        W15580  44.212  19.739   9.916
43156W        W15581  10.104  24.507   0.647
43157W        W15582  20.700  19.056   2.180
43158W        W15583   6.882  38.260  11.782
43159W        W15584  13.694  17.683  12.902
43160W        W15585  11.735  19.520   9.954
43161W        W15586  20.699  41.919  11.935
43162W        W15587   9.692  25.712  14.003
43163W        W15588  36.545  20.537  13.828
43164W        W15589  32.467  34.200  11.971
43165W        W15590  21.011  31.220   3.946
43166W        W15591  41.966   6.291  14.383
43167W        W15592  20.816  44.381  11.207
43168W        W15593   1.309  27.954   4.208
43169W        W15594   8.302  26.243  10.791
43170W        W15595   9.121  44.088   3.358
43171W        W15596  19.356  38.049  12.771
43172W        W15597   5.340  32.164  13.922
43173W        W15598  12.616  22.306   9.962
43174W        W15599  21.344   6.989  13.471
43175W        W15600  29.777  24.149   1.715
43176W        W15601  38.939  31.374  11.301
43177W        W15602   4.673  23.992   0.331
43178W        W15603  36.792  16.649  12.552
43179W        W15604  31.173   6.254   2.296
43180W        W15605  13.669  40.381  11.079
43181W        W15606  19.598  43.786  14.343
43182W        W15607  29.402  43.338  11.846
43183W        W15608  17.164  17.604  12.748
43184W        W15609  20.243  15.528  12.449
43185W        W15610  42.619  12.651   0.483
43186W        W15611   3.304  22.024   1.825
43187W        W15612  31.418  25.016   1.400
43188W        W15613   8.797  20.045  13.890
43189W        W15614  40.673  19.179   4.018
43190W        W15615  38.341  11.793  10.415
43191W        W15616   7.498  35.419  10.757
43192W        W15617   8.322  22.012  10.693
43193W        W15618   3.359  32.796  12.023
43194W        W15619  24.544   2.558  13.550
43195W        W15620  39.117  21.842  14.261
43196W        W15621  38.915  14.171   1.719
43197W        W15622  31.052  34.105   0.979
43198W        W15623  24.668   5.640   2.345
43199W        W15624   5.779  37.087   1.312
43200W        W15625   0.872  19.639   4.158
43201W        W15626  30.535  43.783   4.581
43202W        W15627  15.371  14.180   3.152
43203W        W15628  20.010   4.494  12.374
43204W        W15629  30.457  14.754   3.329
43205W        W15630  29.463   2.869  12.308
43206W        W15631  10.580  33.225  13.193
43207W        W15632  30.034  19.512  12.859
43208W        W15633   1.676  12.112  11.628
43209W        W15634  38.400  15.715   2.338
43210W        W15635   0.540  16.503   3.779
43211W        W15636  21.565   8.088  14.810
43212W        W15637  12.576  23.129  11.014
43213W        W15638  43.757  37.857   2.457
43214W        W15639   0.327  39.494   2.275
43215W        W15640  39.086  12.178  11.410
43216W        W15641  38.326  18.310   4.473
43217W        W15642   6.261   5.097  13.264
43218W        W15643  40.298   7.290  12.506
43219W        W15644  42.355   3.298  14.956
43220W        W15645  44.382  36.954  13.443
43221W        W15646  24.900  15.864   1.909
43222W        W15647   8.405   2.776   3.635
43223W        W15648  42.315  30.871   2.930
43224W        W15649   4.836  36.499  11.501
43225W        W15650  29.626   5.367   2.787
43226W        W15651  30.608   8.931   3.590
43227W        W15652  28.508   7.790   0.855
43228W        W15653  17.267  13.090   3.269
43229W        W15654  11.169  16.761   0.386
43230W        W15655  43.721  31.492  12.250
43231W        W15656  10.844  24.337   2.305
43232W        W15657  31.423  13.270  12.942
43233W        W15658  24.935  35.973   1.407
43234W        W15659  11.904   9.730   1.385
43235W        W15660  35.159   6.761  11.191
43236W        W15661   9.119  30.492  13.802
43237W        W15662  27.405   9.143  12.105
43238W        W15663   6.876  21.211  13.421
43239W        W15664  12.935  13.645   3.555
43240W        W15665  26.981  34.849   1.922
43241W        W15666  11.692  11.322   4.050
43242W        W15667   2.892  25.763   2.978
43243W        W15668   3.244  10.361  14.943
43244W        W15669  14.502  43.976   1.613
43245W        W15670  18.249  38.240   3.233
43246W        W15671   2.902  25.787  14.307
43247W        W15672  13.624   1.704  12.952
43248W        W15673  22.119  40.291  12.354
43249W        W15674  32.781   6.208   2.945
43250W        W15675   5.902  10.825   0.525
43251W        W15676  39.844  27.104   1.569
43252W        W15677  18.552  21.689  12.638
43253W        W15678  30.600  12.722   2.717
43254W        W15679  26.706  37.596  11.210
43255W        W15680  20.591  10.439   0.323
43256W        W15681   9.203   0.249  14.909
43257W        W15682  20.654  28.489  13.367
43258W        W15683  44.140   7.115   0.764
43259W        W15684   3.015  18.585   1.217
43260W        W15685  15.807  32.951   4.202
43261W        W15686  28.642  28.031  12.079
43262W        W15687  21.564  17.592  13.943
43263W        W15688  27.441  40.485  11.034
43264W        W15689  21.921  42.983  10.645
43265W        W15690  40.040  17.852  10.698
43266W        W15691  28.992   0.717  13.255
43267W        W15692  30.108  17.073   1.828
43268W        W15693  30.891  34.402  11.889
43269W        W15694  18.914  29.114   2.186
43270W        W15695   2.396  32.077  14.892
43271W        W15696  15.375  21.711  13.561
43272W        W15697   4.370  13.541  12.132
43273W        W15698   7.921   3.982  13.820
43274W        W15699   5.676  27.596  13.788
43275W        W15700   5.846  35.457   0.406
43276W        W15701  14.698  40.889  10.564
43277W        W15702  41.941   3.264   3.219
43278W        W15703  10.303  15.295  12.370
43279W        W15704  20.307  30.893  14.799
43280W        W15705  42.066   1.897   2.578
43281W        W15706  44.274  35.010   1.466
43282W        W15707  24.590  19.523  10.744
43283W        W15708  13.139  13.566   4.313
43284W        W15709  32.976   1.728   3.781
43285W        W15710   7.885  28.720   2.850
43286W        W15711  15.236   5.900   1.823
43287W        W15712  39.439   8.081  14.335
43288W        W15713  21.497  31.514  11.063
43289W        W15714  38.000   5.341   1.727
43290W        W15715  24.494  12.205   0.417
43291W        W15716  22.811  28.523  11.695
43292W        W15717  42.281  36.617   2.864
43293W        W15718  17.565  21.253  11.376
43294W        W15719  24.955  19.463  13.397
43295W        W15720  28.642   1.755  14.102
43296W        W15721   1.923  43.276  13.406
43297W        W15722  42.692  13.215  12.076
43298W        W15723  11.405   9.403  11.142
43299W        W15724   9.669  32.007  14.902
43300W        W15725  31.434  19.965   4.820
43301W        W15726  34.939   1.136   3.627
43302W        W15727  41.718   5.899   3.141
43303W        W15728  18.646   4.111   1.451
43304W        W15729  39.346  41.511  11.947
43305W        W15730   3.844  22.471  12.571
43306W        W15731  22.979   0.950  14.049
43307W        W15732  20.840  36.745   3.295
43308W        W15733  11.762  31.895   5.072
43309W        W15734  36.947  42.979   3.839
43310W        W15735   3.742  43.455  11.961
43311W        W15736  25.930  18.713  11.551
43312W        W15737  14.625  33.607  14.954
43313W        W15738  21.788   5.768   3.670
43314W        W15739   4.281  13.609  14.434
43315W        W15740  40.467  27.177  11.344
43316W        W15741   3.729   2.420   0.340
43317W        W15742  21.470  38.173   4.648
43318W        W15743   7.538  10.237   4.628
43319W        W15744  28.220  18.904   1.201
43320W        W15745   1.689  27.875   2.315
43321W        W15746   8.168  27.113  12.808
43322W        W15747   7.838  37.578  10.600
43323W        W15748  13.680   3.236   2.250
43324W        W15749   9.206  17.049  10.672
43325W        W15750  27.465  32.394   2.468
43326W        W15751  36.580  17.644  11.095
43327W        W15752   1.009  15.347  13.261
43328W        W15753  32.781  42.704   2.900
43329W        W15754  17.326  29.741  11.119
43330W        W15755  16.168   7.762  10.488
43331W        W15756   9.737  25.879  11.177
43332W        W15757  28.960  30.150  10.605
43333W        W15758   4.274  42.584  11.960
43334W        W15759  11.342   9.337   3.258
43335W        W15760  36.355  30.728   3.463
43336W        W15761  44.750  24.595  13.663
43337W        W15762  28.251  22.396  14.870
43338W        W15763  23.703  42.077  11.636
43339W        W15764  40.909  24.677   0.479
43340W        W15765  26.119  12.048  12.399
43341W        W15766  17.198  21.000  12.958
43342W        W15767  30.151  38.087   1.821
43343W        W15768  39.538  42.834  13.358
43344W        W15769  40.353  35.536   4.335
43345W        W15770  22.143   2.126   3.277
43346W        W15771   2.543  36.172   3.339
43347W        W15772  41.557  44.498   1.356
43348W        W15773  12.188  25.589   0.724
43349W        W15774   1.275  29.746   2.408
43350W        W15775  18.520  34.613   1.273
43351W        W15776  26.588  31.540   5.007
43352W        W15777  26.750  31.566   2.129
43353W        W15778   1.081  26.603  13.123
43354W        W15779   9.630   9.715  14.961
43355W        W15780  35.103  42.773  12.642
43356W        W15781  43.029  35.510  11.186
43357W        W15782  28.504  21.616   0.459
43358W        W15783   6.227  33.088   2.404
43359W        W15784   0.732   1.812   4.364
43360W        W15785   5.879  11.765  14.560
43361W        W15786   6.121  42.723  11.201
43362W        W15787  25.959  36.511  12.472
43363W        W15788  37.126   1.935   3.141
43364W        W15789  39.307  22.729   4.684
43365W        W15790   9.512  38.595  11.389
43366W        W15791  11.384   7.190  10.357
43367W        W15792  33.586  28.728   0.369
43368W        W15793  24.704  18.137  14.369
43369W        W15794  32.884  11.351   4.614
43370W        W15795  28.055  36.027  13.825
43371W        W15796  43.576   7.404   2.131
43372W        W15797  43.941  42.979   2.882
43373W        W15798  32.346  11.198   1.132
43374W        W15799   5.331   8.497   0.371
43375W        W15800  37.961  36.018   5.133
43376W        W15801  27.495  31.078  13.038
43377W        W15802  33.800  37.855   4.736
43378W        W15803  21.895  40.369   0.238
43379W        W15804  14.722  16.316  13.028
43380W        W15805  12.374  41.908   0.402
43381W        W15806  14.300  16.721   2.641
43382W        W15807  14.502  22.163   2.802
43383W        W15808  28.230  17.561  10.097
43384W        W15809  21.071  18.239  12.895
43385W        W15810  29.263  43.511  10.650
43386W        W15811  28.189   3.704  14.486
43387W        W15812  29.442   7.400   3.801
43388W        W15813  43.894  23.161  13.153
43389W        W15814   4.510  22.003  14.719
43390W        W15815   2.721  36.443   0.831
43391W        W15816  25.415  15.824  10.766
43392W        W15817  35.494  19.484  13.023
43393W        W15818  27.713  38.390   4.285
43394W        W15819  31.530   9.237   3.821
43395W        W15820  27.995   5.958  13.576
43396W        W15821  13.377  42.239   0.367
43397W        W15822  17.774  37.140   2.597
43398W        W15823  21.047  28.992  14.040
43399W        W15824  37.862  24.550  13.042
43400W        W15825   6.693   6.725   4.642
43401W        W15826  29.158   4.975   1.350
43402W        W15827  20.427  24.615  13.114
43403W        W15828   5.719  27.689   1.641
43404W        W15829   9.720  41.418   4.134
43405W        W15830  27.136  19.209   4.264
43406W        W15831  30.640  14.640  12.125
43407W        W15832  25.773  28.183   0.100
43408W        W15833  27.453  40.051  12.900
43409W        W15834  22.080   1.940   0.809
43410W        W15835  32.640  26.688  13.366
43411W        W15836  39.404   2.819   4.261
43412W        W15837  19.964  13.344   1.887
43413W        W15838   1.057  40.434   3.215
43414W        W15839  18.027  21.010  14.400
43415W        W15840  11.822  37.982   0.167
43416W        W15841  19.976   7.458  13.350
43417W        W15842  36.907  28.949   2.281
43418W        W15843  40.847  32.125   3.119
43419W        W15844  27.534  30.273  13.122
43420W        W15845  20.632  24.170   0.499
43421W        W15846  36.526   4.357  14.451
43422W        W15847  30.641  36.365  14.633
43423W        W15848  22.554   2.447   4.491
43424W        W15849  26.566  42.077  13.362
43425W        W15850   5.708  35.368   3.329
43426W        W15851  42.883   2.411  13.282
43427W        W15852  32.392  21.714  10.982
43428W        W15853  19.561  26.436   1.425
43429W        W15854  23.504  25.985   1.842
43430W        W15855  31.356  11.291   0.374
43431W        W15856  32.475   9.156  14.071
43432W        W15857  11.335  38.437  10.731
43433W        W15858  38.047  20.233   1.698
43434W        W15859  44.176   4.598  14.884
43435W        W15860  33.542  13.314   2.248
43436W        W15861  43.079  35.494  13.589
43437W        W15862   4.185  18.198  10.360
43438W        W15863  30.919  38.839   3.701
43439W        W15864  43.436  44.449  10.720
43440W        W15865   9.235  33.055  11.639
43441W        W15866  14.151  39.576   0.227
43442W        W15867  23.649  22.625   4.113
43443W        W15868  34.510   6.242  13.529
43444W        W15869  34.435  25.268  12.892
43445W        W15870  11.558  38.892  10.569
43446W        W15871  42.035  19.518   9.787
43447W        W15872  33.699  40.827   0.868
43448W        W15873  32.586   4.454  10.566
43449W        W15874  43.329  20.831  13.379
43450W        W15875  37.246  11.706  14.055
43451W        W15876  12.584  21.595   1.423
43452W        W15877  21.199  44.410   4.163
43453W        W15878  30.047  40.183  12.816
43454W        W15879  24.228   0.511  14.477
43455W        W15880  43.559  44.875  12.828
43456W        W15881   9.577   9.285   0.299
43457W        W15882   6.990  12.847   2.641
43458W        W15883  38.057  14.084   3.238
43459W        W15884   5.153  15.643   2.204
43460W        W15885  22.739   6.240  11.000
43461W        W15886  26.907  25.933  13.480
43462W        W15887  18.759  29.370  13.940
43463W        W15888   5.393  34.396  11.083
43464W        W15889  41.421  21.615   0.246
43465W        W15890  37.580  23.804   0.162
43466W        W15891   0.216   5.484   1.299
43467W        W15892  39.603   4.628  13.947
43468W        W15893  36.132  17.016   1.397
43469W        W15894   6.718  36.738  12.162
43470W        W15895  41.944  29.317   2.728
43471W        W15896  16.803  17.318   2.810
43472W        W15897   9.719  33.556   4.935
43473W        W15898  41.306   8.293  11.275
43474W        W15899  13.604   6.357   4.187
43475W        W15900  19.731   1.791   0.296
43476W        W15901   3.251  24.958   0.224
43477W        W15902  15.322  18.788   4.159
43478W        W15903  28.998  20.123   0.752
43479W        W15904   6.264  38.397   1.450
43480W        W15905  27.759   3.703   0.902
43481W        W15906  17.081  18.708  11.725
43482W        W15907  31.154   8.046   2.954
43483W        W15908   9.783  26.945  13.554
43484W        W15909  29.569  26.242  13.878
43485W        W15910   0.252   6.516   4.686
43486W        W15911  44.758  29.321   0.683
43487W        W15912  42.511  36.462   4.931
43488W        W15913  32.375  24.694   3.767
43489W        W15914  32.834  11.032  13.200
43490W        W15915  11.840  37.571  10.491
43491W        W15916   6.900   3.926   4.056
43492W        W15917  30.888  27.444   1.663
43493W        W15918  41.833   8.345  12.159
43494W        W15919  29.683  42.318  12.461
43495W        W15920  34.523  32.565   1.821
43496W        W15921  11.702  34.037   3.902
43497W        W15922  41.579  35.844  13.892
43498W        W15923  32.551   7.607   2.729
43499W        W15924  13.304  31.940  12.111
43500W        W15925   8.910  36.836  10.724
43501W        W15926   3.880  26.540   1.289
43502W        W15927  19.316  24.142  12.005
43503W        W15928  41.851  13.090  14.364
43504W        W15929  13.344   1.346   1.814
43505W        W15930  40.362  22.771   4.591
43506W        W15931  19.039   4.308  10.727
43507W        W15932  40.848  31.293   0.042
43508W        W15933  11.231  41.409  14.215
43509W        W15934   3.348  34.148   4.343
43510W        W15935  25.374  43.055   0.230
43511W        W15936  30.717  21.165  12.983
43512W        W15937  40.891   5.917  14.967
43513W        W15938  41.552  38.958   0.341
43514W        W15939   0.731   5.781  14.115
43515W        W15940   6.276  22.785  11.432
43516W        W15941  20.243  28.649   0.973
43517W        W15942  23.437  44.952  12.539
43518W        W15943  11.819  10.137   0.633
43519W        W15944  36.573   4.588   4.597
43520W        W15945  20.198  17.048   0.262
43521W        W15946  12.705  31.739   1.417
43522W        W15947  44.069  12.125  14.296
43523W        W15948  10.439   5.491   3.244
43524W        W15949  12.119  11.931   1.309
43525W        W15950  39.389  28.146   3.112
43526W        W15951  33.974  24.797   0.022
43527W        W15952  29.682   0.533   1.011
43528W        W15953  42.544  43.971  12.497
43529W        W15954  14.115  39.353  11.394
43530W        W15955  12.783  18.180  13.983
43531W        W15956  32.693  28.496  11.050
43532W        W15957  26.944   7.715   0.874
43533W        W15958   8.171  21.983   0.116
43534W        W15959  28.907  21.361  10.494
43535W        W15960  41.708  24.573  12.981
43536W        W15961   4.271  18.119   1.347
43537W        W15962  24.014  10.152   1.355
43538W        W15963  27.208  14.401  11.192
43539W        W15964  37.479  18.742   2.693
43540W        W15965  26.064  32.852   0.807
43541W        W15966  20.680  24.840  14.680
43542W        W15967  35.635  39.337  14.289
43543W        W15968  43.823  24.861  14.922
43544W        W15969  35.559   5.353   1.792
43545W        W15970  33.948  38.047  14.340
43546W        W15971  37.302  33.845   0.997
43547W        W15972  35.047  37.303   5.184
43548W        W15973  37.053  19.794  10.844
43549W        W15974  11.720  43.085   3.702
43550W        W15975  24.782  42.748  11.903
43551W        W15976  36.138  29.993  11.837
43552W        W15977  30.150  39.472   4.148
43553W        W15978   2.368  26.410  12.847
43554W        W15979   0.761  23.951   5.380
43555W        W15980  11.210  29.762  12.000
43556W        W15981  39.228  28.448  11.112
43557W        W15982  26.451  28.873   1.696
43558W        W15983  28.972  15.769   1.728
43559W        W15984  44.630   2.405  12.014
43560W        W15985  35.697  15.733  10.379
43561W        W15986  37.026  34.535  10.863
43562W        W15987  33.336   7.528  12.211
43563W        W15988  42.357  37.387   1.300
43564W        W15989   6.068  12.733   1.196
43565W        W15990  12.785  17.261   1.243
43566W        W15991   9.151  14.286  11.042
43567W        W15992  10.418  13.198  11.605
43568W        W15993   8.830   1.305   0.378
43569W        W15994  17.651  19.627   3.880
43570W        W15995  44.932  39.872   1.734
43571W        W15996  25.196  28.729  11.033
43572W        W15997  39.511   6.779  14.005
43573W        W15998  31.394  38.361   0.474
43574W        W15999   9.209   0.316   0.749
43575W        W16000  42.771  20.487   1.234
43576W        W16001   3.279   7.346  13.058
43577W        W16002   8.926  14.819  12.878
43578W        W16003  18.163  18.808  14.484
43579W        W16004  20.633  43.800   0.285
43580W        W16005  33.391  44.872  14.415
43581W        W16006  22.453  19.777  13.816
43582W        W16007  35.143  40.113   0.904
43583W        W16008  37.003  19.858   1.114
43584W        W16009  40.160  13.516  14.464
43585W        W16010   7.612  33.450   5.013
43586W        W16011  22.121  22.504   4.112
43587W        W16012  33.136  16.521  12.523
43588W        W16013  39.081  29.037  13.775
43589W        W16014  10.787  16.817   2.253
43590W        W16015  15.642  38.929   4.631
43591W        W16016  15.008  25.907   0.442
43592W        W16017  24.801   6.919  11.389
43593W        W16018   4.815  32.641   0.175
43594W        W16019  35.585  16.756  12.539
43595W        W16020  29.295  32.058   0.372
43596W        W16021  17.166   9.094   4.542
43597W        W16022   3.923  37.335  10.940
43598W        W16023  26.522   5.460  13.403
43599W        W16024  11.809  43.785   0.187
43600W        W16025  24.922  41.882  12.085
43601W        W16026  16.252  37.393   3.110
43602W        W16027  28.151   2.396   2.344
43603W        W16028  23.147  25.649   0.295
43604W        W16029  34.722  19.065  12.678
43605W        W16030   6.185  11.597   2.808
43606W        W16031  44.501  26.432  13.923
43607W        W16032   1.426  28.450   4.280
43608W        W16033  37.454  30.180  14.703
43609W        W16034  28.099  14.339  11.037
43610W        W16035   6.304  37.011   3.079
43611W        W16036  27.185   6.260   1.773
43612W        W16037  38.769  32.070  11.531
43613W        W16038  39.451  12.247  13.521
43614W        W16039  32.392   4.747   2.140
43615W        W16040  24.609   7.772   1.424
43616W        W16041  19.800  21.092  10.442
43617W        W16042  38.025  43.812  12.468
43618W        W16043   3.628   2.178  14.315
43619W        W16044  19.217  22.069   3.641
43620W        W16045  19.517   5.809   1.396
43621W        W16046   3.677   6.371   2.643
43622W        W16047  26.932   0.567   4.857
43623W        W16048  14.729   5.414   4.070
43624W        W16049  22.708  14.095  13.802
43625W        W16050  23.588  32.457  14.256
43626W        W16051  10.849  21.514   0.791
43627W        W16052  32.684  35.522   3.651
43628W        W16053  16.744  38.582  13.182
43629W        W16054   0.017  27.653  11.920
43630W        W16055   5.937  22.911   2.216
43631W        W16056   5.790  28.476  13.790
43632W        W16057  38.012   2.666   4.215
43633W        W16058  29.374  33.931  12.960
43634W        W16059   8.416  32.665   0.973
43635W        W16060  18.604  20.035  12.020
43636W        W16061  14.242  32.873   0.355
43637W        W16062   0.472  19.081   4.598
43638W        W16063  31.740  32.924   3.809
43639W        W16064  16.013  36.748   0.257
43640W        W16065   1.888  42.946   4.336
43641W        W16066  14.245  24.860  13.583
43642W        W16067  25.630  26.869  12.503
43643W        W16068  29.677  16.147  10.651
43644W        W16069   4.407  14.637  14.778
43645W        W16070  34.660   0.489  10.703
43646W        W16071  41.509  20.267  11.073
43647W        W16072  33.503   4.638  13.596
43648W        W16073  42.943   4.935   4.728
43649W        W16074  13.885  16.645  14.345
43650W        W16075  29.927  24.599  13.475
43651W        W16076  21.765  16.205  12.864
43652W        W16077  41.452   2.855  14.558
43653W        W16078  10.129   6.768  10.675
43654W        W16079   5.957   6.476   2.785
43655W        W16080  37.354  35.563  11.660
43656W        W16081   7.446  21.114   2.306
43657W        W16082  30.023  22.962  13.334
43658W        W16083  30.645  32.987  14.078
43659W        W16084  32.455   2.438   1.474
43660W        W16085   2.853  25.649  11.600
43661W        W16086  41.380  34.574  14.359
43662W        W16087  14.790  26.932  10.579
43663W        W16088   6.709  10.160   3.282
43664W        W16089  21.126  21.697   3.708
43665W        W16090  34.283   9.657  12.095
43666W        W16091  25.746   4.958   0.411
43667W        W16092   4.145  15.220  11.411
43668W        W16093  28.634  36.983  14.375
43669W        W16094  14.291  25.547  14.911
43670W        W16095  40.441   4.107   1.376
43671W        W16096  21.044  21.205   0.352
43672W        W16097  11.319  12.767   1.001
43673W        W16098   8.875  11.998   5.079
43674W        W16099  39.540  23.007  13.326
43675W        W16100  42.259   3.436  13.944
43676W        W16101  20.493  20.481   3.351
43677W        W16102   9.338  18.167   0.095
43678W        W16103  11.890  38.830   1.857
43679W        W16104  39.036  10.374   4.098
43680W        W16105  30.167  16.890  13.826
43681W        W16106  41.969  16.145  11.944
43682W        W16107  35.570  22.718  12.544
43683W        W16108   1.703  24.244  12.879
43684W        W16109   3.927  38.532   1.340
43685W        W16110  33.659  30.479  13.453
43686W        W16111  14.213  22.333   2.367
43687W        W16112   4.259  11.157  12.740
43688W        W16113  11.935  22.221  13.313
43689W        W16114  35.893  25.123   3.799
43690W        W16115  33.547  23.925  12.510
43691W        W16116  14.736  32.362   3.270
43692W        W16117  10.876   3.619   3.291
43693W        W16118  43.452  17.011  11.453
43694W        W16119  43.712  27.985  14.284
43695W        W16120  15.271   5.791  11.349
43696W        W16121  44.471  11.792   2.832
43697W        W16122  33.903  18.913  10.558
43698W        W16123  35.723  16.191  11.150
43699W        W16124  35.375  19.574   4.768
43700W        W16125   9.614  43.337  13.977
43701W        W16126  18.505  34.095  14.037
43702W        W16127  26.795   9.851  12.947
43703W        W16128  44.436  12.240   1.451
43704W        W16129  44.502  26.702  12.609
43705W        W16130  33.002  14.710  14.603
43706W        W16131  22.786   9.083  12.526
43707W        W16132  44.861  37.243   2.518
43708W        W16133   0.977   3.831  11.117
43709W        W16134   6.290  18.763  10.602
43710W        W16135  27.064  29.538   0.267
43711W        W16136  32.052   9.112  11.196
43712W        W16137  38.460  31.354  11.641
43713W        W16138  28.618  40.809   2.218
43714W        W16139  44.380  35.025  12.746
43715W        W16140  35.935  40.381   1.422
43716W        W16141  15.800   4.942   0.657
43717W        W16142  15.996  35.522  10.236
43718W        W16143  30.761  17.172  13.032
43719W        W16144  17.837   6.155  12.923
43720W        W16145  30.566  22.134  14.114
43721W        W16146  18.000  17.587  12.053
43722W        W16147  29.949  19.699   1.673
43723W        W16148  10.906   9.301  12.388
43724W        W16149  42.800  17.367   4.526
43725W        W16150  21.732  44.341  12.241
43726W        W16151  30.603  40.765   0.983
43727W        W16152  30.927  39.004  14.262
43728W        W16153  32.635   0.742   0.515
43729W        W16154  17.723   4.848   1.410
43730W        W16155  39.910  40.757  11.978
43731W        W16156   3.833  31.212   3.855
43732W        W16157  33.456  34.139   3.585
43733W        W16158  17.411  21.692   2.400
43734W        W16159  17.760  29.601  13.835
43735W        W16160   2.300  29.990   3.125
43736W        W16161  14.778  26.965  11.725
43737W        W16162  26.649   1.515  11.609
43738W        W16163  24.824  39.025  12.645
43739W        W16164  19.133   7.856  11.043
43740W        W16165  26.626  27.539  13.886
43741W        W16166  34.530  15.492  10.326
43742W        W16167   7.928  44.615   1.737
43743W        W16168   3.115  10.367   4.870
43744W        W16169   3.490   6.179  14.433
43745W        W16170  21.505  14.579  14.852
43746W        W16171  30.557  17.209  13.963
43747W        W16172  40.978  24.651  13.989
43748W        W16173  40.422  12.175  11.202
43749W        W16174  19.137  24.292  12.847
43750W        W16175  40.056  24.034   1.045
43751W        W16176  33.102   6.232   4.651
43752W        W16177  20.113  41.281  11.633
43753W        W16178   0.357  34.445   0.767
43754W        W16179  10.529  14.347  13.777
43755W        W16180  17.718   0.816  12.710
43756W        W16181  29.764  23.488   3.723
43757W        W16182   5.861  31.959   2.147
43758W        W16183  35.960  28.651   4.132
43759W        W16184  30.237  23.801   1.864
43760W        W16185  22.067  35.354   0.119
43761W        W16186  25.503  40.986   2.796
43762W        W16187   5.015  37.448   3.146
43763W        W16188   1.928  31.670   0.769
43764W        W16189  34.782  37.541  12.454
43765W        W16190  39.976  30.211  12.011
43766W        W16191   4.488  38.086  14.904
43767W        W16192   9.067  16.647  13.979
43768W        W16193  10.338  36.661  10.678
43769W        W16194  28.191  14.374   9.959
43770W        W16195  25.552   4.918   1.813
43771W        W16196  10.105   9.917  13.313
43772W        W16197   0.477   4.526   4.819
43773W        W16198  17.806  13.330  14.460
43774W        W16199  16.286  24.523   4.592
43775W        W16200  15.122  13.236   4.698
43776W        W16201  32.173  11.728  13.624
43777W        W16202  39.516  32.991   1.040
43778W        W16203   2.869  42.381   5.098
43779W        W16204   7.680  40.509   1.451
43780W        W16205   4.998  34.212  14.401
43781W        W16206   0.250  21.307  13.009
43782W        W16207  21.572  11.472   5.251
43783W        W16208  18.789   4.289  13.058
43784W        W16209  18.753  30.451  13.975
43785W        W16210  33.481  41.943   4.768
43786W        W16211  32.544   4.922  12.355
43787W        W16212  14.349  14.714   4.604
43788W        W16213   9.136  27.503  10.739
43789W        W16214  11.128  11.292   3.737
43790W        W16215  28.496   7.726   3.733
43791W        W16216   8.353  43.064  12.939
43792W        W16217  15.332  41.628  11.470
43793W        W16218  30.895   1.879   3.507
43794W        W16219  44.651   8.844  14.993
43795W        W16220  30.324  10.301   1.262
43796W        W16221   2.315  16.119   1.822
43797W        W16222  24.995  39.495  12.373
43798W        W16223  17.152  18.633  13.730
43799W        W16224  41.116  10.122  11.963
43800W        W16225  41.928  18.068   0.426
43801W        W16226  33.116  44.183  13.975
43802W        W16227  17.808  21.766  11.974
43803W        W16228   9.237  33.172   1.859
43804W        W16229  10.587  24.531   0.443
43805W        W16230  28.193   9.796  12.009
43806W        W16231  41.521  25.803   1.944
43807W        W16232  23.989  37.848   4.041
43808W        W16233  36.163  19.236  13.582
43809W        W16234  13.634  36.061   0.782
43810W        W16235  15.176  19.166   1.963
43811W        W16236  16.757  43.922  13.244
43812W        W16237  19.831  40.326  10.600
43813W        W16238   0.827  28.757  11.710
43814W        W16239  24.399   9.620  11.102
43815W        W16240  10.391   6.229   4.390
43816W        W16241  20.204  34.075  13.180
43817W        W16242  29.278  34.978   1.574
43818W        W16243   8.902  32.153  14.324
43819W        W16244  28.753  41.251  12.910
43820W        W16245   0.298   4.278  12.973
43821W        W16246   9.333  26.542  12.204
43822W        W16247   9.192   5.235   0.241
43823W        W16248   8.814   1.198   1.308
43824W        W16249   1.906  33.913  12.831
43825W        W16250  24.509  15.759  10.829
43826W        W16251  37.420  10.236   4.221
43827W        W16252  15.226  44.783  10.395
43828W        W16253  13.190  44.416  11.633
43829W        W16254  16.655  41.033  10.611
43830W        W16255  15.928  26.132   1.904
43831W        W16256  22.529  40.880  11.114
43832W        W16257  22.697  36.898   3.737
43833W        W16258  31.491  15.308  13.029
43834W        W16259  25.754   7.719  12.917
43835W        W16260  41.573   5.964   4.859
43836W        W16261  12.644  34.069  12.687
43837W        W16262  10.681   9.223   2.732
43838W        W16263   2.807  29.451   4.141
43839W        W16264   2.444   4.239   0.930
43840W        W16265  32.767  38.880   4.689
43841W        W16266  19.066  38.393   3.586
43842W        W16267   5.761  37.755  14.347
43843W        W16268  36.309  14.720   4.215
43844W        W16269  42.453  28.211   4.254
43845W        W16270  40.922  43.966   4.495
43846W        W16271  34.988   7.801   2.723
43847W        W16272  37.860   2.254  12.078
43848W        W16273   8.293   1.987   4.197
43849W        W16274  22.038   2.297   4.483
43850W        W16275  26.162  11.370   1.726
43851W        W16276   4.793  39.650   4.691
43852W        W16277  28.426  21.484  14.445
43853W        W16278  22.172   0.714  14.428
43854W        W16279  12.935   1.030   4.348
43855W        W16280  23.244  41.850   3.744
43856W        W16281  10.010  33.269   4.596
43857W        W16282  22.983  39.319  13.904
43858W        W16283  41.052  25.954   4.056
43859W        W16284  35.638  19.994  11.285
43860W        W16285  16.740  21.654  11.000
43861W        W16286  35.033  25.307   5.185
43862W        W16287  31.135  38.509   1.522
43863W        W16288  18.519  34.504  11.359
43864W        W16289  34.506  17.129   0.348
43865W        W16290  43.514  12.537   4.560
43866W        W16291  38.450   7.426   3.196
43867W        W16292  21.740  15.560  11.341
43868W        W16293  20.898  27.641  10.624
43869W        W16294   4.700  44.653  10.289
43870W        W16295  34.881  40.437  14.015
43871W        W16296   2.461  26.220  10.736
43872W        W16297  22.514   2.209   0.792
43873W        W16298  12.284  37.519  12.495
43874W        W16299  11.190  38.604  11.951
43875W        W16300  29.766  26.600   1.660
43876W        W16301  28.439  37.444   0.329
43877W        W16302  33.615  33.688   0.828
43878W        W16303  24.833   4.263   4.126
43879W        W16304  32.698   5.471  11.520
43880W        W16305  36.053  18.088   0.456
43881W        W16306   6.803  10.123  13.478
43882W        W16307  18.053  13.367   0.336
43883W        W16308  35.079  21.298  14.842
43884W        W16309   8.961   9.263   4.988
43885W        W16310   3.957  13.019  12.621
43886W        W16311  13.384  23.231  14.808
43887W        W16312  15.901  18.146  13.896
43888W        W16313  30.532  19.362  13.871
43889W        W16314  44.392   5.864   0.295
43890W        W16315  43.007  38.789   1.746
43891W        W16316  31.658  20.595   5.126
43892W        W16317  44.722  10.888   4.153
43893W        W16318  39.600  14.130  10.706
43894W        W16319  31.865  31.931  11.647
43895W        W16320  27.398  20.951  11.148
43896W        W16321  24.417   9.971  14.448
43897W        W16322   5.393  33.671  13.898
43898W        W16323  38.393  38.764   1.731
43899W        W16324  23.021   2.937  12.828
43900W        W16325  18.321   7.365   1.277
43901W        W16326  30.544  16.764  11.185
43902W        W16327  19.301  30.060  13.625
43903W        W16328   5.150  39.106   1.382
43904W        W16329  26.999   9.210   2.128
43905W        W16330  40.203  43.035   5.053
43906W        W16331  21.922  18.755   2.831
43907W        W16332  44.643  34.988   1.848
43908W        W16333   6.260  21.327  14.772
43909W        W16334  18.603  33.968   5.041
43910W        W16335  38.269   3.790  12.320
43911W        W16336  41.315  20.999  14.364
43912W        W16337  30.567  18.288   1.851
43913W        W16338  34.886  23.894  11.692
43914W        W16339  35.364  25.071   2.513
43915W        W16340  30.535  26.018   4.405
43916W        W16341   8.292   6.936  12.993
43917W        W16342  22.375   7.681   3.252
43918W        W16343  41.437  30.351  13.366
43919W        W16344   0.883  31.706   2.750
43920W        W16345  34.429  35.119  11.153
43921W        W16346  37.133  38.442  13.847
43922W        W16347   3.983  12.596   4.201
43923W        W16348   8.803  24.273   0.437
43924W        W16349   7.232  22.969  14.972
43925W        W16350  34.371  16.874  11.917
43926W        W16351  27.562   0.840   4.563
43927W        W16352  15.229  34.297  13.897
43928W        W16353   0.504   6.200   3.767
43929W        W16354   2.154  24.007  10.696
43930W        W16355  10.443   0.339  11.471
43931W        W16356  27.693  13.819   2.498
43932W        W16357  36.577  23.063  13.402
43933W        W16358  18.176  35.905  11.687
43934W        W16359  33.024  20.555  14.997
43935W        W16360  19.478  23.246   0.021
43936W        W16361  15.812  33.457   4.414
43937W        W16362  28.249  26.520  10.745
43938W        W16363  34.949  26.295  12.869
43939W        W16364  21.792  34.527  12.118
43940W        W16365  35.499  44.990  14.763
43941W        W16366  42.802  27.535   0.377
43942W        W16367  43.297  27.813   2.267
43943W        W16368  15.905   8.420   5.085
43944W        W16369  31.215   4.776   3.833
43945W        W16370  39.744   5.733   1.872
43946W        W16371  20.683  43.530   1.881
43947W        W16372   9.880   7.920  12.966
43948W        W16373  30.602  37.666  12.401
43949W        W16374   3.892  29.550  13.342
43950W        W16375   0.850  43.940  10.695
43951W        W16376  16.124   4.179  14.005
43952W        W16377  39.129  34.492  12.106
43953W        W16378  44.321  17.358  12.572
43954W        W16379  31.674  36.872  14.975
43955W        W16380   4.206  32.351  13.382
43956W        W16381  26.089  30.980  10.550
43957W        W16382   4.522  27.297   3.515
43958W        W16383  20.445  34.589   1.471
43959W        W16384  25.521  42.488   0.233
43960W        W16385  44.411  38.591   4.609
43961W        W16386   3.416  38.879  10.561
43962W        W16387  10.110  19.551  11.619
43963W        W16388  26.699  12.172  11.125
43964W        W16389  30.415  20.565   3.080
43965W        W16390   9.348  38.080   1.515
43966W        W16391  19.635  21.956  14.188
43967W        W16392  25.261   7.475   4.247
43968W        W16393   7.823   1.508   0.479
43969W        W16394   3.375  30.347  13.146
43970W        W16395  33.586  24.113   2.780
43971W        W16396  44.835  33.289  13.803
43972W        W16397   6.211  30.976  14.941
43973W        W16398  22.029  39.248  12.419
43974W        W16399  13.359   8.651   4.991
43975W        W16400   6.463  40.415   5.091
43976W        W16401  44.861  28.552  12.486
43977W        W16402  10.588  42.815   3.314
43978W        W16403  35.905  23.423   2.720
43979W        W16404  33.555  36.225  14.321
43980W        W16405  11.700  20.033   4.317
43981W        W16406  29.511  29.911   1.722
43982W        W16407  31.484  13.632  14.204
43983W        W16408  27.201  15.501  14.472
43984W        W16409  15.207   0.454   3.673
43985W        W16410  15.566  32.974   1.203
43986W        W16411  40.780  22.146   2.830
43987W        W16412  13.836  15.277   2.604
43988W        W16413  38.624  25.994   0.949
43989W        W16414   6.139  20.018   4.598
43990W        W16415  25.762   1.403   0.226
43991W        W16416  10.697  30.356  13.961
43992W        W16417   9.830  12.748   0.945
43993W        W16418  40.513  27.927  10.594
43994W        W16419   1.942  35.433  13.591
43995W        W16420  34.264  21.662   4.226
43996W        W16421  31.665  39.853   0.967
43997W        W16422   4.863  30.882  11.956
43998W        W16423  39.735  32.979   3.459
43999W        W16424   9.669   7.232   1.962
44000W        W16425   1.420  15.785   1.766
44001W        W16426  13.073   5.423  10.895
44002W        W16427   9.815  36.989   1.917
44003W        W16428  26.098  29.041   4.691
44004W        W16429  17.581   8.313   1.246
44005W        W16430  44.470   5.222   1.637
44006W        W16431  14.951  34.340   1.040
44007W        W16432  21.573  32.201  11.845
44008W        W16433   3.319  29.559  14.047
44009W        W16434  23.477  34.727   2.853
44010W        W16435  37.424   2.667   0.262
44011W        W16436  30.435  31.567   1.893
44012W        W16437  10.246   9.230   1.618
44013W        W16438  12.746  24.623  13.049
44014W        W16439  33.897  35.910   3.275
44015W        W16440  39.081   8.644   2.404
44016W        W16441  19.085  11.646   3.596
44017W        W16442  35.564  10.643   3.130
44018W        W16443  21.699  23.451  10.776
44019W        W16444  28.722  13.856   0.562
44020W        W16445   7.966   3.877   0.529
44021W        W16446  35.063   1.078  14.390
44022W        W16447  40.369   3.726  11.941
44023W        W16448  16.985  10.201   2.292
44024W        W16449   5.498  27.928  12.051
44025W        W16450   1.245  27.611   2.335
44026W        W16451  39.330  32.055   4.094
44027W        W16452  21.210  11.742   5.552
44028W        W16453  31.860  13.200   1.298
44029W        W16454  35.992  23.250   4.617
44030W        W16455  18.133  29.079  14.408
44031W        W16456  38.266  42.393  14.884
44032W        W16457  34.152   6.297   3.088
44033W        W16458  36.125   7.906  11.456
44034W        W16459  27.524  30.078   1.701
44035W        W16460  13.212   6.146  12.939
44036W        W16461  17.687  11.204  13.462
44037W        W16462  26.825  37.444  11.740
44038W        W16463   9.375   3.731  13.768
44039W        W16464   6.313  10.650  10.695
44040W        W16465  44.587  29.601   1.845
44041W        W16466  17.008   8.425  14.910
44042W        W16467  41.913  40.271   3.181
44043W        W16468  34.701  12.572   4.978
44044W        W16469  21.661  20.303   0.824
44045W        W16470  37.980  15.799  11.668
44046W        W16471   7.746   2.031   0.445
44047W        W16472  22.499  25.935  12.556
44048W        W16473  17.757  35.287  14.234
44049W        W16474  14.799  14.263   2.604
44050W        W16475  26.750   0.855   2.269
44051W        W16476  27.437  39.507  11.405
44052W        W16477  34.900   2.834   1.660
44053W        W16478  41.840  44.324   0.276
44054W        W16479  34.494   3.402   4.677
44055W        W16480  29.161  27.952  13.337
44056W        W16481   1.734  25.436   3.149
44057W        W16482  38.887  40.271  11.236
44058W        W16483   1.515  13.809  12.991
44059W        W16484  27.234  35.451   1.294
44060W        W16485  22.743  36.096   2.812
44061W        W16486  34.956  29.363  11.748
44062W        W16487   2.468  17.829   2.411
44063W        W16488  26.132  23.962  11.489
44064W        W16489  22.073   4.764  11.666
44065W        W16490  27.294  24.177   4.184
44066W        W16491  31.941  33.888  14.967
44067W        W16492  28.132  10.336   4.798
44068W        W16493  43.190  26.682  12.448
44069W        W16494  17.632   7.168   1.852
44070W        W16495  16.672   1.802  14.736
44071W        W16496  28.518  41.824   9.802
44072W        W16497  42.908  42.995   4.424
44073W        W16498   6.408  32.854  12.106
44074W        W16499  42.285  15.146  11.957
44075W        W16500   1.763  38.818   4.102
44076W        W16501  10.711  25.488  12.346
44077W        W16502  24.558  13.263  13.244
44078W        W16503  21.040   4.221  12.627
44079W        W16504  16.624  22.898  13.645
44080W        W16505   8.883  31.398  13.010
44081W        W16506  27.140   3.212   0.220
44082W        W16507   5.264  25.722   3.360
44083W        W16508  40.447  17.470   1.574
44084W        W16509   6.286  42.558   0.378
44085W        W16510  10.007   0.744  14.609
44086W        W16511   1.370  31.407   3.760
44087W        W16512  11.639  28.100   2.257
44088W        W16513  21.225   4.117  13.113
44089W        W16514  28.586   5.827   1.407
44090W        W16515  12.765  28.170  10.737
44091W        W16516   4.294   3.737  13.535
44092W        W16517   2.271  27.571  13.372
44093W        W16518  13.676   3.690  12.908
44094W        W16519  12.171  21.914   2.257
44095W        W16520  36.850  32.850   1.732
44096W        W16521   0.364  37.007   4.106
44097W        W16522  40.488   7.908  10.782
44098W        W16523  27.948  18.754  10.735
44099W        W16524  27.674   3.499  11.860
44100W        W16525  11.430  32.165   3.803
44101W        W16526  43.815  18.097  13.955
44102W        W16527   0.640   5.654   1.597
44103W        W16528   0.019   8.129   3.238
44104W        W16529  12.585  25.170   2.693
44105W        W16530  39.450   4.335  11.941
44106W        W16531  42.380  26.539   2.729
44107W        W16532  35.912  40.904   4.556
44108W        W16533  10.550  18.549  13.667
44109W        W16534  21.034   2.344   4.580
44110W        W16535   2.801  18.829  12.033
44111W        W16536  18.386   8.758  12.334
44112W        W16537  36.796  30.528  13.218
44113W        W16538  32.503  29.505   2.651
44114W        W16539   7.599  21.630   1.791
44115W        W16540   6.859  39.933   4.553
44116W        W16541  15.354  30.604   2.731
44117W        W16542   8.256  16.971  12.936
44118W        W16543  24.438  16.001  12.874
44119W        W16544  40.063   6.839  14.947
44120W        W16545  35.013  10.589   0.820
44121W        W16546  27.990  38.478   1.548
44122W        W16547  13.573  28.375   2.851
44123W        W16548  24.574   1.722  11.578
44124W        W16549  38.969  39.816  10.696
44125W        W16550  26.285   3.270   0.153
44126W        W16551  41.274  13.851   4.752
44127W        W16552  16.652   3.373   0.231
44128W        W16553  20.367   0.470  12.064
44129W        W16554  34.872   8.688  12.249
44130W        W16555   3.735  22.218   4.362
44131W        W16556  11.886   7.751   0.305
44132W        W16557  28.547  38.306   2.835
44133W        W16558  12.389  37.350  14.814
44134W        W16559  24.728   1.973  10.569
44135W        W16560  14.073  15.244   3.961
44136W        W16561  12.635  10.289  11.615
44137W        W16562  15.309   3.837   5.189
44138W        W16563   2.858   5.244  14.363
44139W        W16564  26.033  40.781  14.818
44140W        W16565  32.688  41.813   1.754
44141W        W16566  27.503  44.881   2.388
44142W        W16567  27.516  23.554   1.629
44143W        W16568  27.241   3.287   2.101
44144W        W16569  15.642  23.767  11.726
44145W        W16570  42.603  38.864  12.472
44146W        W16571  37.803  40.176  12.985
44147W        W16572  39.843   6.896  14.473
44148W        W16573  44.338  23.097  10.420
44149W        W16574  40.461   1.225  14.696
44150W        W16575  27.101  27.925   3.702
44151W        W16576  10.283   3.860  13.571
44152W        W16577   9.113   4.217  11.062
44153W        W16578  33.669   5.260  11.725
44154W        W16579  35.973  23.158  12.877
44155W        W16580  10.567  41.285   1.865
44156W        W16581   0.340  12.402   2.644
44157W        W16582   2.224  17.371  13.445
44158W        W16583  37.337  43.824  10.560
44159W        W16584  24.572  15.280  11.573
44160W        W16585  43.541   0.005  13.339
44161W        W16586   8.113  16.294  13.999
44162W        W16587  17.168  27.773   1.139
44163W        W16588  26.657   7.275  11.519
44164W        W16589  32.418  32.601  11.127
44165W        W16590   5.234   1.935   3.690
44166W        W16591  15.896  24.155  11.432
44167W        W16592  38.361  18.868   1.912
44168W        W16593   9.586  16.179   0.841
44169W        W16594  14.628  19.253  13.970
44170W        W16595  32.635  40.879  12.945
44171W        W16596  44.399  33.398   3.634
44172W        W16597  28.612  14.337  12.884
44173W        W16598  12.714   8.643   1.466
44174W        W16599   5.295  15.196   3.114
44175W        W16600  44.435  39.526  12.385
44176W        W16601  15.796  17.960  13.414
44177W        W16602  24.085  22.516   3.003
44178W        W16603  30.142  18.157   3.903
44179W        W16604  13.391   3.727  14.429
44180W        W16605   0.308  26.484  11.149
44181W        W16606  13.865   4.457  11.602
44182W        W16607  17.352   9.779   0.131
44183W        W16608  32.390   7.181  13.394
44184W        W16609  35.449  22.775   1.480
44185W        W16610   9.696  44.740   1.392
44186W        W16611   7.682  41.404  10.749
44187W        W16612   9.803   1.714  13.073
44188W        W16613   2.819  15.782  10.133
44189W        W16614  42.918  13.710  14.204
44190W        W16615  20.210  41.528  14.692
44191W        W16616  20.496   8.286  13.436
44192W        W16617   5.665  32.139   1.173
44193W        W16618   4.245  18.572  10.741
44194W        W16619   4.410  30.446  10.691
44195W        W16620  21.998  27.090  12.020
44196W        W16621  32.785   7.279  14.969
44197W        W16622  18.500  34.509  10.342
44198W        W16623  23.078   0.687  14.499
44199W        W16624  12.133  34.175   4.180
44200W        W16625  27.928  40.147   0.383
44201W        W16626  37.121   4.881   4.170
44202W        W16627  33.884  30.032  11.168
44203W        W16628  21.576  19.258   0.886
44204W        W16629  37.736  34.030   0.184
44205W        W16630  29.255  30.735   4.166
44206W        W16631  15.653  32.205  12.968
44207W        W16632  14.790   0.865   2.837
44208W        W16633  25.062  31.777   1.236
44209W        W16634  29.962   6.833   3.133
44210W        W16635  26.395   7.456   0.357
44211W        W16636  11.306   7.121  11.504
44212W        W16637  38.970  42.805   4.732
44213W        W16638  37.734  35.876  12.586
44214W        W16639  36.598   8.489   0.734
44215W        W16640  43.032   6.921  10.735
44216W        W16641  39.973  10.143   2.315
44217W        W16642  21.075  43.825  14.271
44218W        W16643  15.791  17.165  10.628
44219W        W16644  19.463  32.006  10.092
44220W        W16645   1.480  37.381  12.039
44221W        W16646  29.645  44.226   2.617
44222W        W16647  12.166  14.371  13.915
44223W        W16648   3.664  43.835  13.117
44224W        W16649   8.621   8.130   1.833
44225W        W16650  11.565  15.798   0.443
44226W        W16651  42.440  33.519  12.044
44227W        W16652  20.788  30.650  14.792
44228W        W16653  12.055   5.628  10.975
44229W        W16654  29.261  27.664  11.715
44230W        W16655   7.335  13.572   4.570
44231W        W16656  15.466  44.790  11.698
44232W        W16657   7.912  27.174   0.837
44233W        W16658   7.164   0.967   4.965
44234W        W16659  11.758  25.038  10.464
44235W        W16660   8.119  37.929  13.359
44236W        W16661  17.265  20.476  13.717
44237W        W16662  24.448  24.902  11.605
44238W        W16663  38.990   5.770   1.208
44239W        W16664  17.989  30.830  13.550
44240W        W16665  13.807   6.809  14.039
44241W        W16666  39.933  25.139  14.429
44242W        W16667  11.842  34.124   4.904
44243W        W16668  23.802  43.224   1.698
44244W        W16669  36.563  17.006   0.739
44245W        W16670  26.507  43.198  13.901
44246W        W16671  18.195  18.051   3.331
44247W        W16672   6.336  12.597  13.721
44248W        W16673   5.478  26.084  13.393
44249W        W16674  25.442  23.027   2.109
44250W        W16675  18.073   7.631   3.493
44251W        W16676  29.614  38.409  14.914
44252W        W16677  29.795  20.646   5.010
44253W        W16678   7.463  34.156   3.205
44254W        W16679  37.685  14.797   1.683
44255W        W16680  19.722   2.484  12.976
44256W        W16681   6.943   9.877   3.649
44257W        W16682  32.666   2.166  12.956
44258W        W16683  13.662  35.839  14.425
44259W        W16684  31.368   5.383  12.871
44260W        W16685  25.220   3.013   0.384
44261W        W16686  12.741  28.589   4.422
44262W        W16687  29.019  11.309  14.383
44263W        W16688  33.982  14.302   2.179
44264W        W16689  41.778  31.918   1.382
44265W        W16690  31.987  36.249  10.306
44266W        W16691  42.347  24.493  13.845
44267W        W16692  44.602  44.614  12.488
44268W        W16693  18.607  22.539  13.018
44269W        W16694  31.614  33.872   4.154
44270W        W16695   6.695   6.788  11.956
44271W        W16696   9.246  17.998  11.654
44272W        W16697  18.076  40.464  11.092
44273W        W16698  10.236  31.604   3.721
44274W        W16699  37.737  26.140   1.852
44275W        W16700   6.683  40.080  12.471
44276W        W16701  16.599  44.360  13.429
44277W        W16702  14.991  11.835   2.403
44278W        W16703   4.448  12.079   2.754
44279W        W16704  11.327  21.717  12.063
44280W        W16705   5.647  20.628   1.891
44281W        W16706   0.270  21.716  12.130
44282W        W16707  31.881  39.124   5.051
44283W        W16708  33.818  24.145  12.102
44284W        W16709  44.010  16.796  11.157
44285W        W16710  11.230  21.670   2.795
44286W        W16711  36.877  29.493   4.502
44287W        W16712  13.593  15.190  12.906
44288W        W16713  17.333  35.979  14.775
44289W        W16714  14.670  13.591  12.456
44290W        W16715  32.362  12.621   3.383
44291W        W16716  26.904   4.949   2.668
44292W        W16717  30.504  26.056   3.340
44293W        W16718  33.945  32.197   2.369
44294W        W16719  23.152  38.314  12.554
44295W        W16720  38.601  25.149  11.978
44296W        W16721  39.858   2.367  10.634
44297W        W16722   6.006   6.741  13.327
44298W        W16723   5.694  12.319   4.589
44299W        W16724  17.035  28.926  13.102
44300W        W16725  18.439  30.351  11.536
44301W        W16726  31.204   3.808   1.851
44302W        W16727  36.381  38.397  13.336
44303W        W16728  19.168  11.731  14.375
44304W        W16729  21.067  17.508  14.059
44305W        W16730  42.472  30.367  14.261
44306W        W16731  26.956  32.676   3.672
44307W        W16732  17.500  20.642  14.865
44308W        W16733  22.404  39.942  11.206
44309W        W16734  16.130  34.933   3.715
44310W        W16735  19.161  21.854  13.922
44311W        W16736  40.359   0.317   2.676
44312W        W16737   1.973   6.815   0.435
44313W        W16738  38.755  35.247   2.921
44314W        W16739  40.916  33.540  14.364
44315W        W16740  13.398   6.719   0.473
44316W        W16741   3.870  31.018   3.302
44317W        W16742  21.735  22.023  11.216
44318W        W16743  24.728   0.487  12.510
44319W        W16744  10.156  22.599  10.632
44320W        W16745  36.083   4.358  11.842
44321W        W16746  32.070   2.005  12.063
44322W        W16747  42.218   8.893   3.114
44323W        W16748  24.480   0.059  14.390
44324W        W16749  41.048  20.433  13.089
44325W        W16750  27.440  18.967   1.254
44326W        W16751   1.231  33.152  11.475
44327W        W16752   8.211   2.587  13.206
44328W        W16753  38.226   2.260  13.053
44329W        W16754  37.925  11.146  12.260
44330W        W16755  31.251  27.509  12.398
44331W        W16756  20.551  30.641  10.655
44332W        W16757  33.512  35.073   3.311
44333W        W16758   5.886   4.777  13.487
44334W        W16759  42.908  19.502   3.651
44335W        W16760  26.934  16.734   0.801
44336W        W16761  42.718  22.515  14.724
44337W        W16762   6.360  17.783   3.734
44338W        W16763   5.183  41.554   2.641
44339W        W16764  33.113  33.337  13.386
44340W        W16765  12.606  35.785  11.913
44341W        W16766  18.279  16.883   3.560
44342W        W16767  16.807  37.945  13.947
44343W        W16768  21.049   0.757  13.549
44344W        W16769   6.487   8.431  11.969
44345W        W16770  13.472  27.917   0.272
44346W        W16771  29.640   5.573   1.841
44347W        W16772  38.934  35.708   2.775
44348W        W16773  33.703  35.545   1.755
44349W        W16774  35.586  20.994   1.705
44350W        W16775  42.284  19.950  14.414
44351W        W16776  30.940  16.351  13.390
44352W        W16777  23.503  17.897  10.693
44353W        W16778  35.015  42.313  12.417
44354W        W16779  41.546  34.501  10.708
44355W        W16780  18.190  37.618  12.402
44356W        W16781  23.471   0.986  13.426
44357W        W16782  21.240  32.449  12.176
44358W        W16783  28.737  31.708   4.743
44359W        W16784  36.485  38.493   3.525
44360W        W16785  16.884   5.871  11.515
44361W        W16786  26.844   9.807   1.353
44362W        W16787   7.343  27.505  14.525
44363W        W16788  37.912  28.504  13.977
44364W        W16789  26.851  34.618  10.092
44365W        W16790  20.724  37.238   3.145
44366W        W16791   3.696   8.303  14.021
44367W        W16792  38.969  15.049  13.020
44368W        W16793   3.107  29.224   1.542
44369W        W16794   9.691   0.477   0.936
44370W        W16795  26.076  32.352  12.508
44371W        W16796   3.864  42.835   3.877
44372W        W16797  28.558  38.052   4.186
44373W        W16798  33.542   7.715   0.960
44374W        W16799  26.425  15.951   0.718
44375W        W16800  37.537  20.154   1.671
44376W        W16801  13.120  42.807  13.532
44377W        W16802  21.570   2.685   0.815
44378W        W16803  28.519  35.954   4.336
44379W        W16804   9.278  38.918   1.948
44380W        W16805  40.344   6.763  13.561
44381W        W16806   4.492   5.256  12.483
44382W        W16807  17.031  24.572   2.665
44383W        W16808  27.274  12.212   0.963
44384W        W16809  16.457  27.986  10.856
44385W        W16810  11.782  37.316   4.618
44386W        W16811  22.774   0.602  12.092
44387W        W16812  39.858   1.984   2.386
44388W        W16813  36.437   6.378   3.251
44389W        W16814  34.058  44.198   0.648
44390W        W16815  14.261  12.565  11.943
44391W        W16816  14.777  28.210  14.951
44392W        W16817  41.047  28.041  10.636
44393W        W16818  44.563  17.796   1.632
44394W        W16819  41.883   4.437   1.181
44395W        W16820   4.806   1.979   3.990
44396W        W16821  13.596  10.319   4.001
44397W        W16822  44.262  28.225  11.141
44398W        W16823  29.484  42.476  10.566
44399W        W16824  14.662  31.047   3.746
44400W        W16825  34.075  40.043  11.136
44401W        W16826  23.555  36.472  10.652
44402W        W16827  27.140  31.808   4.219
44403W        W16828  25.267  33.223   4.194
44404W        W16829  31.427  40.495  14.350
44405W        W16830  31.174  27.618  14.260
44406W        W16831  22.031  29.115   4.134
44407W        W16832  17.643  42.025  13.155
44408W        W16833  10.003   2.938  10.983
44409W        W16834  25.608  22.254  11.664
44410W        W16835  16.118  22.128  13.874
44411W        W16836  35.647  25.842  13.308
44412W        W16837  18.320  18.794  11.598
44413W        W16838  32.044  16.030  12.891
44414W        W16839  39.336  29.885   1.914
44415W        W16840  23.390   8.923   3.752
44416W        W16841  40.439  33.508   2.404
44417W        W16842  37.694  24.006   2.350
44418W        W16843  29.471  31.359   2.866
44419W        W16844  37.935  11.771   1.428
44420W        W16845   1.484  32.378   3.241
44421W        W16846  42.829  19.143   2.716
44422W        W16847  16.139  17.539  14.909
44423W        W16848  38.999  44.239  14.912
44424W        W16849  18.838  17.416   0.709
44425W        W16850   3.526   8.597   1.330
44426W        W16851  13.589  35.152  13.765
44427W        W16852  17.455  30.041   0.906
44428W        W16853  17.325   8.130  14.041
44429W        W16854  15.574   2.225  12.406
44430W        W16855  14.359  16.079  13.647
44431W        W16856  16.217   9.223   2.445
44432W        W16857  14.813  30.184  12.496
44433W        W16858  41.895  13.597   0.941
44434W        W16859  28.147  30.095  14.569
44435W        W16860  24.738  30.888   5.131
44436W        W16861  40.435  34.419  11.593
44437W        W16862  44.538  36.872  11.171
44438W        W16863   2.346  14.239  13.154
44439W        W16864  23.133  12.767   1.819
44440W        W16865  38.508  37.081  14.966
44441W        W16866  33.595  15.162  10.569
44442W        W16867  24.772  33.589   1.738
44443W        W16868  30.168  32.592   0.380
44444W        W16869  43.746  26.598   3.201
44445W        W16870  36.240  38.955  10.789
44446W        W16871  42.773  13.365   2.313
44447W        W16872  12.667  10.520  11.153
44448W        W16873  29.603  25.565  10.573
44449W        W16874   4.025  39.354  10.678
44450W        W16875  34.081  33.382   1.339
44451W        W16876  12.390  39.299  12.810
44452W        W16877  17.419   1.264   0.200
44453W        W16878  27.267   7.906   2.142
44454W        W16879  27.186  25.559  11.174
44455W        W16880  23.167  44.574   0.883
44456W        W16881  16.279  41.891   2.319
44457W        W16882  40.501  31.470   1.302
44458W        W16883  10.877  22.568   4.986
44459W        W16884  19.252  13.249   0.743
44460W        W16885  39.991  31.051   0.515
44461W        W16886  40.971   5.739   1.377
44462W        W16887  25.653  28.635  11.647
44463W        W16888  39.470  14.308   0.391
44464W        W16889  35.599   4.295  14.424
44465W        W16890  10.706  15.802   2.414
44466W        W16891   7.928  34.192  13.752
44467W        W16892  18.802  33.937   1.972
44468W        W16893  15.398  14.269  12.135
44469W        W16894   7.200  24.673   0.683
44470W        W16895  20.265  38.440   2.280
44471W        W16896  10.380   7.466  13.935
44472W        W16897   4.825  34.002  11.660
44473W        W16898   6.946  40.320   3.149
44474W        W16899   8.400  33.016  13.521
44475W        W16900   0.323  24.554  11.523
44476W        W16901   9.647   0.266   2.329
44477W        W16902  37.066   3.209   1.314
44478W        W16903   7.753  40.348   3.636
44479W        W16904   7.271  40.931  13.756
44480W        W16905  13.989   0.424   4.971
44481W        W16906  32.184  39.468  10.415
44482W        W16907  30.596  13.890  11.420
44483W        W16908  11.314  21.698  13.568
44484W        W16909  12.633  43.909  10.766
44485W        W16910  36.634  44.775   2.706
44486W        W16911  21.741   7.422   1.423
44487W        W16912   0.495  21.613  11.137
44488W        W16913   6.287   3.407  12.882
44489W        W16914  25.979  17.215   2.191
44490W        W16915   6.871   9.112  14.361
44491W        W16916  39.927  12.104  11.978
44492W        W16917  22.363  30.411  10.983
44493W        W16918  39.810  19.217  13.933
44494W        W16919   3.538  14.236   0.062
44495W        W16920  27.575  33.787  11.519
44496W        W16921  11.870  10.621   0.436
44497W        W16922  34.682  19.213   1.778
44498W        W16923  43.133  11.265   4.770
44499W        W16924  40.640  38.520  13.054
44500W        W16925  17.636  23.112  12.179
44501W        W16926  23.048  18.248   4.667
44502W        W16927  31.825  42.342   2.714
44503W        W16928  25.665  42.079   3.793
44504W        W16929   6.547  41.311   4.183
44505W        W16930   8.179   9.385  13.860
44506W        W16931  31.335  18.187   4.364
44507W        W16932  44.839   0.990  11.509
44508W        W16933   6.307   2.747  11.510
44509W        W16934   5.475  14.515   2.661
44510W        W16935  35.649   6.922  11.010
44511W        W16936   9.166  35.904   3.988
44512W        W16937   2.424  27.236  12.389
44513W        W16938  15.695   5.193   4.844
44514W        W16939  33.408  41.290   3.135
44515W        W16940   5.947   8.763   4.342
44516W        W16941   2.976  24.096   0.862
44517W        W16942  25.468  20.861  12.187
44518W        W16943  32.223   6.649   4.302
44519W        W16944  31.866  13.392  10.731
44520W        W16945  29.926  44.435  14.060
44521W        W16946  22.432  24.085  11.066
44522W        W16947  14.887  35.902   3.229
44523W        W16948   0.700  44.463  14.532
44524W        W16949  31.477  37.983   0.840
44525W        W16950  20.793   5.208  13.781
44526W        W16951  12.635  18.581   0.989
44527W        W16952  21.710  30.040   2.427
44528W        W16953  14.784  27.720   0.652
44529W        W16954   1.030  26.877  14.314
44530W        W16955  43.354  37.981  14.410
44531W        W16956  13.659   3.039  11.549
44532W        W16957   7.462  37.764  11.141
44533W        W16958  32.040  40.646  12.114
44534W        W16959  22.437   3.902  12.157
44535W        W16960   6.548  13.858  12.918
44536W        W16961   6.384  39.542  11.438
44537W        W16962   0.335  40.023   2.263
44538W        W16963   7.854  12.198   2.773
44539W        W16964  36.494  26.300  13.503
44540W        W16965   7.426  32.902  11.037
44541W        W16966  16.121   4.103   2.299
44542W        W16967  30.945  17.077   2.307
44543W        W16968   7.956  28.181   1.646
44544W        W16969  13.155  44.563   2.642
44545W        W16970  43.851  20.748  11.169
44546W        W16971  35.016   8.256  10.903
44547W        W16972   6.775  26.459  11.757
44548W        W16973  39.025  12.894  12.411
44549W        W16974  41.477  40.749   2.746
44550W        W16975  11.456  29.497  12.386
44551W        W16976  42.376   4.292   3.652
44552W        W16977   1.828  10.338   4.584
44553W        W16978  33.843   4.888  14.417
44554W        W16979   6.809  39.021  13.105
44555W        W16980  17.078  42.243   3.167
44556W        W16981  16.312  25.665  14.885
44557W        W16982  33.947  24.501  13.891
44558W        W16983  43.557   8.324   1.862
44559W        W16984  20.702  33.695  10.806
44560W        W16985  43.446  12.083   1.424
44561W        W16986   1.159  37.387   1.385
44562W        W16987  24.422  17.044   3.241
44563W        W16988  42.960  39.357  12.876
44564W        W16989  14.637  26.146   3.268
44565W        W16990   5.867  42.736  13.341
44566W        W16991  35.427   8.247   0.846
44567W        W16992  43.749  12.320  10.958
44568W        W16993  16.727  17.616   4.080
44569W        W16994  10.618  16.365  14.775
44570W        W16995   9.186  28.856  11.548
44571W        W16996   8.263  32.059  11.557
44572W        W16997  12.316  39.894   3.150
44573W        W16998   5.577  26.738   2.240
44574W        W16999  43.084  44.346   2.530
44575W        W17000   9.373  33.338   0.267
44576W        W17001   3.667   6.878  10.613
44577W        W17002   2.774   8.658  12.291
44578W        W17003  34.134  44.865  11.163
44579W        W17004  41.106  22.564   3.596
44580W        W17005  16.633  29.583   4.723
44581W        W17006  18.061  38.791  11.521
44582W        W17007  24.625  11.299  11.198
44583W        W17008  18.064   3.539  13.468
44584W        W17009  36.968  26.595  10.680
44585W        W17010  21.530  44.804   4.315
44586W        W17011  14.819  11.800  13.344
44587W        W17012  24.892  28.307  11.060
44588W        W17013  12.313  33.450   4.549
44589W        W17014  18.993  42.804   2.277
44590W        W17015  29.749  11.254  12.524
44591W        W17016  12.913  17.209   4.540
44592W        W17017  29.427  35.810   1.448
44593W        W17018  19.217  10.968   4.528
44594W        W17019  44.725  38.934  13.894
44595W        W17020  18.791   5.831  14.203
44596W        W17021  25.209   4.447   3.660
44597W        W17022   3.201  17.216  11.189
44598W        W17023  18.540  19.994   2.904
44599W        W17024  43.343  35.055  11.553
44600W        W17025  24.175   7.714   3.988
44601W        W17026  28.656   8.713   0.686
44602W        W17027  28.194  24.531   3.059
44603W        W17028  39.958  23.060   0.813
44604W        W17029  35.079  40.632   0.926
44605W        W17030  11.242  27.634   2.389
44606W        W17031  39.343  27.092  13.450
44607W        W17032  21.330  37.666   2.584
44608W        W17033  19.782  25.650   3.718
44609W        W17034  28.265  31.199   2.203
44610W        W17035   2.371  24.172  14.997
44611W        W17036  28.954  16.853   0.941
44612W        W17037  10.779  25.139  11.053
44613W        W17038  30.688  18.664  12.496
44614W        W17039  38.095   3.630  10.684
44615W        W17040  35.525   4.884  12.143
44616W        W17041   6.802  40.944   0.590
44617W        W17042  37.305  40.420  11.551
44618W        W17043  21.031  17.645   0.029
44619W        W17044  31.621  19.464   3.680
44620W        W17045   5.803  12.445  14.836
44621W        W17046  13.332  38.283  14.422
44622W        W17047  41.362  13.157  13.904
44623W        W17048  25.010   6.427  12.872
44624W        W17049  30.656  30.110  13.897
44625W        W17050  37.522  39.939   0.537
44626W        W17051  14.237   4.221   9.702
44627W        W17052   3.809  38.798   0.899
44628W        W17053  14.261  20.122   1.237
44629W        W17054  18.220   0.214  12.836
44630W        W17055  10.996  27.606  14.539
44631W        W17056  32.567  16.016  14.734
44632W        W17057  25.489  41.994   0.017
44633W        W17058  11.111  15.770  14.479
44634W        W17059   0.336   0.912   2.571
44635W        W17060  27.086  12.535   2.696
44636W        W17061  34.952  16.581  14.275
44637W        W17062   9.780  40.423  11.264
44638W        W17063   0.689  27.007   4.571
44639W        W17064   7.366  10.904   1.316
44640W        W17065  44.775  38.894   4.347
44641W        W17066   9.354  36.437   1.799
44642W        W17067   6.267   9.193  10.645
44643W        W17068  37.066  42.845  12.593
44644W        W17069  13.548   3.227   1.410
44645W        W17070  24.265  22.735   3.425
44646W        W17071  12.678   6.776  10.502
44647W        W17072   9.981  26.302  11.346
44648W        W17073   4.342  42.282  13.874
44649W        W17074  26.040  34.456   2.559
44650W        W17075  42.849  19.497  11.687
44651W        W17076  30.897  20.276   1.367
44652W        W17077   9.135   5.043   5.049
44653W        W17078   7.191  35.561  12.048
44654W        W17079  37.830   0.686   3.032
44655W        W17080  33.959   6.978   3.675
44656W        W17081  25.609   3.508  12.378
44657W        W17082  13.189  13.553  12.130
44658W        W17083   0.235  13.777  11.983
44659W        W17084  28.969  21.641  10.039
44660W        W17085  28.914  22.135  12.118
44661W        W17086  21.551  34.528   4.340
44662W        W17087  41.985  30.025  14.813
44663W        W17088  30.389  11.292   0.894
44664W        W17089  26.746   8.870   0.487
44665W        W17090   3.467   0.537   2.669
44666W        W17091  41.505   2.370   1.960
44667W        W17092  24.926  17.054   4.080
44668W        W17093  13.160   7.940   4.725
44669W        W17094   7.416  29.675  12.542
44670W        W17095  32.058   7.424   2.611
44671W        W17096   5.953  30.116   3.433
44672W        W17097  11.814   0.292   2.355
44673W        W17098  27.913  30.587   3.725
44674W        W17099  16.730  17.146   1.225
44675W        W17100  31.925   1.769   1.335
44676W        W17101   9.603  26.278  12.958
44677W        W17102  33.238   2.466   2.282
44678W        W17103  26.114  31.163  11.534
44679W        W17104  12.166  22.571   4.608
44680W        W17105  12.831  39.246  13.055
44681W        W17106  23.408   5.915  12.554
44682W        W17107  19.492  11.618   2.757
44683W        W17108   5.516   3.332  10.757
44684W        W17109  22.674  23.790  13.946
44685W        W17110  39.479  12.973  14.074
44686W        W17111  10.540  17.185  14.608
44687W        W17112  15.891   3.452   2.901
44688W        W17113  43.151  44.483   3.812
44689W        W17114  42.803   0.366  12.937
44690W        W17115   2.291  44.324   3.182
44691W        W17116  10.966  34.312  10.600
44692W        W17117  42.928  17.026   1.549
44693W        W17118  17.320  28.514   0.333
44694W        W17119  32.084  26.215   1.588
44695W        W17120  19.193   1.974   4.301
44696W        W17121  27.056   9.576   1.782
44697W        W17122   0.359   3.467  12.558
44698W        W17123  37.221  26.173   1.894
44699W        W17124  28.889   8.853   3.176
44700W        W17125  22.742   7.058  10.257
44701W        W17126  33.411  20.990  11.984
44702W        W17127  12.409   3.152  12.384
44703W        W17128  11.727  25.964   4.803
44704W        W17129  16.084  31.999   1.698
44705W        W17130  13.214  24.589  12.050
44706W        W17131  32.093   6.004  12.020
44707W        W17132  20.229   3.769  13.063
44708W        W17133   9.130  23.609  11.991
44709W        W17134  34.479  39.453  11.763
44710W        W17135  21.196  13.773  13.039
44711W        W17136  27.446   6.624  11.781
44712W        W17137   4.190  41.858  11.482
44713W        W17138  30.050  26.671   4.163
44714W        W17139  35.938  39.002   3.738
44715W        W17140  30.673   2.782  12.938
44716W        W17141   6.621  42.751   5.232
44717W        W17142  36.855  35.539  14.926
44718W        W17143   1.022  36.040   1.734
44719W        W17144  16.715  33.620   4.643
44720W        W17145  44.491   2.138  12.864
44721W        W17146  33.495  42.394   3.888
44722W        W17147  27.324  35.861   2.307
44723W        W17148   8.116  15.775   4.708
44724W        W17149   0.745  26.222  11.257
44725W        W17150  42.352  39.852  12.354
44726W        W17151  29.524  15.247   0.689
44727W        W17152  31.613   8.349  11.164
44728W        W17153   3.474  31.555   3.750
44729W        W17154   2.971   4.235  12.924
44730W        W17155  19.776  15.184  14.574
44731W        W17156  37.305  20.652  11.354
44732W        W17157  30.839  30.909   0.422
44733W        W17158  38.841  31.866  11.080
44734W        W17159  40.900  36.614  12.091
44735W        W17160  20.585  42.552   2.703
44736W        W17161   4.515   4.681  13.321
44737W        W17162  31.066  30.697  13.052
44738W        W17163  38.351  32.804  13.934
44739W        W17164  29.435  12.692   4.556
44740W        W17165  14.987   4.671   0.316
44741W        W17166   5.326  14.905   1.811
44742W        W17167  20.593   7.357   2.716
44743W        W17168   9.865  13.220  11.579
44744W        W17169  40.865  22.739   1.180
44745W        W17170  44.324  24.188   3.103
44746W        W17171  30.772  33.973  10.775
44747W        W17172  42.878  12.229  14.568
44748W        W17173  32.905   0.744   4.077
44749W        W17174  34.128  17.368   2.325
44750W        W17175  19.999   2.268  14.404
44751W        W17176  43.739  43.956  10.759
44752W        W17177   8.790   8.103   3.270
44753W        W17178  10.537  24.918  10.228
44754W        W17179  22.019   9.401   4.465
44755W        W17180   5.410  19.250   5.040
44756W        W17181  15.543   2.461  12.864
44757W        W17182  39.940  14.062  13.063
44758W        W17183  26.584  19.658  12.005
44759W        W17184  27.459  30.886   4.175
44760W        W17185  28.443   1.404  12.520
44761W        W17186  23.741   0.379   4.649
44762W        W17187  25.448  43.221  11.809
44763W        W17188   5.969   6.117  13.863
44764W        W17189  43.209  34.561  14.493
44765W        W17190  10.800  16.351   3.894
44766W        W17191  18.170  29.058  11.179
44767W        W17192  26.096  32.048   5.000
44768W        W17193  16.377  14.839  12.152
44769W        W17194   1.362  43.338   0.668
44770W        W17195   2.321  36.094  13.849
44771W        W17196   0.717   1.240  14.343
44772W        W17197   9.918  37.723   3.364
44773W        W17198  12.305   1.042  14.760
44774W        W17199  27.191  27.633   1.884
44775W        W17200   7.315  26.736   4.583
44776W        W17201   6.342  33.040   4.689
44777W        W17202  14.234  10.207   2.749
44778W        W17203  39.732  28.569  14.168
44779W        W17204  23.554  12.496  12.791
44780W        W17205   9.173  29.167  14.357
44781W        W17206  22.043  40.320  14.272
44782W        W17207   6.009  33.574   2.225
44783W        W17208  30.990   1.761   5.002
44784W        W17209  36.932  17.497   4.927
44785W        W17210  27.431  24.939  13.442
44786W        W17211   5.186   8.310  11.693
44787W        W17212  22.166   9.660  13.014
44788W        W17213  15.362  26.447  12.141
44789W        W17214  10.175   0.264  10.642
44790W        W17215  12.745  27.911  11.181
44791W        W17216  24.101  23.790   2.657
44792W        W17217  17.832  38.875   0.927
44793W        W17218  24.641  14.045   2.684
44794W        W17219  32.061   4.410   4.653
44795W        W17220  39.402   1.732  10.764
44796W        W17221   3.191   7.934   0.033
44797W        W17222  22.612  23.564  12.181
44798W        W17223   3.014  16.532   2.214
44799W        W17224  27.228  23.688   0.912
44800W        W17225  16.345  29.878   0.370
44801W        W17226  15.775   6.911   0.412
44802W        W17227  26.748  11.419   0.706
44803W        W17228  33.812  17.503  11.204
44804W        W17229  36.085  32.041   5.115
44805W        W17230  20.598  34.875  12.134
44806W        W17231  12.738  14.821  12.936
44807W        W17232   5.924  18.669  14.790
44808W        W17233  41.506  17.453  13.889
44809W        W17234  36.320  41.133  10.993
44810W        W17235   0.753  20.071  11.479
44811W        W17236  43.908   3.237   0.936
44812W        W17237  27.700  21.980  10.663
44813W        W17238  31.013  28.398   3.604
44814W        W17239  36.337  11.845  13.289
44815W        W17240  30.098   8.579  12.806
44816W        W17241  38.403  43.359  14.886
44817W        W17242  16.609  36.399   4.934
44818W        W17243  26.418  21.090   0.757
44819W        W17244   3.075   9.363  11.044
44820W        W17245   4.741  31.349  14.721
44821W        W17246  15.187  31.050   0.821
44822W        W17247  17.688  33.639  14.805
44823W        W17248  22.873  40.375   3.272
44824W        W17249  28.452   4.707   0.031
44825W        W17250   7.598   8.347   0.866
44826W        W17251  24.968  37.863  14.117
44827W        W17252  30.800  17.306  12.526
44828W        W17253  21.677  12.977   4.204
44829W        W17254   9.816  31.116  11.944
44830W        W17255  15.130  36.474   0.085
44831W        W17256  39.565  30.839   2.856
44832W        W17257   0.924  22.826   2.979
44833W        W17258  40.024   1.006   4.809
44834W        W17259  40.475  24.691  11.114
44835W        W17260  27.936  13.180  14.451
44836W        W17261   2.818   5.303   3.088
44837W        W17262  43.352  38.527  12.043
44838W        W17263  37.847  32.975  14.997
44839W        W17264  36.522  10.153  14.264
44840W        W17265  19.385  21.290   4.452
44841W        W17266  38.359   1.681   2.295
44842W        W17267  42.083  16.283   4.627
44843W        W17268  25.740   4.914   1.229
44844W        W17269  37.573   6.135   2.635
44845W        W17270   6.826  23.064  13.837
44846W        W17271  17.030   9.303   0.285
44847W        W17272   1.831   1.950  11.553
44848W        W17273  16.341  17.609   4.555
44849W        W17274  23.959  39.193  14.197
44850W        W17275  35.032  23.959  14.736
44851W        W17276  25.706  33.337  12.854
44852W        W17277   6.330  41.893   4.691
44853W        W17278  21.078  19.750   1.628
44854W        W17279  36.335   3.170   4.531
44855W        W17280  23.454  26.674   0.722
44856W        W17281  33.600  32.308   1.865
44857W        W17282   1.149  38.329   3.211
44858W        W17283  26.105   2.438  14.860
44859W        W17284  12.178  43.899  10.523
44860W        W17285  44.206  37.508  10.148
44861W        W17286  29.667  24.686   1.240
44862W        W17287  37.440  22.108   0.941
44863W        W17288  10.146  32.876  11.501
44864W        W17289   2.416  18.643  13.987
44865W        W17290   5.866  25.589  13.043
44866W        W17291  42.584  24.118  11.731
44867W        W17292  23.714   2.284  13.934
44868W        W17293  33.803  27.898  13.407
44869W        W17294   1.706  27.363   1.435
44870W        W17295   3.281  27.042   2.267
44871W        W17296  20.032  10.970  14.764
44872W        W17297  43.036  43.272  13.519
44873W        W17298  10.526   9.837  11.190
44874W        W17299  15.126  15.447   3.752
44875W        W17300  25.482  10.142   2.034
44876W        W17301  39.839  28.913  10.684
44877W        W17302  12.723  26.506  12.492
44878W        W17303  44.699  24.136  13.862
44879W        W17304  16.290   1.884   4.843
44880W        W17305  40.248  31.602  11.197
44881W        W17306  36.352   2.010  11.618
44882W        W17307   9.691  36.357   1.237
44883W        W17308  13.269  15.420   4.558
44884W        W17309  40.494   3.840   0.269
44885W        W17310  42.446   4.058   3.196
44886W        W17311   6.442  30.096   3.637
44887W        W17312  41.331  10.867  12.467
44888W        W17313   2.397  35.489   4.551
44889W        W17314  16.696  17.785  11.601
44890W        W17315  26.142  11.663  10.614
44891W        W17316  19.598  42.498   3.996
44892W        W17317  33.697  23.148   0.811
44893W        W17318  26.742  26.600   2.562
44894W        W17319  25.076  24.621   3.751
44895W        W17320  19.255  11.633  14.889
44896W        W17321  32.658  25.039   4.077
44897W        W17322   7.285  40.968   0.378
44898W        W17323  32.578  23.439  13.907
44899W        W17324  16.387   8.616  14.006
44900W        W17325  30.892  28.187   2.696
44901W        W17326   8.716  10.276   2.678
44902W        W17327   9.297  17.376  11.923
44903W        W17328  22.486  36.032   3.788
44904W        W17329  19.815  21.341  12.690
44905W        W17330  38.214   8.159   1.432
44906W        W17331  14.705  13.452   4.928
44907W        W17332   7.306  41.878  13.789
44908W        W17333  35.619   3.951   1.395
44909W        W17334  18.800  14.844  14.963
44910W        W17335  41.012  23.200   1.373
44911W        W17336   2.931  10.151  12.567
44912W        W17337  37.965  43.415  13.882
44913W        W17338  43.900   3.729   3.178
44914W        W17339   3.730  35.014  13.936
44915W        W17340  29.580  34.885   2.442
44916W        W17341  25.168  28.580   0.461
44917W        W17342  43.425  13.179  11.520
44918W        W17343  32.607  37.019   0.939
44919W        W17344   4.643  35.908   0.894
44920W        W17345   4.009  39.727   1.853
44921W        W17346  22.537  15.013  10.311
44922W        W17347  37.318  34.856  10.404
44923W        W17348  38.103  19.082  13.435
44924W        W17349  15.063  32.107   0.844
44925W        W17350   3.293  35.575   2.390
44926W        W17351  25.860  31.974   5.447
44927W        W17352   1.376  12.091   2.239
44928W        W17353  43.792  16.611   3.098
44929W        W17354  39.761   5.344  13.725
44930W        W17355  18.108   5.439  10.393
44931W        W17356  38.207   5.477  11.193
44932W        W17357  20.521  28.984  12.326
44933W        W17358   7.200   6.890   3.694
44934W        W17359  13.131  24.278  10.561
44935W        W17360  10.320  12.759   0.733
44936W        W17361   5.124   0.718  13.433
44937W        W17362  22.141  10.434  14.235
44938W        W17363  37.331  30.705  14.747
44939W        W17364  38.371  22.280   0.255
44940W        W17365  41.429   7.851  14.370
44941W        W17366  36.312  21.533   1.239
44942W        W17367  18.206  26.271   4.667
44943W        W17368  26.212  25.913   0.771
44944W        W17369  41.314  35.024  10.729
44945W        W17370  36.977   2.062   2.152
44946W        W17371  25.189  27.060  12.684
44947W        W17372  36.897  41.839   0.995
44948W        W17373  22.300  28.590  12.837
44949W        W17374  30.120  12.708  12.010
44950W        W17375  16.106   1.541   3.303
44951W        W17376   7.224  28.144  10.962
44952W        W17377  19.096  22.505   0.736
44953W        W17378  16.093  20.431   3.598
44954W        W17379  40.472  40.470  14.071
44955W        W17380  27.620  41.174   2.638
44956W        W17381  27.106  32.816   0.023
44957W        W17382  13.637  12.377   3.634
44958W        W17383  28.227   0.538   1.411
44959W        W17384  16.513  34.996  14.899
44960W        W17385  23.556  12.014  11.028
44961W        W17386  19.017  26.017   1.016
44962W        W17387  20.183  16.841  14.355
44963W        W17388  25.772  32.520   3.203
44964W        W17389  39.896  28.450  13.690
44965W        W17390  27.280   6.433  14.896
44966W        W17391  22.062   8.368   1.223
44967W        W17392  28.179  12.564  14.391
44968W        W17393   2.431   5.080  11.170
44969W        W17394  31.832  21.228   0.295
44970W        W17395  37.910   5.082  13.512
44971W        W17396  24.049  40.704  10.577
44972W        W17397  22.484   2.277  10.627
44973W        W17398   5.326  11.554  11.013
44974W        W17399  27.644  20.373  10.638
44975W        W17400   7.266  38.611   3.426
44976W        W17401  16.159  26.683   0.036
44977W        W17402  31.636   0.388   1.272
44978W        W17403  39.552   9.618  14.478
44979W        W17404  29.210  38.496   4.121
44980W        W17405  26.666   7.904   0.372
44981W        W17406   7.571  20.744  13.870
44982W        W17407  37.803  21.102   3.363
44983W        W17408  43.617   3.404  12.065
44984W        W17409  24.132  15.272   2.848
44985W        W17410  30.455  35.264  13.864
44986W        W17411   6.219  31.868   4.062
44987W        W17412  28.027  37.452  12.178
44988W        W17413   1.187  34.977   4.906
44989W        W17414  27.913  40.435  14.913
44990W        W17415   6.961  21.140  12.916
44991W        W17416  22.715   9.922   2.426
44992W        W17417  37.312   9.369   2.852
44993W        W17418  11.936   6.834  10.826
44994W        W17419  16.067  12.618  14.744
44995W        W17420  26.269  15.136   1.235
44996W        W17421  25.873   6.846  10.474
44997W        W17422   9.297  33.624   3.187
44998W        W17423  14.180  14.835   3.115
44999W        W17424   0.400   7.213  14.992
45000W        W17425  27.099  27.620  11.566
45001W        W17426  17.134  38.340  13.478
45002W        W17427   2.739  28.497   0.824
45003W        W17428  11.840  24.952   3.236
45004W        W17429  29.123  33.318   1.901
45005W        W17430   9.750  29.047  14.859
45006W        W17431   8.194  31.987   3.338
45007W        W17432  18.283  16.330  11.001
45008W        W17433  26.696  37.290  14.764
45009W        W17434  43.265  21.869  10.200
45010W        W17435   9.387  38.396   2.785
45011W        W17436  24.936  11.412   4.108
45012W        W17437  27.886  25.753   2.321
45013W        W17438  33.452  28.622  10.375
45014W        W17439   4.869  10.796  13.576
45015W        W17440  14.219  28.149   4.259
45016W        W17441   1.375  30.541  13.576
45017W        W17442  16.147  13.565  12.549
45018W        W17443  33.418  18.312  13.240
45019W        W17444  11.021   3.101   4.572
45020W        W17445  18.475  36.093   0.944
45021W        W17446  37.331  43.720  12.979
45022W        W17447  38.823  30.054   1.320
45023W        W17448  29.784   6.181  12.055
45024W        W17449  21.163  43.431   2.209
45025W        W17450  30.201  43.376   4.680
45026W        W17451  19.507  32.380   2.391
45027W        W17452  21.018  11.726  12.589
45028W        W17453  35.394   5.890  12.172
45029W        W17454  36.875  29.107  11.019
45030W        W17455  29.574  23.465  14.840
45031W        W17456  11.013  30.094   4.243
45032W        W17457  35.924  40.226  13.573
45033W        W17458  29.528   2.912   1.445
45034W        W17459  28.626   2.005   3.834
45035W        W17460  14.329  16.040   2.878
45036W        W17461  14.471  20.968  12.470
45037W        W17462  11.346  25.169   4.155
45038W        W17463  24.177  32.760   1.571
45039W        W17464  16.574  39.647  11.936
45040W        W17465   8.321  15.889   3.893
45041W        W17466   0.362  33.359  13.497
45042W        W17467  33.096  27.562  12.172
45043W        W17468  40.239  34.953   2.164
45044W        W17469  27.920   0.388   4.137
45045W        W17470   3.393  44.223   1.740
45046W        W17471  38.125  14.127  14.366
45047W        W17472   1.157  32.071   0.487
45048W        W17473  41.165   6.218   1.318
45049W        W17474   7.207  21.016  11.182
45050W        W17475  38.019  34.436   0.920
45051W        W17476  35.276   9.249   5.567
45052W        W17477  22.043   3.598   0.276
45053W        W17478  42.984  28.164  11.712
45054W        W17479  18.805  31.356  11.628
45055W        W17480  26.682  42.767  14.139
45056W        W17481  35.542  25.414  12.085
45057W        W17482   4.901  10.419   4.477
45058W        W17483  15.414  32.946   0.438
45059W        W17484  14.783  21.584   3.848
45060W        W17485  36.118  15.157   2.466
45061W        W17486  13.328   3.840  13.569
45062W        W17487  11.778  35.149   2.779
45063W        W17488  36.051  10.853  11.752
45064W        W17489   5.438  16.933  14.050
45065W        W17490  28.572  24.219  12.065
45066W        W17491  26.689   5.966   3.283
45067W        W17492  39.809  18.310   2.882
45068W        W17493  16.518  37.693  12.339
45069W        W17494   9.189   4.442   2.762
45070W        W17495  42.382  15.097  12.468
45071W        W17496  31.433   1.700   1.671
45072W        W17497   7.970  14.765  10.672
45073W        W17498   8.428  20.012  10.856
45074W        W17499  34.874  32.907  13.914
45075W        W17500   9.253  29.497   3.126
45076W        W17501  40.300  43.936  13.065
45077W        W17502  15.867  36.328   5.044
45078W        W17503  22.752  31.887  11.569
45079W        W17504  43.975  29.425   0.894
45080W        W17505   1.472  37.607   1.725
45081W        W17506  44.720   1.212   2.259
45082W        W17507   6.983  44.000  11.173
45083W        W17508  23.187   5.113   3.790
45084W        W17509   3.727   9.873   1.256
45085W        W17510  35.384  29.104   1.365
45086W        W17511  11.083  41.873  10.601
45087W        W17512  23.604   9.703   5.143
45088W        W17513  38.895  11.655  13.787
45089W        W17514  32.391  42.342  14.296
45090W        W17515  43.662   1.277  14.469
45091W        W17516  13.322   8.301  13.310
45092W        W17517  16.200  13.850   1.297
45093W        W17518  15.747  32.408  12.492
45094W        W17519  13.236   9.542  11.174
45095W        W17520   9.625  17.080  14.730
45096W        W17521   2.307  43.752  11.924
45097W        W17522  12.889  38.591  14.370
45098W        W17523   5.647  19.204   4.579
45099W        W17524  37.876  28.080  11.617
45100W        W17525  32.009   1.401  10.925
45101W        W17526   9.171  39.708  13.412
45102W        W17527  15.862  39.922  12.416
45103W        W17528  27.462  17.994   3.683
45104W        W17529  38.317  28.442  14.295
45105W        W17530  19.090  12.089   3.159
45106W        W17531  20.984   5.450  11.847
45107W        W17532   8.940  18.592   0.864
45108W        W17533  19.718   4.522  14.725
45109W        W17534  18.221   7.324   0.143
45110W        W17535   7.305   4.296  12.642
45111W        W17536   3.526  21.213   9.846
45112W        W17537  41.434   4.292   2.815
45113W        W17538  30.877  28.164   1.336
45114W        W17539   7.727  42.757   2.660
45115W        W17540  25.658  14.773  14.458
45116W        W17541  35.420  27.971  13.875
45117W        W17542  24.857  39.506   2.746
45118W        W17543  34.365  21.700   1.434
45119W        W17544   7.353  23.680   1.422
45120W        W17545  11.223  35.885   2.611
45121W        W17546  25.998  21.966  14.981
45122W        W17547  21.106   8.631   0.217
45123W        W17548  30.938   2.363   3.270
45124W        W17549  26.795  30.280   2.745
45125W        W17550  10.728   6.564  13.591
45126W        W17551  25.751  34.165   0.820
45127W        W17552  25.549  23.685   4.669
45128W        W17553  28.023  34.495  12.936
45129W        W17554   0.832   2.287   1.702
45130W        W17555  13.809   5.656  10.745
45131W        W17556  42.017   4.232   4.605
45132W        W17557   9.202  19.789  12.914
45133W        W17558   3.709   9.648  14.791
45134W        W17559  36.901  43.862  13.414
45135W        W17560  38.943  19.096   0.607
45136W        W17561  11.371   0.996  13.269
45137W        W17562  37.240  42.494   2.888
45138W        W17563   3.876   2.101   4.120
45139W        W17564   5.158  41.437  14.268
45140W        W17565   1.269   4.878  10.521
45141W        W17566  29.817  26.572  13.276
45142W        W17567  27.337  23.980   1.898
45143W        W17568  17.069   4.947  13.483
45144W        W17569  37.580  27.063   2.256
45145W        W17570   7.759  19.082   2.744
45146W        W17571  14.321  28.385   3.749
45147W        W17572  19.205  34.562   1.044
45148W        W17573  29.907  14.350   0.289
45149W        W17574   7.924  10.081  14.330
45150W        W17575  34.581  43.347   0.884
45151W        W17576  14.296  23.173  13.445
45152W        W17577  19.548  25.429  13.453
45153W        W17578   2.794  38.464  14.968
45154W        W17579   8.629  11.665  13.800
45155W        W17580  44.607   0.482   3.185
45156W        W17581   0.729   6.648  10.532
45157W        W17582  14.621  27.067   0.847
45158W        W17583   1.777  39.009   3.195
45159W        W17584  41.994   5.289   4.453
45160W        W17585  14.148  44.754   4.264
45161W        W17586  34.011  32.875   4.656
45162W        W17587  13.116  26.122   2.678
45163W        W17588  33.537   1.026   4.223
45164W        W17589  13.120  37.053  12.679
45165W        W17590  26.203  24.869   3.678
45166W        W17591   6.452  18.283   4.044
45167W        W17592  32.627  26.152   4.695
45168W        W17593  21.156   5.390  10.900
45169W        W17594  12.525   7.568  14.469
45170W        W17595  29.504   7.637  11.126
45171W        W17596  34.829  43.546  10.682
45172W        W17597  22.736   4.785   9.989
45173W        W17598  43.276  12.753  14.947
45174W        W17599   6.801  31.897   2.189
45175W        W17600  40.595  26.542   2.003
45176W        W17601  22.437  19.503   3.341
45177W        W17602  36.071   2.663   3.557
45178W        W17603  13.183  41.032  14.836
45179W        W17604  11.335  26.970  13.874
45180W        W17605  30.164  32.908  13.889
45181W        W17606  11.281  39.227  14.521
45182W        W17607  39.544  28.063   4.653
45183W        W17608  41.264  33.497   2.448
45184W        W17609  20.039   0.822   0.827
45185W        W17610  42.981   9.882   2.607
45186W        W17611  39.907  43.240  10.745
45187W        W17612   7.032   4.283  11.159
45188W        W17613  26.045  34.485   0.514
45189W        W17614  25.095  23.088   0.301
45190W        W17615  40.118  26.363   1.870
45191W        W17616  35.813  35.320   3.243
45192W        W17617  30.478  17.259  12.112
45193W        W17618  17.077  20.308   4.112
45194W        W17619  14.176  15.750  14.767
45195W        W17620  42.901   1.752  10.754
45196W        W17621  43.898  41.979   2.691
45197W        W17622  21.554   3.508   0.440
45198W        W17623   7.663  20.596  10.670
45199W        W17624  12.683  21.300   0.692
45200W        W17625  43.255  11.130  11.475
45201W        W17626  43.837  37.574   3.534
45202W        W17627  34.546  31.403  13.468
45203W        W17628  27.182   4.413  13.883
45204W        W17629  20.383   9.700   2.415
45205W        W17630  16.841  37.340   2.191
45206W        W17631   4.488  22.514  14.934
45207W        W17632  26.785  24.299  13.990
45208W        W17633  30.130  21.705  11.873
45209W        W17634  34.482   2.928   1.301
45210W        W17635  11.125  30.454  10.468
45211W        W17636  16.257  33.304   1.448
45212W        W17637  36.663  35.597   4.246
45213W        W17638  24.456  11.351   1.376
45214W        W17639  17.320   3.539   9.847
45215W        W17640  36.954  19.660   2.606
45216W        W17641  27.655   7.170   1.743
45217W        W17642  39.762  33.388   1.246
45218W        W17643  41.502   2.415   2.997
45219W        W17644  25.514   5.822   3.674
45220W        W17645  35.905  35.958   2.364
45221W        W17646  22.482  16.240  12.158
45222W        W17647   9.985   2.428  13.421
45223W        W17648   1.199   0.696   3.786
45224W        W17649   6.790  32.864   3.208
45225W        W17650  13.161  35.550   3.677
45226W        W17651   4.938   0.218  13.393
45227W        W17652  15.945  11.073   3.609
45228W        W17653  30.937   9.092   4.699
45229W        W17654  22.521  35.080   0.805
45230W        W17655  34.447  11.221   2.249
45231W        W17656  32.574  21.973  13.458
45232W        W17657  17.166   3.985   3.680
45233W        W17658  34.463   2.441   3.179
45234W        W17659  39.697  18.223  10.580
45235W        W17660   7.142  39.551  10.660
45236W        W17661   3.705   2.939  13.096
45237W        W17662   2.235   9.914   2.367
45238W        W17663  22.046  41.260  12.025
45239W        W17664  38.488  16.246  11.221
45240W        W17665  21.930  31.428  10.780
45241W        W17666  12.647  44.364   1.169
45242W        W17667  13.827  31.550  14.908
45243W        W17668  38.938   7.752   1.458
45244W        W17669  42.650  32.002  13.835
45245W        W17670   7.711   1.557  11.558
45246W        W17671  30.304  13.714  12.406
45247W        W17672  21.680  25.534  11.417
45248W        W17673  41.343  23.219   3.629
45249W        W17674   4.754  16.311   4.861
45250W        W17675   4.223   2.037  10.794
45251W        W17676  36.365  42.349   2.664
45252W        W17677  28.952   6.782   0.424
45253W        W17678  16.782   1.430   4.075
45254W        W17679  30.849   0.985  11.558
45255W        W17680  25.631  18.814  13.572
45256W        W17681  28.182  34.303  13.404
45257W        W17682  15.273  13.261   3.599
45258W        W17683   0.001  27.768   1.841
45259W        W17684   6.688  15.628  13.328
45260W        W17685  11.126  32.973   0.963
45261W        W17686  15.210   1.065   3.086
45262W        W17687  25.012  13.112  13.440
45263W        W17688  16.823  11.626   1.422
45264W        W17689   8.600   7.351  11.159
45265W        W17690  24.123  32.442  14.373
45266W        W17691  44.555   7.100  14.040
45267W        W17692  44.897  18.804  12.572
45268W        W17693  39.887  29.985  11.546
45269W        W17694  22.321  10.661  11.863
45270W        W17695  28.872  37.997  10.665
45271W        W17696  12.499  26.206  10.343
45272W        W17697  24.604  27.912   4.164
45273W        W17698  33.472  24.083  14.500
45274W        W17699  38.399   9.282  10.525
45275W        W17700  41.835  35.101  11.471
45276W        W17701  23.225  35.219  12.932
45277W        W17702  17.273  41.873   0.726
45278W        W17703  24.572  37.517   4.144
45279W        W17704  34.399  26.945   0.465
45280W        W17705  10.047  29.545   0.871
45281W        W17706  25.254   9.628   2.371
45282W        W17707  41.118   7.427  14.349
45283W        W17708  33.191  24.940  13.462
45284W        W17709   3.298   2.726  12.850
45285W        W17710  20.722  39.053   1.296
45286W        W17711   0.866  10.863   2.182
45287W        W17712  22.575   6.684  14.414
45288W        W17713  33.216   6.792  11.040
45289W        W17714  28.980  21.752   1.226
45290W        W17715  19.778  24.496   0.990
45291W        W17716  27.754   4.917   0.492
45292W        W17717  26.461  31.325   1.771
45293W        W17718   4.752   8.774  10.078
45294W        W17719   8.782  41.404  10.720
45295W        W17720   8.343   3.250   1.479
45296W        W17721  34.538  19.279  12.236
45297W        W17722  31.047   5.266   2.632
45298W        W17723  29.012  39.369  10.264
45299W        W17724  14.777  29.182  13.995
45300W        W17725  23.196  18.794   2.816
45301W        W17726  33.508  25.662   3.073
45302W        W17727  28.200   2.422   2.879
45303W        W17728   0.232   7.944  10.469
45304W        W17729   3.407  40.252   2.532
45305W        W17730  14.895  41.104   0.698
45306W        W17731  27.051  41.789  13.941
45307W        W17732  21.842   9.885   4.539
45308W        W17733  30.666  18.889   4.132
45309W        W17734  13.744  32.030   2.807
45310W        W17735  11.436  31.812  10.562
45311W        W17736  26.296  42.330   0.819
45312W        W17737  29.961   3.692  14.685
45313W        W17738  39.568  44.103   3.527
45314W        W17739   0.373  33.032  11.152
45315W        W17740  19.519   9.141  14.774
45316W        W17741   7.379  17.085   3.263
45317W        W17742   1.253  32.351  13.352
45318W        W17743  35.601  42.976  13.902
45319W        W17744  16.336  44.562  14.273
45320W        W17745   3.372  20.120   1.281
45321W        W17746  34.602   7.526   4.731
45322W        W17747  19.442  23.648  11.088
45323W        W17748   5.944   7.792  11.539
45324W        W17749  17.219  32.409   0.921
45325W        W17750  37.972  41.537  14.785
45326W        W17751  44.394  42.067  12.856
45327W        W17752  41.389  31.859  11.735
45328W        W17753  16.989  43.312  11.613
45329W        W17754  29.924  10.470  13.931
45330W        W17755   7.169   0.782  13.547
45331W        W17756  44.366  33.710  10.244
45332W        W17757  15.323  30.380  14.271
45333W        W17758   7.352  28.089   2.377
45334W        W17759  13.425  14.198   4.114
45335W        W17760  26.242  40.838  12.516
45336W        W17761  33.598  22.731   1.189
45337W        W17762  18.596  30.592  12.001
45338W        W17763  15.064  14.569   2.920
45339W        W17764   3.738  23.999  13.461
45340W        W17765  20.565   1.272   0.280
45341W        W17766  40.272   9.203  11.058
45342W        W17767  10.162   3.724  11.655
45343W        W17768  33.169   1.970  13.042
45344W        W17769  19.067  22.166  12.024
45345W        W17770  41.144  26.245  13.922
45346W        W17771   9.932  28.680   2.356
45347W        W17772  22.963  24.158   2.163
45348W        W17773  22.657  15.189  14.900
45349W        W17774  21.032   0.278  12.657
45350W        W17775  32.595  42.340   2.031
45351W        W17776   2.233  41.500  14.315
45352W        W17777  31.714  34.045   4.642
45353W        W17778  27.057  29.437   1.286
45354W        W17779  35.032  41.989  13.621
45355W        W17780   2.940  43.784   1.285
45356W        W17781   3.312  21.592   0.058
45357W        W17782   2.976  21.138  12.986
45358W        W17783   1.762   2.625   4.067
45359W        W17784  15.071   9.724  10.561
45360W        W17785  15.707   5.639   4.555
45361W        W17786  44.998   3.486   0.364
45362W        W17787  25.584  19.789  14.758
45363W        W17788  42.898  34.298  11.065
45364W        W17789  31.594   6.466  14.888
45365W        W17790  31.362  33.446  12.357
45366W        W17791   8.875   5.648  13.982
45367W        W17792  22.173  14.703  12.104
45368W        W17793   9.193  30.920   4.306
45369W        W17794  27.383  12.884  12.411
45370W        W17795   9.848   0.646  13.871
45371W        W17796   8.474  14.529  12.888
45372W        W17797  36.577  38.278  14.861
45373W        W17798  39.544   0.793   3.600
45374W        W17799   6.154   9.408  12.842
45375W        W17800  19.620  23.325  14.496
45376W        W17801  36.575   4.337  11.138
45377W        W17802  37.051  22.653   2.052
45378W        W17803   3.349   7.217  12.044
45379W        W17804  42.072  22.760   5.490
45380W        W17805  39.274  13.132  10.646
45381W        W17806  39.274  10.792  13.983
45382W        W17807  26.618   4.177  10.872
45383W        W17808  30.525  29.590   0.024
45384W        W17809  20.982  43.053   1.263
45385W        W17810   0.360  28.653  14.749
45386W        W17811   2.807  22.112   0.350
45387W        W17812  37.885  33.930   1.021
45388W        W17813  23.071  29.401   3.657
45389W        W17814   6.269   0.605   0.075
45390W        W17815   0.012  39.768   4.114
45391W        W17816  22.214  13.324  11.997
45392W        W17817  31.651  33.667   5.021
45393W        W17818   0.794  10.233   3.246
45394W        W17819  38.616   0.364   4.360
45395W        W17820  39.874  20.187   3.418
45396W        W17821  11.756  28.426   0.344
45397W        W17822  43.533   5.697   2.132
45398W        W17823  25.148  36.805  14.849
45399W        W17824  15.732  38.815   0.049
45400W        W17825  15.202  33.942   3.639
45401W        W17826  12.735   2.904   1.782
45402W        W17827  23.514  33.651   2.790
45403W        W17828  14.057  11.718   1.320
45404W        W17829  37.190  31.354   2.398
45405W        W17830  24.135  10.619  14.301
45406W        W17831  43.242   1.926   3.307
45407W        W17832  18.363  39.060  11.109
45408W        W17833  34.571  12.538  10.194
45409W        W17834  28.504  21.033   1.328
45410W        W17835  11.166  20.134   4.201
45411W        W17836  38.844  19.688   3.657
45412W        W17837   3.602   7.846  13.303
45413W        W17838  26.392  25.644   5.101
45414W        W17839  19.441  38.355  14.082
45415W        W17840  43.285  20.051   4.029
45416W        W17841   7.802  42.776   4.064
45417W        W17842  11.268   6.837   2.606
45418W        W17843  11.858   4.850   2.309
45419W        W17844  29.934   3.310  12.917
45420W        W17845   6.244  30.431  12.165
45421W        W17846  15.606  13.376  12.800
45422W        W17847  32.031  17.436   1.811
45423W        W17848  22.106   0.191   0.312
45424W        W17849  13.808   2.493   4.615
45425W        W17850  21.770  18.056  14.417
45426W        W17851  13.773  14.619  14.855
45427W        W17852  29.205  31.057  13.649
45428W        W17853  25.115  27.009  11.729
45429W        W17854  44.577  12.745   2.301
45430W        W17855  38.298   9.437   2.739
45431W        W17856  34.921  17.052   4.069
45432W        W17857  32.106  43.686  13.377
45433W        W17858  24.749  12.670   4.759
45434W        W17859   7.854  19.974  14.882
45435W        W17860   4.212   6.412  13.127
45436W        W17861  23.052  28.499   3.896
45437W        W17862  44.326   0.911  11.524
45438W        W17863  10.576   8.322  12.461
45439W        W17864  10.375  30.925  11.653
45440W        W17865   4.971  42.246  12.535
45441W        W17866  30.875  34.286   4.057
45442W        W17867   1.420  44.856  14.023
45443W        W17868  14.576  41.049  13.328
45444W        W17869  37.964  37.526  14.310
45445W        W17870  33.395  41.391  14.407
45446W        W17871  38.421   8.216   1.888
45447W        W17872  27.091  18.221   0.500
45448W        W17873  14.396   9.453  11.233
45449W        W17874   1.933   2.152   3.190
45450W        W17875  36.010   2.397  11.601
45451W        W17876   3.281  21.847  14.032
45452W        W17877  18.816   0.816   2.156
45453W        W17878  44.843  18.940  11.440
45454W        W17879  39.478  11.902  13.910
45455W        W17880  37.032  40.816   3.323
45456W        W17881  14.418  37.730  11.105
45457W        W17882  16.960  40.110   2.494
45458W        W17883  28.059  39.965   3.187
45459W        W17884  32.332  12.745   2.438
45460W        W17885  16.132   2.610   2.551
45461W        W17886  24.117  44.471   2.754
45462W        W17887  13.876  24.078  12.373
45463W        W17888  43.696  21.672  11.548
45464W        W17889  18.207  42.715  13.397
45465W        W17890  44.703  21.515  13.074
45466W        W17891  27.936  17.964  13.337
45467W        W17892   4.261  43.883  14.949
45468W        W17893  11.332   0.781  12.812
45469W        W17894  32.952  39.539  14.949
45470W        W17895  20.484  18.953   0.340
45471W        W17896  29.404  25.656   4.993
45472W        W17897   1.130  13.730  11.132
45473W        W17898   2.956  33.050   1.910
45474W        W17899  11.030  18.029   2.817
45475W        W17900  37.475   9.991  14.436
45476W        W17901  14.671  11.400   1.299
45477W        W17902  43.934  11.769  11.932
45478W        W17903  37.381   0.386  10.587
45479W        W17904  37.499  44.799   2.580
45480W        W17905  43.302  19.268  11.589
45481W        W17906  30.508  35.982   3.704
45482W        W17907  36.969  44.212   0.183
45483W        W17908   2.341  37.200   2.592
45484W        W17909  17.287  41.338  14.405
45485W        W17910  44.355  34.093   0.485
45486W        W17911  10.721  26.122  13.923
45487W        W17912  32.483  21.856  14.940
45488W        W17913  35.357  14.254  10.568
45489W        W17914   3.892  12.388   1.749
45490W        W17915   8.219  10.133   1.350
45491W        W17916  41.893  38.424  11.869
45492W        W17917  37.313   3.351   0.807
45493W        W17918   3.269   6.176  10.500
45494W        W17919  36.457  13.544   0.258
45495W        W17920  34.795  31.023   2.733
45496W        W17921  10.865  24.140  10.572
45497W        W17922  13.583  39.741  14.833
45498W        W17923  27.040   0.937  11.181
45499W        W17924   5.510  22.071  14.852
45500W        W17925  15.173   1.290   1.198
45501W        W17926  40.918  13.825  14.023
45502W        W17927   8.693   3.816  13.545
45503W        W17928  43.776   7.302  13.302
45504W        W17929  44.985  31.646  14.992
45505W        W17930  28.743  27.657  13.342
45506W        W17931  10.127  24.657   3.149
45507W        W17932  36.381   0.553  13.829
45508W        W17933  26.530  13.873  12.483
45509W        W17934  28.977  11.003  13.978
45510W        W17935   3.498   5.860  14.838
45511W        W17936  21.492  22.987  13.088
45512W        W17937  20.554  43.713  14.270
45513W        W17938   5.681  24.076   2.049
45514W        W17939  36.212  40.403   5.048
45515W        W17940   0.329  19.349  10.913
45516W        W17941  29.243  20.154  12.837
45517W        W17942  27.568  29.039  11.313
45518W        W17943  15.606  29.361  11.520
45519W        W17944   1.481  21.444   1.248
45520W        W17945  42.924   7.166  14.071
45521W        W17946  10.786  13.573  12.876
45522W        W17947   8.339  34.435   4.753
45523W        W17948  39.938   5.918   1.300
45524W        W17949  13.219  15.790  14.767
45525W        W17950  31.114  42.253  10.809
45526W        W17951   4.250   0.778   4.835
45527W        W17952  38.967   4.554  13.085
45528W        W17953  12.622  29.603   2.882
45529W        W17954  42.808   0.645   2.135
45530W        W17955  19.388  12.302  11.758
45531W        W17956   0.204  41.771   3.667
45532W        W17957   4.482   9.212   3.411
45533W        W17958  31.688  35.659  11.197
45534W        W17959  22.601  21.546  13.363
45535W        W17960  35.132  13.803  12.069
45536W        W17961  22.655  12.682  13.518
45537W        W17962  38.384  28.184   1.179
45538W        W17963  43.470   4.643  11.229
45539W        W17964  29.170  38.424  10.329
45540W        W17965  36.024  24.913   4.661
45541W        W17966   8.643  13.199   3.685
45542W        W17967  31.956  28.748  14.378
45543W        W17968  27.098  20.318   3.862
45544W        W17969  42.877  44.440   2.990
45545W        W17970   0.971   6.001  11.112
45546W        W17971  44.568   9.281   4.548
45547W        W17972  22.604  26.942  13.575
45548W        W17973  12.879  10.539   1.684
45549W        W17974   2.435  16.704   0.962
45550W        W17975   4.155  14.978   2.202
45551W        W17976  41.820   6.886   2.372
45552W        W17977  13.656  31.022   1.670
45553W        W17978  36.356   2.774  11.107
45554W        W17979  38.291  41.366   4.527
45555W        W17980   1.867  13.869  11.676
45556W        W17981  17.676  35.482  11.197
45557W        W17982  19.058   4.792   2.114
45558W        W17983   8.658   4.936   3.304
45559W        W17984  31.117  19.209   2.844
45560W        W17985  23.950  17.606  12.540
45561W        W17986  29.372  28.920  14.888
45562W        W17987   8.808  21.954  10.843
45563W        W17988   7.929  33.669   3.654
45564W        W17989  42.154  13.938  11.587
45565W        W17990  20.632  35.122  13.974
45566W        W17991  32.872  34.494   2.771
45567W        W17992  43.270  28.917  13.338
45568W        W17993  12.769  43.759   2.414
45569W        W17994  36.246  11.574   0.462
45570W        W17995  41.600  21.013   4.344
45571W        W17996  33.411   0.939  13.449
45572W        W17997  19.291   1.585  13.018
45573W        W17998  35.353  30.923  11.440
45574W        W17999  34.075   8.667   0.729
45575W        W18000   6.459   1.845   1.661
45576W        W18001   8.135  19.348   1.627
45577W        W18002  20.761   1.334  13.068
45578W        W18003  40.377   2.472  14.323
45579W        W18004   0.463  27.365  11.531
45580W        W18005   1.443  27.663  11.066
45581W        W18006  34.536   3.299  14.034
45582W        W18007  20.829  42.510   0.876
45583W        W18008  20.240  41.316   4.136
45584W        W18009  16.164  15.807   4.768
45585W        W18010  14.879  36.129  14.003
45586W        W18011  41.932  29.058  13.565
45587W        W18012  27.074  27.830   5.055
45588W        W18013  17.774   2.753   3.893
45589W        W18014   3.720  17.962  13.829
45590W        W18015  32.644  36.861  12.987
45591W        W18016  39.600   0.756   0.853
45592W        W18017  17.109  27.275   1.010
45593W        W18018  10.373  44.277   0.772
45594W        W18019  27.616  21.081   1.490
45595W        W18020  32.096   2.468  10.645
45596W        W18021  43.856  39.228  10.717
45597W        W18022   4.853  15.821   2.595
45598W        W18023  30.672   5.746   0.313
45599W        W18024  43.954   1.490  12.692
45600W        W18025   6.147  38.206  11.234
45601W        W18026  19.229  13.051  12.971
45602W        W18027   8.162   7.208   4.585
45603W        W18028  24.835  22.987   4.590
45604W        W18029   1.252   9.351   1.034
45605W        W18030   5.903  44.838   4.216
45606W        W18031   4.797  28.805  10.119
45607W        W18032  42.838   5.972  11.057
45608W        W18033  22.923   6.688  11.167
45609W        W18034  38.100  24.096  13.786
45610W        W18035  33.091  16.461   1.890
45611W        W18036  27.583  12.820   2.634
45612W        W18037  31.182  11.618  13.598
45613W        W18038   7.737  28.009   0.645
45614W        W18039  20.539  29.878  12.081
45615W        W18040  38.516   2.357  11.414
45616W        W18041   5.145  20.313   2.936
45617W        W18042  42.823   3.695   0.467
45618W        W18043  26.527  39.979  14.382
45619W        W18044  41.943  16.320  10.595
45620W        W18045  30.567  21.922  11.656
45621W        W18046  28.296  40.426   2.912
45622W        W18047   9.790  42.221   0.276
45623W        W18048  31.623   9.649  14.271
45624W        W18049   0.986   6.804   3.209
45625W        W18050  26.269  36.340   1.052
45626W        W18051   0.018   2.150   4.886
45627W        W18052  25.653  37.988  14.456
45628W        W18053  29.898  12.537  10.441
45629W        W18054   5.881  41.735   1.444
45630W        W18055  31.157  19.881   2.373
45631W        W18056  32.642   9.233   2.680
45632W        W18057   5.269  13.431   4.201
45633W        W18058  43.112  14.543  13.902
45634W        W18059  17.041  39.474   1.740
45635W        W18060  24.121  13.609  14.766
45636W        W18061  36.332  13.162   1.702
45637W        W18062  36.777   3.354  10.789
45638W        W18063  36.525  23.142  12.542
45639W        W18064  38.933  19.653   1.750
45640W        W18065  16.970  14.821   1.855
45641W        W18066  28.964  35.864  11.767
45642W        W18067  34.075  37.854  12.975
45643W        W18068  35.913  30.549  13.730
45644W        W18069  31.904  17.622  11.113
45645W        W18070  11.630  12.060   3.289
45646W        W18071  38.416  16.304  12.982
45647W        W18072  40.294   5.359  13.761
45648W        W18073  41.096  27.144   1.497
45649W        W18074   6.648  19.224  12.861
45650W        W18075  10.207   6.567   5.385
45651W        W18076   4.249  12.878   2.545
45652W        W18077  40.264   4.397   3.224
45653W        W18078  38.321  35.901  13.447
45654W        W18079  13.697  27.060   4.694
45655W        W18080  16.748  16.985   4.861
45656W        W18081  25.633   3.811  10.743
45657W        W18082   7.386  24.737  10.710
45658W        W18083  13.255   8.987  13.954
45659W        W18084  28.893  39.888  10.458
45660W        W18085  26.987   1.322   2.435
45661W        W18086  21.619   3.753   3.786
45662W        W18087  15.323  43.149  14.831
45663W        W18088  21.618  40.430  11.654
45664W        W18089  37.775  17.678  14.428
45665W        W18090  15.220  29.755   1.416
45666W        W18091  34.233  24.984  11.203
45667W        W18092   8.047   2.035   3.322
45668W        W18093   3.954  12.645   5.248
45669W        W18094  42.363  43.816   3.681
45670W        W18095   4.632  25.461  14.431
45671W        W18096  27.505  40.731   4.572
45672W        W18097  13.769  24.690   4.147
45673W        W18098   6.348  39.291  13.131
45674W        W18099  29.603   0.238   1.428
45675W        W18100   6.868  17.549   3.752
45676W        W18101  18.541  32.428  12.450
45677W        W18102  23.557  22.643   3.182
45678W        W18103  19.794  40.555   4.205
45679W        W18104  39.365   1.399   4.723
45680W        W18105  17.243   0.498   4.577
45681W        W18106  44.845  33.466   2.658
45682W        W18107   0.767  33.168  12.382
45683W        W18108   3.824  16.698   2.504
45684W        W18109  27.702  15.462   0.848
45685W        W18110  24.456   6.906   4.696
45686W        W18111   3.440   8.072   0.472
45687W        W18112  29.057   7.821  10.928
45688W        W18113  23.542  30.092  10.324
45689W        W18114   8.453  40.272  10.530
45690W        W18115  35.631  11.455  11.402
45691W        W18116  43.561  32.520  12.921
45692W        W18117  38.896  15.725  11.703
45693W        W18118  11.269  21.231  14.933
45694W        W18119  21.343   9.560   2.354
45695W        W18120  32.863  22.138  12.209
45696W        W18121  28.675   9.729  12.915
45697W        W18122  23.201   5.299  11.098
45698W        W18123  32.892  22.193   3.832
45699W        W18124  16.522   1.905  13.816
45700W        W18125  19.649   9.238  12.544
45701W        W18126  24.113  31.434   0.512
45702W        W18127  14.357  21.959   0.630
45703W        W18128   3.487  25.582  13.011
45704W        W18129  30.624  15.402   3.517
45705W        W18130  10.688  28.007   9.934
45706W        W18131  42.233   8.722  11.095
45707W        W18132  33.034   7.655   1.853
45708W        W18133  17.246  36.151   1.104
45709W        W18134  40.771  33.841  11.886
45710W        W18135  30.522  22.527   3.290
45711W        W18136  38.966  31.306  12.160
45712W        W18137   7.838  34.354   4.564
45713W        W18138  44.097  11.627   3.820
45714W        W18139  40.376   0.310   2.144
45715W        W18140   4.244   1.802  14.796
45716W        W18141  33.781  43.927  14.076
45717W        W18142  19.158   8.587  13.631
45718W        W18143  25.640  31.007   3.952
45719W        W18144   5.214   1.419  11.203
45720W        W18145  31.687  30.514  11.386
45721W        W18146   3.251  19.477  11.600
45722W        W18147  18.701  30.438  12.499
45723W        W18148   6.664  12.992  12.030
45724W        W18149  22.138  43.323   1.271
45725W        W18150   5.836   9.408   3.078
45726W        W18151  14.696  18.712  14.131
45727W        W18152  40.085  18.752   2.772
45728W        W18153  18.573   9.909   4.165
45729W        W18154  39.599  10.182   0.335
45730W        W18155  44.406  15.663  10.617
45731W        W18156  13.301  37.512  12.488
45732W        W18157  20.721  35.872  10.607
45733W        W18158  14.265  27.664  11.937
45734W        W18159  36.590  18.241   2.112
45735W        W18160  13.106  34.114  14.942
45736W        W18161  11.734  41.418  14.385
45737W        W18162  11.653  21.749   3.076
45738W        W18163  13.271   3.298   4.150
45739W        W18164  26.177   7.370  14.476
45740W        W18165  20.556  31.063   1.194
45741W        W18166   2.909   1.370   3.746
45742W        W18167  37.434  17.481   4.186
45743W        W18168  21.653   2.996  12.504
45744W        W18169  19.730   2.300  13.961
45745W        W18170  11.832  34.977   1.843
45746W        W18171  24.242  11.196   9.946
45747W        W18172  13.649   5.848   4.762
45748W        W18173  17.004  41.426  13.003
45749W        W18174  10.304  19.107   2.883
45750W        W18175   6.297  29.025   1.391
45751W        W18176  32.035  39.118  14.570
45752W        W18177  18.657  30.434   0.921
45753W        W18178  34.346  32.917   1.439
45754W        W18179  35.810   8.195   4.038
45755W        W18180  38.281  38.457   2.875
45756W        W18181  16.264  14.940   0.323
45757W        W18182   8.826  34.546   4.606
45758W        W18183  15.974   3.611   2.262
45759W        W18184   2.423  33.260  12.872
45760W        W18185   4.792  38.677   5.037
45761W        W18186   1.713  12.198   2.638
45762W        W18187   6.716  21.240  12.063
45763W        W18188  30.198  27.995  11.232
45764W        W18189  15.593  33.426   0.247
45765W        W18190  24.764  41.891  14.618
45766W        W18191  40.281  35.034   3.129
45767W        W18192  42.869  35.416  12.707
45768W        W18193  39.247  29.569  12.665
45769W        W18194  13.865   6.848  10.541
45770W        W18195  10.708  25.284   2.674
45771W        W18196  26.573  26.648   3.050
45772W        W18197  19.300  41.336   4.114
45773W        W18198  17.788  28.135  12.426
45774W        W18199   7.766   8.247   2.439
45775W        W18200  22.723  29.670  11.939
45776W        W18201  19.969  27.288  11.179
45777W        W18202  28.907  20.581  11.495
45778W        W18203  28.664  21.352   4.928
45779W        W18204   4.886  28.214   4.671
45780W        W18205  18.128  11.367  14.436
45781W        W18206  17.578  26.477   2.482
45782W        W18207  34.552  16.591  12.514
45783W        W18208  42.380   9.774   4.488
45784W        W18209   7.707  25.983   3.745
45785W        W18210  42.855  40.646  10.725
45786W        W18211  44.396  43.935  14.411
45787W        W18212  38.457  22.693  11.558
45788W        W18213  21.939  32.498   3.222
45789W        W18214  38.933  43.806  10.744
45790W        W18215   1.834  23.396   4.574
45791W        W18216   8.146  35.146   4.209
45792W        W18217   2.821  14.240   0.485
45793W        W18218   2.722  13.886   3.187
45794W        W18219  25.896  29.668  11.583
45795W        W18220  13.099   1.036   1.439
45796W        W18221  18.794  27.560   4.816
45797W        W18222   1.461  10.476   4.231
45798W        W18223  22.769  16.600   0.913
45799W        W18224  18.010  11.270  13.054
45800W        W18225  33.842  29.981  12.051
45801W        W18226  21.277   2.576  13.805
45802W        W18227   4.968  36.660   1.203
45803W        W18228  21.537   5.013   3.291
45804W        W18229  39.128  34.631   3.620
45805W        W18230  39.312   1.933  11.616
45806W        W18231  19.202  24.656   4.408
45807W        W18232  39.433  28.918   4.829
45808W        W18233  22.606  13.861  14.840
45809W        W18234   8.451  21.672   4.116
45810W        W18235  24.299  19.355  11.134
45811W        W18236   8.263  19.136  12.913
45812W        W18237  31.355  18.724  14.901
45813W        W18238  38.517  21.464   0.933
45814W        W18239  24.006  41.599  11.042
45815W        W18240  18.929  16.693  10.295
45816W        W18241  16.120   6.691  11.877
45817W        W18242   4.868  35.424   4.580
45818W        W18243  26.522  12.805   0.829
45819W        W18244  26.137   3.644   1.517
45820W        W18245  28.148  28.687   1.816
45821W        W18246  37.026  35.157   1.467
45822W        W18247   2.737  32.163   1.295
45823W        W18248  36.562   2.710   3.337
45824W        W18249  40.707  22.286  12.975
45825W        W18250  40.068  42.015   0.385
45826W        W18251  30.211  32.522   2.605
45827W        W18252  28.755  40.860  14.179
45828W        W18253  34.415  15.136   0.444
45829W        W18254  20.812  11.812   0.362
45830W        W18255  24.262  25.287   1.856
45831W        W18256  23.006  23.213   4.644
45832W        W18257   7.833  15.053  13.470
45833W        W18258  12.135  40.871  11.569
45834W        W18259  42.177  38.762   3.404
45835W        W18260   0.660  41.381  13.175
45836W        W18261  12.185  20.959  14.879
45837W        W18262  30.451  21.001  12.557
45838W        W18263  17.892  33.588   4.629
45839W        W18264  29.005  24.521   1.894
45840W        W18265  30.424  19.597  13.416
45841W        W18266  18.106  17.714   0.285
45842W        W18267  10.496   1.691   0.143
45843W        W18268  19.592  31.335   0.286
45844W        W18269   8.218  31.649   4.251
45845W        W18270  26.013  13.041  12.550
45846W        W18271  12.037  31.453  12.157
45847W        W18272  38.419  33.441  12.877
45848W        W18273  43.684  31.063  13.933
45849W        W18274   8.341  38.395   5.038
45850W        W18275  25.944  25.519   2.581
45851W        W18276  40.490  31.837  11.640
45852W        W18277  38.973  40.391   3.584
45853W        W18278  36.602  39.311  11.694
45854W        W18279   6.592  17.092  13.392
45855W        W18280   2.774  13.321  13.438
45856W        W18281  25.013   6.167   2.011
45857W        W18282  14.590  19.792   0.410
45858W        W18283  11.427  14.519  13.444
45859W        W18284  38.110  13.291   3.879
45860W        W18285  37.277  38.877  13.545
45861W        W18286   6.382  35.410   1.515
45862W        W18287  37.141  14.636  13.488
45863W        W18288  42.339  30.906  13.805
45864W        W18289  21.487   5.926   1.923
45865W        W18290  37.408  34.479  12.586
45866W        W18291  36.045   5.723  11.905
45867W        W18292  22.276  32.137  14.501
45868W        W18293   9.829  10.645  14.961
45869W        W18294  18.810  38.558   0.441
45870W        W18295  37.430  16.091  12.350
45871W        W18296  14.375  35.874   4.175
45872W        W18297  43.829  32.639  13.339
45873W        W18298  39.503   5.893   3.568
45874W        W18299  14.174  33.176  10.734
45875W        W18300  39.420  10.429  11.749
45876W        W18301  32.356  44.870   4.201
45877W        W18302  17.666  41.392   1.351
45878W        W18303  17.557  44.398   3.445
45879W        W18304  35.218  22.643  14.964
45880W        W18305  19.815  25.899  12.896
45881W        W18306  27.830   5.635  13.189
45882W        W18307  30.534   2.769   4.108
45883W        W18308  31.585  44.032  14.873
45884W        W18309  24.676  35.849  12.873
45885W        W18310  16.004  25.284  10.579
45886W        W18311  15.275  42.894   2.228
45887W        W18312  25.036   3.767   1.339
45888W        W18313  19.482   4.538   0.852
45889W        W18314  20.241  22.723  13.940
45890W        W18315  33.658  26.059   3.667
45891W        W18316  16.777   1.683   0.708
45892W        W18317  16.846  16.553   2.210
45893W        W18318  26.179   9.669   0.960
45894W        W18319  42.787   2.672   2.040
45895W        W18320   7.287   2.151   0.201
45896W        W18321  37.593  26.099   0.947
45897W        W18322  23.422   2.468   3.029
45898W        W18323  37.976   5.321  12.000
45899W        W18324  16.063  42.498   3.244
45900W        W18325  16.237  30.685  11.638
45901W        W18326  31.495  14.360   4.650
45902W        W18327  35.109  23.619   1.052
45903W        W18328  44.320   1.886   1.187
45904W        W18329   2.763  25.410   3.351
45905W        W18330  16.152  29.665  14.939
45906W        W18331   1.709   0.764  12.187
45907W        W18332  24.999  11.809  12.996
45908W        W18333  32.054  26.678  13.837
45909W        W18334  10.465  36.635  14.081
45910W        W18335   2.655   7.401  11.114
45911W        W18336   5.025   7.328   3.144
45912W        W18337  30.718   8.300  14.849
45913W        W18338  32.825  40.156   2.729
45914W        W18339  29.153   6.671  11.026
45915W        W18340   0.503  10.871   0.433
45916W        W18341   5.787  31.385  12.666
45917W        W18342  25.580  30.230  14.535
45918W        W18343  20.191   2.166   2.205
45919W        W18344  27.500   1.443   3.635
45920W        W18345  25.180   7.938  13.863
45921W        W18346  44.452   4.650  11.951
45922W        W18347  36.830  18.694   1.988
45923W        W18348   6.871   4.581   2.107
45924W        W18349  43.406  17.354  14.430
45925W        W18350   8.663  18.308  10.553
45926W        W18351  16.578  34.969   2.795
45927W        W18352  35.326  41.292   3.772
45928W        W18353  30.300  19.726  14.849
45929W        W18354  35.505  21.282   4.326
45930W        W18355   5.844  23.880  12.117
45931W        W18356  37.649  22.716   2.812
45932W        W18357  31.186  34.655   1.789
45933W        W18358   2.736  21.654  10.495
45934W        W18359  41.286  18.768  12.551
45935W        W18360  12.799  35.395   2.243
45936W        W18361  33.604  31.500   0.889
45937W        W18362  44.034   9.683  14.366
45938W        W18363  15.136  20.289  14.900
45939W        W18364  38.304  44.455  13.553
45940W        W18365  37.424   6.348  13.263
45941W        W18366  39.418  25.695  10.884
45942W        W18367   9.256  19.338   4.689
45943W        W18368  42.885   4.908   2.283
45944W        W18369  34.670  23.236   4.159
45945W        W18370  32.095   6.510  12.052
45946W        W18371  21.539   2.267  10.892
45947W        W18372  41.383  15.235  11.181
45948W        W18373  11.867  35.319   0.752
45949W        W18374  24.452  32.873  12.083
45950W        W18375  28.983  30.013  13.929
45951W        W18376  19.033  12.502  12.094
45952W        W18377  11.565  19.648   1.656
45953W        W18378  18.551  21.761  14.846
45954W        W18379   3.150  35.245   5.160
45955W        W18380  25.500  10.387  12.134
45956W        W18381  35.019  21.194   4.588
45957W        W18382  33.001   4.731  14.877
45958W        W18383   3.128  19.267   0.859
45959W        W18384  26.660  22.321   3.651
45960W        W18385   8.162  17.258  10.725
45961W        W18386  44.414  44.835   2.265
45962W        W18387  16.720   6.128   1.822
45963W        W18388  30.982  31.107   4.470
45964W        W18389  16.196   7.209   0.236
45965W        W18390   0.415  23.161   4.350
45966W        W18391  25.001  26.426   9.912
45967W        W18392   5.227   4.745   4.578
45968W        W18393  18.207  41.538  12.550
45969W        W18394  28.531  26.673  11.903
45970W        W18395  35.280  25.339   0.771
45971W        W18396  18.172  40.076  11.469
45972W        W18397  31.092   9.466  13.807
45973W        W18398  24.991   2.690   0.784
45974W        W18399  11.237   5.530  11.948
45975W        W18400  35.670  40.316  12.940
45976W        W18401  35.595  43.387  14.253
45977W        W18402   5.494  24.023   4.178
45978W        W18403  44.324   2.909   3.189
45979W        W18404  28.156  38.074   3.365
45980W        W18405  38.443   8.201   4.157
45981W        W18406  25.451  13.928  11.095
45982W        W18407   9.350  24.264   3.215
45983W        W18408   5.366  35.361   1.958
45984W        W18409  22.193  20.131  11.351
45985W        W18410   4.847   5.178  10.775
45986W        W18411  25.005  36.020   3.790
45987W        W18412   1.889  34.108  13.311
45988W        W18413  10.310  29.538   2.359
45989W        W18414  42.611  41.519   0.859
45990W        W18415  34.837  26.102   1.679
45991W        W18416  14.301  12.790   1.866
45992W        W18417  34.486  15.384  14.432
45993W        W18418  17.260  12.002  11.540
45994W        W18419  25.934  33.489  10.036
45995W        W18420  36.298  33.184  14.666
45996W        W18421   3.520  32.006  14.244
45997W        W18422  39.487  31.958  13.815
45998W        W18423  34.479  28.571   4.549
45999W        W18424  42.386  18.347  13.561
46000W        W18425  26.094   3.335   1.935
46001W        W18426  10.604  44.479   3.987
46002W        W18427   2.684  16.700  10.690
46003W        W18428  25.124  28.711  13.265
46004W        W18429  33.780  28.957   0.813
46005W        W18430   8.325  26.770  10.661
46006W        W18431  21.199  23.244   3.307
46007W        W18432  23.430  11.663   0.798
46008W        W18433  15.571   3.972   0.469
46009W        W18434   9.788  20.838   1.426
46010W        W18435  18.595   2.698  13.549
46011W        W18436  36.987  17.544   3.939
46012W        W18437   0.283  10.778   3.799
46013W        W18438  26.746  27.590  11.982
46014W        W18439  29.925  10.311  12.465
46015W        W18440  44.063   4.716   0.830
46016W        W18441  37.538   6.116   4.012
46017W        W18442   4.955  15.161   2.313
46018W        W18443  43.046  19.681   1.844
46019W        W18444  28.960  21.241   1.218
46020W        W18445  12.329   3.688   1.889
46021W        W18446  32.936  10.825  12.374
46022W        W18447   7.540   9.804   2.207
46023W        W18448  12.319   9.875  10.536
46024W        W18449  20.523   5.876   3.385
46025W        W18450  28.119  14.619   1.951
46026W        W18451  42.937  30.053  10.510
46027W        W18452  44.604  24.197   1.762
46028W        W18453  13.810  37.373  14.826
46029W        W18454  13.553  20.318   4.117
46030W        W18455  25.133  30.225   0.148
46031W        W18456   2.937  18.097   0.922
46032W        W18457  22.108  17.046  14.408
46033W        W18458  32.699  13.388  13.838
46034W        W18459  28.255  23.742  11.151
46035W        W18460  22.024  10.732   5.033
46036W        W18461  28.615  33.927   1.419
46037W        W18462  34.926  22.216  14.808
46038W        W18463  35.501  36.377   0.510
46039W        W18464  20.582  17.051  11.090
46040W        W18465   4.486  10.629   0.207
46041W        W18466  22.272  10.189   2.911
46042W        W18467  28.928  27.795   0.359
46043W        W18468  21.038  34.567  11.508
46044W        W18469  32.097   3.535  13.416
46045W        W18470  37.942  23.167  10.885
46046W        W18471   2.481  33.421  14.834
46047W        W18472  33.410   8.314  13.907
46048W        W18473  30.926  30.550  12.558
46049W        W18474  44.886   4.940  11.868
46050W        W18475  43.601  36.895  12.973
46051W        W18476  37.549   2.867   2.241
46052W        W18477  24.612   5.164   4.561
46053W        W18478  43.468  36.161  13.971
46054W        W18479  16.112   7.651  13.355
46055W        W18480   0.868  35.615   1.194
46056W        W18481   6.347  16.653   4.114
46057W        W18482   7.308  14.869   0.283
46058W        W18483  24.679  14.058  12.143
46059W        W18484  30.309   4.681  11.510
46060W        W18485  33.672  42.922   3.740
46061W        W18486  17.287  37.120   1.859
46062W        W18487  32.572  22.106   1.189
46063W        W18488  40.886  18.648   2.290
46064W        W18489  13.817  29.191   2.214
46065W        W18490   2.464  35.937  10.613
46066W        W18491   7.166   2.378  11.890
46067W        W18492  20.196  16.781  13.440
46068W        W18493  16.650  12.102   1.536
46069W        W18494  17.692   4.649   3.795
46070W        W18495  13.575  23.184   3.669
46071W        W18496   4.830  32.850   1.810
46072W        W18497  29.132  15.554  14.721
46073W        W18498  27.735  21.065  12.415
46074W        W18499  11.370  36.859   0.332
46075W        W18500  37.254  41.834  12.136
46076W        W18501   7.364  21.803   3.347
46077W        W18502  35.382  42.469  13.961
46078W        W18503  13.659  21.986   1.781
46079W        W18504  24.409   8.197  10.726
46080W        W18505  29.055  24.720  14.484
46081W        W18506  40.951  39.397  14.119
46082W        W18507  37.907  43.249   1.154
46083W        W18508  39.788  18.763  11.156
46084W        W18509  33.419  27.198   0.436
46085W        W18510  10.633  19.779   1.337
46086W        W18511   9.749   5.253  12.905
46087W        W18512  20.586  41.236  10.933
46088W        W18513  36.833  30.542  13.734
46089W        W18514  22.992  20.074   2.331
46090W        W18515  33.913  35.332  12.551
46091W        W18516  13.838   5.436   5.025
46092W        W18517  13.344  28.339   2.131
46093W        W18518  35.074  10.679   2.457
46094W        W18519   5.448  15.274   0.784
46095W        W18520  31.560  15.585   5.105
46096W        W18521  43.668  14.914   4.897
46097W        W18522  18.807   1.769  11.234
46098W        W18523  44.480   1.329  14.880
46099W        W18524  10.278  20.138   2.868
46100W        W18525  28.031   3.229   2.780
46101W        W18526   0.784   9.502   2.800
46102W        W18527  18.632  28.974   1.305
46103W        W18528  29.559  37.915  12.462
46104W        W18529  28.574  29.989  12.430
46105W        W18530  21.142  23.146   0.818
46106W        W18531  16.835  10.430  10.501
46107W        W18532  27.890  41.811   3.697
46108W        W18533  38.162  16.001  10.288
46109W        W18534  33.399  11.776   3.099
46110W        W18535  17.126  23.030   3.143
46111W        W18536   3.998  33.121  11.144
46112W        W18537  24.551  25.412  14.400
46113W        W18538   7.061  12.303  14.384
46114W        W18539  33.615  41.453  11.490
46115W        W18540  18.577  22.413  12.122
46116W        W18541   3.652   2.257  11.315
46117W        W18542  13.627  42.939  14.918
46118W        W18543   1.038  38.034  14.028
46119W        W18544   6.772   8.337   1.186
46120W        W18545  32.834  31.813   2.838
46121W        W18546  14.077  40.475  14.002
46122W        W18547  40.826   2.867  12.400
46123W        W18548  14.601  19.128   1.714
46124W        W18549  17.594   7.774  14.407
46125W        W18550  22.520  30.105   4.224
46126W        W18551  17.288  16.385   0.271
46127W        W18552  30.184  12.200  12.430
46128W        W18553  11.692  29.355   2.692
46129W        W18554  39.435  28.184  14.949
46130W        W18555  28.060  29.939   0.989
46131W        W18556  37.476  37.804   1.131
46132W        W18557  32.658  33.140   3.612
46133W        W18558  40.054  27.081  13.800
46134W        W18559  30.374  22.558  12.476
46135W        W18560   3.786  11.912   1.925
46136W        W18561  39.978  37.250   3.166
46137W        W18562  18.983  12.338   4.577
46138W        W18563   8.201  42.933  11.117
46139W        W18564  10.664  29.915   2.256
46140W        W18565  42.273  18.101   2.164
46141W        W18566  36.502  34.786  10.712
46142W        W18567  38.642   8.615  10.650
46143W        W18568  27.463  31.583  13.420
46144W        W18569  16.160   5.893  13.397
46145W        W18570  43.912  40.392   0.766
46146W        W18571  13.210  42.020   0.834
46147W        W18572   5.755  18.244   2.588
46148W        W18573   5.597  43.438  14.941
46149W        W18574  16.107   9.336   3.464
46150W        W18575  14.575  36.799  13.404
46151W        W18576   6.892  43.008   2.238
46152W        W18577  22.814  43.089  14.463
46153W        W18578  38.207  22.795  12.036
46154W        W18579  40.060  21.089  10.932
46155W        W18580  41.133  14.888  14.030
46156W        W18581  22.101  41.759   1.404
46157W        W18582  18.750  42.006   2.786
46158W        W18583  41.822   3.883  12.453
46159W        W18584  43.492  33.538   4.769
46160W        W18585  20.806  25.490  10.518
46161W        W18586  15.258  36.851   2.917
46162W        W18587  26.378  21.224  12.347
46163W        W18588  34.106  32.216   0.887
46164W        W18589  31.971  29.999  14.849
46165W        W18590  19.753  31.212   0.895
46166W        W18591  41.977  40.628  14.967
46167W        W18592  36.589  36.938  13.297
46168W        W18593  24.251  30.662   4.048
46169W        W18594  35.843  36.594   0.162
46170W        W18595  11.771  20.523  10.603
46171W        W18596  10.595  28.149  11.553
46172W        W18597   7.298  20.946   0.445
46173W        W18598  42.411  42.098   4.981
46174W        W18599  30.034  20.746   5.451
46175W        W18600   1.607  13.190   4.132
46176W        W18601  35.910  43.791   4.592
46177W        W18602  18.377  26.643   3.374
46178W        W18603  23.125  23.692  10.985
46179W        W18604  36.842   3.493  12.198
46180W        W18605  36.320  39.753  12.944
46181W        W18606   8.214  32.079   1.881
46182W        W18607  32.077  29.458   1.910
46183W        W18608   2.977  44.540   1.700
46184W        W18609   0.734   1.010  12.897
46185W        W18610  25.035  25.766   2.278
46186W        W18611  37.064  42.474  13.400
46187W        W18612  18.741  25.072   1.213
46188W        W18613  41.274  31.907   1.301
46189W        W18614  27.522  11.848   2.190
46190W        W18615   9.682  39.920  12.468
46191W        W18616  24.215  31.280  10.240
46192W        W18617  28.552  16.084  14.043
46193W        W18618  40.947  43.603  13.586
46194W        W18619   4.741  29.447   3.148
46195W        W18620  20.717  37.069   3.684
46196W        W18621  32.122  36.601   0.296
46197W        W18622  24.453  44.524  14.356
46198W        W18623   8.392  28.300  12.092
46199W        W18624  14.404   6.160   3.754
46200W        W18625  23.403   3.689  11.692
46201W        W18626  38.895  14.360  12.432
46202W        W18627  32.477  25.999  14.995
46203W        W18628  22.131  12.952  14.302
46204W        W18629  39.308  12.991   0.619
46205W        W18630  38.030  36.429  12.466
46206W        W18631  10.107  30.511  12.492
46207W        W18632  37.550  31.404   3.664
46208W        W18633  22.628   0.324   2.923
46209W        W18634  28.145  13.399  11.124
46210W        W18635  38.003  19.037   0.306
46211W        W18636  18.762  28.418  12.395
46212W        W18637  17.875   7.956   2.508
46213W        W18638  25.497  38.690  11.131
46214W        W18639   0.218  15.323   4.771
46215W        W18640  23.811  26.169   0.347
46216W        W18641  44.701  34.940   4.169
46217W        W18642   1.192  21.645   4.277
46218W        W18643   7.328  15.877   0.242
46219W        W18644   9.377  35.068  10.561
46220W        W18645   1.538   9.680   1.307
46221W        W18646  12.690   2.787  14.778
46222W        W18647  26.232  12.435   1.758
46223W        W18648  16.380  27.337   2.787
46224W        W18649   6.921  23.010   1.382
46225W        W18650  28.139  22.116   0.741
46226W        W18651   2.355  33.861  14.053
46227W        W18652  43.580  44.615  11.252
46228W        W18653  16.493  27.222   0.674
46229W        W18654  37.043  42.326   3.334
46230W        W18655  15.826   0.980   4.142
46231W        W18656   9.744   1.470   0.068
46232W        W18657  15.148  31.633   0.355
46233W        W18658  30.432  41.672  10.525
46234W        W18659  10.904  10.753  12.320
46235W        W18660  38.055  34.157   1.451
46236W        W18661  17.631  40.648   4.543
46237W        W18662   7.008  36.761   4.454
46238W        W18663  32.017  17.720   4.405
46239W        W18664  33.972   2.768  10.829
46240W        W18665   8.258  29.913   1.778
46241W        W18666  25.771  17.345  13.573
46242W        W18667   7.171   0.445   0.771
46243W        W18668  30.896  26.231  14.385
46244W        W18669  30.034  24.701  14.985
46245W        W18670  22.587  10.005   3.856
46246W        W18671  29.078  17.857   0.971
46247W        W18672  26.757  19.656  11.075
46248W        W18673  23.621  35.143  13.594
46249W        W18674   3.692  33.532  14.258
46250W        W18675  30.583   5.934   4.588
46251W        W18676  24.290   9.919   1.856
46252W        W18677  26.499   2.340  10.437
46253W        W18678  15.198  29.485   1.869
46254W        W18679  30.676  27.161   1.284
46255W        W18680  23.582  16.747  10.567
46256W        W18681  32.406  28.179   3.675
46257W        W18682  19.809  23.133  13.510
46258W        W18683  33.947   7.046  11.597
46259W        W18684  34.472  24.166  11.498
46260W        W18685   6.935  16.095  13.441
46261W        W18686  44.868  27.425   0.874
46262W        W18687  41.383  19.651   5.093
46263W        W18688  32.963  26.512   9.659
46264W        W18689   4.698  19.696  14.726
46265W        W18690  17.749  17.741  11.479
46266W        W18691  29.381  23.187  10.262
46267W        W18692  39.925  33.532  11.650
46268W        W18693  41.828  19.741   2.590
46269W        W18694  12.246  20.619   1.668
46270W        W18695  41.862  18.651  13.621
46271W        W18696  44.481  34.600  13.063
46272W        W18697   6.837  43.152   3.702
46273W        W18698   2.542  35.976  11.969
46274W        W18699  37.856  32.648  12.428
46275W        W18700  26.821   1.947  11.227
46276W        W18701  31.935  33.255  14.752
46277W        W18702  25.683  16.211  12.408
46278W        W18703  21.009  14.298  13.903
46279W        W18704  12.403  26.515  10.976
46280W        W18705  11.840  12.855   1.640
46281W        W18706  32.250  32.904   3.409
46282W        W18707  31.916  30.540  12.591
46283W        W18708   3.525   0.040   0.952
46284W        W18709  26.958  20.986  14.947
46285W        W18710  16.677   4.260  14.865
46286W        W18711  44.904   4.476  12.117
46287W        W18712  13.207  15.065   0.983
46288W        W18713   6.323   5.185  13.764
46289W        W18714  22.753  20.991  14.440
46290W        W18715  13.304  33.895  13.119
46291W        W18716  15.695  42.096   4.491
46292W        W18717  14.518  18.662  12.935
46293W        W18718  31.070  29.200   3.944
46294W        W18719   3.191  39.846   1.268
46295W        W18720  35.924  21.618   2.357
46296W        W18721  24.349  41.637   4.106
46297W        W18722  27.798   9.553  12.919
46298W        W18723  11.676  42.563   2.726
46299W        W18724   9.370  40.312  14.492
46300W        W18725   9.025  31.539  13.473
46301W        W18726   0.382  19.779  13.148
46302W        W18727  10.189   0.426   4.632
46303W        W18728   4.679  37.987  12.098
46304W        W18729  11.715  41.972  14.094
46305W        W18730  42.908  33.383  14.369
46306W        W18731  20.587  33.040   4.093
46307W        W18732  22.349   2.692  11.287
46308W        W18733  30.648  19.177  14.956
46309W        W18734  38.971  16.119  14.319
46310W        W18735  44.429  16.511  11.005
46311W        W18736  21.937  19.076  11.928
46312W        W18737   3.000   4.257  14.930
46313W        W18738   0.895  33.053   3.698
46314W        W18739  19.336  23.555   3.261
46315W        W18740  16.039  22.571  11.136
46316W        W18741  16.306  29.685  12.601
46317W        W18742  16.421  36.329  13.561
46318W        W18743  22.003   1.118   4.087
46319W        W18744  12.321  11.597   0.920
46320W        W18745  23.697  14.229  11.102
46321W        W18746  41.620  27.993  10.579
46322W        W18747  44.352  27.543   0.731
46323W        W18748  19.015  30.037   1.862
46324W        W18749  29.548  15.308   4.447
46325W        W18750  25.578  42.588   3.757
46326W        W18751  12.031  32.341   0.329
46327W        W18752   9.268  35.338   0.506
46328W        W18753  23.118   4.483   4.649
46329W        W18754  21.048  44.209  11.636
46330W        W18755  18.305   9.674   2.102
46331W        W18756  32.809   2.757  13.731
46332W        W18757  25.881  10.248  12.518
46333W        W18758  26.747  16.080  12.556
46334W        W18759  22.551   6.660   1.342
46335W        W18760  13.507  26.626   3.193
46336W        W18761  35.613  38.739  11.857
46337W        W18762   0.819  39.075  13.683
46338W        W18763  12.605  21.657   2.408
46339W        W18764   6.258  34.702  14.831
46340W        W18765   2.746  14.870   4.998
46341W        W18766   7.665  11.789   0.028
46342W        W18767   9.351  26.568   4.388
46343W        W18768   8.826   8.956  12.001
46344W        W18769   3.827  10.426   4.695
46345W        W18770  11.051   3.962  13.972
46346W        W18771  34.984  34.484  13.073
46347W        W18772   6.446  19.920  13.700
46348W        W18773   0.346   2.243  12.522
46349W        W18774  33.467  18.647  10.685
46350W        W18775  35.902  31.104  11.984
46351W        W18776  18.959  18.496  11.134
46352W        W18777  36.317  36.107  11.085
46353W        W18778  30.688  38.058   2.412
46354W        W18779  40.502   0.800  12.035
46355W        W18780  16.244  12.064  10.810
46356W        W18781   3.272  38.610   0.765
46357W        W18782  36.583  19.598  10.095
46358W        W18783  36.985  42.953   0.089
46359W        W18784   0.054  18.735   0.254
46360W        W18785  38.493  15.279   1.661
46361W        W18786  20.518  15.053  10.630
46362W        W18787   9.840  30.439  11.127
46363W        W18788  39.898  29.920  12.865
46364W        W18789  39.035  10.337   3.185
46365W        W18790  10.474   4.269  13.313
46366W        W18791   6.069  36.178  10.280
46367W        W18792   1.710  27.871   1.228
46368W        W18793  41.860  41.888   0.602
46369W        W18794   8.335  37.833  11.091
46370W        W18795   0.223  15.407   0.333
46371W        W18796  32.228   9.705  13.373
46372W        W18797   5.267  33.588  13.369
46373W        W18798   4.822  38.870  14.648
46374W        W18799  36.426  16.555  12.936
46375W        W18800   9.183  16.888  12.106
46376W        W18801  30.925  11.628   1.299
46377W        W18802  26.593  29.694  12.794
46378W        W18803  31.001  44.762   0.240
46379W        W18804  40.031  29.405   0.909
46380W        W18805  30.269  42.511   0.670
46381W        W18806  14.790  21.206  12.974
46382W        W18807   6.197  18.657   4.280
46383W        W18808  11.648  43.857  13.297
46384W        W18809  29.198  13.633   2.903
46385W        W18810  42.147  41.355   2.786
46386W        W18811  42.542  14.626   4.369
46387W        W18812   7.370   4.763   4.699
46388W        W18813  42.490  19.816   9.818
46389W        W18814  30.486  36.506   3.750
46390W        W18815   1.844  44.032  10.430
46391W        W18816  29.640  14.465  12.108
46392W        W18817   0.057  36.366   2.140
46393W        W18818  25.414  19.046   4.509
46394W        W18819  42.359   0.951  14.878
46395W        W18820  22.208   1.702   0.351
46396W        W18821  20.074  18.602   0.228
46397W        W18822  10.770  44.055   1.013
46398W        W18823  40.272   7.314  14.774
46399W        W18824   3.469  43.434  10.557
46400W        W18825   6.196  43.339   2.656
46401W        W18826   8.219  24.619   2.753
46402W        W18827  41.866  38.419   0.941
46403W        W18828  36.193   2.296  11.140
46404W        W18829  34.648  21.650   2.852
46405W        W18830  43.389  43.006   4.205
46406W        W18831  21.588  20.127  10.719
46407W        W18832  42.998  28.009   0.444
46408W        W18833  15.597  15.439  14.750
46409W        W18834  30.599  39.005  10.477
46410W        W18835  17.469  43.220  11.425
46411W        W18836  29.942  20.101  14.951
46412W        W18837  11.576  33.004  11.799
46413W        W18838  13.117   6.749  14.485
46414W        W18839  26.311  39.996  12.303
46415W        W18840  37.859  38.066   1.888
46416W        W18841  34.522   1.677   4.339
46417W        W18842  13.052  40.360   2.349
46418W        W18843   9.254  40.531  12.401
46419W        W18844  11.428  36.522   1.403
46420W        W18845  17.261  42.102  14.821
46421W        W18846  33.639  31.426  13.784
46422W        W18847  42.730  35.960   0.373
46423W        W18848  42.928   7.153   3.743
46424W        W18849  17.867  24.232  13.911
46425W        W18850  17.318  35.890   3.422
46426W        W18851  37.839  36.446   2.413
46427W        W18852  17.315  37.328   2.397
46428W        W18853  24.088  23.140   0.899
46429W        W18854  21.320  25.621  12.742
46430W        W18855  14.660  29.145   1.808
46431W        W18856  29.617   3.755  12.809
46432W        W18857  28.426  36.307   2.582
46433W        W18858  37.517  17.800   2.765
46434W        W18859   8.064  32.599  12.415
46435W        W18860  38.919  44.843  13.104
46436W        W18861   0.350  15.966   1.936
46437W        W18862  24.700   0.804   3.922
46438W        W18863  23.161  19.804  12.525
46439W        W18864  34.626  43.936   5.080
46440W        W18865   2.964  25.582  13.021
46441W        W18866  13.530  20.374  13.988
46442W        W18867  35.268   8.954  14.029
46443W        W18868  33.658  29.056  13.577
46444W        W18869  27.446  39.869   0.209
46445W        W18870  41.249  40.798   4.569
46446W        W18871  25.463  28.627  10.570
46447W        W18872  36.947   7.555   4.512
46448W        W18873  17.459   4.374   3.408
46449W        W18874  13.336  39.739  12.875
46450W        W18875  29.437   0.327  10.955
46451W        W18876  33.151   0.564   0.404
46452W        W18877   3.737   9.900   3.310
46453W        W18878  21.262  43.335  13.361
46454W        W18879  23.132  25.864  13.011
46455W        W18880  21.439  30.631  11.232
46456W        W18881   3.228  39.460   1.969
46457W        W18882  25.139  29.433   4.694
46458W        W18883  33.398   6.710   0.571
46459W        W18884  14.804  24.097   2.484
46460W        W18885  15.176  31.385  11.033
46461W        W18886   5.910   6.660  12.480
46462W        W18887  36.402  40.815   1.768
46463W        W18888  23.721  38.549   1.231
46464W        W18889  42.839   7.057  14.926
46465W        W18890  33.964  10.940  10.907
46466W        W18891  31.969   3.319   4.274
46467W        W18892  30.455   3.601   0.423
46468W        W18893  17.155   3.900   4.695
46469W        W18894   4.228   9.888  11.537
46470W        W18895  27.944  16.240   2.520
46471W        W18896   5.337  43.001   4.908
46472W        W18897   2.118   4.032  14.845
46473W        W18898  12.843  11.811   4.144
46474W        W18899   9.906  19.376   3.210
46475W        W18900  18.838  44.157  10.930
46476W        W18901  35.666  38.371  12.532
46477W        W18902   1.504   8.995  12.057
46478W        W18903  25.631  16.363  14.428
46479W        W18904  30.456   0.237   4.525
46480W        W18905   5.435  10.195  14.484
46481W        W18906  33.010   4.353   0.293
46482W        W18907  14.429  34.976  13.999
46483W        W18908  14.775  33.460  14.453
46484W        W18909   4.961  44.778  13.099
46485W        W18910  16.018  35.018  14.791
46486W        W18911  34.525  23.650  13.980
46487W        W18912   2.290  18.749   0.915
46488W        W18913  43.903  40.359   2.552
46489W        W18914   5.490  33.436   3.225
46490W        W18915   9.344  38.962   1.410
46491W        W18916   2.098  38.102  14.494
46492W        W18917  19.957  38.630   0.385
46493W        W18918  31.425  40.818   2.305
46494W        W18919  14.333  43.001  13.799
46495W        W18920  15.217   2.909   1.223
46496W        W18921  44.911  43.808  12.377
46497W        W18922  18.116  10.427   1.678
46498W        W18923   0.360  12.656   4.471
46499W        W18924   2.339  19.191   3.279
46500W        W18925   3.681  11.352  11.586
46501W        W18926  19.082   9.406   4.963
46502W        W18927  14.447  38.383   0.959
46503W        W18928   6.857  39.527  11.100
46504W        W18929  15.292  35.389  11.836
46505W        W18930  40.923  24.412  11.115
46506W        W18931  42.872  38.297   3.336
46507W        W18932  14.777  35.744   1.320
46508W        W18933  36.534  18.169  10.949
46509W        W18934  26.425   5.473   1.386
46510W        W18935   2.159  33.903   3.766
46511W        W18936  38.572   1.914  11.094
46512W        W18937   5.272  29.153   0.381
46513W        W18938  24.889   7.246   3.964
46514W        W18939   0.793  19.347   1.652
46515W        W18940  39.879  21.698   1.790
46516W        W18941   2.266  23.503   1.230
46517W        W18942   9.890  16.197  12.662
46518W        W18943  13.091  36.880  10.715
46519W        W18944  17.738  28.140   1.502
46520W        W18945  37.559  32.849   2.166
46521W        W18946  18.373  27.079  14.939
46522W        W18947  12.836  36.438  10.736
46523W        W18948  19.042   8.356   1.210
46524W        W18949  16.344   5.207  12.358
46525W        W18950  16.571   2.266  12.634
46526W        W18951  13.337  26.920   1.733
46527W        W18952  20.035  24.117   2.631
46528W        W18953  24.365  44.811   1.850
46529W        W18954   3.627   9.763  11.968
46530W        W18955  27.989  38.855  10.888
46531W        W18956  10.738  24.544   4.974
46532W        W18957  28.045  39.377  12.596
46533W        W18958  31.938  29.929  10.658
46534W        W18959  42.802   5.807  10.579
46535W        W18960  10.068  18.564   3.596
46536W        W18961  29.413  21.031  12.524
46537W        W18962  18.026  38.306  13.761
46538W        W18963  38.443  26.882  13.395
46539W        W18964   2.878   6.476   1.356
46540W        W18965  40.021  11.797   4.871
46541W        W18966   7.963  40.588  12.253
46542W        W18967  15.078   4.539  13.543
46543W        W18968  32.971  42.812  11.336
46544W        W18969  44.371   3.890  14.633
46545W        W18970  39.105   8.409  11.769
46546W        W18971  27.631  33.879   4.672
46547W        W18972  13.812  18.373   4.609
46548W        W18973   6.190  10.185   1.652
46549W        W18974  16.574  35.977   3.721
46550W        W18975  41.697  12.313  13.953
46551W        W18976  23.246   9.366  13.437
46552W        W18977  21.092  38.801  14.699
46553W        W18978  22.280  13.129  12.491
46554W        W18979  14.790   3.203   0.981
46555W        W18980  26.137  30.988   4.126
46556W        W18981  44.096   0.716  11.942
46557W        W18982  23.720  24.609  10.777
46558W        W18983  26.941  11.372   4.670
46559W        W18984  37.644  32.058   1.762
46560W        W18985   6.316  28.035  14.981
46561W        W18986  10.121   5.915   3.188
46562W        W18987   4.953   0.756   4.070
46563W        W18988  24.233  15.121   4.330
46564W        W18989   6.948  13.949   1.698
46565W        W18990  20.660  19.224  11.156
46566W        W18991   9.600  11.553  14.867
46567W        W18992  27.719  37.450  13.991
46568W        W18993  44.489   5.688  14.021
46569W        W18994  33.242  18.816   4.123
46570W        W18995  32.860  25.617  14.192
46571W        W18996   6.795  39.789   3.110
46572W        W18997  32.644  35.541  10.900
46573W        W18998   8.727  44.910  11.990
46574W        W18999  10.961  29.445  14.928
46575W        W19000   5.967  19.231   0.653
46576W        W19001  31.599  34.710  12.978
46577W        W19002  42.450  22.626   1.682
46578W        W19003   8.126   1.380   0.869
46579W        W19004   5.697  18.159  12.923
46580W        W19005  25.011  30.420   9.727
46581W        W19006  11.464  31.960  14.067
46582W        W19007  20.143   3.589  13.866
46583W        W19008   0.394   8.618  12.980
46584W        W19009  37.579  20.114  11.503
46585W        W19010  41.181  22.927   1.778
46586W        W19011  12.650  43.299   4.051
46587W        W19012  41.732  22.543   0.504
46588W        W19013   2.972  16.624   0.206
46589W        W19014  38.498   5.870  11.491
46590W        W19015  17.598  36.477  11.476
46591W        W19016  11.928  27.174  12.597
46592W        W19017   3.381  35.369   0.896
46593W        W19018  37.097  17.118  11.112
46594W        W19019  42.849  18.283   4.748
46595W        W19020  40.459  23.743   4.592
46596W        W19021  28.222  37.466  14.067
46597W        W19022  17.663  30.740   2.295
46598W        W19023  35.857   4.822   2.096
46599W        W19024  19.742  15.866   1.264
46600W        W19025  39.907  36.720   1.849
46601W        W19026  33.426  14.644  10.927
46602W        W19027  42.114  20.775  14.819
46603W        W19028   2.833  35.630  11.052
46604W        W19029  33.214  44.558  13.500
46605W        W19030  28.053  25.705  14.869
46606W        W19031  12.202   0.797  11.392
46607W        W19032   7.961  26.501   4.611
46608W        W19033   3.270  10.854   2.159
46609W        W19034  32.028  33.967  14.297
46610W        W19035  15.005   9.216   3.919
46611W        W19036   1.968  26.794  11.088
46612W        W19037  36.754  15.864  10.498
46613W        W19038  16.127  38.107   2.319
46614W        W19039  41.546  38.068  13.998
46615W        W19040  24.610  44.387  10.586
46616W        W19041  41.318  13.085   2.657
46617W        W19042  14.137  35.454   2.337
46618W        W19043  37.099  12.289  13.354
46619W        W19044  40.318  11.422  13.456
46620W        W19045   1.314  14.828   4.417
46621W        W19046  38.373  39.316   0.903
46622W        W19047  33.844  17.215   0.048
46623W        W19048  26.554  13.871  13.337
46624W        W19049  18.704  28.188   0.817
46625W        W19050  24.057   8.398  12.003
46626W        W19051  13.751  24.088   4.944
46627W        W19052  36.433  32.056  12.889
46628W        W19053  37.924  33.074  14.082
46629W        W19054   3.547  40.224   3.033
46630W        W19055  13.334  38.086  11.060
46631W        W19056  44.554  43.751  10.542
46632W        W19057  31.040  32.824  10.609
46633W        W19058  16.598  24.538  11.397
46634W        W19059  12.110  31.349  13.903
46635W        W19060   9.464  20.161   1.170
46636W        W19061  26.570  26.272   4.886
46637W        W19062   7.803  18.809  11.535
46638W        W19063   4.738  34.987  13.906
46639W        W19064   6.433   6.748  13.609
46640W        W19065   3.882  27.178  10.756
46641W        W19066  14.115  23.362   5.247
46642W        W19067  12.734  20.007  11.134
46643W        W19068  11.372  25.487  14.020
46644W        W19069   8.541  32.396  12.441
46645W        W19070   7.875  24.136  12.090
46646W        W19071  21.053   2.403   0.212
46647W        W19072   9.825  14.698  11.190
46648W        W19073  32.555   9.673  11.368
46649W        W19074  40.028  15.444   1.313
46650W        W19075  38.793  35.308  14.437
46651W        W19076   7.667   5.394   3.854
46652W        W19077  19.551  13.654  12.560
46653W        W19078  42.411  29.586   3.530
46654W        W19079  26.380  29.526   4.664
46655W        W19080  40.551  11.472  12.536
46656W        W19081   9.863  37.046  14.587
46657W        W19082  31.460  34.546  10.666
46658W        W19083   9.871  43.874  13.290
46659W        W19084  12.397   0.282   1.240
46660W        W19085  17.406  32.962  14.066
46661W        W19086   3.988  23.514  13.508
46662W        W19087   4.388   8.855  11.531
46663W        W19088  44.011  15.290   4.949
46664W        W19089  12.121  29.649   4.617
46665W        W19090  38.130  15.587   1.889
46666W        W19091  38.854  43.761  12.178
46667W        W19092  30.148  35.009  14.786
46668W        W19093   4.852  39.856   1.728
46669W        W19094  23.210  22.021  14.539
46670W        W19095  11.029  28.509   3.568
46671W        W19096  31.181  35.382  13.427
46672W        W19097  29.324   4.697  11.622
46673W        W19098  20.274   6.802  13.744
46674W        W19099   6.652  18.376  13.102
46675W        W19100  10.647  20.284   1.249
46676W        W19101  17.056  34.406   3.204
46677W        W19102  19.799  33.439   1.416
46678W        W19103  30.056  29.998   0.961
46679W        W19104  37.891   8.680   2.855
46680W        W19105  18.618  34.915  14.470
46681W        W19106   8.661  24.638   3.061
46682W        W19107  19.811   8.704  14.834
46683W        W19108   8.807   0.087  12.470
46684W        W19109  23.601  11.717  14.936
46685W        W19110   2.943  25.264   2.894
46686W        W19111  42.511  22.903   0.058
46687W        W19112  21.032  12.282   0.777
46688W        W19113  38.498   0.906  14.801
46689W        W19114  34.481  42.827   3.280
46690W        W19115  17.223  31.030  10.731
46691W        W19116  41.518  21.152  13.462
46692W        W19117   9.006  38.810   2.881
46693W        W19118  11.879   3.258  12.838
46694W        W19119  30.135  23.479  13.088
46695W        W19120  18.304  31.880   4.774
46696W        W19121  13.156  34.814  13.044
46697W        W19122  16.876  15.976  11.133
46698W        W19123  33.968   1.551   0.284
46699W        W19124  18.572  25.966   2.876
46700W        W19125  15.708   7.873  12.588
46701W        W19126  16.295  27.412  12.373
46702W        W19127   6.237  21.042  12.055
46703W        W19128  24.112  34.343   2.710
46704W        W19129  18.579  18.301   3.118
46705W        W19130   9.959  27.391   3.656
46706W        W19131  41.335   6.566  12.079
46707W        W19132  13.766   3.441   4.165
46708W        W19133   5.739   8.800   0.511
46709W        W19134   6.702   0.252   3.208
46710W        W19135   7.538  14.080  12.479
46711W        W19136  23.225  23.945   1.342
46712W        W19137  31.654   7.300  11.969
46713W        W19138  16.865  13.403   3.284
46714W        W19139  35.478  12.051   2.323
46715W        W19140  28.181  36.952   3.846
46716W        W19141  39.279  25.809   3.985
46717W        W19142  10.573  37.331   5.014
46718W        W19143  10.775  22.025   0.797
46719W        W19144   2.470   1.370   4.549
46720W        W19145   9.778  27.519   1.867
46721W        W19146  14.788   0.897   0.338
46722W        W19147  31.583  25.946  11.253
46723W        W19148  26.026  12.649   3.897
46724W        W19149  38.122  23.445  14.326
46725W        W19150  25.630  13.119  11.532
46726W        W19151   9.122  15.598  11.635
46727W        W19152  34.320  30.189  12.077
46728W        W19153  34.751  43.512   0.326
46729W        W19154  39.736  38.564   2.779
46730W        W19155  10.331  10.774   0.199
46731W        W19156  31.006  17.812  14.670
46732W        W19157   6.373  13.051   4.195
46733W        W19158  40.949   6.274   0.415
46734W        W19159  10.376  13.799   0.867
46735W        W19160   0.160   9.546  13.332
46736W        W19161  32.942  34.064   3.713
46737W        W19162  38.365  24.592  14.990
46738W        W19163   4.804  12.164   4.132
46739W        W19164  26.114  23.662   0.721
46740W        W19165   8.787  10.334   0.663
46741W        W19166  37.436  30.013   0.643
46742W        W19167   9.010  43.290   0.457
46743W        W19168  11.859  24.533   2.872
46744W        W19169  22.072   7.825  10.703
46745W        W19170  42.664  25.346  11.893
46746W        W19171  34.087  39.431  10.532
46747W        W19172  33.525  41.221  10.788
46748W        W19173   2.169  26.481  13.330
46749W        W19174   3.260  26.950   3.737
46750W        W19175   7.173  37.364  11.020
46751W        W19176   5.768  25.479   1.836
46752W        W19177  38.293   6.255   3.324
46753W        W19178   1.423  32.979  14.816
46754W        W19179  42.265  18.145  10.612
46755W        W19180  43.955  10.381  11.564
46756W        W19181  18.866  28.448   4.677
46757W        W19182  41.312  43.391  13.286
46758W        W19183  28.449  34.910  12.508
46759W        W19184  23.247  41.357  13.958
46760W        W19185  35.159  12.957  14.969
46761W        W19186  20.546  29.639  13.452
46762W        W19187  27.047   8.658   0.857
46763W        W19188   5.363  15.037   2.640
46764W        W19189  29.398   6.273   1.646
46765W        W19190  34.975  28.108  12.542
46766W        W19191  17.583  22.214   0.804
46767W        W19192  28.718  19.222  14.896
46768W        W19193  11.228  38.400  12.420
46769W        W19194  24.248   2.443   0.420
46770W        W19195  10.746  21.443  12.906
46771W        W19196  29.991  29.463  13.288
46772W        W19197  42.419  30.122   2.500
46773W        W19198  29.109  35.252  14.092
46774W        W19199  32.706  24.666  13.372
46775W        W19200  41.586  40.568   0.831
46776W        W19201   6.746   9.129   3.410
46777W        W19202   7.392   4.287   1.733
46778W        W19203  22.101  29.765   3.334
46779W        W19204  11.130  36.439  11.014
46780W        W19205  40.019  12.298   4.602
46781W        W19206  33.657  34.418   0.318
46782W        W19207   2.658   4.970  12.411
46783W        W19208  28.701  11.124   3.599
46784W        W19209  26.981  25.497   4.570
46785W        W19210  36.584  36.974   2.195
46786W        W19211  28.478  30.093   1.908
46787W        W19212  25.415  36.903   4.077
46788W        W19213  15.624  14.389  14.901
46789W        W19214  36.081  19.791   4.259
46790W        W19215  39.576  18.741   1.001
46791W        W19216   9.141  40.370  13.993
46792W        W19217  38.920  17.799  14.972
46793W        W19218  20.339  12.345  14.425
46794W        W19219  18.258   6.850   2.947
46795W        W19220  29.555  20.066   3.422
46796W        W19221   4.187  20.604  13.419
46797W        W19222  18.586  12.130   2.079
46798W        W19223  19.028  25.478  13.391
46799W        W19224  30.380   5.239  14.051
46800W        W19225   1.945   1.348   4.704
46801W        W19226  39.372  18.556  10.320
46802W        W19227  37.004   0.297  13.576
46803W        W19228  38.353  18.675  11.866
46804W        W19229  40.529   4.633  11.765
46805W        W19230   3.963  30.102   3.720
46806W        W19231  28.610   3.709  12.778
46807W        W19232   4.349  22.266   3.140
46808W        W19233  22.995  44.457  14.020
46809W        W19234  20.181  23.548   0.020
46810W        W19235  16.267  19.831  14.349
46811W        W19236  43.547   2.216  11.158
46812W        W19237  38.474  38.851   4.909
46813W        W19238  14.092  29.919   2.618
46814W        W19239  30.032  20.703  10.329
46815W        W19240  32.584  12.823   3.813
46816W        W19241  43.904  36.360  10.647
46817W        W19242   9.705   5.156   1.920
46818W        W19243   1.187  23.071   3.349
46819W        W19244  30.484  11.237   2.344
46820W        W19245  13.220  33.818  12.629
46821W        W19246  25.040  38.593  11.835
46822W        W19247  19.047  21.112  12.134
46823W        W19248  22.916  26.037   4.271
46824W        W19249  37.265  20.373  14.683
46825W        W19250   1.869  19.127   2.985
46826W        W19251   5.078  36.968   2.415
46827W        W19252  15.716  21.159   0.491
46828W        W19253  11.439  25.388  11.993
46829W        W19254  27.920  42.324  12.929
46830W        W19255  44.820  35.471   1.780
46831W        W19256   2.297   3.721   3.733
46832W        W19257   0.822  37.886  14.482
46833W        W19258   6.323  22.527   3.773
46834W        W19259  31.065  37.872  12.482
46835W        W19260  21.747  33.838  13.539
46836W        W19261  16.774  18.533   2.466
46837W        W19262  44.218  28.057   1.787
46838W        W19263   9.195  35.056   1.539
46839W        W19264  32.648  19.151  11.692
46840W        W19265  12.887  40.887  12.001
46841W        W19266   5.879  22.967  13.930
46842W        W19267  13.830  21.658  11.751
46843W        W19268  28.385  42.224  13.119
46844W        W19269  30.109  10.376   2.757
46845W        W19270  33.571  33.526  10.178
46846W        W19271  12.748  44.130  11.656
46847W        W19272   6.932  26.027  12.825
46848W        W19273  30.136  42.456   4.774
46849W        W19274  25.808  44.875  13.624
46850W        W19275  24.405  29.223  10.880
46851W        W19276  25.462  25.899   0.489
46852W        W19277  33.479   7.799  13.928
46853W        W19278   6.383  35.434  10.862
46854W        W19279   9.185  28.624  13.741
46855W        W19280  44.912  15.644  12.642
46856W        W19281  24.790  25.571   0.811
46857W        W19282  34.057  31.587   3.339
46858W        W19283   2.496  15.769   0.681
46859W        W19284  21.938  14.164   1.236
46860W        W19285   8.189   4.890  10.345
46861W        W19286  29.176  35.340   3.334
46862W        W19287  25.550  10.339   1.451
46863W        W19288  17.229   2.945  14.802
46864W        W19289  33.928  13.168  14.989
46865W        W19290  24.068  20.294   2.272
46866W        W19291  32.698  22.138  11.673
46867W        W19292  12.916  12.774  13.915
46868W        W19293  21.339  40.941  12.517
46869W        W19294   0.730  12.271   4.414
46870W        W19295  32.569  18.773   3.428
46871W        W19296  30.042   4.974  11.985
46872W        W19297  23.966   8.295   0.856
46873W        W19298  35.512  15.722   1.310
46874W        W19299  27.601  24.427  10.666
46875W        W19300  41.386  26.727  11.091
46876W        W19301  18.735  44.572  13.241
46877W        W19302   2.973  37.063  14.891
46878W        W19303  40.204   0.707   0.998
46879W        W19304  44.315   0.539   4.416
46880W        W19305   0.855   8.391  13.001
46881W        W19306  15.953  19.073   3.944
46882W        W19307  19.617  28.501  11.274
46883W        W19308  36.451  29.686  13.577
46884W        W19309  10.870  37.708   2.780
46885W        W19310  43.667  29.581   4.640
46886W        W19311   8.115   5.971  12.916
46887W        W19312  23.371   8.354   4.311
46888W        W19313  37.200  35.459  12.926
46889W        W19314  34.424  28.699  11.529
46890W        W19315  35.451  31.572   2.885
46891W        W19316  22.462  15.411   0.345
46892W        W19317  41.329  25.697  11.945
46893W        W19318  13.400   5.314  12.918
46894W        W19319  32.565  12.666  12.412
46895W        W19320  31.860  18.720  14.929
46896W        W19321   3.679  28.245  11.668
46897W        W19322  38.020   5.133   2.207
46898W        W19323  37.944  21.211   4.347
46899W        W19324  16.833  28.688  10.674
46900W        W19325  14.153  44.315   1.394
46901W        W19326  41.400  42.789   2.706
46902W        W19327  18.215  24.138   1.246
46903W        W19328  41.419  14.873   1.943
46904W        W19329  29.694  20.708  11.171
46905W        W19330  18.339  39.856  13.043
46906W        W19331  14.613  36.685  11.630
46907W        W19332  32.670  14.059   0.085
46908W        W19333  27.969  21.175  12.868
46909W        W19334   0.990   2.334   1.215
46910W        W19335  10.701  26.929  11.925
46911W        W19336  43.858  42.295  11.641
46912W        W19337   6.332  29.832  13.027
46913W        W19338  31.326  36.405   1.819
46914W        W19339  14.515  19.542   4.213
46915W        W19340   9.905  34.356  10.388
46916W        W19341  41.836   0.862  14.884
46917W        W19342   0.894   8.864   4.548
46918W        W19343  10.181  31.232   2.676
46919W        W19344  19.780  36.090   2.134
46920W        W19345  27.621  21.868  11.999
46921W        W19346  22.698  44.907  10.786
46922W        W19347  33.059  15.950  10.756
46923W        W19348  30.165  38.788   4.541
46924W        W19349  43.112   1.328   3.737
46925W        W19350  18.207  25.003   1.331
46926W        W19351  10.426  15.611  13.281
46927W        W19352  36.335   7.822  12.840
46928W        W19353  13.948  41.658   2.013
46929W        W19354  38.760  11.202   3.183
46930W        W19355   2.430  34.867   4.005
46931W        W19356  44.584  25.267  14.300
46932W        W19357  30.201  21.252   1.781
46933W        W19358  13.238   7.158   1.621
46934W        W19359   9.646  16.771   3.242
46935W        W19360  27.619   9.125   3.634
46936W        W19361  22.175   3.844   1.794
46937W        W19362   7.720  24.693  11.645
46938W        W19363  41.249  32.973  14.901
46939W        W19364   0.171  17.064  14.900
46940W        W19365  38.361  24.221  10.695
46941W        W19366  14.471  23.251   4.081
46942W        W19367   2.525  21.065  10.551
46943W        W19368  29.416  35.159   2.884
46944W        W19369  11.360  28.630  14.465
46945W        W19370  18.284  14.808  11.176
46946W        W19371  27.987  13.272  14.977
46947W        W19372  22.043  36.443   1.182
46948W        W19373  29.402  36.909   4.600
46949W        W19374  28.697  37.809  12.644
46950W        W19375  34.977  18.067  14.636
46951W        W19376  15.494  34.120  14.838
46952W        W19377  15.175   2.415  13.343
46953W        W19378  19.243  14.655   4.614
46954W        W19379  13.386   4.026   2.770
46955W        W19380   1.922  10.734   1.847
46956W        W19381  43.937  44.619   2.237
46957W        W19382  39.557  21.586  12.485
46958W        W19383  40.981   3.886  13.960
46959W        W19384  35.603  24.181   1.461
46960W        W19385  33.259  22.499   0.234
46961W        W19386   1.312  43.391  12.916
46962W        W19387   9.735  41.349   0.266
46963W        W19388   0.417  44.042  14.410
46964W        W19389  31.000   0.833   4.349
46965W        W19390  38.012  32.155   1.401
46966W        W19391  28.344   5.380   1.251
46967W        W19392  20.804   4.401   1.415
46968W        W19393  13.576  10.660  11.490
46969W        W19394   8.375  18.185  10.039
46970W        W19395  24.782  30.307  10.568
46971W        W19396  12.389   4.844   4.234
46972W        W19397  21.319  15.562  13.438
46973W        W19398  24.575  21.266  11.045
46974W        W19399  10.245  42.543  11.155
46975W        W19400  26.875  31.219   3.682
46976W        W19401  42.942  19.087  13.860
46977W        W19402  39.834  34.372  14.383
46978W        W19403   0.521  25.164  14.384
46979W        W19404  30.483  35.524   2.819
46980W        W19405  39.752  28.535   1.181
46981W        W19406  29.576  32.525  14.305
46982W        W19407  34.978  29.273   4.237
46983W        W19408  23.172   6.262   4.659
46984W        W19409  12.912  38.999  11.220
46985W        W19410  31.362  36.986  11.185
46986W        W19411  26.146  44.242   4.117
46987W        W19412   7.645  16.571  13.693
46988W        W19413  34.479  18.832   4.702
46989W        W19414   5.380  20.092   0.690
46990W        W19415  41.622  34.440   3.784
46991W        W19416   3.210   0.161  14.261
46992W        W19417  11.750  22.830  11.477
46993W        W19418   1.660  31.992   0.440
46994W        W19419  30.497  38.386   0.690
46995W        W19420   2.414  33.128  11.986
46996W        W19421  14.562  38.038   2.280
46997W        W19422  42.478   2.395   4.165
46998W        W19423  13.510   1.361  14.329
46999W        W19424   2.967  30.894  14.033
47000W        W19425  14.049  20.511  14.016
47001W        W19426  17.481  20.446  11.029
47002W        W19427  38.289  11.608   4.351
47003W        W19428   4.271  30.508   3.602
47004W        W19429  33.638   6.399   3.139
47005W        W19430  26.655  21.359  12.957
47006W        W19431  35.842  35.877  11.069
47007W        W19432  36.411  21.131   0.249
47008W        W19433  40.418  44.580   4.940
47009W        W19434  36.063   3.760  14.826
47010W        W19435  20.653  17.362   4.715
47011W        W19436  37.559  41.163  11.225
47012W        W19437  27.380  28.651   4.736
47013W        W19438  25.767  29.639  10.192
47014W        W19439   5.757  37.865   4.788
47015W        W19440   5.514  33.889   0.705
47016W        W19441  23.247  16.596  13.328
47017W        W19442  39.007   0.322   1.457
47018W        W19443   1.676  36.067  14.286
47019W        W19444  20.009   4.047  11.054
47020W        W19445  19.771  20.116   0.872
47021W        W19446  39.475  17.051   0.973
47022W        W19447   9.708  43.215   2.302
47023W        W19448  26.274  27.879   3.065
47024W        W19449  30.994  32.224  11.646
47025W        W19450  15.706  30.186   1.523
47026W        W19451   7.944  15.731  10.330
47027W        W19452  25.228  10.499   0.380
47028W        W19453   7.886  40.234   2.741
47029W        W19454   2.728   9.243  13.867
47030W        W19455  23.759  15.209  14.402
47031W        W19456  30.890  24.651   2.802
47032W        W19457  17.107  10.067  14.180
47033W        W19458   9.899   4.514   0.382
47034W        W19459   1.615  23.408  12.373
47035W        W19460   9.231  39.573   0.161
47036W        W19461  21.932  10.109  14.867
47037W        W19462  11.614  36.803   0.796
47038W        W19463   4.595  39.607   2.651
47039W        W19464  10.358  13.089  14.765
47040W        W19465  37.431  22.201   1.458
47041W        W19466   1.520  30.547   0.523
47042W        W19467  18.554  38.645  10.717
47043W        W19468  22.113   4.248  11.919
47044W        W19469   1.376  16.606   1.962
47045W        W19470  38.501  29.252  12.397
47046W        W19471   0.854   3.679   1.238
47047W        W19472  33.443  15.603   2.713
47048W        W19473  37.368  41.931  11.629
47049W        W19474   3.759  29.653  11.532
47050W        W19475  11.176  14.748  14.482
47051W        W19476  12.706  15.696  14.449
47052W        W19477  20.233  16.644   1.300
47053W        W19478  17.237   8.196   0.335
47054W        W19479   4.466  37.762   2.544
47055W        W19480   2.345   3.820   0.243
47056W        W19481  14.617  27.203   2.827
47057W        W19482  23.154   7.408  11.537
47058W        W19483   2.951  13.147  12.495
47059W        W19484  40.218  38.399   2.849
47060W        W19485  23.110  30.148  12.520
47061W        W19486   9.709  23.767   0.370
47062W        W19487   6.783  36.301   4.535
47063W        W19488  36.719  36.229   3.195
47064W        W19489   8.262  31.233  14.966
47065W        W19490  40.174  39.465  11.044
47066W        W19491  42.889   1.438  13.222
47067W        W19492   6.662  37.520  11.128
47068W        W19493   5.608  26.874  10.750
47069W        W19494   1.290  41.284   1.784
47070W        W19495  16.078   0.919   3.303
47071W        W19496  41.882  18.188  11.861
47072W        W19497  15.273  17.534   4.547
47073W        W19498   5.739  40.683  12.998
47074W        W19499   3.962  28.577   0.514
47075W        W19500  20.225  31.955   4.605
47076W        W19501  10.184  38.753   4.131
47077W        W19502  21.647  18.136  13.902
47078W        W19503  27.006   7.721  12.195
47079W        W19504  37.036  15.007   2.927
47080W        W19505  25.989  32.390   1.054
47081W        W19506  16.366  22.713   0.381
47082W        W19507  18.023  33.062  12.843
47083W        W19508   4.179  42.141   1.855
47084W        W19509   8.291  35.127  13.912
47085W        W19510  35.134  24.230  13.852
47086W        W19511  10.709   6.754  14.066
47087W        W19512  38.037   7.982   0.931
47088W        W19513  16.158  16.268  10.697
47089W        W19514  28.027  43.960   4.335
47090W        W19515  20.745   7.231   0.763
47091W        W19516  32.111   9.362   2.400
47092W        W19517  39.266  40.603  11.143
47093W        W19518  21.221  24.978   1.353
47094W        W19519  29.161   2.539  14.919
47095W        W19520  18.962  13.330   2.997
47096W        W19521  35.917  23.275   1.324
47097W        W19522  11.858  14.645  12.116
47098W        W19523  29.195   0.435  12.497
47099W        W19524  31.224  40.745  12.847
47100W        W19525  20.129  31.472  12.448
47101W        W19526   1.901  12.654   5.040
47102W        W19527  13.064  26.676   4.587
47103W        W19528  42.336   3.983   4.081
47104W        W19529  21.592  31.842   2.590
47105W        W19530  27.265  17.720   3.237
47106W        W19531  32.882  28.467  14.415
47107W        W19532  15.137   8.350  14.835
47108W        W19533  28.593   4.516  10.632
47109W        W19534  13.063  44.856  13.884
47110W        W19535  35.609  18.062   3.767
47111W        W19536  41.452   3.392  11.660
47112W        W19537  20.281  12.429  12.315
47113W        W19538   6.340  25.670   1.684
47114W        W19539   7.286   6.444   3.190
47115W        W19540  44.909  26.635  11.452
47116W        W19541  25.935  31.005  13.033
47117W        W19542  15.651   6.788  12.030
47118W        W19543  33.152  36.991   2.023
47119W        W19544  43.167   7.404  11.676
47120W        W19545  11.382  10.388   0.418
47121W        W19546  42.618   2.846  14.741
47122W        W19547  33.887  39.969   2.810
47123W        W19548  12.907   7.550  12.973
47124W        W19549   7.131  13.371   0.275
47125W        W19550   2.920  16.623   3.348
47126W        W19551  29.029  12.295  10.927
47127W        W19552  32.481  18.796  12.549
47128W        W19553  42.808  12.590   2.785
47129W        W19554   5.018  13.212  11.320
47130W        W19555   9.404  12.611   1.692
47131W        W19556  26.287  36.931  14.887
47132W        W19557  28.929  26.892   1.463
47133W        W19558  13.678   0.410   1.791
47134W        W19559   6.770  35.865   4.840
47135W        W19560   6.147  15.658   2.256
47136W        W19561   4.119   3.949  12.071
47137W        W19562  29.577  18.901  14.452
47138W        W19563  13.314   0.080  12.436
47139W        W19564  21.737  40.696   2.427
47140W        W19565  15.587   1.853   4.019
47141W        W19566  12.814  39.975  12.021
47142W        W19567  25.728  21.082   4.589
47143W        W19568  35.643  19.501   2.988
47144W        W19569  14.944  43.235   0.834
47145W        W19570  12.701   4.759   1.343
47146W        W19571   8.451  27.086  11.452
47147W        W19572  41.270  10.148  12.867
47148W        W19573  16.797  28.646   2.434
47149W        W19574  18.965  29.107   2.712
47150W        W19575  21.744  44.466   3.213
47151W        W19576  28.267  31.661   4.991
47152W        W19577   4.231  17.912  13.885
47153W        W19578  40.000   8.569   2.374
47154W        W19579   5.361  10.925  13.344
47155W        W19580  32.043   6.697  14.939
47156W        W19581  20.600  43.804  12.484
47157W        W19582  15.164  16.582  12.882
47158W        W19583  32.147  33.382  11.506
47159W        W19584  21.564  14.818  14.068
47160W        W19585  20.652   8.847   0.421
47161W        W19586  30.374  11.268  14.364
47162W        W19587  31.236  18.627   1.765
47163W        W19588  19.330  32.555   0.723
47164W        W19589  42.710  32.647   2.740
47165W        W19590  42.858  35.929   4.618
47166W        W19591   3.483  13.664  11.090
47167W        W19592   8.671   9.314  12.872
47168W        W19593  40.014  33.796  12.944
47169W        W19594  31.499   2.914   4.164
47170W        W19595  37.950  18.861  10.678
47171W        W19596  10.841   9.138  14.098
47172W        W19597  43.814  27.431  13.904
47173W        W19598  18.580  22.933  12.141
47174W        W19599  41.960  10.925  14.161
47175W        W19600  19.712  17.660   2.441
47176W        W19601  36.444  11.106  12.745
47177W        W19602  17.227  16.524   1.852
47178W        W19603   7.076  21.649   1.814
47179W        W19604  26.180  24.989   1.258
47180W        W19605   5.798  17.848   1.991
47181W        W19606   9.816   8.841   1.185
47182W        W19607  20.884   8.228   2.198
47183W        W19608  14.179  25.467  12.960
47184W        W19609   2.499  38.886   4.631
47185W        W19610  16.717  31.606   0.656
47186W        W19611  27.667  18.826  12.128
47187W        W19612  32.950  10.333  14.370
47188W        W19613  23.204   8.679   4.718
47189W        W19614  33.657   6.390  11.931
47190W        W19615  32.428  40.336   0.972
47191W        W19616   8.828  22.695   2.906
47192W        W19617   0.224  32.991   4.821
47193W        W19618  30.702  24.139   2.737
47194W        W19619   1.916  41.010   1.888
47195W        W19620  14.611   8.069  14.898
47196W        W19621  37.490   0.862   3.554
47197W        W19622  14.610   5.998  13.386
47198W        W19623  29.046   5.339  13.478
47199W        W19624   9.749  25.416  12.413
47200W        W19625  40.964  44.508   1.386
47201W        W19626  16.586  14.059   3.906
47202W        W19627  11.125  23.927   3.710
47203W        W19628   8.706  25.805   1.156
47204W        W19629   4.267  35.889   5.151
47205W        W19630  12.327   9.787   4.100
47206W        W19631  30.811  29.944   4.649
47207W        W19632  37.225   5.787   3.709
47208W        W19633   7.658  21.540  10.709
47209W        W19634  27.248   9.810   2.212
47210W        W19635  40.001   4.920  12.524
47211W        W19636  10.967   9.599  13.078
47212W        W19637   1.885  43.470   1.725
47213W        W19638   8.778   4.706  11.000
47214W        W19639  14.852   8.641   4.209
47215W        W19640  41.022  17.886  10.901
47216W        W19641   2.405  35.296   1.259
47217W        W19642  24.464  36.415  13.529
47218W        W19643  26.652  40.484   0.819
47219W        W19644  33.423  10.311  10.012
47220W        W19645  21.949  11.274  14.739
47221W        W19646  35.196  15.626  11.965
47222W        W19647   7.847   7.023   1.013
47223W        W19648   6.339   3.317   1.528
47224W        W19649   3.812  43.380  12.961
47225W        W19650  35.654   9.373   3.298
47226W        W19651  33.417  23.831   2.351
47227W        W19652  12.432  32.068   3.556
47228W        W19653  44.937  30.179   2.465
47229W        W19654   1.463  10.608   4.826
47230W        W19655  10.200  14.316   4.771
47231W        W19656  19.129  24.207  10.700
47232W        W19657  40.472   8.396  13.497
47233W        W19658  39.607  34.339   2.532
47234W        W19659  41.835  15.105  13.728
47235W        W19660  29.628  11.928  14.809
47236W        W19661  27.569  39.714   4.561
47237W        W19662   4.816  19.642   0.718
47238W        W19663  26.538  22.181  13.505
47239W        W19664  31.712   6.746   4.135
47240W        W19665  11.786  40.533  10.678
47241W        W19666  11.413  35.075  14.198
47242W        W19667  30.850  33.124   2.762
47243W        W19668  30.261  15.990   1.460
47244W        W19669  30.069  24.991  11.667
47245W        W19670   9.357  20.004   4.130
47246W        W19671  31.191  43.398   1.287
47247W        W19672   3.469   1.845  12.509
47248W        W19673   9.203  26.878   2.401
47249W        W19674  16.709  13.961  13.336
47250W        W19675  33.699  21.502  10.714
47251W        W19676  31.653  15.180  12.540
47252W        W19677  33.500  16.109   4.490
47253W        W19678  42.576  12.620   1.404
47254W        W19679  29.966  25.554   2.272
47255W        W19680  28.967   9.726  14.603
47256W        W19681   1.803  15.898  13.157
47257W        W19682  34.986  29.941   2.387
47258W        W19683  16.692  20.746  10.818
47259W        W19684  23.286  20.010  11.533
47260W        W19685  18.021  33.375  13.558
47261W        W19686  33.842  44.433  10.441
47262W        W19687  13.732  19.133   3.394
47263W        W19688  17.077   3.907  10.617
47264W        W19689   3.271  34.088  12.491
47265W        W19690  43.095  37.819   1.693
47266W        W19691  27.490  11.810   4.639
47267W        W19692  31.949  40.330   3.090
47268W        W19693  43.513  10.878  14.800
47269W        W19694   4.860  25.142   5.062
47270W        W19695   6.962  25.090  12.537
47271W        W19696  38.554  44.518  10.660
47272W        W19697   4.541  18.070  13.471
47273W        W19698   9.200  31.562   1.736
47274W        W19699   8.276  44.460   2.862
47275W        W19700  23.718  37.453  10.907
47276W        W19701  38.133  16.726  14.955
47277W        W19702  42.792  23.949   0.392
47278W        W19703  19.166  10.829   0.828
47279W        W19704  43.776  26.246   4.574
47280W        W19705   7.770  20.141  13.478
47281W        W19706  15.723  10.652   1.338
47282W        W19707  42.336   8.748  14.396
47283W        W19708  25.051  10.753  12.802
47284W        W19709  28.407  13.926  12.582
47285W        W19710   8.512   1.952  14.803
47286W        W19711  10.153  10.828  14.270
47287W        W19712  28.575  41.439   5.072
47288W        W19713  25.480  30.936  11.898
47289W        W19714  33.510  15.355   2.194
47290W        W19715   0.962  38.027  12.198
47291W        W19716  31.477  30.673  10.142
47292W        W19717   6.805   0.944   2.587
47293W        W19718  31.137  39.417   2.761
47294W        W19719  36.400  26.228  11.599
47295W        W19720  18.732  18.099  14.331
47296W        W19721   2.346  38.862  11.483
47297W        W19722   8.457   7.262  14.319
47298W        W19723  23.118  15.757  11.422
47299W        W19724  10.737  14.472   3.913
47300W        W19725  42.472  33.356   1.389
47301W        W19726  40.125  17.020   4.738
47302W        W19727  39.867   5.664   2.771
47303W        W19728   0.332  44.307  14.878
47304W        W19729   4.305  12.002  13.023
47305W        W19730  41.147  24.539  11.584
47306W        W19731  25.509   0.493   3.186
47307W        W19732   5.299  14.636   4.600
47308W        W19733   2.872  22.647   1.312
47309W        W19734   3.997  25.998   2.910
47310W        W19735  38.348  24.469   0.933
47311W        W19736  31.503   3.353   0.414
47312W        W19737  36.831  13.307   3.863
47313W        W19738  27.021  31.772   3.202
47314W        W19739  44.331  10.110   0.390
47315W        W19740  15.364  24.322   3.140
47316W        W19741   6.828  38.893   1.440
47317W        W19742   0.549  10.644  10.835
47318W        W19743  12.116  21.103  13.178
47319W        W19744  33.170   5.700  10.384
47320W        W19745  13.275  25.154   1.290
47321W        W19746   4.252  22.183  14.300
47322W        W19747  38.878  17.270   4.044
47323W        W19748  40.876  17.597  13.412
47324W        W19749  36.130  27.506   2.542
47325W        W19750  39.304   7.388   3.691
47326W        W19751   1.900  26.556  14.297
47327W        W19752  31.991  26.973  14.226
47328W        W19753  39.545  27.510  13.246
47329W        W19754  17.107  15.677   3.811
47330W        W19755  21.550  26.849  12.672
47331W        W19756  23.474  34.391   0.038
47332W        W19757  11.812  42.307   4.327
47333W        W19758   4.682  27.675   9.971
47334W        W19759  36.666  12.959  14.410
47335W        W19760  24.517  40.925  10.504
47336W        W19761  19.724  13.992   0.586
47337W        W19762  28.210  15.224   4.791
47338W        W19763  11.990   4.941  14.055
47339W        W19764  37.573  24.082  13.256
47340W        W19765  28.631  35.532   2.495
47341W        W19766  32.103  25.170  14.234
47342W        W19767  13.138  38.092  13.539
47343W        W19768  29.619   0.972   1.982
47344W        W19769  34.605  41.261  12.555
47345W        W19770   1.236  33.597   1.964
47346W        W19771   7.151  42.950  12.032
47347W        W19772  16.705  34.929   9.849
47348W        W19773  13.217  38.329  11.574
47349W        W19774  39.851   8.871   2.787
47350W        W19775   0.778  38.622  14.968
47351W        W19776  13.727  13.316  12.603
47352W        W19777  34.686   7.554  14.358
47353W        W19778  11.627  19.151   0.360
47354W        W19779  16.990   4.340   2.840
47355W        W19780  20.964  33.315  11.205
47356W        W19781  36.580  14.845   4.637
47357W        W19782   7.718  14.738   4.225
47358W        W19783  35.947   9.222  13.467
47359W        W19784  34.427   4.781  12.586
47360W        W19785  13.743  28.661  12.473
47361W        W19786   3.441  12.155   2.962
47362W        W19787  23.410  24.182  13.952
47363W        W19788  15.740  44.015   4.195
47364W        W19789  26.720  22.361  13.003
47365W        W19790   2.030  13.160   0.725
47366W        W19791  16.579   7.840  12.920
47367W        W19792  28.878  21.491  11.465
47368W        W19793  14.368  38.384   4.536
47369W        W19794   4.706  13.197  10.903
47370W        W19795   2.706  37.508  14.876
47371W        W19796   0.854  34.313   0.879
47372W        W19797   1.749  23.172  11.907
47373W        W19798  20.920  27.733   2.317
47374W        W19799  35.619  15.972  12.043
47375W        W19800  17.662  33.896  13.801
47376W        W19801  39.759  22.150  11.571
47377W        W19802  39.195  42.364   4.617
47378W        W19803  15.135  17.302   2.210
47379W        W19804  38.452  30.984   1.977
47380W        W19805  13.338  14.793   0.565
47381W        W19806  32.026   7.956   2.874
47382W        W19807   2.772  35.355   2.666
47383W        W19808  43.230  31.231   2.672
47384W        W19809  21.655  25.224  14.627
47385W        W19810  33.060  41.844   0.612
47386W        W19811   4.351  29.400  13.105
47387W        W19812   0.968  31.145  11.099
47388W        W19813  29.444  30.890   1.297
47389W        W19814  38.289  24.194   1.789
47390W        W19815  10.764   4.274   4.769
47391W        W19816  36.532  18.409   4.167
47392W        W19817  15.832  27.757  13.972
47393W        W19818  17.313  13.840   2.690
47394W        W19819  17.337  36.585  11.068
47395W        W19820  20.959  38.531   0.145
47396W        W19821  37.058  10.721  10.848
47397W        W19822  24.549  18.855   3.960
47398W        W19823  14.389  27.650  10.435
47399W        W19824  41.280  28.974   4.275
47400W        W19825   8.142  17.477  12.952
47401W        W19826  38.890   7.715  13.614
47402W        W19827  24.980  23.996   4.062
47403W        W19828  35.872  14.227   4.698
47404W        W19829  28.524  36.979   3.231
47405W        W19830  18.576  30.394   5.088
47406W        W19831  26.445  39.326  13.860
47407W        W19832  35.868  14.308  10.744
47408W        W19833   4.673   6.794   3.683
47409W        W19834  23.469  14.044   3.653
47410W        W19835   1.575  12.162  12.154
47411W        W19836  36.421   2.703   1.818
47412W        W19837  15.797  27.919  12.521
47413W        W19838  35.714  43.475   3.288
47414W        W19839  16.254  42.797   1.300
47415W        W19840  23.304  11.821   5.397
47416W        W19841  12.405  31.664  14.888
47417W        W19842  19.203   4.594   0.288
47418W        W19843  28.980  33.990   3.111
47419W        W19844  43.583  13.780  14.996
47420W        W19845  10.193  23.555   1.075
47421W        W19846   1.905  15.205  13.451
47422W        W19847  34.192  37.364  11.949
47423W        W19848   1.745  44.783  13.608
47424W        W19849   2.646  24.125  10.772
47425W        W19850  40.779  12.781   3.390
47426W        W19851   8.058  43.406   0.852
47427W        W19852  37.613  29.179   0.921
47428W        W19853  16.781   8.288  11.329
47429W        W19854   4.267  20.309   4.600
47430W        W19855  21.491  41.506  11.720
47431W        W19856   2.351  34.576  13.176
47432W        W19857  11.324  12.165   3.701
47433W        W19858  36.771  43.558  11.178
47434W        W19859  30.002  23.443  14.064
47435W        W19860   4.823  42.940   4.931
47436W        W19861   9.809  42.550  14.823
47437W        W19862  30.923  15.294   4.322
47438W        W19863   4.156  35.316   2.879
47439W        W19864  16.632   2.670   0.845
47440W        W19865   2.003  40.393   3.647
47441W        W19866  25.717   5.378   3.819
47442W        W19867  35.700  17.489  14.745
47443W        W19868  29.034  28.522  14.966
47444W        W19869  16.481  31.690  14.311
47445W        W19870  31.441  10.324  11.431
47446W        W19871  11.370   6.429   1.432
47447W        W19872  42.820   3.371   1.576
47448W        W19873  33.890  41.793  10.687
47449W        W19874   3.482  13.067  12.414
47450W        W19875  36.497  23.223   2.632
47451W        W19876  19.006   3.348   4.902
47452W        W19877  12.859  15.707  10.983
47453W        W19878  41.800  24.283  13.498
47454W        W19879  31.936  27.349   4.598
47455W        W19880   2.550  24.804  13.407
47456W        W19881   8.675  16.818  11.083
47457W        W19882   7.974   8.550  11.481
47458W        W19883  27.708  16.054   4.655
47459W        W19884  36.417  35.616  13.183
47460W        W19885   6.273  41.764  14.805
47461W        W19886  42.926  34.092  11.627
47462W        W19887   5.012   6.891  11.188
47463W        W19888   3.736  40.773  13.457
47464W        W19889  42.878  17.188   0.450
47465W        W19890  23.063  11.555   5.027
47466W        W19891  14.286   1.922   5.052
47467W        W19892   0.953   0.886  12.441
47468W        W19893  36.803  15.711  10.990
47469W        W19894   8.492  16.227  13.582
47470W        W19895   2.863  13.399  12.948
47471W        W19896  26.513  32.024   3.266
47472W        W19897  31.436  35.658   0.222
47473W        W19898  39.273  43.932  13.966
47474W        W19899   4.629  36.585  11.952
47475W        W19900  40.499  34.477  10.694
47476W        W19901  24.002  26.679   1.913
47477W        W19902  27.103  22.941  10.099
47478W        W19903  33.570  20.550   4.447
47479W        W19904  14.829  35.685  11.506
47480W        W19905   1.799   0.326   0.336
47481W        W19906   3.153  38.111   0.833
47482W        W19907   8.569  37.906  13.669
47483W        W19908  36.690   8.134  14.394
47484W        W19909  44.452  19.631  11.220
47485W        W19910  31.712  28.540  13.961
47486W        W19911  42.052  40.688   3.946
47487W        W19912  37.008   9.756   5.705
47488W        W19913  18.868  23.852   4.835
47489W        W19914  42.812   5.221  12.723
47490W        W19915   4.861  11.026  10.629
47491W        W19916   5.726  24.940   1.716
47492W        W19917  24.246  38.771   9.952
47493W        W19918  16.223  39.473  14.090
47494W        W19919   9.768  31.709  14.453
47495W        W19920   2.229  28.635  14.015
47496W        W19921  35.367   6.206  10.392
47497W        W19922  18.840  11.708   2.283
47498W        W19923   0.057   7.287  14.062
47499W        W19924  24.907  37.820   1.530
47500W        W19925  27.299  25.513  12.613
47501W        W19926  24.071  21.455   1.326
47502W        W19927   8.722  15.061   0.992
47503W        W19928   6.749  17.858  11.575
47504W        W19929  29.709  22.493  11.592
47505W        W19930   2.843  42.089  14.716
47506W        W19931  29.163   3.256   3.876
47507W        W19932   1.709  42.218   3.753
47508W        W19933  13.285  23.063  11.432
47509W        W19934  28.308  25.396   3.236
47510W        W19935   0.837  36.093   4.137
47511W        W19936  23.199  40.022  10.791
47512W        W19937  13.358  23.418  13.107
47513W        W19938   6.900   7.261  10.676
47514W        W19939  40.096  21.764   0.410
47515W        W19940  15.614   3.295  10.697
47516W        W19941   2.411  13.351   1.062
47517W        W19942  21.485  32.418   4.116
47518W        W19943  17.269  20.420   3.195
47519W        W19944  30.401   7.780  11.673
47520W        W19945  10.141  25.044   4.990
47521W        W19946  32.537  31.461  11.772
47522W        W19947   3.731  19.745  13.581
47523W        W19948   6.704  35.908  11.593
47524W        W19949  11.296  10.211  14.291
47525W        W19950  15.404  39.362   2.710
47526W        W19951  42.096  42.821  14.410
47527W        W19952  28.499  16.518   0.225
47528W        W19953  28.676  40.411  14.454
47529W        W19954  38.521  44.528  12.223
47530W        W19955  13.869   8.407   3.249
47531W        W19956  21.671  18.974   1.328
47532W        W19957  32.988  15.960   1.762
47533W        W19958   4.740  24.239   2.303
47534W        W19959  40.586   1.910   3.628
47535W        W19960   1.766  29.603  11.598
47536W        W19961  23.469  28.132   4.371
47537W        W19962   0.412  22.660  13.368
47538W        W19963  38.764  32.974  10.600
47539W        W19964  17.283  32.102  10.251
47540W        W19965  17.778  33.067   3.894
47541W        W19966  23.544  37.024  11.684
47542W        W19967  15.516   4.785  14.456
47543W        W19968  39.014  23.690  10.699
47544W        W19969   3.793   3.424  12.898
47545W        W19970  40.413  39.376   2.700
47546W        W19971   0.748  44.238   2.128
47547W        W19972  13.102  13.341  14.963
47548W        W19973  35.613  28.615  11.856
47549W        W19974  39.786  10.339  12.956
47550W        W19975  26.011  16.026   0.426
47551W        W19976   8.352  17.124   4.308
47552W        W19977  19.031   4.504   1.683
47553W        W19978  40.498   9.370   3.275
47554W        W19979  28.933  40.730  12.080
47555W        W19980  18.060  38.897  12.452
47556W        W19981   8.347  33.047   0.085
47557W        W19982  19.554  15.214   0.023
47558W        W19983   6.403  20.594   0.361
47559W        W19984  22.348  19.196  13.862
47560W        W19985   4.882  39.976   3.615
47561W        W19986   8.413  34.420  10.968
47562W        W19987  30.092  41.841  11.847
47563W        W19988   4.295  35.007  11.157
47564W        W19989  33.946  15.382   3.457
47565W        W19990  14.902  21.832   1.278
47566W        W19991   7.260  28.441  13.025
47567W        W19992   2.168  32.446  14.233
47568W        W19993  25.027  26.085  13.017
47569W        W19994   2.999  37.366  14.462
47570W        W19995  26.994  38.686   2.547
47571W        W19996  15.814  35.845  11.513
47572W        W19997   6.432  28.470   4.799
47573W        W19998  23.784  39.637   4.218
47574W        W19999   4.812   2.023   2.937
47575W        W20000  15.813   0.645  11.714
47576W        W20001  42.483   1.167   1.378
47577W        W20002  26.017  16.597  12.471
47578W        W20003  11.301  21.954   2.325
47579W        W20004  14.693   2.664   4.671
47580W        W20005  17.543   0.684  12.241
47581W        W20006  10.767   9.266  14.616
47582W        W20007   7.301   3.403   1.499
47583W        W20008  36.593  11.954  10.285
47584W        W20009   6.143  18.157   1.705
47585W        W20010  28.879  29.952  12.969
47586W        W20011  23.480  26.002  11.410
47587W        W20012  34.793  23.746  12.158
47588W        W20013  29.643  21.040  11.593
47589W        W20014  43.255  10.651  13.873
47590W        W20015  20.643  32.390   2.290
47591W        W20016  18.949   2.861  11.441
47592W        W20017  30.410   6.375  13.346
47593W        W20018  11.315  43.867  14.264
47594W        W20019  21.252  20.098  12.581
47595W        W20020  25.533  36.659   1.422
47596W        W20021   5.894  14.904   0.749
47597W        W20022  44.423  20.017   3.208
47598W        W20023  15.928  44.980  13.425
47599W        W20024  33.821  24.168  13.474
47600W        W20025  15.703  37.408  10.793
47601W        W20026  28.555  39.447   1.272
47602W        W20027  23.888  23.955  11.227
47603W        W20028  20.366  12.723  14.829
47604W        W20029   6.597   8.299  13.898
47605W        W20030  40.310  27.106  12.371
47606W        W20031   4.474  37.057  12.094
47607W        W20032  33.965  27.522  12.028
47608W        W20033  27.574  27.115  11.139
47609W        W20034   9.284  26.977  10.888
47610W        W20035  14.880  42.820  10.761
47611W        W20036   9.798   3.549   2.417
47612W        W20037  18.703  14.207  11.472
47613W        W20038  17.295  41.036   4.473
47614W        W20039   0.770   3.749  14.904
47615W        W20040  39.400  25.054   1.383
47616W        W20041  18.378  37.316  12.015
47617W        W20042  37.567  12.269  13.008
47618W        W20043  10.106   5.865  12.112
47619W        W20044  37.667  11.803   2.744
47620W        W20045   8.836  11.260  14.046
47621W        W20046  30.093  22.078  14.466
47622W        W20047  25.799  38.347   1.241
47623W        W20048  13.135  33.098  14.074
47624W        W20049  40.504  18.368   4.237
47625W        W20050  20.783  36.947  12.903
47626W        W20051  42.018   8.937   3.592
47627W        W20052  43.705  26.667  12.364
47628W        W20053  17.752   2.557   3.420
47629W        W20054  28.661  23.174   4.747
47630W        W20055  42.825  22.474   1.222
47631W        W20056  13.778  42.273   3.461
47632W        W20057  11.894  10.296   1.921
47633W        W20058  35.870  31.386   3.134
47634W        W20059   4.273  11.212  14.573
47635W        W20060  15.477  10.242   0.862
47636W        W20061  14.563  27.498   1.583
47637W        W20062  27.987  13.711   5.141
47638W        W20063   2.167  23.035   0.918
47639W        W20064  22.132  20.391   2.775
47640W        W20065  19.629   0.324   4.237
47641W        W20066  10.767  36.144   2.649
47642W        W20067  36.562  21.626  11.095
47643W        W20068  10.909   2.318  13.084
47644W        W20069  17.163  34.895  10.565
47645W        W20070  34.416   2.712   2.739
47646W        W20071  18.693  20.800   4.579
47647W        W20072  32.521   3.250   3.178
47648W        W20073  10.288  27.930  10.591
47649W        W20074  25.212  27.689   3.112
47650W        W20075  14.725  24.105   9.720
47651W        W20076  36.741  38.834   0.511
47652W        W20077  32.521  34.492  14.805
47653W        W20078   1.967   2.393   3.647
47654W        W20079  10.033   4.808   4.594
47655W        W20080  20.520  33.153  13.834
47656W        W20081   6.302   2.785   3.956
47657W        W20082   4.208   8.572  14.832
47658W        W20083  12.143  29.259  11.134
47659W        W20084  33.161  41.896  11.298
47660W        W20085  41.367  40.284   4.619
47661W        W20086   3.490   6.944   1.921
47662W        W20087  12.194  34.706   3.297
47663W        W20088   7.448   7.344   0.849
47664W        W20089  16.770  20.995  11.593
47665W        W20090  40.094  36.076  13.002
47666W        W20091  37.475  18.578  10.431
47667W        W20092  13.587  18.552   3.774
47668W        W20093  24.375  41.980   1.760
47669W        W20094  35.906  25.100   1.838
47670W        W20095   7.324   4.746   1.957
47671W        W20096  32.120  37.062  10.452
47672W        W20097  32.303  13.117  10.741
47673W        W20098  11.200  42.678  11.677
47674W        W20099  43.214  13.228  11.992
47675W        W20100   2.138  30.891   3.960
47676W        W20101  35.036  25.438   2.335
47677W        W20102  28.305  10.380  13.574
47678W        W20103  28.868  28.471   0.779
47679W        W20104  12.818   5.811  13.607
47680W        W20105  26.961  33.572  13.308
47681W        W20106   3.402  20.053   3.393
47682W        W20107   1.359   4.877   4.328
47683W        W20108  32.981  20.324  11.993
47684W        W20109  15.611   8.626  14.383
47685W        W20110   7.744  16.651  14.733
47686W        W20111   4.726  12.548   2.685
47687W        W20112  41.031  33.391   3.277
47688W        W20113  25.031  18.827   2.837
47689W        W20114   1.948   6.354  13.221
47690W        W20115  32.443  38.507   4.665
47691W        W20116  38.818  13.240   1.920
47692W        W20117  35.388   8.304  11.626
47693W        W20118   4.018  38.678  14.476
47694W        W20119   1.411   5.335   4.081
47695W        W20120   2.166  29.383  12.521
47696W        W20121  26.448  10.116   3.445
47697W        W20122   8.188  19.822   1.840
47698W        W20123   7.117  10.529  13.657
47699W        W20124  14.625  30.632  12.990
47700W        W20125  23.194  26.533   3.464
47701W        W20126   3.508  32.314  13.017
47702W        W20127  13.577  28.905  12.030
47703W        W20128  35.864  17.049  14.490
47704W        W20129  38.471  30.889   1.465
47705W        W20130  41.582  36.386  11.570
47706W        W20131  44.887  27.593   1.361
47707W        W20132   2.791  39.066   3.135
47708W        W20133   5.347  44.431  13.002
47709W        W20134  42.348   3.969  12.543
47710W        W20135  19.977  35.935   1.323
47711W        W20136   4.376  19.493   0.492
47712W        W20137   2.218   7.117   1.450
47713W        W20138  37.307  25.266  13.074
47714W        W20139  19.092  34.355  12.646
47715W        W20140  41.360  36.891   4.542
47716W        W20141  25.620   4.407  11.909
47717W        W20142  29.924  21.062  12.551
47718W        W20143  40.772  14.167   0.880
47719W        W20144  23.696  10.446   0.461
47720W        W20145   4.628  41.986  11.176
47721W        W20146  41.906   3.434  14.734
47722W        W20147  28.197  30.108  11.078
47723W        W20148  17.373  30.351  12.525
47724W        W20149  24.626  29.431   2.785
47725W        W20150  38.634   8.883  11.592
47726W        W20151   1.251  15.354   4.501
47727W        W20152  11.330   2.009   1.752
47728W        W20153  22.636  42.516   3.886
47729W        W20154  24.077  27.964  14.953
47730W        W20155  23.594  11.199  13.290
47731W        W20156  11.672  26.178   2.425
47732W        W20157  19.733  33.418  13.911
47733W        W20158  42.423  12.240  10.627
47734W        W20159  32.437  17.730   4.697
47735W        W20160  14.806  36.362   4.711
47736W        W20161  26.193   6.705  13.880
47737W        W20162  34.622  21.138  10.007
47738W        W20163   1.614  31.445   1.099
47739W        W20164  29.465  42.975  10.733
47740W        W20165   6.349  26.389  11.018
47741W        W20166  12.186  26.712   3.024
47742W        W20167   5.538  30.104   2.161
47743W        W20168  28.644  41.737  10.346
47744W        W20169  30.384  42.270  11.859
47745W        W20170  22.317   5.367  13.826
47746W        W20171   7.329  30.363  13.681
47747W        W20172  18.032  41.503  13.880
47748W        W20173  20.325  38.302   4.830
47749W        W20174  16.089  42.593   1.823
47750W        W20175   0.789  34.780   2.296
47751W        W20176  39.110  28.626  12.451
47752W        W20177   6.788  34.384  13.529
47753W        W20178  40.764   9.237   4.098
47754W        W20179   3.088   2.721   1.285
47755W        W20180  24.727   6.140  12.545
47756W        W20181  15.659  12.180   0.531
47757W        W20182   7.674   5.246   0.814
47758W        W20183  18.767   0.975  13.303
47759W        W20184  35.391   9.286  14.896
47760W        W20185  11.408  20.463  11.539
47761W        W20186  24.593  26.049  10.926
47762W        W20187  39.132   2.945   1.621
47763W        W20188   7.541  13.349  12.474
47764W        W20189  37.398  11.344   2.018
47765W        W20190  37.904   9.201  14.745
47766W        W20191  12.142  30.950   3.323
47767W        W20192  28.942   5.777   2.284
47768W        W20193   8.303   0.966   1.491
47769W        W20194   5.158  41.593  11.604
47770W        W20195  38.051  14.596   1.208
47771W        W20196  40.539  20.685  14.788
47772W        W20197  35.321   0.752   4.555
47773W        W20198  44.727   7.455   4.751
47774W        W20199   4.129  32.887   3.729
47775W        W20200  40.369   9.644   0.474
47776W        W20201  11.757  32.786   4.278
47777W        W20202  30.553  37.376   1.673
47778W        W20203   5.609  41.494   1.792
47779W        W20204   3.117   3.690  14.895
47780W        W20205  17.617  31.988   5.070
47781W        W20206  29.554  10.966   0.972
47782W        W20207  19.085  35.656   1.296
47783W        W20208   0.116  33.434   5.109
47784W        W20209   8.898   4.477   4.174
47785W        W20210  39.058  13.533   0.280
47786W        W20211  15.877  34.651  12.952
47787W        W20212   5.762   5.776   4.026
47788W        W20213  44.840   1.478   2.708
47789W        W20214  24.488  42.053  12.344
47790W        W20215  14.815  41.911  10.529
47791W        W20216  10.698  24.116   2.756
47792W        W20217  20.111  20.752   3.166
47793W        W20218  44.766  32.603  13.323
47794W        W20219  33.860   4.756  12.936
47795W        W20220  34.350  40.327  13.799
47796W        W20221  31.486  27.977  11.938
47797W        W20222   0.918  36.011  13.850
47798W        W20223  28.574  15.980  10.654
47799W        W20224  20.615  23.109  10.686
47800W        W20225  20.071  28.323   3.901
47801W        W20226  21.703  25.906  12.979
47802W        W20227   8.268  15.288  13.375
47803W        W20228  37.494  40.169   3.719
47804W        W20229   5.535  34.651   0.055
47805W        W20230  44.564  21.067   2.114
47806W        W20231   2.301  24.688   4.071
47807W        W20232   5.433  20.148   1.204
47808W        W20233  36.917   5.054  13.804
47809W        W20234  16.737  31.221   0.286
47810W        W20235   6.157  12.229   4.375
47811W        W20236  25.821  14.648  10.759
47812W        W20237   0.228  26.269  13.004
47813W        W20238  39.327  12.710  11.563
47814W        W20239  44.490  31.933  10.647
47815W        W20240  29.025   8.830  12.511
47816W        W20241   7.354   0.549  13.098
47817W        W20242  40.924  37.934   4.598
47818W        W20243   9.267   7.678   1.306
47819W        W20244  26.581  35.421   0.054
47820W        W20245  30.606  13.538  11.048
47821W        W20246  20.581  25.545   0.281
47822W        W20247  29.702   5.861   0.475
47823W        W20248  44.122  20.243  14.829
47824W        W20249  27.492   9.335   3.172
47825W        W20250  39.966  16.576   2.951
47826W        W20251  33.577  43.284   1.409
47827W        W20252   4.715  19.527  13.342
47828W        W20253  30.808  12.158   0.325
47829W        W20254  29.433  38.848   2.635
47830W        W20255  42.843  23.309  10.048
47831W        W20256   0.148  12.587  14.877
47832W        W20257   0.331  14.747  10.552
47833W        W20258  20.171  24.035  13.413
47834W        W20259   3.302  15.704   9.928
47835W        W20260  41.434  37.271  14.485
47836W        W20261  21.294  35.560   4.656
47837W        W20262   2.236  29.033   3.653
47838W        W20263  39.394  28.658  10.685
47839W        W20264  34.442   1.980  12.470
47840W        W20265   7.309  11.903  11.764
47841W        W20266  36.278  26.385   3.396
47842W        W20267  31.473   4.198   2.563
47843W        W20268  41.546  29.586   1.869
47844W        W20269   2.682  32.684  13.295
47845W        W20270  29.462  22.027  12.836
47846W        W20271  27.691  32.397  12.999
47847W        W20272  22.556  35.412  13.275
47848W        W20273  39.777   1.098   3.959
47849W        W20274   6.679  17.246   2.887
47850W        W20275  30.018  27.955   3.914
47851W        W20276  11.243  34.089  13.924
47852W        W20277  38.030  38.793  12.332
47853W        W20278  30.622  32.415   3.382
47854W        W20279  29.612  31.482  14.735
47855W        W20280  43.874  44.343   2.680
47856W        W20281  22.594   6.269  11.917
47857W        W20282  36.074   7.509   4.704
47858W        W20283  29.253  33.178  11.182
47859W        W20284  44.073   3.330  11.120
47860W        W20285  19.090  33.475  11.683
47861W        W20286  14.592  10.797  13.548
47862W        W20287  29.970  13.500   0.947
47863W        W20288  10.393  18.110   1.684
47864W        W20289  22.486  21.242   2.817
47865W        W20290  29.138  39.508  11.220
47866W        W20291   5.506  15.364   1.675
47867W        W20292  12.584  24.678   0.475
47868W        W20293  19.826   9.365  11.946
47869W        W20294   7.064  26.145  12.063
47870W        W20295   6.365  20.103   2.028
47871W        W20296  36.438  38.395   4.016
47872W        W20297  29.990   1.213   1.739
47873W        W20298  31.542  19.085   1.515
47874W        W20299   4.094  17.599  12.974
47875W        W20300   2.322  36.086  14.950
47876W        W20301   5.903  16.361   1.877
47877W        W20302  22.121   6.333   2.913
47878W        W20303  14.311  24.737   2.769
47879W        W20304  33.139   1.715   2.554
47880W        W20305  41.659  22.120  13.200
47881W        W20306  35.493   2.084   1.380
47882W        W20307   1.299   7.276   3.732
47883W        W20308  12.154  21.394   2.286
47884W        W20309  43.774  20.638   1.390
47885W        W20310  41.850  35.184  12.393
47886W        W20311  36.495  41.387  10.564
47887W        W20312  20.088   5.385   4.942
47888W        W20313  28.697  31.438   4.295
47889W        W20314  38.452  40.298  10.957
47890W        W20315   0.435  10.350  12.877
47891W        W20316   5.697  38.366  11.452
47892W        W20317  39.181  19.061   1.037
47893W        W20318  18.079  36.401   2.926
47894W        W20319   9.410   2.451  12.691
47895W        W20320  15.402  35.085   1.731
47896W        W20321  44.629  32.615   4.153
47897W        W20322  21.783  32.108  13.668
47898W        W20323  33.603  30.253   0.469
47899W        W20324  28.793  10.390   3.669
47900W        W20325  10.414  13.474   1.603
47901W        W20326  18.259  12.315  11.372
47902W        W20327   8.814  23.243   1.313
47903W        W20328   8.403  20.658  14.998
47904W        W20329  33.848  17.501   2.756
47905W        W20330  44.543  29.493   3.239
47906W        W20331  16.740  26.490  12.113
47907W        W20332   7.425  19.656   2.243
47908W        W20333   0.956  44.280   4.603
47909W        W20334  28.754  33.331   2.676
47910W        W20335  29.539  19.618   3.691
47911W        W20336  28.235  41.304  13.004
47912W        W20337  39.883  26.046   4.564
47913W        W20338  32.817   1.767  13.349
47914W        W20339  11.462   2.190   1.276
47915W        W20340  22.141  30.540  12.388
47916W        W20341  28.563  23.337   2.787
47917W        W20342   8.860  15.813   1.772
47918W        W20343  39.602   0.077  13.467
47919W        W20344  31.101  42.738   3.821
47920W        W20345  43.038  19.433   2.323
47921W        W20346  23.261   3.804   2.670
47922W        W20347  26.489  34.055  10.767
47923W        W20348  27.974  24.150  12.371
47924W        W20349  30.636  19.897   2.206
47925W        W20350  43.343   4.214  10.469
47926W        W20351   3.375  40.362   2.005
47927W        W20352  22.997  39.915   1.469
47928W        W20353  10.109  22.985   2.763
47929W        W20354  12.090  26.192  14.932
47930W        W20355  26.405  18.549   3.165
47931W        W20356  14.581  19.200  14.838
47932W        W20357  44.277  26.051  14.967
47933W        W20358   5.924  20.699  10.859
47934W        W20359   5.675  16.839  11.346
47935W        W20360  10.409  36.009  12.043
47936W        W20361   4.399  30.062   0.751
47937W        W20362  42.955  42.230  14.310
47938W        W20363   8.146   9.383  12.979
47939W        W20364  15.819   9.146   1.332
47940W        W20365   4.855  26.419  13.141
47941W        W20366  25.520  34.539   0.385
47942W        W20367   3.454   3.407  13.379
47943W        W20368  13.629   0.481  11.184
47944W        W20369  15.178  14.078   3.609
47945W        W20370  27.171   2.489   0.730
47946W        W20371  41.139  31.093  11.608
47947W        W20372   7.214  39.314  12.996
47948W        W20373  12.131  20.694  11.969
47949W        W20374  25.492  41.144  12.035
47950W        W20375  20.656  42.282  13.684
47951W        W20376  41.981  10.845   3.158
47952W        W20377  44.588  10.360   2.736
47953W        W20378  35.371  14.166   0.902
47954W        W20379  28.893   8.968   4.027
47955W        W20380  24.602  16.224  11.565
47956W        W20381   6.284  11.761   0.831
47957W        W20382  35.096  11.484  13.414
47958W        W20383   3.256  30.038   0.408
47959W        W20384  29.639  37.063  10.457
47960W        W20385  13.813  36.018  11.556
47961W        W20386  26.599  37.462   3.284
47962W        W20387  14.271   3.366   3.288
47963W        W20388   1.904   9.808   1.687
47964W        W20389  22.645  11.932   0.396
47965W        W20390  37.964   8.196  12.517
47966W        W20391   3.212  29.092  11.502
47967W        W20392   4.999  42.744  14.344
47968W        W20393  38.011  17.291  12.014
47969W        W20394  20.975  28.723  12.401
47970W        W20395  30.731   8.804   2.669
47971W        W20396  29.978  21.518   1.290
47972W        W20397  32.038  21.143  12.422
47973W        W20398   5.617  32.995   3.987
47974W        W20399  25.746   9.724   2.185
47975W        W20400  40.448   8.327  12.558
47976W        W20401  11.819  44.222  13.005
47977W        W20402  16.837   0.014  12.141
47978W        W20403  37.400  25.653  10.538
47979W        W20404  35.030  43.510   4.268
47980W        W20405  10.725  36.480   2.213
47981W        W20406   6.764  39.978  13.499
47982W        W20407  22.736  16.343  14.429
47983W        W20408  14.095  36.492   3.364
47984W        W20409  18.500   4.589  14.763
47985W        W20410  36.008  38.347  11.018
47986W        W20411  39.342  38.829   2.139
47987W        W20412  13.272  32.129  14.567
47988W        W20413  14.477  18.234  14.945
47989W        W20414  14.761  27.736  11.174
47990W        W20415  15.173  19.695   0.255
47991W        W20416  11.395  24.992  12.935
47992W        W20417  28.553  15.715   3.156
47993W        W20418   5.335  31.058  13.251
47994W        W20419  41.138  40.707   2.370
47995W        W20420   6.257  33.542   2.672
47996W        W20421  18.582  32.419  14.355
47997W        W20422  31.155  19.795  14.533
47998W        W20423  26.008  42.375   3.548
47999W        W20424  37.200  23.634   2.955
48000W        W20425  11.491   1.208  14.322
48001W        W20426  26.715   6.889   3.563
48002W        W20427   2.137  24.799  11.170
48003W        W20428  12.049  32.412   3.420
48004W        W20429  38.941  43.889  12.692
48005W        W20430  14.217   2.061  12.092
48006W        W20431  29.927  14.766   3.278
48007W        W20432  42.509  42.904   0.388
48008W        W20433  20.857  34.252  13.761
48009W        W20434  29.652   3.319  13.601
48010W        W20435  17.839  31.011   4.757
48011W        W20436  34.905  34.101   2.356
48012W        W20437  25.998  22.975  13.268
48013W        W20438  25.544  33.825   2.175
48014W        W20439  12.214  11.638  13.952
48015W        W20440  27.183  12.058   1.883
48016W        W20441  22.555  41.344  10.278
48017W        W20442  18.777  19.105   2.399
48018W        W20443   6.089  22.454   2.860
48019W        W20444  21.204   0.819  10.995
48020W        W20445   1.875  35.455   4.509
48021W        W20446  20.729  19.138   4.515
48022W        W20447   1.110  32.272   5.448
48023W        W20448  29.233  19.664   0.865
48024W        W20449  22.098  20.702   3.766
48025W        W20450   6.170  29.229   5.157
48026W        W20451  35.862   8.767   3.147
48027W        W20452  39.278  43.956   0.828
48028W        W20453  18.181   5.253   0.868
48029W        W20454  17.559  24.195  10.357
48030W        W20455  33.647  40.871   2.906
48031W        W20456   8.309  23.644  12.395
48032W        W20457   5.623  18.213   1.648
48033W        W20458  31.365  18.252  11.675
48034W        W20459  44.177   0.691  12.913
48035W        W20460  35.956   9.814  11.567
48036W        W20461   7.688  15.715   1.654
48037W        W20462  42.029   1.961   4.117
48038W        W20463  36.041   5.920   3.267
48039W        W20464  43.742  26.524  13.489
48040W        W20465  15.446  16.624   4.723
48041W        W20466  12.586   2.454  10.160
48042W        W20467  20.182  24.616   4.428
48043W        W20468   1.573   4.867   3.849
48044W        W20469  29.962  35.989   1.752
48045W        W20470  17.737  41.093  12.096
48046W        W20471   0.790  43.478   2.610
48047W        W20472  16.554  15.280  10.705
48048W        W20473  10.194  16.715  10.849
48049W        W20474  35.607  25.302  13.447
48050W        W20475  15.858  41.006  13.371
48051W        W20476  29.973  44.355   4.259
48052W        W20477  36.610  19.666  10.615
48053W        W20478  33.989  27.694  14.730
48054W        W20479  24.663  36.852   3.707
48055W        W20480  28.916  20.219   2.176
48056W        W20481  19.978  35.325  11.031
48057W        W20482  18.083  14.488   3.963
48058W        W20483   9.710   0.670  11.204
48059W        W20484  16.548  24.585   0.416
48060W        W20485  23.141  32.619  14.501
48061W        W20486  42.764  25.929   4.501
48062W        W20487  11.864  41.734  11.924
48063W        W20488  18.048  40.196   4.088
48064W        W20489  37.360  19.026   1.249
48065W        W20490   4.374  20.066  12.920
48066W        W20491  14.030   9.778  13.757
48067W        W20492   3.433   0.942   1.165
48068W        W20493  39.756   0.227  12.978
48069W        W20494  21.432  39.673   3.171
48070W        W20495  27.637  33.996   0.825
48071W        W20496   3.675  34.926   0.793
48072W        W20497   1.276  10.950   4.100
48073W        W20498  38.985  30.696   0.712
48074W        W20499  19.165   9.504   3.256
48075W        W20500   1.294  30.525   0.998
48076W        W20501   5.361   7.606  10.633
48077W        W20502  11.760  35.987  13.910
48078W        W20503   9.809  28.096   1.274
48079W        W20504  22.022  34.327   4.183
48080W        W20505   4.481   6.647  13.540
48081W        W20506  44.443  20.558   4.181
48082W        W20507  21.917  40.414   3.226
48083W        W20508  27.042  40.189   3.389
48084W        W20509  18.549  12.615   2.260
48085W        W20510  37.710  10.704  12.483
48086W        W20511  19.202  17.332  14.301
48087W        W20512   1.526   7.521   2.196
48088W        W20513   1.348  40.137  14.179
48089W        W20514   1.938  37.283   2.934
48090W        W20515  35.014  42.910   4.200
48091W        W20516  33.087  40.076  11.190
48092W        W20517   6.364  40.643  14.460
48093W        W20518  19.617  28.113   4.049
48094W        W20519  38.384   2.452  10.399
48095W        W20520  16.763  25.066   0.348
48096W        W20521  43.752  12.266  11.990
48097W        W20522  26.139  24.128   3.143
48098W        W20523  34.517  32.849  12.622
48099W        W20524  12.757  13.350  14.369
48100W        W20525  33.357  40.237   1.726
48101W        W20526   9.449  38.129   4.560
48102W        W20527  25.605  34.862   3.157
48103W        W20528  40.945  29.075  12.109
48104W        W20529  15.998  31.548  14.214
48105W        W20530   7.619   7.863  13.518
48106W        W20531  34.003   3.737   3.132
48107W        W20532   7.071  29.438  11.932
48108W        W20533   2.008  40.130   0.373
48109W        W20534  31.470   0.230   3.106
48110W        W20535  19.049  19.678   1.387
48111W        W20536   1.019  44.228   0.784
48112W        W20537  31.459   3.417   1.436
48113W        W20538  34.018  21.609   0.886
48114W        W20539  33.496  29.133  13.060
48115W        W20540   1.521   1.248  14.948
48116W        W20541  14.315   8.260  10.615
48117W        W20542  21.289  33.371   0.262
48118W        W20543  29.412   2.034   9.766
48119W        W20544  22.006  23.938  14.354
48120W        W20545  18.481  25.600  14.520
48121W        W20546  27.648  13.737   1.982
48122W        W20547  23.431  19.720   1.200
48123W        W20548  33.793  31.417   3.768
48124W        W20549   9.450  14.156   4.505
48125W        W20550  44.965  44.345   4.530
48126W        W20551   0.699   4.939  11.595
48127W        W20552  25.264  14.182   1.306
48128W        W20553   0.098  32.005  14.417
48129W        W20554  29.192  30.888  13.189
48130W        W20555  26.083  38.322  13.962
48131W        W20556  11.292  34.765  11.438
48132W        W20557   4.810   8.794   1.845
48133W        W20558  29.626  40.279   2.298
48134W        W20559  17.283  14.602   3.744
48135W        W20560  35.765  14.643  11.112
48136W        W20561  37.027  21.212   1.968
48137W        W20562  39.576  24.270  12.406
48138W        W20563   7.994   4.689   2.201
48139W        W20564  18.876   2.417   4.266
48140W        W20565   9.836  18.045   0.764
48141W        W20566  25.925  38.375  11.145
48142W        W20567  24.250  21.816   3.698
48143W        W20568  36.070  29.077  14.613
48144W        W20569  25.549  34.816  11.704
48145W        W20570  20.708  35.608  13.825
48146W        W20571   7.519  34.611   2.669
48147W        W20572  38.098  40.007  11.165
48148W        W20573  26.537  17.941  13.406
48149W        W20574   0.902  27.655   2.713
48150W        W20575  13.753  25.072   4.958
48151W        W20576   6.283  36.516  13.438
48152W        W20577   6.722  27.431   3.447
48153W        W20578  10.896  14.622   1.284
48154W        W20579  14.880  16.554  14.411
48155W        W20580  32.474   5.918  11.653
48156W        W20581  13.164  34.373  11.907
48157W        W20582  21.271  31.322  13.964
48158W        W20583  35.931  43.530   4.134
48159W        W20584  17.686  16.937   4.698
48160W        W20585  43.641  36.361  12.984
48161W        W20586  37.702  36.352  12.872
48162W        W20587  35.440  26.121   2.754
48163W        W20588  32.094   1.414   0.362
48164W        W20589  39.979   7.502   4.639
48165W        W20590  16.068  16.000  12.995
48166W        W20591   2.148  15.138   4.528
48167W        W20592  18.805  30.099  14.374
48168W        W20593  39.388   7.297   2.283
48169W        W20594  33.782  22.309  12.083
48170W        W20595   3.384   6.089  13.608
48171W        W20596  39.427   1.117  13.963
48172W        W20597  32.938  39.031  13.014
48173W        W20598   2.914  39.447  13.786
48174W        W20599  36.019  41.542  10.812
48175W        W20600  27.724  22.381  12.037
48176W        W20601  11.276   2.467  11.883
48177W        W20602  21.554   1.768  10.675
48178W        W20603  33.997  26.639  12.522
48179W        W20604  26.935   6.461  11.698
48180W        W20605  32.928  30.743  12.411
48181W        W20606  11.457  10.172   0.997
48182W        W20607  10.641  19.674   3.666
48183W        W20608  36.843  19.099  12.864
48184W        W20609  24.563   0.439  12.027
48185W        W20610  28.979  40.565   4.695
48186W        W20611   4.621  28.416  14.282
48187W        W20612  22.226   5.217  14.787
48188W        W20613  40.636   1.804  12.893
48189W        W20614  10.224   0.942   4.636
48190W        W20615  36.076  28.144   3.739
48191W        W20616  12.629  35.152  13.485
48192W        W20617  21.980  27.242   3.720
48193W        W20618   6.109  14.109   1.395
48194W        W20619   2.699  24.207   4.323
48195W        W20620   3.167  38.071  12.291
48196W        W20621  30.451  42.752  14.587
48197W        W20622  23.723  31.837   3.707
48198W        W20623   9.892  38.503  12.236
48199W        W20624   0.997   2.211   4.663
48200W        W20625  24.649  16.262  12.468
48201W        W20626  37.142  16.030   1.872
48202W        W20627  33.074  13.737  13.917
48203W        W20628   3.967  31.531  11.119
48204W        W20629  40.345  21.872   4.888
48205W        W20630  22.018   7.218  12.856
48206W        W20631  18.525  39.987  12.143
48207W        W20632  38.489  40.307   3.774
48208W        W20633   7.235  21.530   3.796
48209W        W20634  12.672   4.716   4.676
48210W        W20635  18.669   9.674  14.373
48211W        W20636  20.187  39.248   2.725
48212W        W20637  10.369  32.471   1.992
48213W        W20638  35.108  15.367  13.289
48214W        W20639  25.936  42.269  14.979
48215W        W20640  36.313  36.472  13.017
48216W        W20641   3.704  27.207   3.750
48217W        W20642   1.964   8.704   2.850
48218W        W20643   0.091  16.621  14.428
48219W        W20644  37.600  13.140  11.543
48220W        W20645  11.353  24.698   2.253
48221W        W20646  19.116  22.067  14.373
48222W        W20647  26.224  17.251  14.491
48223W        W20648  13.857  11.875   0.864
48224W        W20649  16.323  37.295   2.147
48225W        W20650   8.375  20.022   3.734
48226W        W20651   2.470  22.256  12.536
48227W        W20652  16.783  32.226  13.943
48228W        W20653  44.370  18.495   2.308
48229W        W20654  29.381   5.432   1.387
48230W        W20655  21.033  43.428  12.891
48231W        W20656  19.936  33.352   2.189
48232W        W20657  25.764  19.630  10.264
48233W        W20658  26.070   7.606   1.638
48234W        W20659  33.025  28.262   0.982
48235W        W20660  25.534   4.689  13.107
48236W        W20661  43.969   2.421   4.244
48237W        W20662  10.412  36.069   2.253
48238W        W20663  13.094  36.422   3.197
48239W        W20664   0.541  35.216  10.990
48240W        W20665  30.593  43.633  14.603
48241W        W20666  26.068  27.049  12.301
48242W        W20667   9.437   1.985  13.912
48243W        W20668   0.547  10.926   1.784
48244W        W20669  40.272  23.459  13.346
48245W        W20670   7.932  14.152  13.420
48246W        W20671  37.765  40.978   1.967
48247W        W20672  22.742  36.700  10.279
48248W        W20673  17.089  21.553   2.799
48249W        W20674   2.050  33.888   4.268
48250W        W20675  11.392  36.803  14.438
48251W        W20676  23.457   3.324   4.336
48252W        W20677  38.900  23.359  11.681
48253W        W20678  22.636  22.590  13.414
48254W        W20679   1.522  18.855  11.197
48255W        W20680  10.313  13.922  13.545
48256W        W20681   1.922   3.713   3.373
48257W        W20682  28.212  10.061  11.555
48258W        W20683  39.838   6.349  12.476
48259W        W20684  36.944   3.006   0.804
48260W        W20685  34.447   9.435   2.585
48261W        W20686  15.280  11.346  12.518
48262W        W20687   3.959  13.853  11.137
48263W        W20688  19.143  16.472   3.167
48264W        W20689  34.614  11.685   2.989
48265W        W20690  10.069   4.148  14.757
48266W        W20691  34.463  19.576  13.975
48267W        W20692   3.270  43.251  11.027
48268W        W20693   2.453   0.934  12.587
48269W        W20694  11.830  21.991  14.215
48270W        W20695   5.713   7.013  11.994
48271W        W20696   9.499  38.543   1.657
48272W        W20697   0.952  23.726   0.251
48273W        W20698  31.704  43.607   3.143
48274W        W20699  39.228   7.213  13.970
48275W        W20700  28.008   2.273   0.430
48276W        W20701   5.903  42.493   3.265
48277W        W20702  23.196  33.465   3.142
48278W        W20703   8.952  37.710  12.400
48279W        W20704  32.366  22.335  13.152
48280W        W20705  25.219  40.000  12.475
48281W        W20706  20.784   5.262  12.785
48282W        W20707  43.552  36.551   4.687
48283W        W20708  14.311  42.576   4.600
48284W        W20709  39.060   1.470   3.931
48285W        W20710  43.083  18.602  12.955
48286W        W20711  44.960  31.386  11.242
48287W        W20712  10.938  20.160   3.714
48288W        W20713  18.799  38.339   2.186
48289W        W20714  32.347  36.607  12.478
48290W        W20715  35.540  14.731  12.946
48291W        W20716  44.965  27.953   1.009
48292W        W20717  43.287   6.211  13.945
48293W        W20718   1.562  37.387   0.004
48294W        W20719  10.455   4.737   2.403
48295W        W20720  16.028  34.870   2.269
48296W        W20721  33.136  13.463  11.576
48297W        W20722  23.352  40.785   0.420
48298W        W20723  32.113  18.991  11.153
48299W        W20724  25.538  42.946   2.465
48300W        W20725  35.080  34.822  14.411
48301W        W20726  24.548  11.092  12.946
48302W        W20727  26.902  30.582  14.392
48303W        W20728  32.051  16.826   1.183
48304W        W20729  30.620  34.812  12.126
48305W        W20730  38.018  22.079   3.704
48306W        W20731  16.337  38.994   2.472
48307W        W20732  42.383  39.510  10.605
48308W        W20733  13.720   4.657  13.307
48309W        W20734  44.936  41.365  14.924
48310W        W20735  39.216  18.852   4.715
48311W        W20736  27.037   2.345  14.884
48312W        W20737  15.412  34.096  14.328
48313W        W20738   4.652  10.160   3.582
48314W        W20739  39.158   8.855  11.548
48315W        W20740  13.198  43.887  12.955
48316W        W20741   2.187  37.590  10.776
48317W        W20742  22.933  44.143  14.465
48318W        W20743  24.273  18.192   0.328
48319W        W20744  22.493   2.989   4.320
48320W        W20745  41.441  44.303   3.675
48321W        W20746   7.218   5.973   4.675
48322W        W20747  40.721   5.139  14.694
48323W        W20748  23.727  27.948  13.441
48324W        W20749  23.661  44.373   4.656
48325W        W20750  11.745   7.311  10.703
48326W        W20751  25.115  35.373   4.108
48327W        W20752  33.272   9.734   3.576
48328W        W20753  19.269   1.420   4.480
48329W        W20754  35.263  37.016  13.144
48330W        W20755  11.722  21.838   0.790
48331W        W20756  23.633   2.632   2.171
48332W        W20757  29.750  38.034   4.029
48333W        W20758   4.916  13.291  13.341
48334W        W20759  44.325  36.362   5.194
48335W        W20760  13.160   0.407  11.478
48336W        W20761  22.590   8.426   3.845
48337W        W20762   8.720  43.799  10.342
48338W        W20763  37.503  17.383  12.823
48339W        W20764   8.222  22.599   0.705
48340W        W20765  42.281  10.580  13.912
48341W        W20766   3.802  38.700  13.425
48342W        W20767  21.582  12.150  10.479
48343W        W20768  17.510  38.845   2.258
48344W        W20769  24.763  14.523  11.978
48345W        W20770   4.722   8.352   2.275
48346W        W20771  20.774   5.014   2.684
48347W        W20772  11.965  17.419   1.488
48348W        W20773  19.012  31.948   1.981
48349W        W20774  14.881  30.883   0.418
48350W        W20775  27.106   8.240  14.004
48351W        W20776  17.995  38.452   0.200
48352W        W20777  30.478  33.458   0.749
48353W        W20778  27.016  31.949   2.376
48354W        W20779  22.620  18.667   3.345
48355W        W20780  21.156  31.472  12.153
48356W        W20781   4.982   5.372   0.677
48357W        W20782  39.343  39.481   0.406
48358W        W20783  35.846  14.168   3.705
48359W        W20784  41.114   0.898   3.676
48360W        W20785  31.676  41.307  11.472
48361W        W20786  15.189  24.788  13.963
48362W        W20787  17.589  23.669  11.397
48363W        W20788   8.839  32.305   4.480
48364W        W20789   6.897  27.157   0.929
48365W        W20790  38.131  33.622  14.801
48366W        W20791   9.808  40.093   0.851
48367W        W20792  20.729   6.831   0.053
48368W        W20793  38.827   1.903   2.310
48369W        W20794  43.985  22.552   1.465
48370W        W20795   9.903  20.142  10.869
48371W        W20796   9.135   8.883   3.349
48372W        W20797   1.427  22.986  12.672
48373W        W20798  43.404  20.017  11.072
48374W        W20799  22.483  38.015   4.770
48375W        W20800   4.449  17.423  13.887
48376W        W20801  41.801  25.285   1.984
48377W        W20802  10.109  21.190   0.018
48378W        W20803  42.454  29.951  14.571
48379W        W20804  10.184  23.077  11.529
48380W        W20805  16.535  33.007  13.140
48381W        W20806  13.165  39.854  10.255
48382W        W20807  20.679  31.715  12.179
48383W        W20808   0.690  30.296  10.755
48384W        W20809  28.955   2.316   0.401
48385W        W20810  17.185  21.455  13.964
48386W        W20811  14.111  25.840   4.555
48387W        W20812  23.415  44.499  10.649
48388W        W20813  40.227  35.470  10.432
48389W        W20814  39.312  27.639   2.262
48390W        W20815  40.844  26.481   2.956
48391W        W20816  26.478  38.311  14.750
48392W        W20817  13.177  16.280   2.232
48393W        W20818  13.417   1.365  11.505
48394W        W20819  44.505   2.068   1.691
48395W        W20820  17.114  42.337  10.611
48396W        W20821  32.955  38.832  14.399
48397W        W20822  30.654  14.059  10.921
48398W        W20823   6.306  31.216   0.768
48399W        W20824   9.586  32.122   4.248
48400W        W20825  29.725  26.126   2.783
48401W        W20826  43.898  41.056   2.696
48402W        W20827  18.304  44.011  12.022
48403W        W20828  42.251  28.566  13.591
48404W        W20829  24.916  32.252   5.122
48405W        W20830  44.410  32.138   4.153
48406W        W20831  18.756  36.510   0.816
48407W        W20832   5.350  25.841  13.827
48408W        W20833  44.462   7.984  10.707
48409W        W20834  12.326  28.188  13.454
48410W        W20835  29.228  41.165   1.203
48411W        W20836   3.804  11.734   2.420
48412W        W20837  44.999  32.343   1.852
48413W        W20838   4.812  23.476   0.245
48414W        W20839  34.121  29.585  11.295
48415W        W20840  42.615  39.376   3.715
48416W        W20841   8.962  42.532   0.779
48417W        W20842  14.393  38.516  13.351
48418W        W20843  19.830  16.289   0.490
48419W        W20844   2.822   0.750  13.530
48420W        W20845  29.207  15.185   3.354
48421W        W20846   7.151   0.694  14.855
48422W        W20847  19.135  37.361   2.248
48423W        W20848   3.410  22.177   1.341
48424W        W20849  20.491   2.934   2.000
48425W        W20850  21.511  27.520   4.417
48426W        W20851  37.530  44.994   4.573
48427W        W20852  40.984  15.461  11.459
48428W        W20853  13.274  24.407   4.235
48429W        W20854  40.770   1.954   1.471
48430W        W20855  24.628  42.054  13.329
48431W        W20856  11.360  44.447   4.476
48432W        W20857  25.096  18.501  10.333
48433W        W20858  11.463   3.290  12.530
48434W        W20859  36.122   8.895  14.759
48435W        W20860  13.670  15.765   2.366
48436W        W20861  40.129  44.195   2.818
48437W        W20862  33.080  36.847  13.562
48438W        W20863  41.196  26.624   0.324
48439W        W20864  40.767  39.090  12.021
48440W        W20865  35.557   8.118  10.759
48441W        W20866  16.921  40.882   3.767
48442W        W20867  13.684   7.296   4.575
48443W        W20868  36.064  34.503  10.597
48444W        W20869  22.252  34.090   4.631
48445W        W20870   4.842  40.719  11.470
48446W        W20871  11.060  41.320  12.040
48447W        W20872  27.176  30.440  14.828
48448W        W20873  33.698  26.283  12.028
48449W        W20874   4.415  40.846   0.839
48450W        W20875  25.521  26.750   1.955
48451W        W20876  20.268  14.654   1.849
48452W        W20877  31.390   6.776   2.370
48453W        W20878   8.219  44.906   3.660
48454W        W20879  33.489  24.073  10.910
48455W        W20880   2.511  30.532   0.437
48456W        W20881  29.522  26.448  10.211
48457W        W20882   0.813  29.625  10.786
48458W        W20883  16.497  26.056   1.311
48459W        W20884  21.254  35.109  13.375
48460W        W20885  18.096  34.482  11.074
48461W        W20886  17.057  12.976  11.724
48462W        W20887   9.426  10.704   3.334
48463W        W20888  16.072  28.650   0.822
48464W        W20889  18.686   0.781   0.425
48465W        W20890  34.468  28.516  13.338
48466W        W20891   2.271  23.540   4.789
48467W        W20892   5.394  29.447   4.815
48468W        W20893   5.607   6.391   1.882
48469W        W20894  44.543  15.587  14.766
48470W        W20895   8.900  13.513  10.594
48471W        W20896  31.241   9.884   0.359
48472W        W20897  30.258  40.248   1.227
48473W        W20898  40.071  35.927  11.657
48474W        W20899  35.674  16.771  13.459
48475W        W20900  26.119  12.572  10.712
48476W        W20901  32.791  27.953   0.015
48477W        W20902  44.280  38.908  11.952
48478W        W20903  17.630  26.490  12.435
48479W        W20904   0.409  30.684   3.270
48480W        W20905  38.921  15.171  11.558
48481W        W20906  20.202  34.048   2.762
48482W        W20907  14.083  39.496  13.894
48483W        W20908  10.341  14.252  12.267
48484W        W20909   1.212  16.778   4.265
48485W        W20910  33.661  23.995   4.738
48486W        W20911   8.802  11.791  11.320
48487W        W20912  41.768   1.076  14.433
48488W        W20913  16.766   3.458  10.613
48489W        W20914  32.629  44.461   3.044
48490W        W20915  14.039  39.782  13.408
48491W        W20916  34.501  29.420  12.491
48492W        W20917   7.154  33.500   0.161
48493W        W20918  20.835  39.912   2.363
48494W        W20919  22.332  28.336   2.694
48495W        W20920   5.431  15.591   1.216
48496W        W20921  14.750  29.450   2.681
48497W        W20922   8.942  12.689   3.765
48498W        W20923  17.665  22.472   3.220
48499W        W20924  33.972  39.002  11.216
48500W        W20925  35.581   1.735  12.060
48501W        W20926  22.929   8.629   4.224
48502W        W20927  17.270  20.942   3.242
48503W        W20928   1.750  32.306   1.864
48504W        W20929  41.095   9.097  12.811
48505W        W20930  42.921  31.058  13.045
48506W        W20931  44.419   2.077   9.767
48507W        W20932  35.369  39.173  14.725
48508W        W20933  38.825   3.912  13.375
48509W        W20934  33.992  30.633   2.464
48510W        W20935   7.348  16.301   4.812
48511W        W20936  42.700   1.971  14.987
48512W        W20937  26.741   0.242   3.947
48513W        W20938  41.683  35.890  11.636
48514W        W20939  31.485   0.850  14.317
48515W        W20940  43.944   2.841  10.998
48516W        W20941  23.238   5.745   2.998
48517W        W20942  27.150   9.358   1.318
48518W        W20943  39.651   0.910  12.355
48519W        W20944  29.475  19.263  13.862
48520W        W20945  43.449   4.004  12.594
48521W        W20946  13.283   6.412  13.367
48522W        W20947  32.590  13.101   0.241
48523W        W20948  42.248  40.340   4.341
48524W        W20949  32.507   8.148   2.691
48525W        W20950  15.785  34.560  14.941
48526W        W20951  25.009  39.316   3.207
48527W        W20952  27.515  36.950  12.948
48528W        W20953  33.118  44.925   3.707
48529W        W20954  29.476  26.363   2.399
48530W        W20955  18.601  32.805   3.746
48531W        W20956  16.265  33.594  11.440
48532W        W20957  18.335  18.788  12.587
48533W        W20958  11.541  24.899   2.705
48534W        W20959   5.205   8.200  14.937
48535W        W20960  12.168  37.471  13.885
48536W        W20961  18.305  21.700   2.303
48537W        W20962  20.830  32.726  12.411
48538W        W20963   2.382  16.194   2.691
48539W        W20964  25.145  11.317   0.107
48540W        W20965  17.329   3.224   4.320
48541W        W20966   1.483  15.735  12.028
48542W        W20967  40.696  22.041   2.295
48543W        W20968   1.052  10.692   4.493
48544W        W20969  14.925   7.202  11.561
48545W        W20970  19.673  23.693  14.866
48546W        W20971  20.362   4.904  14.969
48547W        W20972  43.762  23.077  14.090
48548W        W20973   5.793  19.844  12.468
48549W        W20974  31.900  36.147  11.176
48550W        W20975  19.977   3.803   3.248
48551W        W20976   0.448  14.744   0.391
48552W        W20977  15.625  29.511   2.174
48553W        W20978  42.002   2.709   1.789
48554W        W20979  10.474  11.662  14.428
48555W        W20980  31.739  40.665   2.713
48556W        W20981  35.852  28.440  13.299
48557W        W20982  22.753  41.044  11.568
48558W        W20983  13.327  43.511  10.783
48559W        W20984  31.007  24.008  14.475
48560W        W20985  18.563  22.445  10.769
48561W        W20986  44.715  39.327  13.038
48562W        W20987  34.955   1.241  10.785
48563W        W20988  31.996   2.407   0.133
48564W        W20989  44.879  33.410   0.705
48565W        W20990  36.967  40.495   1.048
48566W        W20991  36.570  19.189   2.087
48567W        W20992  36.867  30.959  12.319
48568W        W20993  13.185  12.533   4.816
48569W        W20994   3.691   2.737  13.583
48570W        W20995  24.679  23.683   3.314
48571W        W20996  11.048  17.174  12.989
48572W        W20997  19.618  24.008   3.255
48573W        W20998  30.560  27.029  12.402
48574W        W20999  27.495  15.711  11.238
48575W        W21000  17.529  11.418  12.868
48576W        W21001  19.777   3.188  13.326
48577W        W21002  37.412  43.056   3.151
48578W        W21003  10.326  21.381   9.889
48579W        W21004  43.305   0.897  10.661
48580W        W21005  22.908  19.819  12.015
48581W        W21006  34.522   3.223  12.102
48582W        W21007   5.847   0.451  13.947
48583W        W21008  38.532  36.342  12.563
48584W        W21009  19.998  26.474   0.279
48585W        W21010   2.484   8.641   2.792
48586W        W21011  10.255  24.174  13.777
48587W        W21012  17.246  14.344   0.511
48588W        W21013  37.293  31.241  14.717
48589W        W21014  19.678  36.021  10.753
48590W        W21015  15.037  32.237   4.117
48591W        W21016  17.719  18.388  10.589
48592W        W21017  37.165  25.632   3.668
48593W        W21018  41.548  12.320  14.551
48594W        W21019  43.326  32.832   3.340
48595W        W21020  41.012  31.126  10.822
48596W        W21021   9.705  43.240  13.055
48597W        W21022  38.360  15.359   3.673
48598W        W21023  27.747   4.870  12.701
48599W        W21024  22.984  18.717  14.386
48600W        W21025  12.150  22.102  12.128
48601W        W21026  31.939  36.821   2.743
48602W        W21027  29.273   0.053   2.808
48603W        W21028   2.164  32.011   0.396
48604W        W21029  35.606   5.185  14.573
48605W        W21030   0.295  40.547  14.699
48606W        W21031  43.465  12.009  12.739
48607W        W21032  40.880   8.833  11.456
48608W        W21033  41.078  19.944  12.944
48609W        W21034  42.248  22.515   1.223
48610W        W21035  25.147  31.588   3.553
48611W        W21036  44.508  34.783  11.762
48612W        W21037   4.765  25.186  14.872
48613W        W21038   6.439  30.402   4.068
48614W        W21039   7.192   2.747  13.582
48615W        W21040  25.292  14.638   2.319
48616W        W21041  39.348  37.066   0.423
48617W        W21042  28.736  25.726  12.722
48618W        W21043   0.004  23.403  13.428
48619W        W21044   2.768  11.547  13.848
48620W        W21045  28.207  21.557   0.003
48621W        W21046  41.502   3.371   2.952
48622W        W21047   1.427  28.073  10.573
48623W        W21048  11.616  44.383   3.150
48624W        W21049   2.427   7.038  14.529
48625W        W21050   3.213  14.726   4.760
48626W        W21051  17.837  15.691  11.971
48627W        W21052   6.855  35.345  12.429
48628W        W21053  19.050   7.844   3.534
48629W        W21054  37.772  17.090   2.824
48630W        W21055  42.441   2.689   0.373
48631W        W21056  13.881  35.080  11.876
48632W        W21057  25.534  20.481   0.958
48633W        W21058  24.928   6.771  13.453
48634W        W21059  32.908   8.851   3.907
48635W        W21060  21.709   0.809  10.247
48636W        W21061  44.425  40.946   4.944
48637W        W21062  39.346  13.992   0.813
48638W        W21063  19.776  26.422  12.757
48639W        W21064  38.059   6.357   0.850
48640W        W21065  22.848  27.547  11.090
48641W        W21066  35.423   5.564  11.793
48642W        W21067  18.186  18.126   4.786
48643W        W21068  30.461  36.974   2.765
48644W        W21069   4.637   3.076   2.899
48645W        W21070  21.083  14.339   3.101
48646W        W21071  30.307   0.911  11.450
48647W        W21072  30.505  30.651  13.451
48648W        W21073  23.790  39.886   3.301
48649W        W21074  24.039  33.225   5.091
48650W        W21075  14.962  37.461   4.942
48651W        W21076  39.966  29.688   3.485
48652W        W21077  42.227  16.786   2.665
48653W        W21078   2.054  28.051  13.423
48654W        W21079  12.930  36.493  14.702
48655W        W21080  28.576  43.003  14.057
48656W        W21081  42.230   9.129   1.734
48657W        W21082  29.385  29.053  13.115
48658W        W21083   8.430  13.179  14.178
48659W        W21084  43.571  39.841  11.492
48660W        W21085   2.350   3.644  11.564
48661W        W21086   6.159  34.015  13.470
48662W        W21087  44.217  40.042  14.099
48663W        W21088  14.160  28.957   1.868
48664W        W21089  38.843  32.120   0.941
48665W        W21090  33.140  25.615   1.620
48666W        W21091   2.207   8.223   2.903
48667W        W21092  44.072  23.089  13.664
48668W        W21093  32.035  35.418   0.955
48669W        W21094  24.993  13.634   3.910
48670W        W21095  24.002  18.601  14.466
48671W        W21096   0.498  19.240  11.922
48672W        W21097   8.273  17.776   0.997
48673W        W21098  22.963   4.206   3.773
48674W        W21099   4.579  20.807  12.322
48675W        W21100  37.858   1.210   2.860
48676W        W21101  10.636  36.646   0.847
48677W        W21102  39.899  27.653   4.644
48678W        W21103  19.655  14.176  12.456
48679W        W21104  28.579  40.945   0.152
48680W        W21105  21.148  23.228  14.022
48681W        W21106  15.641   7.264  11.824
48682W        W21107  26.102  16.592   1.359
48683W        W21108  27.714  27.650   4.388
48684W        W21109  20.186  41.277  10.153
48685W        W21110   5.822  30.350  13.794
48686W        W21111  12.680   8.121   1.494
48687W        W21112  28.542  10.556   3.235
48688W        W21113  19.306  30.910   1.772
48689W        W21114  30.600  20.194  12.639
48690W        W21115  43.804   9.216  11.884
48691W        W21116  17.723  24.447  13.446
48692W        W21117  31.109  19.542   1.054
48693W        W21118  30.061  36.083  13.291
48694W        W21119   2.139  12.149  11.402
48695W        W21120  19.586  32.206  12.968
48696W        W21121  11.485   9.753  13.073
48697W        W21122  27.546  11.897  14.527
48698W        W21123  17.858  34.665  12.473
48699W        W21124  28.682  39.316  10.681
48700W        W21125   6.801  25.659   1.438
48701W        W21126  41.831  24.132  12.001
48702W        W21127  24.985  33.523   3.022
48703W        W21128  19.205  28.631   2.849
48704W        W21129  24.933  29.482  10.557
48705W        W21130   4.006  31.613   1.320
48706W        W21131  17.586   7.583   2.668
48707W        W21132   0.840  36.461   0.871
48708W        W21133   3.850  26.950  11.218
48709W        W21134  39.294  31.587  10.952
48710W        W21135  40.179  11.103  12.483
48711W        W21136  24.331   3.209   0.930
48712W        W21137   6.493  36.073  12.041
48713W        W21138  30.744  39.286  12.209
48714W        W21139   8.307   7.863   3.302
48715W        W21140  41.257  29.104  11.486
48716W        W21141   5.156   0.905  11.194
48717W        W21142  30.280  35.178   1.436
48718W        W21143  20.461  40.274   2.277
48719W        W21144  16.077   1.405  12.325
48720W        W21145  16.142   5.714   4.293
48721W        W21146  37.883  12.506  14.893
48722W        W21147   8.183   2.792   1.671
48723W        W21148   1.964   7.309   2.405
48724W        W21149  42.986  25.648  11.551
48725W        W21150  27.075  14.132   0.796
48726W        W21151   7.691   8.449  10.663
48727W        W21152  30.068  10.421   4.872
48728W        W21153  12.854  17.184   3.094
48729W        W21154  27.948   7.702  12.406
48730W        W21155  34.888  20.268  10.796
48731W        W21156  32.950  31.080  13.868
48732W        W21157  12.253  44.000  11.538
48733W        W21158  18.662  35.710   3.591
48734W        W21159  12.238   8.944  13.144
48735W        W21160  21.706  34.313   2.775
48736W        W21161  15.818  34.680  11.264
48737W        W21162   0.725  26.217  11.789
48738W        W21163  25.206  29.754  13.344
48739W        W21164  31.403  37.419  13.894
48740W        W21165   3.039  19.974   5.103
48741W        W21166  15.696   9.787  11.100
48742W        W21167  42.572  43.471  13.374
48743W        W21168  24.651  19.509   1.006
48744W        W21169  27.817  33.997   0.065
48745W        W21170  21.506  11.041  11.996
48746W        W21171  35.136  23.225  14.301
48747W        W21172   1.369  30.992  12.506
48748W        W21173  41.714   9.803  14.935
48749W        W21174  44.292  31.613   0.495
48750W        W21175   8.196  41.308   0.202
48751W        W21176  34.003  33.447   4.633
48752W        W21177  33.378  36.538   1.872
48753W        W21178  29.921  12.369   3.981
48754W        W21179  44.537  12.325   4.212
48755W        W21180   8.453  15.353   1.311
48756W        W21181  18.816   8.716  12.044
48757W        W21182   1.489  22.657  10.631
48758W        W21183  44.472  21.202   0.868
48759W        W21184  44.357  41.414   3.629
48760W        W21185   4.507   2.459   3.645
48761W        W21186  20.633  12.855  13.045
48762W        W21187  29.443  11.115   2.344
48763W        W21188  30.499   9.080   3.098
48764W        W21189  26.525  35.686   4.038
48765W        W21190  13.610   1.286   5.066
48766W        W21191  13.590   0.909   1.267
48767W        W21192  42.758  29.442   4.997
48768W        W21193   4.793  14.703  10.593
48769W        W21194  26.710  38.477   4.436
48770W        W21195   5.023  26.142   4.561
48771W        W21196  38.721  41.981  11.463
48772W        W21197  14.641  44.262  12.080
48773W        W21198  27.203  25.389   3.144
48774W        W21199  17.026  34.680  11.858
48775W        W21200  38.998  43.083   0.295
48776W        W21201  10.186  15.236   1.776
48777W        W21202  21.633  36.078  13.575
48778W        W21203  16.699   8.149   1.738
48779W        W21204   0.176  39.068   2.552
48780W        W21205  38.569  26.408  13.374
48781W        W21206  20.574  38.300   3.183
48782W        W21207   4.980  15.752   0.345
48783W        W21208  21.593  42.515   1.873
48784W        W21209   8.402  10.138  11.104
48785W        W21210  30.142  35.083  11.103
48786W        W21211   5.558  37.395   1.717
48787W        W21212   8.196  17.147   2.969
48788W        W21213   4.250  27.175   4.339
48789W        W21214  30.904   5.761   0.785
48790W        W21215  17.625  42.846   1.667
48791W        W21216   1.814  23.914   4.414
48792W        W21217  33.041  11.095   3.756
48793W        W21218  25.472  33.499   3.217
48794W        W21219  15.512  31.342   3.378
48795W        W21220  40.968  10.884  10.659
48796W        W21221  11.739   6.605  11.243
48797W        W21222   2.469  38.138   2.200
48798W        W21223  30.615  38.538  13.300
48799W        W21224  29.151   8.028  12.855
48800W        W21225  34.623  11.105   3.324
48801W        W21226  37.902  39.083  14.294
48802W        W21227   3.021  15.276  10.191
48803W        W21228  18.277   5.817  11.734
48804W        W21229  22.333  16.424   2.877
48805W        W21230  39.336   8.154   1.919
48806W        W21231  40.853  26.712   3.815
48807W        W21232  41.215   4.775   2.830
48808W        W21233  42.282  14.586  14.367
48809W        W21234  38.448  38.149  13.798
48810W        W21235  15.073  23.956  14.238
48811W        W21236  20.910  13.270  14.359
48812W        W21237  29.859  22.139  11.940
48813W        W21238  38.592   4.194  13.002
48814W        W21239  10.975   8.903  13.640
48815W        W21240  11.144   9.858  13.478
48816W        W21241  40.619   4.595   1.294
48817W        W21242  27.156   0.432   3.714
48818W        W21243   0.722  22.997  11.633
48819W        W21244   8.427  16.343   0.414
48820W        W21245  14.374  33.624  11.190
48821W        W21246  26.482  30.272  11.157
48822W        W21247  36.400  23.592   9.784
48823W        W21248  10.416  36.407  12.846
48824W        W21249  27.918  35.852  14.728
48825W        W21250   1.228   0.673   2.892
48826W        W21251  19.137  31.210   1.292
48827W        W21252  34.495  28.157  10.634
48828W        W21253  15.129  25.735   0.927
48829W        W21254   8.025  31.082   1.733
48830W        W21255  34.003   1.916  11.644
48831W        W21256  24.459   4.901  11.878
48832W        W21257  40.923  39.027   3.639
48833W        W21258  28.363   8.778  11.434
48834W        W21259   2.435   3.449   2.138
48835W        W21260  13.116  16.796   1.300
48836W        W21261  15.060  40.824  11.671
48837W        W21262  37.406  29.682  13.782
48838W        W21263  16.979  16.245   2.653
48839W        W21264   7.627  30.650  14.936
48840W        W21265  37.044   5.347  10.460
48841W        W21266  21.717  11.307  12.822
48842W        W21267  42.244  20.832  10.322
48843W        W21268  27.017  16.368  12.938
48844W        W21269  37.065  22.484  14.312
48845W        W21270  12.459   4.407   1.649
48846W        W21271   4.189  32.182  14.714
48847W        W21272   2.844  13.465  13.962
48848W        W21273  38.407   7.812  13.855
48849W        W21274  33.160   3.768  11.676
48850W        W21275  10.386  44.884   3.748
48851W        W21276  34.927   6.960  14.968
48852W        W21277  41.556  21.158  11.052
48853W        W21278  15.108  35.621   2.239
48854W        W21279  19.727   4.282  11.978
48855W        W21280  24.603  20.710  14.213
48856W        W21281   0.726  38.012   0.435
48857W        W21282  39.513  29.047  12.454
48858W        W21283   8.964  14.188   1.035
48859W        W21284  27.944  40.996   1.240
48860W        W21285   9.799  40.845  10.945
48861W        W21286  18.559  33.094  14.850
48862W        W21287  30.075  36.861  13.089
48863W        W21288  14.398  43.903   4.261
48864W        W21289  44.968  23.711  12.944
48865W        W21290   4.683   7.342  12.839
48866W        W21291  17.802  14.572   2.804
48867W        W21292   7.185   8.469   4.604
48868W        W21293  39.610   2.425  11.665
48869W        W21294  20.554  12.269   3.291
48870W        W21295  28.361  22.832   2.753
48871W        W21296  35.371   2.293   3.221
48872W        W21297  33.259  39.489  11.353
48873W        W21298  38.488  18.080   1.670
48874W        W21299  34.886  22.697   0.420
48875W        W21300  35.904  44.864  13.894
48876W        W21301  41.117  17.309  11.580
48877W        W21302  36.403  26.575   4.825
48878W        W21303  43.664  14.691   0.757
48879W        W21304  10.891   7.251  14.964
48880W        W21305  35.374  29.402  11.451
48881W        W21306  17.570  33.135  14.795
48882W        W21307   1.748  19.605   4.529
48883W        W21308  18.644  26.589  14.448
48884W        W21309  41.423  38.599  11.663
48885W        W21310  15.199  38.862  11.998
48886W        W21311   1.445  27.629  12.426
48887W        W21312  35.498  23.514   0.233
48888W        W21313  16.629  25.677   4.525
48889W        W21314  28.626  38.299   1.007
48890W        W21315  34.611  32.053   2.607
48891W        W21316  18.130  32.872  13.326
48892W        W21317  27.983  16.057   2.032
48893W        W21318  23.378  24.597  11.693
48894W        W21319   5.153  44.743   1.663
48895W        W21320  42.297  32.696   2.417
48896W        W21321  13.092   0.803  12.884
48897W        W21322  17.174  21.392  11.669
48898W        W21323  33.248  21.899  14.335
48899W        W21324  33.754   2.432   2.198
48900W        W21325  10.728  38.862  12.421
48901W        W21326  21.125  10.642  12.023
48902W        W21327  20.257  44.825   0.284
48903W        W21328  11.808  15.562  10.349
48904W        W21329  10.568  30.508   1.345
48905W        W21330   9.740  24.152  11.583
48906W        W21331  42.008  29.570   3.185
48907W        W21332  44.725  29.094   0.206
48908W        W21333   3.948  19.751  11.917
48909W        W21334   2.894  24.411  13.337
48910W        W21335  22.526  16.360  11.661
48911W        W21336  14.796  31.658   0.746
48912W        W21337   3.366  44.273   2.257
48913W        W21338   9.647   3.160   2.849
48914W        W21339  30.483  15.256  14.800
48915W        W21340   0.510  31.000   0.909
48916W        W21341  17.415   3.320   0.528
48917W        W21342   5.831  31.194  13.156
48918W        W21343  27.778   7.822   2.102
48919W        W21344   8.155  44.494  10.797
48920W        W21345  34.217  21.652   0.398
48921W        W21346  27.962  22.536  10.189
48922W        W21347  26.552  12.357   0.515
48923W        W21348  33.552  36.601  13.503
48924W        W21349   7.367  27.139  10.705
48925W        W21350   9.012  15.002   1.411
48926W        W21351  26.874  38.956   0.920
48927W        W21352   4.193  28.518   4.863
48928W        W21353  33.350  39.951  10.442
48929W        W21354  15.908  22.173  12.378
48930W        W21355  26.512  35.654  13.224
48931W        W21356  41.346  34.352  11.188
48932W        W21357  40.603  35.517  14.902
48933W        W21358  30.608  43.376  11.160
48934W        W21359  33.639   3.019   3.828
48935W        W21360  40.780  38.480   0.286
48936W        W21361  23.487  27.737   2.242
48937W        W21362  27.531  28.405  14.957
48938W        W21363  17.774   3.294  12.159
48939W        W21364   3.367  20.701   4.242
48940W        W21365  17.703  36.472   4.260
48941W        W21366  44.721  12.324  11.048
48942W        W21367  40.478  17.226  12.380
48943W        W21368  35.777   7.765  11.080
48944W        W21369  12.851  44.968  13.409
48945W        W21370  39.405  22.327  13.876
48946W        W21371  26.090  15.277  12.313
48947W        W21372   3.139  24.605  11.132
48948W        W21373  30.095  24.499   0.448
48949W        W21374  43.070  22.586  12.950
48950W        W21375  22.741   5.687   2.860
48951W        W21376  27.065   2.336  13.306
48952W        W21377  14.118   5.185   0.194
48953W        W21378   2.740  28.569  12.340
48954W        W21379   6.474  17.560  10.415
48955W        W21380  38.250  25.424   2.710
48956W        W21381  23.651  43.755   0.759
48957W        W21382   6.829   8.454  10.732
48958W        W21383   8.449  43.326   1.814
48959W        W21384   7.712  43.630   1.462
48960W        W21385   9.177  43.985  10.100
48961W        W21386   2.837  16.766  12.027
48962W        W21387  39.947  40.221   2.209
48963W        W21388  24.778  22.477   4.671
48964W        W21389  13.113  16.559   1.781
48965W        W21390   2.469  38.699   2.133
48966W        W21391   9.263  36.714   0.865
48967W        W21392  36.860  16.164   0.409
48968W        W21393  24.960  12.852  14.426
48969W        W21394  40.451  43.529   3.207
48970W        W21395  37.581  24.182  12.369
48971W        W21396  26.579  29.771   2.747
48972W        W21397  12.391  36.558   3.590
48973W        W21398  29.579  16.826   4.158
48974W        W21399  12.722  12.952   1.831
48975W        W21400   6.914  44.926   4.158
48976W        W21401  35.483  44.269   4.175
48977W        W21402  38.374   0.457  11.135
48978W        W21403  34.296  41.161   1.421
48979W        W21404  11.643   6.362  10.778
48980W        W21405  22.046  38.807   0.856
48981W        W21406  38.300  29.290  10.633
48982W        W21407  29.312   6.614  10.234
48983W        W21408  27.880  33.561   3.773
48984W        W21409  26.673  31.075   4.267
48985W        W21410  36.957  22.448  13.390
48986W        W21411  35.293  19.882  13.398
48987W        W21412  36.080  28.917   4.817
48988W        W21413  22.536  39.989  14.984
48989W        W21414  27.352  25.724   2.254
48990W        W21415  42.154  11.905   1.723
48991W        W21416   3.177  34.491   1.902
48992W        W21417  22.736   2.545  12.156
48993W        W21418  39.781  39.061  12.108
48994W        W21419  22.743  22.976   1.568
48995W        W21420  40.305  39.565  12.441
48996W        W21421  23.225  32.146   4.583
48997W        W21422  17.674  20.910  11.034
48998W        W21423  13.356   9.165   3.133
48999W        W21424   3.536  43.088  14.068
49000W        W21425  17.980  21.448  11.583
49001W        W21426   1.467   4.687   2.920
49002W        W21427   6.333   5.429  12.877
49003W        W21428  29.271  10.244  14.465
49004W        W21429   2.563  27.950  13.558
49005W        W21430  18.614  13.353   2.628
49006W        W21431  27.557  41.010  11.249
49007W        W21432  28.584  16.596   1.225
49008W        W21433  10.293  43.236   0.910
49009W        W21434  22.634  40.865   2.789
49010W        W21435  19.008  34.732   1.472
49011W        W21436  41.289  40.523   4.143
49012W        W21437  35.562   8.827  13.494
49013W        W21438   9.956  35.998  11.359
49014W        W21439  17.048  43.845  12.451
49015W        W21440  10.294  20.354   0.067
49016W        W21441  26.976  21.353   0.310
49017W        W21442  13.262  20.115   1.704
49018W        W21443  42.701   9.652  13.956
49019W        W21444   0.786  12.076  12.966
49020W        W21445  13.605  25.483  13.278
49021W        W21446   0.948  18.818  12.044
49022W        W21447  43.323  34.535   4.601
49023W        W21448  39.834  21.802   4.086
49024W        W21449  30.333  15.045  12.432
49025W        W21450  27.608   8.310  13.413
49026W        W21451  10.449  33.100   3.337
49027W        W21452  26.067  21.953   3.224
49028W        W21453  32.863  28.592  13.564
49029W        W21454  38.474  19.093   2.386
49030W        W21455  31.609  33.708  14.413
49031W        W21456  25.216   1.953   0.440
49032W        W21457  35.000  19.766  10.735
49033W        W21458  15.068  26.212  10.939
49034W        W21459  40.434  18.010  12.071
49035W        W21460  33.726  25.446  14.029
49036W        W21461  29.987  28.214  13.801
49037W        W21462  32.600   7.453  10.506
49038W        W21463   0.223  28.741  13.962
49039W        W21464   7.186   1.769   4.293
49040W        W21465  32.853  23.259  12.357
49041W        W21466   3.274  13.405  13.310
49042W        W21467  35.685  18.644   3.160
49043W        W21468  21.162   8.790   4.200
49044W        W21469  35.073   3.718   4.562
49045W        W21470  38.999  23.247  14.488
49046W        W21471  15.619  31.833   3.253
49047W        W21472  12.775  29.951   0.342
49048W        W21473   2.394   3.407  10.473
49049W        W21474  25.550  22.005  14.237
49050W        W21475  44.542  40.581  13.058
49051W        W21476  15.137  39.792   2.759
49052W        W21477   5.818   5.306  10.894
49053W        W21478  35.531  24.661   4.590
49054W        W21479  43.854   0.258  11.976
49055W        W21480  39.968  20.077   2.939
49056W        W21481  25.518  28.960  12.020
49057W        W21482  43.276  23.048  12.512
49058W        W21483  41.868  23.568   2.643
49059W        W21484  33.161  28.093  14.161
49060W        W21485  21.806  44.773  11.984
49061W        W21486  14.748  38.626  12.535
49062W        W21487  30.331  37.461   4.594
49063W        W21488   6.304  33.987   2.385
49064W        W21489   6.200  11.197  14.013
49065W        W21490  26.563   3.147  12.588
49066W        W21491  27.690   6.770  13.798
49067W        W21492  31.436  16.564  14.560
49068W        W21493   4.343   5.710  13.457
49069W        W21494  23.787  27.725   4.519
49070W        W21495  44.948  39.867   4.622
49071W        W21496  25.198  34.511   3.620
49072W        W21497  19.061  29.095   3.223
49073W        W21498   2.509   2.279   0.236
49074W        W21499  40.022  21.680   3.122
49075W        W21500  41.763  24.303  14.575
49076W        W21501  15.834  21.262  12.920
49077W        W21502  27.995  15.708  11.830
49078W        W21503  20.244   7.744  12.985
49079W        W21504  29.868  35.466  10.691
49080W        W21505  14.908   5.287   3.578
49081W        W21506   7.844  38.373   3.091
49082W        W21507  17.735  42.971   3.787
49083W        W21508  21.887   2.338  13.376
49084W        W21509  19.682   5.315   4.156
49085W        W21510  26.579   3.174  13.110
49086W        W21511  20.696  19.342   1.183
49087W        W21512   1.007   9.173   4.146
49088W        W21513  31.338  14.136   1.284
49089W        W21514   1.356  14.207   2.202
49090W        W21515   9.145  22.911   1.950
49091W        W21516  16.657   7.225  11.246
49092W        W21517  31.646  42.445   0.614
49093W        W21518   9.380   5.411   3.109
49094W        W21519  17.129  31.423  14.423
49095W        W21520  36.500  44.281   5.087
49096W        W21521  42.115  10.400  12.050
49097W        W21522  17.329  14.341   2.800
49098W        W21523  22.265  27.988   1.825
49099W        W21524  33.577  23.583  11.026
49100W        W21525  39.141   3.721   3.679
49101W        W21526  18.838   4.270   2.857
49102W        W21527  42.474  25.154   4.749
49103W        W21528  27.008  13.604  12.540
49104W        W21529  10.926  40.311  11.142
49105W        W21530  43.780  35.696  11.880
49106W        W21531  16.033  11.719  13.758
49107W        W21532  27.226  42.825  12.852
49108W        W21533   5.793  18.702   3.923
49109W        W21534  10.080   2.883   4.942
49110W        W21535  32.041   4.158   1.164
49111W        W21536  29.400  11.330   4.044
49112W        W21537  11.330  34.952   4.195
49113W        W21538  20.660  27.935  14.007
49114W        W21539  24.275   4.835   0.032
49115W        W21540  28.937  38.504  13.112
49116W        W21541   0.548  44.292   4.947
49117W        W21542  14.280  41.126  12.099
49118W        W21543  12.062  33.506  10.676
49119W        W21544  20.055  24.301  12.984
49120W        W21545  38.554  13.677   0.355
49121W        W21546  16.407  44.830  13.396
49122W        W21547  21.987  34.545   4.655
49123W        W21548  29.075  26.517  13.957
49124W        W21549   7.916  26.945  14.911
49125W        W21550  28.041  17.389  13.065
49126W        W21551  27.861  23.200   3.852
49127W        W21552  41.266  10.737  13.743
49128W        W21553  19.377   8.156  11.379
49129W        W21554  35.320  42.321  14.881
49130W        W21555   4.847  20.124  14.024
49131W        W21556  24.119  18.601   3.810
49132W        W21557   6.804  10.915   1.911
49133W        W21558  14.416  10.377  11.179
49134W        W21559  44.630   1.818   3.424
49135W        W21560  33.731  36.323  10.870
49136W        W21561  25.156  44.382   3.297
49137W        W21562   1.807  40.085  11.671
49138W        W21563  11.418  13.121  11.619
49139W        W21564  43.955  39.516  14.018
49140W        W21565  21.510  17.572   0.371
49141W        W21566  12.182  42.829   0.430
49142W        W21567   6.379  32.167  13.005
49143W        W21568  19.648  36.963  12.544
49144W        W21569  26.134   4.005   4.537
49145W        W21570  30.424  20.637  10.670
49146W        W21571  36.473  15.263  12.659
49147W        W21572  34.922  14.143  11.370
49148W        W21573   1.483  41.005  12.835
49149W        W21574   0.062  14.273  12.831
49150W        W21575   6.638  35.986   1.638
49151W        W21576   3.164   8.948   4.582
49152W        W21577  36.247  19.337   0.728
49153W        W21578  30.710  21.555   3.639
49154W        W21579  17.632   3.872   3.381
49155W        W21580  10.222   7.627   1.041
49156W        W21581  19.291  12.291  11.251
49157W        W21582  30.873  36.584  12.035
49158W        W21583  28.218  24.145   4.771
49159W        W21584   5.555  22.400  12.851
49160W        W21585  23.131  11.834   2.677
49161W        W21586  29.550  39.783  11.020
49162W        W21587  13.279  15.154   1.470
49163W        W21588  28.828   7.356   0.802
49164W        W21589   7.891  35.699  10.598
49165W        W21590  26.442  32.658  10.908
49166W        W21591  18.414  14.868   1.808
49167W        W21592  17.662   4.896  12.430
49168W        W21593  24.637  33.647  13.530
49169W        W21594   9.303   4.632  14.288
49170W        W21595  11.252   5.626  11.451
49171W        W21596  20.266   8.779  14.618
49172W        W21597  11.922   5.458  14.017
49173W        W21598  25.687  12.675  12.941
49174W        W21599  20.050  40.629   0.682
49175W        W21600  43.417  24.719   4.853
49176W        W21601  30.996  16.520   1.804
49177W        W21602  34.095  35.028   1.366
49178W        W21603  40.777  21.063   0.756
49179W        W21604  32.035   8.855  12.936
49180W        W21605  39.281  36.390   1.466
49181W        W21606   4.942  37.462   3.681
49182W        W21607  43.955  38.367  10.574
49183W        W21608  17.273  22.125   3.131
49184W        W21609  38.057  24.720   2.358
49185W        W21610  18.685  34.641  14.899
49186W        W21611  20.337   9.227  13.749
49187W        W21612  44.311  32.835  13.420
49188W        W21613  31.881  22.306  10.511
49189W        W21614  13.015   6.274   2.388
49190W        W21615  22.993  21.719   3.239
49191W        W21616   9.206  25.907   3.647
49192W        W21617  42.400  19.489   4.941
49193W        W21618   0.335  40.768   0.973
49194W        W21619  22.977  43.326   0.353
49195W        W21620   1.587  43.991   2.557
49196W        W21621  31.086   1.040  13.905
49197W        W21622  10.772  31.896   1.920
49198W        W21623   9.438  30.988   3.439
49199W        W21624  35.948   3.486   1.983
49200W        W21625  29.538  36.501  14.573
49201W        W21626  42.533  44.851  11.994
49202W        W21627  26.642  43.401   4.679
49203W        W21628  17.339  31.031   1.963
49204W        W21629  43.444  36.062   0.769
49205W        W21630  13.278   1.372   3.223
49206W        W21631   5.085  33.400  14.533
49207W        W21632  15.763   4.429   4.749
49208W        W21633   9.782  16.691  12.971
49209W        W21634   6.248  24.777   1.486
49210W        W21635   4.287   3.486   2.318
49211W        W21636   9.280  43.867  14.716
49212W        W21637  12.855   1.902  14.729
49213W        W21638  29.674  14.728  13.850
49214W        W21639  33.348  27.634   3.666
49215W        W21640   3.846  18.714   0.689
49216W        W21641  41.967  21.780   4.499
49217W        W21642  30.915  11.226  13.383
49218W        W21643  23.517  18.192   0.902
49219W        W21644  44.924   2.304   0.015
49220W        W21645  35.292  18.042   2.806
49221W        W21646  13.833  24.580   5.051
49222W        W21647   1.241   8.385   0.840
49223W        W21648  28.623   8.700   2.752
49224W        W21649  36.260   6.188   3.716
49225W        W21650   8.298  12.755   0.367
49226W        W21651  33.236  41.199  10.021
49227W        W21652  16.018  33.553  13.926
49228W        W21653  44.186  43.489   3.629
49229W        W21654   3.724  40.875   4.088
49230W        W21655  34.312  14.783   0.053
49231W        W21656  26.741   2.424   0.981
49232W        W21657  10.996  18.626   0.075
49233W        W21658  11.478   7.662  13.976
49234W        W21659  28.897  31.095   1.961
49235W        W21660  27.051  34.558  14.049
49236W        W21661  44.876  33.617   2.137
49237W        W21662   9.647  27.564   1.345
49238W        W21663  19.391  33.897   4.836
49239W        W21664   6.211  10.395  11.352
49240W        W21665  43.933  12.799   3.318
49241W        W21666  33.867  39.917  14.789
49242W        W21667  36.046  31.963   3.853
49243W        W21668  30.056  13.945   0.629
49244W        W21669  38.392  40.614   3.319
49245W        W21670  32.641   8.677   2.808
49246W        W21671   8.805  19.670  13.342
49247W        W21672  15.738  39.461   1.281
49248W        W21673  32.404  36.970  14.353
49249W        W21674  17.318   9.617   3.623
49250W        W21675   9.432  33.854   0.246
49251W        W21676   8.811  44.073  12.381
49252W        W21677  14.814  44.776  11.037
49253W        W21678  18.155  10.834   0.971
49254W        W21679  24.089  42.062   3.195
49255W        W21680  12.187  19.274   3.373
49256W        W21681  39.969  36.817  12.486
49257W        W21682   0.506  21.050   2.279
49258W        W21683   3.191  32.007   3.743
49259W        W21684  11.830  24.562  10.234
49260W        W21685  34.694  22.203   0.270
49261W        W21686   7.625  16.146  14.013
49262W        W21687  15.381  26.104  12.685
49263W        W21688  41.381  42.894  13.521
49264W        W21689  10.821  40.938   2.782
49265W        W21690   6.852  36.698   1.265
49266W        W21691  31.330  15.315   4.675
49267W        W21692   9.448  28.669   3.702
49268W        W21693  34.276  39.311  12.215
49269W        W21694  37.005  38.106   2.376
49270W        W21695  17.765  43.443  13.993
49271W        W21696  31.298  23.156  11.844
49272W        W21697   3.038  38.806   3.754
49273W        W21698  14.288  24.556   4.230
49274W        W21699   4.348  37.510  10.706
49275W        W21700   2.927  29.027   2.880
49276W        W21701  38.941  12.185   3.004
49277W        W21702   3.260  22.060  11.177
49278W        W21703   5.736   3.703   1.743
49279W        W21704  13.533  15.114  14.303
49280W        W21705  28.026  10.056   1.839
49281W        W21706   6.729  42.780  12.962
49282W        W21707  40.247  16.327   1.181
49283W        W21708  16.016  17.852   3.082
49284W        W21709  38.623   9.202   0.935
49285W        W21710   1.445  32.403   0.198
49286W        W21711  29.993  15.746  13.000
49287W        W21712  33.441  13.309   3.983
49288W        W21713  10.945  12.216   2.312
49289W        W21714  28.560  11.553  14.385
49290W        W21715  43.770  33.925  11.066
49291W        W21716  37.531   1.557  11.149
49292W        W21717  28.049  34.971  13.877
49293W        W21718   6.438  24.504  10.734
49294W        W21719  43.255  43.448  11.900
49295W        W21720  34.038  39.451   1.926
49296W        W21721   1.731  20.169   0.680
49297W        W21722  13.761  40.305   0.785
49298W        W21723  34.865   9.705   1.434
49299W        W21724  38.476  31.971   2.179
49300W        W21725  32.256  15.234  10.508
49301W        W21726  29.881  41.844  12.630
49302W        W21727  37.007  41.062   3.803
49303W        W21728  19.932   3.766  11.567
49304W        W21729  40.283  10.273  13.012
49305W        W21730  17.310   0.593   1.292
49306W        W21731  21.081   8.437   1.048
49307W        W21732  19.963  34.347   1.506
49308W        W21733   8.410  41.297  11.954
49309W        W21734  31.957   2.056   5.125
49310W        W21735  33.553   2.248  12.800
49311W        W21736  18.037   4.968  11.616
49312W        W21737  17.032  40.188  14.872
49313W        W21738  13.661   1.381  13.836
49314W        W21739  21.155  20.309   4.166
49315W        W21740   7.289   0.394  14.433
49316W        W21741  44.472  33.917   3.703
49317W        W21742  22.715   1.999  10.250
49318W        W21743  17.357  13.610   3.276
49319W        W21744  28.073  29.509   4.539
49320W        W21745   6.660  15.168   3.917
49321W        W21746   1.504  29.157   4.794
49322W        W21747  28.418   6.747   2.868
49323W        W21748  36.432  29.888  10.928
49324W        W21749  41.287  19.164   1.718
49325W        W21750   5.992   7.931   2.371
49326W        W21751  19.712  22.102   2.353
49327W        W21752  16.586   8.313   2.214
49328W        W21753   8.375  33.902   3.550
49329W        W21754  33.334  28.975  10.773
49330W        W21755  11.202  15.841   1.758
49331W        W21756  23.419  31.075  13.079
49332W        W21757  22.333  15.770  13.479
49333W        W21758  21.171  26.748  14.868
49334W        W21759  35.379  24.115  11.458
49335W        W21760  43.889  24.989  13.725
49336W        W21761  39.747  41.941  11.204
49337W        W21762   6.814  35.062  14.450
49338W        W21763  29.625  16.538   0.235
49339W        W21764  23.493  32.252   9.216
49340W        W21765  18.753  36.539  12.689
49341W        W21766  40.508  28.035   4.103
49342W        W21767  31.979  17.171   2.279
49343W        W21768  13.310  25.888  13.047
49344W        W21769  27.997  11.746   4.508
49345W        W21770  10.783  16.429  13.290
49346W        W21771  37.129  39.615  13.928
49347W        W21772  33.948   5.663   1.762
49348W        W21773  35.358   5.798   0.956
49349W        W21774  26.720  28.704  14.449
49350W        W21775  32.824  42.388  14.021
49351W        W21776   3.421  22.132   2.693
49352W        W21777  11.312  15.377   4.512
49353W        W21778  33.016   1.992  14.910
49354W        W21779  11.855  20.691  13.374
49355W        W21780  14.813  31.857  12.215
49356W        W21781  30.176  14.114   1.640
49357W        W21782  32.634  19.671  11.586
49358W        W21783   6.968  24.638  12.184
49359W        W21784  18.149   4.127  12.571
49360W        W21785  16.329  38.566   2.190
49361W        W21786   9.780  34.612  13.789
49362W        W21787  31.334  39.571  10.958
49363W        W21788  15.386   5.871  13.944
49364W        W21789   2.787   0.103   4.307
49365W        W21790  26.650   7.967  13.940
49366W        W21791  29.522  16.688  12.933
49367W        W21792  26.198  33.098  14.937
49368W        W21793  26.538  34.292   4.899
49369W        W21794  34.932   1.056  12.461
49370W        W21795  24.023  32.162  11.096
49371W        W21796   5.975  38.759  11.517
49372W        W21797   8.297   5.719   1.311
49373W        W21798   6.163  13.767  11.523
49374W        W21799  43.782  28.382  12.844
49375W        W21800  40.127  30.871  10.781
49376W        W21801  31.886  36.968  14.416
49377W        W21802  15.737  19.003  13.417
49378W        W21803  25.537  24.429   3.898
49379W        W21804  25.740  21.261  12.897
49380W        W21805   9.832  21.640   3.090
49381W        W21806   6.980  24.029   2.754
49382W        W21807   7.292  17.372  14.461
49383W        W21808  44.977  21.240   4.679
49384W        W21809   9.429   2.241  10.929
49385W        W21810  28.827  23.362   5.197
49386W        W21811  10.675  16.540  11.047
49387W        W21812  18.696  35.391   3.153
49388W        W21813  38.886  32.548   3.744
49389W        W21814  10.561  35.054   2.393
49390W        W21815  13.238   4.507  10.456
49391W        W21816  43.360   6.973  14.274
49392W        W21817  39.073  41.066  11.239
49393W        W21818  39.086  21.489  11.627
49394W        W21819  38.820  38.418   1.716
49395W        W21820  27.514  14.263  14.788
49396W        W21821  21.729  11.982   3.922
49397W        W21822  19.301   6.502  13.924
49398W        W21823  25.676  22.757  11.601
49399W        W21824  21.263  28.272  14.625
49400W        W21825  10.479  39.432   4.154
49401W        W21826  12.878  29.873   1.214
49402W        W21827   7.994  12.833   2.550
49403W        W21828  39.400  33.422  12.420
49404W        W21829  32.159  11.795   0.466
49405W        W21830  41.663  11.128  14.514
49406W        W21831  15.736  12.604  14.355
49407W        W21832  30.063  10.700  13.420
49408W        W21833  38.820  23.516  13.159
49409W        W21834  40.903  36.174  14.726
49410W        W21835   8.981  16.549   0.345
49411W        W21836   1.230  11.700   0.351
49412W        W21837  41.374  42.848   0.982
49413W        W21838  40.080  32.155  11.871
49414W        W21839  16.626  25.368   4.938
49415W        W21840  14.046  43.741  12.063
49416W        W21841  29.509  42.795  14.355
49417W        W21842  27.874   6.202  11.225
49418W        W21843  39.428  39.751  11.563
49419W        W21844  28.053  27.380   3.639
49420W        W21845  42.526   1.901   4.275
49421W        W21846   5.340   4.717   1.494
49422W        W21847  28.528  34.498  12.854
49423W        W21848  33.434  37.548  13.928
49424W        W21849   1.530  39.490   3.713
49425W        W21850  35.309  43.906  14.993
49426W        W21851  43.822  18.682   0.245
49427W        W21852   1.787   9.943   4.258
49428W        W21853  23.482  36.686  12.493
49429W        W21854  15.225  10.226   2.685
49430W        W21855  29.034  36.378   1.733
49431W        W21856   3.724  36.025   1.487
49432W        W21857   5.345  27.961   4.059
49433W        W21858   3.699  23.188   4.711
49434W        W21859  29.612   6.309   4.586
49435W        W21860  12.198  33.579  13.895
49436W        W21861  20.207   9.499  10.292
49437W        W21862  27.304  20.991  12.658
49438W        W21863  14.306  41.445  12.519
49439W        W21864  42.918   4.475  14.348
49440W        W21865  14.555   9.674  13.856
49441W        W21866  31.202  13.287   2.493
49442W        W21867   6.417  41.952  11.628
49443W        W21868  14.244  38.042   4.897
49444W        W21869  15.595  21.070   4.076
49445W        W21870  18.640  21.318   1.770
49446W        W21871  35.456  40.134   1.319
49447W        W21872  36.969  21.947   0.804
49448W        W21873  13.892  43.942  13.776
49449W        W21874  38.037  24.038   4.547
49450W        W21875  31.498  27.198   2.958
49451W        W21876  23.555  23.192  14.575
49452W        W21877  40.305  11.045   1.008
49453W        W21878  17.062  13.748   2.235
49454W        W21879  18.461   9.654   1.561
49455W        W21880  14.895   4.360  12.365
49456W        W21881  18.176  23.488   2.621
49457W        W21882  25.485   4.847   4.593
49458W        W21883  16.588  30.617   4.142
49459W        W21884  32.359  34.401   4.150
49460W        W21885   8.287   7.284   1.236
49461W        W21886  44.021  26.625   3.641
49462W        W21887   9.222  43.999   2.257
49463W        W21888  14.751  39.902  10.777
49464W        W21889  11.601  31.600   3.162
49465W        W21890  40.066  25.493   1.868
49466W        W21891  38.198  32.171   2.597
49467W        W21892  40.030  33.047   2.620
49468W        W21893  22.003  29.158  11.585
49469W        W21894  29.402  22.011   1.368
49470W        W21895   4.713  29.646   0.774
49471W        W21896  32.610  27.978   0.903
49472W        W21897   2.743  19.831  12.299
49473W        W21898   3.279   7.174  14.435
49474W        W21899  26.101  13.115  10.809
49475W        W21900  31.723  19.930   2.773
49476W        W21901   0.274  43.773  14.871
49477W        W21902  13.031  37.663  11.024
49478W        W21903  32.700  17.634  14.739
49479W        W21904  30.573   1.166  10.605
49480W        W21905  39.356  27.420  14.290
49481W        W21906  31.431   4.743  14.897
49482W        W21907   1.785  37.552  12.445
49483W        W21908  44.463  14.277  14.415
49484W        W21909  35.261  40.418   4.631
49485W        W21910  42.724   9.959   1.694
49486W        W21911  19.209  41.736   2.806
49487W        W21912  43.019  16.190  11.576
49488W        W21913   4.950  25.978  13.489
49489W        W21914  19.634  42.382  11.182
49490W        W21915  32.706  13.650  13.328
49491W        W21916  38.631  16.832  14.792
49492W        W21917  13.292  44.675  13.440
49493W        W21918   1.253   6.505   4.217
49494W        W21919   5.263  17.328  10.269
49495W        W21920  31.575   0.919  14.838
49496W        W21921   6.315  44.026  12.375
49497W        W21922   8.257  40.521   3.995
49498W        W21923  31.462   8.256   4.681
49499W        W21924   2.996  38.488   4.368
49500W        W21925  14.837  44.622   0.943
49501W        W21926   0.222   6.810  12.493
49502W        W21927   4.204  24.550  13.953
49503W        W21928   2.074  40.160   2.374
49504W        W21929  34.831  32.579  12.069
49505W        W21930  44.793  37.512  13.892
49506W        W21931  28.206  17.070   2.795
49507W        W21932  11.863   8.909   0.957
49508W        W21933  20.672  20.218  12.154
49509W        W21934  28.220  16.729  14.299
49510W        W21935  20.140  31.387   3.744
49511W        W21936  15.392  38.885  13.534
49512W        W21937   4.673  28.587   3.527
49513W        W21938   8.954  27.895   3.980
49514W        W21939  27.165  22.498   4.289
49515W        W21940  12.187  17.362   0.505
49516W        W21941   7.460   6.675  12.001
49517W        W21942  24.144   6.140   2.627
49518W        W21943  12.215  17.167   4.374
49519W        W21944  23.720  10.943  14.507
49520W        W21945  43.877  26.084   1.888
49521W        W21946   1.905  39.073  13.129
49522W        W21947  11.159   1.257  14.945
49523W        W21948  28.887  27.263   2.377
49524W        W21949  32.786  37.200   3.274
49525W        W21950  40.837  14.143   1.901
49526W        W21951  14.512  42.451   2.381
49527W        W21952   6.166  17.141   4.168
49528W        W21953  31.106  31.476   3.189
49529W        W21954  34.407   6.949   3.359
49530W        W21955  26.942   4.717  12.029
49531W        W21956   5.999  39.261  14.774
49532W        W21957  40.589  20.200   1.703
49533W        W21958   1.063  35.015  14.059
49534W        W21959   9.277   1.421  10.700
49535W        W21960  16.191  36.284  12.997
49536W        W21961  20.596   5.813   0.485
49537W        W21962  20.809  30.144  11.735
49538W        W21963  39.073   0.724  13.929
49539W        W21964   4.509   4.517   2.612
49540W        W21965  16.672  40.250   4.747
49541W        W21966  34.199  36.691  10.984
49542W        W21967  12.203  32.358  11.997
49543W        W21968  35.733  11.737   0.414
49544W        W21969  18.650  18.316   0.360
49545W        W21970  27.977  22.064   3.887
49546W        W21971  10.920  23.633  10.103
49547W        W21972   1.410  10.351  10.440
49548W        W21973   4.723  39.704  13.432
49549W        W21974   3.243   2.302  10.998
49550W        W21975   8.282  36.970   3.045
49551W        W21976   7.443  35.120  12.073
49552W        W21977  20.298   9.955  12.532
49553W        W21978   9.244  42.741  13.627
49554W        W21979  36.893   0.233   4.113
49555W        W21980  35.931  37.034   3.768
49556W        W21981  28.877  42.373  12.985
49557W        W21982  32.447  38.244  14.862
49558W        W21983   5.802   5.748   2.186
49559W        W21984   2.312  29.159   2.235
49560W        W21985  35.233  29.994   4.599
49561W        W21986  44.698  15.059   3.997
49562W        W21987   9.407  29.406   2.167
49563W        W21988  40.535   8.676   1.749
49564W        W21989  36.073  37.819  12.177
49565W        W21990  30.066  42.697   1.838
49566W        W21991  40.449  13.601   3.675
49567W        W21992  30.375  44.599  10.705
49568W        W21993  15.295  36.820  10.805
49569W        W21994  35.177  10.200  10.109
49570W        W21995  37.204  21.523   4.063
49571W        W21996   8.825  19.230   4.355
49572W        W21997   6.653  26.128  12.393
49573W        W21998  14.764   2.357   5.084
49574W        W21999  26.643  30.503  14.884
49575W        W22000  19.108  40.014  10.608
49576W        W22001  15.279  39.250  12.353
49577W        W22002  33.993  40.915   4.265
49578W        W22003   8.462  28.908   1.304
49579W        W22004   5.398  35.921  11.916
49580W        W22005  24.375  16.996   2.373
49581W        W22006  16.598  22.667   2.105
49582W        W22007  39.069   2.958   3.024
49583W        W22008  42.448   6.368   3.697
49584W        W22009  22.714  16.381  10.181
49585W        W22010  33.907   1.089  13.802
49586W        W22011  38.991  33.852   1.779
49587W        W22012   2.321  21.186   1.488
49588W        W22013   7.003  24.637  12.813
49589W        W22014  34.983  34.564   3.250
49590W        W22015  15.106   7.168   4.312
49591W        W22016  11.270   2.399   4.164
49592W        W22017  43.494  12.662  13.582
49593W        W22018  39.861   2.927  13.824
49594W        W22019  35.564  24.171  12.630
49595W        W22020  37.514  19.272  12.551
49596W        W22021  21.580   0.340  11.486
49597W        W22022   6.770   2.774  14.443
49598W        W22023  25.182  22.172   3.755
49599W        W22024  33.984  27.621   3.198
49600W        W22025  34.362  36.898   4.185
49601W        W22026  26.981  19.631  12.416
49602W        W22027  22.483  23.722   2.780
49603W        W22028   8.641  15.181  14.446
49604W        W22029   7.939  34.446  14.692
49605W        W22030  32.134  36.041   1.846
49606W        W22031  33.114   2.542   4.186
49607W        W22032   6.359  40.257  14.941
49608W        W22033  44.833  44.574  12.998
49609W        W22034   4.790   1.440  14.466
49610W        W22035  10.153  32.807   3.825
49611W        W22036  36.373  29.565   4.439
49612W        W22037  16.623  20.213  13.998
49613W        W22038  10.679  18.366   4.162
49614W        W22039  38.318   4.250  12.548
49615W        W22040  28.565  19.546  13.999
49616W        W22041  42.936  42.732   0.731
49617W        W22042  28.218  22.257  13.760
49618W        W22043  14.896  14.928  11.966
49619W        W22044  12.657  31.290  11.447
49620W        W22045  26.034  13.805   1.399
49621W        W22046  32.552  26.781  13.857
49622W        W22047  38.718   9.226   1.461
49623W        W22048  35.389  11.130   1.206
49624W        W22049  42.515   0.541   0.237
49625W        W22050  25.720  12.071  10.620
49626W        W22051   4.517   0.792   4.395
49627W        W22052  29.134   7.402  11.555
49628W        W22053   6.566  12.368  11.170
49629W        W22054  16.375  25.963  12.860
49630W        W22055  27.574  28.626   1.211
49631W        W22056  22.604  15.511  10.433
49632W        W22057  38.960   6.685  13.322
49633W        W22058   5.359  19.110   1.244
49634W        W22059   9.080  14.583  10.624
49635W        W22060  39.773  25.761  14.075
49636W        W22061  15.263  31.891   5.173
49637W        W22062   5.045  38.308  14.848
49638W        W22063  22.578  37.146   5.143
49639W        W22064  18.188  14.126  13.055
49640W        W22065   9.376  11.767   1.958
49641W        W22066   1.410  37.916  10.345
49642W        W22067  37.032  26.487   2.298
49643W        W22068  38.301  16.517  10.415
49644W        W22069  21.518   9.877   1.468
49645W        W22070  43.844  35.830   3.133
49646W        W22071  25.576   6.995  10.038
49647W        W22072  40.530  40.935   3.830
49648W        W22073  44.343  38.914   1.655
49649W        W22074  10.832  40.782   3.300
49650W        W22075  10.825  25.574  11.430
49651W        W22076   5.860  16.017   3.744
49652W        W22077   6.819  29.910   0.488
49653W        W22078  23.498  35.864   1.314
49654W        W22079  44.887  25.951   3.334
49655W        W22080  34.451  32.637   3.315
49656W        W22081   2.502  13.621   1.752
49657W        W22082  30.954  36.711   0.931
49658W        W22083   0.303  11.085   1.357
49659W        W22084  11.183  39.238  11.560
49660W        W22085   8.368  12.698  10.724
49661W        W22086   6.226  28.232  13.857
49662W        W22087  24.723  17.759  11.592
49663W        W22088  26.246   0.716  13.979
49664W        W22089   4.717  43.791   0.873
49665W        W22090  39.811  12.197   1.453
49666W        W22091   7.816   6.257  14.033
49667W        W22092   6.100   4.407  12.691
49668W        W22093  18.035  41.564   2.296
49669W        W22094  40.462  29.982   4.906
49670W        W22095   6.911   0.907  13.984
49671W        W22096   4.359   8.438   4.789
49672W        W22097  16.146   2.093   2.441
49673W        W22098  10.380  23.023   2.288
49674W        W22099  23.056  40.244  12.509
49675W        W22100   0.783  31.623  11.070
49676W        W22101  12.091  37.571  14.422
49677W        W22102  37.259  27.764  12.106
49678W        W22103   4.348  37.114  11.130
49679W        W22104  23.822   6.779   3.158
49680W        W22105  19.776  42.922   2.731
49681W        W22106  10.727  12.983   3.677
49682W        W22107   6.410  35.606   4.557
49683W        W22108  33.408  10.785   0.350
49684W        W22109  10.253  34.146   4.775
49685W        W22110  25.468  43.002  14.715
49686W        W22111  27.652  25.025   3.825
49687W        W22112  17.235  13.963  14.796
49688W        W22113  14.990   4.957  11.018
49689W        W22114  32.528  15.943   1.233
49690W        W22115  16.217  18.798  12.329
49691W        W22116   7.356  40.607   4.305
49692W        W22117  22.363  12.045   1.825
49693W        W22118  41.349  16.341   3.220
49694W        W22119  29.075  27.907   1.686
49695W        W22120  30.681  17.678   2.878
49696W        W22121   5.714  34.374  12.625
49697W        W22122  18.654  24.569   2.683
49698W        W22123  24.940  27.007   2.815
49699W        W22124   8.276  42.477  14.401
49700W        W22125  29.135  42.679   3.198
49701W        W22126  28.623  20.596  11.048
49702W        W22127  11.341  22.020   0.468
49703W        W22128  31.078   7.372   1.755
49704W        W22129   6.249  11.663  10.994
49705W        W22130   0.746  39.051  11.248
49706W        W22131   4.742  42.938   2.000
49707W        W22132   7.998  38.808  10.666
49708W        W22133  43.837  11.755   1.337
49709W        W22134  42.047  38.550   4.278
49710W        W22135  11.795  19.811  13.447
49711W        W22136  28.685  38.043  14.593
49712W        W22137  12.733   0.393   0.798
49713W        W22138  33.778  17.109   0.923
49714W        W22139   3.428  30.208  10.374
49715W        W22140   2.719   0.776  12.021
49716W        W22141  16.276  26.255   2.760
49717W        W22142   5.367  36.628  13.543
49718W        W22143  41.340   7.881   4.172
49719W        W22144  24.966  41.294  12.713
49720W        W22145  24.328  40.278   4.150
49721W        W22146  17.102  34.919   2.288
49722W        W22147   4.005  12.248  12.041
49723W        W22148   1.544   2.240   4.644
49724W        W22149  14.506  36.910  11.180
49725W        W22150   1.339   0.503   0.888
49726W        W22151   0.748   6.283  11.902
49727W        W22152   9.409  27.214  13.791
49728W        W22153  14.320  38.464  14.254
49729W        W22154  37.907  30.069   4.887
49730W        W22155  35.519  42.106  14.425
49731W        W22156   7.781  21.567   0.803
49732W        W22157  27.187  32.976   3.322
49733W        W22158  11.243  16.063  13.143
49734W        W22159  30.978  32.051   2.209
49735W        W22160   4.272  43.733   1.600
49736W        W22161  32.201  31.159   1.773
49737W        W22162  13.679   8.674   3.656
49738W        W22163  20.047  14.301  11.182
49739W        W22164  16.852  27.084   4.062
49740W        W22165  27.100  35.402   2.679
49741W        W22166  27.248  36.509   0.190
49742W        W22167  19.507   7.470   0.238
49743W        W22168  40.851  35.804   3.094
49744W        W22169  23.108  16.241   0.283
49745W        W22170  36.621  43.430   2.831
49746W        W22171  13.268   0.963   3.594
49747W        W22172  32.126  13.631   1.413
49748W        W22173   5.141  42.899  11.206
49749W        W22174  27.265  43.896   0.048
49750W        W22175   2.211   4.689  12.465
49751W        W22176  28.583  27.927  11.250
49752W        W22177   5.003  43.460  13.115
49753W        W22178  32.816  17.751  13.059
49754W        W22179   6.163   3.958  12.979
49755W        W22180   6.707  44.744   0.497
49756W        W22181  11.852  23.773  12.101
49757W        W22182  28.230  41.363   9.746
49758W        W22183  10.664  38.281   2.253
49759W        W22184  36.190   9.699  13.452
49760W        W22185   0.553  44.699   3.212
49761W        W22186  16.030  25.393   2.845
49762W        W22187  44.861   8.694  12.852
49763W        W22188   0.278  44.312  13.920
49764W        W22189  28.619  37.014   2.151
49765W        W22190  37.544  41.479   1.897
49766W        W22191  18.833  39.313   1.469
49767W        W22192  27.474  10.705  10.691
49768W        W22193   5.902  21.454   2.296
49769W        W22194  37.331  22.666   1.051
49770W        W22195  28.991   2.941  14.103
49771W        W22196  37.525  17.887  11.173
49772W        W22197   9.044  40.805   2.323
49773W        W22198  17.749   5.662  14.982
49774W        W22199  43.377  42.357  14.842
49775W        W22200   9.247  29.283  12.442
49776W        W22201   2.001  18.351  13.847
49777W        W22202  17.848  41.876   4.037
49778W        W22203   2.830   7.662   1.871
49779W        W22204  17.551  18.855   1.852
49780W        W22205  16.765  42.779   2.458
49781W        W22206   9.938  18.517   1.019
49782W        W22207  36.448  24.595  10.751
49783W        W22208  30.211   5.869  11.139
49784W        W22209  28.917  16.121  12.337
49785W        W22210  12.225  30.696  12.541
49786W        W22211  22.645  42.449  10.442
49787W        W22212  35.051  23.709  13.121
49788W        W22213  22.526  36.920  12.209
49789W        W22214   1.815  39.329  12.017
49790W        W22215  30.100  14.440  13.990
49791W        W22216  17.436   8.045   2.849
49792W        W22217   3.216  23.707  14.724
49793W        W22218   5.328   3.559  13.308
49794W        W22219  24.474  38.104  13.460
49795W        W22220  20.709  11.218  12.081
49796W        W22221  23.795  10.013  11.815
49797W        W22222  40.049  29.106  13.877
49798W        W22223  17.817  20.042   4.101
49799W        W22224  24.363   6.206  13.898
49800W        W22225  26.412  38.543   3.627
49801W        W22226  38.806  22.766  10.203
49802W        W22227  40.017  34.078   2.685
49803W        W22228  26.697  32.499  14.373
49804W        W22229  14.343  22.421   5.450
49805W        W22230  39.254  24.515   2.881
49806W        W22231   5.460  29.138  14.895
49807W        W22232   1.305  27.770  14.804
49808W        W22233  41.911  17.256   1.962
49809W        W22234  30.427  43.235  11.616
49810W        W22235  21.087  37.644  10.673
49811W        W22236  43.450  30.205   1.152
49812W        W22237  42.549  13.151   0.578
49813W        W22238  15.182  38.596   4.095
49814W        W22239  39.898  28.608   1.654
49815W        W22240  22.760   3.709   4.535
49816W        W22241  12.760  30.628  12.459
49817W        W22242   2.805   9.955  12.117
49818W        W22243  34.346  22.175   4.102
49819W        W22244  40.143  33.091  11.871
49820W        W22245  22.119  35.646  13.104
49821W        W22246  22.001   5.682   0.880
49822W        W22247  29.090  12.598  10.494
49823W        W22248  40.871   6.748  14.494
49824W        W22249  10.564  29.087   4.167
49825W        W22250  17.010  29.362   2.324
49826W        W22251  31.110  28.610  13.112
49827W        W22252  35.535   2.963  13.212
49828W        W22253  19.528  22.533  10.556
49829W        W22254  15.594  41.559  14.403
49830W        W22255  30.309   7.209   2.868
49831W        W22256  39.467   0.274  11.638
49832W        W22257  16.375  17.290   3.854
49833W        W22258  25.282  39.865  11.556
49834W        W22259  33.676  17.227   2.142
49835W        W22260  23.398   9.760   4.672
49836W        W22261  27.388  42.351  11.054
49837W        W22262   5.264   2.779  14.638
49838W        W22263  24.700  19.480   5.092
49839W        W22264  30.974  17.177   4.500
49840W        W22265   4.800  26.452   3.343
49841W        W22266   4.926  29.379  14.068
49842W        W22267  33.572  28.479  10.849
49843W        W22268  42.890  15.782  13.411
49844W        W22269  21.972  28.956  13.597
49845W        W22270  34.337  23.259   3.736
49846W        W22271  12.318  33.985  10.649
49847W        W22272  11.680  30.547  14.654
49848W        W22273  15.639  15.374   0.271
49849W        W22274  44.298  22.266   1.771
49850W        W22275  30.005   8.306  10.716
49851W        W22276  27.565   8.629   4.539
49852W        W22277  32.790   1.836   4.870
49853W        W22278  33.437   7.902  13.096
49854W        W22279  42.553  32.407  10.548
49855W        W22280   4.525   0.283  11.124
49856W        W22281  29.992  26.036   0.391
49857W        W22282   1.003  13.330   3.321
49858W        W22283  25.942  31.540  10.666
49859W        W22284  23.203   2.936   2.066
49860W        W22285   4.713  28.161  10.250
49861W        W22286  25.750  37.506  12.889
49862W        W22287  44.791   4.061  12.395
49863W        W22288  12.194  40.381  14.231
49864W        W22289  14.709  28.079  12.599
49865W        W22290  35.226   1.382   3.278
49866W        W22291  10.823  14.420   5.314
49867W        W22292  35.019   1.410   1.852
49868W        W22293  20.173  31.513  10.767
49869W        W22294  23.640  15.997   4.252
49870W        W22295   4.255  32.082  10.648
49871W        W22296  28.625  29.402  14.020
49872W        W22297  26.599  22.023   4.113
49873W        W22298  11.694  37.031  12.924
49874W        W22299  10.105  16.087   0.754
49875W        W22300  41.818  37.156  14.132
49876W        W22301  37.735  37.931   3.617
49877W        W22302   3.823  38.103  13.072
49878W        W22303  43.844  29.889   4.168
49879W        W22304  20.275  20.185   0.797
49880W        W22305  30.515   4.240  13.490
49881W        W22306  39.547  38.601   4.799
49882W        W22307  34.532   8.297   3.607
49883W        W22308  27.499  25.570  14.867
49884W        W22309  34.955  17.084  14.414
49885W        W22310   4.262  21.874  13.870
49886W        W22311  40.307  37.871  10.965
49887W        W22312  11.649  13.918   0.826
49888W        W22313  14.604  25.503  11.581
49889W        W22314  36.291  30.608  12.945
49890W        W22315  18.753  40.365   1.167
49891W        W22316  14.504  14.791  14.386
49892W        W22317  36.986  12.844   4.078
49893W        W22318  18.843  27.448   3.844
49894W        W22319  20.523   2.387   0.359
49895W        W22320  13.064  28.237  12.958
49896W        W22321  20.945  17.209   5.112
49897W        W22322  35.546   8.782   5.441
49898W        W22323  13.817  14.396   0.352
49899W        W22324  13.311  15.058  11.949
49900W        W22325  24.218  31.567   1.040
49901W        W22326  31.870   2.194  11.617
49902W        W22327  25.416  33.548  14.762
49903W        W22328   5.174  19.722   3.510
49904W        W22329  34.520  43.295   3.629
49905W        W22330   7.374  18.111  12.566
49906W        W22331  19.843  35.058   0.379
49907W        W22332  13.787  19.831   2.854
49908W        W22333  14.524  39.406  10.640
49909W        W22334  33.521  12.978   0.236
49910W        W22335  30.196  15.815   0.318
49911W        W22336  23.620  10.122  14.818
49912W        W22337   4.116   0.678  14.796
49913W        W22338  28.801  33.207  14.253
49914W        W22339   8.607  32.619  14.318
49915W        W22340  16.739   9.472  12.093
49916W        W22341  21.087   0.503  14.026
49917W        W22342  12.429   5.173   1.512
49918W        W22343  13.237  25.199  10.787
49919W        W22344   0.764  31.225   2.993
49920W        W22345  44.689   4.887   1.990
49921W        W22346  18.601  37.140   4.368
49922W        W22347  18.689  14.291   3.083
49923W        W22348  42.326  13.083  13.847
49924W        W22349  12.999  19.777  12.521
49925W        W22350   5.374  21.491  14.285
49926W        W22351  16.688  22.267   2.931
49927W        W22352   6.230  38.402   1.981
49928W        W22353  24.351  39.258  11.890
49929W        W22354  41.674  40.369  10.759
49930W        W22355  17.683  16.136  12.149
49931W        W22356   0.704   4.726  14.854
49932W        W22357  41.543  16.583  13.378
49933W        W22358  25.056  21.144  12.074
49934W        W22359  30.872  42.485  11.614
49935W        W22360  15.031   3.063   4.628
49936W        W22361  28.207  32.440  12.983
49937W        W22362  22.608  28.533   4.686
49938W        W22363   3.349  38.378   0.247
49939W        W22364  33.890   8.944   2.077
49940W        W22365  10.649   3.840  12.552
49941W        W22366  34.509  29.223  12.010
49942W        W22367   7.158  21.322   2.695
49943W        W22368   5.833  11.407   4.869
49944W        W22369  23.666  23.987  14.354
49945W        W22370  29.264  30.435  13.988
49946W        W22371  17.686  43.540   3.638
49947W        W22372  38.512  12.908   2.651
49948W        W22373  27.371  39.033  11.637
49949W        W22374  29.148  28.165   2.172
49950W        W22375  38.211   5.971   3.752
49951W        W22376  30.473   8.409   0.856
49952W        W22377  24.245  17.622   4.939
49953W        W22378   4.785  21.210   1.783
49954W        W22379  16.965  38.437   3.742
49955W        W22380  34.851  39.056  14.499
49956W        W22381   1.864  21.734  11.138
49957W        W22382  27.551  12.086   0.530
49958W        W22383  15.606  17.647  10.761
49959W        W22384  14.548  16.395   4.225
49960W        W22385  16.078  39.582  12.081
49961W        W22386  27.188  21.652   3.764
49962W        W22387  19.523   4.221  14.319
49963W        W22388  10.631  43.759   1.428
49964W        W22389  18.441   0.683  14.551
49965W        W22390  30.563  34.496   1.713
49966W        W22391  37.513  26.944  14.257
49967W        W22392  20.631  18.345  10.709
49968W        W22393  34.102  23.107  11.187
49969W        W22394   5.304   1.942  14.021
49970W        W22395  24.530  31.893   4.894
49971W        W22396  16.089  37.418   3.615
49972W        W22397  38.057   3.477  11.503
49973W        W22398   3.894  43.933   4.512
49974W        W22399  22.251   5.326   4.535
49975W        W22400   4.236   9.613  14.904
49976W        W22401  41.472   9.773   2.185
49977W        W22402  37.884  24.568   4.510
49978W        W22403  43.481  22.808  14.443
49979W        W22404  21.403  32.450  13.802
49980W        W22405  31.960  28.060  11.119
49981W        W22406  32.376  27.865  10.308
49982W        W22407  32.471  38.005   2.422
49983W        W22408  12.108   6.136  13.604
49984W        W22409  35.049  13.723   2.825
49985W        W22410  26.206  18.089  10.835
49986W        W22411  30.094   6.120   4.586
49987W        W22412   0.435  13.252  10.720
49988W        W22413  28.157  40.207  14.482
49989W        W22414  21.183  40.054   0.375
49990W        W22415   4.167   2.913   3.159
49991W        W22416  44.011  18.188   0.931
49992W        W22417  18.514  36.186   2.743
49993W        W22418   7.472  18.066  12.045
49994W        W22419  17.021  19.982  12.857
49995W        W22420  32.888  35.305  11.686
49996W        W22421  37.960  19.798   1.979
49997W        W22422  33.384  16.155  10.376
49998W        W22423  33.699  25.761  12.091
49999W        W22424  19.145  19.566  13.521
50000W        W22425  20.227  12.357   2.806
50001W        W22426  13.263  34.830  11.689
50002W        W22427   9.391  35.366   3.682
50003W        W22428  24.466  24.840  12.470
50004W        W22429  17.599  15.046   2.671
50005W        W22430  10.204  10.318   3.122
50006W        W22431  36.408  16.575  11.629
50007W        W22432   2.939  17.700   4.736
50008W        W22433   9.284  44.325   3.793
50009W        W22434   1.736  29.479  10.681
50010W        W22435   5.351   1.750  13.561
50011W        W22436   3.853  23.712   3.354
50012W        W22437  29.907  24.180  11.671
50013W        W22438  36.749  13.208  11.993
50014W        W22439   2.394  19.523  11.056
50015W        W22440  41.489  44.030  14.553
50016W        W22441  21.218  15.833  12.444
50017W        W22442  26.144  32.033  10.579
50018W        W22443  16.734  24.240  13.825
50019W        W22444  19.490  43.289  11.537
50020W        W22445  15.846  24.386   4.859
50021W        W22446   0.954  22.247  10.453
50022W        W22447   9.115  31.391   4.674
50023W        W22448  10.822  21.252   2.183
50024W        W22449   3.367   3.766   0.406
50025W        W22450  16.905  30.101  13.573
50026W        W22451  26.771   4.739  10.668
50027W        W22452   6.402   7.510  11.531
50028W        W22453   1.281   6.457  13.516
50029W        W22454  30.294  22.831  14.751
50030W        W22455  10.871  27.445   0.017
50031W        W22456  43.050  39.100   3.819
50032W        W22457  19.124   5.714   2.643
50033W        W22458  24.215  38.528   1.420
50034W        W22459  24.175   6.182   4.573
50035W        W22460  40.017  34.625   2.705
50036W        W22461  20.601  28.401   1.450
50037W        W22462  43.400  35.382  10.500
50038W        W22463  18.218   1.837   1.578
50039W        W22464  42.527  40.399  11.038
50040W        W22465  21.691  43.511   4.803
50041W        W22466   2.040  12.952  11.848
50042W        W22467   7.185  19.336  14.322
50043W        W22468   7.827  11.892   1.313
50044W        W22469   5.156   8.611  12.810
50045W        W22470   4.021  33.943   0.288
50046W        W22471  15.491  18.815   3.225
50047W        W22472  20.794  27.933   1.390
50048W        W22473   5.269  37.300  12.312
50049W        W22474  34.116  10.742   0.892
50050W        W22475  11.169  41.816  12.878
50051W        W22476  16.166  39.435   2.252
50052W        W22477  15.309  20.537  13.963
50053W        W22478   6.642  15.878  11.677
50054W        W22479   2.018   2.432   0.233
50055W        W22480   8.337  33.370   3.547
50056W        W22481   4.969   0.439  13.859
50057W        W22482  22.202  16.467  14.289
50058W        W22483  40.400  19.177  14.948
50059W        W22484   5.385   0.814   1.181
50060W        W22485  19.142  31.594  13.965
50061W        W22486  29.981  13.633  12.802
50062W        W22487  20.160   2.891   1.010
50063W        W22488  23.322   2.511   0.923
50064W        W22489  25.637   8.726   2.003
50065W        W22490  36.527  42.843  10.878
50066W        W22491  35.470  28.743  13.484
50067W        W22492  36.780   0.605  13.243
50068W        W22493  34.856  15.602   4.228
50069W        W22494  37.154  30.784  11.933
50070W        W22495  43.568  25.647  13.471
50071W        W22496   0.415   8.079  11.808
50072W        W22497  39.332  18.647  11.834
50073W        W22498  17.320  26.535  11.543
50074W        W22499  40.898  33.925  11.042
50075W        W22500   8.224   6.943   0.303
50076W        W22501  34.044  44.762   0.755
50077W        W22502   3.763  11.807  10.013
50078W        W22503  28.153  22.195   5.250
50079W        W22504  31.458  12.323  13.786
50080W        W22505  11.754  15.285   2.819
50081W        W22506   6.931   5.653   3.305
50082W        W22507  43.038  19.444  11.198
50083W        W22508  37.163  13.175  13.772
50084W        W22509   2.846  13.372   2.804
50085W        W22510  21.227   6.166  10.803
50086W        W22511  36.625  29.622   3.571
50087W        W22512  36.992  22.982  11.510
50088W        W22513  31.458  18.570   4.043
50089W        W22514  39.641  17.377   2.388
50090W        W22515  23.266  42.170  13.394
50091W        W22516  42.005  30.659  14.140
50092W        W22517  14.111   1.164   0.741
50093W        W22518  29.637   9.664  14.073
50094W        W22519   8.688   0.270  10.738
50095W        W22520   9.524   4.946   2.355
50096W        W22521  20.958  29.474   4.516
50097W        W22522  20.975  17.621   3.774
50098W        W22523  43.823   3.880  12.231
50099W        W22524   4.539  18.728   1.233
50100W        W22525  18.629  40.464   4.579
50101W        W22526  22.680   3.175   0.751
50102W        W22527  40.996   1.756   4.989
50103W        W22528  36.565   0.665   4.186
50104W        W22529  44.982  27.138  14.313
50105W        W22530  37.876  13.524  11.346
50106W        W22531  21.294  42.746   0.976
50107W        W22532  10.216  40.661  14.391
50108W        W22533  20.470  18.736  11.147
50109W        W22534  11.034   2.897   1.653
50110W        W22535  11.177  22.512   5.419
50111W        W22536  27.039  25.720  13.021
50112W        W22537   9.132  35.863   0.590
50113W        W22538  11.212  23.260  14.469
50114W        W22539  42.874  37.547   0.423
50115W        W22540   0.354  37.384   2.726
50116W        W22541  15.882  19.941   3.661
50117W        W22542  19.299  28.869   2.399
50118W        W22543   1.137  34.509  13.910
50119W        W22544  40.414  19.576   1.315
50120W        W22545  21.618  34.583   3.329
50121W        W22546  33.845   9.180   4.923
50122W        W22547  32.540   4.903   3.136
50123W        W22548   0.561  15.484   2.003
50124W        W22549  41.760  19.990  14.559
50125W        W22550  42.857  38.925   2.236
50126W        W22551   1.490   7.673   3.433
50127W        W22552   2.899  41.457   3.372
50128W        W22553   4.094  39.321   0.931
50129W        W22554  42.759  38.463  13.925
50130W        W22555  20.741  40.767  10.347
50131W        W22556  27.710  40.241   3.694
50132W        W22557  15.872  36.016   4.118
50133W        W22558   2.284   6.656   0.811
50134W        W22559  16.647  30.338   1.688
50135W        W22560   9.311   5.401  13.855
50136W        W22561  43.773  39.855  12.390
50137W        W22562  39.494  26.713  14.853
50138W        W22563  17.603  25.236   1.870
50139W        W22564  42.424   6.291   2.141
50140W        W22565  18.033  40.454  14.037
50141W        W22566   3.314  40.078   0.258
50142W        W22567   4.840  16.711   4.150
50143W        W22568  44.255  18.663  10.600
50144W        W22569  13.456  18.788   2.785
50145W        W22570  40.914   7.904  14.466
50146W        W22571  13.741  41.304   3.247
50147W        W22572   6.295  20.333  14.920
50148W        W22573  31.688   8.732   0.260
50149W        W22574  37.528  39.450   4.435
50150W        W22575  39.805  35.276  10.673
50151W        W22576  40.908  30.788   0.098
50152W        W22577  42.416  30.415   1.977
50153W        W22578  11.404  38.791  11.512
50154W        W22579  28.696   9.074  12.231
50155W        W22580  23.616  22.666   4.676
50156W        W22581  21.126   7.681  12.998
50157W        W22582  12.362  38.367  14.364
50158W        W22583  11.616  12.781  10.287
50159W        W22584  41.290  36.412   1.320
50160W        W22585  14.174  40.872  10.491
50161W        W22586  42.579  21.051  11.950
50162W        W22587  42.429  10.867  14.342
50163W        W22588   5.013   6.742   0.071
50164W        W22589  22.076  44.490   3.888
50165W        W22590  35.871  37.508   0.347
50166W        W22591  18.176   5.891   0.750
50167W        W22592  26.484  31.861   1.797
50168W        W22593  12.287   3.178   5.049
50169W        W22594  15.131  18.038   4.560
50170W        W22595  18.913  35.812   2.396
50171W        W22596  17.061   3.726  13.042
50172W        W22597   7.264  36.133   0.828
50173W        W22598  40.437   5.729   1.297
50174W        W22599   9.170  38.064   3.200
50175W        W22600   1.722  36.964  14.321
50176W        W22601  24.189  14.138   4.363
50177W        W22602  22.040  33.357  11.729
50178W        W22603  22.722  42.464   3.380
50179W        W22604  25.096  31.399  11.132
50180W        W22605  16.704   4.258  13.335
50181W        W22606  11.103  25.899   4.662
50182W        W22607  26.137  37.398   0.282
50183W        W22608  27.863  39.755   3.626
50184W        W22609  22.358   2.916  12.159
50185W        W22610  12.228   8.464   4.732
50186W        W22611  10.551  38.488   0.907
50187W        W22612  13.184   9.778  10.632
50188W        W22613   8.165  27.696   0.799
50189W        W22614  12.570  43.312  11.459
50190W        W22615   1.886   6.699   1.364
50191W        W22616  19.226  28.207  12.531
50192W        W22617  14.107  18.179  11.614
50193W        W22618   5.476  12.708  13.641
50194W        W22619  35.797   3.259   2.960
50195W        W22620  27.826  36.444  11.938
50196W        W22621  38.416  27.626  14.786
50197W        W22622  27.561  43.046  13.536
50198W        W22623  36.557  26.871  13.374
50199W        W22624   5.662  31.705   0.886
50200W        W22625  26.429  42.066  11.114
50201W        W22626  26.161  42.768   4.205
50202W        W22627  35.505  35.423  13.356
50203W        W22628   6.656  36.085   2.817
50204W        W22629  16.709  15.392   4.046
50205W        W22630   9.336  40.890   1.922
50206W        W22631  40.291   4.977   1.210
50207W        W22632  21.016  22.074   2.766
50208W        W22633  17.256  16.387  14.319
50209W        W22634  18.553  34.073  10.047
50210W        W22635  16.715  30.899   2.333
50211W        W22636  22.009   7.755   4.081
50212W        W22637  42.267  22.767  13.256
50213W        W22638  31.661  34.380   1.719
50214W        W22639  21.977  43.042   3.265
50215W        W22640  42.842  44.980  13.570
50216W        W22641   2.881  40.377   0.061
50217W        W22642  31.440  16.721  11.107
50218W        W22643   3.113   0.383  14.766
50219W        W22644  26.528  18.703  13.054
50220W        W22645  24.046   1.710   2.644
50221W        W22646  35.609  20.710   0.863
50222W        W22647  11.859  15.569  12.100
50223W        W22648   1.607  29.557  13.270
50224W        W22649   9.732  36.116   0.289
50225W        W22650  33.154  11.411   3.372
50226W        W22651  21.539  41.088  12.044
50227W        W22652  32.202  11.118   3.756
50228W        W22653   5.884  21.662  10.380
50229W        W22654   5.883  37.824   3.096
50230W        W22655  22.778  36.888  13.068
50231W        W22656  43.051  12.641   0.964
50232W        W22657  19.222  29.683  12.945
50233W        W22658  29.121  29.722  12.082
50234W        W22659  15.691   3.542  12.127
50235W        W22660  38.070  36.840   2.194
50236W        W22661  13.054  24.650   3.828
50237W        W22662  33.494  10.307  13.241
50238W        W22663  20.612  27.983  13.500
50239W        W22664  17.603  13.187   1.917
50240W        W22665  36.602  12.232  13.516
50241W        W22666  17.520  25.070  12.994
50242W        W22667  33.507  19.710  11.576
50243W        W22668  33.327  34.611   3.404
50244W        W22669  15.165   3.655  10.593
50245W        W22670  13.866  32.536  11.532
50246W        W22671   9.469  22.154   1.675
50247W        W22672   1.428  29.701   0.495
50248W        W22673  40.771  34.181   2.158
50249W        W22674  28.114   7.261  14.731
50250W        W22675   5.676  19.438  11.514
50251W        W22676  38.092  35.937   2.288
50252W        W22677  19.406  14.084   3.781
50253W        W22678  29.472   9.898   0.674
50254W        W22679  23.783  19.233   1.787
50255W        W22680  41.358  30.930   3.878
50256W        W22681  11.877  15.076   3.295
50257W        W22682  10.017  41.447  12.010
50258W        W22683  10.055  32.799   0.272
50259W        W22684  28.802   4.450  11.172
50260W        W22685  20.710  21.703   1.670
50261W        W22686   3.327  43.946  10.436
50262W        W22687  30.093  24.563  11.939
50263W        W22688  21.360  23.757   3.409
50264W        W22689  34.970  10.662  13.125
50265W        W22690  27.786  18.771   3.350
50266W        W22691  19.980  44.264  10.757
50267W        W22692  21.637  12.665  13.480
50268W        W22693   0.285  20.161   3.418
50269W        W22694   7.484   9.143  11.123
50270W        W22695  19.728  42.693  13.798
50271W        W22696  14.494  19.681  12.455
50272W        W22697  27.441  41.262  14.700
50273W        W22698  10.027  18.797  12.107
50274W        W22699  33.155  18.019   4.411
50275W        W22700  44.770  22.575   2.343
50276W        W22701  25.885   5.223  11.152
50277W        W22702  17.130  22.102   0.571
50278W        W22703  27.526  22.468  13.418
50279W        W22704  26.141   4.006  10.727
50280W        W22705  33.011  19.867   0.591
50281W        W22706  39.696  42.768   3.816
50282W        W22707   3.652  33.674  13.774
50283W        W22708  39.786  34.757  10.790
50284W        W22709  12.857  28.939  12.446
50285W        W22710  44.319   3.727  14.131
50286W        W22711   6.767   3.842   2.097
50287W        W22712  20.797  10.781   3.048
50288W        W22713  34.244  26.653   3.617
50289W        W22714  40.363  44.521  11.477
50290W        W22715  32.833  24.767   1.337
50291W        W22716  38.309  27.678   1.240
50292W        W22717   2.897  33.556   1.158
50293W        W22718  43.886  19.511   1.285
50294W        W22719   4.172  16.376   4.192
50295W        W22720   8.623  39.121  14.878
50296W        W22721  29.363  43.835  11.077
50297W        W22722   2.711  40.477  11.132
50298W        W22723  24.653  39.892  14.345
50299W        W22724  21.379   5.388  11.481
50300W        W22725  20.666  21.901  14.318
50301W        W22726   7.288   3.442  13.053
50302W        W22727  23.959   2.026   2.243
50303W        W22728  20.588  19.504   3.291
50304W        W22729  43.266  12.406  11.848
50305W        W22730   5.903   8.745   1.961
50306W        W22731  36.062  13.269   1.260
50307W        W22732  32.108  15.718  10.609
50308W        W22733  12.132  36.519   4.052
50309W        W22734  12.837   8.747  12.455
50310W        W22735  35.362   4.100   3.825
50311W        W22736   3.972  39.174  14.325
50312W        W22737  10.300  29.717   3.769
50313W        W22738  29.183  14.253   3.273
50314W        W22739  17.526   5.730   3.658
50315W        W22740  40.490  44.336  14.286
50316W        W22741  28.970  35.415  13.613
50317W        W22742  23.218  28.623   0.874
50318W        W22743  40.503   4.282  11.253
50319W        W22744  29.657  23.751   0.273
50320W        W22745   4.349  38.460   4.344
50321W        W22746  18.315   9.891   3.527
50322W        W22747   4.754  12.781  12.898
50323W        W22748  22.620  34.375   0.363
50324W        W22749  35.990  16.017  11.585
50325W        W22750   6.925  44.946   2.819
50326W        W22751  22.624  12.383  11.146
50327W        W22752  23.714   3.110   4.760
50328W        W22753  18.593  24.865   1.670
50329W        W22754  12.809   6.928  14.883
50330W        W22755   6.312   4.443   1.028
50331W        W22756  42.993  32.979  14.879
50332W        W22757  24.949   1.732   1.437
50333W        W22758  39.076   0.742  13.037
50334W        W22759  23.069  44.218   1.857
50335W        W22760  33.110  16.744  13.089
50336W        W22761  21.297  10.445   2.853
50337W        W22762  25.618   3.470   1.764
50338W        W22763   9.962   3.905   1.145
50339W        W22764  12.096  13.866  13.621
50340W        W22765  16.128  20.842  14.262
50341W        W22766  17.349  30.811  12.220
50342W        W22767   9.722  14.521   0.500
50343W        W22768  26.093  11.838   3.340
50344W        W22769  23.756   5.909   1.900
50345W        W22770  26.108  24.952  13.826
50346W        W22771  35.549  22.263   1.654
50347W        W22772  13.645  44.242   1.813
50348W        W22773  20.946  40.573  12.901
50349W        W22774   4.696   0.515  12.551
50350W        W22775  11.073  29.070  10.401
50351W        W22776  23.926  14.257  12.016
50352W        W22777  14.552   9.738  12.513
50353W        W22778  30.720  20.618  11.097
50354W        W22779  37.097  28.180  13.228
50355W        W22780  37.410  44.543  14.521
50356W        W22781   0.860  35.527   1.700
50357W        W22782   2.301  33.074  13.346
50358W        W22783  32.336  20.175  10.650
50359W        W22784  26.429   7.473   2.249
50360W        W22785  33.851  26.257   2.619
50361W        W22786  22.480  39.501   2.128
50362W        W22787   2.795  42.188   2.721
50363W        W22788  37.344  42.083  14.434
50364W        W22789  29.687  12.894  13.136
50365W        W22790   0.707  18.043   1.311
50366W        W22791  44.057  20.088  12.857
50367W        W22792  25.766  24.551  13.954
50368W        W22793   0.224  44.198   2.233
50369W        W22794  43.051   0.803  12.874
50370W        W22795  42.536  40.517  12.421
50371W        W22796   3.285  21.970   4.617
50372W        W22797  37.922   4.174   0.817
50373W        W22798  32.525  41.428   0.751
50374W        W22799   7.839  34.425  12.462
50375W        W22800  39.482  26.676  10.726
50376W        W22801  11.078  43.763  13.828
50377W        W22802  20.667   8.773   4.371
50378W        W22803   2.814  44.067   4.293
50379W        W22804  30.165  32.534   4.168
50380W        W22805  35.577   4.398   0.402
50381W        W22806  16.735  22.290   2.427
50382W        W22807  29.387  37.679   2.087
50383W        W22808  12.003  33.865  11.982
50384W        W22809  22.474  22.552  10.703
50385W        W22810  23.522   2.060   0.772
50386W        W22811   7.190   3.742  14.323
50387W        W22812  24.935  28.578  10.605
50388W        W22813  27.564  42.273  14.830
50389W        W22814   9.169  21.064   3.765
50390W        W22815  41.939  33.947   3.060
50391W        W22816  17.393   6.332   0.464
50392W        W22817   4.927  22.694  10.699
50393W        W22818  31.670  23.897  13.738
50394W        W22819  41.268  40.279  11.041
50395W        W22820  41.382   7.111  11.235
50396W        W22821  20.253  29.027   3.264
50397W        W22822  21.180  38.498  10.227
50398W        W22823   9.141  30.970  13.098
50399W        W22824  34.651  27.996   3.883
50400W        W22825  37.450  22.161  14.215
50401W        W22826  20.579  12.950  11.516
50402W        W22827  36.899  15.470   2.744
50403W        W22828  23.550  13.522  11.110
50404W        W22829  24.669  24.463  11.482
50405W        W22830  13.270   6.742  14.969
50406W        W22831   1.066   6.334  11.483
50407W        W22832  22.073  38.486  10.793
50408W        W22833   6.726   8.958  10.627
50409W        W22834  44.822  13.170   2.157
50410W        W22835  34.811   2.414   4.452
50411W        W22836  33.192  23.083   0.709
50412W        W22837  25.117  35.513  11.901
50413W        W22838   1.397  14.550  11.839
50414W        W22839  35.021  30.176  10.451
50415W        W22840  21.274  37.825  13.048
50416W        W22841   4.710  44.426  13.912
50417W        W22842  44.061  24.120   0.878
50418W        W22843   1.809  29.124  12.831
50419W        W22844  43.836  28.613  10.962
50420W        W22845   3.223  23.176   4.491
50421W        W22846  41.546  14.637  13.878
50422W        W22847  17.773  15.535  14.728
50423W        W22848  40.530  32.881  14.021
50424W        W22849  37.143  22.206  10.705
50425W        W22850  38.195  38.378  11.565
50426W        W22851  37.354   4.049  14.485
50427W        W22852   8.196  40.984   2.392
50428W        W22853  40.048   5.719  13.470
50429W        W22854  30.158  32.140  11.356
50430W        W22855  33.176  28.118  12.215
50431W        W22856  30.998  28.454   4.670
50432W        W22857  11.343   3.275  11.131
50433W        W22858  16.867   0.349  10.809
50434W        W22859  43.963  36.313  13.780
50435W        W22860  10.280  14.468  11.409
50436W        W22861  30.259  31.182   2.267
50437W        W22862   0.990  25.740   0.245
50438W        W22863   2.528  35.604  12.950
50439W        W22864  11.155  19.246   2.284
50440W        W22865   9.364  20.096   3.127
50441W        W22866  20.152  25.986  13.589
50442W        W22867   8.630  17.649  12.482
50443W        W22868  40.497  33.935   3.688
50444W        W22869  14.182  19.692  10.674
50445W        W22870   6.054  43.650  11.048
50446W        W22871  43.813  19.045   2.738
50447W        W22872  14.589  20.437  13.446
50448W        W22873  17.794  20.992   3.218
50449W        W22874  43.923  39.039   3.764
50450W        W22875  29.641   8.398   1.745
50451W        W22876  28.143  35.001  12.905
50452W        W22877  11.201  26.225   3.344
50453W        W22878  38.798   6.790  12.846
50454W        W22879  18.991  27.438   2.829
50455W        W22880  15.612  12.715  11.632
50456W        W22881   1.922  26.924  13.416
50457W        W22882  27.284  38.325  14.393
50458W        W22883  29.911   1.303  13.341
50459W        W22884  33.838   2.715  13.920
50460W        W22885  37.140  41.519  12.533
50461W        W22886  40.091  25.006  10.218
50462W        W22887  27.565   4.312   4.680
50463W        W22888  16.707  20.344   0.420
50464W        W22889   5.764   8.121  12.506
50465W        W22890  34.152   1.274  11.206
50466W        W22891   5.636  20.355   3.103
50467W        W22892  39.695  22.909  10.944
50468W        W22893  27.047   5.763   1.839
50469W        W22894  29.034  40.394  10.427
50470W        W22895  40.020  36.422  14.735
50471W        W22896   6.267  18.607  12.291
50472W        W22897   2.302  20.610  11.435
50473W        W22898  27.645  34.251  11.290
50474W        W22899  19.831  22.761   3.158
50475W        W22900  34.533   3.188  13.052
50476W        W22901  18.245  43.373  11.071
50477W        W22902  42.525  41.817   3.687
50478W        W22903  27.315   9.741  10.585
50479W        W22904  28.176  18.564   4.586
50480W        W22905  29.006  43.911   0.468
50481W        W22906  37.478  13.891  11.012
50482W        W22907  15.278  44.321   4.139
50483W        W22908  20.878  28.902  11.446
50484W        W22909   4.406  40.020   4.726
50485W        W22910  31.009  24.486   1.873
50486W        W22911   6.944  31.867   0.628
50487W        W22912  19.581  22.243   0.041
50488W        W22913  11.719  25.569  11.200
50489W        W22914   9.452  21.583   4.236
50490W        W22915  35.494  40.974  12.378
50491W        W22916   9.313  20.453  13.547
50492W        W22917  30.083  22.520   3.571
50493W        W22918   6.120  13.561   3.255
50494W        W22919   5.247  32.502   1.132
50495W        W22920  14.693  38.996   0.921
50496W        W22921  31.538  26.667   0.867
50497W        W22922  16.694   0.867   0.071
50498W        W22923   2.271  42.895  14.816
50499W        W22924  10.148   1.507   1.255
50500W        W22925  22.588  10.428  12.750
50501W        W22926  42.328   6.656   1.179
50502W        W22927  31.596  11.396   1.684
50503W        W22928  15.365  12.421  13.753
50504W        W22929  33.424  34.662  14.914
50505W        W22930  28.121   1.850   1.125
50506W        W22931  32.906  40.332   0.747
50507W        W22932  41.251  37.220  11.953
50508W        W22933  42.572   5.305  14.490
50509W        W22934  21.479  16.667   0.027
50510W        W22935  26.311  13.098   2.481
50511W        W22936  30.106  15.272   0.784
50512W        W22937   9.180  27.771   0.267
50513W        W22938   6.769   9.256   4.421
50514W        W22939  18.281  16.054  12.581
50515W        W22940  34.401  15.849   4.190
50516W        W22941  23.263  43.797   3.643
50517W        W22942  41.910  41.404   4.650
50518W        W22943  15.799  39.243  11.569
50519W        W22944  22.596  22.334   4.174
50520W        W22945  29.414  21.476   1.400
50521W        W22946  40.422   5.907  10.646
50522W        W22947  11.273  43.784   2.781
50523W        W22948  35.689  25.579   1.661
50524W        W22949  18.246  36.502  12.498
50525W        W22950  39.594  13.392   4.196
50526W        W22951  38.860  14.764  10.627
50527W        W22952  40.370  10.737  11.759
50528W        W22953   1.388  42.851   5.003
50529W        W22954  38.505  13.953   1.923
50530W        W22955  19.207   1.326  14.901
50531W        W22956   1.330   8.567  12.904
50532W        W22957  17.258   6.729  13.522
50533W        W22958  17.686  28.987   0.259
50534W        W22959  40.649  20.222  10.772
50535W        W22960  24.811  43.072  14.401
50536W        W22961  20.344  41.906   0.447
50537W        W22962  14.132  14.745   4.130
50538W        W22963  31.626  21.588  13.882
50539W        W22964  19.672  27.922  12.609
50540W        W22965   3.642  40.691  11.170
50541W        W22966  17.313  13.819  11.950
50542W        W22967  29.334  37.523  12.213
50543W        W22968  10.779  42.517   2.934
50544W        W22969  11.734  30.910   0.511
50545W        W22970   0.838  28.429   2.202
50546W        W22971  28.314  44.449  11.079
50547W        W22972  42.216  28.869  12.445
50548W        W22973   4.229  25.069  12.879
50549W        W22974  24.751  28.223   1.211
50550W        W22975  19.209   8.518  12.326
50551W        W22976   4.496  42.020   0.965
50552W        W22977   4.417  41.299  14.806
50553W        W22978  25.027  41.786  12.579
50554W        W22979  39.364  23.795  13.733
50555W        W22980  33.062  10.720   0.750
50556W        W22981  14.611  29.068  10.421
50557W        W22982   2.869  29.009   4.474
50558W        W22983   1.110   2.802   2.271
50559W        W22984  28.740   5.073  12.793
50560W        W22985   7.255  21.143  13.790
50561W        W22986  26.748  16.157   3.237
50562W        W22987  43.073   5.465   0.799
50563W        W22988  39.563  32.173  14.852
50564W        W22989  29.097  39.297   2.150
50565W        W22990  19.281  42.055  11.546
50566W        W22991  22.935  44.002  14.964
50567W        W22992  31.226  21.939   1.797
50568W        W22993   0.718  11.782   2.248
50569W        W22994  38.618  20.664  14.862
50570W        W22995  15.771  36.310   3.689
50571W        W22996   7.865  42.220  11.038
50572W        W22997  22.433  43.714   3.135
50573W        W22998  31.516  31.108  12.014
50574W        W22999  14.354  32.253   5.368
50575W        W23000  43.324  33.920   0.361
50576W        W23001  37.995  37.700  10.241
50577W        W23002   2.666  40.320  12.849
50578W        W23003  18.092  14.420   3.372
50579W        W23004  34.651   6.916   1.785
50580W        W23005  29.114   9.868   4.343
50581W        W23006   8.888   5.134  14.835
50582W        W23007   5.175  27.352   0.765
50583W        W23008   1.530  37.984  13.252
50584W        W23009  14.690  43.324  12.613
50585W        W23010  30.117  10.659   2.073
50586W        W23011  18.708  40.276   3.673
50587W        W23012   0.218  10.090   4.535
50588W        W23013  14.768  12.921   2.408
50589W        W23014  23.725  28.510  14.294
50590W        W23015  25.732  44.160   2.843
50591W        W23016  42.493  23.123   5.237
50592W        W23017  10.629   9.672  12.129
50593W        W23018  35.416  14.028   4.815
50594W        W23019   7.835   0.882  13.313
50595W        W23020  42.332   7.611   1.302
50596W        W23021  36.505   7.217   1.707
50597W        W23022   6.901  34.417   1.800
50598W        W23023  17.625  32.953  11.121
50599W        W23024  32.068   9.534  11.550
50600W        W23025   9.055  31.034   1.932
50601W        W23026  28.416  11.239   2.266
50602W        W23027  25.475  26.013   3.635
50603W        W23028  17.937  31.859  13.322
50604W        W23029  40.514  34.618  12.987
50605W        W23030  21.102  10.862  11.038
50606W        W23031   2.262  36.092   0.887
50607W        W23032  29.021   7.451  14.783
50608W        W23033  38.911   4.728   4.555
50609W        W23034   5.816  12.733   4.872
50610W        W23035  23.049  21.639  14.836
50611W        W23036  15.139   3.247   2.738
50612W        W23037  34.689  29.036  13.402
50613W        W23038  12.744  32.931  14.953
50614W        W23039  23.596   2.104   3.353
50615W        W23040  43.120  36.037   4.134
50616W        W23041  19.762  38.592   3.001
50617W        W23042   0.782  18.723  13.400
50618W        W23043   4.496  36.326   3.473
50619W        W23044   1.382  21.634  12.485
50620W        W23045  16.069  11.081  12.106
50621W        W23046   6.841  43.553   4.042
50622W        W23047   7.254  34.515   0.966
50623W        W23048  42.460  41.861  11.288
50624W        W23049  13.205  12.734   1.784
50625W        W23050  30.445   8.931   0.843
50626W        W23051  25.417  44.207  11.174
50627W        W23052   9.790   7.782   1.273
50628W        W23053  14.572  41.385  13.861
50629W        W23054  12.251   9.111   4.916
50630W        W23055   6.782  38.477  10.985
50631W        W23056  12.197  31.020   2.757
50632W        W23057  35.674  31.712   5.105
50633W        W23058  23.686  34.815   1.471
50634W        W23059  37.848   1.365   1.796
50635W        W23060  13.925  22.331  12.993
50636W        W23061  18.499  30.520   4.280
50637W        W23062  13.866  37.616   4.115
50638W        W23063  13.880  12.581  12.289
50639W        W23064   3.965  17.257   1.763
50640W        W23065  28.946  39.877   3.963
50641W        W23066  16.280   4.087   0.801
50642W        W23067   0.366  12.847   2.931
50643W        W23068  31.333   1.821  14.232
50644W        W23069   2.226   3.542  14.739
50645W        W23070  34.442  21.205  12.883
50646W        W23071  19.228  32.391  11.144
50647W        W23072  31.438  12.656   5.102
50648W        W23073  17.117   3.930  11.566
50649W        W23074  31.511  17.829   0.248
50650W        W23075   4.178  32.746  14.456
50651W        W23076  35.132  13.779  10.594
50652W        W23077  15.202  16.800   3.120
50653W        W23078  33.120  14.064   4.586
50654W        W23079  14.021  33.907   4.264
50655W        W23080  44.955   1.403   4.296
50656W        W23081   9.862  43.980   0.046
50657W        W23082  34.863  38.506  11.956
50658W        W23083  26.458  10.033   2.948
50659W        W23084  11.331  17.769   0.934
50660W        W23085  24.100   8.009  11.684
50661W        W23086   7.267   0.868  12.656
50662W        W23087  30.922  29.934  13.042
50663W        W23088  36.048  27.825   1.214
50664W        W23089   7.882  32.077   4.604
50665W        W23090   3.471  31.420  11.966
50666W        W23091   1.197  19.646   2.806
50667W        W23092   7.934  30.587  11.687
50668W        W23093  11.396  13.874  12.274
50669W        W23094  17.213   6.768   3.755
50670W        W23095   1.754   7.402   4.340
50671W        W23096  11.374  40.048  11.191
50672W        W23097  26.306  26.396   1.653
50673W        W23098  36.464   9.830   0.406
50674W        W23099   7.856  35.695   3.805
50675W        W23100  40.691  22.781   1.708
50676W        W23101  33.952  34.662   1.723
50677W        W23102   5.702  31.998  13.584
50678W        W23103  32.676   9.676  10.467
50679W        W23104  22.566   8.141   3.387
50680W        W23105  27.423  13.153  11.549
50681W        W23106   4.413  28.132   3.494
50682W        W23107  22.433  33.538   4.028
50683W        W23108   7.252   4.981  13.131
50684W        W23109  16.697  37.832   4.693
50685W        W23110  10.724  24.030   0.385
50686W        W23111  28.310  41.014   4.881
50687W        W23112  37.298  32.115  11.650
50688W        W23113  39.594   3.974   3.610
50689W        W23114   4.193   6.413   4.552
50690W        W23115  14.655   5.219   0.808
50691W        W23116  24.315  24.622  12.945
50692W        W23117   3.745  14.113   4.782
50693W        W23118  36.400   7.162  10.698
50694W        W23119  20.305  41.861  11.569
50695W        W23120   4.122   5.503  13.019
50696W        W23121   0.809  43.501   1.160
50697W        W23122   7.781  43.993  12.494
50698W        W23123  34.551   5.465  10.904
50699W        W23124  14.243   1.462   1.186
50700W        W23125  42.786   2.849  12.981
50701W        W23126  34.655  21.311   2.162
50702W        W23127  13.153  27.443   3.095
50703W        W23128   8.647  17.845   0.384
50704W        W23129  28.597   5.802   3.379
50705W        W23130   3.110  16.309  12.035
50706W        W23131  39.955  28.175  14.873
50707W        W23132  22.763  22.026   2.391
50708W        W23133  44.333   3.812  12.342
50709W        W23134  41.760  19.702  10.195
50710W        W23135  43.555  30.452   0.207
50711W        W23136  43.196  17.880  10.189
50712W        W23137  34.627  40.990   2.648
50713W        W23138  13.832  14.263  13.787
50714W        W23139  38.375  17.493  10.743
50715W        W23140   0.374  29.657   1.237
50716W        W23141  44.894  27.068   1.264
50717W        W23142  37.417  26.907   0.364
50718W        W23143  33.151  35.443   3.955
50719W        W23144  37.923   6.292  14.415
50720W        W23145  11.393  25.630  10.768
50721W        W23146   2.358  10.996   2.767
50722W        W23147  40.323  17.005  11.946
50723W        W23148  33.404  29.223  11.899
50724W        W23149   0.290  32.990  12.505
50725W        W23150  42.910   1.427  12.720
50726W        W23151  10.898  35.456  12.677
50727W        W23152  31.470  23.940   3.099
50728W        W23153  35.293  33.315  10.224
50729W        W23154  18.150  19.506   2.889
50730W        W23155   0.963  42.384  10.750
50731W        W23156  40.463   6.908   4.739
50732W        W23157  15.667  30.938   4.657
50733W        W23158  15.426  21.134  12.539
50734W        W23159  33.892  42.090  14.722
50735W        W23160   4.805   3.917  14.785
50736W        W23161   0.782  34.196   3.732
50737W        W23162   2.787  31.081   3.755
50738W        W23163  42.383  31.504   0.011
50739W        W23164   2.351  30.200  13.085
50740W        W23165  39.555  42.621  14.298
50741W        W23166  39.943   8.034   2.403
50742W        W23167  28.694   2.538   2.869
50743W        W23168  14.834  27.059   1.787
50744W        W23169  14.293  17.659   2.660
50745W        W23170  29.342  37.711   0.278
50746W        W23171  30.052  27.377  13.012
50747W        W23172  24.488   1.343  11.039
50748W        W23173  22.166  28.826   2.961
50749W        W23174   2.818  24.695   4.191
50750W        W23175  28.033  33.132  14.829
50751W        W23176   7.121   3.861   1.668
50752W        W23177  17.150  10.560  14.024
50753W        W23178  35.505  12.624  10.702
50754W        W23179  35.866  19.005  13.962
50755W        W23180   3.224  40.411  11.121
50756W        W23181  27.176  18.129   0.995
50757W        W23182  18.976   8.692  13.129
50758W        W23183   9.405  42.832   0.798
50759W        W23184   6.873  10.592   0.026
50760W        W23185  22.196  23.617  10.524
50761W        W23186  39.040  16.565   3.602
50762W        W23187   5.981  29.954   2.347
50763W        W23188  26.914   6.293   0.821
50764W        W23189  16.523  38.537   0.694
50765W        W23190  28.976  43.016   0.791
50766W        W23191  26.795  42.377   0.930
50767W        W23192  43.262  11.679   2.242
50768W        W23193   0.961   0.864   4.211
50769W        W23194   6.133   0.360   1.532
50770W        W23195  10.655  25.594   0.715
50771W        W23196   7.410  33.066  14.979
50772W        W23197  10.327   0.018  11.069
50773W        W23198   6.816  24.216  11.915
50774W        W23199  28.694  23.418  13.307
50775W        W23200   1.933  20.097   1.198
50776W        W23201  23.592  31.958  13.421
50777W        W23202   6.251   8.882  12.888
50778W        W23203  38.048  25.164   4.088
50779W        W23204  21.589  44.395   4.661
50780W        W23205  36.633  19.206  13.330
50781W        W23206  21.891  11.791  11.068
50782W        W23207   2.572  23.207  12.522
50783W        W23208  40.232   8.244   1.697
50784W        W23209   4.385   8.009  11.451
50785W        W23210  20.210  33.441   9.984
50786W        W23211  32.654  12.645   0.488
50787W        W23212  38.571  12.060   3.607
50788W        W23213   3.954   1.709  10.186
50789W        W23214  20.777  32.602   1.304
50790W        W23215  19.645  44.562  13.155
50791W        W23216   3.167   8.045   4.990
50792W        W23217  22.346  20.541  12.459
50793W        W23218  44.786  21.764   0.834
50794W        W23219  18.727  35.963   9.883
50795W        W23220  23.507  20.619   1.754
50796W        W23221  15.473  31.178   1.359
50797W        W23222   0.937  13.502  10.707
50798W        W23223  23.690  32.157   2.894
50799W        W23224  20.441   5.812   2.890
50800W        W23225   7.425  22.646   4.600
50801W        W23226  28.068  20.272  11.471
50802W        W23227   4.927  17.558   1.903
50803W        W23228  30.920  26.789   2.321
50804W        W23229   3.037  16.198  12.798
50805W        W23230   1.972  21.472  12.134
50806W        W23231  11.707  27.624   2.622
50807W        W23232   0.463  44.764  10.521
50808W        W23233  26.058  25.169   2.214
50809W        W23234   6.645   7.806  14.510
50810W        W23235  36.494  23.660  12.556
50811W        W23236  31.359  38.933   1.254
50812W        W23237  17.276  35.581  10.907
50813W        W23238  40.811  18.318   0.344
50814W        W23239  38.159  35.139   4.791
50815W        W23240   2.343  26.321   3.350
50816W        W23241  40.998  33.837   3.604
50817W        W23242  22.912  11.792  13.213
50818W        W23243  14.103  35.610  14.295
50819W        W23244  23.146   7.828  13.378
50820W        W23245   7.972   2.870   0.265
50821W        W23246  14.351  14.787  10.649
50822W        W23247  41.471  14.732   4.529
50823W        W23248  27.494  32.499  14.845
50824W        W23249  41.940  18.245   4.578
50825W        W23250  13.577  32.041  10.791
50826W        W23251   7.242  17.670   2.083
50827W        W23252  19.478  19.197  14.125
50828W        W23253  17.742  22.542   4.226
50829W        W23254  15.291  23.171   3.719
50830W        W23255  19.784  29.101  13.449
50831W        W23256  38.111  25.199   0.835
50832W        W23257   7.812   4.665   4.449
50833W        W23258   2.256   2.366  11.901
50834W        W23259  16.608  36.480  14.561
50835W        W23260  20.093  16.459  12.503
50836W        W23261  44.783   6.681   3.432
50837W        W23262  34.535  40.997  12.080
50838W        W23263   1.858  37.100   1.269
50839W        W23264  30.932   4.451  12.084
50840W        W23265  20.625  19.765   2.852
50841W        W23266  10.710   0.298  12.942
50842W        W23267  44.432   4.822   1.194
50843W        W23268  27.099  26.752  13.092
50844W        W23269  13.148  32.862  12.154
50845W        W23270  23.798   9.937   1.770
50846W        W23271  15.114   2.460   3.289
50847W        W23272  27.970  30.985  14.918
50848W        W23273  10.752  33.538   0.375
50849W        W23274  38.442  22.190  13.815
50850W        W23275   2.927  24.138  14.039
50851W        W23276  26.053   9.357  11.518
50852W        W23277  17.055  16.533  12.501
50853W        W23278  26.927  20.817  11.317
50854W        W23279   8.366   7.275   0.687
50855W        W23280  28.209   8.215   0.895
50856W        W23281  40.584   3.301   0.760
50857W        W23282  10.659  26.074  10.713
50858W        W23283  44.528  25.462  12.949
50859W        W23284  36.621  21.668  12.355
50860W        W23285  21.170  33.425   0.761
50861W        W23286  40.106  36.546   2.347
50862W        W23287  42.596  23.734  12.606
50863W        W23288  21.828  14.605   2.544
50864W        W23289  44.738   9.776   1.295
50865W        W23290  28.743  11.197  12.555
50866W        W23291  41.416  34.132  14.070
50867W        W23292  19.883   1.902   4.869
50868W        W23293  31.209   8.608   2.656
50869W        W23294  21.271  29.867  14.791
50870W        W23295  19.747  37.827  11.879
50871W        W23296   2.447   0.910   0.299
50872W        W23297   6.497   5.833   4.116
50873W        W23298  20.390   9.214   0.858
50874W        W23299   2.522  10.402   4.096
50875W        W23300  27.829  29.436  10.585
50876W        W23301  27.144   1.221  12.469
50877W        W23302  25.939   3.194  14.332
50878W        W23303  33.427   0.032  13.446
50879W        W23304  38.027   7.149   2.226
50880W        W23305  25.441  37.968   3.760
50881W        W23306  36.775  14.511   0.360
50882W        W23307  12.833  25.313  11.773
50883W        W23308  11.703   7.987  14.345
50884W        W23309  21.653  33.859  14.072
50885W        W23310   3.103  19.517   3.282
50886W        W23311  34.996   6.188   1.332
50887W        W23312  34.272   8.925  13.324
50888W        W23313  11.232  24.510  12.964
50889W        W23314  33.428  31.021  14.077
50890W        W23315  24.693  15.512   1.494
50891W        W23316  10.793  35.611   0.846
50892W        W23317  23.248   1.765   1.672
50893W        W23318  30.890   0.026   1.766
50894W        W23319  27.828  12.561  11.166
50895W        W23320  28.206  10.404   1.501
50896W        W23321  24.104  12.697  14.741
50897W        W23322  29.540  24.421   3.167
50898W        W23323  39.450  25.362  12.897
50899W        W23324  20.737   2.055   1.874
50900W        W23325  36.012  35.396  12.117
50901W        W23326  26.419  34.402   3.375
50902W        W23327  19.285  41.991  12.416
50903W        W23328  31.420   0.374  14.532
50904W        W23329  43.942  24.478  13.508
50905W        W23330   9.407   3.754  11.016
50906W        W23331  14.088  30.926   4.501
50907W        W23332   8.418  13.199  14.699
50908W        W23333  21.769  37.379  12.365
50909W        W23334  21.684  15.302   1.926
50910W        W23335  21.669   5.109  14.307
50911W        W23336   8.406  29.069   4.142
50912W        W23337  21.504  30.000   4.177
50913W        W23338  18.745  21.981   2.424
50914W        W23339  32.194  24.111  11.107
50915W        W23340  20.193  14.600  12.032
50916W        W23341  31.272  26.099   4.903
50917W        W23342  11.354   9.335   0.437
50918W        W23343  18.184  11.616  13.970
50919W        W23344  27.200  30.993  14.460
50920W        W23345  38.932  36.956  12.831
50921W        W23346  31.207   3.883  11.508
50922W        W23347  34.480  20.072   2.841
50923W        W23348  37.265  23.341  11.737
50924W        W23349  36.532  32.377   0.330
50925W        W23350  38.601  16.912   3.252
50926W        W23351  36.517   5.811  12.420
50927W        W23352  25.512  36.144   3.643
50928W        W23353  19.295  44.957   4.133
50929W        W23354   7.390  18.256  13.440
50930W        W23355  29.120  31.472  11.950
50931W        W23356  37.555   3.919   2.113
50932W        W23357   1.011  38.595  12.526
50933W        W23358   4.239  43.403   2.813
50934W        W23359   2.239  42.926  12.979
50935W        W23360  29.097  38.011  13.245
50936W        W23361  27.465   3.008  14.495
50937W        W23362   5.737   6.490  12.956
50938W        W23363  38.192  11.313  11.461
50939W        W23364  32.099   7.120   4.096
50940W        W23365  12.864  16.687   2.909
50941W        W23366  41.375  11.891   1.740
50942W        W23367  22.567  35.847   4.344
50943W        W23368   3.439  10.333   0.959
50944W        W23369  28.490  15.494   0.856
50945W        W23370  24.057  38.964  11.023
50946W        W23371  34.347  34.935  14.866
50947W        W23372  24.787  28.002  14.325
50948W        W23373  21.760  41.763   0.248
50949W        W23374  37.305  37.284   4.169
50950W        W23375  40.637  41.040  14.347
50951W        W23376  42.354  43.087   3.190
50952W        W23377  25.061  30.677  10.173
50953W        W23378  21.697  38.599   0.358
50954W        W23379   0.310  34.583   3.523
50955W        W23380  14.716  31.357   0.333
50956W        W23381  30.024  27.261   3.248
50957W        W23382  23.053  12.105  11.074
50958W        W23383  16.753  44.714   2.287
50959W        W23384  44.888  22.972  11.044
50960W        W23385  16.049   7.145   4.535
50961W        W23386  24.724  40.913  13.448
50962W        W23387   2.893  20.644  14.823
50963W        W23388  30.837  41.384  11.088
50964W        W23389  44.721  34.303   3.092
50965W        W23390  31.789   7.787  13.395
50966W        W23391  33.469  14.287   3.263
50967W        W23392  17.616  26.713   3.803
50968W        W23393  14.114  22.005  13.950
50969W        W23394  40.679  35.111   4.133
50970W        W23395  38.003   6.937  14.335
50971W        W23396  38.094  34.528   1.823
50972W        W23397  40.805  17.200  11.973
50973W        W23398  17.641  33.633   2.122
50974W        W23399  12.152   6.679   3.232
50975W        W23400   1.747  29.687  13.794
50976W        W23401  40.686  14.579  12.684
50977W        W23402  35.003  15.828  13.779
50978W        W23403  23.605  24.661   1.099
50979W        W23404  15.193  18.097   3.642
50980W        W23405  19.079  12.686  11.007
50981W        W23406  30.494   1.543  14.365
50982W        W23407   3.123  41.260  14.644
50983W        W23408  18.493  39.308   3.758
50984W        W23409  34.217   4.454   3.455
50985W        W23410  18.139   6.645  13.549
50986W        W23411   5.482  21.504  11.873
50987W        W23412  19.570  41.815  13.263
50988W        W23413  25.230  22.065  13.824
50989W        W23414  35.077  19.267   3.474
50990W        W23415  21.985   4.874  11.170
50991W        W23416  43.070  14.673  14.809
50992W        W23417   5.740  16.839   4.104
50993W        W23418  27.847  44.370   3.000
50994W        W23419  27.913  17.823  11.039
50995W        W23420   9.184  43.083  13.247
50996W        W23421  19.237   2.787  12.836
50997W        W23422  25.100  25.146  12.910
50998W        W23423  15.732  12.795   3.115
50999W        W23424   0.416   0.989   2.072
51000W        W23425   4.957  16.791   3.116
51001W        W23426  41.739  27.500  12.889
51002W        W23427  33.839  40.897   4.768
51003W        W23428  27.581   5.981   1.989
51004W        W23429   4.649  36.010  13.113
51005W        W23430  43.872  27.447  11.002
51006W        W23431  20.029  44.925  12.089
51007W        W23432   8.684  39.878  12.627
51008W        W23433   1.340   3.035   1.784
51009W        W23434  18.175  16.195   3.304
51010W        W23435  36.007  25.647   2.646
51011W        W23436   0.260  41.081  11.896
51012W        W23437  23.547   4.990  12.658
51013W        W23438  14.844  14.290   2.083
51014W        W23439  21.563  34.459  14.983
51015W        W23440  13.059  40.035  12.513
51016W        W23441  21.610  43.432   0.493
51017W        W23442  36.509  16.589  10.718
51018W        W23443  23.037  31.656   3.384
51019W        W23444  23.244  25.530  13.982
51020W        W23445  17.342  17.843  14.795
51021W        W23446   7.732   5.411  14.211
51022W        W23447  21.034  43.273  11.561
51023W        W23448  26.597  26.453   2.091
51024W        W23449  22.736   6.823   2.752
51025W        W23450  33.260  36.458  11.018
51026W        W23451  28.700  24.035   4.615
51027W        W23452  44.439  14.036   2.214
51028W        W23453  43.214  40.069  11.022
51029W        W23454  32.452  39.325  12.911
51030W        W23455  22.974  25.722   3.187
51031W        W23456  18.853  37.639   0.269
51032W        W23457  14.100   6.614  12.668
51033W        W23458  42.403  41.186   4.552
51034W        W23459  11.745  12.895   0.713
51035W        W23460  31.910  26.075  10.468
51036W        W23461  40.417  24.827  12.517
51037W        W23462  25.637   0.074   1.948
51038W        W23463  29.102  23.543  11.084
51039W        W23464  27.749  39.789  12.574
51040W        W23465   5.241  29.416  10.552
51041W        W23466  20.506  24.101   1.925
51042W        W23467   3.352  44.768  11.636
51043W        W23468   1.514  35.963   2.727
51044W        W23469   7.774  18.659  14.099
51045W        W23470  41.904   0.207  10.277
51046W        W23471   3.380   5.215  11.553
51047W        W23472  34.990  11.104   0.870
51048W        W23473  34.909  38.478   0.350
51049W        W23474  11.292   5.413   2.831
51050W        W23475  19.706   1.844   4.303
51051W        W23476  42.407  31.399  13.981
51052W        W23477  31.499   8.590   2.205
51053W        W23478   2.999  21.082  14.381
51054W        W23479  16.290  25.318   0.288
51055W        W23480   9.209  18.618   1.310
51056W        W23481   9.312  42.207   0.977
51057W        W23482  31.640  41.859  14.734
51058W        W23483  31.614  11.714  14.511
51059W        W23484  12.865  27.162  10.582
51060W        W23485  14.742  24.003   2.992
51061W        W23486   1.023  13.837   0.293
51062W        W23487  20.031  12.370  10.521
51063W        W23488  20.356  18.643   1.212
51064W        W23489  42.121  27.482   1.561
51065W        W23490  35.464   5.272   4.580
51066W        W23491   7.074  44.770   2.170
51067W        W23492  25.902  41.982   2.787
51068W        W23493   8.697   1.720  14.404
51069W        W23494  41.486   4.165   4.574
51070W        W23495  30.578  11.248  11.399
51071W        W23496  22.147  21.034  13.862
51072W        W23497  23.796  36.618  11.084
51073W        W23498   2.528  12.772  14.243
51074W        W23499  20.706  15.278  11.608
51075W        W23500  35.082  39.845   2.628
51076W        W23501  21.308  16.044  14.581
51077W        W23502   1.442  23.569  10.574
51078W        W23503  13.831  36.447   2.260
51079W        W23504   0.370  26.694   3.173
51080W        W23505  40.858  30.369   0.403
51081W        W23506   6.833  40.804   4.839
51082W        W23507  32.096  21.670   2.717
51083W        W23508  21.355  31.955  12.407
51084W        W23509  38.433  10.875  14.833
51085W        W23510  36.224  39.246   2.387
51086W        W23511  19.825  16.630  11.576
51087W        W23512  33.444  23.434  12.343
51088W        W23513  31.575  10.051   3.292
51089W        W23514  12.619  29.041  14.338
51090W        W23515  30.053   0.254   0.774
51091W        W23516  25.572  13.667  10.659
51092W        W23517  43.716  10.847  11.477
51093W        W23518  37.302  13.790   0.852
51094W        W23519  18.745  44.471  12.721
51095W        W23520   3.618  35.858   0.980
51096W        W23521  15.808  33.452  12.396
51097W        W23522   1.473   5.319   1.757
51098W        W23523   0.641  12.460   5.268
51099W        W23524   6.751  42.917  14.870
51100W        W23525   0.418  24.517  11.024
51101W        W23526   8.243  27.489  14.254
51102W        W23527  40.610   2.851   2.830
51103W        W23528  14.060  31.984  11.610
51104W        W23529  14.784   2.470  10.055
51105W        W23530  35.424  43.262  11.221
51106W        W23531  26.462  30.772   1.707
51107W        W23532  11.922  10.437   1.050
51108W        W23533  37.893  11.392   3.410
51109W        W23534   2.429   9.382   1.518
51110W        W23535   5.215   5.300   1.723
51111W        W23536  38.079  20.777   1.683
51112W        W23537  19.088  24.808   3.896
51113W        W23538  14.303   8.007  14.257
51114W        W23539   5.200  32.127   2.445
51115W        W23540  39.164  15.783   0.637
51116W        W23541  23.444  12.606   1.415
51117W        W23542  13.163  10.803   4.540
51118W        W23543  41.305  19.526   4.167
51119W        W23544   0.982  37.084  13.905
51120W        W23545  20.580  16.090   4.206
51121W        W23546   5.921   4.841   2.893
51122W        W23547  34.223   8.000   9.877
51123W        W23548   7.861   9.656   3.122
51124W        W23549  11.296  36.791  13.176
51125W        W23550  32.240  44.527   0.720
51126W        W23551  43.494  14.657  11.343
51127W        W23552  27.592  37.690  11.480
51128W        W23553  30.864  25.078  12.490
51129W        W23554   5.607   5.248  12.976
51130W        W23555  10.867   0.865   4.042
51131W        W23556  11.788   2.323   5.392
51132W        W23557  30.142   9.683   1.770
51133W        W23558  11.792  16.593  12.986
51134W        W23559  11.099   3.368   0.310
51135W        W23560  17.143  12.687  12.133
51136W        W23561  22.101   3.239   2.510
51137W        W23562  28.947   5.435   3.181
51138W        W23563  20.543  35.373  13.367
51139W        W23564  26.204  21.746   1.853
51140W        W23565  43.820  38.452  14.806
51141W        W23566   8.136  10.307  12.940
51142W        W23567   6.960   7.911  13.052
51143W        W23568  21.860  23.960  12.996
51144W        W23569  10.685   4.773   2.871
51145W        W23570   6.751  20.649   4.957
51146W        W23571   4.468  28.022   1.499
51147W        W23572   3.956   8.340   3.698
51148W        W23573   7.899  21.082  12.538
51149W        W23574  38.462  35.648  11.493
51150W        W23575  24.910   7.286  12.954
51151W        W23576  43.211  11.892   3.812
51152W        W23577   0.695  36.559  13.021
51153W        W23578   0.425   5.158   0.832
51154W        W23579  23.069  41.969   0.706
51155W        W23580  19.584  27.954   5.000
51156W        W23581   1.169  11.784  13.940
51157W        W23582  29.724  26.811  11.136
51158W        W23583  27.157  37.630   4.080
51159W        W23584   7.368  24.287   1.837
51160W        W23585  27.864  33.986  12.937
51161W        W23586   1.392  23.617   4.391
51162W        W23587  15.225  42.511   4.636
51163W        W23588  33.892  10.921   3.189
51164W        W23589  18.335  11.674  12.998
51165W        W23590  10.587   9.434  11.506
51166W        W23591  29.139  38.770  13.951
51167W        W23592   3.427  12.698  10.443
51168W        W23593   4.903  28.954   4.227
51169W        W23594  10.369  28.516  14.429
51170W        W23595  32.623   3.501   2.752
51171W        W23596  39.814   7.668  13.395
51172W        W23597  33.620   1.409  13.405
51173W        W23598  17.217   1.970   0.944
51174W        W23599  10.897  39.295  11.982
51175W        W23600  21.124   1.261  12.288
51176W        W23601  21.059  28.999  11.943
51177W        W23602  23.879  38.480   0.135
51178W        W23603  32.896  32.982  10.776
51179W        W23604  36.559  41.997   3.875
51180W        W23605  40.361   2.214  10.710
51181W        W23606  39.392   4.263   1.900
51182W        W23607  22.577  29.982   0.037
51183W        W23608   9.344  16.502  10.731
51184W        W23609   9.367   1.331  11.193
51185W        W23610  42.171  21.060   4.329
51186W        W23611  25.951  25.613  14.909
51187W        W23612  13.769  25.746  12.853
51188W        W23613  28.426   1.748   4.257
51189W        W23614  39.265  11.299   4.064
51190W        W23615   6.332   8.056   4.669
51191W        W23616  15.240  21.584   0.936
51192W        W23617  19.762  43.723  11.574
51193W        W23618   3.343   3.606  11.633
51194W        W23619  28.053   4.172   0.213
51195W        W23620  33.361  26.032   2.757
51196W        W23621  21.890  23.159  11.186
51197W        W23622  14.874  11.678  10.652
51198W        W23623  15.898  14.185  12.143
51199W        W23624  12.956  34.407  13.805
51200W        W23625   3.497  30.060  11.408
51201W        W23626  27.555  36.434   4.331
51202W        W23627  37.281  33.030  11.689
51203W        W23628  41.385   3.250  13.006
51204W        W23629  27.526  19.719  14.866
51205W        W23630   0.059  12.503   3.180
51206W        W23631  13.708  21.559  14.477
51207W        W23632  32.636  27.730  13.401
51208W        W23633  42.832  31.067  14.025
51209W        W23634  11.036   2.411   3.665
51210W        W23635  32.528  13.205  12.139
51211W        W23636  28.376  37.452   3.854
51212W        W23637  17.072  13.470  14.777
51213W        W23638  23.764  24.458   4.026
51214W        W23639  29.451   6.602   0.689
51215W        W23640  22.311  16.129   3.358
51216W        W23641  12.713  23.980  10.618
51217W        W23642   9.295  27.005  11.995
51218W        W23643  37.020  21.209  13.855
51219W        W23644  14.324   9.269  10.749
51220W        W23645  20.492  10.140  14.916
51221W        W23646  12.931  30.956  14.262
51222W        W23647  26.905  10.938  12.415
51223W        W23648  25.175  18.257  12.977
51224W        W23649   3.984   7.715   4.964
51225W        W23650  33.459  38.956  12.449
51226W        W23651   8.940  31.403   1.269
51227W        W23652   7.421  30.629   2.478
51228W        W23653  24.662  25.131  12.038
51229W        W23654  35.441  37.627   2.126
51230W        W23655   8.440  30.953  11.752
51231W        W23656  18.216   0.803   2.278
51232W        W23657  17.711  44.656   4.625
51233W        W23658  26.053  25.702  12.053
51234W        W23659   9.178  31.035   2.456
51235W        W23660  24.565  34.136   0.240
51236W        W23661  33.630  43.907  11.143
51237W        W23662  10.761  38.392  12.185
51238W        W23663   8.838  18.125  12.804
51239W        W23664  26.510   2.728  12.908
51240W        W23665  43.183  16.263  11.016
51241W        W23666  43.854  42.261   0.956
51242W        W23667   1.031  42.237  11.243
51243W        W23668  24.308  26.708  11.651
51244W        W23669  18.347   6.163   3.631
51245W        W23670   9.837  41.362  10.829
51246W        W23671   7.947  13.004  12.547
51247W        W23672   5.363  28.380   0.921
51248W        W23673  17.494  33.330  12.049
51249W        W23674  22.255  21.639   0.007
51250W        W23675  29.215  40.585  12.558
51251W        W23676  21.822  30.407  13.062
51252W        W23677  27.038  26.437   3.171
51253W        W23678  26.598  39.767  10.271
51254W        W23679  35.340  28.243  13.406
51255W        W23680  31.115  25.328  12.882
51256W        W23681  36.284  27.419  14.586
51257W        W23682  13.728   1.817   4.961
51258W        W23683   5.918  33.100  12.999
51259W        W23684  38.658  18.248  13.828
51260W        W23685  11.282  29.869  13.428
51261W        W23686  11.815  19.068  10.199
51262W        W23687  39.938  17.759  12.833
51263W        W23688  44.931  24.450   2.793
51264W        W23689  13.650  15.182   0.711
51265W        W23690  40.414  12.839  14.923
51266W        W23691   4.409  39.448   1.365
51267W        W23692  34.576  42.565  14.467
51268W        W23693  40.823  28.657   3.527
51269W        W23694   6.618  37.568   2.342
51270W        W23695   2.024  11.322   3.162
51271W        W23696  35.416  41.604  14.436
51272W        W23697  39.290   2.927  10.512
51273W        W23698  15.144  13.908  14.130
51274W        W23699  29.772  13.923  14.700
51275W        W23700   5.467   4.478  11.990
51276W        W23701  21.540  27.105  14.859
51277W        W23702  27.435  36.153  12.573
51278W        W23703  35.410  26.092  10.637
51279W        W23704  24.418   0.455   2.419
51280W        W23705  36.994  10.449   4.475
51281W        W23706  31.603  38.411   2.454
51282W        W23707  30.453  37.376  11.075
51283W        W23708  19.025  42.511  11.625
51284W        W23709  31.636  25.497  12.782
51285W        W23710  39.826  33.919   0.358
51286W        W23711  35.820  17.205  12.466
51287W        W23712  29.458  14.322   5.077
51288W        W23713   5.155   9.718  12.129
51289W        W23714  28.859  28.045   2.820
51290W        W23715  35.356  31.601  13.071
51291W        W23716   5.876  35.532   4.735
51292W        W23717  42.109  34.977  11.925
51293W        W23718   0.007  44.015  10.568
51294W        W23719  37.271  34.023  10.804
51295W        W23720  40.230   5.266  14.686
51296W        W23721  23.597   6.951  12.918
51297W        W23722  33.353  37.532  10.288
51298W        W23723  26.552  23.164   4.465
51299W        W23724  27.697  39.509  10.915
51300W        W23725   9.275  42.387  10.629
51301W        W23726   5.903  35.535   1.337
51302W        W23727  39.129  17.313   2.303
51303W        W23728  34.301  13.990   3.255
51304W        W23729   0.856  11.441   0.986
51305W        W23730  21.621  15.505   4.130
51306W        W23731  36.154   4.610   1.213
51307W        W23732  41.031  38.959   0.282
51308W        W23733  24.975  25.490   4.686
51309W        W23734  35.431   2.412  13.508
51310W        W23735  24.310  31.967   2.255
51311W        W23736  41.973   5.420  13.803
51312W        W23737  41.605  15.703  11.127
51313W        W23738  37.330  17.213   3.666
51314W        W23739  19.619   7.784  12.384
51315W        W23740  15.268  40.624  11.266
51316W        W23741  13.655  40.272  14.858
51317W        W23742  42.729  22.166   4.438
51318W        W23743  37.641  26.429   3.477
51319W        W23744  42.009   4.091   2.911
51320W        W23745  26.720  38.430  14.285
51321W        W23746  40.890  24.286   4.241
51322W        W23747  25.724  16.308   1.681
51323W        W23748   9.709  11.679   2.840
51324W        W23749  37.017   9.513  13.167
51325W        W23750   9.048   3.218  10.174
51326W        W23751  11.622  41.450   4.693
51327W        W23752   0.235  44.924  14.731
51328W        W23753  16.514  22.239  11.082
51329W        W23754  16.200  10.330   1.341
51330W        W23755  44.341  34.300   2.283
51331W        W23756  10.557  24.375   3.166
51332W        W23757  39.887  19.198   3.639
51333W        W23758   5.231  34.971  12.030
51334W        W23759  28.631  10.055  11.866
51335W        W23760  26.183  37.382   0.826
51336W        W23761  16.182  39.940  14.295
51337W        W23762  12.118   2.442   2.335
51338W        W23763   3.863  17.233  12.695
51339W        W23764  18.652  27.947   0.330
51340W        W23765  16.642  41.299   0.433
51341W        W23766  32.626  32.621   4.745
51342W        W23767  39.606  21.999  14.296
51343W        W23768  37.031  19.595   0.682
51344W        W23769  28.394  29.175   1.940
51345W        W23770  16.764  25.143   1.297
51346W        W23771  24.093   6.199  14.357
51347W        W23772  23.908  35.387   0.775
51348W        W23773  23.041  14.232   1.873
51349W        W23774   6.491   5.788   0.472
51350W        W23775   7.689  12.402   2.309
51351W        W23776  35.811  34.318   2.659
51352W        W23777  25.798  11.282  11.857
51353W        W23778   0.900  30.956   4.315
51354W        W23779  43.334  25.588   0.898
51355W        W23780  28.368  14.568  13.431
51356W        W23781  41.933  26.175   1.767
51357W        W23782  30.262  33.430   4.065
51358W        W23783  42.396  12.237  11.498
51359W        W23784  21.810  12.564   0.019
51360W        W23785  31.535  40.246  11.816
51361W        W23786  10.923  39.793  11.931
51362W        W23787  35.117   7.088   0.522
51363W        W23788  13.142  39.259   0.204
51364W        W23789  26.280  11.209   0.736
51365W        W23790  33.366  33.984   1.447
51366W        W23791  30.973  22.292  14.409
51367W        W23792  23.431  38.411  10.324
51368W        W23793  35.333  12.564  12.979
51369W        W23794  43.062  25.899   3.633
51370W        W23795   9.235  44.490   1.392
51371W        W23796  18.606  33.048   2.137
51372W        W23797  42.366  19.247   3.547
51373W        W23798  16.164  42.713  11.460
51374W        W23799  17.508  13.103   1.404
51375W        W23800  16.743   1.694  11.493
51376W        W23801  29.132  20.656  13.373
51377W        W23802  38.299  25.964  13.403
51378W        W23803  11.400  14.823   1.911
51379W        W23804   2.537  16.707  12.461
51380W        W23805  32.091   8.922  14.899
51381W        W23806  32.885  42.342  12.191
51382W        W23807  40.446   3.632   2.290
51383W        W23808  13.626  41.409  11.059
51384W        W23809  43.271  19.465   0.453
51385W        W23810  43.821  37.761  14.219
51386W        W23811  44.834  44.524   2.216
51387W        W23812  44.878  23.425   2.676
51388W        W23813  18.745   0.758   3.440
51389W        W23814  35.674   2.901   4.833
51390W        W23815  38.243  39.468   1.365
51391W        W23816  44.111  17.043  13.695
51392W        W23817  35.920  32.487  12.101
51393W        W23818   8.122  28.208  10.771
51394W        W23819  17.119   0.991  13.372
51395W        W23820  43.416  42.559  12.977
51396W        W23821  12.076  18.379  10.670
51397W        W23822  27.258  11.744   1.251
51398W        W23823  20.209  24.433  11.936
51399W        W23824   3.796  41.845  14.252
51400W        W23825  38.906  34.769  13.544
51401W        W23826  12.062  43.256   2.191
51402W        W23827  30.210  11.437  12.243
51403W        W23828  18.639  18.590  14.228
51404W        W23829  26.148  32.654  11.359
51405W        W23830  17.956   1.239   0.233
51406W        W23831   3.379  38.764   4.120
51407W        W23832  11.827  17.536   0.992
51408W        W23833   5.124   7.437   2.276
51409W        W23834   8.136  29.120  14.269
51410W        W23835  10.842   0.008  12.539
51411W        W23836  28.123  12.331   3.247
51412W        W23837  40.045  41.441   0.884
51413W        W23838   2.389  38.256   0.281
51414W        W23839  17.258  23.159   3.628
51415W        W23840  40.900  13.329   2.466
51416W        W23841  35.119  44.793   0.056
51417W        W23842  44.590  28.043   1.402
51418W        W23843  30.547  40.325   4.166
51419W        W23844  19.790   2.892  11.157
51420W        W23845  38.836  32.172  12.541
51421W        W23846   5.972  40.374  10.926
51422W        W23847  29.628   9.165  13.937
51423W        W23848  42.031  43.312   1.842
51424W        W23849  10.371   3.851   3.380
51425W        W23850  24.645   7.187   2.203
51426W        W23851   0.468  25.789  11.982
51427W        W23852  28.457  33.388  11.473
51428W        W23853   6.793  42.127   2.948
51429W        W23854  39.237  27.921  14.318
51430W        W23855   1.389  10.709   0.431
51431W        W23856  29.851  13.663   3.748
51432W        W23857  39.754  34.864   2.296
51433W        W23858  33.043  17.545   4.268
51434W        W23859  33.704  20.726  11.588
51435W        W23860  42.234   3.182  11.234
51436W        W23861  34.945   3.989   0.875
51437W        W23862  29.997  11.733  12.577
51438W        W23863   5.494  14.876  14.855
51439W        W23864  19.092  37.349  10.738
51440W        W23865  41.341  10.026  10.743
51441W        W23866  18.091   8.372   0.695
51442W        W23867  31.449   9.190  12.475
51443W        W23868  15.999  13.779   2.159
51444W        W23869  14.919   3.167   5.465
51445W        W23870  13.557   3.387  13.350
51446W        W23871   5.327  11.068  11.901
51447W        W23872   3.640  24.582  14.083
51448W        W23873   5.788  41.845  13.435
51449W        W23874  35.035  21.284  10.922
51450W        W23875  21.259  27.580   1.913
51451W        W23876  13.460  18.097   0.213
51452W        W23877   1.496   9.403  14.819
51453W        W23878  33.982   0.303   0.837
51454W        W23879  28.964   9.032   1.874
51455W        W23880  18.356  30.680  14.974
51456W        W23881  17.014  39.405   3.565
51457W        W23882  16.720   1.427   2.739
51458W        W23883  28.187   9.896  12.899
51459W        W23884  17.774   0.376   2.897
51460W        W23885   9.419  19.598   3.268
51461W        W23886  27.950  36.935   1.428
51462W        W23887  37.490  16.072  14.924
51463W        W23888  19.440   3.700  12.595
51464W        W23889  41.040  38.057  13.897
51465W        W23890  41.406  27.458  11.523
51466W        W23891  17.483  41.816   0.227
51467W        W23892  43.361  38.871   0.525
51468W        W23893   7.717  23.415  11.011
51469W        W23894   3.336   0.652  14.308
51470W        W23895  28.714  19.812  11.693
51471W        W23896  44.900  20.506  12.954
51472W        W23897  23.170   8.929  14.375
51473W        W23898  19.241  37.332   3.527
51474W        W23899  18.793  14.495   4.436
51475W        W23900   2.258  22.109  11.218
51476W        W23901  40.703  28.700   0.763
51477W        W23902  12.669  43.513  12.314
51478W        W23903  12.790  35.926  10.615
51479W        W23904  35.142   9.761   1.010
51480W        W23905  18.500  22.603  14.260
51481W        W23906  27.384   2.753  11.226
51482W        W23907  21.325  38.428   2.681
51483W        W23908  38.975   2.756  11.978
51484W        W23909  32.185  18.536  13.396
51485W        W23910  28.810  12.810  13.451
51486W        W23911  28.201  17.025  13.437
51487W        W23912  23.820   4.452  13.516
51488W        W23913  11.974  28.401  11.582
51489W        W23914  15.365  42.804  13.426
51490W        W23915  22.003   9.356  10.601
51491W        W23916  14.816  23.661   0.714
51492W        W23917  14.606  14.078  14.909
51493W        W23918  22.297  24.564  10.870
51494W        W23919  38.464  12.699   2.165
51495W        W23920  43.206   2.765  12.581
51496W        W23921  34.804  10.601  14.051
51497W        W23922   2.953   8.976  11.878
51498W        W23923  16.779  19.052  14.927
51499W        W23924  20.102  41.212   2.856
51500W        W23925  37.078  14.653   4.656
51501W        W23926  28.262  22.608   3.242
51502W        W23927  42.042  31.329   0.739
51503W        W23928  40.503  37.133   4.322
51504W        W23929  32.688  28.462  12.733
51505W        W23930  20.263  11.630   4.388
51506W        W23931   0.330  37.331   3.698
51507W        W23932   3.984  18.836   3.753
51508W        W23933  19.213  13.598  14.735
51509W        W23934  11.183  18.797   3.713
51510W        W23935   9.419  21.693  14.663
51511W        W23936   5.501  21.172   3.593
51512W        W23937  28.273  39.121   2.078
51513W        W23938  18.937   6.974  14.648
51514W        W23939  30.608   5.612  13.759
51515W        W23940   7.665  11.841   2.345
51516W        W23941  25.666  11.412   4.633
51517W        W23942  22.947  36.587   2.874
51518W        W23943  36.826  37.933   4.635
51519W        W23944  16.779  24.641   1.443
51520W        W23945   2.233   0.819   2.266
51521W        W23946   4.881  34.976   2.411
51522W        W23947  40.361  38.532  10.920
51523W        W23948  28.633  22.984   3.168
51524W        W23949  18.599  23.705  13.551
51525W        W23950  25.982  33.011  10.243
51526W        W23951   5.746  19.880   0.355
51527W        W23952   8.881  34.884  12.059
51528W        W23953  29.957  37.797   4.681
51529W        W23954  19.128  11.465  11.583
51530W        W23955   1.745  20.802   4.104
51531W        W23956  40.076  16.704   1.487
51532W        W23957  43.796  27.345  12.976
51533W        W23958  32.863  16.143   2.247
51534W        W23959   9.404  15.214   2.822
51535W        W23960  37.522  23.919   0.713
51536W        W23961  41.344  36.995   2.047
51537W        W23962   8.536  36.413  12.919
51538W        W23963  24.479  33.145   0.500
51539W        W23964  41.616  35.834  12.984
51540W        W23965  30.223  25.016  10.686
51541W        W23966  20.360  22.226  11.138
51542W        W23967   6.808  30.681  11.908
51543W        W23968  14.391   1.181   1.711
51544W        W23969  14.377  22.337   0.278
51545W        W23970  35.979  29.561  13.793
51546W        W23971  10.317  21.228  14.069
51547W        W23972   3.282  37.822  14.463
51548W        W23973  17.273  33.720   0.361
51549W        W23974  21.569  13.869   1.446
51550W        W23975   2.426  12.180  14.833
51551W        W23976  21.092  16.727   4.186
51552W        W23977   6.921   7.897   2.882
51553W        W23978   4.766  41.190  11.651
51554W        W23979   0.752  37.373   2.369
51555W        W23980   0.963   7.901  14.552
51556W        W23981  17.818   7.206   3.234
51557W        W23982  24.577  36.049  10.689
51558W        W23983  19.863  27.402   0.379
51559W        W23984  26.682   0.560  10.600
51560W        W23985  30.487  30.048   1.627
51561W        W23986  32.814   9.188  14.870
51562W        W23987  10.678  41.087   4.776
51563W        W23988   7.408  29.636  14.277
51564W        W23989  30.744  34.137  12.614
51565W        W23990   8.349   1.238  12.203
51566W        W23991  20.759  35.357   2.837
51567W        W23992  34.679  17.151   4.533
51568W        W23993  34.983   8.062   0.261
51569W        W23994  41.897  30.014  10.365
51570W        W23995   1.796   8.448  11.186
51571W        W23996  11.627  30.164   0.892
51572W        W23997   4.341  15.029   3.547
51573W        W23998  38.674  26.018  12.060
51574W        W23999  19.650   6.255  11.677
51575W        W24000  15.188   8.525  13.064
51576W        W24001   6.616   1.475  13.491
51577W        W24002  27.022  13.795   0.399
51578W        W24003   6.632  17.366   4.216
51579W        W24004  10.312   6.603   0.868
51580W        W24005  20.159   7.842   4.155
51581W        W24006  11.215  29.179   0.862
51582W        W24007  28.089  27.533  10.558
51583W        W24008  15.726  24.008  10.470
51584W        W24009  34.479  44.369  13.967
51585W        W24010  10.999  29.469   0.505
51586W        W24011  18.059   2.834  12.959
51587W        W24012   9.252  30.895  14.613
51588W        W24013   5.863   8.883  10.651
51589W        W24014   4.905  29.936  14.025
51590W        W24015  11.392  34.638  14.566
51591W        W24016  44.681  34.146  12.523
51592W        W24017  20.161  38.538   3.859
51593W        W24018  41.593  15.706   4.965
51594W        W24019  31.928  41.336  12.439
51595W        W24020   7.106  11.483  12.098
51596W        W24021  44.259  21.751   0.864
51597W        W24022  40.899  23.762   2.016
51598W        W24023   4.512  36.103  13.593
51599W        W24024  26.165  12.121  10.367
51600W        W24025   0.872  17.412   3.863
51601W        W24026  42.250   2.266   3.723
51602W        W24027  34.977   7.919   1.757
51603W        W24028  32.109  27.436  14.406
51604W        W24029  11.183  44.631  13.341
51605W        W24030   0.337   0.996   1.563
51606W        W24031  13.750  38.651   3.948
51607W        W24032  27.665   7.330  11.576
51608W        W24033  27.663   3.218   2.410
51609W        W24034  21.514   0.321   4.208
51610W        W24035  16.766  18.517   0.016
51611W        W24036   6.769  12.405   3.832
51612W        W24037  12.813  24.233   4.694
51613W        W24038  13.248  19.061   1.864
51614W        W24039   4.283  35.536  13.017
51615W        W24040  22.168  28.497   3.926
51616W        W24041  33.772  25.787   5.062
51617W        W24042  15.075  22.112  14.830
51618W        W24043  38.779   7.140   0.014
51619W        W24044  43.521  43.508  10.601
51620W        W24045  43.779  21.673  13.879
51621W        W24046   5.934  44.995  10.561
51622W        W24047   6.443  44.839  10.639
51623W        W24048  26.307   5.955   5.011
51624W        W24049  26.029  26.259  12.928
51625W        W24050  36.568  42.301  14.231
51626W        W24051  34.993   8.191   3.143
51627W        W24052  43.655   3.614   1.896
51628W        W24053  20.977  29.088  12.782
51629W        W24054  17.344  23.851   4.240
51630W        W24055  16.206  23.458   0.863
51631W        W24056   1.703  11.955   0.382
51632W        W24057  22.538   1.798  13.899
51633W        W24058  11.078  39.389   1.418
51634W        W24059  15.750  36.591  14.319
51635W        W24060   5.319   3.964  12.421
51636W        W24061  43.105  38.093  11.701
51637W        W24062   3.763  36.888   3.848
51638W        W24063  28.090   2.995   5.004
51639W        W24064   4.247   2.241   0.990
51640W        W24065  28.550  12.070  14.568
51641W        W24066  41.873   8.601   2.195
51642W        W24067   9.673  41.714  12.991
51643W        W24068   0.239  32.382   1.398
51644W        W24069   1.364   8.114   3.155
51645W        W24070  36.929  20.207  13.982
51646W        W24071   2.498  32.884   2.844
51647W        W24072   2.007   4.279   1.890
51648W        W24073  32.510  29.408  11.122
51649W        W24074  41.645  22.990   2.632
51650W        W24075  18.959  30.397  10.885
51651W        W24076   7.452  21.059  10.735
51652W        W24077  23.591   8.141   2.301
51653W        W24078  42.446  36.536  12.430
51654W        W24079  27.536  24.440  13.385
51655W        W24080  29.018  36.906  11.120
51656W        W24081   3.769  20.484   4.857
51657W        W24082  20.296  31.904   3.695
51658W        W24083   1.499  42.058   0.490
51659W        W24084  22.237  29.487  11.940
51660W        W24085  41.717  27.618   3.350
51661W        W24086  13.386  14.629   1.556
51662W        W24087  25.126   2.189  14.955
51663W        W24088  33.810  14.659   1.421
51664W        W24089  40.437  35.817  13.883
51665W        W24090   8.728  11.286  11.483
51666W        W24091  43.427  19.008  12.003
51667W        W24092  44.309  42.326  14.226
51668W        W24093  41.319  13.679  14.769
51669W        W24094  28.654  38.417  10.499
51670W        W24095  24.205  37.355  10.780
51671W        W24096   1.627  24.085  10.694
51672W        W24097  36.820  28.031   1.862
51673W        W24098  34.542  18.596  11.143
51674W        W24099  40.106  41.210  14.890
51675W        W24100  30.446  28.439  11.890
51676W        W24101  16.240  22.978   3.133
51677W        W24102  31.148  17.330   0.987
51678W        W24103  21.492  31.870  11.440
51679W        W24104   4.467  17.694   0.398
51680W        W24105  21.869  13.754  11.967
51681W        W24106  31.063  20.194   2.807
51682W        W24107  40.390  10.404   3.231
51683W        W24108   7.963   7.951   0.724
51684W        W24109  16.165   5.339   4.672
51685W        W24110  26.208  37.601   1.345
51686W        W24111  28.593  18.535  14.044
51687W        W24112   1.070  21.829   3.400
51688W        W24113   3.745  20.052  10.723
51689W        W24114  38.816  31.383  12.917
51690W        W24115   6.320  37.545   3.153
51691W        W24116  13.205   7.894  11.617
51692W        W24117  18.817   7.448   4.253
51693W        W24118  42.087  21.642   4.980
51694W        W24119  40.010  19.993  14.745
51695W        W24120   2.718   5.349  13.381
51696W        W24121  14.899  33.888   0.332
51697W        W24122  19.545  26.205  14.852
51698W        W24123  15.129  23.058   4.648
51699W        W24124  12.126  16.790  11.628
51700W        W24125  30.532  19.117   2.249
51701W        W24126  43.570  35.444  13.435
51702W        W24127   4.330   1.386  14.228
51703W        W24128   8.336   8.784  11.175
51704W        W24129  32.611  26.639   4.862
51705W        W24130  34.651  38.381  12.640
51706W        W24131   1.489   0.731   4.246
51707W        W24132  39.934   9.615   1.417
51708W        W24133  39.963  25.116   3.673
51709W        W24134  15.165  36.954  14.892
51710W        W24135   3.187   4.453  12.525
51711W        W24136  22.526  12.662   4.426
51712W        W24137  38.603  31.136   2.945
51713W        W24138   8.253  10.577  10.828
51714W        W24139  18.700   5.721   2.909
51715W        W24140  18.994  43.981  11.416
51716W        W24141  41.337  27.573  10.678
51717W        W24142  10.760  28.610   2.538
51718W        W24143  19.619  11.883   1.207
51719W        W24144   9.675  40.087  14.918
51720W        W24145  34.591  35.695  11.946
51721W        W24146  24.954  30.383   1.841
51722W        W24147  37.746   4.028   3.271
51723W        W24148  43.439  11.519  14.167
51724W        W24149  11.465   8.022   3.809
51725W        W24150  15.589  16.135  13.928
51726W        W24151  20.165  29.576   0.191
51727W        W24152  39.623   6.400   3.782
51728W        W24153  29.542  25.844   2.360
51729W        W24154   5.160  21.819  13.911
51730W        W24155  18.315  31.964  14.201
51731W        W24156  41.543  34.638   0.325
51732W        W24157   9.401  26.070   1.156
51733W        W24158  30.996   5.759  12.933
51734W        W24159  36.907  16.248   2.302
51735W        W24160  19.853  12.820   3.697
51736W        W24161   6.932  35.121  11.976
51737W        W24162   5.718  38.326   1.789
51738W        W24163  28.570  41.826   1.702
51739W        W24164  24.053  17.345   0.817
51740W        W24165  20.758  12.339   0.320
51741W        W24166   5.253  23.039   1.774
51742W        W24167  31.102  19.151  14.738
51743W        W24168  20.116  33.360  13.562
51744W        W24169  20.985  15.215  14.348
51745W        W24170   6.201  16.212   3.111
51746W        W24171   9.388  26.988   2.874
51747W        W24172  34.879   0.252   0.269
51748W        W24173   4.660  15.783   1.725
51749W        W24174  13.688  40.678   1.848
51750W        W24175   6.752  35.146   1.211
51751W        W24176  38.268  18.276   2.761
51752W        W24177  27.968  43.730  13.641
51753W        W24178  26.934  26.587   4.580
51754W        W24179  10.792   0.848  12.932
51755W        W24180  31.173  16.087  14.445
51756W        W24181  18.630  43.104   0.850
51757W        W24182  23.105  16.508   1.288
51758W        W24183   6.299   5.952   1.389
51759W        W24184  26.722  33.572   0.307
51760W        W24185   4.721  19.580   3.756
51761W        W24186  14.619  27.224  14.993
51762W        W24187  15.372   6.099   2.278
51763W        W24188  23.640  26.168  10.459
51764W        W24189   3.100  12.719   0.067
51765W        W24190  35.493  22.614   4.278
51766W        W24191  41.837  22.513  10.684
51767W        W24192  10.362  35.511  14.902
51768W        W24193   4.914  32.887  11.170
51769W        W24194  23.395  17.149   3.199
51770W        W24195  10.295  13.264   2.335
51771W        W24196  26.694  19.812   2.492
51772W        W24197   5.777  40.296  12.579
51773W        W24198  27.611   5.346  11.949
51774W        W24199  19.002  26.496   2.313
51775W        W24200  20.603  42.226   1.265
51776W        W24201  34.036  23.551  10.341
51777W        W24202   9.901  39.322  11.050
51778W        W24203   5.821  14.852   2.839
51779W        W24204  28.629   9.817   2.614
51780W        W24205  15.146  33.447  12.959
51781W        W24206   5.456  25.516   1.392
51782W        W24207   1.305  25.685  11.404
51783W        W24208  39.884  39.920  14.479
51784W        W24209   8.176  39.845  12.793
51785W        W24210   5.933  42.025  14.481
51786W        W24211  22.140  41.084  10.536
51787W        W24212  29.935  42.276  14.719
51788W        W24213  16.160  36.474  10.750
51789W        W24214  28.653   4.281   2.558
51790W        W24215   6.051   3.207   3.659
51791W        W24216  14.150   4.803  12.531
51792W        W24217  40.844  34.922   4.582
51793W        W24218  26.242  21.026   1.325
51794W        W24219  31.853  20.507  13.986
51795W        W24220  18.250  12.687   3.197
51796W        W24221  40.811  38.465   4.492
51797W        W24222  11.800  10.491  10.562
51798W        W24223  41.582   5.720  14.020
51799W        W24224  36.584  23.408  10.810
51800W        W24225  10.294   8.305  13.998
51801W        W24226  41.300  41.907  11.105
51802W        W24227  41.417  40.429   3.148
51803W        W24228  35.584  37.297   0.815
51804W        W24229   8.703  20.858   0.400
51805W        W24230  33.932  44.083  13.297
51806W        W24231  38.564  41.721   1.315
51807W        W24232  14.999  31.929  14.883
51808W        W24233  28.886  34.566   4.099
51809W        W24234  43.351  19.579  10.797
51810W        W24235  38.595  19.244  10.969
51811W        W24236  35.127  18.242   1.849
51812W        W24237   4.474  18.091  12.542
51813W        W24238  43.323  41.548   1.267
51814W        W24239   9.457  27.502   2.835
51815W        W24240  35.777  35.115  12.937
51816W        W24241   9.658  39.098   0.848
51817W        W24242  22.633  29.539  13.242
51818W        W24243   9.971   8.597  11.459
51819W        W24244  23.040   6.519  11.923
51820W        W24245  14.514  20.279   2.746
51821W        W24246  17.953   1.795  14.042
51822W        W24247   5.853  18.366   0.283
51823W        W24248   0.440  38.232  14.659
51824W        W24249  23.696  10.100   5.488
51825W        W24250  29.776  13.136   3.589
51826W        W24251   9.478  27.756  13.426
51827W        W24252  24.935  33.384   2.219
51828W        W24253   6.142  28.531   4.363
51829W        W24254  36.368  33.798  10.318
51830W        W24255  37.706   5.447   4.582
51831W        W24256  35.425  18.667   1.742
51832W        W24257   7.926  17.846  11.952
51833W        W24258   3.199  11.903  12.063
51834W        W24259  22.873  18.186   1.776
51835W        W24260   4.557  15.271  13.557
51836W        W24261  36.653   7.601  10.702
51837W        W24262  32.140  38.352  14.359
51838W        W24263  32.527   8.077   0.429
51839W        W24264  13.888  40.944  14.003
51840W        W24265  38.057  12.274  12.854
51841W        W24266  37.397  37.810  13.460
51842W        W24267  40.517  43.213  10.630
51843W        W24268   2.991  14.335   3.275
51844W        W24269  36.586   3.878  13.522
51845W        W24270   3.332  37.127   2.056
51846W        W24271  36.012  36.892   1.489
51847W        W24272  21.032  44.912  14.929
51848W        W24273   8.626  34.913  14.237
51849W        W24274  15.204  32.143   3.183
51850W        W24275  28.235  16.020   4.586
51851W        W24276  16.163  43.464  13.461
51852W        W24277  38.374   4.187  13.458
51853W        W24278  19.926  14.313   0.233
51854W        W24279  20.465  44.326   1.460
51855W        W24280   0.970  40.496  11.434
51856W        W24281  41.461   3.413   0.447
51857W        W24282   7.298  26.764   2.830
51858W        W24283  10.650  31.537  14.509
51859W        W24284  22.464  29.534   2.350
51860W        W24285  22.025  37.346  14.469
51861W        W24286  12.240  13.279   4.438
51862W        W24287  18.551  20.285  12.493
51863W        W24288  17.064  14.138   0.939
51864W        W24289  27.006  18.889   2.891
51865W        W24290  32.099  36.500  11.624
51866W        W24291  41.900  35.257   1.499
51867W        W24292   9.191  36.815  11.139
51868W        W24293   6.912  18.069  11.032
51869W        W24294  12.574   5.514  14.269
51870W        W24295  36.149   8.894   9.669
51871W        W24296  22.492   3.479  13.159
51872W        W24297  10.618  27.597   0.435
51873W        W24298   6.657  21.671   1.481
51874W        W24299  43.414   6.474   3.683
51875W        W24300   1.262   0.424  11.006
51876W        W24301  33.416  35.800   4.231
51877W        W24302   1.380  21.982   0.663
51878W        W24303  32.121   0.422  11.875
51879W        W24304  22.220  22.312  11.888
51880W        W24305  44.739   5.929  13.028
51881W        W24306  21.452  28.495  10.687
51882W        W24307  16.638   3.493  14.357
51883W        W24308   1.294   3.985  11.575
51884W        W24309  15.805   3.519  12.961
51885W        W24310   2.388   6.742   2.741
51886W        W24311  13.856  29.184  12.504
51887W        W24312  18.253  32.858  12.421
51888W        W24313  21.594  24.734   4.448
51889W        W24314  23.192  35.965  14.431
51890W        W24315  18.042  21.955   0.723
51891W        W24316  43.564  44.787   4.550
51892W        W24317  38.595  44.287   0.296
51893W        W24318  32.556  33.969   1.027
51894W        W24319  28.368  43.584  14.443
51895W        W24320   8.180  26.871   1.177
51896W        W24321  12.416   7.405   2.632
51897W        W24322   5.475  28.039   1.311
51898W        W24323  19.250   8.312  12.868
51899W        W24324  41.594  33.683   4.279
51900W        W24325  37.563  22.116   0.233
51901W        W24326  14.634  19.279   1.238
51902W        W24327  26.131  43.480   4.636
51903W        W24328  24.172  42.355  13.388
51904W        W24329  23.267  12.206  10.610
51905W        W24330  31.066   8.452  11.969
51906W        W24331   7.382   1.000   3.252
51907W        W24332  33.794   8.393  13.102
51908W        W24333   6.829   4.598   1.188
51909W        W24334   0.210  24.156  14.547
51910W        W24335  29.889  41.413   1.908
51911W        W24336  22.432  24.241  13.832
51912W        W24337  44.941  28.119  11.624
51913W        W24338   6.653  18.271  13.717
51914W        W24339  14.818  11.267  14.398
51915W        W24340  26.534   1.686  13.906
51916W        W24341   1.907  26.546  13.783
51917W        W24342  25.444   9.827   0.747
51918W        W24343  14.441  29.457  14.330
51919W        W24344  18.558  27.633   1.032
51920W        W24345  31.836  16.023   5.047
51921W        W24346  19.495  35.009  12.844
51922W        W24347  37.823   9.703  14.993
51923W        W24348  31.058  27.959   3.873
51924W        W24349  34.129   4.951   3.588
51925W        W24350   5.817   2.373  13.067
51926W        W24351  15.973  26.058   0.684
51927W        W24352   8.681  25.602   4.151
51928W        W24353  26.179  31.433  13.924
51929W        W24354  43.085   0.716  11.996
51930W        W24355  18.394  11.471   4.209
51931W        W24356  42.001  20.590   4.256
51932W        W24357   9.706  33.034   2.901
51933W        W24358  17.163  31.619  10.439
51934W        W24359  13.674  13.909   2.160
51935W        W24360  10.868  21.249  11.547
51936W        W24361  42.110   1.235  11.455
51937W        W24362  40.541  33.612   0.923
51938W        W24363   0.461  34.340   9.794
51939W        W24364  24.522  13.729   2.268
51940W        W24365  25.567  30.019  12.979
51941W        W24366  15.656  41.826   3.176
51942W        W24367   7.218  24.127  14.847
51943W        W24368  17.265   9.383   4.102
51944W        W24369   6.361  19.214  14.527
51945W        W24370  38.945  40.540  12.573
51946W        W24371  20.105  23.070  11.579
51947W        W24372   3.896  42.904   1.384
51948W        W24373   2.668  31.994  12.986
51949W        W24374  22.104  20.333   2.247
51950W        W24375  18.328  11.730   2.361
51951W        W24376  43.302   3.413  13.334
51952W        W24377  38.579  11.710   1.769
51953W        W24378  17.190  38.560  14.548
51954W        W24379  25.156  17.214  12.814
51955W        W24380  17.607  23.708   0.820
51956W        W24381  16.718   1.498  10.605
51957W        W24382  44.718   1.730  13.122
51958W        W24383  32.180   3.842   4.534
51959W        W24384  22.117  15.673   3.434
51960W        W24385  34.895   9.574  12.375
51961W        W24386  21.669  25.284  13.458
51962W        W24387  44.638   9.180   5.025
51963W        W24388  17.631  41.727  11.240
51964W        W24389  18.500  14.546  12.409
51965W        W24390  10.424  11.230   2.323
51966W        W24391   9.656   4.772  11.555
51967W        W24392  25.361  21.117   0.278
51968W        W24393  10.678   6.595   4.142
51969W        W24394  42.021  28.144  14.890
51970W        W24395   0.811  33.406   0.748
51971W        W24396  28.828  10.314   2.488
51972W        W24397  26.887  22.786   4.666
51973W        W24398  43.573  17.118  10.931
51974W        W24399  23.464  42.324   1.872
51975W        W24400   4.203  26.414  14.429
51976W        W24401  35.435   7.402  10.938
51977W        W24402  27.593   3.854   4.444
51978W        W24403  25.074  16.702   2.110
51979W        W24404  19.728  43.501  11.109
51980W        W24405   2.351   4.426   4.872
51981W        W24406  25.727  43.830  14.053
51982W        W24407  19.727  13.805   1.850
51983W        W24408  15.227  37.140  12.690
51984W        W24409  10.378  14.556  14.930
51985W        W24410   6.192   1.183  13.479
51986W        W24411  12.572  16.654   1.926
51987W        W24412  26.283  14.748   3.272
51988W        W24413  40.744  27.022   1.854
51989W        W24414  29.979   2.449   2.253
51990W        W24415  20.562   2.926   4.147
51991W        W24416   1.832  23.915  12.487
51992W        W24417   7.704  20.146   2.779
51993W        W24418  37.457  26.663  14.709
51994W        W24419  29.515   5.448  13.248
51995W        W24420  23.769   7.975   2.801
51996W        W24421  37.492  36.958   3.313
51997W        W24422  41.324  21.281   4.739
51998W        W24423  31.928   0.006  12.543
51999W        W24424  15.309  19.661  13.459
52000W        W24425  10.586  39.935  14.539
52001W        W24426  34.194  29.711   4.062
52002W        W24427  20.713   2.744   0.711
52003W        W24428   3.338  19.790   0.709
52004W        W24429  24.463  30.577   3.568
52005W        W24430  18.544   2.776  12.053
52006W        W24431   7.943  24.904  13.456
52007W        W24432  10.870  39.956   4.184
52008W        W24433  26.462  25.556  14.973
52009W        W24434  21.899  17.138  12.942
52010W        W24435  14.253  33.595   1.737
52011W        W24436  40.611  13.749   2.259
52012W        W24437  26.965  39.271  11.319
52013W        W24438  41.487  43.828  12.393
52014W        W24439  17.660  33.848  12.020
52015W        W24440  28.169  18.043  10.612
52016W        W24441  42.889  12.311   2.303
52017W        W24442  13.453  18.317   1.386
52018W        W24443  20.624  43.507  12.048
52019W        W24444   6.335  41.880   1.257
52020W        W24445  24.756  28.561  14.293
52021W        W24446  37.456  30.668   2.960
52022W        W24447  36.547  31.612  11.658
52023W        W24448  33.383   4.796  11.674
52024W        W24449  27.168  17.359   2.854
52025W        W24450  25.172  17.721  13.011
52026W        W24451  17.711   0.308   3.836
52027W        W24452  24.184   4.306   4.978
52028W        W24453  42.776  34.391  14.088
52029W        W24454   6.651  13.594  11.562
52030W        W24455  25.263  14.541   3.131
52031W        W24456   0.734  42.649  11.110
52032W        W24457  33.452  24.490  13.711
52033W        W24458  27.033  28.643  12.668
52034W        W24459  44.198  27.484   4.028
52035W        W24460  26.119  26.929  10.371
52036W        W24461  14.793  24.645   4.296
52037W        W24462  21.290  20.610   3.669
52038W        W24463  18.731  21.372   3.215
52039W        W24464  19.210  11.330   2.406
52040W        W24465   3.162  40.703  12.029
52041W        W24466  31.760  44.646   0.865
52042W        W24467  39.617  13.138  11.533
52043W        W24468  22.404  21.726  13.828
52044W        W24469  44.737  43.393  12.095
52045W        W24470  11.318  38.065  13.878
52046W        W24471  30.938  34.186   1.892
52047W        W24472  15.861  41.008   2.268
52048W        W24473  24.851  24.295   2.747
52049W        W24474  31.907  36.023   4.589
52050W        W24475  35.370  32.106   2.166
52051W        W24476  22.666   9.642  13.984
52052W        W24477   0.345  23.238  11.940
52053W        W24478  22.795  20.127   0.030
52054W        W24479  13.495   9.249  11.978
52055W        W24480   0.720  16.292   3.138
52056W        W24481   6.242  20.951  11.190
52057W        W24482  33.580  14.517  11.610
52058W        W24483  23.180  22.087   0.973
52059W        W24484  43.314  36.359  11.983
52060W        W24485  25.911  30.427  12.309
52061W        W24486  28.238   7.847   1.288
52062W        W24487  24.330  19.713  11.585
52063W        W24488  14.366  27.653   2.864
52064W        W24489  38.989  30.908   0.251
52065W        W24490  28.913  12.566   0.703
52066W        W24491  13.283  12.015   1.223
52067W        W24492  25.432  32.357  13.097
52068W        W24493  19.011  21.134   0.488
52069W        W24494  37.081  37.139  13.272
52070W        W24495  11.442  36.027  11.001
52071W        W24496  26.689  32.358  13.881
52072W        W24497  30.626  33.099  13.415
52073W        W24498   0.973  28.719   0.814
52074W        W24499  35.446  10.244  13.612
52075W        W24500  13.107  34.956   2.320
52076W        W24501  33.581  41.587   2.155
52077W        W24502   3.887  16.759   3.600
52078W        W24503  32.549  16.433  11.585
52079W        W24504  25.432   5.676   0.736
52080W        W24505  39.453  32.969  14.561
52081W        W24506  40.830  10.166   3.358
52082W        W24507  25.313  15.117   0.740
52083W        W24508  38.044   6.129   1.348
52084W        W24509   3.803  18.603   3.313
52085W        W24510  43.353   6.671  11.168
52086W        W24511   9.917   0.371  11.564
52087W        W24512  10.781  24.445  13.202
52088W        W24513  28.494  12.223  13.032
52089W        W24514  25.991   8.647   0.798
52090W        W24515  31.480  17.706   4.663
52091W        W24516   4.374  19.396   4.113
52092W        W24517  16.840  35.847   4.274
52093W        W24518  33.034   7.838   2.729
52094W        W24519  25.121   8.435   3.356
52095W        W24520  42.005   1.362  14.927
52096W        W24521   3.459   5.850   1.352
52097W        W24522   8.472   8.217   0.801
52098W        W24523  15.245   3.556   1.881
52099W        W24524  13.180   3.736   3.796
52100W        W24525  27.432  12.430   2.325
52101W        W24526  36.644  14.059  11.026
52102W        W24527  35.331   7.477  11.427
52103W        W24528  11.729  31.483   4.593
52104W        W24529  26.968  28.837   5.009
52105W        W24530   6.891   3.045  11.616
52106W        W24531  12.140  37.051   1.260
52107W        W24532  24.700  13.641  10.673
52108W        W24533   5.255  17.061  11.547
52109W        W24534   1.995  26.982   1.140
52110W        W24535  33.059  16.991   2.794
52111W        W24536  16.615  23.730   3.761
52112W        W24537  34.535  40.925   3.610
52113W        W24538  15.453   0.435  14.939
52114W        W24539  26.438  16.562   3.343
52115W        W24540  33.641  18.728  11.173
52116W        W24541   9.240   0.834  11.339
52117W        W24542  39.742  16.207   4.192
52118W        W24543  22.010   3.486   2.965
52119W        W24544  22.807  30.242   1.915
52120W        W24545  40.506  23.923   2.359
52121W        W24546  13.210  35.710   2.157
52122W        W24547   2.311  28.545   3.866
52123W        W24548   4.160  44.329  11.385
52124W        W24549  29.143   4.480   0.378
52125W        W24550  15.388   4.450  11.665
52126W        W24551  28.673  35.557  14.055
52127W        W24552  21.176   8.893  14.763
52128W        W24553  18.770  32.169  11.203
52129W        W24554  12.799  12.169   1.383
52130W        W24555  17.041  11.639  13.036
52131W        W24556  24.039   0.988   0.402
52132W        W24557  35.564  43.907   1.408
52133W        W24558  17.545  38.153   0.426
52134W        W24559  42.407   7.346   1.766
52135W        W24560  37.889   8.718  11.060
52136W        W24561  11.450  25.691   2.553
52137W        W24562  22.054   3.261  11.940
52138W        W24563  11.098  14.788  10.780
52139W        W24564   1.705  10.425  13.783
52140W        W24565  20.892  32.557  13.832
52141W        W24566  37.333  17.564  12.005
52142W        W24567  32.107  39.327   2.703
52143W        W24568  28.081   3.973  13.572
52144W        W24569  19.181  35.866  10.632
52145W        W24570  22.561  32.917   0.879
52146W        W24571   8.380   6.284  14.421
52147W        W24572  18.030   5.320  14.465
52148W        W24573   3.983  10.750  12.916
52149W        W24574   6.782  28.557  12.804
52150W        W24575   6.511  27.191  14.686
52151W        W24576  11.563  12.216  13.015
52152W        W24577   3.434  28.157   3.705
52153W        W24578  20.354  23.619   3.300
52154W        W24579  33.175  35.772  13.866
52155W        W24580  29.146  21.278   5.188
52156W        W24581  18.848  12.706  13.896
52157W        W24582  14.048  39.590   1.139
52158W        W24583  35.035   4.497   0.840
52159W        W24584  36.080  14.666  14.691
52160W        W24585  25.203  38.567   2.720
52161W        W24586  30.850  22.073   4.952
52162W        W24587  20.939  22.366  10.648
52163W        W24588   5.731  38.029   4.230
52164W        W24589  11.776  23.543   3.007
52165W        W24590  42.532   4.168   4.509
52166W        W24591  38.084   5.255   2.722
52167W        W24592  44.888  27.616  14.516
52168W        W24593  42.944  28.488   2.157
52169W        W24594   7.118  24.663   3.683
52170W        W24595  31.576  19.490   4.555
52171W        W24596  39.837  41.522   4.683
52172W        W24597  21.090   1.991  10.699
52173W        W24598  13.246  17.244  13.519
52174W        W24599  20.207  44.858  13.049
52175W        W24600  38.898   8.429   1.929
52176W        W24601  20.947  25.241  12.579
52177W        W24602  12.846  29.529   2.400
52178W        W24603  17.800  26.101   2.220
52179W        W24604  41.998   4.913   2.309
52180W        W24605  28.995  40.545   1.675
52181W        W24606   9.152  16.593   2.148
52182W        W24607  42.380  35.596   3.330
52183W        W24608  17.040  11.767  13.553
52184W        W24609  29.627   2.239   1.383
52185W        W24610  39.427  19.177  14.865
52186W        W24611   3.421  33.508   5.159
52187W        W24612  19.558   6.300   0.660
52188W        W24613   7.796  22.719  14.473
52189W        W24614  40.976  31.753  14.901
52190W        W24615  38.535  24.692  10.681
52191W        W24616   3.773  27.116   4.605
52192W        W24617  28.047   7.383  14.232
52193W        W24618  34.922  25.883  11.535
52194W        W24619   1.889  19.042  14.623
52195W        W24620   4.938  26.177  11.050
52196W        W24621  32.888   1.216   3.320
52197W        W24622   2.776  32.193  10.749
52198W        W24623  30.980  39.363  10.640
52199W        W24624  31.148  15.369  13.593
52200W        W24625  19.782   0.945   5.012
52201W        W24626  36.526  26.935   4.027
52202W        W24627  43.923  17.197  14.423
52203W        W24628  18.114  31.442  14.190
52204W        W24629  32.550  39.092  12.460
52205W        W24630  30.087  19.982  12.602
52206W        W24631   1.281  37.431  12.953
52207W        W24632  15.476  30.031   0.648
52208W        W24633   7.116  16.797  12.589
52209W        W24634  11.051  15.845   4.565
52210W        W24635  37.514  18.939   4.897
52211W        W24636   2.236   8.958   2.477
52212W        W24637  32.358   1.438  14.328
52213W        W24638  30.936  36.150  14.997
52214W        W24639  23.206   8.191   2.869
52215W        W24640  21.198  14.565   1.667
52216W        W24641   9.944  39.470  12.443
52217W        W24642  10.364   4.977   3.234
52218W        W24643  28.206   0.826  14.833
52219W        W24644  40.867  16.175   3.300
52220W        W24645  25.267  23.046  10.727
52221W        W24646   1.456  43.908   4.608
52222W        W24647   2.489  37.370  14.416
52223W        W24648  41.240   4.934  10.590
52224W        W24649  13.222  28.220   1.331
52225W        W24650   5.843  38.922   2.821
52226W        W24651   1.448  43.208  12.080
52227W        W24652  13.508   4.341   1.777
52228W        W24653  28.953  44.736  13.503
52229W        W24654   2.151  14.360   4.107
52230W        W24655  38.792  20.969  12.969
52231W        W24656   2.240  41.121   0.964
52232W        W24657  40.569  38.400  14.833
52233W        W24658  29.670   8.899   0.591
52234W        W24659   7.873  13.347   2.456
52235W        W24660  34.976   1.948   4.215
52236W        W24661  44.205  37.706  14.566
52237W        W24662   5.046   4.902  11.172
52238W        W24663  30.320  12.417   3.107
52239W        W24664   1.562  38.018  12.361
52240W        W24665  28.987   4.660   1.704
52241W        W24666  22.272  16.156  13.834
52242W        W24667  18.116  17.994  11.171
52243W        W24668   4.858  26.923   0.587
52244W        W24669   8.738  15.222  13.551
52245W        W24670  43.938   9.750   0.805
52246W        W24671   8.688  35.943   1.602
52247W        W24672  14.379  22.845   2.262
52248W        W24673  11.165  35.868  11.481
52249W        W24674  35.076  39.430  10.473
52250W        W24675  40.840   2.754  14.356
52251W        W24676  29.682  19.557  10.673
52252W        W24677  33.049  16.753   4.764
52253W        W24678  43.265  31.232  12.356
52254W        W24679  11.353  38.549   4.020
52255W        W24680   9.876  38.806   1.325
52256W        W24681  19.821  19.496   4.000
52257W        W24682   6.147  30.474   3.100
52258W        W24683  11.260  30.716  11.400
52259W        W24684  16.061  13.326   4.226
52260W        W24685  29.097  11.144   4.481
52261W        W24686  33.355  34.577   0.750
52262W        W24687   8.845   9.398   0.607
52263W        W24688  39.909  18.685  10.655
52264W        W24689   4.971  43.909   4.571
52265W        W24690  15.234  21.008   3.695
52266W        W24691  23.802  24.143  14.823
52267W        W24692  30.221  18.118   2.227
52268W        W24693  40.780  38.138  12.159
52269W        W24694  32.868  39.795  11.578
52270W        W24695  29.045  40.222  13.725
52271W        W24696  33.779   8.485  11.074
52272W        W24697  41.465  21.576   2.809
52273W        W24698   1.979  31.837   1.803
52274W        W24699  21.191  13.573   1.242
52275W        W24700   0.162  19.612  13.565
52276W        W24701  29.528   8.829   1.082
52277W        W24702  31.606  31.270   3.174
52278W        W24703  37.287  14.274   3.882
52279W        W24704  40.958   3.363   1.578
52280W        W24705  44.691   6.342  13.870
52281W        W24706   7.167  21.599  13.038
52282W        W24707  28.474  19.033  13.913
52283W        W24708  35.562  19.597   3.526
52284W        W24709   6.663  18.345  11.740
52285W        W24710  19.644  37.030  14.111
52286W        W24711  11.593   7.046  13.601
52287W        W24712  43.621  29.401   3.251
52288W        W24713  13.162  14.680  14.045
52289W        W24714  13.913  31.642   4.137
52290W        W24715  17.167  27.365   4.476
52291W        W24716   9.802  32.482  12.796
52292W        W24717  12.147  11.598  12.480
52293W        W24718  13.916  26.455  14.827
52294W        W24719  28.694  43.840  13.045
52295W        W24720  18.724  11.062  11.629
52296W        W24721  39.591  39.528   0.879
52297W        W24722  24.377  23.568   0.937
52298W        W24723   1.383  20.210  12.411
52299W        W24724  36.580  13.730   2.727
52300W        W24725  13.186   1.317  13.552
52301W        W24726   6.722  12.653  14.564
52302W        W24727  19.987   1.244   2.829
52303W        W24728  15.074  13.655   3.286
52304W        W24729  34.052  17.863   0.839
52305W        W24730  42.383  18.073  11.124
52306W        W24731  19.144  41.174  11.977
52307W        W24732  16.394  24.184  13.460
52308W        W24733   8.903  10.571  11.475
52309W        W24734   4.232  40.859  13.461
52310W        W24735  14.707  32.822  12.478
52311W        W24736   8.755  27.596   1.995
52312W        W24737  40.915  11.423   3.878
52313W        W24738  27.533  38.263   1.795
52314W        W24739   4.265  26.380   4.745
52315W        W24740   5.017   9.853   0.457
52316W        W24741  34.415  10.273   0.815
52317W        W24742  41.793   5.930   4.129
52318W        W24743  40.346  20.269   4.657
52319W        W24744  23.930  11.724   0.702
52320W        W24745  40.762  43.959   1.418
52321W        W24746  18.692   3.676   1.187
52322W        W24747   4.727  13.397  14.667
52323W        W24748  10.277  34.110   3.263
52324W        W24749   5.267  40.750   3.828
52325W        W24750   4.819  16.769   3.621
52326W        W24751  29.190   1.343  12.114
52327W        W24752  13.041  42.888   3.158
52328W        W24753  38.409   6.646  13.468
52329W        W24754  22.767  13.706  12.384
52330W        W24755  38.356   1.502   1.796
52331W        W24756  15.771  18.975  12.557
52332W        W24757  26.932  31.517   5.417
52333W        W24758  36.804  39.353   3.089
52334W        W24759  40.334  19.208   2.696
52335W        W24760   6.869   9.860  12.541
52336W        W24761  38.196  13.224  14.279
52337W        W24762   7.724  13.886   1.839
52338W        W24763  11.366  12.220  11.114
52339W        W24764   1.058  34.602  12.904
52340W        W24765   8.937   9.677  13.164
52341W        W24766  36.899   7.437  13.872
52342W        W24767  26.851  17.196  11.679
52343W        W24768   4.732   6.169   3.189
52344W        W24769  20.045  36.649  12.593
52345W        W24770  30.048  10.411  11.526
52346W        W24771  21.011  41.816  14.436
52347W        W24772   4.821  32.855   2.369
52348W        W24773  37.873  25.052  11.098
52349W        W24774  32.093  32.546   3.740
52350W        W24775  23.235  43.040  11.420
52351W        W24776   1.227  14.998  12.034
52352W        W24777  13.598  25.640  13.794
52353W        W24778  39.218  24.179  14.850
52354W        W24779  34.473  30.165   1.678
52355W        W24780  22.446   5.348  11.538
52356W        W24781   2.359   6.425   0.307
52357W        W24782  42.293   0.437  12.940
52358W        W24783  24.814  22.163  12.423
52359W        W24784  34.265  10.099   0.101
52360W        W24785   9.359  30.992   2.930
52361W        W24786  22.603  42.311   1.961
52362W        W24787  40.211   7.655   3.613
52363W        W24788  38.588   0.814  12.931
52364W        W24789  25.072  11.851   4.503
52365W        W24790  17.228  28.939  11.644
52366W        W24791  10.896   9.402  13.568
52367W        W24792  34.200  30.645   4.167
52368W        W24793  23.909  39.795   0.031
52369W        W24794  28.682   3.376   4.171
52370W        W24795  27.702   0.345  12.391
52371W        W24796   3.417  30.922  12.143
52372W        W24797   8.914  17.113   2.222
52373W        W24798  14.844  11.891   1.173
52374W        W24799   7.748  21.159   0.320
52375W        W24800  23.267  23.049   0.504
52376W        W24801  34.953  34.821   3.708
52377W        W24802  12.795  10.172  12.561
52378W        W24803   4.975  15.310  11.931
52379W        W24804  30.954  36.425   0.450
52380W        W24805  39.609  23.153   4.677
52381W        W24806  16.104  14.562  12.468
52382W        W24807  12.475   9.747   0.183
52383W        W24808  20.180  26.044  10.427
52384W        W24809  21.730   6.875   4.120
52385W        W24810  24.192   5.594  12.948
52386W        W24811  44.191  14.816   5.013
52387W        W24812  30.635   6.722  14.857
52388W        W24813  18.051  32.979  14.865
52389W        W24814  27.483  14.779   4.449
52390W        W24815   5.996  38.361  11.859
52391W        W24816   4.746  30.527   0.872
52392W        W24817  33.966  25.625  12.563
52393W        W24818  18.882  35.632   5.141
52394W        W24819  32.153  10.724   2.829
52395W        W24820  18.523  36.160   0.431
52396W        W24821   2.904  14.498  13.974
52397W        W24822  27.625  27.992  12.182
52398W        W24823  15.297  11.852   3.761
52399W        W24824   9.039  28.930   2.098
52400W        W24825  28.182  30.085   2.915
52401W        W24826  25.523  16.760  11.162
52402W        W24827  18.046  15.239   0.076
52403W        W24828  12.846  40.435   2.815
52404W        W24829  12.259  35.171   0.410
52405W        W24830  43.988  21.964  14.828
52406W        W24831  35.339  40.998   2.421
52407W        W24832  42.035  25.539   0.371
52408W        W24833  37.591   2.967   3.235
52409W        W24834  20.813  30.591   3.426
52410W        W24835  42.771  40.447  12.861
52411W        W24836   9.316  37.078   1.838
52412W        W24837   7.590  37.504   1.189
52413W        W24838   2.829   4.239  14.057
52414W        W24839  12.079  42.865  14.427
52415W        W24840   8.119  30.940  12.828
52416W        W24841  43.975   8.296  14.568
52417W        W24842  29.524  38.397   2.904
52418W        W24843  37.437   9.765   1.338
52419W        W24844   6.457  29.400   1.780
52420W        W24845  40.273  10.918  14.342
52421W        W24846  27.481  38.441  13.017
52422W        W24847  43.769  24.485   3.619
52423W        W24848  22.188  33.414   1.449
52424W        W24849  34.513  43.908  10.949
52425W        W24850  42.887   1.332   2.745
52426W        W24851   3.750  19.795  14.875
52427W        W24852  43.759   6.629  11.527
52428W        W24853  27.278  42.095  14.355
52429W        W24854  28.654   7.413   4.143
52430W        W24855  30.132  34.084   1.297
52431W        W24856  33.544  19.762  13.992
52432W        W24857  33.466  10.308  11.887
52433W        W24858  19.183  33.662  14.644
52434W        W24859  20.737  20.239   1.015
52435W        W24860  19.254  13.508  12.126
52436W        W24861  26.640  15.793   4.248
52437W        W24862   9.694  33.053   1.000
52438W        W24863  11.298   8.448   4.565
52439W        W24864  26.907  35.466   4.430
52440W        W24865  43.979  38.106   1.445
52441W        W24866  36.355  33.887   1.277
52442W        W24867   6.672  10.070  11.511
52443W        W24868  14.288  28.990  11.241
52444W        W24869   2.217   4.505   2.353
52445W        W24870   2.519  14.047  11.131
52446W        W24871  22.628  38.996  11.381
52447W        W24872  13.835   9.837   0.078
52448W        W24873  30.867  16.197  13.889
52449W        W24874  18.791   4.418   2.361
52450W        W24875  28.641  33.510   3.155
52451W        W24876  43.990  20.284   4.210
52452W        W24877  36.513  25.221  13.441
52453W        W24878  37.261  41.763  13.052
52454W        W24879  20.140  23.797   2.235
52455W        W24880  31.654  20.045  13.820
52456W        W24881  25.894  34.060   1.311
52457W        W24882  18.378  42.005   3.184
52458W        W24883  20.562  35.583  12.336
52459W        W24884   4.269   5.280   1.853
52460W        W24885   5.786  32.379  11.525
52461W        W24886  26.234  41.471   1.543
52462W        W24887  22.206  34.422   2.572
52463W        W24888  40.913  39.869   2.675
52464W        W24889  37.482  12.291  11.485
52465W        W24890   7.715  36.048   1.599
52466W        W24891  32.402  31.724  12.219
52467W        W24892  33.899  18.286   4.008
52468W        W24893   3.704  13.357  14.896
52469W        W24894  24.794  14.135  13.499
52470W        W24895  17.966  21.036   2.714
52471W        W24896  12.229  17.559  12.822
52472W        W24897  11.139  41.237  12.866
52473W        W24898  33.138   0.852   2.708
52474W        W24899  15.415  13.610  11.883
52475W        W24900  17.024  34.096   0.953
52476W        W24901  13.951   8.889  10.773
52477W        W24902  33.404  18.320   4.099
52478W        W24903  43.140  39.311  12.033
52479W        W24904  39.380  33.902   3.839
52480W        W24905   4.789  30.508  14.766
52481W        W24906  37.771  21.270   4.840
52482W        W24907  27.621  15.805   4.153
52483W        W24908   0.417  16.487  12.098
52484W        W24909  36.587  24.039   2.386
52485W        W24910  16.091  11.994   3.797
52486W        W24911  44.273  35.034  10.938
52487W        W24912  39.527  25.582  10.392
52488W        W24913  40.069  40.968   2.668
52489W        W24914  20.076  35.673   1.960
52490W        W24915  28.210   0.364   0.913
52491W        W24916  23.814  23.320  13.582
52492W        W24917  20.744  14.227  12.395
52493W        W24918   2.322  25.112   4.370
52494W        W24919   4.685   7.889   0.296
52495W        W24920   7.746   4.820  13.573
52496W        W24921  43.533  14.125   3.222
52497W        W24922  16.664  19.679   3.375
52498W        W24923  17.172  41.473  11.167
52499W        W24924  43.260  44.378  12.039
52500W        W24925  23.610  14.608  12.901
52501W        W24926  18.005  13.658  12.482
52502W        W24927  34.114  14.580   3.861
52503W        W24928  39.464  17.283   1.904
52504W        W24929  34.306   7.883  13.844
52505W        W24930  35.043  11.425   0.399
52506W        W24931  19.259  43.924  13.881
52507W        W24932  42.903  12.005  10.584
52508W        W24933  27.939  33.436  11.515
52509W        W24934  32.010  21.586  13.091
52510W        W24935  26.673  26.551   0.740
52511W        W24936   1.773  31.618   2.828
52512W        W24937   0.110  43.309   2.480
52513W        W24938  19.099  36.948  14.555
52514W        W24939  42.821  42.500  13.860
52515W        W24940  42.346  26.879  13.202
52516W        W24941  34.911  44.220  13.736
52517W        W24942  30.946  23.527   3.185
52518W        W24943  42.976   5.737   3.552
52519W        W24944  26.245   0.756  14.975
52520W        W24945   3.900   6.476  11.507
52521W        W24946   9.909  34.239   4.148
52522W        W24947  44.238  25.090   0.222
52523W        W24948  20.364  23.130  11.132
52524W        W24949  43.625  28.224   1.123
52525W        W24950  40.396  19.714  14.981
52526W        W24951  21.289  36.063  11.503
52527W        W24952  34.182  40.314  14.690
52528W        W24953  31.675   0.240  13.621
52529W        W24954  40.069  19.105  14.519
52530W        W24955  35.724   4.300   2.188
52531W        W24956   0.242  34.820   0.385
52532W        W24957  22.476   1.897   3.626
52533W        W24958  11.847  39.272   0.997
52534W        W24959  11.787  17.477   3.069
52535W        W24960   9.218  35.142   3.250
52536W        W24961   6.342  28.714   0.970
52537W        W24962   8.584  30.102   2.812
52538W        W24963   5.803  32.561   3.360
52539W        W24964  32.584   6.724   0.046
52540W        W24965  20.196  13.118   2.315
52541W        W24966  30.175  16.055  10.522
52542W        W24967  33.121  25.732  14.620
52543W        W24968   9.185  21.201  11.178
52544W        W24969  10.161  10.663  12.990
52545W        W24970  37.466  27.683   1.173
52546W        W24971  32.132  40.488  14.813
52547W        W24972   7.390  24.376  12.002
52548W        W24973  21.943  24.113   0.265
52549W        W24974  24.603   8.224  13.912
52550W        W24975   0.421  26.745  10.158
52551W        W24976  26.709   4.850   0.527
52552W        W24977   8.140  33.328   4.927
52553W        W24978  16.422  18.015  14.844
52554W        W24979  36.585   2.996   2.322
52555W        W24980  22.135  30.494   0.761
52556W        W24981  44.675  30.532  12.444
52557W        W24982  17.817   1.889   2.922
52558W        W24983  33.499  23.714   1.732
52559W        W24984  33.777  26.196   1.774
52560W        W24985  15.796   9.432   2.171
52561W        W24986  44.932   3.542   2.830
52562W        W24987  38.756   0.449  10.258
52563W        W24988   2.499  26.120   0.864
52564W        W24989  32.105   3.552   3.275
52565W        W24990  33.094   5.661   4.627
52566W        W24991  38.764  34.582  13.020
52567W        W24992  23.297  19.244   3.116
52568W        W24993  12.112   2.188  13.827
52569W        W24994  32.495  17.141  13.848
52570W        W24995  19.192  24.076  13.549
52571W        W24996  21.539  34.356  13.936
52572W        W24997   1.675   3.730   2.545
52573W        W24998   6.321   3.112  11.159
52574W        W24999  40.289  33.880   4.523
52575W        W25000  34.078  20.154  10.918
52576W        W25001  13.887   2.876  13.479
52577W        W25002  39.802  29.960   2.854
52578W        W25003  40.335  15.531   2.754
52579W        W25004  39.016  33.565  11.631
52580W        W25005  43.380  19.595   3.829
52581W        W25006  13.240   4.699   2.035
52582W        W25007  28.663  35.940  12.568
52583W        W25008  29.390  34.576  14.918
52584W        W25009  22.511  26.559   2.979
52585W        W25010  12.800   1.902   0.252
52586W        W25011  15.060  26.433   0.433
52587W        W25012  39.335   2.969   4.764
52588W        W25013  29.189  12.614   0.250
52589W        W25014   8.650  41.458   0.494
52590W        W25015  23.026  10.138   4.672
52591W        W25016  34.638  10.028  11.999
52592W        W25017  20.134   8.847  11.010
52593W        W25018  10.775  29.970   3.798
52594W        W25019  40.828   7.717   4.228
52595W        W25020   0.747   6.788  12.493
52596W        W25021  10.090  30.682   4.648
52597W        W25022  23.621   8.468   3.862
52598W        W25023  33.485  25.423  12.445
52599W        W25024  26.462  39.396   4.612
52600W        W25025  16.731  36.415   2.433
52601W        W25026  42.350  31.966   0.790
52602W        W25027  34.086  35.234   2.718
52603W        W25028  20.036  33.187   4.097
52604W        W25029  21.727  10.870  13.069
52605W        W25030  30.393  38.372  11.134
52606W        W25031   5.239  32.708  10.678
52607W        W25032  10.837  37.107   1.726
52608W        W25033  21.863  32.416   2.714
52609W        W25034  35.924  27.281  14.945
52610W        W25035  23.645   4.914   4.377
52611W        W25036   9.577   8.741   2.616
52612W        W25037   7.409   0.391   3.692
52613W        W25038  43.273  36.665  13.930
52614W        W25039  28.206   2.354   1.423
52615W        W25040  21.402  17.212  10.282
52616W        W25041  18.559  34.486   4.287
52617W        W25042  33.010  21.530  13.996
52618W        W25043  10.157  12.584   3.137
52619W        W25044   3.238  25.397  13.444
52620W        W25045  24.182  14.363   0.906
52621W        W25046  11.989  34.931  10.958
52622W        W25047  24.669  31.735   0.844
52623W        W25048  35.406  15.791  12.822
52624W        W25049  12.694  24.459  12.061
52625W        W25050  32.546  34.826   3.254
52626W        W25051  23.528  12.058   2.355
52627W        W25052  23.073  29.714  14.541
52628W        W25053  16.823  31.936   9.932
52629W        W25054  22.603  18.663   2.007
52630W        W25055   3.047   2.329   4.581
52631W        W25056  12.070  37.047  12.556
52632W        W25057   9.945  39.738  12.890
52633W        W25058  39.044  33.293   4.058
52634W        W25059  10.028  12.623   4.516
52635W        W25060  38.317  32.928   0.243
52636W        W25061  25.471   7.074   0.533
52637W        W25062  23.480  34.092  13.827
52638W        W25063  20.621  10.730  10.864
52639W        W25064  31.421  18.751   3.177
52640W        W25065  28.668  25.972   2.855
52641W        W25066  33.654  40.670   3.954
52642W        W25067   7.200  33.673   2.911
52643W        W25068  11.118  20.212  13.333
52644W        W25069  15.131  26.880  14.333
52645W        W25070   0.407   8.778  13.934
52646W        W25071  34.492  25.512  14.505
52647W        W25072  14.251   2.721   0.810
52648W        W25073  12.358  40.785   1.299
52649W        W25074  37.504  29.100  13.566
52650W        W25075   2.150   2.996  11.431
52651W        W25076  28.207  40.856   1.919
52652W        W25077  18.143  36.791  10.674
52653W        W25078  21.540  34.376   0.492
52654W        W25079  39.779  44.914   3.269
52655W        W25080  34.969  24.126   4.908
52656W        W25081   0.708  13.357  11.137
52657W        W25082  19.759  24.483  12.591
52658W        W25083   2.672  18.152   4.702
52659W        W25084  34.764  43.853   1.870
52660W        W25085  11.753  34.274  13.822
52661W        W25086  16.293  13.065  11.205
52662W        W25087  22.076  36.185  13.826
52663W        W25088  38.530  43.367  13.994
52664W        W25089  23.039  35.050   0.849
52665W        W25090  41.763  17.632   1.385
52666W        W25091  24.325  21.985  12.354
52667W        W25092   4.315  43.632  14.469
52668W        W25093  38.736  22.223  14.319
52669W        W25094   4.855  33.718   2.670
52670W        W25095  41.822   8.945   1.337
52671W        W25096  23.025  34.817  13.281
52672W        W25097  43.743  44.397   0.854
52673W        W25098   5.847  35.344  12.588
52674W        W25099   6.133  34.382   0.229
52675W        W25100  15.273  44.499   4.613
52676W        W25101  26.906  27.495  13.447
52677W        W25102  28.887  19.292   1.704
52678W        W25103  30.046  16.265  10.987
52679W        W25104  22.124  17.745   0.847
52680W        W25105  10.183  42.878  10.676
52681W        W25106  35.477  42.416   2.379
52682W        W25107  20.128  39.039   4.093
52683W        W25108  44.994  13.637  14.017
52684W        W25109  43.755  44.875  10.695
52685W        W25110  15.327  14.770   0.796
52686W        W25111  13.632   3.064   4.931
52687W        W25112  17.733  23.184  12.970
52688W        W25113   7.387  17.464  13.913
52689W        W25114   6.669  15.260   3.405
52690W        W25115  37.073  34.814  11.761
52691W        W25116  40.053  26.650  10.683
52692W        W25117  29.737  43.919  14.349
52693W        W25118  24.330  13.651  14.288
52694W        W25119  13.798  41.904   0.317
52695W        W25120  41.911  44.057   3.553
52696W        W25121  13.779  31.362  13.092
52697W        W25122  19.017   0.226   2.347
52698W        W25123   8.115  23.250  12.649
52699W        W25124  33.654  17.302  13.460
52700W        W25125  44.034  29.442   1.856
52701W        W25126  33.188  44.168   0.962
52702W        W25127  32.116  40.817   0.232
52703W        W25128  13.114  30.403   2.327
52704W        W25129  22.490  24.725  13.476
52705W        W25130  30.916  33.326  10.711
52706W        W25131  32.586  40.436  14.565
52707W        W25132   5.478  26.519  14.556
52708W        W25133   0.521  13.652  12.413
52709W        W25134  23.186  33.425  14.907
52710W        W25135  19.615  32.070  11.213
52711W        W25136   0.302  13.303   0.674
52712W        W25137   9.320  34.139   3.137
52713W        W25138  16.063  41.010  12.403
52714W        W25139  11.699  39.575  14.548
52715W        W25140  14.050  43.508  11.098
52716W        W25141  14.629  13.109  11.429
52717W        W25142  35.403  36.874   0.333
52718W        W25143  11.160  20.005  11.528
52719W        W25144  37.988  40.512  11.103
52720W        W25145   1.658  26.158  14.555
52721W        W25146   0.982  33.575   2.603
52722W        W25147  28.660   9.316   4.310
52723W        W25148  33.336  44.456  10.286
52724W        W25149  10.841  35.097   2.835
52725W        W25150  37.063   2.522   3.741
52726W        W25151  15.067  33.420  13.997
52727W        W25152  23.932   6.969  13.306
52728W        W25153   4.386   2.941  11.106
52729W        W25154  18.809  42.161  13.837
52730W        W25155  10.282  38.096  10.865
52731W        W25156  38.968  24.342  11.566
52732W        W25157  21.559  43.049   1.937
52733W        W25158  37.853  30.044   3.402
52734W        W25159  15.354  41.793   1.308
52735W        W25160  11.934  33.042   3.167
52736W        W25161  38.517  12.317  12.576
52737W        W25162  30.406   3.412  14.556
52738W        W25163  42.903  38.819   0.766
52739W        W25164  27.445  32.992  10.412
52740W        W25165  25.709  33.806  12.475
52741W        W25166  19.552  28.803  14.380
52742W        W25167   0.303   2.668  10.727
52743W        W25168  26.609  31.102   1.336
52744W        W25169  37.945   7.716  11.126
52745W        W25170  27.040   9.265  10.529
52746W        W25171  36.093  40.917   3.660
52747W        W25172  29.694  10.580   3.828
52748W        W25173   5.424   4.515  14.496
52749W        W25174  28.312   4.792   3.224
52750W        W25175   4.445  44.819   2.973
52751W        W25176  36.804  14.701  14.821
52752W        W25177  17.150  25.946  12.939
52753W        W25178  13.075   7.238   3.210
52754W        W25179  44.260  44.305   0.729
52755W        W25180  43.220  44.488   0.725
52756W        W25181  18.830   5.245   3.131
52757W        W25182  21.636  35.622  12.256
52758W        W25183  34.861  36.970   2.703
52759W        W25184   7.316  10.672   3.736
52760W        W25185  40.498  44.300   3.649
52761W        W25186  12.540  37.409  11.061
52762W        W25187  41.788  12.027  13.475
52763W        W25188  38.462  24.993   3.793
52764W        W25189  43.047   4.156   0.379
52765W        W25190  33.114  36.245   3.271
52766W        W25191  12.089   4.164   1.924
52767W        W25192  43.165  15.603  13.855
52768W        W25193  16.284  42.364   4.569
52769W        W25194   3.310  32.526  12.543
52770W        W25195  11.154  25.412   3.743
52771W        W25196   3.256  34.417   1.388
52772W        W25197   1.726   3.789   4.385
52773W        W25198  34.540  39.541   1.169
52774W        W25199  27.146  43.844   1.857
52775W        W25200  29.674  42.723   2.780
52776W        W25201  36.088  11.288   1.397
52777W        W25202  17.648  27.657   1.282
52778W        W25203  36.021  34.010  11.125
52779W        W25204  23.874  23.496  14.300
52780W        W25205   3.368  43.001   3.783
52781W        W25206  34.085  42.897  13.844
52782W        W25207  14.171   9.755   4.185
52783W        W25208  23.458   6.551   0.430
52784W        W25209   8.149  19.893   2.770
52785W        W25210  32.714  14.337   4.708
52786W        W25211   0.936  43.491   3.605
52787W        W25212   5.881   6.713  10.707
52788W        W25213  16.943  21.042   3.657
52789W        W25214  40.852  13.702  14.970
52790W        W25215   4.408  38.018   3.546
52791W        W25216  16.339  33.264  10.238
52792W        W25217  36.221  13.581  13.875
52793W        W25218  37.623  22.209  13.239
52794W        W25219  12.843  39.413  12.580
52795W        W25220  17.804  17.550  12.534
52796W        W25221  16.562  38.899  12.778
52797W        W25222  11.989  36.126  12.075
52798W        W25223  31.954   0.649  11.432
52799W        W25224  29.496  40.527   4.640
52800W        W25225   6.348  42.309   5.127
52801W        W25226   6.264  44.993   3.259
52802W        W25227  25.350  25.228  14.938
52803W        W25228   0.799  12.277   2.335
52804W        W25229  43.007  22.122   4.016
52805W        W25230  21.097   2.222   1.186
52806W        W25231   6.890  14.092  13.502
52807W        W25232  21.573  17.151  14.397
52808W        W25233  23.733  13.886   1.803
52809W        W25234  15.682  44.345  11.981
52810W        W25235   5.492  15.538   0.310
52811W        W25236  35.980  17.825   0.921
52812W        W25237  36.548  26.874  10.793
52813W        W25238  24.118  16.870  11.112
52814W        W25239  19.198  31.557   3.651
52815W        W25240  28.032  16.721   0.252
52816W        W25241  25.727  19.549   0.201
52817W        W25242   4.315  12.329   5.010
52818W        W25243  16.351   5.639  10.595
52819W        W25244  15.815  39.305   0.312
52820W        W25245  37.444  16.986   4.343
52821W        W25246  44.986  15.730  14.521
52822W        W25247  32.427  43.843  11.641
52823W        W25248  12.339  13.355   0.299
52824W        W25249  40.356  41.278  11.466
52825W        W25250  31.572  25.964  13.919
52826W        W25251  34.556  30.671  12.958
52827W        W25252   8.538  10.623   2.298
52828W        W25253  25.277   9.505   5.071
52829W        W25254  20.251  19.925  13.486
52830W        W25255   3.352  40.253   4.526
52831W        W25256   1.214  19.809  11.596
52832W        W25257   6.172  38.837  11.966
52833W        W25258  35.503   9.669  10.774
52834W        W25259   9.874  15.128  10.322
52835W        W25260  44.956  33.027  11.485
52836W        W25261  43.331  24.541  14.891
52837W        W25262   3.539  44.956  14.605
52838W        W25263  41.274  39.267  12.503
52839W        W25264   1.859  17.723   3.288
52840W        W25265  14.341  27.184  10.629
52841W        W25266  31.114  31.609   4.587
52842W        W25267  12.743  12.071   3.654
52843W        W25268   3.343   3.416   3.184
52844W        W25269  27.862  32.927  11.359
52845W        W25270  40.800  17.542  14.328
52846W        W25271   1.999  21.633  13.594
52847W        W25272   7.395  10.861  12.685
52848W        W25273  16.676  20.173  11.094
52849W        W25274  36.611  29.888  11.506
52850W        W25275  11.902  30.525  12.054
52851W        W25276  35.717  40.971   3.249
52852W        W25277  13.313  41.311  13.530
52853W        W25278  31.871  29.462  14.939
52854W        W25279  41.562  33.942   4.746
52855W        W25280  37.981  14.821   4.815
52856W        W25281   2.199  32.515   1.725
52857W        W25282  38.334  19.129  12.127
52858W        W25283   9.505  30.206  12.398
52859W        W25284  14.745   8.114  12.061
52860W        W25285  23.074   1.777  12.645
52861W        W25286  22.779  22.282  14.397
52862W        W25287   5.481   3.208  14.848
52863W        W25288  21.116  34.613  14.121
52864W        W25289  26.123  13.913  13.640
52865W        W25290   7.496  44.238  13.489
52866W        W25291  16.609  15.805   1.679
52867W        W25292  13.738  17.935   0.758
52868W        W25293  33.779  26.003   0.410
52869W        W25294  16.220  31.801   3.687
52870W        W25295  19.218  34.839  10.689
52871W        W25296  18.037  14.889   3.137
52872W        W25297  19.592  42.484   0.364
52873W        W25298  33.035  32.074  10.689
52874W        W25299  10.767  41.859   1.275
52875W        W25300   0.406  21.130  10.608
52876W        W25301   5.038  26.067  14.982
52877W        W25302   7.320  42.411   2.674
52878W        W25303  17.752  14.854   3.758
52879W        W25304  31.589  23.607  14.985
52880W        W25305   0.700   9.764  11.261
52881W        W25306  21.329  42.061  13.980
52882W        W25307  31.695  16.719   4.234
52883W        W25308  42.503  37.261  14.505
52884W        W25309  39.760   3.117   0.436
52885W        W25310   3.934  12.708   0.290
52886W        W25311  16.303   9.088   1.962
52887W        W25312   1.852  41.797  10.564
52888W        W25313  34.336  13.759  11.931
52889W        W25314  12.120  24.685   5.088
52890W        W25315  44.068  17.043   3.040
52891W        W25316  13.284  25.491   1.950
52892W        W25317   4.355  28.284  13.831
52893W        W25318  11.809   1.436   3.462
52894W        W25319  39.572  13.209  12.956
52895W        W25320   2.694  19.822  11.374
52896W        W25321   4.628  41.270  10.762
52897W        W25322  11.289  37.935   1.944
52898W        W25323  38.085  24.139  13.265
52899W        W25324  13.740  12.117  12.508
52900W        W25325  38.798  27.508   1.326
52901W        W25326   8.291  44.104  11.627
52902W        W25327   0.950  43.828   4.811
52903W        W25328  11.543  17.049  13.001
52904W        W25329   6.371  38.832   1.199
52905W        W25330  18.684  40.541  13.784
52906W        W25331  42.525  34.331  11.424
52907W        W25332   8.668  31.449   0.814
52908W        W25333  10.583  43.124  10.475
52909W        W25334   5.196  37.280  11.406
52910W        W25335  13.850  36.879   2.735
52911W        W25336   7.629  10.955  11.599
52912W        W25337  16.625  39.427  12.795
52913W        W25338   2.803  23.956   3.882
52914W        W25339  13.241  41.021  10.722
52915W        W25340   5.387  13.594  12.978
52916W        W25341  16.534  24.752   2.464
52917W        W25342   0.396   2.481   1.916
52918W        W25343  14.240   3.203  12.794
52919W        W25344  34.362   7.965  14.352
52920W        W25345  37.767   8.070  12.996
52921W        W25346  12.939  41.892   1.886
52922W        W25347  41.813   0.804   2.229
52923W        W25348  19.509   8.786  13.275
52924W        W25349   3.370  17.050  12.566
52925W        W25350  44.649  43.956   4.214
52926W        W25351  10.342  17.082   2.224
52927W        W25352   9.367  11.434   0.319
52928W        W25353  41.708  41.459   4.176
52929W        W25354  35.923   1.480  12.981
52930W        W25355  20.140  17.431   4.683
52931W        W25356  25.052  39.103   0.499
52932W        W25357  31.395  41.442   4.855
52933W        W25358  19.291  10.198  13.873
52934W        W25359  16.280  40.153  12.624
52935W        W25360  37.531  25.238  12.026
52936W        W25361  24.563  14.563   2.575
52937W        W25362  20.088  18.700   0.754
52938W        W25363  36.569  35.163   2.290
52939W        W25364  17.607  38.876  10.558
52940W        W25365   6.304  31.663  10.296
52941W        W25366  40.841  11.877  10.598
52942W        W25367  43.478  24.135  10.643
52943W        W25368  18.665  40.776  11.664
52944W        W25369  37.199  14.197   4.402
52945W        W25370  43.880   1.397  13.635
52946W        W25371  42.630  43.728  11.617
52947W        W25372  37.821  32.042   4.403
52948W        W25373  22.072   7.224   0.903
52949W        W25374  21.750  28.261   3.712
52950W        W25375   3.070  31.237   3.269
52951W        W25376  11.701  11.394  12.255
52952W        W25377  35.525  13.693  14.331
52953W        W25378  42.265   9.122   0.377
52954W        W25379  17.802  19.736   0.243
52955W        W25380  38.917   9.764  12.680
52956W        W25381  32.666   9.052   0.369
52957W        W25382  26.918  32.093   4.596
52958W        W25383  37.755  36.867  10.598
52959W        W25384  42.601  37.374   4.541
52960W        W25385  37.328  38.532   2.462
52961W        W25386  41.563  26.046   2.772
52962W        W25387  15.151  15.889  13.858
52963W        W25388  20.132  30.032   2.378
52964W        W25389  12.142  17.039  14.251
52965W        W25390  24.317  38.913   1.832
52966W        W25391  37.927  40.767   2.975
52967W        W25392  36.356  21.260   3.257
52968W        W25393  35.290  43.036  11.756
52969W        W25394  11.806  18.148  10.274
52970W        W25395  20.756   7.147   1.704
52971W        W25396  17.146  40.423   1.713
52972W        W25397  35.341  32.581  10.611
52973W        W25398  22.071  23.094  14.923
52974W        W25399  39.308  29.220   4.108
52975W        W25400  13.533   2.908   3.936
52976W        W25401  28.726  31.072  13.379
52977W        W25402  29.711  35.406   0.323
52978W        W25403  14.814  32.500  14.888
52979W        W25404  23.850  18.667   4.226
52980W        W25405   8.324  11.746  10.162
52981W        W25406  15.494  41.445   2.276
52982W        W25407  23.643  32.874   0.327
52983W        W25408  27.971  18.987   3.805
52984W        W25409  44.861  23.556   3.730
52985W        W25410  35.054  12.413   3.217
52986W        W25411   8.308  40.150   3.619
52987W        W25412  25.983  34.607  11.467
52988W        W25413  14.331  40.772  14.360
52989W        W25414   3.390   2.209  12.857
52990W        W25415  37.399  28.527  10.998
52991W        W25416  23.197   6.891  11.571
52992W        W25417   6.888  36.886   0.780
52993W        W25418  27.230  23.539   0.354
52994W        W25419  16.685  35.614   0.546
52995W        W25420  33.108  19.280   1.884
52996W        W25421  30.932  38.914  13.424
52997W        W25422  12.721  32.176   1.802
52998W        W25423  23.995   8.455   2.133
52999W        W25424   9.429  31.986  11.590
53000W        W25425  29.519  26.771   4.988
53001W        W25426  15.658   1.268   3.287
53002W        W25427  27.522   2.258   4.714
53003W        W25428  31.766  27.911   2.314
53004W        W25429  15.750   4.805  11.468
53005W        W25430  22.156  41.466  14.854
53006W        W25431  15.685  30.174  12.923
53007W        W25432   3.879   0.287   4.783
53008W        W25433   1.998  30.405  14.416
53009W        W25434  12.460   9.880  12.833
53010W        W25435  23.201  29.128  14.870
53011W        W25436  38.952  25.652  11.125
53012W        W25437  31.165  22.217   0.922
53013W        W25438  29.620   0.981   1.294
53014W        W25439  14.696  16.006   2.452
53015W        W25440  24.100  17.791   1.737
53016W        W25441  25.523  14.356   1.929
53017W        W25442   0.715  23.513  14.820
53018W        W25443  29.075  42.524  11.616
53019W        W25444  19.197  18.794   1.877
53020W        W25445   8.153  27.721   4.188
53021W        W25446  33.191  38.244   1.415
53022W        W25447  29.926  10.644   1.154
53023W        W25448  14.804  17.725  12.161
53024W        W25449  13.662  35.457  10.756
53025W        W25450  35.249  40.380   3.716
53026W        W25451  12.935  32.109  13.674
53027W        W25452  42.828  15.857  12.423
53028W        W25453  16.883  42.780   2.952
53029W        W25454   1.481  26.948  13.116
53030W        W25455  18.368  21.398  14.494
53031W        W25456   8.735  44.787   3.707
53032W        W25457  36.390  28.600  13.309
53033W        W25458   5.767  38.786   3.320
53034W        W25459  43.141  22.202  13.379
53035W        W25460   7.668   7.684  14.386
53036W        W25461  40.922   7.717  14.973
53037W        W25462  34.068  26.528   0.383
53038W        W25463  39.274  26.051  10.463
53039W        W25464   9.284  44.552   4.270
53040W        W25465  24.133   2.953  10.613
53041W        W25466  25.651   6.703   1.272
53042W        W25467  31.362  33.379   2.808
53043W        W25468  13.199   8.126   1.873
53044W        W25469   2.792  28.565   4.169
53045W        W25470  43.373  41.491  12.367
53046W        W25471  12.685  35.344   0.918
53047W        W25472  19.533   8.165   2.180
53048W        W25473  26.947  22.161   1.783
53049W        W25474   9.913  33.902  11.125
53050W        W25475  15.733  29.356  14.967
53051W        W25476  27.771  37.881  13.361
53052W        W25477  42.816   8.515   4.082
53053W        W25478  27.601  19.913   2.341
53054W        W25479  40.258   4.976   1.729
53055W        W25480   7.853  33.430   4.102
53056W        W25481  38.576  39.874   2.348
53057W        W25482  30.413  35.117  11.626
53058W        W25483  21.225  27.101  10.727
53059W        W25484   6.027   3.841  11.010
53060W        W25485   2.165  40.414  12.863
53061W        W25486  39.727  36.617   2.719
53062W        W25487   5.365  24.564   0.994
53063W        W25488  10.579  25.730   1.218
53064W        W25489  39.416  13.628   4.629
53065W        W25490  42.304  36.101   3.588
53066W        W25491   9.078  31.911   1.330
53067W        W25492  40.986  17.163  13.005
53068W        W25493  12.144  10.863  12.886
53069W        W25494  25.666  26.548  13.741
53070W        W25495  36.569  43.928   2.357
53071W        W25496  39.581  41.070   4.106
53072W        W25497  44.624  11.041   3.176
53073W        W25498  32.605  37.057   1.509
53074W        W25499  37.516   7.446  14.592
53075W        W25500   5.192  17.218   4.618
53076W        W25501  33.368  22.174   2.848
53077W        W25502  12.551   6.939   2.380
53078W        W25503   9.344  40.997   2.748
53079W        W25504  10.343  13.734   2.480
53080W        W25505  33.446  28.693   2.778
53081W        W25506   9.350  39.804   0.860
53082W        W25507  26.740  24.086  13.469
53083W        W25508   0.102  37.109   0.290
53084W        W25509  25.986   4.238   0.266
53085W        W25510   9.216  22.733  10.212
53086W        W25511  32.813  39.074   4.024
53087W        W25512   9.066  10.254  10.511
53088W        W25513  19.940  28.033   3.078
53089W        W25514  34.253  37.148  11.260
53090W        W25515  37.972  24.608  11.585
53091W        W25516  17.994  13.109  11.638
53092W        W25517  10.378  10.792   3.206
53093W        W25518  13.797   8.829   0.972
53094W        W25519  34.477  15.720  13.904
53095W        W25520  14.680  41.951   2.390
53096W        W25521   9.940  27.919   4.207
53097W        W25522  42.808  43.864   1.327
53098W        W25523  43.723  37.864  13.297
53099W        W25524  23.236  26.085   2.516
53100W        W25525  24.201  38.828  13.898
53101W        W25526   6.231  30.134  14.373
53102W        W25527   8.078  28.724  12.008
53103W        W25528  30.114  41.399  12.813
53104W        W25529  11.701   9.356  14.599
53105W        W25530  43.330  16.083   4.158
53106W        W25531  31.155   2.848   1.847
53107W        W25532  26.572  18.159  11.196
53108W        W25533   7.395  16.336  14.452
53109W        W25534  43.826  42.288  14.004
53110W        W25535   2.405  42.412  14.716
53111W        W25536   4.609  34.485  11.647
53112W        W25537  38.080   4.892   0.730
53113W        W25538  15.738  40.753   0.727
53114W        W25539  16.605  19.246  13.872
53115W        W25540  15.232  31.639  12.462
53116W        W25541  21.723   9.749   5.008
53117W        W25542  36.319  15.762  12.361
53118W        W25543  16.115   7.111   2.576
53119W        W25544  23.579   0.895   4.691
53120W        W25545  29.704  36.470  13.124
53121W        W25546  20.540  13.391   3.802
53122W        W25547  26.982  16.903   1.298
53123W        W25548  37.330   8.600  10.224
53124W        W25549  20.241   8.711   0.131
53125W        W25550  38.578   3.431  14.988
53126W        W25551  11.623   6.772   2.217
53127W        W25552  18.121  40.067   2.659
53128W        W25553  37.823  18.375  13.606
53129W        W25554  33.778  37.531  12.447
53130W        W25555  26.971  38.378   4.881
53131W        W25556   8.222   0.323   3.127
53132W        W25557  20.823  43.542   2.579
53133W        W25558  41.290  31.662   1.814
53134W        W25559  43.151   5.442  14.436
53135W        W25560  31.124  29.308  13.840
53136W        W25561  29.399  13.217  14.459
53137W        W25562   6.905  29.672  12.487
53138W        W25563   0.783  26.361   2.319
53139W        W25564  12.575  40.868  13.579
53140W        W25565  33.623  12.785  14.744
53141W        W25566  23.669  19.675  11.667
53142W        W25567  22.462   7.227   2.514
53143W        W25568   8.513  39.925  11.834
53144W        W25569  11.771  37.383   3.184
53145W        W25570   4.655  43.208  14.596
53146W        W25571   5.896  18.634  14.252
53147W        W25572  29.254   3.768  11.592
53148W        W25573  42.926   9.727   0.967
53149W        W25574   6.889   5.730  14.901
53150W        W25575   7.780  20.975  14.811
53151W        W25576   6.738   0.489  13.704
53152W        W25577  33.942   8.645   2.495
53153W        W25578  27.194  34.418  10.437
53154W        W25579  14.612  31.737  11.637
53155W        W25580  25.049  11.605   3.572
53156W        W25581  38.910   7.401  14.539
53157W        W25582  12.879   4.235   4.650
53158W        W25583   9.790   6.315   4.487
53159W        W25584  21.998  31.928  12.060
53160W        W25585  41.365   1.075   3.188
53161W        W25586  30.526  41.616   4.489
53162W        W25587  24.123  32.544   0.996
53163W        W25588  24.532  27.919   0.843
53164W        W25589  21.726  18.045   0.387
53165W        W25590  36.571  44.830   2.177
53166W        W25591  14.294  40.392   0.641
53167W        W25592  41.381   6.574  11.204
53168W        W25593  39.476  12.658  12.621
53169W        W25594  14.574  43.277  11.106
53170W        W25595  41.877  26.457  12.162
53171W        W25596  41.850  43.720  11.069
53172W        W25597  42.556  13.815   2.433
53173W        W25598  18.632   0.301   1.990
53174W        W25599   5.732  38.266   3.314
53175W        W25600   3.379  42.738  14.425
53176W        W25601  37.035  17.060   0.942
53177W        W25602  29.880  41.312   0.487
53178W        W25603  20.298  29.160  13.408
53179W        W25604   1.923  12.697   1.923
53180W        W25605  12.299  10.096   0.885
53181W        W25606  13.679  15.373   3.088
53182W        W25607  34.706  15.235   3.879
53183W        W25608   3.258  43.740  10.904
53184W        W25609  36.843  41.603   2.846
53185W        W25610  40.496  38.913   0.352
53186W        W25611  10.599  43.312   4.185
53187W        W25612  22.290  36.284   4.220
53188W        W25613  16.881  39.909  11.611
53189W        W25614  25.745  22.369   3.333
53190W        W25615  21.574   9.413   0.410
53191W        W25616   5.688   6.727   0.687
53192W        W25617  31.675   0.393   2.646
53193W        W25618  29.280   9.073  12.922
53194W        W25619  24.009  14.577  14.734
53195W        W25620  10.194  22.802  11.093
53196W        W25621  40.498  14.562  13.689
53197W        W25622  20.754  23.581   0.200
53198W        W25623  32.631  31.120  12.609
53199W        W25624  11.774   7.884  10.649
53200W        W25625  26.626  37.579  12.200
53201W        W25626  14.334  44.338  13.988
53202W        W25627  34.093  27.394  10.420
53203W        W25628   6.274  32.197   3.641
53204W        W25629  16.177   5.430   3.675
53205W        W25630  11.768  26.568  13.243
53206W        W25631  28.418  12.737   4.334
53207W        W25632   4.423  40.106  12.200
53208W        W25633  10.202  13.486   3.308
53209W        W25634   4.031  24.689  12.107
53210W        W25635   6.676  14.663   4.070
53211W        W25636  44.899  28.394  14.945
53212W        W25637  17.193  24.656  14.779
53213W        W25638  31.081  38.597   2.476
53214W        W25639  24.070  14.789   3.125
53215W        W25640  10.233  28.328   4.055
53216W        W25641  31.739   3.627   4.684
53217W        W25642  36.485  25.457   1.298
53218W        W25643  11.299  19.336  13.905
53219W        W25644  34.996  36.498   0.369
53220W        W25645  41.936  15.495   1.065
53221W        W25646  23.540  21.241  11.100
53222W        W25647  39.502  37.799  12.989
53223W        W25648  31.684  33.644  12.699
53224W        W25649  31.198  42.548  13.454
53225W        W25650  19.292  25.247   3.128
53226W        W25651  39.822  17.211  13.999
53227W        W25652   9.369  16.157   4.392
53228W        W25653  28.637   4.952   1.336
53229W        W25654   5.695  26.599   4.213
53230W        W25655  43.294   1.830   0.901
53231W        W25656  23.088  15.232  11.532
53232W        W25657  11.764   7.130   4.672
53233W        W25658   4.245   0.761  11.829
53234W        W25659   4.899   9.168   4.240
53235W        W25660  44.446  41.297   2.320
53236W        W25661  31.074   9.320   1.408
53237W        W25662  40.995   6.351   1.797
53238W        W25663  25.588  28.528   1.752
53239W        W25664   5.758  31.919  10.607
53240W        W25665  37.345  32.869  12.414
53241W        W25666  12.701  11.893  13.057
53242W        W25667  40.083  37.952   4.265
53243W        W25668  26.639   0.970  11.592
53244W        W25669  16.261  17.565   1.908
53245W        W25670  16.548  38.353   4.628
53246W        W25671  27.555   1.495  12.484
53247W        W25672  20.875  12.171   5.608
53248W        W25673  43.856   9.090   2.209
53249W        W25674  17.049  27.168   0.473
53250W        W25675   0.506  31.547   4.574
53251W        W25676  18.289   5.345  11.389
53252W        W25677  39.646   3.444   1.475
53253W        W25678  19.021  19.210   3.643
53254W        W25679  11.709  24.500  14.296
53255W        W25680   6.570  37.917  13.814
53256W        W25681   8.587   3.821   3.651
53257W        W25682  25.940  10.223   2.251
53258W        W25683  41.136  12.340   2.274
53259W        W25684  42.980  43.824  11.184
53260W        W25685  23.535  37.987   3.450
53261W        W25686  27.856   3.236   1.339
53262W        W25687   0.202  16.110   3.696
53263W        W25688  17.897   8.714   1.266
53264W        W25689   0.073  29.576   1.647
53265W        W25690  13.351   2.333   2.892
53266W        W25691  21.121  42.820  13.305
53267W        W25692  37.057  34.451   1.943
53268W        W25693   8.150  42.972  13.420
53269W        W25694   3.187  32.681  14.421
53270W        W25695  43.297  38.721   4.136
53271W        W25696  31.853  11.377   3.234
53272W        W25697   8.711   2.364   3.640
53273W        W25698  21.661  25.692   0.486
53274W        W25699  38.443  32.640   1.687
53275W        W25700  12.207  36.602  11.991
53276W        W25701  19.541  44.389   4.141
53277W        W25702  41.386  31.671  14.560
53278W        W25703  31.810   8.250   0.824
53279W        W25704  29.596   4.352   0.142
53280W        W25705  13.357   1.902   3.180
53281W        W25706  22.547   4.507  11.013
53282W        W25707  29.184  33.097  13.918
53283W        W25708  38.927  21.365  14.742
53284W        W25709  31.638   2.325  12.097
53285W        W25710  28.029   2.325   0.940
53286W        W25711  39.441  30.434  12.075
53287W        W25712   7.027  38.550   0.203
53288W        W25713  40.773  44.049   2.773
53289W        W25714  44.823  10.751  10.884
53290W        W25715   3.218  41.425  14.141
53291W        W25716  23.674   1.383   1.481
53292W        W25717  37.972  43.533  12.921
53293W        W25718  27.582   6.453  12.969
53294W        W25719  13.399  30.701  14.500
53295W        W25720  43.097  12.847   0.489
53296W        W25721   5.612  27.217   1.439
53297W        W25722  25.727  25.693   3.321
53298W        W25723  27.143  34.458  11.905
53299W        W25724   6.672  24.706  14.818
53300W        W25725  42.637  41.770  14.869
53301W        W25726   4.166  35.427  11.448
53302W        W25727  41.548  15.547  12.137
53303W        W25728  36.285  40.305  11.401
53304W        W25729  26.653   1.970   3.215
53305W        W25730   7.768   8.616  12.354
53306W        W25731  15.265   3.923   1.492
53307W        W25732  11.809  38.480  13.428
53308W        W25733  22.246  19.504  14.806
53309W        W25734  26.770  13.303   2.474
53310W        W25735  23.053  35.099  11.083
53311W        W25736  37.664  19.369  11.557
53312W        W25737   8.642  24.538  13.943
53313W        W25738   2.709  27.491  11.965
53314W        W25739  43.361  12.229  10.631
53315W        W25740  13.859  13.838   3.852
53316W        W25741  25.935  38.354  14.715
53317W        W25742  44.849   3.636  13.563
53318W        W25743   4.365  29.830  14.843
53319W        W25744  23.813  15.842  12.935
53320W        W25745  12.361  20.564  13.791
53321W        W25746  42.990  29.091  12.930
53322W        W25747  23.114   4.482  14.481
53323W        W25748  17.997  30.012  13.125
53324W        W25749   5.260  28.591  12.369
53325W        W25750  41.536  39.101  11.595
53326W        W25751   4.643  44.394  14.917
53327W        W25752  27.032  42.829   4.551
53328W        W25753  29.029  11.944  13.709
53329W        W25754  39.860  38.391   4.132
53330W        W25755  31.666   0.864  11.048
53331W        W25756  31.026  17.212   0.511
53332W        W25757  38.276   3.444   2.625
53333W        W25758  40.518  38.799  11.608
53334W        W25759  30.254  35.605   1.088
53335W        W25760  11.293  41.514   4.286
53336W        W25761  19.628  15.797   4.074
53337W        W25762  44.337  38.812   3.556
53338W        W25763   2.693  41.388  14.075
53339W        W25764  19.014  15.961   0.935
53340W        W25765   1.957  17.839   2.361
53341W        W25766  43.012  26.072  14.420
53342W        W25767  36.708  28.397  14.542
53343W        W25768   2.340  38.273   1.702
53344W        W25769  20.104  24.611   4.985
53345W        W25770   1.714  20.558   1.325
53346W        W25771  44.411  40.458  12.586
53347W        W25772  27.903  14.077  14.469
53348W        W25773  41.725  12.405  11.703
53349W        W25774  18.158  33.019   1.915
53350W        W25775  20.444  29.648   4.543
53351W        W25776  37.213  18.243   2.767
53352W        W25777  38.862   9.910   3.385
53353W        W25778  41.576  16.682  12.419
53354W        W25779  42.220  37.535  11.002
53355W        W25780  18.054  21.325  13.996
53356W        W25781  11.786  28.945   0.390
53357W        W25782   7.657  36.575  12.966
53358W        W25783  39.461   0.720   0.341
53359W        W25784   4.334  41.110   1.871
53360W        W25785  32.036  31.076  14.842
53361W        W25786   8.685  36.260   4.058
53362W        W25787  20.163   1.400   3.763
53363W        W25788   6.949  19.300   4.151
53364W        W25789  21.014   3.823  12.313
53365W        W25790  26.388   2.990   2.195
53366W        W25791  38.553  24.379  12.356
53367W        W25792   8.859   7.882   0.014
53368W        W25793  26.408  31.891   4.599
53369W        W25794   5.272  26.681  11.850
53370W        W25795   6.262  34.137   3.402
53371W        W25796   3.930  11.835   3.273
53372W        W25797  13.101  10.718  13.885
53373W        W25798  10.047  26.141  13.148
53374W        W25799  36.415   2.294   3.611
53375W        W25800  44.360  14.782  13.372
53376W        W25801  18.668  21.884  12.192
53377W        W25802  37.275  15.680  14.089
53378W        W25803  34.349  25.088   3.654
53379W        W25804   6.179  18.942  12.684
53380W        W25805  41.890  32.123  11.731
53381W        W25806   7.895  31.712   2.152
53382W        W25807  28.821  35.015  11.263
53383W        W25808  34.557  42.755   0.424
53384W        W25809  16.565  23.676  11.677
53385W        W25810  22.971   3.472  13.585
53386W        W25811  12.808   6.718  13.898
53387W        W25812  21.581  16.252  11.833
53388W        W25813  21.658  10.631   4.098
53389W        W25814   3.889  38.614   4.174
53390W        W25815   1.565  11.849  11.155
53391W        W25816  11.978   3.558   2.782
53392W        W25817   7.703  23.186  13.566
53393W        W25818   1.821  15.860  13.701
53394W        W25819  12.687  22.055   1.644
53395W        W25820   7.614  32.103  11.024
53396W        W25821  34.986  40.307   4.191
53397W        W25822  36.362  20.845  14.360
53398W        W25823  23.691   1.689   4.878
53399W        W25824   5.869  18.274  13.849
53400W        W25825  13.401   7.713   0.409
53401W        W25826  27.991  19.673   1.424
53402W        W25827  14.321  38.310   0.469
53403W        W25828   3.157   6.825  10.704
53404W        W25829  25.201  41.411   2.802
53405W        W25830  32.872  40.462   3.690
53406W        W25831  42.055   6.623  11.919
53407W        W25832  37.422  24.901   1.039
53408W        W25833  26.217   4.842  11.908
53409W        W25834  41.605  22.987   5.363
53410W        W25835  13.087   2.737   2.148
53411W        W25836  14.716   8.433  11.119
53412W        W25837  44.218  13.103  11.159
53413W        W25838  22.863  16.404   2.603
53414W        W25839  41.423  10.955   4.488
53415W        W25840  44.159   6.357   0.177
53416W        W25841  16.064  43.135  11.193
53417W        W25842   2.914  18.368  13.941
53418W        W25843  16.254  10.241  12.964
53419W        W25844  19.116  30.644   3.677
53420W        W25845   1.319  20.962   1.323
53421W        W25846   6.838  34.903   4.312
53422W        W25847  25.260  41.831  13.509
53423W        W25848   9.771  32.050  14.048
53424W        W25849  12.846  35.162   3.640
53425W        W25850   3.027  12.942   4.094
53426W        W25851  42.419  36.949  13.516
53427W        W25852  38.864  25.206  14.369
53428W        W25853  25.330  38.869  12.612
53429W        W25854  39.930  20.549   2.718
53430W        W25855  34.982  37.354  12.902
53431W        W25856  33.931  24.003   1.774
53432W        W25857  26.616  23.764   2.296
53433W        W25858  43.807  15.547  12.341
53434W        W25859  10.368  39.157  13.460
53435W        W25860  25.590  44.180   4.183
53436W        W25861  19.857  37.425  12.588
53437W        W25862  19.326  43.380   4.417
53438W        W25863  11.181  32.990  11.004
53439W        W25864  35.921  32.004   1.308
53440W        W25865   0.784  24.446   4.988
53441W        W25866  27.902  29.695  12.594
53442W        W25867  39.745  27.191  14.792
53443W        W25868  37.001  43.015   2.849
53444W        W25869  20.441  38.405  13.884
53445W        W25870  29.122  34.132  11.608
53446W        W25871   7.589  20.526   3.654
53447W        W25872   8.457  34.344   2.411
53448W        W25873  27.963  26.368   3.190
53449W        W25874  37.090   0.457   0.438
53450W        W25875  33.996  32.005   0.045
53451W        W25876   7.328  42.376   3.640
53452W        W25877   6.895  20.697   0.248
53453W        W25878   3.204  23.944  11.511
53454W        W25879  17.992  12.694  13.035
53455W        W25880  44.765  18.909   1.816
53456W        W25881  18.020  42.422   3.164
53457W        W25882  25.393  44.220   2.336
53458W        W25883  40.032  18.364  13.436
53459W        W25884   7.596   2.734   4.217
53460W        W25885  23.227   5.682   1.165
53461W        W25886  18.211   5.181  13.785
53462W        W25887  27.723  36.135  13.424
53463W        W25888  13.023  39.055  13.500
53464W        W25889  11.234  11.937  12.742
53465W        W25890  38.807  33.283   3.142
53466W        W25891  27.036  34.930   2.925
53467W        W25892   9.459  28.833   4.706
53468W        W25893  24.544  42.957   2.249
53469W        W25894  18.643  39.704  11.726
53470W        W25895   5.611   7.698   3.832
53471W        W25896   0.372   9.127   1.248
53472W        W25897  41.257   7.952  13.521
53473W        W25898   0.942   6.696  13.825
53474W        W25899  39.442  40.820  11.597
53475W        W25900  36.375   8.839   2.949
53476W        W25901  15.599  22.000  14.804
53477W        W25902  23.679  16.017  14.057
53478W        W25903  25.646  31.013   2.695
53479W        W25904  24.698  14.324   0.846
53480W        W25905  41.295   8.341  12.212
53481W        W25906   8.942  32.121  10.703
53482W        W25907  12.713  17.578  11.517
53483W        W25908   6.866   5.038  11.551
53484W        W25909  16.080   0.861   1.592
53485W        W25910  22.981  12.257  13.449
53486W        W25911  15.323  22.532   2.422
53487W        W25912  14.318  28.909  12.377
53488W        W25913  35.645  12.388  12.369
53489W        W25914   2.706  18.268   3.094
53490W        W25915  29.922  42.778  10.576
53491W        W25916  41.692  14.373  14.983
53492W        W25917  25.992   3.735  14.335
53493W        W25918   7.875  16.584   3.623
53494W        W25919  36.549   0.614  11.551
53495W        W25920  42.433  16.980   0.238
53496W        W25921   0.149  15.061   0.710
53497W        W25922  40.736   6.586  11.326
53498W        W25923  31.381  27.476  13.811
53499W        W25924  11.059  24.743   0.402
53500W        W25925   7.394   9.842  14.943
53501W        W25926  29.644   6.154   0.901
53502W        W25927   8.586  28.409  13.089
53503W        W25928  25.363  18.360   9.851
53504W        W25929  38.497  11.610   3.868
53505W        W25930  21.059  22.692  13.107
53506W        W25931  15.421  26.226   0.121
53507W        W25932  17.522  12.773  10.437
53508W        W25933   0.238  41.296  12.827
53509W        W25934   3.393   7.796  12.795
53510W        W25935  34.546  34.532   2.495
53511W        W25936  27.113  38.772   1.342
53512W        W25937  19.196  28.262  14.575
53513W        W25938  27.895  12.173   2.365
53514W        W25939  13.685  31.441   1.308
53515W        W25940  28.908  43.831   2.288
53516W        W25941  22.127  18.767   1.479
53517W        W25942   4.939   5.698  10.795
53518W        W25943  42.351  39.265  11.610
53519W        W25944  36.884   3.890  11.850
53520W        W25945  39.811  30.929  12.981
53521W        W25946  13.742  11.464   0.538
53522W        W25947  40.362  15.803   0.824
53523W        W25948  25.633   2.245   2.469
53524W        W25949  21.730   3.889   4.720
53525W        W25950  24.063  12.118   2.255
53526W        W25951   5.696  41.933   4.122
53527W        W25952  41.543  30.031   4.903
53528W        W25953   0.728  31.895  12.001
53529W        W25954  38.406  18.445   1.101
53530W        W25955  22.744  37.623  11.162
53531W        W25956   8.734  25.537  13.463
53532W        W25957   8.649  24.921  13.591
53533W        W25958  17.630   6.443  13.290
53534W        W25959  26.350  41.256   2.380
53535W        W25960   4.607  39.421  12.442
53536W        W25961  32.368  10.346  11.134
53537W        W25962  19.555  32.612   2.867
53538W        W25963  11.082  26.888  12.876
53539W        W25964  33.656   0.818   0.543
53540W        W25965   1.806  12.402  10.620
53541W        W25966  31.429   3.695  11.951
53542W        W25967  24.448  16.748  14.246
53543W        W25968  39.522  21.065   3.759
53544W        W25969  24.607   4.905   1.769
53545W        W25970  31.957  12.655   2.776
53546W        W25971  37.054  37.748   4.189
53547W        W25972  20.551  24.016   2.453
53548W        W25973  39.152   6.671   4.483
53549W        W25974  24.238  13.223   1.345
53550W        W25975  23.607   0.262   3.201
53551W        W25976  29.494  38.058  14.473
53552W        W25977  41.748  28.777  12.631
53553W        W25978  14.315   1.575   2.250
53554W        W25979  35.949  40.319   1.948
53555W        W25980  10.605  12.215   4.320
53556W        W25981   4.814  29.102  10.568
53557W        W25982  20.413  16.072  12.649
53558W        W25983  33.402  30.233  12.084
53559W        W25984  40.776  40.455  12.029
53560W        W25985   0.354  28.376  12.501
53561W        W25986  30.198   1.142  10.961
53562W        W25987   7.219  23.410   3.696
53563W        W25988   4.185  21.787  11.308
53564W        W25989  21.584  36.375   0.869
53565W        W25990  27.268   0.203   3.274
53566W        W25991  29.552  13.847   4.153
53567W        W25992   8.464  31.055  10.518
53568W        W25993  42.258  36.898   0.467
53569W        W25994   9.884  28.552  12.834
53570W        W25995  40.651  24.602  11.586
53571W        W25996  31.436  35.442  12.641
53572W        W25997  31.171   8.214   1.968
53573W        W25998   5.057  41.371   1.208
53574W        W25999  36.573   3.676  13.989
53575W        W26000  38.329  13.814  14.869
53576W        W26001  44.346  41.920   4.465
53577W        W26002  14.024  36.269   4.255
53578W        W26003  23.350  35.043  11.480
53579W        W26004  20.662  24.458  11.173
53580W        W26005   6.955  17.164   4.577
53581W        W26006   5.895  14.294  13.448
53582W        W26007  20.523   3.270  11.958
53583W        W26008   1.527  30.101   0.832
53584W        W26009  16.232   8.604   0.902
53585W        W26010   7.133  26.947   1.359
53586W        W26011  29.009  19.855  14.929
53587W        W26012  21.327  38.042  10.458
53588W        W26013  25.288  30.018   2.721
53589W        W26014  26.239  25.968  11.647
53590W        W26015  16.956  34.146   1.836
53591W        W26016  37.921  35.297  13.992
53592W        W26017  20.229  13.706  12.958
53593W        W26018  32.423  23.081  12.663
53594W        W26019  12.542   0.376   1.718
53595W        W26020   9.827  29.389  14.368
53596W        W26021  42.386  37.719  14.259
53597W        W26022   7.502  18.044   2.340
53598W        W26023  31.667  23.691  10.640
53599W        W26024  22.308  39.497  10.908
53600W        W26025   6.379   7.059  11.122
53601W        W26026   0.786  19.886  14.304
53602W        W26027  21.568   8.544  10.418
53603W        W26028  26.348   6.421  11.161
53604W        W26029   8.811  24.556  10.557
53605W        W26030  38.786   2.923  12.495
53606W        W26031  36.864  31.048   4.528
53607W        W26032  44.196  17.546   4.473
53608W        W26033  19.037   1.827   1.044
53609W        W26034  39.111  43.985   0.328
53610W        W26035   7.241   4.740  14.945
53611W        W26036  35.898  21.101  14.296
53612W        W26037  21.881  42.703  10.197
53613W        W26038  31.561  12.335   2.800
53614W        W26039  39.571  29.587   2.252
53615W        W26040  44.392  36.972  12.143
53616W        W26041  26.089  26.410   5.133
53617W        W26042  39.168  44.039   3.181
53618W        W26043  41.618  19.158  12.555
53619W        W26044  16.111  22.528  14.213
53620W        W26045  28.978  21.223   2.145
53621W        W26046  18.263  17.688   3.665
53622W        W26047  39.851  15.629  11.693
53623W        W26048  39.184  32.057  10.752
53624W        W26049  17.735  37.318   0.727
53625W        W26050  43.889  42.810  11.556
53626W        W26051  36.948  41.039  12.525
53627W        W26052   3.731  36.417   3.636
53628W        W26053  36.121   3.891  13.846
53629W        W26054  36.697  12.508  13.093
53630W        W26055   7.949   7.227  14.364
53631W        W26056  20.832   7.884   1.791
53632W        W26057  11.375  15.629  14.056
53633W        W26058  35.744  19.609   0.267
53634W        W26059  12.098  23.084   2.023
53635W        W26060  16.784  24.712  10.603
53636W        W26061  30.036  25.254   3.531
53637W        W26062  30.488  24.721   1.677
53638W        W26063  44.837  44.517   1.288
53639W        W26064  33.326  33.618   3.562
53640W        W26065  11.725  24.506   1.912
53641W        W26066  31.819  32.528  13.996
53642W        W26067   6.199  39.555  10.669
53643W        W26068  30.957  37.336  14.371
53644W        W26069  33.021   2.927   2.415
53645W        W26070   0.533  33.871   2.771
53646W        W26071   7.946   0.912  10.604
53647W        W26072  31.841  36.047  11.682
53648W        W26073   5.869  30.342  12.521
53649W        W26074  35.508  19.650  14.787
53650W        W26075   0.917  42.970   4.772
53651W        W26076   5.073  25.586  11.568
53652W        W26077  31.168  41.347   2.230
53653W        W26078  28.661  44.394   4.556
53654W        W26079   7.933  25.462  12.517
53655W        W26080  33.079  38.619  10.949
53656W        W26081  44.881  19.929  11.121
53657W        W26082   9.151  24.438  13.815
53658W        W26083  19.199  25.650   0.654
53659W        W26084  34.890  29.837   1.855
53660W        W26085   5.392  36.579  14.892
53661W        W26086   2.079  35.511   3.086
53662W        W26087  37.988  33.913   3.368
53663W        W26088  19.034  29.600   3.427
53664W        W26089  16.190  44.287   2.709
53665W        W26090  42.471  11.125  14.807
53666W        W26091  13.394  12.543  12.443
53667W        W26092   1.178  42.277   0.817
53668W        W26093  16.034  14.054  14.912
53669W        W26094  23.719  35.083  10.430
53670W        W26095   7.430  43.488  11.593
53671W        W26096   7.567  37.156  10.750
53672W        W26097  37.935  25.416   1.440
53673W        W26098  25.273  42.787  12.041
53674W        W26099   4.770   1.308  10.965
53675W        W26100  39.988  19.275   4.701
53676W        W26101  13.741  23.653   2.167
53677W        W26102  21.774  11.966   5.245
53678W        W26103  22.073  22.048   3.154
53679W        W26104  30.929  39.539   0.751
53680W        W26105  32.832  32.456  13.863
53681W        W26106  27.439  31.981   4.703
53682W        W26107  21.175  13.576   0.713
53683W        W26108  27.079  13.368  11.219
53684W        W26109   9.667   8.289   2.903
53685W        W26110  35.259   2.406   0.275
53686W        W26111   7.429  35.427   3.679
53687W        W26112   0.769   7.890  12.946
53688W        W26113  13.612  24.107   3.483
53689W        W26114   2.393  20.219   4.723
53690W        W26115  44.439   7.770   4.085
53691W        W26116  34.080  17.118   1.829
53692W        W26117  16.735  31.704  13.860
53693W        W26118  26.325  43.150   5.011
53694W        W26119  31.347  37.320   1.640
53695W        W26120  20.463  38.436  12.740
53696W        W26121  25.438   6.640   0.802
53697W        W26122  22.031   1.517  13.923
53698W        W26123  21.761   3.482  12.467
53699W        W26124  29.599   4.788  12.947
53700W        W26125   6.024  33.863   0.462
53701W        W26126  25.356  18.030  12.435
53702W        W26127  40.885  18.155   2.655
53703W        W26128  18.114  40.451   4.536
53704W        W26129  44.950  20.284  14.314
53705W        W26130  18.585  19.608   1.795
53706W        W26131  30.748  31.129  13.380
53707W        W26132  17.792  31.723   2.056
53708W        W26133  13.642   1.487  11.057
53709W        W26134  42.231  43.344  11.063
53710W        W26135   4.556  20.347   4.150
53711W        W26136  25.119  27.181   0.456
53712W        W26137  18.605  23.367   1.490
53713W        W26138  17.210  14.171   4.553
53714W        W26139  14.321  25.819   1.277
53715W        W26140  31.019  30.685   3.604
53716W        W26141  18.164   2.281  11.367
53717W        W26142  40.677  25.101  13.952
53718W        W26143  29.132  17.089   4.096
53719W        W26144  44.198  40.956   0.420
53720W        W26145   0.002  18.834   2.920
53721W        W26146  36.689  11.803  11.962
53722W        W26147  32.732  35.910  12.264
53723W        W26148  42.210   0.765   1.509
53724W        W26149  20.321   2.924   1.500
53725W        W26150  16.339  17.085  12.399
53726W        W26151  21.509  41.412   0.531
53727W        W26152  42.028  19.624   2.139
53728W        W26153  27.585   2.504  12.479
53729W        W26154  40.460   9.873   2.372
53730W        W26155  21.982  23.115  13.089
53731W        W26156  44.491  21.126   4.589
53732W        W26157  11.662  35.015  10.574
53733W        W26158  12.641  11.847   2.745
53734W        W26159  27.047  30.133   3.371
53735W        W26160  33.832  11.717   0.770
53736W        W26161  21.999   0.833   2.612
53737W        W26162  22.648  10.008   5.006
53738W        W26163  35.313  21.143   0.792
53739W        W26164  12.713  24.829  11.711
53740W        W26165  18.067  41.949  14.450
53741W        W26166  32.193  14.543  13.130
53742W        W26167  40.729  32.517  11.117
53743W        W26168  11.365  32.975  13.407
53744W        W26169  21.717  20.560  14.357
53745W        W26170  42.359  31.675   3.365
53746W        W26171  15.258  32.436   2.726
53747W        W26172  15.047  29.265   1.422
53748W        W26173   2.185  28.872   1.377
53749W        W26174  25.166  26.647   3.260
53750W        W26175  15.146  29.916   3.966
53751W        W26176  13.859  13.286   2.641
53752W        W26177   2.446  33.841   1.022
53753W        W26178  34.648  34.066  13.167
53754W        W26179   9.352   3.294  13.424
53755W        W26180  40.587  41.436   0.889
53756W        W26181  13.393  18.145  11.108
53757W        W26182  32.429  25.630   2.735
53758W        W26183  39.505  43.757   3.919
53759W        W26184   9.283  32.543  12.530
53760W        W26185  24.042  15.624  13.989
53761W        W26186  18.644  26.115   4.300
53762W        W26187  15.010   3.763  11.077
53763W        W26188  19.962  34.511  13.283
53764W        W26189  12.848  44.512   0.721
53765W        W26190  42.290  32.620   1.884
53766W        W26191  31.507   1.854   2.185
53767W        W26192  12.683  11.583  11.194
53768W        W26193  37.157  24.562   1.321
53769W        W26194  10.265   1.784   4.117
53770W        W26195  19.701   6.704   3.489
53771W        W26196  27.474  17.496   3.748
53772W        W26197   6.170  19.557   0.286
53773W        W26198  40.510  26.108   3.200
53774W        W26199  15.650  14.851   1.548
53775W        W26200  34.782  17.843   2.799
53776W        W26201   5.005   1.925  14.420
53777W        W26202  27.941  29.676  11.036
53778W        W26203  42.932  23.088  12.893
53779W        W26204  13.384  37.886   0.360
53780W        W26205   4.267  37.610  11.222
53781W        W26206   4.580  20.151  10.997
53782W        W26207  26.204  12.136  13.448
53783W        W26208   4.313  41.729  12.839
53784W        W26209  35.940  13.432  10.799
53785W        W26210  12.119  15.748   0.390
53786W        W26211  35.419  13.993   1.385
53787W        W26212   3.918  33.689   1.264
53788W        W26213  43.322   3.778   2.946
53789W        W26214  41.214  41.706   1.787
53790W        W26215  20.895  10.105   4.190
53791W        W26216  35.561   7.741   2.829
53792W        W26217  44.231  37.478  12.126
53793W        W26218  34.433   7.926  12.919
53794W        W26219   0.954  36.002  10.259
53795W        W26220  20.804  25.312  13.407
53796W        W26221  37.852  11.700   0.925
53797W        W26222  37.611  40.566   3.336
53798W        W26223  14.814  11.551  12.500
53799W        W26224  23.759  19.257  11.994
53800W        W26225   0.547  29.403   1.761
53801W        W26226  16.847  31.410   1.752
53802W        W26227  14.775  44.545  10.535
53803W        W26228  33.584  16.761  12.254
53804W        W26229  28.464  19.686   1.703
53805W        W26230  19.127  35.403   3.835
53806W        W26231   5.234  14.265  11.173
53807W        W26232  15.348   5.183  14.870
53808W        W26233  43.816  20.052   9.658
53809W        W26234   9.633  19.525   2.762
53810W        W26235  18.965  30.088   3.199
53811W        W26236  33.019   2.307  13.932
53812W        W26237  10.089   4.902   1.440
53813W        W26238  29.188  28.604  14.014
53814W        W26239  38.018  25.696  13.013
53815W        W26240   5.095  25.203  14.459
53816W        W26241  21.114   1.046  13.962
53817W        W26242  29.107  15.236  11.569
53818W        W26243  38.479  45.000   2.701
53819W        W26244  13.124  37.283   4.606
53820W        W26245  20.342   7.864   2.002
53821W        W26246   2.192  12.385   3.283
53822W        W26247  32.010  19.661   0.018
53823W        W26248  20.959  35.453  14.315
53824W        W26249  29.965  21.026  14.681
53825W        W26250   6.325  33.600   0.830
53826W        W26251  20.196   5.736  10.561
53827W        W26252  16.334  13.816  13.004
53828W        W26253  12.633  10.683  14.839
53829W        W26254  20.175  15.288  14.911
53830W        W26255   7.383  33.561  13.772
53831W        W26256  17.817  39.335   1.349
53832W        W26257  36.467  23.548   2.201
53833W        W26258  26.407  31.411   3.559
53834W        W26259  41.957  23.928  11.096
53835W        W26260  25.005   8.184   4.649
53836W        W26261   6.477   5.723  11.535
53837W        W26262  15.943  13.091  13.838
53838W        W26263  24.477  32.063  12.047
53839W        W26264  13.571  14.447  11.921
53840W        W26265   4.437  39.153  12.850
53841W        W26266  20.544  25.009   0.156
53842W        W26267  40.850  25.481   1.023
53843W        W26268   5.338  20.009   1.697
53844W        W26269   2.805  21.923   4.361
53845W        W26270  35.775  25.542   0.836
53846W        W26271  17.382  29.728   3.830
53847W        W26272  12.253   7.446   3.702
53848W        W26273  34.902  44.028  12.988
53849W        W26274   0.308  27.675   2.261
53850W        W26275  18.219  33.135   1.421
53851W        W26276  14.508  13.086   2.842
53852W        W26277  13.376  35.202   0.953
53853W        W26278   9.183  32.809  11.187
53854W        W26279  40.918  30.451  13.539
53855W        W26280  15.829   4.938  14.917
53856W        W26281   2.439  12.329  13.944
53857W        W26282  33.482  33.477  13.704
53858W        W26283  29.020  25.709  11.703
53859W        W26284  24.063  43.710   1.349
53860W        W26285  38.839  12.247   4.464
53861W        W26286  24.166  26.868  14.051
53862W        W26287  42.622   7.233   2.298
53863W        W26288   7.508  17.140   2.349
53864W        W26289   0.452  27.408   2.669
53865W        W26290  27.601  15.690  13.156
53866W        W26291  34.441  29.016   0.981
53867W        W26292   3.064  29.185  12.406
53868W        W26293   9.907  35.066  14.580
53869W        W26294  19.321  35.051   4.200
53870W        W26295  39.582  36.137  12.995
53871W        W26296  10.223  23.031   4.664
53872W        W26297  21.837  19.849  11.111
53873W        W26298  23.013  34.131   0.721
53874W        W26299  26.002  44.665   3.187
53875W        W26300  33.085   0.805  14.796
53876W        W26301  10.635   0.355   1.225
53877W        W26302  10.156  22.620   0.970
53878W        W26303  16.851  25.656   1.322
53879W        W26304  24.556  34.633   0.334
53880W        W26305  43.867  11.244   3.567
53881W        W26306  20.125  42.487  14.427
53882W        W26307  15.106  10.591  12.986
53883W        W26308  21.453  22.005   2.478
53884W        W26309   7.732  44.683  11.046
53885W        W26310  38.539   9.446  12.532
53886W        W26311  14.631  12.673  13.525
53887W        W26312  42.459  14.118   3.607
53888W        W26313  20.788   5.353  14.301
53889W        W26314   0.931  24.576  14.280
53890W        W26315  24.486   6.317  12.137
53891W        W26316  22.774   1.428   3.702
53892W        W26317  23.326   1.798  11.989
53893W        W26318  34.101  12.457   0.274
53894W        W26319  40.582  20.104  13.391
53895W        W26320  17.523  31.384   3.754
53896W        W26321  23.295  39.776   3.333
53897W        W26322  44.742  14.759  11.206
53898W        W26323   7.259   5.599  10.942
53899W        W26324   3.878  44.276  10.961
53900W        W26325   3.072  25.628   2.496
53901W        W26326  32.875  28.413   3.725
53902W        W26327   5.497  36.906  14.480
53903W        W26328   1.262  24.092  13.073
53904W        W26329   8.093  23.997   2.356
53905W        W26330   4.362   6.415  10.413
53906W        W26331  28.718  22.220  13.824
53907W        W26332   3.791  26.560   4.521
53908W        W26333  21.460  41.991  13.088
53909W        W26334  33.297  23.701  14.225
53910W        W26335  21.095  44.064   0.246
53911W        W26336   0.256  41.498  14.339
53912W        W26337   5.020  31.948  11.064
53913W        W26338  13.256  21.958  12.534
53914W        W26339  30.154  29.561  13.793
53915W        W26340  28.141  41.947   4.548
53916W        W26341  10.413  41.395  14.839
53917W        W26342  22.756   4.482  11.517
53918W        W26343   5.772   8.472  14.396
53919W        W26344  26.741  32.944  12.960
53920W        W26345   9.225  29.937  10.601
53921W        W26346  30.301  12.297   0.251
53922W        W26347  34.377  18.699  10.657
53923W        W26348   1.868   3.328   4.568
53924W        W26349   2.975   1.533  14.317
53925W        W26350  26.252  10.864   1.881
53926W        W26351  31.887  26.472  14.364
53927W        W26352  12.125  19.222   2.860
53928W        W26353  29.401  44.941  10.619
53929W        W26354  30.497  37.634  14.290
53930W        W26355   2.204   4.266   0.475
53931W        W26356  10.147   4.266   3.648
53932W        W26357  31.684  41.727   3.427
53933W        W26358  24.764  33.559  14.034
53934W        W26359  25.647  36.937  14.814
53935W        W26360   0.988  41.334  10.822
53936W        W26361   0.563   1.365  14.828
53937W        W26362  37.676  14.491  13.602
53938W        W26363  15.919   8.580   1.996
53939W        W26364  15.301  14.836  10.421
53940W        W26365  32.933  17.955   1.864
53941W        W26366  16.771   6.666   2.699
53942W        W26367  25.712  34.600   4.511
53943W        W26368  33.932  23.081   2.863
53944W        W26369  11.099  23.575   1.377
53945W        W26370   8.336   0.176  13.045
53946W        W26371   9.850  43.790   4.093
53947W        W26372  43.533  41.428  10.590
53948W        W26373  44.837  23.160  13.970
53949W        W26374  34.116   4.726  13.937
53950W        W26375   8.322  31.464  14.481
53951W        W26376   2.170   0.996   1.776
53952W        W26377  20.453   1.563   1.327
53953W        W26378  23.013   0.582   2.627
53954W        W26379  44.839  23.945   4.114
53955W        W26380  28.088  10.666   2.907
53956W        W26381   1.946  21.233   0.914
53957W        W26382  40.910   9.768  11.616
53958W        W26383  22.982   9.928  14.341
53959W        W26384   5.440  15.763   3.243
53960W        W26385  29.029  40.772   0.359
53961W        W26386  33.518  10.168  10.505
53962W        W26387  26.038   0.938   3.747
53963W        W26388   4.600  41.580  13.731
53964W        W26389  24.570  16.278  14.023
53965W        W26390  21.682  32.565   0.204
53966W        W26391   1.474  18.669   2.847
53967W        W26392  28.951  11.317  12.083
53968W        W26393  20.627  21.096  14.960
53969W        W26394   6.382  36.163  13.792
53970W        W26395  37.982  11.887   4.059
53971W        W26396  23.909  23.952  12.058
53972W        W26397   7.912  19.859  13.085
53973W        W26398  29.196  27.517  14.088
53974W        W26399  27.297  44.354   2.267
53975W        W26400  21.236   1.141   5.263
53976W        W26401  21.013  10.395   3.332
53977W        W26402  20.022  19.116   2.812
53978W        W26403   7.364  40.051   3.331
53979W        W26404  14.808   4.176   2.894
53980W        W26405  13.637  14.672   4.271
53981W        W26406  25.537   0.988   3.735
53982W        W26407   5.706  32.455  10.674
53983W        W26408  30.981  10.757  13.673
53984W        W26409  39.876  30.057   1.504
53985W        W26410  43.535  19.742   0.944
53986W        W26411  29.551  11.899   2.750
53987W        W26412  15.538  42.160   0.860
53988W        W26413  28.132  39.081   3.105
53989W        W26414  21.803   8.779   1.827
53990W        W26415  19.342  27.667  11.663
53991W        W26416  36.517   4.732  13.828
53992W        W26417   3.770  25.307   0.821
53993W        W26418  36.146  19.053   4.693
53994W        W26419  30.382  35.443  12.975
53995W        W26420  42.345  24.540   3.166
53996W        W26421  33.971  13.865  11.143
53997W        W26422  44.033  25.917  11.013
53998W        W26423  34.504  25.560   3.937
53999W        W26424   8.990  41.297   2.505
54000W        W26425  19.703  19.095  12.196
54001W        W26426  37.160  10.352   0.196
54002W        W26427  14.513  39.077  11.166
54003W        W26428  12.655  20.627   1.342
54004W        W26429  20.708   6.892  11.507
54005W        W26430   0.163  21.701   4.111
54006W        W26431  41.052  16.531   1.418
54007W        W26432  14.676  35.347   0.996
54008W        W26433  29.512  21.604   5.006
54009W        W26434  15.141  13.758   1.374
54010W        W26435  31.627   1.809  12.904
54011W        W26436  25.617  16.699  12.144
54012W        W26437  11.872  21.822  14.703
54013W        W26438  33.988  36.878  13.525
54014W        W26439  34.985  26.682  13.542
54015W        W26440   9.100  25.157  14.395
54016W        W26441  37.975  29.748  14.494
54017W        W26442  17.247   3.681  13.971
54018W        W26443  13.537  31.098  11.569
54019W        W26444  30.098  12.144  13.354
54020W        W26445  44.477  20.299  14.085
54021W        W26446  43.754  21.126   3.606
54022W        W26447  35.368  36.078   2.349
54023W        W26448  17.827  14.241   0.643
54024W        W26449  38.522  26.855  14.285
54025W        W26450  44.480  37.106  13.933
54026W        W26451  11.749  41.271   2.862
54027W        W26452  16.830  29.181   0.349
54028W        W26453  41.363  11.875   0.817
54029W        W26454  24.241  29.198   4.296
54030W        W26455   1.505  16.976  10.750
54031W        W26456  19.490   5.219  14.208
54032W        W26457  35.568   7.649  12.127
54033W        W26458   5.184  25.367   4.213
54034W        W26459  30.981   2.357   2.739
54035W        W26460   4.363   0.375   3.666
54036W        W26461   1.240  37.526  14.020
54037W        W26462  30.575   7.565   1.796
54038W        W26463  19.069  12.827  14.364
54039W        W26464  29.526  23.838  11.021
54040W        W26465  42.815   2.598   1.487
54041W        W26466  31.677  36.512  13.050
54042W        W26467  20.813  22.016  10.997
54043W        W26468  15.242  22.758   1.383
54044W        W26469  17.606  16.523   3.849
54045W        W26470  32.259   4.218   2.043
54046W        W26471  23.712  41.875   3.511
54047W        W26472  35.568  31.094  12.845
54048W        W26473  43.734  34.578  14.445
54049W        W26474  30.685  32.877  12.356
54050W        W26475  30.652  36.221   4.144
54051W        W26476  44.920   9.990  11.038
54052W        W26477  14.866   6.356  11.185
54053W        W26478   2.019  36.998  13.856
54054W        W26479   2.917  12.944  12.033
54055W        W26480  20.067  33.847  12.707
54056W        W26481   0.150  29.224   4.066
54057W        W26482  44.309  37.941   0.608
54058W        W26483  18.937  36.339   2.248
54059W        W26484  29.353   2.499   1.746
54060W        W26485  11.751  12.422  13.864
54061W        W26486  11.807  32.881  14.902
54062W        W26487  36.989  24.162  12.087
54063W        W26488  12.095  42.835   2.845
54064W        W26489  22.580  29.611   0.382
54065W        W26490  34.763   1.257  12.014
54066W        W26491  40.012  37.927  14.351
54067W        W26492  14.934   8.226  11.586
54068W        W26493  32.110  10.383  14.876
54069W        W26494  23.982   9.174   4.713
54070W        W26495  11.667  39.756  13.853
54071W        W26496   0.889  18.277   1.775
54072W        W26497  37.445  31.739   4.150
54073W        W26498  13.384   6.893  10.702
54074W        W26499  21.458  31.652   3.251
54075W        W26500  37.897  13.014   2.326
54076W        W26501  12.660   2.515  11.121
54077W        W26502  11.341   3.861   2.267
54078W        W26503  43.986  11.200   2.642
54079W        W26504   7.636  26.393  11.513
54080W        W26505   6.995   0.332  12.817
54081W        W26506  38.834  13.402   2.458
54082W        W26507  44.908  20.695   3.938
54083W        W26508  19.137  37.435  13.330
54084W        W26509  25.062   7.900  12.096
54085W        W26510  30.358   1.542   1.911
54086W        W26511  42.013  13.805   4.507
54087W        W26512  12.146  44.512  12.768
54088W        W26513  20.582  21.089   4.035
54089W        W26514   0.232  21.122   2.707
54090W        W26515  10.845   5.127  10.681
54091W        W26516  24.154  22.543  13.638
54092W        W26517  41.695  19.033   9.815
54093W        W26518  28.393  23.833   5.495
54094W        W26519  20.198  44.804   1.670
54095W        W26520  10.929   7.797  12.816
54096W        W26521  32.973  17.320  13.881
54097W        W26522  39.332   1.904   1.363
54098W        W26523  43.002  19.293   4.642
54099W        W26524  24.282  36.108  11.119
54100W        W26525   7.913  28.463   3.689
54101W        W26526  38.839   9.692  11.717
54102W        W26527  19.274  26.462   3.778
54103W        W26528  17.689  22.950   3.384
54104W        W26529  19.613  12.045  14.753
54105W        W26530  32.004   6.429   2.687
54106W        W26531  25.274  33.548  14.148
54107W        W26532   5.276  10.315  13.141
54108W        W26533  14.878   2.868   3.768
54109W        W26534  16.676   3.728  13.382
54110W        W26535   1.486  18.737   2.308
54111W        W26536   2.196   3.878   2.393
54112W        W26537  42.375  12.152   1.328
54113W        W26538   6.901  19.096  14.696
54114W        W26539  33.826  19.482   1.705
54115W        W26540  41.533  32.186  12.108
54116W        W26541   8.414  33.114  12.457
54117W        W26542   6.208  17.576   1.165
54118W        W26543  34.210   3.313  14.999
54119W        W26544  11.740  17.120   0.686
54120W        W26545  37.595   6.177   2.123
54121W        W26546  18.164   7.766   1.003
54122W        W26547   4.112   6.844  13.872
54123W        W26548  24.152   3.727  11.500
54124W        W26549   4.518   3.365  12.384
54125W        W26550  24.168  25.298  10.829
54126W        W26551  14.231  22.882  14.017
54127W        W26552  14.393  20.496   3.363
54128W        W26553  44.508   8.256  11.166
54129W        W26554  41.350  18.248   0.743
54130W        W26555  11.352  28.645   3.188
54131W        W26556  29.891  14.527   1.287
54132W        W26557   8.249   5.713   3.632
54133W        W26558  40.095  13.945  11.423
54134W        W26559  16.219  39.871  11.651
54135W        W26560   9.896  21.780   3.568
54136W        W26561  26.321  42.639  10.182
54137W        W26562  30.496  10.508  10.296
54138W        W26563  33.547   5.950   4.767
54139W        W26564  23.645  16.620  11.064
54140W        W26565  28.545  43.991  11.037
54141W        W26566  36.952  39.895  10.744
54142W        W26567   4.057  11.807  13.514
54143W        W26568  24.736  13.145   4.564
54144W        W26569  43.796  40.769  11.438
54145W        W26570  29.962  20.926  10.790
54146W        W26571  14.086  18.551  14.791
54147W        W26572   8.837  20.232  13.423
54148W        W26573  14.844   9.602   2.365
54149W        W26574  12.172   5.508  11.438
54150W        W26575  44.231  30.733   0.760
54151W        W26576  11.779  17.104  12.558
54152W        W26577  21.665  38.498   1.806
54153W        W26578  27.091  14.821   1.986
54154W        W26579  44.468   1.450   0.746
54155W        W26580  12.374  41.055   1.766
54156W        W26581  29.654   5.759   3.699
54157W        W26582  23.678   3.131   2.324
54158W        W26583  28.958  15.096  13.428
54159W        W26584   7.707  36.765  11.512
54160W        W26585  42.926   9.381  14.663
54161W        W26586  19.126   4.349  13.970
54162W        W26587  35.538  18.081  12.834
54163W        W26588  40.385  38.744   1.568
54164W        W26589  31.129  25.240  12.035
54165W        W26590  21.670  24.217   4.591
54166W        W26591  39.907  21.805  14.910
54167W        W26592  44.756   6.173   1.418
54168W        W26593  33.178  23.504  10.695
54169W        W26594  18.139  32.524   2.114
54170W        W26595   7.521  17.105  12.508
54171W        W26596  11.622  38.589  12.950
54172W        W26597  40.023  10.168  13.884
54173W        W26598  14.774  15.830   1.762
54174W        W26599  17.788  42.105   2.826
54175W        W26600  18.622  33.557  10.081
54176W        W26601  40.923  44.330   2.336
54177W        W26602   6.304  28.494   1.458
54178W        W26603  39.411   8.640   1.775
54179W        W26604   6.528   3.229  10.712
54180W        W26605  21.611  35.949   0.056
54181W        W26606  31.141  38.390   4.364
54182W        W26607  15.161   7.951  13.268
54183W        W26608  11.458  10.284   3.411
54184W        W26609  23.599   3.666   2.318
54185W        W26610  38.764  31.851  14.960
54186W        W26611  23.610  26.448   3.764
54187W        W26612  39.542  19.724   2.674
54188W        W26613  41.863  40.027   2.229
54189W        W26614  41.791  26.474   1.388
54190W        W26615  10.612  34.506   3.630
54191W        W26616  27.889  24.730   1.536
54192W        W26617  16.177   7.073  11.069
54193W        W26618  27.668  17.807   0.857
54194W        W26619  36.304  15.272  12.145
54195W        W26620  27.000  32.176  11.531
54196W        W26621   4.024  26.315   0.845
54197W        W26622  37.951   7.216   3.232
54198W        W26623  24.762  21.397   4.362
54199W        W26624   9.924  37.888  11.246
54200W        W26625   0.553  43.421  11.560
54201W        W26626   0.817  27.892   4.101
54202W        W26627  31.763  33.565   0.372
54203W        W26628  22.038  20.359   0.434
54204W        W26629   3.945  37.118   0.221
54205W        W26630  36.576  11.833  11.149
54206W        W26631  12.929  37.937  13.995
54207W        W26632  41.642  28.517  13.064
54208W        W26633   7.246   0.861   4.452
54209W        W26634  17.070   5.750  14.122
54210W        W26635  11.767  23.659   3.997
54211W        W26636  43.572  24.545   0.312
54212W        W26637  12.540  22.709  13.924
54213W        W26638  39.906  44.063   1.419
54214W        W26639   9.747  29.063   0.381
54215W        W26640  31.913   2.538  14.628
54216W        W26641  17.185   8.850  12.750
54217W        W26642  29.326  24.784  13.314
54218W        W26643  19.149  28.080   1.497
54219W        W26644  13.680   7.228  13.742
54220W        W26645  44.785   1.548   1.220
54221W        W26646  44.959  13.579  12.450
54222W        W26647  43.262   7.359  13.291
54223W        W26648  33.185  38.065  13.883
54224W        W26649   8.345  31.134   4.345
54225W        W26650  23.925  23.231  14.952
54226W        W26651  28.289  35.446   1.866
54227W        W26652  44.358  18.291  13.529
54228W        W26653  37.856  24.196  10.657
54229W        W26654  35.201  12.547  11.097
54230W        W26655  23.030  33.141  14.490
54231W        W26656  42.479   4.130   2.269
54232W        W26657  23.395  15.665  12.412
54233W        W26658  10.101  40.785  11.665
54234W        W26659  33.150  26.658  11.108
54235W        W26660  15.290  31.039   3.037
54236W        W26661  13.646  26.659  12.326
54237W        W26662  21.936  15.415   0.355
54238W        W26663  25.231  24.014  11.568
54239W        W26664  35.367  14.211  11.634
54240W        W26665  34.932  37.782   2.353
54241W        W26666  34.324   0.347   4.919
54242W        W26667   0.481   8.822   4.852
54243W        W26668   9.817  17.580   3.744
54244W        W26669  44.851   1.041  12.400
54245W        W26670  21.299  43.295   2.705
54246W        W26671   8.909  10.673   2.969
54247W        W26672   1.023  27.084  10.836
54248W        W26673  20.627  22.052   2.418
54249W        W26674  23.032  13.309  13.426
54250W        W26675  34.042  23.514  10.858
54251W        W26676  11.202   6.821   3.655
54252W        W26677   1.973  13.276  11.459
54253W        W26678  39.721  35.166  13.999
54254W        W26679  19.748  17.687   0.697
54255W        W26680   5.230  35.271   1.418
54256W        W26681  41.262  39.076   3.226
54257W        W26682  29.393  37.968   2.537
54258W        W26683  37.726   0.806   5.135
54259W        W26684  14.310   8.892   2.370
54260W        W26685   1.329  13.287   4.562
54261W        W26686   1.676   5.339   0.451
54262W        W26687  35.138  21.718  14.131
54263W        W26688   3.986  32.447   1.861
54264W        W26689   2.744   2.954  13.596
54265W        W26690  29.784  32.649   0.706
54266W        W26691  25.985  22.586  10.428
54267W        W26692  27.245  26.984  14.391
54268W        W26693  41.925   5.792   1.037
54269W        W26694  33.329  29.997  10.319
54270W        W26695   0.770  30.782  13.318
54271W        W26696  24.347  19.624  14.110
54272W        W26697  27.204   0.370  12.337
54273W        W26698   2.943   1.402  11.168
54274W        W26699  44.694   6.906  13.373
54275W        W26700  31.953  30.247  11.050
54276W        W26701  13.886   5.350  13.070
54277W        W26702  36.601  35.704  10.898
54278W        W26703  23.967   6.680   4.701
54279W        W26704  41.581   8.624  14.048
54280W        W26705  15.762  35.324   2.851
54281W        W26706   8.431   3.025   3.182
54282W        W26707  33.125  44.456   1.846
54283W        W26708  16.440   6.133   0.006
54284W        W26709  10.983  10.216   0.801
54285W        W26710  14.590   0.518   0.029
54286W        W26711   6.162  26.671  13.400
54287W        W26712  37.348  26.027  14.472
54288W        W26713  20.181   4.296   3.176
54289W        W26714  20.103   0.324   0.309
54290W        W26715  14.668  27.998  12.096
54291W        W26716  27.639   6.774   0.417
54292W        W26717   7.429  15.554  12.903
54293W        W26718  11.520  14.359   2.802
54294W        W26719   0.857  12.728  11.786
54295W        W26720  18.724  16.641   0.458
54296W        W26721  22.229  16.753  11.427
54297W        W26722  18.088  32.702   3.687
54298W        W26723  11.561  35.002   2.327
54299W        W26724  37.163  36.051  11.932
54300W        W26725  30.908  39.985   2.796
54301W        W26726  35.940  41.625   4.162
54302W        W26727   2.467  19.650   1.978
54303W        W26728  34.092   2.739   3.646
54304W        W26729  20.142   7.584   3.679
54305W        W26730  36.398  20.321  14.278
54306W        W26731   2.361  11.392  12.656
54307W        W26732  22.680   2.566   2.094
54308W        W26733  22.267  32.986   2.316
54309W        W26734   9.480  16.559   2.707
54310W        W26735  29.956  25.432  13.898
54311W        W26736   8.998  30.156  12.488
54312W        W26737  26.807  28.017   1.929
54313W        W26738  34.694   8.973  14.493
54314W        W26739  18.595  35.601  11.681
54315W        W26740  16.315   7.007   3.534
54316W        W26741  28.606  41.036  14.645
54317W        W26742  41.279  23.514  13.955
54318W        W26743  41.746  28.553  13.560
54319W        W26744  15.024   2.043   0.744
54320W        W26745  40.851   5.631  13.071
54321W        W26746   7.812   1.028  11.503
54322W        W26747   2.761  40.822  13.380
54323W        W26748  39.272  29.714   1.364
54324W        W26749  42.917  37.627   4.034
54325W        W26750  18.309   9.632  12.577
54326W        W26751  23.025  30.231  13.012
54327W        W26752  16.615  20.268  13.016
54328W        W26753  18.325  19.710   0.228
54329W        W26754   4.880  31.297   2.414
54330W        W26755   2.732  43.206   1.351
54331W        W26756  28.598   4.211  13.930
54332W        W26757  44.268  39.554  12.892
54333W        W26758  40.396  31.592  12.076
54334W        W26759  14.577  30.878  14.760
54335W        W26760  42.234  36.037   2.151
54336W        W26761  16.644  13.194  14.914
54337W        W26762  35.916  34.226   0.481
54338W        W26763  43.995  30.192   2.803
54339W        W26764  26.137  33.520  11.560
54340W        W26765  27.123   4.951  13.925
54341W        W26766  20.624  34.463   0.130
54342W        W26767  17.704  31.401  11.101
54343W        W26768  14.562  32.642  11.154
54344W        W26769  34.051   1.870  12.157
54345W        W26770  30.520  34.768  11.280
54346W        W26771  13.961  34.421   3.372
54347W        W26772  37.374  19.328   3.529
54348W        W26773  40.466  18.848  13.469
54349W        W26774  15.989  40.304  13.972
54350W        W26775  29.707  16.147   4.813
54351W        W26776  29.670  14.566   2.848
54352W        W26777  36.122  18.708   4.275
54353W        W26778   5.497  10.721  12.330
54354W        W26779  44.576  28.627  11.134
54355W        W26780  30.644  30.034   3.272
54356W        W26781  41.702  38.901   5.185
54357W        W26782  10.646  38.641   3.840
54358W        W26783   4.420  37.075   0.848
54359W        W26784  44.897  40.011  10.513
54360W        W26785  37.940  33.969   3.942
54361W        W26786   6.156  44.820  14.448
54362W        W26787  38.617  41.173   2.156
54363W        W26788  39.258   4.078   3.254
54364W        W26789  15.703   2.394   2.362
54365W        W26790  26.609  11.112  14.370
54366W        W26791  19.125  25.280  11.964
54367W        W26792   7.628  38.369   1.636
54368W        W26793  25.852  40.327   2.124
54369W        W26794  28.229  27.639   1.878
54370W        W26795  40.916  19.182   4.469
54371W        W26796  29.444  32.174  13.969
54372W        W26797  24.082  34.128   3.831
54373W        W26798  10.122  24.796   2.652
54374W        W26799  29.288  44.161  10.233
54375W        W26800  39.448   9.059  13.432
54376W        W26801  39.985  43.884   2.401
54377W        W26802  12.602  17.439   0.779
54378W        W26803  41.512  41.214  10.544
54379W        W26804   7.406  11.884  13.489
54380W        W26805  31.873   3.957  12.053
54381W        W26806   2.979  32.468  12.126
54382W        W26807   9.601  17.583   4.615
54383W        W26808  19.086  21.285   1.402
54384W        W26809  43.419   6.254  11.609
54385W        W26810  29.609  24.048   3.544
54386W        W26811  12.217  26.805  14.412
54387W        W26812   5.851  39.027   4.187
54388W        W26813  20.241  19.783   2.222
54389W        W26814  31.902   4.922  10.704
54390W        W26815  41.424  14.214  13.042
54391W        W26816  34.989   7.679   4.060
54392W        W26817  41.930  41.993   1.083
54393W        W26818  14.046  28.828  13.314
54394W        W26819   1.044  30.236   1.770
54395W        W26820   3.281  11.694  13.091
54396W        W26821  14.381  43.444   0.053
54397W        W26822  28.313   5.666  12.985
54398W        W26823  13.835  42.445   0.246
54399W        W26824   4.588  43.940  12.060
54400W        W26825  33.225  27.729   4.141
54401W        W26826  30.965  13.616   4.689
54402W        W26827  25.552  10.753  13.000
54403W        W26828  31.013  14.130   4.710
54404W        W26829  41.946  26.246   4.169
54405W        W26830  18.610  30.086  11.096
54406W        W26831  39.837  12.705   2.273
54407W        W26832  34.420  24.630   0.198
54408W        W26833  20.132  24.015   3.637
54409W        W26834  22.526  11.571   2.717
54410W        W26835  41.824  37.640  13.955
54411W        W26836  37.481  35.695  12.140
54412W        W26837  24.664   9.342  12.387
54413W        W26838  20.582  39.553  13.021
54414W        W26839  38.591  27.740   3.709
54415W        W26840  36.576  18.517   1.190
54416W        W26841  13.389   4.596   9.957
54417W        W26842  36.419   3.741   1.190
54418W        W26843  15.648  25.212  12.990
54419W        W26844   1.790  10.554  10.739
54420W        W26845  18.220   8.556  11.334
54421W        W26846  21.274   0.291   0.949
54422W        W26847  41.947  15.806  13.375
54423W        W26848  19.708  14.309   2.803
54424W        W26849  38.892   6.886   1.869
54425W        W26850  26.377  35.329  11.469
54426W        W26851  39.207  28.864  11.502
54427W        W26852   3.999   3.492   1.425
54428W        W26853  35.978  21.256  13.808
54429W        W26854  15.621   6.338   3.283
54430W        W26855  44.558  40.771   2.209
54431W        W26856   7.905  39.855   3.742
54432W        W26857  30.549  26.144   1.336
54433W        W26858   6.435  34.216  14.849
54434W        W26859  11.642   7.471  14.443
54435W        W26860  14.679   1.974  10.132
54436W        W26861   4.575  20.358   0.859
54437W        W26862  40.476   3.698  13.913
54438W        W26863  32.393  39.790   4.581
54439W        W26864  26.725  21.494   1.255
54440W        W26865  31.112  14.254  10.193
54441W        W26866  16.111  27.138  11.985
54442W        W26867  10.106  44.919   4.656
54443W        W26868  16.439  28.684   2.835
54444W        W26869  15.697  39.909   1.944
54445W        W26870  36.882   0.058  11.961
54446W        W26871  19.442  35.238  11.116
54447W        W26872  20.797  12.657  10.964
54448W        W26873  44.063  25.383  11.040
54449W        W26874   0.842  36.043  12.959
54450W        W26875   9.235  18.475  12.550
54451W        W26876  10.237  23.577   4.739
54452W        W26877  44.943  40.265  10.955
54453W        W26878  30.436  37.331   3.187
54454W        W26879  13.730  14.906   2.234
54455W        W26880  12.623  32.013   4.704
54456W        W26881  21.630  12.658   2.620
54457W        W26882  17.516   9.168   0.423
54458W        W26883  30.989  37.625   0.879
54459W        W26884   9.350  26.596   1.314
54460W        W26885   7.126   9.647  13.468
54461W        W26886  35.614   1.408   2.272
54462W        W26887  16.034   2.803  13.801
54463W        W26888  33.007   4.023  13.126
54464W        W26889  24.465  35.926   3.103
54465W        W26890  24.671  17.698  11.087
54466W        W26891   8.244  18.236  11.606
54467W        W26892   4.487   6.946   4.514
54468W        W26893  40.755  29.464   1.474
54469W        W26894  14.075  16.188  14.503
54470W        W26895  43.483   9.644  11.513
54471W        W26896  44.866  42.783   1.923
54472W        W26897  30.838  41.427   3.657
54473W        W26898  11.141  21.244  11.121
54474W        W26899  14.192  38.903  11.621
54475W        W26900   4.924  18.750  13.885
54476W        W26901  30.977  18.771   2.225
54477W        W26902  24.681   5.779  13.776
54478W        W26903   1.049   3.507  11.511
54479W        W26904  20.145  43.909  12.941
54480W        W26905  23.743  11.245   0.834
54481W        W26906  14.113  20.512  13.042
54482W        W26907  29.584  20.062  11.571
54483W        W26908   6.087  19.498   4.495
54484W        W26909  41.354  15.067  13.592
54485W        W26910  35.688   6.480  11.840
54486W        W26911  17.335  12.077   3.176
54487W        W26912  21.499  29.010   1.342
54488W        W26913  20.156  44.779  14.436
54489W        W26914   6.156  21.113   2.657
54490W        W26915  37.090  35.099   2.329
54491W        W26916  26.632  30.091  13.097
54492W        W26917  14.545  39.442  11.983
54493W        W26918  33.641  10.794  10.108
54494W        W26919  28.883  35.424  11.567
54495W        W26920  13.690   6.913  12.748
54496W        W26921  40.330   1.941  11.611
54497W        W26922  17.683  23.377  14.960
54498W        W26923   2.007  11.376  11.900
54499W        W26924  39.931  17.850  11.975
54500W        W26925  15.769  12.177   2.090
54501W        W26926  16.818  33.023   0.425
54502W        W26927  43.467  20.493  14.168
54503W        W26928  35.606  16.762   4.295
54504W        W26929  35.432  29.363   0.489
54505W        W26930  19.915  37.403   2.916
54506W        W26931  17.071   5.781  11.989
54507W        W26932   1.045  43.859   4.304
54508W        W26933  24.057  10.382   4.574
54509W        W26934  23.213  35.075  11.999
54510W        W26935  40.337   6.653  14.538
54511W        W26936   0.571  25.630   2.874
54512W        W26937   4.497  43.018   0.137
54513W        W26938  26.118  35.939   1.858
54514W        W26939  42.949   2.391  14.717
54515W        W26940  38.030  39.538   2.820
54516W        W26941  42.577  39.913   2.819
54517W        W26942  19.675  23.051   0.447
54518W        W26943  43.416   3.151  12.908
54519W        W26944   5.915  13.699  14.640
54520W        W26945  36.377  11.512  14.751
54521W        W26946  12.228   7.985   4.498
54522W        W26947  18.794  37.741  14.523
54523W        W26948  23.005  32.404   2.366
54524W        W26949   2.820  11.441   3.699
54525W        W26950  29.456  27.635  12.233
54526W        W26951  28.760  20.938   4.002
54527W        W26952  28.431   7.408   2.443
54528W        W26953  30.199  18.134  14.119
54529W        W26954  28.007  29.947   0.471
54530W        W26955  40.928  24.921  11.252
54531W        W26956   5.382  41.756  10.722
54532W        W26957  35.087   4.678   3.191
54533W        W26958   9.231  42.564  13.141
54534W        W26959  16.848  12.952  12.434
54535W        W26960  28.632   2.272  14.057
54536W        W26961  24.806  22.743  12.814
54537W        W26962  39.000  33.594  12.148
54538W        W26963   7.474  34.945   2.281
54539W        W26964   9.605  20.805   0.477
54540W        W26965  10.243   7.238  13.359
54541W        W26966   1.966   0.431   2.908
54542W        W26967   2.016   0.703   4.129
54543W        W26968  42.455   2.394  12.990
54544W        W26969  36.958  17.654   3.428
54545W        W26970   1.239  27.147   1.383
54546W        W26971  13.297  10.305  12.755
54547W        W26972  13.178  24.728  11.066
54548W        W26973  22.213  38.971  10.943
54549W        W26974  34.172  24.577   3.850
54550W        W26975   2.757  44.258   0.419
54551W        W26976  23.890  24.422   0.723
54552W        W26977   5.758   7.896  10.458
54553W        W26978   7.216  23.686   2.438
54554W        W26979   8.374  37.718   0.792
54555W        W26980   3.200   6.607  13.550
54556W        W26981  39.545  41.044   2.630
54557W        W26982  39.408  17.220  14.925
54558W        W26983  11.136  28.125   1.467
54559W        W26984  41.520  42.936  12.538
54560W        W26985  27.406   0.689  10.577
54561W        W26986  18.985  44.049   0.741
54562W        W26987   8.784  28.131   2.092
54563W        W26988   5.479  21.101  11.533
54564W        W26989  21.821   7.337   4.325
54565W        W26990   0.424  25.013   2.322
54566W        W26991  30.774  17.413  14.422
54567W        W26992  27.898  28.966   0.695
54568W        W26993  17.558  41.290   3.175
54569W        W26994   1.719   4.277   4.111
54570W        W26995  22.183  30.156  11.492
54571W        W26996  26.141  22.938  11.358
54572W        W26997   3.417  13.773   4.509
54573W        W26998   2.322  15.171  14.035
54574W        W26999   1.538  39.784  13.425
54575W        W27000  19.748  14.670   4.630
54576W        W27001  15.417  42.729  10.699
54577W        W27002   2.558   7.303   3.259
54578W        W27003  22.179  14.651   1.474
54579W        W27004   8.889  24.121   2.826
54580W        W27005  41.961  10.717   1.644
54581W        W27006  34.450  27.923   0.758
54582W        W27007   6.177   3.832  14.923
54583W        W27008  29.046  22.212  12.605
54584W        W27009  43.674   3.735   0.023
54585W        W27010   9.904  40.929  10.453
54586W        W27011   1.368  22.414  14.173
54587W        W27012  33.609  34.269  14.593
54588W        W27013  38.807  31.330   3.383
54589W        W27014  28.127  43.431   2.408
54590W        W27015  18.557  32.332   0.392
54591W        W27016  20.162  10.651   2.753
54592W        W27017  43.911   5.389   4.772
54593W        W27018  15.713  43.534   2.636
54594W        W27019  14.801  18.889   2.659
54595W        W27020  20.794  31.901   5.163
54596W        W27021  21.567  13.187  13.563
54597W        W27022  22.108  31.201  14.451
54598W        W27023  25.642  38.185  12.104
54599W        W27024   2.717  24.131  14.550
54600W        W27025  32.536  16.192  12.954
54601W        W27026  14.152  13.780   3.417
54602W        W27027  11.903  36.678  14.366
54603W        W27028  11.611  17.520  11.634
54604W        W27029  38.974   2.408   0.899
54605W        W27030  16.627  11.214  13.014
54606W        W27031  44.240  42.852  14.937
54607W        W27032   6.169  26.181  12.726
54608W        W27033  13.535   2.348  14.286
54609W        W27034  18.230  39.861  13.899
54610W        W27035  12.658  28.550  13.106
54611W        W27036   7.214   4.320   0.306
54612W        W27037  36.295   9.257   2.650
54613W        W27038   7.283  23.081   4.859
54614W        W27039   6.157  43.830   4.969
54615W        W27040   7.141  41.887   3.460
54616W        W27041  31.733   9.822  13.322
54617W        W27042  31.982   8.333  14.273
54618W        W27043  41.851  23.524   2.111
54619W        W27044  42.497  44.595   0.119
54620W        W27045  40.960  27.211   3.814
54621W        W27046  31.005   0.334   4.279
54622W        W27047   7.249  44.809  11.223
54623W        W27048  41.056   3.230  14.871
54624W        W27049  29.973  40.502  13.233
54625W        W27050  29.141  37.369   4.580
54626W        W27051   7.730   4.564  14.552
54627W        W27052   0.470  33.672   3.258
54628W        W27053  15.634  38.746   1.468
54629W        W27054  43.252  27.538   3.203
54630W        W27055   3.392  29.210   4.583
54631W        W27056  25.139  17.068  11.875
54632W        W27057  13.226   2.249  11.103
54633W        W27058  17.742  11.692  14.296
54634W        W27059  13.223  10.020  10.106
54635W        W27060  23.594  25.728   2.338
54636W        W27061  20.595  43.437  10.666
54637W        W27062  14.316  18.719   2.684
54638W        W27063  11.208  29.648   1.638
54639W        W27064  21.090  43.450  13.904
54640W        W27065  18.590  37.660   0.722
54641W        W27066  18.376  21.135  10.747
54642W        W27067  21.972  23.509   0.852
54643W        W27068  37.962  30.925   0.215
54644W        W27069  29.974  42.114   3.422
54645W        W27070   9.737  16.805   4.601
54646W        W27071  28.411   1.914  12.025
54647W        W27072  23.737  14.236   4.558
54648W        W27073  10.338  42.011   0.432
54649W        W27074  25.711  33.846   4.818
54650W        W27075  23.242   3.291   3.378
54651W        W27076   3.836   2.479   2.881
54652W        W27077  18.671  28.986   4.776
54653W        W27078   0.841  43.213   0.713
54654W        W27079  23.605  21.280  13.400
54655W        W27080   7.924   2.287  13.515
54656W        W27081   6.170  41.713   4.217
54657W        W27082   5.373  12.393  10.770
54658W        W27083  19.719  42.047   4.800
54659W        W27084  18.772  33.816   3.477
54660W        W27085  14.592   9.183  14.061
54661W        W27086  44.397  12.564   4.648
54662W        W27087  23.006  38.397  10.650
54663W        W27088  16.785  36.386   4.364
54664W        W27089  12.552  27.647  13.332
54665W        W27090  14.057   0.788  12.864
54666W        W27091  29.533  24.553   3.684
54667W        W27092   3.521  18.545  12.538
54668W        W27093  19.673   5.361   0.213
54669W        W27094  19.041   9.483  12.630
54670W        W27095   4.981  22.830   4.949
54671W        W27096  29.953  22.248  12.430
54672W        W27097   3.182  40.552  13.718
54673W        W27098  22.042  23.097   1.789
54674W        W27099  41.580  13.461  11.087
54675W        W27100  29.193   9.740  12.040
54676W        W27101  13.141  12.331   3.409
54677W        W27102  34.425   8.631   2.646
54678W        W27103   5.411  18.613  10.663
54679W        W27104  29.378  24.946  12.102
54680W        W27105  41.197  16.672  13.796
54681W        W27106  40.771  37.290  13.321
54682W        W27107  42.303   0.986   4.317
54683W        W27108   0.767   5.519   3.278
54684W        W27109  33.977  23.160  12.192
54685W        W27110  28.245  44.727  11.523
54686W        W27111  14.366  29.101   4.660
54687W        W27112   2.394  32.960   0.036
54688W        W27113  13.628   2.714   2.200
54689W        W27114  36.983  24.773  10.796
54690W        W27115   6.755  17.746   2.325
54691W        W27116  34.991   6.611  14.243
54692W        W27117   6.721  33.712   2.751
54693W        W27118  34.730  34.411  13.984
54694W        W27119  33.053  34.356   1.716
54695W        W27120  40.017  30.558  13.886
54696W        W27121   5.262   8.919   0.767
54697W        W27122  12.588  36.303  13.820
54698W        W27123  17.937  38.412   0.707
54699W        W27124  11.310  11.540  14.737
54700W        W27125  33.163  38.352  14.415
54701W        W27126  38.228   0.406  12.922
54702W        W27127  32.479  26.946   1.907
54703W        W27128  21.114  16.209   5.015
54704W        W27129  37.096  43.825  14.806
54705W        W27130  11.521   4.761  13.982
54706W        W27131  20.715   6.392  14.247
54707W        W27132  40.336  42.380  13.878
54708W        W27133  32.883  16.542   0.918
54709W        W27134  29.131  25.477  12.981
54710W        W27135  44.218  12.680   2.678
54711W        W27136  35.790  37.097  15.000
54712W        W27137   3.242  20.491   4.719
54713W        W27138  20.993  34.999   3.151
54714W        W27139   9.584  23.339  14.393
54715W        W27140  24.725  35.840  11.132
54716W        W27141  41.387  37.325   2.439
54717W        W27142  17.161   1.771  10.542
54718W        W27143  22.710  43.762   2.702
54719W        W27144   1.300  38.415  12.147
54720W        W27145  35.919  27.203   4.671
54721W        W27146  37.897   4.834  12.181
54722W        W27147  18.021   9.172   0.238
54723W        W27148  18.355  16.747   4.587
54724W        W27149  16.085  41.736   4.574
54725W        W27150   3.874  39.511   2.315
54726W        W27151  38.930  40.769   3.237
54727W        W27152  12.567  40.992   2.857
54728W        W27153   4.593  44.530   5.109
54729W        W27154  35.866  15.014  14.327
54730W        W27155  27.593  22.359   4.584
54731W        W27156  30.194  41.461  10.074
54732W        W27157  38.445  39.584   3.140
54733W        W27158   0.558  28.968  14.299
54734W        W27159   0.592  30.606   9.927
54735W        W27160  44.834  30.236   2.969
54736W        W27161  37.037  32.790  11.041
54737W        W27162  12.799  35.349  14.076
54738W        W27163  33.195  11.309  13.963
54739W        W27164  26.038  10.613  13.131
54740W        W27165  24.103   9.502   4.317
54741W        W27166  32.542  13.216   2.437
54742W        W27167  37.291  16.612  14.513
54743W        W27168  39.105  15.722   4.651
54744W        W27169   8.861  24.128  11.940
54745W        W27170  41.321  10.074   5.197
54746W        W27171  20.451  33.365   2.231
54747W        W27172   7.833  34.140   1.109
54748W        W27173  36.011  20.227  13.051
54749W        W27174   2.412   1.475   3.599
54750W        W27175  39.592  43.853  11.417
54751W        W27176  42.456  33.092  12.310
54752W        W27177  30.937  41.796   2.714
54753W        W27178   3.686   2.881  11.997
54754W        W27179  38.350  42.896   5.026
54755W        W27180  43.076   2.538   2.937
54756W        W27181  43.882  43.003   1.981
54757W        W27182   3.393  26.488   1.471
54758W        W27183   1.917  20.975  14.906
54759W        W27184  32.940  37.973   0.715
54760W        W27185  36.418  10.167   3.358
54761W        W27186  23.304  34.501  14.107
54762W        W27187  22.032  17.733  13.768
54763W        W27188   9.912   2.732  12.999
54764W        W27189  14.075  35.557   2.873
54765W        W27190  40.514  20.894   3.571
54766W        W27191  16.258   7.367   1.354
54767W        W27192  41.344   3.704   1.412
54768W        W27193  14.313  30.377   2.711
54769W        W27194  34.003  39.201  13.535
54770W        W27195  39.296   6.587   1.131
54771W        W27196  14.102  33.412   3.298
54772W        W27197  41.485  29.861  13.567
54773W        W27198  24.553   5.415  14.115
54774W        W27199  28.848   3.503   4.660
54775W        W27200  16.008  41.497   2.149
54776W        W27201  10.805  22.274   0.339
54777W        W27202  25.013  17.977   4.206
54778W        W27203   6.928   1.986   1.848
54779W        W27204  19.420  28.450  10.538
54780W        W27205   6.643   6.153   4.535
54781W        W27206  29.195  34.481  11.162
54782W        W27207  21.482  36.560  11.551
54783W        W27208  28.929  18.199  14.302
54784W        W27209   4.400  33.903  10.527
54785W        W27210  41.759  18.853  11.912
54786W        W27211   3.570   5.450   4.138
54787W        W27212  33.193  35.383   2.941
54788W        W27213  37.824   4.433  12.539
54789W        W27214   1.956  37.958   3.632
54790W        W27215  43.656  28.666  11.447
54791W        W27216  16.188  23.030   2.132
54792W        W27217  13.333  29.031  10.918
54793W        W27218  26.845  18.434  13.366
54794W        W27219  32.480   4.240   4.405
54795W        W27220  21.902  37.045  14.023
54796W        W27221  38.520  39.506  10.553
54797W        W27222  33.935  35.119   0.761
54798W        W27223   6.862  12.570   4.780
54799W        W27224  38.749  39.506  14.306
54800W        W27225   4.115  41.444  14.412
54801W        W27226   9.203  33.543  13.521
54802W        W27227  21.511  23.135  10.319
54803W        W27228   9.170  17.662  13.885
54804W        W27229  15.804  14.679  12.877
54805W        W27230  20.314  34.224  12.465
54806W        W27231  28.053  31.972  14.269
54807W        W27232  29.620  27.336   0.313
54808W        W27233  21.417  40.905  11.007
54809W        W27234  14.039  34.595  12.048
54810W        W27235  40.375  41.010   3.348
54811W        W27236  27.904  18.246  14.373
54812W        W27237  29.527  41.713   2.654
54813W        W27238  33.076   2.159  12.566
54814W        W27239  13.595  27.503   3.854
54815W        W27240  15.283   9.620  11.419
54816W        W27241  43.827  34.962  11.193
54817W        W27242  12.571   2.664   2.239
54818W        W27243  30.674  30.883   2.167
54819W        W27244   4.308  28.966   2.802
54820W        W27245  44.826  19.022  14.899
54821W        W27246  29.629  21.039   0.510
54822W        W27247   1.381   6.722  14.378
54823W        W27248  15.894  38.132   4.065
54824W        W27249  40.174   4.029  14.294
54825W        W27250  43.823   1.414  10.897
54826W        W27251  31.349  43.107  12.502
54827W        W27252  19.607  44.569  13.664
54828W        W27253  28.202  29.649   4.044
54829W        W27254  42.783  13.190   3.637
54830W        W27255  11.527  18.156   4.161
54831W        W27256   0.719   9.698   0.964
54832W        W27257  13.417  15.236  10.544
54833W        W27258   1.511  26.725  12.341
54834W        W27259  15.506  19.598   2.337
54835W        W27260   3.906  28.177  14.578
54836W        W27261  16.587  28.652  12.605
54837W        W27262  38.096   4.794   1.670
54838W        W27263  29.040  10.332   1.511
54839W        W27264  16.174  19.593   1.082
54840W        W27265   5.285  38.121   3.556
54841W        W27266  14.237   4.294  11.052
54842W        W27267  44.002  34.607  10.228
54843W        W27268   5.277  43.862   0.460
54844W        W27269  44.447  15.302  13.408
54845W        W27270  44.707  39.791  12.796
54846W        W27271  27.677  35.031   0.751
54847W        W27272  12.351   1.667   0.409
54848W        W27273  29.035  20.631  14.575
54849W        W27274  26.252   3.390  11.883
54850W        W27275  43.499  39.676   2.602
54851W        W27276   1.016   4.819   3.826
54852W        W27277   3.026  15.088   3.203
54853W        W27278   2.064   8.733   0.329
54854W        W27279  31.042  20.626   1.803
54855W        W27280  12.642   0.765   0.014
54856W        W27281  12.217  20.665   3.324
54857W        W27282  41.425  24.273   0.759
54858W        W27283  17.699   9.189   1.396
54859W        W27284  31.388  11.991  12.449
54860W        W27285  12.906  32.868   3.099
54861W        W27286   2.713   5.692   1.012
54862W        W27287  28.466   0.802   0.903
54863W        W27288  25.979  21.114   2.629
54864W        W27289  20.708   9.824   9.688
54865W        W27290  19.087  42.647   3.849
54866W        W27291  38.449  36.829   0.823
54867W        W27292  14.914  23.697  12.901
54868W        W27293  32.804  41.905   2.697
54869W        W27294  39.472   2.230  14.288
54870W        W27295  25.800  37.122   0.580
54871W        W27296  20.768   3.890  10.723
54872W        W27297  42.867  34.055  13.038
54873W        W27298   6.882  16.293  14.408
54874W        W27299   2.030  41.575   4.500
54875W        W27300   6.333  41.245  11.973
54876W        W27301  36.466  22.018  12.004
54877W        W27302  11.335  28.732   0.581
54878W        W27303  44.753   4.917  13.923
54879W        W27304  22.689  40.404   4.568
54880W        W27305   2.982  30.117  10.651
54881W        W27306  44.073  13.330   4.199
54882W        W27307  18.812  22.524   5.075
54883W        W27308  39.359  39.904   3.637
54884W        W27309  10.893  21.124  10.687
54885W        W27310  41.253  37.658  14.975
54886W        W27311  20.119  37.140   1.649
54887W        W27312  36.511  42.809  12.399
54888W        W27313  38.027  21.044   2.136
54889W        W27314  39.207  27.716  12.293
54890W        W27315  31.442  25.200   0.912
54891W        W27316   0.974   1.516  10.449
54892W        W27317  13.534  26.531   3.713
54893W        W27318  14.574  35.899   0.867
54894W        W27319  44.469  28.202  12.567
54895W        W27320  35.932  36.087   0.363
54896W        W27321  25.483  18.040  13.347
54897W        W27322   9.157  37.127   3.968
54898W        W27323  15.663  44.364   1.145
54899W        W27324   0.804  10.640  12.599
54900W        W27325   6.254  42.439   2.151
54901W        W27326  37.532  12.881  14.683
54902W        W27327  27.372   9.961   5.063
54903W        W27328  21.020  29.899  13.891
54904W        W27329  32.100   3.301   2.820
54905W        W27330  33.643  38.126  12.987
54906W        W27331  10.395   3.345   3.240
54907W        W27332   8.663   8.844  13.472
54908W        W27333  43.955   0.874  14.539
54909W        W27334  29.242  33.998   3.693
54910W        W27335  29.448  16.991  10.389
54911W        W27336   8.830  19.217   2.906
54912W        W27337   3.698  39.300   1.860
54913W        W27338   1.972  35.895   1.751
54914W        W27339  25.566  44.425   0.827
54915W        W27340  31.090  20.753  14.297
54916W        W27341  20.153  26.078  12.496
54917W        W27342   4.853  19.221  11.000
54918W        W27343  24.490  37.656   3.259
54919W        W27344  12.496  43.484   2.005
54920W        W27345  27.258  17.051   3.890
54921W        W27346  10.242   8.752  14.297
54922W        W27347  44.440   7.465  10.647
54923W        W27348  38.357  13.894   0.797
54924W        W27349  15.329  13.408   0.860
54925W        W27350  42.261  13.212   2.311
54926W        W27351  32.411  17.164  13.312
54927W        W27352  17.595  20.148   0.496
54928W        W27353   0.409   4.931   2.402
54929W        W27354  38.594  10.716   0.697
54930W        W27355  41.261  10.199   2.417
54931W        W27356  23.387   8.888   4.251
54932W        W27357  15.159  17.314   3.131
54933W        W27358  42.557   1.142  13.526
54934W        W27359  37.806  38.857  12.803
54935W        W27360   2.189  25.456  13.944
54936W        W27361  24.389  21.695  13.992
54937W        W27362   0.475  24.981   3.938
54938W        W27363  19.700  13.655   3.806
54939W        W27364  24.189   0.245   2.026
54940W        W27365  22.111  43.280   3.784
54941W        W27366  26.189  21.578   3.554
54942W        W27367  41.075  36.432  14.279
54943W        W27368   2.280  11.922   4.145
54944W        W27369  41.445  38.505  12.161
54945W        W27370   1.438  35.462  11.140
54946W        W27371  39.013   8.709   5.217
54947W        W27372   1.906   2.331  10.677
54948W        W27373  37.109   0.859  12.227
54949W        W27374  44.958  41.319   1.485
54950W        W27375  17.234  41.297   3.616
54951W        W27376  15.578  25.725   2.187
54952W        W27377   0.695  19.162   2.133
54953W        W27378  15.737  31.527   1.670
54954W        W27379  18.295  26.701  11.442
54955W        W27380  19.845  10.823   3.143
54956W        W27381  20.917  16.023   2.860
54957W        W27382  38.894   7.171  13.539
54958W        W27383  43.917  40.825  12.365
54959W        W27384   1.465  29.128  14.782
54960W        W27385   4.905  32.161   0.388
54961W        W27386  23.150  42.698  14.546
54962W        W27387  22.596  26.643  12.045
54963W        W27388  24.929  10.917   0.383
54964W        W27389   7.369  18.125   4.669
54965W        W27390  22.698   5.277   3.753
54966W        W27391  17.138  27.380  14.636
54967W        W27392   9.299  14.653   4.359
54968W        W27393  12.206   9.884   1.819
54969W        W27394  27.101  28.892   1.333
54970W        W27395  31.956   0.249   3.330
54971W        W27396  37.155  10.136  11.121
54972W        W27397   6.826  36.895  14.815
54973W        W27398  30.620  34.875   2.861
54974W        W27399   5.779  21.529  13.952
54975W        W27400  41.555   8.792  12.167
54976W        W27401   7.430  30.257   3.183
54977W        W27402  26.231  30.398  12.994
54978W        W27403   9.278  10.840   1.721
54979W        W27404  18.853  27.567  14.366
54980W        W27405  18.726  11.522   5.045
54981W        W27406  37.339  18.535   0.049
54982W        W27407   6.488  33.586   5.278
54983W        W27408  31.505  44.608  11.968
54984W        W27409  41.276  22.040   2.872
54985W        W27410  15.712  37.111  12.065
54986W        W27411  37.162   8.191   0.473
54987W        W27412  18.397   6.271  11.912
54988W        W27413   8.859  28.689   0.072
54989W        W27414  40.803   9.229   0.734
54990W        W27415   9.458  27.387  11.691
54991W        W27416  43.786  32.047   3.695
54992W        W27417  32.835  23.511   3.788
54993W        W27418  32.946   5.774   2.712
54994W        W27419  35.935  21.744   3.277
54995W        W27420  22.144  22.730   2.823
54996W        W27421  26.564  31.436  11.574
54997W        W27422  27.427  32.526  12.577
54998W        W27423  18.718   8.496  11.455
54999W        W27424  36.396  25.493  13.013
55000W        W27425  25.563   5.790   4.889
55001W        W27426  44.998   4.612   2.331
55002W        W27427  10.883  16.317  10.615
55003W        W27428  38.398  17.293  14.710
55004W        W27429  10.191  16.681   1.656
55005W        W27430  11.640  38.959   2.755
55006W        W27431  10.027  14.956   0.544
55007W        W27432  21.750  41.064   3.702
55008W        W27433  16.111  15.138   0.807
55009W        W27434  33.152  27.464   1.396
55010W        W27435   2.272   4.435  12.903
55011W        W27436  32.051   8.716   0.863
55012W        W27437  37.091  41.987   3.747
55013W        W27438  11.917  43.270   0.681
55014W        W27439  30.934  25.258   3.195
55015W        W27440  40.885  42.280   0.017
55016W        W27441  14.265  21.253  10.567
55017W        W27442  40.497  22.290   4.635
55018W        W27443  13.483   9.701   0.454
55019W        W27444  26.019  37.872  14.857
55020W        W27445  41.011  19.553   0.808
55021W        W27446   5.550  22.005  10.630
55022W        W27447  18.124  29.387   2.934
55023W        W27448  30.479  40.464  11.908
55024W        W27449  14.122  37.940   0.932
55025W        W27450   4.216  21.647  14.926
55026W        W27451  33.938   1.810   1.400
55027W        W27452  26.356   2.975   3.361
55028W        W27453  32.380  33.057   4.546
55029W        W27454  29.961  41.873   2.441
55030W        W27455  16.255  15.841  11.967
55031W        W27456  23.595  15.886   0.948
55032W        W27457  44.358  26.099  11.969
55033W        W27458  37.838  40.125  14.359
55034W        W27459  14.158  20.705  13.539
55035W        W27460  28.031  12.382   3.761
55036W        W27461  33.363  19.720   1.800
55037W        W27462   6.431  44.929  12.614
55038W        W27463  29.894  35.889   2.799
55039W        W27464  25.013  43.333  13.454
55040W        W27465   5.028  40.693  13.791
55041W        W27466  14.099  28.597   3.333
55042W        W27467   5.590  21.936   2.250
55043W        W27468  14.715  22.700   1.074
55044W        W27469  12.148  20.563  14.291
55045W        W27470  25.262  22.495  13.497
55046W        W27471  15.630  19.842   0.853
55047W        W27472  43.221  39.987   0.361
55048W        W27473  20.240  27.550  11.957
55049W        W27474  37.439  23.055   2.302
55050W        W27475   3.880  10.869  11.572
55051W        W27476  30.598  25.970  10.370
55052W        W27477  15.640  18.173   0.344
55053W        W27478  27.623  13.086  13.007
55054W        W27479  29.933   1.014   0.869
55055W        W27480   5.338   4.075   0.967
55056W        W27481   1.302  41.615   0.711
55057W        W27482   9.309  39.303  11.998
55058W        W27483  15.587   4.756   5.111
55059W        W27484   1.528   7.399   0.894
55060W        W27485   1.718  42.322  13.907
55061W        W27486  31.567   1.073   2.161
55062W        W27487  37.600  17.096  13.525
55063W        W27488  14.858  34.233   2.791
55064W        W27489  16.268  35.507  14.827
55065W        W27490  35.554   8.779  11.528
55066W        W27491  27.462  17.247   3.283
55067W        W27492   8.370  44.026   1.275
55068W        W27493  37.844  44.089  10.092
55069W        W27494  21.746  37.874   4.329
55070W        W27495  39.117  12.852  11.116
55071W        W27496   9.750  40.844   1.632
55072W        W27497  43.487  28.881  11.901
55073W        W27498  21.848  15.155   4.549
55074W        W27499   4.622  25.083   2.584
55075W        W27500  28.372  31.703   1.316
55076W        W27501  28.580  10.244  12.844
55077W        W27502  42.404  25.941   0.497
55078W        W27503  17.737   2.067  10.606
55079W        W27504  21.146   1.442  10.805
55080W        W27505  29.959  30.848  11.835
55081W        W27506  24.552   0.227   0.380
55082W        W27507   9.846  25.119   3.749
55083W        W27508   7.790  32.516  14.722
55084W        W27509  35.444  26.111   4.969
55085W        W27510  36.519  20.772  14.863
55086W        W27511  26.192  44.523   4.554
55087W        W27512  40.604   1.852   0.296
55088W        W27513  20.972   3.176   2.719
55089W        W27514  23.244  10.306   0.711
55090W        W27515  20.647  36.368   0.728
55091W        W27516  15.163  18.803   0.800
55092W        W27517  41.851  32.844   2.227
55093W        W27518   1.313  38.814   1.742
55094W        W27519   3.241   9.874  14.786
55095W        W27520  16.753  24.743   0.907
55096W        W27521  24.328  38.338   0.504
55097W        W27522  39.412  30.977  12.145
55098W        W27523  26.961  40.047  14.682
55099W        W27524  34.373  39.877  12.061
55100W        W27525  37.434   4.267  11.598
55101W        W27526   0.783   8.262   2.882
55102W        W27527  42.042  40.211  13.558
55103W        W27528  27.078  17.391  12.900
55104W        W27529  44.880   0.016  12.654
55105W        W27530   5.199  18.111  10.744
55106W        W27531  41.791   5.872   2.533
55107W        W27532   8.612  37.591   4.660
55108W        W27533  32.188  42.055   1.831
55109W        W27534   0.876  22.943   4.305
55110W        W27535  13.506   8.108  13.747
55111W        W27536  13.433  12.729   0.811
55112W        W27537  34.841  14.461  12.920
55113W        W27538  11.892  20.115   3.539
55114W        W27539  20.027   6.471   0.793
55115W        W27540  19.064   2.825  10.579
55116W        W27541  32.902  25.261  11.058
55117W        W27542   5.457  13.577   1.792
55118W        W27543  37.426  17.011  11.899
55119W        W27544  19.241  21.456  14.858
55120W        W27545  39.356   1.179   2.189
55121W        W27546  38.838  19.783  11.671
55122W        W27547  27.988  31.426   0.456
55123W        W27548  29.540   8.216   4.576
55124W        W27549  13.862  12.680   3.232
55125W        W27550  17.935  31.790   9.791
55126W        W27551  24.832  21.085  10.629
55127W        W27552  24.997  11.831   0.816
55128W        W27553  38.439  15.249   0.282
55129W        W27554  10.215  29.546  13.927
55130W        W27555  27.917   9.830  10.714
55131W        W27556   0.870  17.050   2.406
55132W        W27557  24.737  35.337  12.977
55133W        W27558  25.653  32.989  13.553
55134W        W27559  29.535  32.621  10.677
55135W        W27560  43.287  27.267   2.222
55136W        W27561  17.439  28.260   5.075
55137W        W27562   2.786  36.623   2.098
55138W        W27563  37.951  43.591   0.767
55139W        W27564  14.670  42.295  12.128
55140W        W27565   8.023  29.389   0.244
55141W        W27566  15.092  19.327  14.855
55142W        W27567   5.176  33.130   4.401
55143W        W27568  10.209  30.475   3.276
55144W        W27569  25.734  17.876   0.289
55145W        W27570   4.932   6.174   2.366
55146W        W27571  25.467   1.388   3.377
55147W        W27572  10.222  41.902   3.624
55148W        W27573  10.229  37.585  10.979
55149W        W27574   2.440  30.942  11.706
55150W        W27575   0.075  27.623  12.825
55151W        W27576  41.101  20.821   3.206
55152W        W27577  11.988  35.002  14.101
55153W        W27578  39.410  26.206  11.446
55154W        W27579  21.991   7.711   2.922
55155W        W27580  39.929  42.544   2.565
55156W        W27581  22.213   9.963   4.215
55157W        W27582  38.220  34.843  14.052
55158W        W27583  32.707  18.500  13.537
55159W        W27584   6.157  31.084  13.566
55160W        W27585  42.192  39.062  13.774
55161W        W27586   6.559  19.480  11.110
55162W        W27587  41.528  33.001  12.399
55163W        W27588  29.543  30.053   3.188
55164W        W27589  44.727  32.040  11.959
55165W        W27590  17.462  17.166  12.740
55166W        W27591  39.474  34.548   3.241
55167W        W27592  30.079  16.848   0.265
55168W        W27593  33.852  25.757   2.681
55169W        W27594   0.286  25.398  12.565
55170W        W27595  35.852  21.407  12.309
55171W        W27596  27.074  42.012   0.351
55172W        W27597  11.276  32.601  11.656
55173W        W27598   1.034  27.111  13.364
55174W        W27599  39.674  25.559   0.391
55175W        W27600   8.108   6.188  13.395
55176W        W27601   1.501  10.637   3.194
55177W        W27602   2.917  27.712   1.755
55178W        W27603   5.708  17.315  11.534
55179W        W27604  15.328   1.376  13.550
55180W        W27605   6.376  29.998   3.145
55181W        W27606  21.013   7.300  11.234
55182W        W27607   8.805   3.244   1.282
55183W        W27608  41.932   5.964   0.321
55184W        W27609  37.119   9.366  13.668
55185W        W27610   8.401   6.766  12.474
55186W        W27611  28.075   6.294  10.777
55187W        W27612  21.973  44.080  10.994
55188W        W27613  42.878  32.649  10.200
55189W        W27614   5.564  42.795   4.089
55190W        W27615  26.994  17.329  13.857
55191W        W27616  31.732  14.737  14.727
55192W        W27617  41.691  20.038  10.631
55193W        W27618  19.738   9.969   3.678
55194W        W27619  38.253  24.660   4.115
55195W        W27620  20.796  16.101   1.933
55196W        W27621  44.068  30.709  10.173
55197W        W27622   5.728  24.967   0.797
55198W        W27623  28.547  17.861  12.380
55199W        W27624  38.778  39.818   2.822
55200W        W27625  31.930  26.225  10.954
55201W        W27626  22.434  40.544   2.383
55202W        W27627   6.769  40.026  11.075
55203W        W27628  39.701  42.256  10.794
55204W        W27629  40.566   6.905  14.952
55205W        W27630   7.255  32.203   3.301
55206W        W27631  36.157  18.704   3.339
55207W        W27632   3.251  16.677  12.974
55208W        W27633  12.397   9.632   0.673
55209W        W27634   4.808   3.636   3.054
55210W        W27635  36.863  37.160   1.320
55211W        W27636  16.144  27.043   1.045
55212W        W27637  36.972  22.039  12.143
55213W        W27638  38.881  40.928   3.761
55214W        W27639  26.009   8.743   2.609
55215W        W27640  18.999  43.452  11.472
55216W        W27641   3.466  34.994  13.466
55217W        W27642  32.929  13.413   4.138
55218W        W27643  15.127  16.069   0.712
55219W        W27644  20.171  23.540  12.410
55220W        W27645  15.080   3.351   3.760
55221W        W27646  19.160  13.855  14.271
55222W        W27647  28.333  18.755   2.250
55223W        W27648  36.417  29.141   3.828
55224W        W27649   2.891  34.926   0.260
55225W        W27650  34.134  31.540  14.325
55226W        W27651  12.689  37.776  14.855
55227W        W27652  37.840   9.057  12.851
55228W        W27653   6.413  33.183   3.356
55229W        W27654  23.747  30.942  13.454
55230W        W27655  11.130  37.487  10.945
55231W        W27656  29.512   5.007  13.486
55232W        W27657  22.051  20.547   4.896
55233W        W27658  10.312   2.294   4.209
55234W        W27659  20.511  12.195  14.897
55235W        W27660  10.861  34.068   3.360
55236W        W27661  17.652   5.805  10.449
55237W        W27662  16.106  29.937   4.107
55238W        W27663   7.248  19.966  12.149
55239W        W27664  21.090  38.370   3.323
55240W        W27665  22.490   5.764   1.880
55241W        W27666   6.480  33.059  14.603
55242W        W27667  15.705  39.500   4.237
55243W        W27668  36.106  40.174   0.516
55244W        W27669  21.045  17.074   4.566
55245W        W27670  16.767  41.919  14.857
55246W        W27671  30.563  12.413  13.363
55247W        W27672  18.211  18.017   1.085
55248W        W27673  17.854  41.548   1.814
55249W        W27674  37.989  20.570  13.983
55250W        W27675  24.013   9.090   0.456
55251W        W27676  15.687  15.694   4.534
55252W        W27677  40.889  21.559  10.679
55253W        W27678   7.766  36.109  14.406
55254W        W27679   5.178  31.619   2.688
55255W        W27680   7.702   5.770  10.643
55256W        W27681  30.830  12.891  12.503
55257W        W27682  23.361   4.228  11.645
55258W        W27683   3.833   4.659   0.760
55259W        W27684  39.988  38.837  13.375
55260W        W27685  43.882  39.073   2.382
55261W        W27686   9.537  24.736   1.344
55262W        W27687  35.057  28.461   3.399
55263W        W27688  31.877  40.788  13.874
55264W        W27689  18.568  30.590   1.426
55265W        W27690  28.951  20.457   9.965
55266W        W27691  42.596  28.646   0.924
55267W        W27692   4.518  24.649   2.877
55268W        W27693  32.966  44.723  12.110
55269W        W27694   0.459  17.244   4.596
55270W        W27695  32.378  30.547  11.104
55271W        W27696  40.372  36.268  11.965
55272W        W27697  30.835   1.733   1.068
55273W        W27698  12.130  22.983  12.919
55274W        W27699   2.141  17.984   1.308
55275W        W27700  25.207  14.206  14.753
55276W        W27701  33.633  18.211  12.735
55277W        W27702  41.351  44.624   2.378
55278W        W27703   6.162   1.290  11.488
55279W        W27704  41.903  15.315  11.478
55280W        W27705  41.572   7.743   4.983
55281W        W27706  16.119  23.980   4.259
55282W        W27707  23.067  26.352   0.876
55283W        W27708  42.527  26.886   1.307
55284W        W27709   6.038  22.537  12.908
55285W        W27710   9.174   7.766  14.297
55286W        W27711  13.325  15.955  11.025
55287W        W27712   2.309  26.396   5.085
55288W        W27713  40.049  43.566  13.366
55289W        W27714  44.832   4.992   0.378
55290W        W27715   4.794  19.193  11.971
55291W        W27716  35.582  17.956  14.908
55292W        W27717  28.616   1.238   4.303
55293W        W27718  10.209  37.511   9.540
55294W        W27719  41.745   2.282   3.845
55295W        W27720   8.811  31.943   0.704
55296W        W27721  28.507   5.406   2.238
55297W        W27722  42.965  37.580  13.579
55298W        W27723  43.941  21.541  12.394
55299W        W27724  24.981  25.985  14.923
55300W        W27725   2.870   4.497   2.709
55301W        W27726   3.892  38.821   1.794
55302W        W27727  34.320   4.297  12.338
55303W        W27728   2.950  33.994  11.862
55304W        W27729  34.393   1.179   0.735
55305W        W27730   8.112  24.112  12.599
55306W        W27731  41.546  44.256  13.455
55307W        W27732  14.846  13.859  11.855
55308W        W27733   6.271  28.056   2.973
55309W        W27734   6.454  16.126   4.004
55310W        W27735  15.274  14.175  14.530
55311W        W27736  15.944  31.096   4.230
55312W        W27737   8.222  38.575   3.896
55313W        W27738  23.497  17.129   1.845
55314W        W27739  17.478  38.957   4.111
55315W        W27740  34.376  21.648  13.155
55316W        W27741  21.395  21.536  12.946
55317W        W27742  43.513  37.972   1.268
55318W        W27743  11.202   6.721  14.303
55319W        W27744  20.754  41.485  14.756
55320W        W27745  11.652   7.374  12.619
55321W        W27746   6.162   6.940   3.865
55322W        W27747  30.167  11.684  13.572
55323W        W27748   4.004  15.853   3.430
55324W        W27749  17.997   7.689  11.896
55325W        W27750  28.812  41.877   3.751
55326W        W27751  17.546  40.083  13.242
55327W        W27752  13.693  11.783  11.618
55328W        W27753  15.350  43.219  11.541
55329W        W27754  33.548  38.741   3.323
55330W        W27755  26.426  30.614  10.753
55331W        W27756  10.234  11.258   3.929
55332W        W27757  31.671  41.074   4.136
55333W        W27758   1.033  10.151   4.188
55334W        W27759  23.585  37.510   4.172
55335W        W27760  28.213  32.553   4.611
55336W        W27761   3.823  44.930   1.368
55337W        W27762  15.268   8.048   0.236
55338W        W27763  11.747  25.695  13.724
55339W        W27764  25.701  10.238  13.025
55340W        W27765  22.795  36.510  12.041
55341W        W27766  35.579  36.800  13.483
55342W        W27767  36.123  34.015   3.608
55343W        W27768  29.468  40.135  14.972
55344W        W27769   7.415  13.124  10.672
55345W        W27770  38.603  15.973   9.991
55346W        W27771  42.481   7.857  12.603
55347W        W27772  26.616  22.140   3.156
55348W        W27773  43.047  24.558  12.094
55349W        W27774  25.714  20.307   1.818
55350W        W27775   5.795   0.372  11.517
55351W        W27776  44.966  23.013  14.881
55352W        W27777  24.444  32.648  11.457
55353W        W27778  11.855  38.059   0.690
55354W        W27779  15.139  37.502  11.896
55355W        W27780  34.799   0.982   1.665
55356W        W27781  41.413  31.914   2.266
55357W        W27782  30.962  25.730  10.674
55358W        W27783   3.862  12.632   1.299
55359W        W27784  16.978  31.622   3.138
55360W        W27785  43.061  35.765  10.731
55361W        W27786   4.372  19.877   4.318
55362W        W27787   1.705  37.512  11.594
55363W        W27788  44.162  14.787  13.881
55364W        W27789   9.313   9.810   3.902
55365W        W27790  40.603  35.171  14.355
55366W        W27791  39.521   2.706   0.201
55367W        W27792  39.215  18.208  11.543
55368W        W27793  35.165   1.859   0.148
55369W        W27794  19.825  26.683   1.034
55370W        W27795  22.445  15.070  14.011
55371W        W27796  43.573  28.391   3.285
55372W        W27797   1.844   6.154  11.955
55373W        W27798  29.563  18.128   3.284
55374W        W27799  13.228  10.113   0.798
55375W        W27800  38.472   5.762  13.468
55376W        W27801  40.589  10.976   4.634
55377W        W27802  34.608  15.707   4.673
55378W        W27803  32.939  29.431   3.683
55379W        W27804  22.185  37.801   1.380
55380W        W27805  10.801   6.189  11.062
55381W        W27806   9.741   7.782   4.138
55382W        W27807  21.130  42.303  13.393
55383W        W27808  32.481  25.951   1.371
55384W        W27809  35.131  14.411   3.128
55385W        W27810  26.191  12.856   2.938
55386W        W27811  34.111  42.610  14.262
55387W        W27812  31.651  23.003   9.734
55388W        W27813  32.904  31.668  12.091
55389W        W27814  18.097  39.939  12.443
55390W        W27815  28.591  35.942   0.927
55391W        W27816  12.061  15.813   4.741
55392W        W27817  13.660  41.510   1.505
55393W        W27818  18.318   6.916   1.009
55394W        W27819   1.014  35.761  11.129
55395W        W27820  43.737  39.965  13.867
55396W        W27821  31.683  16.202   2.911
55397W        W27822   3.428   1.249  12.013
55398W        W27823   2.218  10.552  13.735
55399W        W27824  24.289  36.989  11.968
55400W        W27825  11.258  12.561  14.814
55401W        W27826   5.941  24.021  11.116
55402W        W27827  37.037  28.031  14.334
55403W        W27828  35.873  29.492  12.826
55404W        W27829  13.145   9.189   2.628
55405W        W27830  43.900   6.626   1.846
55406W        W27831  22.166   9.154  13.070
55407W        W27832  14.623  18.043   2.412
55408W        W27833  14.577  24.570   4.771
55409W        W27834  41.833  13.897   0.494
55410W        W27835  23.266  44.023  10.781
55411W        W27836  43.512  10.910  11.952
55412W        W27837  16.154  20.944   0.426
55413W        W27838  23.524  23.449   1.839
55414W        W27839   7.209   6.612   2.692
55415W        W27840   8.748  14.728   1.754
55416W        W27841  43.559  15.008   4.114
55417W        W27842  23.988   1.946  12.003
55418W        W27843   5.477  22.671  13.796
55419W        W27844   8.352  30.072  12.988
55420W        W27845   2.350  36.346   1.878
55421W        W27846   3.890   8.133  11.408
55422W        W27847  35.460  36.374   4.060
55423W        W27848  29.105  23.305   4.339
55424W        W27849  15.312  26.612  14.789
55425W        W27850   1.932   2.423   2.742
55426W        W27851  28.513  34.356   5.015
55427W        W27852  41.849   2.677   0.754
55428W        W27853  17.558   2.063   3.345
55429W        W27854  36.197  41.397   4.570
55430W        W27855  12.263  24.044   1.763
55431W        W27856  22.780   1.428  14.159
55432W        W27857  22.227  31.685   0.225
55433W        W27858   3.638   3.000  12.548
55434W        W27859  36.986  22.464  14.811
55435W        W27860  20.096  15.344   2.759
55436W        W27861  37.568   2.134   2.907
55437W        W27862  26.517  26.068   2.409
55438W        W27863   7.789  16.240  12.988
55439W        W27864  19.084   1.427   2.755
55440W        W27865  43.806  27.525   3.475
55441W        W27866  25.663  32.021  12.468
55442W        W27867   6.156  15.627  11.633
55443W        W27868   6.216   0.670  13.570
55444W        W27869   9.766   8.702   4.612
55445W        W27870  40.374  39.324  11.540
55446W        W27871  39.054  26.061   1.257
55447W        W27872  34.144   7.399  12.177
55448W        W27873  36.039  40.302  12.103
55449W        W27874  10.247  30.436  11.488
55450W        W27875  39.212   1.610   3.131
55451W        W27876  40.412  12.170   0.357
55452W        W27877  41.767  30.425  11.064
55453W        W27878  43.055  13.791  10.369
55454W        W27879   6.960  15.142   1.548
55455W        W27880  25.968  43.661   2.923
55456W        W27881  15.579  41.790  12.959
55457W        W27882  25.584  39.716  10.222
55458W        W27883  39.129  34.711   4.690
55459W        W27884  29.502  37.881   3.039
55460W        W27885  35.449  29.692   0.939
55461W        W27886   5.670  30.626   0.828
55462W        W27887  22.160  42.535  10.607
55463W        W27888  26.671  31.535   4.034
55464W        W27889  35.205   6.291  11.917
55465W        W27890  40.180  25.543   0.421
55466W        W27891   2.985  10.892  12.804
55467W        W27892  20.832   1.948   0.360
55468W        W27893  38.880   2.834  11.444
55469W        W27894  15.324  11.369   0.847
55470W        W27895  27.498   5.744   1.522
55471W        W27896  23.797   3.618  13.849
55472W        W27897  24.131   7.078  11.428
55473W        W27898  30.054  28.124  14.780
55474W        W27899   6.686  28.489   0.662
55475W        W27900  18.835  37.337  13.908
55476W        W27901  17.501  12.785   2.437
55477W        W27902  11.057  27.050  14.754
55478W        W27903   6.200   9.110   2.857
55479W        W27904  15.211  32.489  11.885
55480W        W27905  12.138  41.723   0.908
55481W        W27906   0.594  38.390  10.589
55482W        W27907  44.462  16.063   0.051
55483W        W27908   9.919  43.074  12.401
55484W        W27909  10.338  30.722   0.911
55485W        W27910  29.756  40.491   2.872
55486W        W27911  12.592  36.997   0.901
55487W        W27912  13.681  25.769  11.889
55488W        W27913   2.822  31.187   2.044
55489W        W27914   2.339  36.072  12.830
55490W        W27915   5.887   4.143  11.868
55491W        W27916   9.703  26.191   4.289
55492W        W27917  35.153  33.789   3.750
55493W        W27918  27.674   0.545   3.208
55494W        W27919  27.462   4.207  11.252
55495W        W27920  24.698  39.941  12.400
55496W        W27921  25.127  40.713   0.061
55497W        W27922  40.540  34.469   3.553
55498W        W27923  24.268  43.465   1.821
55499W        W27924  35.430   7.917   4.241
55500W        W27925   1.800   9.606   2.924
55501W        W27926  24.813  44.258   3.697
55502W        W27927   5.862  10.774  13.930
55503W        W27928  22.831  32.770   1.303
55504W        W27929  19.050   3.245   0.830
55505W        W27930   2.848   6.158   4.328
55506W        W27931  22.980  16.867   3.314
55507W        W27932  25.017   9.820  14.893
55508W        W27933  42.507  22.547   2.854
55509W        W27934  14.079  44.672   3.182
55510W        W27935  13.722  16.121  13.101
55511W        W27936  29.669   0.458   0.472
55512W        W27937  12.675   1.850  11.525
55513W        W27938   5.947   4.716   0.776
55514W        W27939  18.566   0.449   2.483
55515W        W27940  37.909  40.384  13.918
55516W        W27941  30.869  13.313  13.033
55517W        W27942  33.584  19.993  10.845
55518W        W27943   1.163  33.426  13.128
55519W        W27944  39.901   9.106  10.726
55520W        W27945  39.054  14.864   4.222
55521W        W27946  34.578  29.521   0.979
55522W        W27947   9.147  34.437  11.948
55523W        W27948  42.369  17.712   0.826
55524W        W27949   6.534  17.648  14.300
55525W        W27950  13.726  18.055   2.263
55526W        W27951  33.957  30.619   1.935
55527W        W27952   0.397  10.582   1.419
55528W        W27953  11.156  41.994  12.333
55529W        W27954  11.665  32.562  14.421
55530W        W27955  19.272  40.441  12.418
55531W        W27956   1.308  18.670   4.665
55532W        W27957  32.714  27.417  11.829
55533W        W27958  14.076   2.961  14.017
55534W        W27959  15.864  19.253   3.197
55535W        W27960  20.145  17.518  12.866
55536W        W27961   3.223  35.075  13.920
55537W        W27962  22.610  19.508  11.590
55538W        W27963  42.058   8.832  13.970
55539W        W27964  28.862  35.405  13.097
55540W        W27965   5.763  32.615  12.874
55541W        W27966  25.182  42.827   3.979
55542W        W27967   8.326  18.736  13.476
55543W        W27968  43.048   2.301  12.295
55544W        W27969  34.322  12.338   3.652
55545W        W27970  30.021  20.022  14.116
55546W        W27971  32.670   7.926   4.197
55547W        W27972  16.778  18.793  10.976
55548W        W27973  17.114  15.375   5.427
55549W        W27974  43.811  35.242  11.629
55550W        W27975  16.194  11.518   3.931
55551W        W27976  27.213  22.275   0.798
55552W        W27977  35.867  19.381   1.112
55553W        W27978   2.309  20.490  10.936
55554W        W27979   8.178  18.111  10.635
55555W        W27980  32.016  10.834  14.596
55556W        W27981  35.268  43.188  12.926
55557W        W27982   7.371  44.827   2.582
55558W        W27983   8.706  20.746   3.225
55559W        W27984  17.157  11.220  10.215
55560W        W27985   6.798  11.393   4.331
55561W        W27986  28.260   6.899   2.372
55562W        W27987  35.885  14.171   0.755
55563W        W27988   4.224  40.541   4.771
55564W        W27989  30.158  25.635   3.869
55565W        W27990   2.477   8.114   4.682
55566W        W27991  26.610  24.664   1.244
55567W        W27992  41.048  32.295  11.951
55568W        W27993  33.915  26.134  11.497
55569W        W27994  12.766  22.244   5.503
55570W        W27995  17.311   8.738   2.257
55571W        W27996   7.379  31.038  14.469
55572W        W27997   1.212  42.369  13.899
55573W        W27998  38.564  33.917   4.451
55574W        W27999  21.216  16.828  11.670
55575W        W28000  32.785  43.827   0.796
55576W        W28001  11.920  33.913  14.199
55577W        W28002  28.046  14.084   1.839
55578W        W28003  32.083   4.785  12.586
55579W        W28004   8.379  39.664   2.248
55580W        W28005  26.450   6.776   1.849
55581W        W28006   1.834  43.545   2.668
55582W        W28007  20.171  27.508  12.491
55583W        W28008   6.914  32.103   0.172
55584W        W28009  42.444   7.325   0.871
55585W        W28010  12.708  12.801   4.656
55586W        W28011  15.177   1.032  10.832
55587W        W28012   7.855  42.886   0.036
55588W        W28013   8.701  33.535  14.372
55589W        W28014   0.528  22.993   2.644
55590W        W28015   0.719   3.176   1.408
55591W        W28016  16.287  31.910   9.761
55592W        W28017  22.874   0.225   0.666
55593W        W28018  44.273  39.365  10.997
55594W        W28019  43.975  37.925  12.834
55595W        W28020  11.758  11.865  11.548
55596W        W28021  40.521  44.925  10.636
55597W        W28022  38.113  23.203  14.780
55598W        W28023  27.188   8.852  10.798
55599W        W28024   6.376  11.735   0.257
55600W        W28025  11.622   3.273  10.647
55601W        W28026   9.068  40.957   0.592
55602W        W28027   4.989  23.640   4.843
55603W        W28028   0.989   8.985   1.897
55604W        W28029  25.949  23.652  14.750
55605W        W28030  17.059  19.945   3.198
55606W        W28031  12.743   2.312  10.639
55607W        W28032  20.199  42.459  13.913
55608W        W28033  27.952  35.055  11.603
55609W        W28034  20.357  30.369  14.872
55610W        W28035  21.936   4.428  14.681
55611W        W28036  36.310  14.144   2.914
55612W        W28037   1.822   8.908   4.818
55613W        W28038   4.018  32.199  12.904
55614W        W28039  12.667  42.040  14.203
55615W        W28040  29.149  27.082  10.709
55616W        W28041  38.604   1.226   0.507
55617W        W28042  23.530  32.346   3.776
55618W        W28043  15.967   6.814   2.167
55619W        W28044  21.593  43.347  13.769
55620W        W28045  16.519  26.935  12.321
55621W        W28046  14.844  37.382  12.449
55622W        W28047  17.841  28.418  11.990
55623W        W28048  23.085  20.400   4.244
55624W        W28049   2.954  13.456   3.674
55625W        W28050  18.635  39.884  10.760
55626W        W28051   4.615  19.112   2.407
55627W        W28052  37.927  17.496  13.952
55628W        W28053   8.551  21.540  10.573
55629W        W28054  21.507  43.914   1.468
55630W        W28055   2.382   5.862  11.703
55631W        W28056  11.650  12.201   1.256
55632W        W28057  18.559   6.271  12.514
55633W        W28058  27.880   9.555   4.411
55634W        W28059   2.186  35.337   4.089
55635W        W28060  43.154  10.445  12.815
55636W        W28061   2.356  13.180   2.792
55637W        W28062  37.363  23.669  13.942
55638W        W28063  23.813  19.316   3.213
55639W        W28064  41.516  14.634  13.355
55640W        W28065   9.612  30.976   3.933
55641W        W28066  29.675  13.217   5.064
55642W        W28067  43.372  32.170  14.441
55643W        W28068  17.784  41.022   1.836
55644W        W28069  22.092  30.920  11.901
55645W        W28070  30.123  31.592   1.350
55646W        W28071  39.973  10.668   2.328
55647W        W28072   9.912  40.940  13.554
55648W        W28073   6.894  41.330  13.899
55649W        W28074   5.288  17.603  11.570
55650W        W28075  35.327  34.066  11.406
55651W        W28076  43.547  42.996  11.973
55652W        W28077  41.430  30.116  11.638
55653W        W28078   7.929  11.751   4.526
55654W        W28079  23.705   0.388  12.503
55655W        W28080  33.029   6.968   0.302
55656W        W28081  20.356   4.897   0.890
55657W        W28082   1.507  11.179   3.208
55658W        W28083  40.536  17.818   4.179
55659W        W28084  43.962  35.559  14.466
55660W        W28085  26.506  11.428   4.936
55661W        W28086  37.609  23.150  14.947
55662W        W28087  20.059  19.575   4.705
55663W        W28088  41.251  23.487   4.088
55664W        W28089  30.922   9.260   3.343
55665W        W28090  25.978  15.278   4.868
55666W        W28091  10.219  10.388   2.611
55667W        W28092  13.807  22.135  13.469
55668W        W28093   7.836  27.514   0.447
55669W        W28094   3.783  40.972  10.769
55670W        W28095   4.909  34.331  11.254
55671W        W28096  13.724  38.429  11.051
55672W        W28097  43.696  39.321  11.658
55673W        W28098  35.830   3.835  10.628
55674W        W28099   1.028  25.278  11.192
55675W        W28100  22.720  11.082   0.773
55676W        W28101  21.024  26.565   0.328
55677W        W28102  28.557  41.584   2.770
55678W        W28103  14.333  17.891  11.237
55679W        W28104   1.187  14.862   1.513
55680W        W28105  40.399  42.036  12.065
55681W        W28106  16.742  29.545   3.196
55682W        W28107  22.229  18.147   0.360
55683W        W28108  10.795   9.298   3.668
55684W        W28109  37.786  36.402  11.434
55685W        W28110  40.974  43.101   0.412
55686W        W28111  33.682  11.228   4.254
55687W        W28112  25.026  13.594   4.428
55688W        W28113   1.694  44.898  11.199
55689W        W28114  17.508   1.028   1.830
55690W        W28115  27.892  23.780  14.524
55691W        W28116  36.297  10.199  11.443
55692W        W28117  33.871  39.595   0.300
55693W        W28118  17.376   6.410   2.272
55694W        W28119  38.533  39.279   1.739
55695W        W28120  22.113  15.154   1.639
55696W        W28121  18.827  27.595  11.567
55697W        W28122  43.990  37.281  10.578
55698W        W28123  22.175   5.353  11.107
55699W        W28124  42.369  23.984   3.052
55700W        W28125  21.577   8.602  14.956
55701W        W28126  30.809  41.422  10.209
55702W        W28127  13.162  38.431  13.943
55703W        W28128  14.127   9.270  13.811
55704W        W28129  32.133  22.540   4.069
55705W        W28130  20.968  33.551  12.427
55706W        W28131  21.043  27.511   1.224
55707W        W28132  32.188  43.836   1.410
55708W        W28133  29.259  23.460   3.868
55709W        W28134  16.308   9.227  10.754
55710W        W28135  13.134  21.757   2.178
55711W        W28136  13.103  29.726  13.070
55712W        W28137   5.179  31.093  13.864
55713W        W28138  37.939  33.206  12.922
55714W        W28139  20.665  10.567   1.628
55715W        W28140  34.946  18.106   3.185
55716W        W28141  28.004  38.909  14.315
55717W        W28142  31.201   7.090   4.015
55718W        W28143  32.610  32.594   0.313
55719W        W28144  43.093  42.565   4.177
55720W        W28145  28.105   0.909  13.555
55721W        W28146   6.824   8.234   3.915
55722W        W28147  21.226  23.133   4.179
55723W        W28148  23.648   7.597   3.815
55724W        W28149  13.498  19.764   4.811
55725W        W28150  13.377  28.569  11.626
55726W        W28151  44.410  27.608  14.738
55727W        W28152  21.550  16.691  14.109
55728W        W28153  23.990  24.677   2.864
55729W        W28154  37.272  34.987   4.030
55730W        W28155  19.594  18.158   3.773
55731W        W28156  40.261  30.100   1.861
55732W        W28157  24.641   3.190  11.191
55733W        W28158  26.547  34.783   5.028
55734W        W28159  32.380  26.994  10.436
55735W        W28160  12.828  39.856   3.023
55736W        W28161  14.134   7.522  14.340
55737W        W28162  11.779  10.180   0.123
55738W        W28163  27.456  38.991   4.141
55739W        W28164  32.963  38.412   4.573
55740W        W28165  11.067  37.187   5.171
55741W        W28166  13.838   8.633   2.346
55742W        W28167  32.299   2.607  12.862
55743W        W28168  34.109   7.909   0.378
55744W        W28169  21.574   6.796  12.089
55745W        W28170   3.075  10.645   0.714
55746W        W28171  11.384  21.348  10.661
55747W        W28172  33.480  32.604  13.535
55748W        W28173  38.081  30.559  13.860
55749W        W28174   2.629  24.473  13.781
55750W        W28175   6.804  31.168   4.071
55751W        W28176  25.200  43.418   3.276
55752W        W28177   9.485  33.657  13.979
55753W        W28178  41.012  10.354   2.884
55754W        W28179   9.915  30.338   0.974
55755W        W28180  11.677   5.375  12.161
55756W        W28181  18.762  35.826   1.892
55757W        W28182   8.163  38.472   2.427
55758W        W28183  32.961  39.547  12.096
55759W        W28184  37.048  31.658  12.407
55760W        W28185   6.098  25.757  11.617
55761W        W28186  19.716  22.310   2.858
55762W        W28187  43.344  33.257   2.305
55763W        W28188  31.992   8.329   4.504
55764W        W28189  38.126  37.025   1.194
55765W        W28190  16.847  24.013  10.778
55766W        W28191  27.962  27.686  14.297
55767W        W28192  40.557  12.293   3.189
55768W        W28193   0.417  13.593  11.502
55769W        W28194  17.722   7.972   3.633
55770W        W28195  26.191  23.644   2.589
55771W        W28196  22.978   8.968  11.437
55772W        W28197  11.847   5.753   2.288
55773W        W28198   6.172  24.419  13.910
55774W        W28199   0.760  37.129  11.685
55775W        W28200  11.670  36.075   2.440
55776W        W28201  28.162  27.493   0.686
55777W        W28202  22.235  14.473  14.440
55778W        W28203  11.482  32.185  12.592
55779W        W28204  31.192  18.577  12.030
55780W        W28205  37.285  29.397   4.150
55781W        W28206  42.981   5.773   4.165
55782W        W28207  17.730  34.439  13.725
55783W        W28208  44.832  12.122  12.339
55784W        W28209   1.919  34.324  12.034
55785W        W28210  32.326  38.694   3.779
55786W        W28211  25.105  29.237  13.405
55787W        W28212   2.280  35.712   2.190
55788W        W28213  10.788  19.986   0.867
55789W        W28214  10.609  11.223   3.051
55790W        W28215  32.491   1.987  10.482
55791W        W28216  17.420   2.034  12.855
55792W        W28217   4.204  41.367   1.449
55793W        W28218  25.017  24.108   0.279
55794W        W28219  44.349  40.914  11.275
55795W        W28220  38.972  30.573   4.989
55796W        W28221  38.927  29.513  13.981
55797W        W28222  35.632  28.075  12.994
55798W        W28223   8.416  22.467   4.595
55799W        W28224  37.578  36.018   2.319
55800W        W28225  11.623  31.021   1.510
55801W        W28226   1.609  28.570  11.235
55802W        W28227  23.491  30.673  11.919
55803W        W28228  19.724  35.012  10.688
55804W        W28229  40.990  21.616   4.121
55805W        W28230  31.965  17.799   3.370
55806W        W28231  22.697  20.071   4.099
55807W        W28232  33.905  43.918  12.260
55808W        W28233  14.153  31.075  12.806
55809W        W28234  10.516   7.912   2.451
55810W        W28235  18.654  35.516   4.145
55811W        W28236  27.429  34.283  13.836
55812W        W28237  25.269   2.365  14.018
55813W        W28238  27.719  23.689   3.922
55814W        W28239  19.008  26.940  13.900
55815W        W28240  32.090  32.337  14.380
55816W        W28241  31.483  42.453  10.509
55817W        W28242  16.722   1.801  13.346
55818W        W28243   6.365   4.653  13.551
55819W        W28244  29.252  22.192  10.174
55820W        W28245  43.050  39.014  14.694
55821W        W28246  13.634  43.747   3.650
55822W        W28247  40.514  36.251   2.416
55823W        W28248  18.204  26.622  14.744
55824W        W28249   0.914  42.563   3.767
55825W        W28250  36.410  24.631   3.016
55826W        W28251  21.521  26.502   2.918
55827W        W28252  15.801  31.485  14.753
55828W        W28253  44.662  23.096   2.306
55829W        W28254  40.119  41.432  13.813
55830W        W28255  32.152  34.427  14.452
55831W        W28256  33.862  26.581  14.246
55832W        W28257  29.733   3.276  12.080
55833W        W28258  36.467  18.390   0.295
55834W        W28259  13.537  19.669  13.106
55835W        W28260  41.317  39.821   4.392
55836W        W28261  20.054  31.456  13.458
55837W        W28262  34.501  15.106  11.147
55838W        W28263  43.479   6.894  13.366
55839W        W28264  35.040  43.466   1.722
55840W        W28265  23.089  27.370  12.947
55841W        W28266  17.653  28.723   4.180
55842W        W28267   0.801  29.955   1.355
55843W        W28268  27.556   3.538  12.802
55844W        W28269  32.527  23.032  11.371
55845W        W28270  17.739   4.934  14.289
55846W        W28271  37.305  21.554   0.885
55847W        W28272  44.576  43.309  13.334
55848W        W28273  42.401   2.159   0.375
55849W        W28274   9.449  34.118   2.265
55850W        W28275  41.847  20.975  10.653
55851W        W28276  17.882  26.579   3.379
55852W        W28277  37.487  42.585   3.341
55853W        W28278  14.356  33.941   5.602
55854W        W28279   8.137  32.159   5.068
55855W        W28280  38.105  35.422   0.718
55856W        W28281  17.020  16.659   1.407
55857W        W28282  43.398  10.335   4.275
55858W        W28283  36.490  19.793  11.579
55859W        W28284  41.914  18.082  12.344
55860W        W28285  20.169  19.722  11.637
55861W        W28286  32.713  20.594   4.058
55862W        W28287  13.090  12.296  14.932
55863W        W28288  41.849   3.587  14.249
55864W        W28289  40.955  39.993  14.885
55865W        W28290  10.608  27.259  14.565
55866W        W28291  13.405  31.201  14.334
55867W        W28292  25.785   1.782   2.292
55868W        W28293  18.112   2.089   0.609
55869W        W28294  35.120  13.877   0.174
55870W        W28295   6.766  36.503   4.061
55871W        W28296   4.328  29.429  13.617
55872W        W28297  34.145  26.165   3.500
55873W        W28298  31.815  12.411  13.417
55874W        W28299  10.700  36.126   0.838
55875W        W28300  43.822   8.910   2.698
55876W        W28301  29.369   9.565  13.643
55877W        W28302  36.973  18.174  13.282
55878W        W28303  23.710  40.498   3.654
55879W        W28304  24.108  20.180  12.937
55880W        W28305  43.356  33.889  11.785
55881W        W28306  32.559   4.821   2.627
55882W        W28307  27.425  33.418   1.515
55883W        W28308   6.424  12.251  14.930
55884W        W28309  25.693  33.026   3.307
55885W        W28310  14.900   1.092  13.401
55886W        W28311  26.174  26.209  11.140
55887W        W28312  22.669  41.511  12.674
55888W        W28313  25.788   6.972  14.482
55889W        W28314  38.280  14.770   0.425
55890W        W28315  32.850  33.531   3.333
55891W        W28316   8.952  11.541   1.331
55892W        W28317  38.313  44.979  13.938
55893W        W28318  23.640  21.790  13.557
55894W        W28319  34.685  11.064   1.688
55895W        W28320  11.900  41.787   2.830
55896W        W28321  38.119   0.996   4.846
55897W        W28322  38.485   5.888   1.180
55898W        W28323  33.023  25.576   2.882
55899W        W28324  41.345  21.808   2.369
55900W        W28325  11.174  33.712  12.447
55901W        W28326  11.640  40.720   2.389
55902W        W28327  13.314   5.248   0.986
55903W        W28328  18.983  30.368   4.580
55904W        W28329  10.290  40.320   4.798
55905W        W28330   9.060  27.252   3.715
55906W        W28331  21.628  32.911   4.119
55907W        W28332  44.957   6.415  14.789
55908W        W28333  38.823  17.727   2.244
55909W        W28334  27.603  15.541  14.908
55910W        W28335  35.309   1.759  13.896
55911W        W28336  18.138  44.320   2.724
55912W        W28337  41.253  28.525  13.413
55913W        W28338  20.091  27.107  14.596
55914W        W28339  37.097  26.028   4.011
55915W        W28340  17.003  22.727   3.788
55916W        W28341   3.423  29.460  13.569
55917W        W28342  29.710  12.353   1.883
55918W        W28343  25.712  41.641  10.768
55919W        W28344   6.714  33.482  14.380
55920W        W28345  39.656  20.576   3.174
55921W        W28346  18.496  43.261  14.472
55922W        W28347  14.778  40.605  13.527
55923W        W28348   6.622  29.992  10.717
55924W        W28349  19.558   8.666   3.252
55925W        W28350   2.465  27.149  10.482
55926W        W28351  24.593  19.060  14.754
55927W        W28352  32.197  28.486  10.981
55928W        W28353  38.897   4.225   0.956
55929W        W28354  16.999  27.613  13.366
55930W        W28355  37.056  21.497  14.707
55931W        W28356  26.736  39.411   4.179
55932W        W28357   4.895  20.120   0.513
55933W        W28358  26.742  30.554  12.881
55934W        W28359  26.163   2.771   3.831
55935W        W28360  28.093   2.761   4.026
55936W        W28361  31.740  29.954   4.360
55937W        W28362  39.090  35.128  14.857
55938W        W28363   2.749  21.856  11.156
55939W        W28364  32.067  29.484   3.843
55940W        W28365  37.465   8.705   1.907
55941W        W28366  15.674  14.190  10.170
55942W        W28367   8.579  11.220   0.569
55943W        W28368  43.745  17.652  14.197
55944W        W28369  33.823  19.092   2.411
55945W        W28370  15.536   6.231  12.478
55946W        W28371  12.982  27.725   5.042
55947W        W28372   6.006   1.993   4.597
55948W        W28373  41.287  13.752   3.302
55949W        W28374  21.040   9.161   9.872
55950W        W28375  43.067  12.121   0.875
55951W        W28376  28.949  21.529   0.755
55952W        W28377  21.326  12.211  14.281
55953W        W28378  42.836  34.379   0.987
55954W        W28379   9.755  42.603  10.509
55955W        W28380   6.446   1.253  12.798
55956W        W28381  23.536  26.684  12.092
55957W        W28382  17.462  17.289  11.389
55958W        W28383  28.582  29.147   3.899
55959W        W28384  35.617  43.072   2.616
55960W        W28385   7.679   3.462   3.841
55961W        W28386  34.402  30.694   1.685
55962W        W28387  24.494   9.122   4.559
55963W        W28388   9.685  42.273  12.400
55964W        W28389  21.116  33.673  13.283
55965W        W28390  34.043  38.097   0.305
55966W        W28391  34.040   8.371  14.447
55967W        W28392  15.193  34.013  12.160
55968W        W28393  21.624  42.940  13.467
55969W        W28394  16.692  29.570  11.190
55970W        W28395  17.694  10.722   1.757
55971W        W28396  13.498  36.932   4.555
55972W        W28397  23.277  19.688   3.628
55973W        W28398  39.806  35.276  13.264
55974W        W28399  14.771  31.448  14.837
55975W        W28400   1.935   2.954   2.725
55976W        W28401  30.030   5.994  13.017
55977W        W28402  27.547   6.055  13.315
55978W        W28403   3.948  41.762  10.392
55979W        W28404  14.324  13.843  11.589
55980W        W28405  21.504  17.513  11.991
55981W        W28406  37.718  10.391   2.735
55982W        W28407  44.221   6.170   3.330
55983W        W28408   9.836  39.079   4.364
55984W        W28409  14.851   5.233  12.169
55985W        W28410   2.200  28.953  10.784
55986W        W28411  35.049   7.374   5.451
55987W        W28412  16.635  21.681  12.993
55988W        W28413   6.336  11.673  14.256
55989W        W28414  12.896   4.095   2.568
55990W        W28415  25.561  18.040  10.228
55991W        W28416   1.766   1.806   1.901
55992W        W28417  15.395  41.832   0.489
55993W        W28418  44.047  24.479  12.014
55994W        W28419  24.253  16.381   1.715
55995W        W28420   4.517  30.969   4.149
55996W        W28421  20.429   9.226   4.220
55997W        W28422   7.842   7.019  10.706
55998W        W28423  21.346   1.971   0.335
55999W        W28424  24.960  28.943   1.257
56000W        W28425  33.294  35.170  14.932
56001W        W28426  41.738   2.546  10.665
56002W        W28427  10.086  41.232   1.707
56003W        W28428  42.555  37.020   2.680
56004W        W28429  31.541  36.556  10.431
56005W        W28430   6.311  43.390   3.639
56006W        W28431  31.732   8.765   2.670
56007W        W28432  25.588  28.383  11.005
56008W        W28433  24.192   1.407  14.281
56009W        W28434  44.784   7.207   0.420
56010W        W28435  41.266  12.089   4.611
56011W        W28436   2.833  35.361   3.194
56012W        W28437  30.843  40.007  10.160
56013W        W28438  44.276  17.923   3.200
56014W        W28439  15.212  44.425  14.320
56015W        W28440  21.501  30.026  10.629
56016W        W28441  13.405   8.932   2.240
56017W        W28442  39.542   2.838   2.835
56018W        W28443  37.474  12.744   0.691
56019W        W28444   3.523  26.922   1.838
56020W        W28445  31.368   0.281   3.618
56021W        W28446  18.159  16.783  11.220
56022W        W28447  26.554  28.483  14.927
56023W        W28448  20.001  13.258   3.929
56024W        W28449  37.487  35.138  11.431
56025W        W28450  23.608  34.309  12.014
56026W        W28451   3.190  42.363   3.590
56027W        W28452  19.831   1.430   3.328
56028W        W28453  21.989   5.291  10.634
56029W        W28454  24.973  25.744   1.297
56030W        W28455  25.667   9.789  13.287
56031W        W28456  44.374  28.869   3.694
56032W        W28457  43.762  20.641   1.946
56033W        W28458   3.492  30.019  12.386
56034W        W28459  22.646   1.240  13.278
56035W        W28460  42.458   4.965   1.855
56036W        W28461  10.193   2.530   1.154
56037W        W28462  25.762   1.761   3.162
56038W        W28463  39.500  43.434   2.686
56039W        W28464  37.951  16.242   2.633
56040W        W28465  15.138  12.074  11.969
56041W        W28466  15.431   0.185   4.124
56042W        W28467  39.207   5.354   0.883
56043W        W28468  12.640  30.324   1.342
56044W        W28469  19.050  13.297  12.557
56045W        W28470  11.138   8.790   0.787
56046W        W28471  40.136  38.989   4.907
56047W        W28472   8.913   0.847  14.790
56048W        W28473   7.956  13.227  14.360
56049W        W28474  32.414  32.172   3.980
56050W        W28475   4.729   7.708   0.773
56051W        W28476  31.347  22.280  13.007
56052W        W28477  41.843  42.416   1.415
56053W        W28478  42.559  28.969  12.056
56054W        W28479  22.096  39.756  12.347
56055W        W28480  37.452  27.996   0.242
56056W        W28481  37.067   5.914   4.198
56057W        W28482  12.119  18.780   4.144
56058W        W28483  44.487  12.831  14.480
56059W        W28484  14.047  10.659  12.412
56060W        W28485  14.327   9.683   2.765
56061W        W28486  20.074  41.967  14.390
56062W        W28487  29.136   6.890   1.405
56063W        W28488  38.088  20.116  11.251
56064W        W28489   2.756  33.981   4.960
56065W        W28490  36.456  22.049   4.212
56066W        W28491  42.846   1.159  11.934
56067W        W28492   8.438  26.241  12.491
56068W        W28493  10.734   9.825   3.549
56069W        W28494  21.701  40.537  14.751
56070W        W28495  31.086  38.381  13.373
56071W        W28496  15.158   2.528  12.460
56072W        W28497   0.424  35.823  11.750
56073W        W28498  44.180  19.133   0.503
56074W        W28499  44.820  37.291   0.692
56075W        W28500  33.231  21.174   1.092
56076W        W28501   5.149  14.574  13.266
56077W        W28502  23.034  44.820   1.367
56078W        W28503  23.251  26.431  13.909
56079W        W28504  27.785   3.494  12.359
56080W        W28505  41.970  32.948   3.384
56081W        W28506  12.103  40.959   3.115
56082W        W28507  15.298  31.465  14.890
56083W        W28508   2.897  12.604   3.272
56084W        W28509  16.025   1.836   4.387
56085W        W28510  16.827   9.718   0.038
56086W        W28511  11.345  40.090  14.334
56087W        W28512   3.217  16.194   0.780
56088W        W28513  30.405   8.331   2.213
56089W        W28514  15.306  40.966  14.011
56090W        W28515  11.795   3.718   0.404
56091W        W28516  16.572  20.295  12.061
56092W        W28517  40.273  16.671  14.367
56093W        W28518  13.759  43.653  12.492
56094W        W28519  10.403  12.751   1.672
56095W        W28520  42.953  27.215   2.884
56096W        W28521  18.395   5.327  13.287
56097W        W28522  21.075  32.821   4.097
56098W        W28523  39.764  18.068  14.982
56099W        W28524  40.976  18.397  12.376
56100W        W28525  18.747  10.235   0.194
56101W        W28526   6.257  36.560   3.881
56102W        W28527  36.044  26.004   3.096
56103W        W28528  15.359  25.648   3.691
56104W        W28529  15.610  23.700  11.224
56105W        W28530  13.170  32.041   2.129
56106W        W28531  29.610  30.665  13.000
56107W        W28532  25.701  44.450  14.407
56108W        W28533  31.078  32.410   4.122
56109W        W28534  23.674  11.646   4.351
56110W        W28535   4.848  14.846  12.838
56111W        W28536  25.578  16.655   4.485
56112W        W28537   9.925   7.255  10.639
56113W        W28538  28.933  34.936   3.088
56114W        W28539   9.388  12.411  13.950
56115W        W28540   5.449  21.507   4.306
56116W        W28541  36.679  41.820   0.478
56117W        W28542  24.515   6.681   0.729
56118W        W28543  44.290  21.176  11.082
56119W        W28544  10.744  38.439  14.042
56120W        W28545  39.834  22.681   0.045
56121W        W28546  14.488  16.743   0.386
56122W        W28547  23.719   3.361  11.450
56123W        W28548  43.967  33.027   0.239
56124W        W28549   9.565  23.702  12.897
56125W        W28550  25.745   4.410   4.622
56126W        W28551  25.138   3.485  10.057
56127W        W28552  23.654  21.848   2.649
56128W        W28553  35.020  38.316  13.069
56129W        W28554  35.111  16.810  13.444
56130W        W28555  25.518  16.676  12.652
56131W        W28556  31.961  13.128  11.165
56132W        W28557  10.506  24.273  12.796
56133W        W28558  28.979  21.944  13.071
56134W        W28559  16.691  20.463  14.855
56135W        W28560  35.408  22.068   2.667
56136W        W28561   4.055  38.178  14.481
56137W        W28562  28.570  28.933   4.363
56138W        W28563  44.208   2.973   5.051
56139W        W28564  24.435  19.119  14.274
56140W        W28565  15.521  35.116  13.446
56141W        W28566  16.679   8.485   2.695
56142W        W28567  36.118  27.693  11.095
56143W        W28568  31.016  13.965   0.868
56144W        W28569   7.180  37.358  12.458
56145W        W28570  24.936  26.426  11.110
56146W        W28571  37.424  10.151  11.585
56147W        W28572  34.723  25.043   4.204
56148W        W28573  15.082  27.074  13.861
56149W        W28574   1.508   5.764  12.013
56150W        W28575  37.414  17.887   4.583
56151W        W28576  35.698  41.584  12.438
56152W        W28577  39.000  24.150   2.542
56153W        W28578   4.843  34.379  14.870
56154W        W28579  35.558  41.444  13.597
56155W        W28580  14.156   7.846  14.733
56156W        W28581   1.828  24.738  14.332
56157W        W28582  16.631  19.645   4.402
56158W        W28583  36.295   7.158   2.852
56159W        W28584  17.996  30.006   3.005
56160W        W28585  34.639  38.026   0.448
56161W        W28586  28.658  38.066   3.298
56162W        W28587   1.394  38.903  12.366
56163W        W28588  33.641  33.167  12.460
56164W        W28589  32.645  24.433   2.394
56165W        W28590  12.704  19.447   4.223
56166W        W28591  34.853   9.261  14.884
56167W        W28592  36.289  12.292   4.789
56168W        W28593  39.567  35.845  11.495
56169W        W28594  38.305  26.940  11.971
56170W        W28595  39.329  19.046  13.943
56171W        W28596   4.637  36.762  12.557
56172W        W28597  29.954   6.333  11.119
56173W        W28598   4.452  16.579  13.978
56174W        W28599  37.195  33.366  13.361
56175W        W28600  30.153  34.596  10.949
56176W        W28601   2.273  32.550  14.717
56177W        W28602   6.977  31.533   3.746
56178W        W28603  44.679  44.621   0.788
56179W        W28604  26.204  35.042  13.893
56180W        W28605   2.814  43.365  12.974
56181W        W28606  15.867  18.168   0.813
56182W        W28607   7.083  31.423  12.633
56183W        W28608  44.735  42.976   2.394
56184W        W28609  27.580  20.006   1.431
56185W        W28610  20.438  21.140   2.772
56186W        W28611  23.194  41.292  11.546
56187W        W28612   8.764   3.974  12.867
56188W        W28613  37.027  28.383   0.835
56189W        W28614  14.207   6.341   1.195
56190W        W28615  11.908  21.175   4.872
56191W        W28616   7.329   4.178  12.137
56192W        W28617  20.332  22.584   4.064
56193W        W28618   1.200  15.363   1.340
56194W        W28619  20.673   8.180  13.899
56195W        W28620  33.759  11.418  13.038
56196W        W28621   8.743   0.208  14.269
56197W        W28622  44.420   8.913   1.927
56198W        W28623   9.903  20.954  12.479
56199W        W28624  19.496   9.263   1.792
56200W        W28625  38.957  44.805  14.513
56201W        W28626  23.966  19.276  13.407
56202W        W28627  17.603   0.520   1.723
56203W        W28628   8.099   4.509  13.859
56204W        W28629  10.417  25.689   2.849
56205W        W28630  27.089   5.990   1.321
56206W        W28631  11.643  23.362   2.278
56207W        W28632   3.285   4.911  11.146
56208W        W28633  43.928  15.225   1.971
56209W        W28634  12.838  33.397   0.295
56210W        W28635  19.284  38.426   4.045
56211W        W28636   5.682  37.608   1.221
56212W        W28637  27.650   1.685   0.939
56213W        W28638   9.942  24.414   4.424
56214W        W28639  29.191  30.656  14.453
56215W        W28640  29.202  14.639  14.119
56216W        W28641  43.255   6.878   3.380
56217W        W28642  44.993  27.688   2.690
56218W        W28643  13.934  22.043   0.285
56219W        W28644  17.804  18.200  13.241
56220W        W28645  34.615  10.793  10.666
56221W        W28646  13.796  35.423   1.905
56222W        W28647  12.678  18.121   3.627
56223W        W28648  20.244  24.649  11.462
56224W        W28649  41.311  25.006   3.987
56225W        W28650  29.903   2.643   1.215
56226W        W28651  18.707  12.574   0.289
56227W        W28652  37.200  35.903   1.053
56228W        W28653  22.228  21.031  11.539
56229W        W28654   2.062   1.447   0.797
56230W        W28655   6.177   0.587   3.263
56231W        W28656  10.693  35.818   1.349
56232W        W28657   1.445  33.953  11.051
56233W        W28658  33.970   0.082  13.624
56234W        W28659  12.079  41.001  12.467
56235W        W28660  27.606   4.317  11.745
56236W        W28661  17.645  15.678  11.502
56237W        W28662   4.462  10.898  11.348
56238W        W28663  28.153  30.878   3.266
56239W        W28664  42.625  12.375   0.937
56240W        W28665  20.796  35.879   0.047
56241W        W28666  15.530  26.546   9.978
56242W        W28667  34.496  19.700  10.872
56243W        W28668  18.299  36.958   0.008
56244W        W28669  19.087  42.890   4.307
56245W        W28670  10.032  26.182   1.864
56246W        W28671  19.613  34.611   2.349
56247W        W28672  11.684  12.459   1.946
56248W        W28673   2.471  23.890   0.969
56249W        W28674   6.923  42.982   0.484
56250W        W28675  13.901  40.968   4.639
56251W        W28676  39.433  10.692   1.734
56252W        W28677  37.865  28.532   4.789
56253W        W28678  19.453  23.647   1.421
56254W        W28679  44.078   5.766  11.720
56255W        W28680  42.354  37.060  14.985
56256W        W28681  10.230  21.645  12.328
56257W        W28682   9.768  37.945  14.993
56258W        W28683  19.307   1.036  14.422
56259W        W28684  39.277  28.722   1.035
56260W        W28685  35.005  29.641   0.697
56261W        W28686  30.147  22.161   0.885
56262W        W28687   0.999   0.054  12.063
56263W        W28688  17.625  38.568  13.991
56264W        W28689   3.550  36.581  11.169
56265W        W28690  13.467  41.810   1.905
56266W        W28691   0.428   7.585  11.879
56267W        W28692  25.203  26.501  11.855
56268W        W28693  32.457   8.807   3.274
56269W        W28694   3.443  37.897   4.082
56270W        W28695  31.733  29.628  11.673
56271W        W28696  29.696   0.508  11.951
56272W        W28697  38.852   2.773  14.331
56273W        W28698   8.955  37.402   3.089
56274W        W28699  29.561   6.432   2.118
56275W        W28700   6.254  28.207   3.997
56276W        W28701  29.107   7.326  10.685
56277W        W28702  22.468  14.600  12.941
56278W        W28703  31.837  31.520   1.937
56279W        W28704  16.917  14.332   0.014
56280W        W28705   0.086  37.625   3.364
56281W        W28706  18.440  26.132  12.960
56282W        W28707  34.148   6.937   4.135
56283W        W28708  33.545  26.373  11.231
56284W        W28709  11.026  41.134   0.496
56285W        W28710  15.641  39.958  11.083
56286W        W28711  14.312  34.805   3.345
56287W        W28712  44.850  29.550   4.353
56288W        W28713  32.939   2.278  13.422
56289W        W28714   6.103  21.904   2.107
56290W        W28715  10.994   2.866   0.334
56291W        W28716  24.192  25.070  13.338
56292W        W28717  14.574  27.613  13.367
56293W        W28718   3.168  38.343  14.609
56294W        W28719  30.454   7.331  13.355
56295W        W28720  38.419  20.086  12.497
56296W        W28721   4.607  11.681   4.161
56297W        W28722  17.717  34.962   1.554
56298W        W28723   7.326   8.165   2.686
56299W        W28724  13.181  14.713  10.656
56300W        W28725   4.798  37.736   4.417
56301W        W28726  37.844  40.942  10.841
56302W        W28727  34.383  30.468   2.159
56303W        W28728   6.684  11.408  14.957
56304W        W28729  12.652  24.188  11.623
56305W        W28730  11.751  23.133  10.389
56306W        W28731  35.394  22.581  12.066
56307W        W28732  41.380  43.015   3.204
56308W        W28733  17.355  44.093  14.806
56309W        W28734  17.235  42.080   2.653
56310W        W28735  31.261  34.033  12.720
56311W        W28736   9.765  20.142  14.490
56312W        W28737  30.023  31.455  11.479
56313W        W28738  30.722  44.818  14.532
56314W        W28739   2.470  18.731   2.497
56315W        W28740  18.749  16.706  13.198
56316W        W28741   5.285  18.323   2.281
56317W        W28742   3.657   8.942  11.127
56318W        W28743  36.351  17.624   1.369
56319W        W28744   1.320   1.576   1.763
56320W        W28745   0.843   5.464  14.495
56321W        W28746  12.694   0.516  11.151
56322W        W28747  42.605  16.885  14.765
56323W        W28748   9.125  37.707  13.794
56324W        W28749  24.801  41.683  13.891
56325W        W28750   2.712  37.901   1.769
56326W        W28751  11.418  19.366  10.362
56327W        W28752  25.614  13.138  10.658
56328W        W28753  25.065  35.374   0.411
56329W        W28754  40.742  33.916   1.293
56330W        W28755  17.677  25.222   3.298
56331W        W28756  27.165  33.610   4.708
56332W        W28757  33.449  11.752   4.150
56333W        W28758   1.404  31.877  13.510
56334W        W28759  26.873  18.989  13.341
56335W        W28760   6.168   4.329   3.264
56336W        W28761   7.678   1.779  12.369
56337W        W28762   8.089   9.139  10.865
56338W        W28763  15.575  21.055  12.051
56339W        W28764  33.615  27.877  12.377
56340W        W28765  25.704  16.153   3.086
56341W        W28766  37.989   3.466   3.793
56342W        W28767  14.633   4.868  12.818
56343W        W28768  40.504  35.132   1.234
56344W        W28769  14.072  24.190   1.662
56345W        W28770  15.259  18.290   4.109
56346W        W28771  15.906  22.615  13.750
56347W        W28772  44.774   3.561   2.312
56348W        W28773  43.922  13.800   4.387
56349W        W28774  38.901  24.634  13.276
56350W        W28775  12.910  12.667   0.507
56351W        W28776  15.058   1.615  10.130
56352W        W28777  27.929  10.697  12.465
56353W        W28778  18.884  37.340  12.160
56354W        W28779  40.103  21.785  11.595
56355W        W28780  12.117  16.332   3.032
56356W        W28781  44.743  43.086   1.091
56357W        W28782  31.362  24.066  11.489
56358W        W28783  11.646  35.464   3.780
56359W        W28784  25.658  14.089   0.939
56360W        W28785   1.426   7.709   1.733
56361W        W28786  26.164  26.023  12.470
56362W        W28787  23.281   9.271  14.941
56363W        W28788   8.073   6.981  11.704
56364W        W28789  10.658  16.088  14.322
56365W        W28790   0.427  20.848   4.208
56366W        W28791  27.055  23.226   0.744
56367W        W28792  32.803  29.381  13.540
56368W        W28793  16.809  12.765   1.834
56369W        W28794  19.370  32.099   4.715
56370W        W28795  30.811  33.799  14.783
56371W        W28796  12.207   7.436   4.541
56372W        W28797   4.909  38.507  12.413
56373W        W28798  10.869  21.196  12.436
56374W        W28799  35.863   1.637   3.824
56375W        W28800  38.438  11.447  14.879
56376W        W28801  19.067  42.456  12.570
56377W        W28802  37.323  22.270  11.484
56378W        W28803   5.985  13.437  13.369
56379W        W28804  41.875   8.688  12.569
56380W        W28805   0.301  10.187  14.357
56381W        W28806   4.905  19.597  11.604
56382W        W28807  26.826  15.781   3.771
56383W        W28808  26.295  44.880  14.870
56384W        W28809  11.592  10.759  11.430
56385W        W28810  17.270  41.634  12.554
56386W        W28811   0.912  27.022  12.868
56387W        W28812  41.781   2.030  10.651
56388W        W28813  32.823  35.334   4.325
56389W        W28814  11.869  18.532  11.412
56390W        W28815   1.759  39.334   0.784
56391W        W28816  18.155  38.983   3.541
56392W        W28817  42.236  19.769   4.027
56393W        W28818  43.062  16.378  13.469
56394W        W28819  31.513  20.375  11.990
56395W        W28820  33.039  10.465  13.872
56396W        W28821   9.818  26.674   3.535
56397W        W28822  32.996  43.847  12.334
56398W        W28823  37.408  36.118   3.617
56399W        W28824  19.074  10.753   2.686
56400W        W28825  21.611  22.554   0.699
56401W        W28826  25.296   7.052  11.141
56402W        W28827  26.907  25.058   4.289
56403W        W28828  16.525  30.495  12.867
56404W        W28829  38.340   4.254   4.612
56405W        W28830   2.270  23.180  11.203
56406W        W28831  31.056   0.981   3.324
56407W        W28832  43.424   1.308  14.974
56408W        W28833  19.965  22.475  12.159
56409W        W28834  24.146  38.014   4.710
56410W        W28835  31.108   7.961  14.120
56411W        W28836   8.887  10.791   4.739
56412W        W28837   8.905  27.206   2.786
56413W        W28838  16.231  17.213  10.232
56414W        W28839  19.514  32.552  13.840
56415W        W28840  19.226  14.029   1.841
56416W        W28841  22.954   1.492  12.200
56417W        W28842  12.538  16.166   1.737
56418W        W28843  21.270  25.471   1.886
56419W        W28844  13.716  22.712  12.291
56420W        W28845  30.526  19.546   4.537
56421W        W28846  28.048  12.292  13.946
56422W        W28847   4.409   8.788  10.617
56423W        W28848   2.534  33.917   2.042
56424W        W28849  26.011  13.366   1.939
56425W        W28850   2.294  34.473   4.338
56426W        W28851  44.728  24.082  10.832
56427W        W28852  19.932  31.019  12.234
56428W        W28853  39.954   0.468  14.522
56429W        W28854  22.896  32.388  11.550
56430W        W28855  28.725  32.306   2.705
56431W        W28856  35.341  42.219   3.688
56432W        W28857  19.043  21.125  11.588
56433W        W28858  11.759  21.328  14.868
56434W        W28859  28.185   4.701   1.384
56435W        W28860  24.975   1.896  12.312
56436W        W28861  27.565  14.173   1.689
56437W        W28862  15.685  40.255  14.774
56438W        W28863  10.210  42.233  14.972
56439W        W28864  42.366  10.692  12.404
56440W        W28865   4.762  14.557  12.413
56441W        W28866   8.657  10.095   4.124
56442W        W28867  40.837  44.237   0.940
56443W        W28868  20.865  32.945  11.604
56444W        W28869  31.651  13.150   2.262
56445W        W28870  42.508  35.186   4.642
56446W        W28871  38.626  24.470   3.736
56447W        W28872  24.575  19.660   4.603
56448W        W28873   7.208  38.089   2.769
56449W        W28874   3.993   7.685   2.467
56450W        W28875  19.480  43.944  11.176
56451W        W28876   7.173  22.629  11.025
56452W        W28877   5.646  19.650  14.422
56453W        W28878  36.139  38.510  14.725
56454W        W28879  14.355  31.939  11.172
56455W        W28880  35.519  20.470  11.164
56456W        W28881   9.682  27.177   3.257
56457W        W28882   0.854  14.108   2.912
56458W        W28883  11.599  13.668  11.858
56459W        W28884   5.293  29.092  12.299
56460W        W28885  37.431  21.239  14.985
56461W        W28886  31.134   7.130  14.718
56462W        W28887   6.387  24.955  11.645
56463W        W28888  16.629   6.976   1.330
56464W        W28889   5.268  36.271   0.303
56465W        W28890   2.743   4.776  12.896
56466W        W28891  39.337  29.840  11.428
56467W        W28892  44.698   8.731  13.327
56468W        W28893  43.860  42.010   3.736
56469W        W28894   0.393  40.761   2.826
56470W        W28895   5.231  29.509  12.023
56471W        W28896  19.127  27.515   2.336
56472W        W28897   5.262   3.229   2.665
56473W        W28898   3.465   8.273  14.498
56474W        W28899  32.573  10.159   4.224
56475W        W28900  31.076  44.423  13.575
56476W        W28901  11.673  33.438  12.541
56477W        W28902  37.372   4.552  14.576
56478W        W28903   0.401  18.341  14.289
56479W        W28904   2.897  23.850  11.904
56480W        W28905  31.843  22.157   3.886
56481W        W28906  11.135  12.870  10.516
56482W        W28907  39.869  37.577   3.719
56483W        W28908  19.531  38.388  13.130
56484W        W28909  20.057  43.509   1.396
56485W        W28910  17.278  36.907  11.572
56486W        W28911  24.660  34.579  11.626
56487W        W28912  33.451  14.330  12.080
56488W        W28913  13.917  29.165   2.738
56489W        W28914  19.457  20.162  14.494
56490W        W28915  14.636   1.297   3.612
56491W        W28916   8.067  14.513  14.274
56492W        W28917  21.298  41.067  11.541
56493W        W28918  35.518  14.541   3.473
56494W        W28919  26.562  17.687   2.650
56495W        W28920  15.793  35.671  11.985
56496W        W28921  30.221  34.146  12.571
56497W        W28922  14.098  27.622   1.295
56498W        W28923   5.247  37.475  10.829
56499W        W28924  14.528  27.903   1.244
56500W        W28925  33.769  23.521   2.607
56501W        W28926  23.601  26.174   0.831
56502W        W28927  41.303  30.735  12.939
56503W        W28928   0.327   3.446  13.595
56504W        W28929  37.996  19.304  14.877
56505W        W28930  11.626   5.010   1.878
56506W        W28931  34.976   7.966   3.626
56507W        W28932  20.550  10.258  12.179
56508W        W28933   6.498  36.177  11.123
56509W        W28934   0.778  38.623  11.572
56510W        W28935  22.810  43.835   4.536
56511W        W28936   4.005   6.849   1.841
56512W        W28937  40.788   5.791   0.900
56513W        W28938  35.476  11.552  12.803
56514W        W28939  31.430  29.527  12.101
56515W        W28940  10.650  36.865  11.039
56516W        W28941   3.422  24.141  12.997
56517W        W28942  16.623   6.655  11.956
56518W        W28943   2.375  13.110  11.205
56519W        W28944  26.250  19.726   2.748
56520W        W28945   1.444  23.668  12.783
56521W        W28946  31.079  19.762  10.387
56522W        W28947  34.499   8.975   3.016
56523W        W28948  42.505  41.339  11.467
56524W        W28949   6.549  27.781   2.598
56525W        W28950  13.139  29.627   2.820
56526W        W28951  26.968  21.530  11.901
56527W        W28952  33.760  13.770   3.323
56528W        W28953  36.921  18.350   0.796
56529W        W28954  43.976   1.021   2.066
56530W        W28955  24.484   4.878  10.948
56531W        W28956  34.095  23.697  13.540
56532W        W28957  38.218  22.514  11.131
56533W        W28958  26.213  15.040  14.517
56534W        W28959  30.727  23.564   1.168
56535W        W28960  35.382  13.367   2.022
56536W        W28961   2.840  44.859   0.483
56537W        W28962   3.620   0.310   4.315
56538W        W28963  28.420  34.337   0.591
56539W        W28964  17.246  39.939   1.771
56540W        W28965   4.336  10.322  12.059
56541W        W28966  22.228  40.297  13.769
56542W        W28967  42.532  27.204   4.594
56543W        W28968  25.414   6.612  12.591
56544W        W28969  16.270   2.762  13.353
56545W        W28970   3.007   6.176   3.270
56546W        W28971  19.166  29.722  14.359
56547W        W28972  21.503  13.850  10.707
56548W        W28973  27.710  27.507  14.745
56549W        W28974   0.180  18.235   4.320
56550W        W28975  42.419   4.348  14.118
56551W        W28976  42.817  39.386   1.945
56552W        W28977  32.858  31.026   3.306
56553W        W28978  44.288  19.923  11.609
56554W        W28979  37.872  11.252   0.660
56555W        W28980  40.839   7.195   3.020
56556W        W28981  24.983  27.257  14.540
56557W        W28982  34.729  31.714  11.563
56558W        W28983   7.399  39.821   3.842
56559W        W28984   1.883  16.354  13.539
56560W        W28985  34.545  16.054   3.712
56561W        W28986  31.438  27.038   4.445
56562W        W28987  35.831   6.427  11.278
56563W        W28988  13.098  24.196  11.071
56564W        W28989   8.638  26.183  11.180
56565W        W28990  10.250  27.498  10.882
56566W        W28991  41.873   3.447  10.626
56567W        W28992  42.370   2.733   2.779
56568W        W28993   3.662  20.141  11.210
56569W        W28994  16.138  43.648  11.158
56570W        W28995  27.434  19.017   0.406
56571W        W28996  17.786  30.374  13.447
56572W        W28997  33.148  29.129  12.386
56573W        W28998  14.759  13.132  13.793
56574W        W28999  33.166  38.101  10.902
56575W        W29000  29.135  18.224  11.791
56576W        W29001  28.456   3.203  13.802
56577W        W29002  11.832  17.292  13.335
56578W        W29003  25.931  32.595   3.721
56579W        W29004   2.009   7.668  12.879
56580W        W29005  27.014  35.961  14.493
56581W        W29006  24.184   9.352  12.123
56582W        W29007   7.816  20.833   1.173
56583W        W29008  34.929   4.801  13.458
56584W        W29009  11.927   6.621  13.553
56585W        W29010  33.937   6.816   3.193
56586W        W29011  33.868  32.349  13.814
56587W        W29012  42.221  10.410   2.307
56588W        W29013  19.092  26.528   1.244
56589W        W29014  38.283  17.642  14.340
56590W        W29015  37.048  19.434  13.521
56591W        W29016  21.105  42.917  12.795
56592W        W29017  37.254  16.652  13.968
56593W        W29018  37.842  32.962   2.863
56594W        W29019  23.152  15.394  11.022
56595W        W29020  40.090   1.524   3.342
56596W        W29021  29.902  15.519   1.216
56597W        W29022  18.112  16.432   2.626
56598W        W29023  28.664  31.487   1.693
56599W        W29024  11.167  15.775   2.745
56600W        W29025  38.447  43.009  12.635
56601W        W29026   6.951  15.696   3.251
56602W        W29027   0.420  30.588  14.005
56603W        W29028  30.427  38.916  14.353
56604W        W29029   1.456  33.468   2.409
56605W        W29030  38.424  29.622   0.795
56606W        W29031  15.313   2.710  14.779
56607W        W29032  23.770  38.864   3.998
56608W        W29033   6.856  37.338  13.540
56609W        W29034  38.880  28.396   4.218
56610W        W29035  15.526  19.155   2.838
56611W        W29036  21.652   5.156  12.497
56612W        W29037  26.363  14.797  13.286
56613W        W29038  19.732   4.484   2.330
56614W        W29039  23.944  21.655  11.669
56615W        W29040  22.740   0.459   1.611
56616W        W29041   9.731   0.723   4.563
56617W        W29042   4.506  26.003   1.718
56618W        W29043  35.508  41.871  11.680
56619W        W29044  37.543  30.180   2.614
56620W        W29045  38.863  35.444   1.227
56621W        W29046  28.266  30.892  12.071
56622W        W29047  21.574  39.930  10.265
56623W        W29048  29.412  34.341   4.898
56624W        W29049  16.737   1.962   1.700
56625W        W29050  10.849   5.958   0.654
56626W        W29051  27.536  35.876   1.255
56627W        W29052  41.849  44.872  13.540
56628W        W29053   7.673  16.188   2.346
56629W        W29054  34.542  38.615   3.196
56630W        W29055  35.038  24.733  13.055
56631W        W29056   7.732  36.025   3.105
56632W        W29057  22.339   7.389   4.377
56633W        W29058  13.643  31.092  12.639
56634W        W29059   5.412  31.543  10.624
56635W        W29060  12.770   6.217   5.185
56636W        W29061  41.175  39.558   3.981
56637W        W29062  33.154  34.188  12.130
56638W        W29063  26.457   2.548   1.967
56639W        W29064  21.756   9.973  12.326
56640W        W29065  17.251   0.407   2.117
56641W        W29066   7.752   7.145   3.351
56642W        W29067  31.108  10.989  12.506
56643W        W29068  22.158   8.522  14.423
56644W        W29069  26.133   9.473  14.872
56645W        W29070  42.846  35.121   5.062
56646W        W29071  20.884   9.122   0.808
56647W        W29072  42.474  29.516   1.711
56648W        W29073  30.568  34.463  13.509
56649W        W29074  43.980  10.323   3.552
56650W        W29075  32.692  28.778  12.323
56651W        W29076  10.941   6.129   4.100
56652W        W29077  18.556   8.622   2.500
56653W        W29078  36.128  23.628   0.946
56654W        W29079   7.199  23.788  10.381
56655W        W29080   3.232  26.623  12.392
56656W        W29081   4.266  34.356   0.457
56657W        W29082  31.980  22.979   3.866
56658W        W29083  11.146  27.479  13.898
56659W        W29084   6.245  26.004   3.696
56660W        W29085   7.172  42.482  11.569
56661W        W29086  24.558  41.374   3.352
56662W        W29087  25.519   2.141  13.612
56663W        W29088  10.861   8.231  11.439
56664W        W29089  25.921  34.134  12.135
56665W        W29090   8.684  40.040  14.576
56666W        W29091  39.553   9.159   0.979
56667W        W29092  16.034   7.732   1.048
56668W        W29093   5.460  19.084   2.792
56669W        W29094   9.384  40.771  11.926
56670W        W29095  10.294  34.839   0.509
56671W        W29096   4.501   9.412   1.347
56672W        W29097  12.252  22.825   0.401
56673W        W29098  36.083  19.856   2.026
56674W        W29099  24.131  18.284   2.678
56675W        W29100   6.854  30.296   1.900
56676W        W29101   0.474  40.424   0.169
56677W        W29102  33.563  21.442   3.676
56678W        W29103  12.766  40.462   1.422
56679W        W29104  16.748  29.403   1.865
56680W        W29105   1.680  19.752   0.334
56681W        W29106  29.516  34.313   2.525
56682W        W29107   7.095  40.898  12.107
56683W        W29108   3.302  21.790   2.303
56684W        W29109  28.037  16.146  13.857
56685W        W29110  44.018  10.126  10.912
56686W        W29111  12.779   9.925   3.092
56687W        W29112   6.133  22.193   0.949
56688W        W29113  36.606  12.848   2.709
56689W        W29114  28.558  33.907   2.816
56690W        W29115  11.174  39.336   1.918
56691W        W29116  29.543  13.907  13.044
56692W        W29117  33.521  27.281  12.060
56693W        W29118   4.331  18.896   0.784
56694W        W29119  12.263  43.323   0.291
56695W        W29120  34.135  24.825   1.468
56696W        W29121  15.147  14.847  11.424
56697W        W29122   6.784  33.162  11.155
56698W        W29123  17.427  35.002  11.975
56699W        W29124   6.711  38.443   1.704
56700W        W29125  38.522   1.974   1.886
56701W        W29126  23.858  29.034  14.333
56702W        W29127   5.787  23.835  10.654
56703W        W29128   2.500  30.616   4.653
56704W        W29129  42.518  42.350   2.783
56705W        W29130  31.952  37.577   1.359
56706W        W29131  40.516  27.252   0.831
56707W        W29132  10.879  34.144  13.505
56708W        W29133   4.838   6.210   0.314
56709W        W29134  10.088  36.393   4.027
56710W        W29135  38.458  24.164   4.861
56711W        W29136   8.143  34.046  11.628
56712W        W29137  30.970  27.491   0.741
56713W        W29138  12.111  27.479  10.673
56714W        W29139  13.524  16.004   4.094
56715W        W29140  15.169   8.168   0.743
56716W        W29141  23.212  40.306   1.171
56717W        W29142  13.349  37.037   2.829
56718W        W29143  25.988  20.779   0.919
56719W        W29144  25.474   3.151   3.184
56720W        W29145  17.747  32.996   1.597
56721W        W29146  33.608   0.945   2.432
56722W        W29147  35.166   6.813   9.814
56723W        W29148  28.520  25.904   0.054
56724W        W29149  27.370   6.737   0.950
56725W        W29150  43.485   9.657   1.660
56726W        W29151  28.044  24.133   2.740
56727W        W29152  39.576  37.118   2.817
56728W        W29153  16.804  35.895  14.797
56729W        W29154   6.914   3.004  13.945
56730W        W29155  20.257   3.497  12.599
56731W        W29156  39.988  33.674   4.134
56732W        W29157  23.589  19.542  12.521
56733W        W29158  13.151  23.096   4.744
56734W        W29159  34.652  37.318  14.547
56735W        W29160  39.920  40.543  13.761
56736W        W29161  35.408  24.557  10.690
56737W        W29162  12.157   0.558   0.888
56738W        W29163   2.721  28.570  14.085
56739W        W29164  33.098  31.023  12.850
56740W        W29165  14.685   0.344   1.822
56741W        W29166  41.262  26.520   4.683
56742W        W29167  14.339  39.279   2.746
56743W        W29168  23.991   5.376   1.329
56744W        W29169  32.675  44.446  13.958
56745W        W29170  21.671   3.459   1.293
56746W        W29171  14.423  41.316  10.657
56747W        W29172  41.505  18.059  11.065
56748W        W29173  13.981  43.734   3.251
56749W        W29174  42.040   2.577  11.604
56750W        W29175  28.266  14.076   5.400
56751W        W29176  32.101  11.813  10.885
56752W        W29177   3.171  19.662   4.679
56753W        W29178  43.857  24.343  14.849
56754W        W29179   3.741   1.245   4.520
56755W        W29180   0.926  15.663  14.058
56756W        W29181  30.717  19.560  12.019
56757W        W29182   9.250  43.434   1.377
56758W        W29183  35.426  30.200  12.933
56759W        W29184  40.274  14.074   3.763
56760W        W29185  27.512   3.204   0.926
56761W        W29186  28.401  17.738  10.959
56762W        W29187  20.985  29.126   4.028
56763W        W29188  29.605  19.692  13.564
56764W        W29189   1.430  25.055   4.452
56765W        W29190  15.173  31.918  12.913
56766W        W29191  41.033   0.793  12.855
56767W        W29192  35.502  11.630   3.248
56768W        W29193  28.780  32.047  11.812
56769W        W29194  15.434   1.918  11.044
56770W        W29195   5.393  43.971  12.443
56771W        W29196   5.316  35.514  12.674
56772W        W29197   7.439   2.386  13.318
56773W        W29198   5.582  41.590  12.875
56774W        W29199  12.238  26.240  14.428
56775W        W29200  26.067  27.018   1.407
56776W        W29201  36.182  31.998  14.896
56777W        W29202  20.225  29.996   4.869
56778W        W29203  34.814  23.921   3.339
56779W        W29204  36.485   0.707   2.385
56780W        W29205  44.060   0.449  11.511
56781W        W29206  23.120  12.738   0.252
56782W        W29207  16.794  14.388   2.841
56783W        W29208  20.462  21.491  13.874
56784W        W29209   0.427  43.326  10.709
56785W        W29210  31.528  38.554  12.607
56786W        W29211   5.722   7.862  10.969
56787W        W29212  43.281   9.929  12.900
56788W        W29213  12.267  13.755  12.620
56789W        W29214  17.995  18.476   0.996
56790W        W29215   0.480  27.739  13.951
56791W        W29216   7.387  33.516   4.325
56792W        W29217  41.353   9.197  11.883
56793W        W29218   7.836  28.708  14.249
56794W        W29219  20.754  21.007  14.443
56795W        W29220  19.697  37.509  13.444
56796W        W29221  21.572  42.411   1.320
56797W        W29222  32.831  36.367  12.473
56798W        W29223  22.246  31.193   3.453
56799W        W29224   2.708  26.120  11.737
56800W        W29225   3.633   5.518  12.863
56801W        W29226  15.313  38.414  12.848
56802W        W29227   3.830   4.953  12.179
56803W        W29228   2.517  20.412   3.889
56804W        W29229  14.065  42.299   4.240
56805W        W29230  19.372  12.334   4.203
56806W        W29231  37.878  27.024   1.832
56807W        W29232  42.548  10.731  12.893
56808W        W29233  33.147  15.292  12.881
56809W        W29234  29.044   2.027   2.729
56810W        W29235  14.856  20.618  12.570
56811W        W29236  22.928  41.972   4.169
56812W        W29237  16.406   0.900  13.785
56813W        W29238  43.534  26.725   4.520
56814W        W29239   0.243  14.774  11.089
56815W        W29240  33.661  32.671  11.683
56816W        W29241  39.281   9.869  14.083
56817W        W29242  19.537  29.043   1.054
56818W        W29243   2.920   0.376   3.570
56819W        W29244  39.520  16.031   2.866
56820W        W29245  33.159   4.367   3.647
56821W        W29246  15.169   5.702   2.684
56822W        W29247   2.868   7.254  10.612
56823W        W29248  42.900  34.008   4.142
56824W        W29249  41.244  17.193   3.931
56825W        W29250  32.802  22.302  11.174
56826W        W29251   1.622   8.225  13.997
56827W        W29252   4.856  10.697   1.656
56828W        W29253  34.897  36.594  14.870
56829W        W29254  23.706  31.152  10.116
56830W        W29255  43.506  32.975   0.001
56831W        W29256  22.114  16.933   4.147
56832W        W29257   1.473  43.570  13.380
56833W        W29258  13.165  24.643   1.354
56834W        W29259  10.792   6.284   1.930
56835W        W29260  14.118  16.625  11.895
56836W        W29261  44.542  24.075  11.336
56837W        W29262  44.896  16.606  13.403
56838W        W29263  41.878  41.448   1.322
56839W        W29264  21.697   6.855  10.633
56840W        W29265   3.532   1.412  13.775
56841W        W29266   1.684  11.732   3.904
56842W        W29267  41.497  36.074   2.975
56843W        W29268  31.353   2.719   3.699
56844W        W29269  41.916   6.840  14.399
56845W        W29270  40.031   9.865  13.284
56846W        W29271  43.585   5.767  11.484
56847W        W29272  11.386   8.136  11.518
56848W        W29273  33.621   1.307  14.883
56849W        W29274  37.576  33.857   1.414
56850W        W29275  22.464  39.091  12.648
56851W        W29276  20.755  32.304   1.754
56852W        W29277  27.592  22.072  12.472
56853W        W29278   3.941  28.044   2.343
56854W        W29279  21.280  19.816  14.221
56855W        W29280  14.090  13.236   3.107
56856W        W29281  18.695  20.522  11.896
56857W        W29282  35.835   6.826   5.328
56858W        W29283  30.874  43.911   1.866
56859W        W29284  17.807  33.533   3.663
56860W        W29285  32.735   8.212  13.467
56861W        W29286  32.613  11.340  14.777
56862W        W29287  15.164  37.066  12.183
56863W        W29288   2.843   5.248  10.877
56864W        W29289  20.780   6.252   2.253
56865W        W29290  29.177   2.741  10.673
56866W        W29291  30.310  26.498  13.431
56867W        W29292  39.565   6.247  13.807
56868W        W29293  21.655  36.000  13.063
56869W        W29294  43.385  42.082   2.699
56870W        W29295  43.091   4.326  12.977
56871W        W29296  28.301   3.770  14.998
56872W        W29297  10.831  14.729  13.994
56873W        W29298  38.143  35.879   0.960
56874W        W29299   8.859  24.772   0.228
56875W        W29300  37.059   1.766  13.284
56876W        W29301  16.523  13.187   4.050
56877W        W29302  15.159  32.671   1.295
56878W        W29303   7.799  21.990  14.747
56879W        W29304   7.309   0.879  11.186
56880W        W29305   0.813  28.699   2.655
56881W        W29306  29.217  24.707   5.130
56882W        W29307   9.206  30.429  11.457
56883W        W29308  14.175  30.503   4.189
56884W        W29309  35.870  39.930  10.642
56885W        W29310   9.935  34.588  13.289
56886W        W29311  41.892  12.864   4.421
56887W        W29312  44.701  42.867   0.260
56888W        W29313   6.922   0.199   0.364
56889W        W29314  30.297  38.569   1.871
56890W        W29315   3.663  13.749   0.244
56891W        W29316  28.425  24.915   4.273
56892W        W29317  10.933  22.425  14.613
56893W        W29318  26.471   0.347   4.778
56894W        W29319   5.718  28.934  12.587
56895W        W29320  16.874  37.781  11.528
56896W        W29321  24.952   4.728   0.989
56897W        W29322  42.261  13.199   3.684
56898W        W29323  11.323  31.206   4.401
56899W        W29324  30.963  43.511  13.368
56900W        W29325   3.318  39.220   4.362
56901W        W29326  37.006   0.963   2.373
56902W        W29327   7.831  31.056   4.797
56903W        W29328   3.716   0.871  10.711
56904W        W29329  10.383  12.016  14.804
56905W        W29330  38.928  13.384   3.747
56906W        W29331  12.185   7.905  13.401
56907W        W29332   2.728  41.553  12.399
56908W        W29333  33.997  32.846   3.774
56909W        W29334  25.023  12.876  12.496
56910W        W29335  13.820   4.272   1.373
56911W        W29336   3.669   5.760   4.618
56912W        W29337  33.416  32.463  14.051
56913W        W29338  36.000  15.270   3.557
56914W        W29339  15.681  20.495   1.308
56915W        W29340  22.486  24.200  14.361
56916W        W29341  40.981  44.557   3.696
56917W        W29342  15.040  36.575   4.228
56918W        W29343   2.009  31.046  11.221
56919W        W29344  33.405  43.891   4.190
56920W        W29345  21.510  29.746   5.132
56921W        W29346  28.120  42.322  10.580
56922W        W29347   1.215  44.980  12.542
56923W        W29348   4.973   9.916   4.588
56924W        W29349  14.407  13.153   0.037
56925W        W29350   0.810  31.588  12.944
56926W        W29351   7.265  34.420  11.482
56927W        W29352  17.067   3.532  12.375
56928W        W29353  26.630   2.414  10.921
56929W        W29354  24.447  26.698   0.417
56930W        W29355   0.359  11.380   0.226
56931W        W29356  35.477  41.410  10.937
56932W        W29357   3.276  20.028   3.885
56933W        W29358  20.995   4.899   3.983
56934W        W29359  11.816  20.114  14.447
56935W        W29360  43.470  42.320  10.678
56936W        W29361  44.550  17.731  11.531
56937W        W29362  27.036  23.965   4.590
56938W        W29363  13.193  23.707   2.761
56939W        W29364  33.346   0.468   2.418
56940W        W29365  21.632  24.583  14.037
56941W        W29366  37.499  21.850   3.765
56942W        W29367   9.587   6.389   2.622
56943W        W29368  42.392  12.760  10.608
56944W        W29369  33.598  10.642   0.829
56945W        W29370  26.140  28.083  14.300
56946W        W29371   4.398  20.345  13.830
56947W        W29372  26.132  28.761  12.100
56948W        W29373  34.953  39.332   0.371
56949W        W29374  24.761   2.809  12.483
56950W        W29375  43.743  43.373   4.132
56951W        W29376  21.317  31.992  13.538
56952W        W29377  15.772  28.932  12.515
56953W        W29378  24.435  30.079   1.409
56954W        W29379  31.449  36.205   3.700
56955W        W29380  13.712  32.634   4.355
56956W        W29381  22.149  25.892   4.989
56957W        W29382  15.342  15.743   2.305
56958W        W29383  18.332  15.557  12.371
56959W        W29384  35.270  25.036   0.358
56960W        W29385  25.602  40.478  11.501
56961W        W29386   7.865  20.667   0.217
56962W        W29387  11.236  19.294   3.321
56963W        W29388  14.352  44.928  10.451
56964W        W29389  32.027  40.925  11.495
56965W        W29390  27.391  32.896   0.432
56966W        W29391   7.275  13.254   2.875
56967W        W29392  22.116  13.338  10.649
56968W        W29393  30.744   7.938   2.189
56969W        W29394   1.109  40.127   5.087
56970W        W29395  43.034  17.738   1.893
56971W        W29396  37.566  29.866   4.042
56972W        W29397   1.843  41.220   1.413
56973W        W29398  35.059   2.355  13.874
56974W        W29399  17.190  26.860   4.592
56975W        W29400  38.875  21.707  10.908
56976W        W29401  12.258  11.895   4.614
56977W        W29402   9.351  44.835   3.771
56978W        W29403  21.362  40.352   1.275
56979W        W29404   7.368  13.358   2.374
56980W        W29405  38.688  20.511   2.225
56981W        W29406  13.439  42.008   2.824
56982W        W29407  22.199  43.532   0.794
56983W        W29408  19.031  19.243  10.597
56984W        W29409  17.580  24.837   0.897
56985W        W29410  10.522  22.657  12.416
56986W        W29411  14.548  27.739   9.927
56987W        W29412  43.259  16.613  11.771
56988W        W29413  13.249  40.379   1.824
56989W        W29414  34.205  17.539   0.244
56990W        W29415  22.798  39.825   3.305
56991W        W29416  13.207  11.684  14.304
56992W        W29417  40.475  10.193   4.072
56993W        W29418  35.901  35.968   1.574
56994W        W29419  28.676  44.487   0.770
56995W        W29420  29.464  12.884  12.680
56996W        W29421  42.405  38.915   0.916
56997W        W29422   5.691  12.832  11.484
56998W        W29423  34.733  27.127  13.654
56999W        W29424  44.005  40.515   0.266
57000W        W29425   6.240  24.915  13.843
57001W        W29426  36.101   1.215   4.717
57002W        W29427  16.123  33.299   2.326
57003W        W29428  44.500  32.543  12.006
57004W        W29429  29.561   5.721  11.930
57005W        W29430  23.483  38.451   4.214
57006W        W29431  12.156  43.420  14.795
57007W        W29432  11.056  42.965  14.320
57008W        W29433  32.169   0.228  13.923
57009W        W29434   3.006   3.143  14.788
57010W        W29435   6.383  29.082  10.260
57011W        W29436  12.162   1.378  13.563
57012W        W29437  14.668  20.836   4.475
57013W        W29438  35.911  41.126  12.607
57014W        W29439  16.734  30.208  10.962
57015W        W29440  26.578  21.991   2.656
57016W        W29441   4.464  10.678   4.996
57017W        W29442  27.015  29.344   3.683
57018W        W29443  32.054   7.872   2.352
57019W        W29444  31.046  19.711  11.587
57020W        W29445   0.906  44.726  10.247
57021W        W29446  31.034  20.297  14.508
57022W        W29447  35.918   6.018   9.976
57023W        W29448  29.108  35.453  12.054
57024W        W29449  33.129  43.485  12.668
57025W        W29450  19.988  25.557  12.537
57026W        W29451   2.821   7.317   0.273
57027W        W29452  12.109  36.848   2.314
57028W        W29453  43.267  43.558   2.966
57029W        W29454  12.729  16.292   4.319
57030W        W29455   5.869  18.982   1.106
57031W        W29456  26.462  26.671  11.084
57032W        W29457  16.578  34.401  14.282
57033W        W29458  10.834   6.677   3.244
57034W        W29459  32.967  25.881  13.171
57035W        W29460  42.211  11.035  11.134
57036W        W29461   3.123   4.248   2.301
57037W        W29462  22.927  43.317  13.116
57038W        W29463  29.117  40.731  13.778
57039W        W29464   1.296  25.073   0.359
57040W        W29465  23.579  13.575  12.833
57041W        W29466  27.590  26.644   2.213
57042W        W29467  34.869  23.534   0.025
57043W        W29468  37.478  34.941   1.359
57044W        W29469  22.144  19.010  10.898
57045W        W29470  19.728  39.436   1.859
57046W        W29471   0.813  10.855   2.708
57047W        W29472   0.279  15.617   1.568
57048W        W29473   3.159  41.256  10.843
57049W        W29474  16.688  30.015  13.072
57050W        W29475  18.172  31.567   2.373
57051W        W29476  38.923   5.469   3.211
57052W        W29477  25.728  43.304   3.314
57053W        W29478  12.257  19.730  13.644
57054W        W29479  19.681   9.578   4.476
57055W        W29480  19.316  30.271   1.217
57056W        W29481  33.115  30.650  14.755
57057W        W29482   7.009  17.033   3.640
57058W        W29483  22.000  39.023   4.316
57059W        W29484  10.913  14.654   2.344
57060W        W29485   4.395  13.049   3.155
57061W        W29486   1.740   4.188   3.251
57062W        W29487  26.467  21.136   0.243
57063W        W29488  30.040  21.714   4.965
57064W        W29489  14.056  34.647  10.686
57065W        W29490  28.276   1.101   2.251
57066W        W29491   7.570  17.068  11.344
57067W        W29492  11.754   7.082   3.078
57068W        W29493   1.972  19.303  13.595
57069W        W29494  26.270  17.658   2.204
57070W        W29495  25.990  33.464   3.236
57071W        W29496  18.672  37.862  14.035
57072W        W29497  28.057  12.849   3.547
57073W        W29498  13.723   2.348  11.131
57074W        W29499  20.763   8.356   3.705
57075W        W29500  10.411  16.636   3.709
57076W        W29501  42.299   3.461   0.833
57077W        W29502  25.991  11.761   2.313
57078W        W29503   4.251   2.238   2.673
57079W        W29504  18.047   0.421  13.879
57080W        W29505   2.730  36.570  14.892
57081W        W29506  40.889  44.590   0.562
57082W        W29507   3.727  43.770   2.245
57083W        W29508  17.904  16.641   4.315
57084W        W29509  27.752  25.659  14.415
57085W        W29510  21.324  29.449  13.890
57086W        W29511  32.680  28.177  14.007
57087W        W29512  25.971  10.746   2.281
57088W        W29513  28.152  28.394   3.717
57089W        W29514  13.759  33.968  12.885
57090W        W29515  42.405  42.767  14.008
57091W        W29516  42.286  28.004   1.633
57092W        W29517  42.360  13.048  11.174
57093W        W29518  19.044   9.088  13.475
57094W        W29519  24.158  19.618   4.058
57095W        W29520  19.955  20.097  14.347
57096W        W29521  41.135  25.307  14.042
57097W        W29522  31.474  16.226  13.478
57098W        W29523  10.254  37.134  14.038
57099W        W29524  27.663  21.690  13.964
57100W        W29525  34.266  17.280  11.138
57101W        W29526  34.866  15.146   1.751
57102W        W29527  12.950   7.706   3.400
57103W        W29528  18.889  31.228   4.488
57104W        W29529   4.318  17.414   4.085
57105W        W29530  30.624  41.138   0.106
57106W        W29531  10.628  30.590   3.725
57107W        W29532  24.932   2.808  13.793
57108W        W29533  15.567  25.169  11.701
57109W        W29534   0.685  22.099  11.599
57110W        W29535  18.117  33.399  10.227
57111W        W29536  15.239  30.249   1.252
57112W        W29537  31.361  31.429   4.161
57113W        W29538  44.416  34.954  13.440
57114W        W29539  27.041  15.962  11.029
57115W        W29540   0.945  17.803   2.231
57116W        W29541   6.007  11.797   4.138
57117W        W29542  41.870  27.646  11.597
57118W        W29543  42.503  27.040   2.681
57119W        W29544  34.545  22.794  10.644
57120W        W29545   9.351  41.489  12.647
57121W        W29546  15.152  18.732   2.261
57122W        W29547  42.478   2.200   1.241
57123W        W29548  39.030  31.252  13.406
57124W        W29549  28.723  21.440  14.983
57125W        W29550  15.952  18.361   2.253
57126W        W29551   6.428  26.618   2.458
57127W        W29552   1.159  37.645  13.453
57128W        W29553  32.439  26.587  12.904
57129W        W29554  38.398  29.685  13.710
57130W        W29555  28.686  11.024   0.353
57131W        W29556  21.673  12.108   2.582
57132W        W29557  30.988  16.786   2.731
57133W        W29558  19.732  26.687   3.615
57134W        W29559   3.277  15.084  13.850
57135W        W29560   9.672  24.620   2.836
57136W        W29561  18.075   4.265   1.671
57137W        W29562  32.455  14.977   1.263
57138W        W29563  32.372  10.102   0.465
57139W        W29564  22.595  28.057   4.922
57140W        W29565  20.230   5.359   1.458
57141W        W29566  43.137  28.222   0.913
57142W        W29567  26.059   9.882  14.025
57143W        W29568  43.919  32.000   5.031
57144W        W29569  28.736  37.503   1.296
57145W        W29570  43.953  39.399   2.784
57146W        W29571  18.764  17.089  14.149
57147W        W29572  10.063  27.611   4.605
57148W        W29573   6.389  22.684   2.231
57149W        W29574  23.968  19.400   2.253
57150W        W29575  44.178  27.374  11.406
57151W        W29576   5.719  30.813  14.016
57152W        W29577  31.230  40.804   2.828
57153W        W29578  39.320   6.862  12.825
57154W        W29579  36.508  42.871  11.403
57155W        W29580   7.673  11.246  13.871
57156W        W29581  30.662   6.224   0.846
57157W        W29582  24.714  42.500  12.777
57158W        W29583  15.159  22.266  11.605
57159W        W29584  15.957  32.889   1.554
57160W        W29585  31.100  16.409  10.367
57161W        W29586  12.679  17.606   0.296
57162W        W29587  31.743  21.124  12.999
57163W        W29588  10.804  17.349   2.155
57164W        W29589  40.978  27.757  11.615
57165W        W29590  16.634  20.068   4.137
57166W        W29591  24.050  19.725   0.418
57167W        W29592  19.819  37.893   2.812
57168W        W29593  20.245  18.760   2.463
57169W        W29594  24.539   1.287   3.764
57170W        W29595  17.714   7.242  10.655
57171W        W29596  29.390   4.762   0.944
57172W        W29597  43.320  16.695  12.663
57173W        W29598  17.517  30.919   1.481
57174W        W29599  17.415  10.244  11.718
57175W        W29600   9.855  11.789  14.424
57176W        W29601  36.981  39.256  12.060
57177W        W29602   9.673  41.449   3.609
57178W        W29603   0.367  14.452  13.890
57179W        W29604  42.051  23.376  13.399
57180W        W29605  11.980   4.686  10.306
57181W        W29606   7.838  16.695  12.705
57182W        W29607  43.991  10.194  10.398
57183W        W29608  13.268  37.145   1.760
57184W        W29609  14.839  42.447  11.662
57185W        W29610  17.744  34.278  10.183
57186W        W29611  34.965  37.793   1.368
57187W        W29612  15.308  30.524   0.767
57188W        W29613  42.366  27.210   3.733
57189W        W29614  32.444  16.275   0.834
57190W        W29615  26.910   9.307   2.631
57191W        W29616   1.683  23.401  13.952
57192W        W29617   4.066  43.256   3.651
57193W        W29618  40.038  19.726   1.754
57194W        W29619  37.615   7.837  12.390
57195W        W29620  26.498  42.816   2.730
57196W        W29621  44.449  10.545   3.234
57197W        W29622   4.453   1.817  13.472
57198W        W29623  39.285  42.933   0.728
57199W        W29624  30.504   3.295   1.905
57200W        W29625  10.072  30.683  12.012
57201W        W29626  40.999   0.529   1.534
57202W        W29627  15.376   8.390   4.133
57203W        W29628   3.655  21.071  11.375
57204W        W29629  25.412  21.779   2.879
57205W        W29630  32.732  10.425  10.774
57206W        W29631   7.845   7.219   0.529
57207W        W29632  12.633  42.064  12.896
57208W        W29633  24.672   4.495  14.868
57209W        W29634  43.525  19.959   0.462
57210W        W29635  30.405  19.555   2.547
57211W        W29636   7.721  22.475   0.686
57212W        W29637  31.910  28.499   3.617
57213W        W29638  15.751  25.435   4.095
57214W        W29639  39.495  33.844  11.479
57215W        W29640  27.823   9.892   4.804
57216W        W29641  32.525  24.776  11.546
57217W        W29642  11.654  15.618   1.945
57218W        W29643  23.224   6.266  12.908
57219W        W29644  33.957   6.634   2.718
57220W        W29645  22.114   5.400  14.314
57221W        W29646  34.811  14.603  11.130
57222W        W29647  15.056   5.183   0.342
57223W        W29648  15.058   1.515   3.819
57224W        W29649  28.416  30.388  12.121
57225W        W29650  39.763  40.806  14.987
57226W        W29651  20.864  21.074   0.826
57227W        W29652  26.093  31.508   4.844
57228W        W29653  39.015  39.321  13.831
57229W        W29654  12.280   2.995   5.538
57230W        W29655  22.745  26.526  13.314
57231W        W29656  19.308  23.529  11.580
57232W        W29657   9.746   2.870   0.332
57233W        W29658  13.347  25.654  12.575
57234W        W29659  36.993  32.088   1.311
57235W        W29660  36.644  21.538  12.849
57236W        W29661  44.838   8.423  14.785
57237W        W29662  43.070  40.016  11.510
57238W        W29663  13.235  42.271   1.305
57239W        W29664   6.398   0.301  10.862
57240W        W29665   4.937  38.860   1.817
57241W        W29666  17.526  20.756   2.841
57242W        W29667  42.465   2.178  13.472
57243W        W29668  28.505  32.531   3.244
57244W        W29669  28.110  15.491  10.061
57245W        W29670   7.390  28.698  12.573
57246W        W29671   2.375  19.637  14.043
57247W        W29672  32.448   3.451  14.342
57248W        W29673  29.940  14.148   4.351
57249W        W29674  19.564   8.351   1.171
57250W        W29675  12.625  13.212   3.456
57251W        W29676  38.294  10.781  13.844
57252W        W29677  10.110   2.322   2.493
57253W        W29678  36.749  23.446  11.667
57254W        W29679  13.307  44.321   2.196
57255W        W29680   6.481  25.139   2.265
57256W        W29681  33.686  21.565   4.158
57257W        W29682   1.853  19.409  12.649
57258W        W29683   8.881   5.661   0.489
57259W        W29684  20.591  42.474  10.649
57260W        W29685  35.292  40.638  14.235
57261W        W29686  38.958  33.243  10.206
57262W        W29687  13.744   5.674  13.559
57263W        W29688   2.857  11.408   2.853
57264W        W29689   7.528  10.704   2.355
57265W        W29690  30.063  34.986  10.603
57266W        W29691  14.823   3.787   4.972
57267W        W29692  23.076  15.049   1.333
57268W        W29693   3.889   5.971   0.727
57269W        W29694   1.736  13.573   3.380
57270W        W29695  37.595  21.713  13.383
57271W        W29696  18.735  34.390   3.357
57272W        W29697  41.289   4.880  13.083
57273W        W29698  12.909  41.530   3.849
57274W        W29699  32.334  38.307  13.017
57275W        W29700  20.785  11.705   4.539
57276W        W29701   4.725  29.439   4.158
57277W        W29702  42.463   1.738   4.757
57278W        W29703   6.676  44.439   2.272
57279W        W29704  32.440  17.287  11.929
57280W        W29705  26.953  13.307  11.702
57281W        W29706   1.183  17.354  14.992
57282W        W29707  40.648   6.160   1.443
57283W        W29708  40.047   7.245  11.983
57284W        W29709  27.364  26.498  11.266
57285W        W29710   3.967  35.125  10.764
57286W        W29711  27.599  37.570  10.981
57287W        W29712  25.405   3.730  14.805
57288W        W29713  18.827  44.483  14.374
57289W        W29714  38.063  32.346   1.897
57290W        W29715   7.736  11.275   4.466
57291W        W29716  26.492  41.062   2.873
57292W        W29717  25.958  35.049  13.399
57293W        W29718  38.970   0.407   2.991
57294W        W29719  39.963  15.907   1.116
57295W        W29720  37.925  23.796  12.052
57296W        W29721  37.252  29.482   0.735
57297W        W29722  14.622  18.433  13.392
57298W        W29723   5.171  28.076  10.546
57299W        W29724   1.902  12.109   2.153
57300W        W29725  38.881  20.654   4.284
57301W        W29726  23.149  18.541  11.931
57302W        W29727  29.871  34.304   2.881
57303W        W29728  38.286   1.259   4.271
57304W        W29729  15.563  34.653  10.230
57305W        W29730   4.945   1.864  11.209
57306W        W29731  32.973  40.064  12.012
57307W        W29732  31.684  18.731  12.101
57308W        W29733   2.787  20.745   3.320
57309W        W29734   8.373  43.035  10.627
57310W        W29735   3.038  14.217  11.843
57311W        W29736  36.488  22.058   3.675
57312W        W29737  11.265  42.938  10.703
57313W        W29738   0.705  42.428   1.808
57314W        W29739   1.276  17.153   3.666
57315W        W29740  40.607  21.320   2.837
57316W        W29741  26.933  15.713  10.590
57317W        W29742  28.144  31.696   2.209
57318W        W29743  21.783  31.949  13.167
57319W        W29744  43.809  11.698   4.286
57320W        W29745  29.903  36.635  11.152
57321W        W29746  44.380   6.489   3.698
57322W        W29747  41.142  22.899  13.433
57323W        W29748  29.703  19.317  14.801
57324W        W29749  28.608   5.044  10.547
57325W        W29750  24.038  16.180   0.822
57326W        W29751  16.354  34.658   1.838
57327W        W29752   4.665  33.838  11.202
57328W        W29753  35.580   7.251  11.820
57329W        W29754  38.086  20.063   1.163
57330W        W29755   1.040   1.688  11.175
57331W        W29756  34.446  30.182   0.262
57332W        W29757  21.170  24.663  13.799
57333W        W29758   0.455  31.603  14.772
57334W        W29759  32.347  10.862  11.143
57335W        W29760  29.048  20.253  13.754
57336W        W29761  18.683  43.421   4.970
57337W        W29762  35.319  44.837  13.052
57338W        W29763  44.750   1.993   2.814
57339W        W29764  14.552  35.548   2.668
57340W        W29765  18.736  40.554  14.863
57341W        W29766   5.882  16.720   3.226
57342W        W29767  13.054  33.107  11.298
57343W        W29768  35.885  27.688  11.902
57344W        W29769   7.349   0.817   3.955
57345W        W29770  38.397  38.218   0.829
57346W        W29771   3.244  30.247   4.965
57347W        W29772  36.210  21.015  10.514
57348W        W29773  13.415   5.088  10.118
57349W        W29774  31.901  42.439  14.410
57350W        W29775  12.005   2.748   5.189
57351W        W29776   4.957  15.111  10.299
57352W        W29777  43.683  41.869   1.414
57353W        W29778  19.640  23.998  12.951
57354W        W29779  30.468  18.591   2.259
57355W        W29780  38.420  44.190   2.461
57356W        W29781  41.905  29.379   9.973
57357W        W29782  33.137  18.601  11.102
57358W        W29783   3.861  22.839  11.012
57359W        W29784  16.632  18.218   2.857
57360W        W29785  28.320  14.713  14.836
57361W        W29786  43.993  36.050   2.681
57362W        W29787   3.176  26.130   0.017
57363W        W29788  36.560  16.070   2.843
57364W        W29789  21.428  34.618  13.119
57365W        W29790  36.614  32.095  13.365
57366W        W29791  15.850  41.751   4.105
57367W        W29792  38.107  21.390  12.250
57368W        W29793  14.681  13.384   4.383
57369W        W29794  36.839  31.430   1.775
57370W        W29795   3.465   6.807   2.854
57371W        W29796  44.332   7.001   3.619
57372W        W29797  11.045  30.312  12.039
57373W        W29798   4.258  11.612   0.060
57374W        W29799   2.669   1.700   2.018
57375W        W29800  25.125  37.346  13.737
57376W        W29801  22.109  18.825  12.878
57377W        W29802  22.472   9.883  10.599
57378W        W29803  29.939   7.813  12.321
57379W        W29804   2.320  17.769   4.728
57380W        W29805  38.859  36.655   1.704
57381W        W29806  28.968  36.474   2.668
57382W        W29807  36.955  19.601   1.561
57383W        W29808  22.678  42.779   0.810
57384W        W29809  14.308  14.812   3.648
57385W        W29810   4.026  10.742  10.614
57386W        W29811  31.758  38.146   4.144
57387W        W29812  20.770  37.292  10.192
57388W        W29813  12.449  18.110  14.385
57389W        W29814   0.341  29.686  14.966
57390W        W29815  24.383   4.211   4.447
57391W        W29816  22.508   4.997   0.302
57392W        W29817  37.925  39.066   0.893
57393W        W29818  21.420   2.339  14.309
57394W        W29819  36.349  15.683  11.815
57395W        W29820  39.275  36.484  11.220
57396W        W29821  29.484  35.851  11.934
57397W        W29822  34.347  38.069  11.644
57398W        W29823  10.705   4.867  14.385
57399W        W29824  42.042  33.400   0.752
57400W        W29825   8.913   3.686  11.032
57401W        W29826  39.320  40.404   2.784
57402W        W29827   0.794  26.694  10.531
57403W        W29828  28.397  28.202  11.634
57404W        W29829  21.174  33.983   1.350
57405W        W29830  24.907  40.615  13.857
57406W        W29831  42.905   3.874   2.418
57407W        W29832   6.781  22.325  12.603
57408W        W29833  35.634  13.677  12.131
57409W        W29834   2.354  38.331   1.183
57410W        W29835  10.719  25.000  14.486
57411W        W29836  25.900  18.654   3.315
57412W        W29837  20.185  15.066  11.825
57413W        W29838  20.611  13.138   2.846
57414W        W29839  41.141  31.164   1.887
57415W        W29840  27.668  17.320   1.916
57416W        W29841  29.965  39.992  14.788
57417W        W29842  16.105   3.376   3.760
57418W        W29843  28.548  14.303   4.158
57419W        W29844  16.576  26.134   3.170
57420W        W29845   4.889  11.636   0.424
57421W        W29846  21.712  21.101  13.604
57422W        W29847  40.537  18.109  11.081
57423W        W29848  10.911  33.342  12.020
57424W        W29849  25.848   7.162   1.460
57425W        W29850  39.329  42.184  10.408
57426W        W29851  15.217   3.668   2.400
57427W        W29852  24.624   2.398   2.319
57428W        W29853   6.802  20.403   2.698
57429W        W29854   5.340  18.029  11.896
57430W        W29855  27.963  28.604  14.775
57431W        W29856   8.868  43.208   3.803
57432W        W29857  30.549  27.202  10.940
57433W        W29858  24.555  36.577  10.717
57434W        W29859  34.232   5.172   9.942
57435W        W29860  38.937   6.144  11.503
57436W        W29861  25.047  20.188  14.467
57437W        W29862  15.321  41.025  10.755
57438W        W29863  38.553  25.608  13.097
57439W        W29864   1.912  41.948  14.275
57440W        W29865  38.339  12.916   0.731
57441W        W29866  17.592   4.443  13.363
57442W        W29867   8.882  32.140   3.866
57443W        W29868  44.799  41.008   3.034
57444W        W29869  13.291  25.439  10.220
57445W        W29870   6.799  16.770   2.723
57446W        W29871   4.796  39.528   3.882
57447W        W29872  38.272  27.581   0.318
57448W        W29873  33.122  38.090  12.975
57449W        W29874  27.904   6.987   4.287
57450W        W29875   9.256  23.776  13.306
57451W        W29876  28.083   1.382  10.732
57452W        W29877  43.460   4.323   3.712
57453W        W29878   9.838  19.744   2.328
57454W        W29879  23.507  20.798   3.607
57455W        W29880  20.809  15.223  13.522
57456W        W29881  32.682  29.962   0.193
57457W        W29882  20.323  38.086  10.520
57458W        W29883  19.148  12.189   3.657
57459W        W29884  35.547  40.305  13.918
57460W        W29885   0.982  25.791  11.995
57461W        W29886   8.655   7.866   3.999
57462W        W29887  37.887  10.010   4.551
57463W        W29888  18.993  25.666   3.246
57464W        W29889  18.198   2.358  12.343
57465W        W29890  30.123  41.809  13.998
57466W        W29891   3.967  21.974  12.552
57467W        W29892  25.386  37.880  11.609
57468W        W29893  32.541   0.996  14.139
57469W        W29894  14.140  14.628  13.594
57470W        W29895  41.884   4.494   2.637
57471W        W29896  37.447  30.806   0.246
57472W        W29897  38.964  13.119   0.992
57473W        W29898  31.618  18.760   5.010
57474W        W29899  36.129  11.927   1.990
57475W        W29900   2.528  29.050   3.226
57476W        W29901   4.217  24.125   2.287
57477W        W29902  38.313  12.190  11.099
57478W        W29903   7.629   8.282  13.956
57479W        W29904   3.137  13.576   3.197
57480W        W29905   3.778  36.721  14.537
57481W        W29906  18.614  32.858   0.324
57482W        W29907  37.056   9.213  14.443
57483W        W29908  35.047  39.067   4.713
57484W        W29909  43.793  39.122   0.383
57485W        W29910   2.377  19.731  14.583
57486W        W29911  13.530  34.673  12.120
57487W        W29912  39.094  24.052  11.098
57488W        W29913   6.987  27.986   2.796
57489W        W29914  39.209  43.566   1.881
57490W        W29915  43.294  20.288   2.574
57491W        W29916  40.088  33.639  10.738
57492W        W29917  41.822   3.459   2.355
57493W        W29918  34.905  14.224  11.893
57494W        W29919  30.384  38.881  10.940
57495W        W29920  42.249  24.505  11.922
57496W        W29921  17.709   9.447  13.165
57497W        W29922   9.952  36.268   3.530
57498W        W29923  14.087   2.746  12.640
57499W        W29924  20.465   7.264  14.825
57500W        W29925  22.742  26.511  11.156
57501W        W29926  31.696  22.274   1.717
57502W        W29927  21.268  12.187   0.301
57503W        W29928  23.430   6.731   2.291
57504W        W29929   4.552  37.103   3.699
57505W        W29930  31.373  14.808  10.648
57506W        W29931  36.865   7.279   1.320
57507W        W29932  20.664  13.645   0.787
57508W        W29933   8.312  15.008  12.951
57509W        W29934   4.210   0.910  10.482
57510W        W29935  43.781  12.921  12.568
57511W        W29936  11.928  36.342   3.604
57512W        W29937  35.390  22.613   0.515
57513W        W29938  19.163  12.586   3.264
57514W        W29939   2.286  39.944  11.586
57515W        W29940   8.606  17.784  10.625
57516W        W29941  19.767  27.673  12.141
57517W        W29942  17.883  25.036  11.531
57518W        W29943  25.510   2.453  14.471
57519W        W29944  11.356  16.073   1.239
57520W        W29945  22.260  24.742   3.823
57521W        W29946  13.537  21.771   5.725
57522W        W29947  14.266  18.647   4.541
57523W        W29948   1.707  39.922   2.722
57524W        W29949  21.851  42.311  11.490
57525W        W29950   4.360   7.382   4.813
57526W        W29951  34.840   2.474  14.390
57527W        W29952  26.483  28.712   4.339
57528W        W29953  29.516  19.809  14.971
57529W        W29954  44.173  36.399  14.517
57530W        W29955   3.972  39.000   0.454
57531W        W29956  37.318  33.695   2.338
57532W        W29957  26.931  39.007  10.808
57533W        W29958  32.688  25.755   2.299
57534W        W29959   2.312  22.722   3.871
57535W        W29960  22.303  36.997  11.761
57536W        W29961  30.190  17.609   2.273
57537W        W29962  21.734  32.935  13.289
57538W        W29963  30.635  39.135   2.153
57539W        W29964  14.416  40.236   2.926
57540W        W29965  18.640  28.244   2.760
57541W        W29966  34.999  16.213   0.820
57542W        W29967  20.395  37.549  11.145
57543W        W29968   2.357  11.510   2.835
57544W        W29969  17.919  27.204   1.658
57545W        W29970  41.562  33.957   1.668
57546W        W29971   9.159   9.202  13.005
57547W        W29972  18.673  14.843  10.637
57548W        W29973  20.001  28.014  11.823
57549W        W29974  17.692  23.091   3.891
57550W        W29975  38.954   1.496  11.601
57551W        W29976  17.285  14.681  12.812
57552W        W29977  16.018   8.882   2.824
57553W        W29978  17.583  44.293   2.907
57554W        W29979   9.644  15.790  11.602
57555W        W29980  11.869   8.781   2.411
57556W        W29981   6.881   6.079  11.516
57557W        W29982  25.214  13.163   2.210
57558W        W29983  10.781  28.106  14.359
57559W        W29984  36.595  39.785   0.913
57560W        W29985   8.076  34.984  13.165
57561W        W29986  41.505  23.099  14.806
57562W        W29987  44.220  30.004  13.757
57563W        W29988   6.759  25.520   3.005
57564W        W29989   8.409   9.733   2.001
57565W        W29990   8.166  16.262  14.932
57566W        W29991   6.387  14.656   0.948
57567W        W29992  28.915  29.911  11.472
57568W        W29993   8.306  42.570  12.687
57569W        W29994  23.999  15.095  10.943
57570W        W29995   3.513  28.819   0.359
57571W        W29996  33.794  29.467  12.180
57572W        W29997  30.052  10.449  12.944
57573W        W29998  20.416  43.008   0.052
57574W        W29999   5.429  17.616  10.691
57575W        W30000  43.831   4.274  13.570
57576W        W30001   6.034  39.436  12.713
57577W        W30002  36.616  15.212   3.126
57578W        W30003   6.543   3.062   2.585
57579W        W30004  10.074  42.859  11.564
57580W        W30005  34.869  38.004  12.147
57581W        W30006   6.387  41.401  10.274
57582W        W30007  35.901  30.558   1.187
57583W        W30008   2.543   6.946  12.830
57584W        W30009  40.987  33.352   5.076
57585W        W30010  27.488  12.720   1.141
57586W        W30011  10.769  25.302   1.419
57587W        W30012   5.347  31.504  12.408
57588W        W30013  21.246  30.918  14.860
57589W        W30014  23.555   9.407  13.884
57590W        W30015   4.262   3.412  11.272
57591W        W30016  32.414  31.487   2.817
57592W        W30017   2.832  37.597  13.635
57593W        W30018  43.865  32.893  10.987
57594W        W30019  24.263  30.526   2.192
57595W        W30020  11.301  33.673   1.247
57596W        W30021  13.193  20.750   1.714
57597W        W30022  12.200  21.665   2.746
57598W        W30023   8.757  19.026  13.136
57599W        W30024  16.319  17.108   2.755
57600W        W30025   9.297  27.979   2.672
57601W        W30026  38.325  39.832   0.964
57602W        W30027  10.895  35.993   5.091
57603W        W30028  18.632  12.391  13.538
57604W        W30029  15.295  22.500  11.161
57605W        W30030  36.361  38.921  12.524
57606W        W30031   4.357  44.726   1.862
57607W        W30032  36.544   1.177   2.179
57608W        W30033  14.619  19.919  13.434
57609W        W30034   6.722  10.841   3.697
57610W        W30035  31.198  24.528  11.712
57611W        W30036  35.569  24.515  13.974
57612W        W30037  24.479  26.089  14.744
57613W        W30038   7.791  15.305  14.476
57614W        W30039   2.256  35.802   0.378
57615W        W30040   0.868  25.658   3.607
57616W        W30041  44.556   6.097   2.903
57617W        W30042   8.653   6.760  10.614
57618W        W30043  37.129  11.808   2.049
57619W        W30044   7.285  15.119   2.718
57620W        W30045  32.142  34.274  11.178
57621W        W30046  41.599  32.676  11.977
57622W        W30047   4.269  17.233   4.558
57623W        W30048  39.090  40.776  13.474
57624W        W30049  18.708  11.734   1.762
57625W        W30050   3.730  29.146  11.589
57626W        W30051   1.932  23.539   3.555
57627W        W30052  34.022   2.438  13.011
57628W        W30053   9.292  36.599  14.715
57629W        W30054  36.485   8.830   3.896
57630W        W30055  37.331  15.119  12.368
57631W        W30056  13.580  28.201  14.296
57632W        W30057   9.635  15.777   4.632
57633W        W30058  41.790  28.405   4.687
57634W        W30059   1.280  27.083   4.532
57635W        W30060   5.892  41.973  10.725
57636W        W30061  13.669  18.256  12.465
57637W        W30062  24.621  38.552   3.568
57638W        W30063  30.315  26.251  11.453
57639W        W30064  12.852   6.014   4.235
57640W        W30065  36.099   8.236   0.782
57641W        W30066   0.907  40.759   2.200
57642W        W30067  28.326  10.577  10.565
57643W        W30068  15.134  32.511   0.379
57644W        W30069   7.985  24.957   2.108
57645W        W30070  27.945  16.114  13.332
57646W        W30071  24.546   9.126  11.024
57647W        W30072  17.873  16.274   1.266
57648W        W30073  30.623  33.495   1.772
57649W        W30074  38.350  34.509   3.202
57650W        W30075  35.156   0.305   1.308
57651W        W30076   8.642  21.578  14.400
57652W        W30077  40.547  13.086  12.501
57653W        W30078  42.959  21.972  12.098
57654W        W30079  13.819  30.505   1.823
57655W        W30080  30.368   8.706   1.343
57656W        W30081  11.151   1.340   4.089
57657W        W30082  23.056  28.450  13.833
57658W        W30083   6.332  18.501  14.014
57659W        W30084   2.256  19.660  12.467
57660W        W30085  43.359   6.085   9.823
57661W        W30086  40.440  23.090   4.101
57662W        W30087  39.793  28.140   2.782
57663W        W30088  31.305  11.356   4.698
57664W        W30089  34.349  40.254  12.461
57665W        W30090  12.782  37.566   0.774
57666W        W30091  43.348  21.463  14.066
57667W        W30092  21.980   7.278  14.904
57668W        W30093   9.670  22.082  12.672
57669W        W30094   5.314  42.416   3.864
57670W        W30095  30.616  26.680  11.026
57671W        W30096  43.335   6.483  14.379
57672W        W30097  44.181   4.387   1.312
57673W        W30098   3.246  17.166  12.065
57674W        W30099  10.917  17.208   0.548
57675W        W30100  31.705   2.738  12.885
57676W        W30101  12.773  35.593   0.471
57677W        W30102  27.445  22.916   5.480
57678W        W30103  36.367  44.620  10.700
57679W        W30104   8.551  12.162  14.270
57680W        W30105   3.296  43.424   4.087
57681W        W30106  32.486  34.644  12.531
57682W        W30107  16.736  41.964  11.202
57683W        W30108  39.852  25.062   0.333
57684W        W30109  25.428   7.335  12.938
57685W        W30110  39.142  11.644   0.772
57686W        W30111  23.244  19.627   2.129
57687W        W30112  32.853  13.097   1.586
57688W        W30113  37.466   9.101  10.247
57689W        W30114  28.090  13.341  13.059
57690W        W30115  22.226  11.830   3.993
57691W        W30116  35.408  15.288  14.488
57692W        W30117  41.747  29.015   0.028
57693W        W30118  39.481  15.419   4.820
57694W        W30119   8.366   9.233   0.695
57695W        W30120  43.689  41.053  11.911
57696W        W30121  14.150   6.946   0.730
57697W        W30122  26.097  32.540  10.442
57698W        W30123  12.175  14.250   4.597
57699W        W30124  15.063  34.803   2.572
57700W        W30125  13.605  20.192  10.609
57701W        W30126   9.538  14.573  13.616
57702W        W30127  40.270  38.921  12.039
57703W        W30128  10.742  11.177  12.045
57704W        W30129  30.864   1.862   0.570
57705W        W30130   2.156   3.393  12.069
57706W        W30131   8.544  12.370   3.763
57707W        W30132  38.086   2.521  13.845
57708W        W30133  35.011  33.004  13.409
57709W        W30134  41.959   8.408   3.429
57710W        W30135  20.657  24.246   1.456
57711W        W30136  44.855   5.928   0.557
57712W        W30137  34.544  36.342  11.139
57713W        W30138  10.698  24.217   3.632
57714W        W30139   2.695   4.631  13.757
57715W        W30140  37.073  28.913  14.928
57716W        W30141  22.703   3.261   3.780
57717W        W30142  15.808  27.396  12.541
57718W        W30143  13.757  14.984  11.309
57719W        W30144  18.597   4.855   3.389
57720W        W30145  24.110  32.617   4.419
57721W        W30146  32.655  32.051   2.008
57722W        W30147  33.517  18.680   1.343
57723W        W30148  24.297  12.519   4.918
57724W        W30149   5.664   1.167  11.104
57725W        W30150  21.062  30.081   1.508
57726W        W30151   2.874  39.799   0.314
57727W        W30152   0.481  25.664   0.306
57728W        W30153  10.133  39.350   5.235
57729W        W30154  11.709  15.572  11.074
57730W        W30155  40.426  41.553  12.335
57731W        W30156  15.265   6.730   4.578
57732W        W30157  16.219  30.216   2.168
57733W        W30158  30.525  21.695   5.174
57734W        W30159  33.458   4.900   4.202
57735W        W30160   7.687  17.220   2.850
57736W        W30161  37.984  39.036   2.809
57737W        W30162  37.479   6.810   1.487
57738W        W30163  30.562   7.176  13.911
57739W        W30164   3.027  17.043  13.320
57740W        W30165  15.318   3.395   1.020
57741W        W30166  21.571   0.983   0.287
57742W        W30167  42.004   5.438   2.351
57743W        W30168  38.038  20.749   0.763
57744W        W30169   1.236  24.477   2.283
57745W        W30170  30.069  18.162   0.983
57746W        W30171  14.670   4.628   3.077
57747W        W30172   2.319  35.749  11.096
57748W        W30173  15.196  26.041   1.395
57749W        W30174  36.902  33.609   4.180
57750W        W30175  42.227  11.662   3.488
57751W        W30176   1.117  22.091  11.324
57752W        W30177  13.494  33.710  12.068
57753W        W30178  32.582  41.400  13.955
57754W        W30179   2.802  30.155   2.226
57755W        W30180  31.127  10.697   2.359
57756W        W30181  17.808  28.200   2.898
57757W        W30182  39.304   5.389   1.900
57758W        W30183   5.903  24.766   2.679
57759W        W30184  27.449  15.090   2.404
57760W        W30185  10.615   9.814  13.433
57761W        W30186  12.393   1.809  12.378
57762W        W30187   9.548  33.600   0.691
57763W        W30188  24.584   9.164  13.130
57764W        W30189  35.551  14.998   3.717
57765W        W30190  10.742   5.894   3.624
57766W        W30191  39.045  29.522   3.180
57767W        W30192  44.953   9.472   0.464
57768W        W30193  22.316  32.560  14.807
57769W        W30194  17.533   6.481   4.076
57770W        W30195  41.608   5.551   1.906
57771W        W30196  39.911  22.081   0.780
57772W        W30197  37.011   4.832   0.897
57773W        W30198  21.721   1.220   2.382
57774W        W30199  41.737  25.753  11.613
57775W        W30200  42.758   6.135  14.765
57776W        W30201  33.947  14.407   3.103
57777W        W30202   4.201  27.513   4.729
57778W        W30203   8.801  38.318   0.361
57779W        W30204  33.139  14.930   0.675
57780W        W30205  26.538  14.871  12.340
57781W        W30206  42.369  10.078  12.406
57782W        W30207  14.389  40.371   1.978
57783W        W30208  39.511   1.893   3.709
57784W        W30209  19.956  27.129   0.824
57785W        W30210  42.943   8.580  14.695
57786W        W30211  37.563  38.934   4.564
57787W        W30212  11.353  24.490  10.015
57788W        W30213  14.043  22.309  12.167
57789W        W30214   2.741  13.858  11.589
57790W        W30215  42.784   6.187   0.304
57791W        W30216   6.814  34.966   2.318
57792W        W30217  12.107  11.713   0.440
57793W        W30218  24.143  36.163   5.118
57794W        W30219  27.956  15.849   1.555
57795W        W30220   6.283   7.306   0.395
57796W        W30221  42.443   3.602   2.277
57797W        W30222  24.645  23.147   0.789
57798W        W30223  14.372  40.130  11.078
57799W        W30224  22.669  17.863   0.466
57800W        W30225  19.243  12.517   1.858
57801W        W30226  25.555  37.598   4.594
57802W        W30227  22.002  25.618   3.083
57803W        W30228   5.911  25.528  12.087
57804W        W30229   1.522  41.938  12.987
57805W        W30230   4.342  21.435   2.361
57806W        W30231  34.523  44.276  12.134
57807W        W30232  31.091  27.570   2.808
57808W        W30233   2.721   1.415  12.566
57809W        W30234  10.183   9.350  11.163
57810W        W30235  35.047   6.140   3.140
57811W        W30236  22.256  11.782   1.368
57812W        W30237   2.023  24.912  14.785
57813W        W30238   5.174   7.119   0.377
57814W        W30239  30.457  43.227  13.816
57815W        W30240  38.002  13.568   2.135
57816W        W30241  21.562   5.042   9.876
57817W        W30242  18.977  24.600   1.373
57818W        W30243  43.449   2.382   4.227
57819W        W30244  30.001  19.278   3.694
57820W        W30245  13.495   0.887   3.116
57821W        W30246   1.057  31.327  14.078
57822W        W30247   3.250  28.626   0.804
57823W        W30248  35.076  43.405   0.711
57824W        W30249   6.927   0.508  11.006
57825W        W30250  33.263   5.773   0.474
57826W        W30251  33.660  33.129  11.114
57827W        W30252   3.327  30.974  14.423
57828W        W30253  42.166   7.012  10.133
57829W        W30254   6.278  24.184  13.360
57830W        W30255  18.174   0.268  12.317
57831W        W30256  39.800  26.639  14.057
57832W        W30257  16.263  24.855   0.093
57833W        W30258  29.410  21.426   2.395
57834W        W30259  23.967   0.524  14.028
57835W        W30260  29.226   5.771  11.073
57836W        W30261  40.015  36.326  12.532
57837W        W30262  41.235  24.739   3.556
57838W        W30263   7.644   1.930  10.499
57839W        W30264   5.167  40.147  13.682
57840W        W30265  38.549  39.010  11.689
57841W        W30266  24.226   6.235   1.469
57842W        W30267  20.251  33.885   0.416
57843W        W30268  12.066   8.810   0.334
57844W        W30269  15.483  26.001   0.574
57845W        W30270  16.989  36.162  14.390
57846W        W30271  18.313   3.202  10.814
57847W        W30272  29.700  41.496  13.875
57848W        W30273  33.121  41.994   4.410
57849W        W30274   2.808   9.104  13.361
57850W        W30275  17.221  13.558   4.589
57851W        W30276  14.743  17.371   0.929
57852W        W30277  26.550  21.218  14.314
57853W        W30278  11.203  27.739  13.453
57854W        W30279  33.533  16.357   4.940
57855W        W30280  27.427  17.111   2.343
57856W        W30281  33.619   6.879  12.995
57857W        W30282  44.730  18.496  14.936
57858W        W30283  18.012  20.290   0.259
57859W        W30284  11.747   2.917   1.806
57860W        W30285  27.738  36.373   3.428
57861W        W30286  26.263   4.539   3.818
57862W        W30287  14.336  33.862  10.280
57863W        W30288  38.914  38.911   2.411
57864W        W30289  39.597  22.226  12.859
57865W        W30290  28.044  29.495   2.193
57866W        W30291  38.455  35.557  10.610
57867W        W30292  25.455  24.731   4.991
57868W        W30293   2.314  20.113  11.792
57869W        W30294  33.514  44.143  13.628
57870W        W30295  18.573  23.986  10.593
57871W        W30296  40.982  33.850  12.750
57872W        W30297  24.296  42.953   1.752
57873W        W30298  13.645  35.965  12.041
57874W        W30299  11.860  40.113   1.321
57875W        W30300  12.879   5.175  12.964
57876W        W30301   2.049  34.666  14.864
57877W        W30302   2.321  12.914   1.390
57878W        W30303   2.704  41.650   2.689
57879W        W30304  41.604  31.315  11.585
57880W        W30305   5.891   8.598  12.593
57881W        W30306  17.830  12.414   3.354
57882W        W30307   8.076  33.475   0.631
57883W        W30308  17.978  42.082  13.965
57884W        W30309  11.887  16.869   4.054
57885W        W30310  13.395  14.437   4.924
57886W        W30311   7.607  32.350  14.272
57887W        W30312  34.139  21.704   2.853
57888W        W30313  37.632   2.052  11.017
57889W        W30314  30.461   8.963  13.632
57890W        W30315   9.340  22.480  10.653
57891W        W30316  14.221  38.801   4.112
57892W        W30317   8.268  34.179   1.426
57893W        W30318  22.316  30.765   3.156
57894W        W30319  31.626  10.084   4.165
57895W        W30320   9.195   8.478   2.841
57896W        W30321  12.658  12.587   0.057
57897W        W30322  37.868  38.884   4.113
57898W        W30323  28.535  29.575   0.183
57899W        W30324  34.059   5.499   1.275
57900W        W30325  40.373  28.961  14.645
57901W        W30326  25.638   8.218   4.191
57902W        W30327  36.933  30.376  14.728
57903W        W30328   3.761   7.419   4.004
57904W        W30329   1.338  23.692   1.935
57905W        W30330  40.269  34.972  10.624
57906W        W30331  22.753  32.634   4.455
57907W        W30332  18.488  27.179   4.673
57908W        W30333   9.474   6.767   3.289
57909W        W30334   0.788  23.430   0.640
57910W        W30335   5.706   1.540  14.960
57911W        W30336  43.744  18.711   1.682
57912W        W30337   8.015  21.615  12.632
57913W        W30338  36.141  16.058   1.972
57914W        W30339  24.539  27.709  13.861
57915W        W30340  35.868   9.183   0.788
57916W        W30341  15.003  16.782   0.403
57917W        W30342   3.706   6.054   1.755
57918W        W30343  12.692  14.474  13.922
57919W        W30344  33.189   0.989  11.082
57920W        W30345  30.453  39.533   3.518
57921W        W30346  26.040  39.113  13.574
57922W        W30347  17.181   6.004  12.438
57923W        W30348  14.816  33.467   4.659
57924W        W30349  37.819  27.367  14.436
57925W        W30350  27.576  37.751   1.810
57926W        W30351  32.126  40.914  13.404
57927W        W30352  32.094  19.635   4.668
57928W        W30353  27.423  30.541  14.344
57929W        W30354   6.206  19.106  13.563
57930W        W30355  29.524   1.316   4.571
57931W        W30356  43.733  19.733  13.022
57932W        W30357  26.016  30.222   1.967
57933W        W30358  18.127  25.027   0.404
57934W        W30359   3.417  44.724   1.890
57935W        W30360  29.885  21.609  10.435
57936W        W30361   7.090  42.346  13.695
57937W        W30362  19.168   3.333  10.682
57938W        W30363  16.145  27.781   3.061
57939W        W30364  25.508   1.352   2.495
57940W        W30365   4.858  25.657   0.774
57941W        W30366  22.244  31.872   4.234
57942W        W30367  38.309  39.793   3.684
57943W        W30368   0.413   8.236  13.367
57944W        W30369   1.009   3.208  10.153
57945W        W30370   8.542  43.085   4.790
57946W        W30371  37.265  10.582   5.369
57947W        W30372   1.042   9.465   3.697
57948W        W30373  25.329  34.172  12.627
57949W        W30374  15.401  37.285  13.613
57950W        W30375  37.152  11.324   2.885
57951W        W30376   7.324   6.129   0.379
57952W        W30377  24.583  12.294  13.563
57953W        W30378  44.333  44.501  14.360
57954W        W30379   0.343   9.384   0.788
57955W        W30380  39.581  23.514  13.337
57956W        W30381  28.967  22.109   4.638
57957W        W30382   6.480  31.525   3.738
57958W        W30383   1.433  34.240   0.631
57959W        W30384  26.187  39.734  11.511
57960W        W30385  23.551  35.642  13.545
57961W        W30386  38.575   9.860   2.625
57962W        W30387  30.970   2.259   5.244
57963W        W30388  17.177   1.433  13.799
57964W        W30389  16.683  21.839   1.276
57965W        W30390  37.802  30.450   1.466
57966W        W30391  21.116   4.794   1.327
57967W        W30392  22.861  17.345   3.113
57968W        W30393  19.244  38.838   0.387
57969W        W30394  43.997  44.551  13.536
57970W        W30395  38.065  29.453  11.708
57971W        W30396  24.419  44.578   1.401
57972W        W30397  17.654  44.824  11.195
57973W        W30398  43.806  22.774  14.909
57974W        W30399  42.766   6.921   1.003
57975W        W30400   6.191   3.917   1.887
57976W        W30401   5.475  11.110  13.856
57977W        W30402  22.821  26.906   2.160
57978W        W30403  30.754   4.463   1.229
57979W        W30404  28.073  27.124  14.809
57980W        W30405   3.357   5.720  13.255
57981W        W30406  16.190  34.701   5.424
57982W        W30407  10.664  18.884   4.226
57983W        W30408  34.679   6.976  11.430
57984W        W30409  17.399   9.051  11.430
57985W        W30410  18.187  43.292   2.794
57986W        W30411  36.111  37.974   0.490
57987W        W30412   2.029   5.684  12.010
57988W        W30413  14.823  30.542  10.754
57989W        W30414  29.694  32.389   0.269
57990W        W30415  38.564  40.811  13.471
57991W        W30416  31.683  37.822  13.759
57992W        W30417  16.927  12.361   2.967
57993W        W30418   8.252  14.079   2.538
57994W        W30419  11.758   3.046  11.493
57995W        W30420   4.431  22.058   3.628
57996W        W30421  16.205  17.002  14.778
57997W        W30422  21.247   0.512   3.761
57998W        W30423  26.589  28.463  14.005
57999W        W30424   5.222  36.192   1.218
58000W        W30425   4.161  14.020   4.472
58001W        W30426  35.140  13.435  13.731
58002W        W30427  37.578   2.973   4.151
58003W        W30428  36.653  22.496  11.955
58004W        W30429  35.580  10.222   4.411
58005W        W30430  37.109  18.359   1.298
58006W        W30431  33.551  29.411  12.624
58007W        W30432  29.477   2.488   2.232
58008W        W30433  30.674  29.537   2.382
58009W        W30434  10.335  19.574   0.400
58010W        W30435  43.917  39.545   3.661
58011W        W30436   8.373  25.732  12.598
58012W        W30437  16.615  37.078   3.716
58013W        W30438  21.646  33.780   2.855
58014W        W30439  15.561  28.074  14.525
58015W        W30440  36.024   7.861  11.962
58016W        W30441  40.986  38.950   2.768
58017W        W30442  29.734   4.809   3.325
58018W        W30443  29.040  30.468   4.555
58019W        W30444  23.460  24.654  12.501
58020W        W30445   5.657   3.954  12.815
58021W        W30446  20.475  24.348   2.843
58022W        W30447  36.631  25.084   3.134
58023W        W30448  23.500  18.063   4.911
58024W        W30449   7.874   9.579  12.550
58025W        W30450  12.833  19.984   2.231
58026W        W30451  22.000  16.525   3.247
58027W        W30452  11.622  35.774  13.455
58028W        W30453  16.880  24.053  14.260
58029W        W30454  39.105  28.987   3.668
58030W        W30455  31.589  10.836   0.378
58031W        W30456   2.824  33.559  11.006
58032W        W30457  41.345   6.638   2.308
58033W        W30458   7.892  44.661  14.456
58034W        W30459  14.790  31.841   1.233
58035W        W30460   4.936   5.333   2.183
58036W        W30461  41.849   3.195   0.718
58037W        W30462  20.487  21.636  10.907
58038W        W30463  37.100   3.808   1.884
58039W        W30464  28.144  18.606  12.208
58040W        W30465  30.208   3.508   5.047
58041W        W30466   3.509   3.118  11.548
58042W        W30467  11.487  12.691  11.972
58043W        W30468  34.828   1.408   0.996
58044W        W30469   6.377  18.592   1.911
58045W        W30470  17.174  41.400   4.117
58046W        W30471  43.442  18.229   1.640
58047W        W30472   5.368   2.600   4.466
58048W        W30473  34.727  13.425  12.077
58049W        W30474  30.200  10.818   0.758
58050W        W30475  18.616  15.667   4.953
58051W        W30476  40.547  41.092   0.380
58052W        W30477  25.103  24.017  14.382
58053W        W30478  38.016  22.240  11.989
58054W        W30479  29.425  17.588   0.648
58055W        W30480   6.099   7.705  13.442
58056W        W30481  38.018  38.735   3.209
58057W        W30482  15.752   8.361   3.753
58058W        W30483  23.296  39.511  13.505
58059W        W30484  27.073  14.730  11.603
58060W        W30485  44.492   5.351   2.743
58061W        W30486  44.252  10.276   1.797
58062W        W30487  34.422  11.328   1.320
58063W        W30488  44.409  19.971   4.172
58064W        W30489  24.082  43.055   4.697
58065W        W30490   0.724  18.703  12.509
58066W        W30491  14.524   6.947  13.392
58067W        W30492   0.734  22.427  11.163
58068W        W30493   3.275  13.054  12.902
58069W        W30494  43.694  19.278  12.796
58070W        W30495  35.184  24.145   1.146
58071W        W30496  12.392  26.976  11.432
58072W        W30497  43.925  13.477  11.500
58073W        W30498  39.281  28.698  14.954
58074W        W30499  30.538  21.517  12.616
58075W        W30500  43.373  23.052  14.923
58076W        W30501  39.398  32.682  12.828
58077W        W30502  35.465  23.200   3.504
58078W        W30503   5.869  22.927  11.777
58079W        W30504  43.473  37.082   0.870
58080W        W30505   5.677  25.506   4.249
58081W        W30506  43.795  13.684  13.042
58082W        W30507  21.869  44.952  11.172
58083W        W30508  13.256  41.805   4.640
58084W        W30509  25.746   1.395   4.680
58085W        W30510  40.312   8.600   2.777
58086W        W30511  10.820  32.038  12.050
58087W        W30512  37.983  21.300   2.581
58088W        W30513  28.185  38.856  11.858
58089W        W30514   1.966  22.968  13.906
58090W        W30515  32.084  14.235   4.599
58091W        W30516  11.279  35.897  12.311
58092W        W30517  28.692  39.612  13.487
58093W        W30518  28.710  13.159   4.700
58094W        W30519  28.628  41.229  10.431
58095W        W30520  18.097  34.979   5.101
58096W        W30521  13.808  11.015   3.850
58097W        W30522  18.158  29.042  12.647
58098W        W30523  22.577  28.073   0.265
58099W        W30524  42.232  21.199   0.997
58100W        W30525   2.260   1.892  14.972
58101W        W30526  43.415  44.787   3.391
58102W        W30527  37.502   6.712   5.501
58103W        W30528  34.521  42.157  12.473
58104W        W30529  40.528   6.427   2.908
58105W        W30530  22.498   6.158   1.274
58106W        W30531  28.488   6.732   1.835
58107W        W30532  42.877   8.897  11.560
58108W        W30533   0.731  17.159   0.801
58109W        W30534  22.666  39.278   2.542
58110W        W30535  13.429  23.956  13.831
58111W        W30536  28.370  29.947  12.897
58112W        W30537   5.390  29.188  13.898
58113W        W30538  38.750  42.934   0.784
58114W        W30539  39.015  35.384  12.552
58115W        W30540  12.087   2.844   4.678
58116W        W30541   3.246  14.958  13.304
58117W        W30542  37.437   9.259   1.923
58118W        W30543  19.976  40.549  14.296
58119W        W30544  37.957   0.043  14.971
58120W        W30545  26.927  36.847   1.456
58121W        W30546  40.208   5.567   1.757
58122W        W30547  36.016   7.675  13.881
58123W        W30548  12.250  19.761  10.751
58124W        W30549  15.598  15.634   3.619
58125W        W30550   4.433  25.995   0.806
58126W        W30551  23.657  41.927   4.685
58127W        W30552   5.987   8.421  12.110
58128W        W30553  43.446  22.319   0.684
58129W        W30554   7.200  25.312  12.128
58130W        W30555  10.710  42.397  14.921
58131W        W30556   4.832  27.218   1.736
58132W        W30557  28.493  40.897   2.758
58133W        W30558  26.426   2.951  12.101
58134W        W30559  34.468  38.506   2.292
58135W        W30560  36.841  27.500  14.477
58136W        W30561  23.673   7.314   2.920
58137W        W30562   3.246  35.635  14.081
58138W        W30563  28.640  12.124  11.211
58139W        W30564  31.994  33.072   1.079
58140W        W30565  28.907  11.025  13.324
58141W        W30566  35.506   1.928   4.069
58142W        W30567  39.858  14.871   3.743
58143W        W30568  38.373  38.933   4.161
58144W        W30569   0.699  40.996  11.096
58145W        W30570   8.108  14.306   1.338
58146W        W30571   2.440  40.941  13.960
58147W        W30572  39.794   0.850  14.223
58148W        W30573  32.126   0.401  13.418
58149W        W30574  13.038   7.405  12.468
58150W        W30575  25.172  33.026   0.878
58151W        W30576  10.927  36.608   1.709
58152W        W30577  32.182  18.006  11.325
58153W        W30578  28.311  19.688  12.008
58154W        W30579  18.916   1.957   5.075
58155W        W30580  33.907   9.798   1.276
58156W        W30581  30.736  29.597  11.446
58157W        W30582   3.448  14.301   3.555
58158W        W30583  41.414  43.917  13.076
58159W        W30584  12.233  21.974   0.048
58160W        W30585  19.565  12.328   1.500
58161W        W30586   4.854   2.886   1.463
58162W        W30587  37.678  18.885  14.856
58163W        W30588  35.910  30.026  12.864
58164W        W30589  17.861  17.682   3.176
58165W        W30590  18.659  26.110  13.506
58166W        W30591  27.712  10.933   2.655
58167W        W30592  38.264  20.542   1.256
58168W        W30593  32.662  29.755  11.706
58169W        W30594  30.559  11.292  14.855
58170W        W30595  23.547  20.098  11.981
58171W        W30596   9.503  21.126  14.312
58172W        W30597  23.156  16.565  12.826
58173W        W30598  42.916   0.797   5.003
58174W        W30599  27.967   7.269  10.680
58175W        W30600  43.999  10.809   3.301
58176W        W30601   8.255  40.735  10.609
58177W        W30602  18.227  32.638   1.597
58178W        W30603  32.971  38.046   2.225
58179W        W30604  30.247  23.694   2.713
58180W        W30605  19.543  20.783  11.652
58181W        W30606   8.775  38.818   2.409
58182W        W30607  37.011   9.730   5.171
58183W        W30608   8.419  11.362  10.553
58184W        W30609  34.850  20.069  12.531
58185W        W30610  35.151   3.721   2.309
58186W        W30611  31.989   9.415  12.050
58187W        W30612  24.920   5.663  12.483
58188W        W30613  20.067  16.552   3.626
58189W        W30614  17.522   8.442  14.974
58190W        W30615  16.168  14.620   0.735
58191W        W30616   9.132  17.682   0.261
58192W        W30617   1.813  38.906  12.650
58193W        W30618   9.890  25.894  11.695
58194W        W30619  34.471   4.470  11.006
58195W        W30620   7.846   6.710  13.122
58196W        W30621  39.443   7.135   1.800
58197W        W30622   6.375  23.653  14.022
58198W        W30623   8.876  22.050  11.444
58199W        W30624  22.094  17.642  10.774
58200W        W30625  38.328   8.836  13.906
58201W        W30626  15.036  32.921  12.099
58202W        W30627  11.434  37.326   0.100
58203W        W30628  44.621  36.759  12.965
58204W        W30629  13.216  30.074   3.745
58205W        W30630  16.648   0.010  12.938
58206W        W30631  11.762  12.259  12.070
58207W        W30632  28.017  22.669   3.756
58208W        W30633  29.166  30.197  11.860
58209W        W30634  41.828  10.312  10.729
58210W        W30635   1.704  30.707   3.811
58211W        W30636  29.003  11.295   0.669
58212W        W30637  28.763  27.707  12.818
58213W        W30638  24.296  37.423   2.816
58214W        W30639  27.073  29.634  12.623
58215W        W30640  10.087  27.281   1.529
58216W        W30641   4.289   7.229  13.564
58217W        W30642  21.150  24.013   4.550
58218W        W30643  24.639  16.177   3.617
58219W        W30644  17.776   7.746  10.513
58220W        W30645  12.675  16.080   2.225
58221W        W30646   3.256  22.526   0.953
58222W        W30647  14.178   6.595  12.155
58223W        W30648  28.492  34.925   3.788
58224W        W30649  39.007  44.949   2.729
58225W        W30650   7.405  43.755  13.809
58226W        W30651  11.645  25.283   3.636
58227W        W30652  25.495   7.540   0.313
58228W        W30653  32.016  33.449   1.418
58229W        W30654   0.305  12.091   4.153
58230W        W30655  14.138  23.193   0.021
58231W        W30656  36.909  14.867   0.725
58232W        W30657   8.724   0.492   3.206
58233W        W30658  24.345  28.175   3.784
58234W        W30659  31.553   3.100  11.171
58235W        W30660  17.154  14.008  13.583
58236W        W30661  32.010   4.792  13.101
58237W        W30662  38.402  16.186   3.561
58238W        W30663  32.190  27.682   2.965
58239W        W30664  14.492  13.942  11.023
58240W        W30665   1.823  31.267   4.162
58241W        W30666   3.960   1.717  12.582
58242W        W30667   7.555  27.978  13.766
58243W        W30668  15.346  30.670   0.263
58244W        W30669  30.366  44.925   4.102
58245W        W30670  11.795   3.968  11.771
58246W        W30671  28.527  43.249   4.538
58247W        W30672  14.072  32.206  10.814
58248W        W30673  22.621   8.726   4.641
58249W        W30674  12.398   1.154   0.283
58250W        W30675  17.305  16.596   3.428
58251W        W30676  10.441   7.171  10.570
58252W        W30677   2.515  30.397  14.478
58253W        W30678  26.608  25.788   0.439
58254W        W30679  24.568   3.389   3.652
58255W        W30680   0.354  16.045   2.824
58256W        W30681  43.592  23.967   2.731
58257W        W30682  28.517  35.413  12.695
58258W        W30683  42.980  22.957   0.241
58259W        W30684  30.066  29.731   1.720
58260W        W30685  35.543  36.000  13.777
58261W        W30686  11.317  44.344   2.693
58262W        W30687  31.788  28.253  14.377
58263W        W30688  20.620  19.579  13.527
58264W        W30689  10.226  18.924  13.418
58265W        W30690   3.856  44.363  14.146
58266W        W30691  12.444  39.022  11.465
58267W        W30692  44.777   8.967  11.093
58268W        W30693  10.778  43.480  13.465
58269W        W30694  10.661  19.957  11.317
58270W        W30695  24.211  10.399   0.931
58271W        W30696   2.660  39.504   0.789
58272W        W30697   1.830  12.561  12.887
58273W        W30698  39.181   5.724  11.278
58274W        W30699  26.165  25.529   0.403
58275W        W30700  43.436  36.439   4.197
58276W        W30701  15.141  32.477   4.551
58277W        W30702  29.976  30.960  11.334
58278W        W30703  39.465  33.560  11.925
58279W        W30704  39.787  18.286   4.500
58280W        W30705   3.434  20.650  14.806
58281W        W30706  35.638  25.748  11.250
58282W        W30707   0.694  27.430  12.648
58283W        W30708  18.459  25.112   0.798
58284W        W30709  14.505  44.252  14.801
58285W        W30710  37.379   8.470  12.447
58286W        W30711  25.590  43.141   3.826
58287W        W30712  41.924  18.064  11.384
58288W        W30713  42.954  27.432  12.340
58289W        W30714  40.807  40.807   1.991
58290W        W30715  20.657   1.480   2.338
58291W        W30716   4.200  36.607   0.892
58292W        W30717  22.972  13.379   4.621
58293W        W30718  34.932  34.825   4.569
58294W        W30719  21.105  24.539  14.827
58295W        W30720  34.876   6.907   3.613
58296W        W30721  25.121  16.295   3.786
58297W        W30722  36.792  28.576  12.500
58298W        W30723  22.141  13.602  11.558
58299W        W30724  37.846  40.839   4.452
58300W        W30725  21.060  19.267   4.027
58301W        W30726  14.238  19.189  11.573
58302W        W30727  13.234  22.858   0.939
58303W        W30728  14.945  22.928   0.440
58304W        W30729   5.841  16.634  13.668
58305W        W30730  22.315   4.322   3.263
58306W        W30731   8.609  17.287   3.800
58307W        W30732  35.571  34.134  10.950
58308W        W30733  13.890  36.969  14.285
58309W        W30734  42.184  40.398  10.633
58310W        W30735  32.377   1.476   2.568
58311W        W30736  27.884   6.061   0.862
58312W        W30737  24.525  17.269   2.788
58313W        W30738   0.499   0.731   0.278
58314W        W30739  20.524  42.808  12.577
58315W        W30740  13.626   6.558   1.388
58316W        W30741  36.443  27.588  14.138
58317W        W30742  35.337  20.254  11.619
58318W        W30743  12.223  20.333   0.298
58319W        W30744  13.002  36.270   2.232
58320W        W30745   1.363  11.705  14.449
58321W        W30746  26.487   1.616  14.819
58322W        W30747  24.426  35.324   0.934
58323W        W30748  39.312  15.371   4.315
58324W        W30749  34.004  13.443  11.637
58325W        W30750  11.894   7.936  13.840
58326W        W30751   4.846  29.385  12.344
58327W        W30752  44.505   6.661  14.875
58328W        W30753   1.542  10.393   3.727
58329W        W30754  17.224  23.168  11.892
58330W        W30755  38.568   5.309  10.828
58331W        W30756   5.397   4.850   0.444
58332W        W30757  32.922  43.246  13.534
58333W        W30758  19.033  11.184  12.566
58334W        W30759  24.703  15.836  13.275
58335W        W30760  25.571  39.970   3.637
58336W        W30761  11.427  31.144   2.083
58337W        W30762   5.679  19.381   0.264
58338W        W30763   4.587  14.391   2.708
58339W        W30764  38.032   0.287   2.747
58340W        W30765  14.646  32.926  10.725
58341W        W30766  26.893  27.160  11.705
58342W        W30767  10.133  15.667  10.717
58343W        W30768  41.786  32.134  13.471
58344W        W30769  19.004   9.724   1.503
58345W        W30770   1.869  18.900   0.116
58346W        W30771   6.353  18.441  10.164
58347W        W30772  19.496  42.834  12.819
58348W        W30773  25.828  33.055   9.744
58349W        W30774  37.572   9.136   2.428
58350W        W30775  27.528  18.510   0.357
58351W        W30776  15.139   6.966  10.652
58352W        W30777  32.240  40.115  14.394
58353W        W30778  37.829   5.050  10.329
58354W        W30779  30.113   6.826   1.407
58355W        W30780  20.097  39.863  12.558
58356W        W30781  29.589  11.183   3.239
58357W        W30782  36.097   4.267  11.351
58358W        W30783  37.516  40.443   2.830
58359W        W30784   8.615  31.637  11.618
58360W        W30785  27.803  21.318   0.530
58361W        W30786  32.459  33.324  10.109
58362W        W30787  34.051  27.180  11.351
58363W        W30788  24.293   6.298   3.132
58364W        W30789  30.189  41.913  14.974
58365W        W30790  12.095  34.387  11.236
58366W        W30791   0.842   3.915   3.314
58367W        W30792  27.431  36.948   1.399
58368W        W30793  21.403   3.083  13.820
58369W        W30794  39.255  41.572   0.222
58370W        W30795  40.179  13.425   2.722
58371W        W30796  39.850  43.171  13.049
58372W        W30797   7.676  11.171   3.141
58373W        W30798  33.592  39.551   2.893
58374W        W30799  38.971  26.877  14.573
58375W        W30800   1.010  44.409  12.422
58376W        W30801  26.561  19.184  11.068
58377W        W30802  28.048  26.280   2.311
58378W        W30803  29.869   3.307   4.715
58379W        W30804   7.305  28.349   1.632
58380W        W30805   3.315  33.311  11.982
58381W        W30806   6.394   0.873   2.897
58382W        W30807   8.413  32.976   3.215
58383W        W30808   3.856   1.802   3.685
58384W        W30809  40.327  17.468   4.526
58385W        W30810   6.854  26.159  10.367
58386W        W30811   1.027  29.202   1.677
58387W        W30812  25.414  11.307   2.705
58388W        W30813  19.312  38.347   2.268
58389W        W30814   4.346   8.273   0.223
58390W        W30815  38.827  40.303   0.334
58391W        W30816  39.598  41.415  12.402
58392W        W30817  24.786   7.262   4.478
58393W        W30818  37.261   2.204  12.879
58394W        W30819  25.471  23.194  13.923
58395W        W30820  43.277   6.060   0.333
58396W        W30821  34.050  43.369  11.478
58397W        W30822  41.757  10.349   1.954
58398W        W30823   6.136  15.700  10.932
58399W        W30824  30.943  21.061   5.210
58400W        W30825  13.198   2.889  12.336
58401W        W30826  42.893   4.633  13.434
58402W        W30827  38.100  28.018  14.067
58403W        W30828   0.716  36.117   2.458
58404W        W30829  34.165  38.569   1.334
58405W        W30830  15.619  19.759   3.253
58406W        W30831  29.375  21.118   3.809
58407W        W30832   3.778  17.182  11.176
58408W        W30833   1.543   4.652   1.177
58409W        W30834   7.419  14.586   3.744
58410W        W30835  25.686  17.371   0.323
58411W        W30836  39.280  43.301   1.413
58412W        W30837  27.781  21.752   3.219
58413W        W30838  42.387  37.036   4.217
58414W        W30839  17.997  25.555  12.401
58415W        W30840  30.071  11.843   2.722
58416W        W30841  37.879  28.744  13.516
58417W        W30842  19.716   0.985   2.245
58418W        W30843  43.730  34.915   1.244
58419W        W30844  41.357   5.825   3.875
58420W        W30845  23.398  25.477   1.928
58421W        W30846   9.927  37.437   2.701
58422W        W30847   4.450   0.293  12.155
58423W        W30848   1.323  33.162   9.725
58424W        W30849  16.655   1.216   2.271
58425W        W30850  21.507  44.688  14.849
58426W        W30851  10.166  31.880  10.229
58427W        W30852  37.459   2.859  13.121
58428W        W30853  38.507  32.128   3.888
58429W        W30854  16.271   4.651  12.988
58430W        W30855  18.355   8.729   2.031
58431W        W30856  21.889   2.510  14.453
58432W        W30857  35.783  13.202  11.998
58433W        W30858  33.521  26.613   4.762
58434W        W30859  44.333  11.006  12.718
58435W        W30860  17.024   4.898  10.413
58436W        W30861   3.194   9.843   4.145
58437W        W30862  11.816  40.025  10.558
58438W        W30863   6.380  23.630  10.328
58439W        W30864  43.907  35.425   0.346
58440W        W30865   0.848  30.038   2.254
58441W        W30866  42.542  26.486  12.860
58442W        W30867  14.967  34.396  11.053
58443W        W30868  37.821  12.736  13.002
58444W        W30869   3.754  29.042  14.158
58445W        W30870   0.052  29.456   3.286
58446W        W30871  36.397  29.738   0.935
58447W        W30872   0.321  30.931   2.803
58448W        W30873  39.989  17.244   0.340
58449W        W30874  25.671  38.581  14.329
58450W        W30875   2.519  34.046  10.554
58451W        W30876   6.285  34.509  13.520
58452W        W30877   6.287   9.644   4.642
58453W        W30878  28.464  29.638  11.165
58454W        W30879  15.560  33.727  11.924
58455W        W30880  10.732  27.566  13.610
58456W        W30881   7.950  21.041   2.337
58457W        W30882  29.816  18.258  14.453
58458W        W30883  24.734  21.765   1.915
58459W        W30884  17.559  31.333   1.162
58460W        W30885  11.131  17.517  14.960
58461W        W30886  34.089  16.656  12.287
58462W        W30887  42.975  15.292  11.204
58463W        W30888   1.384  19.549  12.477
58464W        W30889  33.603  19.179  14.910
58465W        W30890  41.864  44.934  14.070
58466W        W30891  18.793  22.632   4.034
58467W        W30892  31.319  42.890  11.637
58468W        W30893  14.323  14.284  14.498
58469W        W30894  13.697  10.341   2.717
58470W        W30895  30.444  18.983  10.688
58471W        W30896  31.124   6.223  13.126
58472W        W30897   1.734  24.379   1.279
58473W        W30898  27.957  29.979   1.986
58474W        W30899  26.230  32.326   4.078
58475W        W30900  41.165  22.841   5.087
58476W        W30901   1.426  18.519   0.870
58477W        W30902  28.707  18.003  10.638
58478W        W30903  37.566  29.281   4.614
58479W        W30904  23.026  12.798  14.312
58480W        W30905  22.238  10.313   0.960
58481W        W30906  44.465  27.549  14.227
58482W        W30907  29.163  20.264   2.644
58483W        W30908  42.852  21.117  14.307
58484W        W30909  30.579  11.707   0.554
58485W        W30910  43.810  12.726  11.272
58486W        W30911  18.121  40.880   2.802
58487W        W30912  28.791   7.875   1.278
58488W        W30913  19.637  18.400   5.138
58489W        W30914  25.742  27.224  10.632
58490W        W30915  36.948  18.215   0.288
58491W        W30916  27.576   0.333  11.407
58492W        W30917  17.567   0.503  11.178
58493W        W30918  35.849  21.704  13.549
58494W        W30919  41.544  23.127   4.859
58495W        W30920  17.163   9.459   1.896
58496W        W30921  35.635   9.620   0.979
58497W        W30922  37.467  14.666  12.631
58498W        W30923  28.922  23.084   3.874
58499W        W30924   7.448  25.089  13.448
58500W        W30925  17.111   5.369  11.698
58501W        W30926  42.985  41.396  14.850
58502W        W30927  37.101  28.906   3.964
58503W        W30928  23.746  20.047   0.913
58504W        W30929  22.166   8.456   3.538
58505W        W30930  23.271  44.189  13.700
58506W        W30931   6.419  23.189  11.125
58507W        W30932  41.281   1.938  13.902
58508W        W30933   1.949  33.005   2.868
58509W        W30934  35.486  23.425  13.081
58510W        W30935  26.650   8.489  14.063
58511W        W30936   2.468   8.359   0.277
58512W        W30937  19.723  30.379   2.300
58513W        W30938  37.071  27.219   2.776
58514W        W30939   9.824  19.145  13.736
58515W        W30940  18.446  24.548  11.181
58516W        W30941  40.479  40.028  12.217
58517W        W30942  36.826  21.068  11.619
58518W        W30943  43.789  27.676  13.402
58519W        W30944  42.582   6.713  13.684
58520W        W30945   9.587   4.324  14.984
58521W        W30946  44.044  15.809  10.959
58522W        W30947  44.504   9.673   4.900
58523W        W30948  22.965   7.837   2.582
58524W        W30949   5.182  21.589   3.579
58525W        W30950  21.478  36.915   4.152
58526W        W30951  42.235  34.857   3.305
58527W        W30952  37.650  27.183  13.221
58528W        W30953  27.479  41.031  12.757
58529W        W30954  10.269  30.917  10.645
58530W        W30955  42.221   3.826  14.910
58531W        W30956  42.678  21.122   4.302
58532W        W30957   7.218  29.235  14.826
58533W        W30958  36.688  25.922   0.700
58534W        W30959   3.447  12.344  11.934
58535W        W30960  22.639  42.441  10.957
58536W        W30961   6.275  11.598  12.528
58537W        W30962  42.891  10.808   3.673
58538W        W30963  11.642  27.460  13.310
58539W        W30964  10.718  39.880   0.037
58540W        W30965  15.088  30.015   1.849
58541W        W30966  23.636  17.828   1.949
58542W        W30967  25.690  44.387   9.849
58543W        W30968  12.381  22.132   3.979
58544W        W30969  31.572   2.189   1.484
58545W        W30970  22.625  24.634   1.170
58546W        W30971  44.194  43.691  13.412
58547W        W30972   2.881  42.049   0.248
58548W        W30973  37.358   1.703   4.762
58549W        W30974  25.612  30.003  13.535
58550W        W30975  15.733  23.252   0.807
58551W        W30976   4.805   7.274   3.595
58552W        W30977  34.440  35.939   1.552
58553W        W30978   3.188   2.357  11.512
58554W        W30979  34.307  13.113  11.987
58555W        W30980  21.549  28.502   1.306
58556W        W30981  40.342   3.804   4.673
58557W        W30982  17.368  20.285  11.541
58558W        W30983  17.722  10.426  12.852
58559W        W30984  32.626  43.589   1.260
58560W        W30985  27.956  37.928  12.376
58561W        W30986  11.855  18.313   1.814
58562W        W30987  16.045  29.038  12.106
58563W        W30988  26.501  20.598   1.522
58564W        W30989  26.726  14.045   1.721
58565W        W30990   2.489  32.589   3.268
58566W        W30991   0.968  39.557   2.852
58567W        W30992   7.782  12.831   0.184
58568W        W30993  35.635   7.843  11.625
58569W        W30994   7.787  39.505   3.364
58570W        W30995  12.286  30.586   1.842
58571W        W30996  32.546  43.479  14.843
58572W        W30997  23.414  44.307  14.289
58573W        W30998   6.855  12.936   1.767
58574W        W30999  18.923   2.482  11.815
58575W        W31000   5.825  35.559  10.909
58576W        W31001  21.536  44.884   4.856
58577W        W31002   5.180  22.648   2.636
58578W        W31003  27.727  36.823   3.130
58579W        W31004  25.857  14.235   4.004
58580W        W31005  15.555  18.249  14.305
58581W        W31006  15.673  40.032  14.306
58582W        W31007  30.043   4.072  10.848
58583W        W31008  37.810  19.292  12.108
58584W        W31009  12.681  33.597  11.955
58585W        W31010  39.381   4.644   0.306
58586W        W31011  19.461  14.994  12.503
58587W        W31012  41.924  24.199  14.030
58588W        W31013  14.731  28.701   0.875
58589W        W31014  18.432  41.513   0.856
58590W        W31015   1.896  11.702   4.373
58591W        W31016  40.024   3.920   3.297
58592W        W31017  37.326  27.493   2.402
58593W        W31018  42.860  14.191   1.717
58594W        W31019  32.621  34.369  11.521
58595W        W31020  20.617   9.205   4.703
58596W        W31021  42.575   1.693   0.471
58597W        W31022  25.565  21.517  12.472
58598W        W31023  41.767  10.061  13.004
58599W        W31024   6.721  30.591  12.407
58600W        W31025  24.118  35.773  10.769
58601W        W31026  32.817  26.961   2.906
58602W        W31027   1.073  11.610  11.189
58603W        W31028  28.539  19.690  14.986
58604W        W31029   7.210  44.530  12.134
58605W        W31030  35.054  37.583   3.300
58606W        W31031  39.432  33.562   2.399
58607W        W31032  39.667  31.389   3.607
58608W        W31033   3.197  20.167  11.436
58609W        W31034  24.904  40.377   1.928
58610W        W31035  41.911  36.441  14.552
58611W        W31036  33.986  44.498   3.711
58612W        W31037  43.340   8.621  10.447
58613W        W31038   3.766  41.839   1.838
58614W        W31039  11.890  13.345  11.575
58615W        W31040  19.338  17.057   1.792
58616W        W31041  11.778  18.108   4.641
58617W        W31042  38.434   2.814  11.199
58618W        W31043  13.215  31.538  12.909
58619W        W31044  19.082  13.821  13.396
58620W        W31045   1.255   2.789   0.199
58621W        W31046  32.444  14.863   2.621
58622W        W31047  18.127  43.842   1.526
58623W        W31048   6.373   6.425  14.009
58624W        W31049  26.021   1.551  13.847
58625W        W31050  38.333   4.495   2.652
58626W        W31051  42.830  21.255  10.619
58627W        W31052  31.480  12.316  12.886
58628W        W31053   1.264   8.904   0.758
58629W        W31054  10.121  29.385   4.153
58630W        W31055  10.759  26.545   0.233
58631W        W31056  41.537   0.006   1.007
58632W        W31057  35.623  42.814  11.367
58633W        W31058  32.353  25.105   0.548
58634W        W31059   0.554   2.381  13.887
58635W        W31060  10.119   3.262   3.690
58636W        W31061   1.385  27.162  12.656
58637W        W31062  10.681  29.534   4.887
58638W        W31063  29.497  38.594  11.882
58639W        W31064  41.299  22.990  10.291
58640W        W31065  39.132  25.096  14.798
58641W        W31066  13.544  24.793   5.434
58642W        W31067  19.050   5.930   4.198
58643W        W31068  11.872  42.913  13.554
58644W        W31069   1.573  11.673  14.936
58645W        W31070  22.295  29.056  12.565
58646W        W31071   4.464   5.653   3.949
58647W        W31072  12.105  32.931   0.904
58648W        W31073  35.609   7.145  10.535
58649W        W31074   5.849  33.710   1.248
58650W        W31075  17.095   5.871   4.279
58651W        W31076  14.127  16.353  11.448
58652W        W31077  38.902  26.484  14.236
58653W        W31078  14.615  29.430   1.190
58654W        W31079  34.535  44.841  11.525
58655W        W31080  36.770  29.506  10.673
58656W        W31081  36.302  13.291   2.743
58657W        W31082  39.493  19.053   1.444
58658W        W31083  31.065  28.937  10.431
58659W        W31084   6.191   7.972  13.905
58660W        W31085  31.394  26.413   0.440
58661W        W31086  41.288  11.314   2.698
58662W        W31087  36.140   8.751   0.795
58663W        W31088  15.205  28.983  13.110
58664W        W31089  26.869  21.515   2.766
58665W        W31090  17.480  36.290  14.351
58666W        W31091  24.052  37.369  13.515
58667W        W31092  14.108  36.952   0.656
58668W        W31093   0.291   5.750   0.321
58669W        W31094   6.192  10.130   4.984
58670W        W31095   4.820  32.612   3.338
58671W        W31096  34.598  21.777   1.903
58672W        W31097   1.239  38.353  11.645
58673W        W31098   1.877  25.273   5.120
58674W        W31099  41.008   0.064   3.700
58675W        W31100  13.994  34.827   4.157
58676W        W31101   3.305  20.141   2.873
58677W        W31102  25.443  12.391   1.345
58678W        W31103  39.645  44.953   4.585
58679W        W31104   4.347  26.141   4.184
58680W        W31105  34.905  22.780  13.985
58681W        W31106  30.724  13.814   2.859
58682W        W31107   7.213   7.388  12.637
58683W        W31108  16.611  41.824   0.360
58684W        W31109  38.825  33.063   3.645
58685W        W31110  18.331  10.346   2.615
58686W        W31111  11.304   0.210  14.039
58687W        W31112  36.492  26.000  13.030
58688W        W31113  23.676  44.652  11.058
58689W        W31114   9.853  24.568  13.336
58690W        W31115  35.502  31.755  13.547
58691W        W31116  36.901  38.012  10.600
58692W        W31117  20.288  16.902  12.330
58693W        W31118  21.414   3.619   4.403
58694W        W31119   1.320  39.949   3.097
58695W        W31120  36.362  24.956  13.006
58696W        W31121  22.869   8.982  14.836
58697W        W31122   0.032  14.808  14.602
58698W        W31123  27.412   5.304   0.308
58699W        W31124  14.903  15.083   3.033
58700W        W31125  30.277  21.211   4.089
58701W        W31126  23.260  19.952   4.061
58702W        W31127   3.687  23.690  13.027
58703W        W31128  29.598  18.440  13.474
58704W        W31129  24.327   1.084  14.867
58705W        W31130  15.375  34.349   3.344
58706W        W31131  14.181  36.272  10.605
58707W        W31132  15.439  29.631  10.673
58708W        W31133   4.655  17.975  10.217
58709W        W31134  13.822   0.173   2.229
58710W        W31135  44.766  33.499  14.251
58711W        W31136  40.946  36.279  12.581
58712W        W31137   3.582   2.249   4.552
58713W        W31138   7.771  34.156  12.011
58714W        W31139  32.133  20.999   4.592
58715W        W31140  23.539  39.323   0.914
58716W        W31141  29.744  24.682   5.125
58717W        W31142  30.734  44.878  10.955
58718W        W31143   9.705  24.984   4.729
58719W        W31144  30.096  39.197  12.161
58720W        W31145  33.396   6.893   3.130
58721W        W31146   8.138   1.390   1.803
58722W        W31147   0.235   1.200   0.318
58723W        W31148  36.408  23.946  13.948
58724W        W31149  21.065  19.879  12.154
58725W        W31150   0.932  39.286   4.188
58726W        W31151  17.840   9.682   3.541
58727W        W31152   5.732  29.472  12.780
58728W        W31153  14.178  28.186  14.959
58729W        W31154  23.569  21.296   3.496
58730W        W31155  18.084  19.629   4.301
58731W        W31156  36.143  15.169   4.466
58732W        W31157  15.342  14.320   4.595
58733W        W31158  16.317  18.476  13.930
58734W        W31159  35.348  32.891   1.691
58735W        W31160   8.253  18.263   4.912
58736W        W31161  17.246  35.787   1.473
58737W        W31162  22.619  21.146  13.718
58738W        W31163  37.454   9.342  14.982
58739W        W31164  33.533  31.882   5.010
58740W        W31165  44.736  34.913  13.870
58741W        W31166  34.133  32.357   3.813
58742W        W31167  23.144  11.091   3.164
58743W        W31168  15.666  29.201   4.037
58744W        W31169  31.160   8.421   3.897
58745W        W31170  26.955  21.891  13.528
58746W        W31171   0.496   1.003   0.743
58747W        W31172   3.234  26.871   4.644
58748W        W31173  39.724  21.025  11.661
58749W        W31174  13.093  26.798  12.718
58750W        W31175   6.893   6.796  10.458
58751W        W31176  23.690  37.021  12.827
58752W        W31177  30.552  11.952   5.135
58753W        W31178  28.426  41.851   0.311
58754W        W31179  37.115  28.767  12.116
58755W        W31180  13.177  41.951  12.069
58756W        W31181  18.355  16.443   1.255
58757W        W31182  27.852  11.869  12.845
58758W        W31183  21.770   1.516  11.098
58759W        W31184  33.585  13.296  13.339
58760W        W31185  19.862  34.116  13.595
58761W        W31186   2.792  38.978  13.589
58762W        W31187  36.554  42.494   2.187
58763W        W31188  26.529   6.607  12.146
58764W        W31189  43.178  37.861  10.529
58765W        W31190  13.196  29.027   0.723
58766W        W31191  18.148  41.995  11.464
58767W        W31192  26.037  10.446   4.172
58768W        W31193  25.667   3.455   9.937
58769W        W31194  18.293  28.136  14.713
58770W        W31195  36.435   4.555  14.920
58771W        W31196  24.248   2.296  13.952
58772W        W31197  21.026  39.951   1.220
58773W        W31198   2.012  15.293  10.419
58774W        W31199   8.943   3.429   1.756
58775W        W31200   3.341   9.598   1.513
58776W        W31201  28.600   0.181  11.539
58777W        W31202  44.553  16.725  12.017
58778W        W31203  31.206   4.321   2.156
58779W        W31204  35.374   4.882   1.943
58780W        W31205  31.148  24.228  13.060
58781W        W31206  14.574  25.803  12.941
58782W        W31207  20.024   8.490  13.418
58783W        W31208   8.547  17.782   1.903
58784W        W31209  12.821  21.455   4.242
58785W        W31210  19.147  30.137   3.663
58786W        W31211  17.380   8.100  13.039
58787W        W31212  31.796  21.258  14.437
58788W        W31213  42.356  39.783  14.868
58789W        W31214  22.031  43.703  14.421
58790W        W31215  10.596  37.869   0.404
58791W        W31216  21.221  29.085  11.102
58792W        W31217  15.148   0.233   2.713
58793W        W31218  39.841  22.697  13.000
58794W        W31219  41.930  33.747  12.417
58795W        W31220   7.339  21.435   4.687
58796W        W31221   8.257  22.982   4.517
58797W        W31222  25.220  11.601  14.311
58798W        W31223  41.364  34.969  12.495
58799W        W31224  30.688  43.022   2.715
58800W        W31225  39.456   9.626   1.880
58801W        W31226  26.140  42.417   1.723
58802W        W31227  10.533  41.022  11.562
58803W        W31228  44.237  21.288   2.591
58804W        W31229   3.327  23.811   3.831
58805W        W31230  43.405  41.198   2.204
58806W        W31231  14.328  21.055   1.407
58807W        W31232  10.855  28.610  14.474
58808W        W31233  32.590  30.899  13.073
58809W        W31234  22.998  28.490  10.532
58810W        W31235   9.938  26.646   1.275
58811W        W31236  22.153   4.440   0.932
58812W        W31237   0.697  29.388   4.105
58813W        W31238  38.961  22.299  13.381
58814W        W31239  31.267  18.656   0.833
58815W        W31240   8.201   6.772  14.393
58816W        W31241  16.074  26.669   3.803
58817W        W31242  43.875  35.271   0.854
58818W        W31243  40.620   3.707   2.770
58819W        W31244   5.910   1.040  12.898
58820W        W31245  15.677  22.478   9.849
58821W        W31246   8.120  32.398  14.338
58822W        W31247  14.185   6.413   0.689
58823W        W31248  11.243  18.834  10.732
58824W        W31249  16.604  35.406  10.902
58825W        W31250  37.426  36.028   0.596
58826W        W31251  21.792  15.742  13.591
58827W        W31252  22.185  25.631   0.512
58828W        W31253  36.149  32.996   3.722
58829W        W31254  31.585  20.732   1.817
58830W        W31255  42.878  16.047  13.867
58831W        W31256   8.802   1.231  10.596
58832W        W31257  23.188  39.459   1.287
58833W        W31258  38.991  20.794  10.789
58834W        W31259  20.135  23.189   1.667
58835W        W31260  39.822   6.899  11.652
58836W        W31261   9.212   3.406   2.722
58837W        W31262  27.634  14.616  13.055
58838W        W31263   4.990  34.855   3.747
58839W        W31264  13.852  43.540  11.598
58840W        W31265  44.775   3.923  14.010
58841W        W31266  25.418   0.761   0.713
58842W        W31267  27.696  17.107  13.601
58843W        W31268  41.733  29.610   0.454
58844W        W31269  27.441   0.894   3.677
58845W        W31270  27.135  19.139  14.947
58846W        W31271  37.395  17.721   3.683
58847W        W31272   6.938  20.709  13.359
58848W        W31273  17.165  23.489  13.327
58849W        W31274  41.676  15.069   0.893
58850W        W31275  37.990  35.054   2.753
58851W        W31276  12.317  41.489  11.532
58852W        W31277   6.780  35.323  13.531
58853W        W31278  31.598  41.387  10.615
58854W        W31279   1.977   1.877  13.454
58855W        W31280  38.346   1.746  11.536
58856W        W31281  28.541   8.707  14.309
58857W        W31282  41.516  15.005   4.092
58858W        W31283   0.312  25.061  11.568
58859W        W31284   0.853  34.489  14.807
58860W        W31285  39.347  26.676  11.226
58861W        W31286  36.599  42.935   4.373
58862W        W31287   9.804   5.991   2.314
58863W        W31288  17.584  27.602  14.786
58864W        W31289  19.708  16.583   2.397
58865W        W31290  14.180  20.996  12.892
58866W        W31291  33.755  41.994   1.891
58867W        W31292   6.886  16.643   4.699
58868W        W31293  11.567  37.320   9.872
58869W        W31294   4.646  42.208  14.299
58870W        W31295  25.572  31.197   0.823
58871W        W31296  25.184  34.498   2.076
58872W        W31297  40.825  24.730   4.542
58873W        W31298  12.415   7.681   4.135
58874W        W31299  22.366  13.850  12.068
58875W        W31300  13.618   5.718   1.740
58876W        W31301   9.653  22.130  11.153
58877W        W31302  19.930  17.656  14.788
58878W        W31303  12.866  21.125   0.227
58879W        W31304  26.473   2.839  14.412
58880W        W31305  23.163  12.607  14.770
58881W        W31306   5.644  36.113   0.663
58882W        W31307   9.793   5.629   3.816
58883W        W31308  36.173  18.284   1.794
58884W        W31309  14.564  41.627   1.418
58885W        W31310   6.990  24.037   1.535
58886W        W31311  28.963  14.053   2.759
58887W        W31312   6.670  37.661  14.525
58888W        W31313  37.535  18.055   1.417
58889W        W31314  15.142  41.028   2.315
58890W        W31315  39.129  31.491   3.770
58891W        W31316  38.604  26.946  11.105
58892W        W31317   5.852  34.381  14.779
58893W        W31318  33.408  39.526   0.537
58894W        W31319  27.062  26.736   2.161
58895W        W31320  21.122  29.144  13.528
58896W        W31321  44.817  35.488   2.676
58897W        W31322  31.176  39.399  13.433
58898W        W31323  34.496  30.957   2.319
58899W        W31324  14.616  39.747   0.407
58900W        W31325  16.654  37.010  10.667
58901W        W31326  40.556  11.893   2.793
58902W        W31327  27.539  10.837  11.632
58903W        W31328   2.390  38.063  12.072
58904W        W31329   9.645   3.647  11.851
58905W        W31330  20.753  39.685  14.531
58906W        W31331  17.618  25.477  11.528
58907W        W31332  44.464  40.982  13.812
58908W        W31333  32.061  13.381   4.052
58909W        W31334  38.049  15.868  12.181
58910W        W31335   5.960  39.639   2.406
58911W        W31336  10.369  31.645  13.046
58912W        W31337   0.262  25.943  12.549
58913W        W31338  39.529  34.396   4.570
58914W        W31339  39.040   2.476  12.419
58915W        W31340  20.676  30.888   1.674
58916W        W31341   8.934  27.700   2.960
58917W        W31342   4.885  34.047   4.112
58918W        W31343  37.581  15.227  14.888
58919W        W31344  18.197  32.927   4.179
58920W        W31345  42.825  42.034   0.258
58921W        W31346   9.610  41.364  13.868
58922W        W31347  17.066  20.121  11.970
58923W        W31348  17.011  43.550  12.994
58924W        W31349  10.688  10.832  14.810
58925W        W31350   8.429  39.085  14.377
58926W        W31351   4.435  10.610   0.785
58927W        W31352   8.668  42.860   1.754
58928W        W31353  36.979   6.367  12.959
58929W        W31354   6.160  16.613  12.589
58930W        W31355  44.786  29.178   3.610
58931W        W31356  11.106  16.068  14.046
58932W        W31357   7.900   9.896  11.082
58933W        W31358  18.255  34.606   1.752
58934W        W31359   4.718  19.755  10.216
58935W        W31360  28.020  15.179  14.914
58936W        W31361  14.853  27.981   4.229
58937W        W31362  21.492  30.165  12.010
58938W        W31363  44.805  39.883  14.257
58939W        W31364  12.133   8.148  12.872
58940W        W31365  37.387   6.704   9.771
58941W        W31366   5.560   5.849  14.055
58942W        W31367  21.210  28.253  12.464
58943W        W31368  16.403  11.768   0.106
58944W        W31369  37.853  15.707  14.867
58945W        W31370  15.040  40.161  12.403
58946W        W31371  28.050  44.406  14.870
58947W        W31372  15.011  32.658  10.470
58948W        W31373  30.396   5.460   1.399
58949W        W31374  21.876  39.909   3.297
58950W        W31375  27.599  23.002  14.892
58951W        W31376   2.481  42.038   1.033
58952W        W31377   0.937  41.510  11.282
58953W        W31378  20.964  35.127  14.920
58954W        W31379  35.946  38.445   0.208
58955W        W31380  36.386  42.412  13.730
58956W        W31381  42.819  30.923   2.339
58957W        W31382  29.026  43.773  12.595
58958W        W31383  30.695  10.942   0.678
58959W        W31384  30.127  21.116  11.755
58960W        W31385  12.946   9.395   1.986
58961W        W31386  43.271  17.288   1.847
58962W        W31387  30.018  32.536  14.889
58963W        W31388  39.957   8.851  14.261
58964W        W31389  34.589  16.835  11.087
58965W        W31390  29.544   9.659   3.525
58966W        W31391  17.087  18.272  12.014
58967W        W31392  21.541  13.136   2.807
58968W        W31393  21.575   9.321  12.568
58969W        W31394  39.985  23.536  10.752
58970W        W31395  20.466   2.481  14.388
58971W        W31396  30.386   2.375  13.082
58972W        W31397  35.941  18.255  12.018
58973W        W31398   6.576   8.230   0.715
58974W        W31399   4.350   5.139   4.390
58975W        W31400   3.493  18.158  13.399
58976W        W31401   1.466  44.928   0.492
58977W        W31402  25.649  23.446  14.365
58978W        W31403  42.367  42.723  11.558
58979W        W31404  44.450  37.480  11.625
58980W        W31405   0.649  39.154   1.206
58981W        W31406  32.243  22.714  10.250
58982W        W31407   0.194  10.676  11.628
58983W        W31408  38.341  32.383   3.081
58984W        W31409  40.379  12.019  11.689
58985W        W31410  22.181  12.214   0.309
58986W        W31411  24.145  13.819   0.823
58987W        W31412  36.457  15.755  10.067
58988W        W31413  35.765  10.879   1.462
58989W        W31414  42.765  36.471   0.122
58990W        W31415   1.280  26.459   3.175
58991W        W31416  35.022  44.968   2.009
58992W        W31417   7.940  44.797   0.801
58993W        W31418  23.124  19.282   4.987
58994W        W31419  22.269  14.929  13.525
58995W        W31420  43.995   0.043   1.714
58996W        W31421  33.965   4.217  11.076
58997W        W31422  24.977  17.884   0.876
58998W        W31423  23.061   6.621   1.389
58999W        W31424   1.523  30.760   2.417
59000W        W31425  21.496  11.836  10.084
59001W        W31426  40.180  30.929  14.313
59002W        W31427  26.416  23.304  13.094
59003W        W31428  38.372  31.987  12.460
59004W        W31429  37.385  16.512   4.549
59005W        W31430  42.730  23.052  10.475
59006W        W31431   2.047  16.829   2.294
59007W        W31432  41.311  23.536  11.554
59008W        W31433  23.153   7.541   4.006
59009W        W31434   2.735  15.591   0.232
59010W        W31435  41.042   8.782   1.742
59011W        W31436  14.577  17.675  14.824
59012W        W31437  17.297  15.822   0.993
59013W        W31438  11.595   8.891  14.336
59014W        W31439  29.177  20.833   3.390
59015W        W31440   0.451  21.281   4.490
59016W        W31441  28.565  10.777   2.732
59017W        W31442  17.638  44.384   0.898
59018W        W31443  21.720  36.902  12.589
59019W        W31444  37.310   9.855  14.915
59020W        W31445  33.520   0.178   4.612
59021W        W31446  15.301   9.069  10.807
59022W        W31447  43.858   5.216  13.695
59023W        W31448  17.053   5.780  13.617
59024W        W31449   0.013  15.825   3.152
59025W        W31450  27.755  11.466   3.539
59026W        W31451  28.551   9.485  13.392
59027W        W31452  35.834  39.522  13.848
59028W        W31453  41.874  24.869   0.950
59029W        W31454   2.762  13.402  11.380
59030W        W31455  21.477  21.347   4.274
59031W        W31456   7.318  36.445  14.317
59032W        W31457  19.185   8.169   2.585
59033W        W31458  17.122  42.368   4.204
59034W        W31459  31.135  20.288  13.502
59035W        W31460  30.946  17.670   4.722
59036W        W31461  39.295   2.940  12.503
59037W        W31462  39.243  22.626  11.118
59038W        W31463   1.973   4.925   0.611
59039W        W31464  20.605  11.391   4.954
59040W        W31465  20.996  16.532   2.734
59041W        W31466   8.957  28.334  11.032
59042W        W31467   4.259  26.150   1.276
59043W        W31468  17.630  12.307  10.640
59044W        W31469  10.505  20.755   0.360
59045W        W31470  24.577  32.660   1.226
59046W        W31471   5.857  38.065  12.627
59047W        W31472  44.858  10.606  13.711
59048W        W31473  21.256  13.661  11.141
59049W        W31474  38.985  32.512  10.644
59050W        W31475   5.464  25.031   1.251
59051W        W31476  16.849  13.705   1.752
59052W        W31477  33.489  30.355  11.058
59053W        W31478  14.847  40.975  11.039
59054W        W31479  28.818  15.414  11.184
59055W        W31480   5.795  27.536   3.120
59056W        W31481  38.603  36.399   3.566
59057W        W31482   7.627  28.615   2.404
59058W        W31483  24.056  43.758  12.130
59059W        W31484  21.507  27.669  13.084
59060W        W31485  22.108   6.119  11.881
59061W        W31486  37.044  26.978  11.595
59062W        W31487  20.581   0.315  14.789
59063W        W31488  29.500   3.442   1.770
59064W        W31489  30.225  32.380  12.651
59065W        W31490  18.206  12.613   3.699
59066W        W31491   7.330  22.177  14.032
59067W        W31492  17.590  36.117  12.318
59068W        W31493  43.922  29.209  13.507
59069W        W31494  30.958   8.775   3.138
59070W        W31495  16.586  39.797  12.425
59071W        W31496  20.044  14.890  10.518
59072W        W31497   8.202   6.647  10.848
59073W        W31498  14.339  28.887  11.719
59074W        W31499  18.158  19.108  12.993
59075W        W31500  12.717  41.761   2.360
59076W        W31501   6.871  27.015  10.750
59077W        W31502  36.535  40.255   2.215
59078W        W31503   4.410   5.207  14.394
59079W        W31504   0.242  31.420   2.772
59080W        W31505  16.932   8.181   3.555
59081W        W31506  38.188   6.519   4.861
59082W        W31507  31.741  44.921  14.040
59083W        W31508  24.985  11.862   5.001
59084W        W31509  26.022  23.923   2.179
59085W        W31510  37.978   1.753   2.740
59086W        W31511  30.894  25.191   0.962
59087W        W31512   3.384   7.321  10.597
59088W        W31513  36.001  29.088   2.197
59089W        W31514   9.788  25.455  11.450
59090W        W31515  30.056  42.696  12.443
59091W        W31516  19.515  25.712   3.253
59092W        W31517  31.097  29.486  11.069
59093W        W31518  33.977   8.673  11.498
59094W        W31519  29.282  21.237  10.174
59095W        W31520  17.115  37.623   3.391
59096W        W31521   0.430  40.783  10.648
59097W        W31522   4.021  43.209   0.926
59098W        W31523  20.546  17.447   0.387
59099W        W31524   8.864   1.022  11.068
59100W        W31525  43.304  37.847   4.672
59101W        W31526  34.669  33.516   3.626
59102W        W31527  17.269   4.738  13.063
59103W        W31528  13.341  18.014   1.808
59104W        W31529  34.040  22.053   2.267
59105W        W31530  38.032  21.979  13.525
59106W        W31531  44.906   8.687   4.134
59107W        W31532  20.700  30.391   0.266
59108W        W31533   4.280  38.507  13.584
59109W        W31534  34.585   0.923   3.149
59110W        W31535  22.854  30.495   4.224
59111W        W31536   1.353  41.474   1.224
59112W        W31537   5.182   8.579   2.145
59113W        W31538  41.555  39.269  10.816
59114W        W31539   1.418  22.600   4.806
59115W        W31540  17.080  25.568   4.755
59116W        W31541  31.486  10.254  14.072
59117W        W31542  12.272  34.145  14.528
59118W        W31543   9.681  17.553  14.950
59119W        W31544   9.281  16.030   2.932
59120W        W31545   4.738  27.935   0.545
59121W        W31546  32.234  24.543   3.209
59122W        W31547  43.326   5.941  10.649
59123W        W31548  18.178   1.489  14.840
59124W        W31549  10.956  23.140  13.483
59125W        W31550  31.846  15.607  11.050
59126W        W31551  20.701  21.132  12.604
59127W        W31552  22.779  40.263   5.209
59128W        W31553   4.024  33.972   1.720
59129W        W31554   1.390   3.877   3.535
59130W        W31555  32.859  12.772   2.416
59131W        W31556  26.189  44.408   1.907
59132W        W31557  38.862  26.061  14.523
59133W        W31558  44.581   0.780  11.105
59134W        W31559  36.806  31.153   3.154
59135W        W31560  19.692  25.739   0.794
59136W        W31561  24.687  15.716   4.094
59137W        W31562  44.746  27.598  13.397
59138W        W31563  33.067  18.897   0.837
59139W        W31564  42.315  35.531   1.670
59140W        W31565  16.419  14.374  13.480
59141W        W31566  22.238   1.367  10.915
59142W        W31567  20.555  44.713   3.658
59143W        W31568  35.308  14.264   3.849
59144W        W31569  39.273  22.032  11.610
59145W        W31570  26.126  40.749   4.533
59146W        W31571  26.681  42.376   2.455
59147W        W31572   0.534  27.623   4.732
59148W        W31573  19.779  35.801  14.928
59149W        W31574  39.146  18.082  12.470
59150W        W31575  41.742   8.978   0.371
59151W        W31576   5.796  17.651  14.939
59152W        W31577   8.860  28.179   4.416
59153W        W31578  21.800  32.575  14.705
59154W        W31579  44.838   9.199  13.508
59155W        W31580   9.907  31.421   4.392
59156W        W31581   1.005  22.052  12.981
59157W        W31582  26.470   8.317  10.796
59158W        W31583  36.150   2.936   3.138
59159W        W31584  43.318  36.906   0.387
59160W        W31585  31.064  24.010   4.895
59161W        W31586  22.555  37.948   1.028
59162W        W31587   4.936  20.962   3.146
59163W        W31588  10.173  11.236  11.358
59164W        W31589  37.360  29.022  14.502
59165W        W31590   5.304  36.493   0.805
59166W        W31591  12.068   0.451  13.373
59167W        W31592  20.667  36.544  11.091
59168W        W31593  11.145  24.382  12.013
59169W        W31594  34.254  18.108  10.606
59170W        W31595  22.951   1.294   1.738
59171W        W31596  33.686   1.091  11.109
59172W        W31597  31.401  37.462  10.988
59173W        W31598   4.272  39.408  11.129
59174W        W31599  28.993  40.378  14.938
59175W        W31600  37.819  30.569  14.851
59176W        W31601  39.553   9.875  13.045
59177W        W31602  20.588  32.792   2.750
59178W        W31603   8.523  18.536  13.945
59179W        W31604  18.807  19.151   4.122
59180W        W31605  14.304  28.589   4.561
59181W        W31606  39.815  31.039  13.940
59182W        W31607  15.903  23.440  14.942
59183W        W31608  42.238  17.244  13.503
59184W        W31609  12.634  15.715  11.451
59185W        W31610  39.404  27.889   1.802
59186W        W31611  27.409  21.315   3.314
59187W        W31612   1.203  42.123   3.742
59188W        W31613  38.183  34.351   2.730
59189W        W31614  44.717  38.011   3.379
59190W        W31615  17.355  26.503   4.254
59191W        W31616  29.922  13.098  11.322
59192W        W31617  29.932  17.777  11.875
59193W        W31618  23.006  36.065   1.352
59194W        W31619  16.104  24.905   2.732
59195W        W31620  21.492   0.381  10.449
59196W        W31621  10.449  17.803   2.916
59197W        W31622  35.480  35.815  11.477
59198W        W31623  20.312  36.367   1.326
59199W        W31624   3.649  21.682  11.151
59200W        W31625   7.477  30.566  10.705
59201W        W31626  19.316  19.160  11.875
59202W        W31627   7.426  44.971   0.765
59203W        W31628  25.725   8.741  10.824
59204W        W31629  43.025  24.300   4.582
59205W        W31630   8.624  32.969  13.067
59206W        W31631  21.117  39.685  13.007
59207W        W31632   5.658  42.339  14.137
59208W        W31633  10.248   7.609   2.770
59209W        W31634  11.558  40.018  13.415
59210W        W31635  27.567  25.600   1.802
59211W        W31636  23.682  13.818  14.974
59212W        W31637   0.960  43.757  13.550
59213W        W31638  14.358  10.263   1.890
59214W        W31639  43.263  37.453  11.092
59215W        W31640  22.647  12.061  10.746
59216W        W31641  17.024  43.344  10.686
59217W        W31642  17.795  21.502   3.274
59218W        W31643  26.183  16.634  12.959
59219W        W31644  12.069   2.005  10.502
59220W        W31645  10.576  40.972   0.298
59221W        W31646  21.171  20.226   0.355
59222W        W31647   9.159  14.603   3.171
59223W        W31648  12.190   9.132   2.177
59224W        W31649   4.746  24.051   1.813
59225W        W31650   8.753   8.793   1.268
59226W        W31651  20.247  28.192  10.822
59227W        W31652  14.099  27.190   2.748
59228W        W31653   7.380  31.899  12.454
59229W        W31654  36.419  28.716  12.817
59230W        W31655  34.339  35.888  11.148
59231W        W31656  26.061  29.241  10.337
59232W        W31657  29.306  24.274  12.376
59233W        W31658  36.382  11.270  13.235
59234W        W31659   2.763  11.672   2.260
59235W        W31660   0.774   6.097   1.349
59236W        W31661   3.023  30.160   1.734
59237W        W31662   4.203  36.564   4.363
59238W        W31663   2.454  11.724  13.056
59239W        W31664   2.494  10.939  12.901
59240W        W31665  31.593  44.352  13.516
59241W        W31666  43.784  25.205  13.284
59242W        W31667  14.799  38.257   4.306
59243W        W31668  40.010  21.627   5.175
59244W        W31669  22.102  20.594   1.713
59245W        W31670  44.847  26.137   3.824
59246W        W31671  21.060  17.145  11.280
59247W        W31672  19.021  35.836  11.504
59248W        W31673  30.156  13.687  11.909
59249W        W31674  26.871  34.102   1.440
59250W        W31675  17.072  30.620   1.439
59251W        W31676  21.044  19.253   2.800
59252W        W31677  13.651   7.342  10.624
59253W        W31678  30.229  28.742  11.505
59254W        W31679  22.063  10.362   2.350
59255W        W31680  11.283  17.697   2.377
59256W        W31681  40.374  13.604  13.984
59257W        W31682  26.115   7.071  14.882
59258W        W31683  31.917  32.106   2.720
59259W        W31684  41.341  23.418   1.774
59260W        W31685  24.310  27.748   4.568
59261W        W31686  36.111   9.238  12.110
59262W        W31687  25.983  32.261   4.540
59263W        W31688  36.113  23.632   3.997
59264W        W31689  20.697  11.937  11.619
59265W        W31690   8.737  42.500   4.967
59266W        W31691  24.744  35.533  14.981
59267W        W31692   6.178  15.130   4.144
59268W        W31693  34.940  43.696   2.614
59269W        W31694   5.261  31.405   0.722
59270W        W31695  28.113  21.600   0.808
59271W        W31696  14.733  19.299   4.821
59272W        W31697   3.019  38.770   0.348
59273W        W31698  16.927  25.597   2.764
59274W        W31699  25.419  24.127  11.087
59275W        W31700  12.553  37.449  11.894
59276W        W31701  26.070  25.985  13.408
59277W        W31702  26.622  10.378  11.158
59278W        W31703   0.433  22.614   3.009
59279W        W31704  15.457  11.665   0.438
59280W        W31705  29.336  32.722   0.119
59281W        W31706  31.579  19.117   2.015
59282W        W31707  29.662  21.209   1.776
59283W        W31708  39.760  16.282   1.392
59284W        W31709  11.884  31.604   2.177
59285W        W31710   1.060   0.366  14.818
59286W        W31711   5.276  25.199   3.355
59287W        W31712  44.374  10.064  11.607
59288W        W31713  15.301  35.785  13.940
59289W        W31714   4.278  26.665   4.321
59290W        W31715  32.085  17.062  10.740
59291W        W31716  20.908  37.372  14.659
59292W        W31717  42.301   2.680   1.307
59293W        W31718  20.691  26.658   0.782
59294W        W31719  26.404   3.391  14.403
59295W        W31720  22.936  26.471   2.682
59296W        W31721  16.853  38.798   2.329
59297W        W31722  29.644   0.465  13.928
59298W        W31723   6.476  27.820   0.502
59299W        W31724  19.592  44.706   1.015
59300W        W31725  10.294  17.064   4.598
59301W        W31726   7.550  22.034   2.267
59302W        W31727  24.454  32.111   0.054
59303W        W31728  17.745  13.851  13.017
59304W        W31729  28.646   2.564   2.342
59305W        W31730  38.527  19.233  14.881
59306W        W31731  42.896  42.731   1.979
59307W        W31732  19.540  40.738  12.747
59308W        W31733  22.715  38.415   3.860
59309W        W31734  36.540  15.134  14.757
59310W        W31735   6.297  22.463  12.453
59311W        W31736  19.356   3.205   0.323
59312W        W31737  41.262  27.565  14.226
59313W        W31738   8.696  42.706   1.234
59314W        W31739  23.041  33.930   4.048
59315W        W31740  41.473  26.382   1.877
59316W        W31741  29.151  18.150   2.291
59317W        W31742   2.846  30.639  11.527
59318W        W31743   2.557   9.238   4.083
59319W        W31744  44.763  34.477  11.429
59320W        W31745  20.566  20.694  11.407
59321W        W31746  20.597  34.091   1.443
59322W        W31747   4.619  33.933  12.120
59323W        W31748  17.584  43.811   2.690
59324W        W31749  40.330  32.137  13.322
59325W        W31750  22.699  42.683   9.951
59326W        W31751  33.989  38.880   2.701
59327W        W31752  24.254  10.117   3.684
59328W        W31753   9.781  37.129  12.605
59329W        W31754   8.329  28.176  12.606
59330W        W31755   9.642   6.856  10.863
59331W        W31756  31.381  36.167   0.288
59332W        W31757  37.587  44.930  10.770
59333W        W31758  23.954  21.951   1.353
59334W        W31759  34.836  13.978  14.684
59335W        W31760   1.643  22.217  11.112
59336W        W31761  25.627   2.383   1.465
59337W        W31762  34.025   7.795   3.180
59338W        W31763  17.317  41.463   4.980
59339W        W31764  16.225  23.072   2.630
59340W        W31765  15.270  13.756  10.611
59341W        W31766   3.005  28.935   0.003
59342W        W31767  38.893   6.738  11.526
59343W        W31768   7.134  34.827   1.397
59344W        W31769  28.056  37.354  14.999
59345W        W31770  29.267  31.930  13.544
59346W        W31771  34.668  30.680   3.127
59347W        W31772   2.139  17.162  14.764
59348W        W31773  26.720   7.759   4.673
59349W        W31774  44.227  39.346   1.348
59350W        W31775  28.136  18.273   3.118
59351W        W31776  43.477  19.450  14.035
59352W        W31777   4.687  33.083  14.347
59353W        W31778  42.787   8.212   1.447
59354W        W31779  13.750  26.532  10.369
59355W        W31780  11.379  21.277  12.408
59356W        W31781   8.623   2.302   0.400
59357W        W31782  23.234   7.620   3.495
59358W        W31783  23.505  17.323   4.463
59359W        W31784  41.724  28.493  10.761
59360W        W31785  10.228  38.452  13.951
59361W        W31786  33.732  41.022  11.225
59362W        W31787  35.293  12.275   2.792
59363W        W31788  34.907  19.030  14.467
59364W        W31789   3.270  42.480   4.727
59365W        W31790   3.154  35.785   4.707
59366W        W31791  39.022  33.206   2.412
59367W        W31792   0.410   1.318   3.886
59368W        W31793  39.373  26.678   9.911
59369W        W31794  24.385   2.812  14.494
59370W        W31795  27.138  16.591   1.709
59371W        W31796   7.842  10.825   1.114
59372W        W31797  18.830  13.584  13.928
59373W        W31798  35.061  16.286   3.692
59374W        W31799  14.189  35.103  14.445
59375W        W31800   0.869  30.710   3.873
59376W        W31801  31.925  30.759  10.991
59377W        W31802  17.610  36.073   3.857
59378W        W31803  42.330  10.235  10.673
59379W        W31804  18.133  11.944   4.253
59380W        W31805  36.947   3.005  12.283
59381W        W31806  20.648  42.042   4.800
59382W        W31807  22.999  22.592   3.229
59383W        W31808  41.334  36.465  10.686
59384W        W31809  30.489  25.791   0.221
59385W        W31810  40.966   7.901  11.167
59386W        W31811  35.538  33.478   3.129
59387W        W31812  26.129  17.620  10.633
59388W        W31813  22.272  33.425   4.499
59389W        W31814   1.417  37.906   3.347
59390W        W31815  35.490  18.679   4.582
59391W        W31816  29.681   5.893  13.465
59392W        W31817   4.822  31.962  14.000
59393W        W31818  44.103  44.495  12.423
59394W        W31819  11.232  32.228  14.440
59395W        W31820  24.062  39.172   0.933
59396W        W31821  30.110  42.101   4.397
59397W        W31822  44.514  15.848   3.793
59398W        W31823  11.859  39.768  11.931
59399W        W31824  14.678  24.262  14.936
59400W        W31825  41.093  38.771  12.444
59401W        W31826  25.857  31.998  12.997
59402W        W31827  21.065  13.243   4.770
59403W        W31828  20.563   4.334  12.373
59404W        W31829  32.359  31.205   3.285
59405W        W31830  27.028  22.378  13.654
59406W        W31831  21.434  15.226   0.292
59407W        W31832  34.142  34.208   4.071
59408W        W31833   1.749   4.382  14.273
59409W        W31834  12.763  15.634   3.313
59410W        W31835  24.706  27.130   1.293
59411W        W31836   5.790  34.075   2.297
59412W        W31837   5.417  22.674  11.673
59413W        W31838   7.295  23.803  13.072
59414W        W31839  10.421  17.678  12.494
59415W        W31840  40.516   7.276   0.794
59416W        W31841  43.856   5.432  13.235
59417W        W31842  21.436   8.928  10.106
59418W        W31843  36.992   0.939   4.292
59419W        W31844  28.090  29.453   0.787
59420W        W31845  25.673  40.879  11.175
59421W        W31846  44.847  28.356  12.951
59422W        W31847  10.098  44.410   0.342
59423W        W31848   7.083   4.422  13.961
59424W        W31849  30.502  23.986   1.406
59425W        W31850  43.773  28.812  13.138
59426W        W31851  15.574  42.560   4.271
59427W        W31852  34.139  29.212   4.057
59428W        W31853   8.202  18.713   4.593
59429W        W31854  25.012  38.020  12.546
59430W        W31855   2.531   8.915   1.248
59431W        W31856  22.422   4.326  14.763
59432W        W31857   5.374  36.216   3.062
59433W        W31858  16.516  42.835   0.207
59434W        W31859  38.244   0.492   0.797
59435W        W31860   0.434   1.676   0.214
59436W        W31861  41.288  33.430   3.718
59437W        W31862  21.029  18.079  11.537
59438W        W31863  38.475  38.570   0.407
59439W        W31864  28.619   0.488   1.736
59440W        W31865  20.638  11.474  10.129
59441W        W31866  42.572  33.989   1.848
59442W        W31867   6.291  11.174   3.611
59443W        W31868  19.982  28.981  11.506
59444W        W31869  25.716  37.099  14.323
59445W        W31870   4.975  13.856   3.550
59446W        W31871  10.383  34.824   2.831
59447W        W31872   0.664  35.097   5.068
59448W        W31873  30.752  22.545  10.591
59449W        W31874  42.231  33.566   2.776
59450W        W31875  11.082  34.432   0.750
59451W        W31876  38.992  41.465   3.293
59452W        W31877  20.657   6.687  12.426
59453W        W31878   4.422  44.346  13.306
59454W        W31879  38.538  11.421   2.770
59455W        W31880  16.642  33.496   1.166
59456W        W31881  36.143  41.862   3.558
59457W        W31882  25.163  35.950   5.126
59458W        W31883  27.414  40.539   3.383
59459W        W31884   5.391  17.563   3.755
59460W        W31885  39.977   0.477  13.469
59461W        W31886  13.591  20.743  11.443
59462W        W31887  41.524  28.585  11.253
59463W        W31888  39.783   1.296   4.439
59464W        W31889  27.084  28.973   0.386
59465W        W31890  32.451   0.744  11.580
59466W        W31891  20.200  37.623  14.451
59467W        W31892  25.669  36.769  11.146
59468W        W31893  20.080   1.924  14.875
59469W        W31894  17.351  29.434  12.432
59470W        W31895  41.039   6.189   2.282
59471W        W31896  18.107   3.901  14.357
59472W        W31897   2.216  16.174   0.933
59473W        W31898  36.961  33.299  14.488
59474W        W31899  19.225  30.026  10.654
59475W        W31900  13.545  44.424   0.014
59476W        W31901  26.236  29.702  14.740
59477W        W31902   6.809  15.185   1.031
59478W        W31903   4.224  16.864   2.232
59479W        W31904  36.997  32.602   4.190
59480W        W31905  11.662  30.991   4.803
59481W        W31906  14.648  25.281  14.683
59482W        W31907  23.771  21.181  11.565
59483W        W31908  42.831  38.389   4.639
59484W        W31909  39.041  22.795  13.510
59485W        W31910  37.060  42.976  13.608
59486W        W31911  17.912  19.075   2.158
59487W        W31912  40.473  43.303  13.706
59488W        W31913  38.451  34.472  14.818
59489W        W31914   3.218  25.719  12.569
59490W        W31915  37.286  39.613   3.983
59491W        W31916   7.635  37.610  12.369
59492W        W31917  16.324  37.345   1.404
59493W        W31918  10.746   0.412   4.669
59494W        W31919   1.239   4.281   3.222
59495W        W31920  42.849  17.945   2.329
59496W        W31921  12.072  20.349  11.584
59497W        W31922  34.967  25.652  13.561
59498W        W31923   8.939  11.284  10.491
59499W        W31924  24.408  11.358   4.233
59500W        W31925   7.477   6.863   0.677
59501W        W31926  16.116   2.849   1.723
59502W        W31927   9.115  34.068  11.405
59503W        W31928   6.914  31.089  13.897
59504W        W31929   2.833  38.377   1.939
59505W        W31930  32.858  17.462   1.972
59506W        W31931  18.962   3.752  11.911
59507W        W31932   4.373  12.606  12.382
59508W        W31933  24.157  29.308   3.786
59509W        W31934  12.139  27.736   2.339
59510W        W31935  31.953  44.384  10.570
59511W        W31936  43.015  32.477  14.701
59512W        W31937   3.828  11.829   0.789
59513W        W31938  28.309  29.565  10.681
59514W        W31939  28.057   1.836  10.442
59515W        W31940  19.201  32.574  10.664
59516W        W31941  38.380  44.667   2.249
59517W        W31942  40.034  35.699   1.735
59518W        W31943   4.465   0.817   0.747
59519W        W31944  39.493   3.392  14.527
59520W        W31945  16.666  44.293   0.904
59521W        W31946  39.028   3.313  14.743
59522W        W31947   2.419   9.260  11.704
59523W        W31948  16.455  16.739   4.500
59524W        W31949  11.154   3.699  12.564
59525W        W31950  11.858  38.535  14.384
59526W        W31951  16.011  36.291   1.269
59527W        W31952   0.424   0.021   1.775
59528W        W31953  37.956  13.158  10.530
59529W        W31954  15.284  32.647  11.406
59530W        W31955  28.241  22.495  12.007
59531W        W31956  12.709   9.670  12.433
59532W        W31957  13.758  15.891   4.751
59533W        W31958  11.323  15.877  11.210
59534W        W31959  36.692   5.108   4.583
59535W        W31960  16.616  38.121   0.981
59536W        W31961  19.302  20.703  14.583
59537W        W31962  13.652  41.078   2.789
59538W        W31963   7.153  29.119  13.395
59539W        W31964  18.176  14.115   1.028
59540W        W31965  19.742  24.457  11.658
59541W        W31966  19.591  35.495   4.119
59542W        W31967  27.547  28.768   2.453
59543W        W31968   9.277  42.938   2.233
59544W        W31969  30.358   1.812   2.719
59545W        W31970  29.701  29.501  11.620
59546W        W31971   2.048  34.096  10.324
59547W        W31972  17.211  32.421   1.452
59548W        W31973  21.145  20.995   3.104
59549W        W31974  30.929  12.411   0.863
59550W        W31975  34.066   6.204   4.685
59551W        W31976  10.185  29.253   2.777
59552W        W31977  16.206  27.639   0.524
59553W        W31978  11.723   1.722  12.983
59554W        W31979  18.180  34.619  11.751
59555W        W31980  44.770  38.151   0.788
59556W        W31981  36.057  41.262   1.828
59557W        W31982  17.567   0.996  10.796
59558W        W31983  33.446  36.026  11.230
59559W        W31984   5.197  43.169  12.151
59560W        W31985  22.058  23.279   3.726
59561W        W31986  17.161   0.767   4.141
59562W        W31987  13.187  17.839  12.896
59563W        W31988  21.505  11.671  11.409
59564W        W31989   5.184  43.861   1.804
59565W        W31990  43.323  10.204   3.308
59566W        W31991  10.673  30.599  10.659
59567W        W31992  34.917  30.485   0.535
59568W        W31993  24.286  19.408  11.986
59569W        W31994  29.736  26.887   1.236
59570W        W31995  25.051  41.383  11.721
59571W        W31996   2.753  26.928   1.209
59572W        W31997  24.769  31.946   3.794
59573W        W31998  25.917  40.907  12.920
59574W        W31999  37.662  39.286  11.637
59575W        W32000   9.721  41.575  10.357
59576W        W32001  38.084  10.917   1.780
59577W        W32002  31.382  34.965   3.688
59578W        W32003   7.692   9.210   1.734
59579W        W32004  35.616  27.091  13.854
59580W        W32005  10.631   1.542  12.501
59581W        W32006  32.590  26.425  14.693
59582W        W32007  16.888   0.294   1.237
59583W        W32008  19.901  35.336   4.525
59584W        W32009  36.586  37.413  13.498
59585W        W32010  20.018  20.573  14.104
59586W        W32011  43.815   1.021  12.800
59587W        W32012  44.995   4.483  12.624
59588W        W32013  22.627  39.127   0.331
59589W        W32014  19.631  33.783   2.226
59590W        W32015  40.847   0.890  14.768
59591W        W32016  17.213  25.730   3.777
59592W        W32017  43.303  42.531   2.351
59593W        W32018  19.065  26.012  14.025
59594W        W32019  40.357  29.332  14.282
59595W        W32020  17.793   1.625  12.655
59596W        W32021  37.375  13.294   2.861
59597W        W32022  10.336  26.198   2.309
59598W        W32023  17.663   2.847  11.480
59599W        W32024   4.654  21.204   2.747
59600W        W32025  16.928  36.398  13.507
59601W        W32026  29.567  15.589   1.986
59602W        W32027  17.371  24.818   3.175
59603W        W32028  11.771  42.914  10.568
59604W        W32029  22.186  37.151   2.894
59605W        W32030  41.930  24.345   0.892
59606W        W32031   4.242   0.884  14.332
59607W        W32032  27.196  13.876  12.085
59608W        W32033  19.605   2.870  10.648
59609W        W32034  38.060   2.863   1.833
59610W        W32035  18.643   0.447  12.631
59611W        W32036   0.418  21.334  14.327
59612W        W32037  18.685  23.037  13.015
59613W        W32038  41.302  22.064   4.265
59614W        W32039  42.185  42.109  12.539
59615W        W32040  43.883   3.425  14.156
59616W        W32041  36.154  22.728   3.190
59617W        W32042  21.071  25.941  14.051
59618W        W32043   9.186  42.764   0.325
59619W        W32044  39.824  39.398  12.541
59620W        W32045  42.733   4.495   3.224
59621W        W32046  11.288  38.498  13.390
59622W        W32047  18.221  26.067  14.480
59623W        W32048  10.024  43.419  11.089
59624W        W32049  31.515  28.985  12.177
59625W        W32050  21.200  26.244  14.935
59626W        W32051  44.555  20.584   2.354
59627W        W32052  38.323  39.493  12.382
59628W        W32053  23.633   8.497  12.653
59629W        W32054  27.287   0.272   1.764
59630W        W32055  19.482   0.519  12.954
59631W        W32056   8.135  41.372   0.719
59632W        W32057  20.693  20.541   2.329
59633W        W32058  31.695   4.725   3.659
59634W        W32059  28.089  25.239  14.522
59635W        W32060  42.297  35.372  10.565
59636W        W32061   7.408  11.794   1.620
59637W        W32062  28.048  32.411  10.015
59638W        W32063  19.128   5.939   0.485
59639W        W32064  22.038   9.851   1.386
59640W        W32065   3.966  11.291  10.629
59641W        W32066   9.384  25.115   3.488
59642W        W32067  35.365  34.001   4.842
59643W        W32068  26.500  21.638   3.139
59644W        W32069   3.157   7.834   2.805
59645W        W32070  31.965  32.748   0.673
59646W        W32071  38.512  36.295   1.686
59647W        W32072  36.793  18.653  13.136
59648W        W32073  37.421  25.674  12.281
59649W        W32074  27.041  43.272  11.146
59650W        W32075  15.330  17.610   0.403
59651W        W32076  27.977  23.567  10.739
59652W        W32077  43.490  29.440  14.212
59653W        W32078  20.674  14.158   0.697
59654W        W32079  17.221  37.137   3.227
59655W        W32080  43.384  35.092  12.409
59656W        W32081  20.198  32.642  11.575
59657W        W32082  16.593  22.710   2.681
59658W        W32083   9.829  16.122  13.660
59659W        W32084  10.705  37.335   2.162
59660W        W32085  21.671  20.053  14.461
59661W        W32086  15.102   9.742   2.798
59662W        W32087  21.530   9.220   1.767
59663W        W32088  18.431  36.014  12.985
59664W        W32089   6.230  25.165   3.683
59665W        W32090  16.125  43.322   2.366
59666W        W32091  30.461   1.387  11.536
59667W        W32092  28.680  20.375  12.342
59668W        W32093  13.280  36.545  12.780
59669W        W32094  22.819   4.423  13.370
59670W        W32095  12.603  10.191   4.305
59671W        W32096  11.675   5.080  12.618
59672W        W32097  30.680  21.663  13.100
59673W        W32098  11.902  14.320   3.174
59674W        W32099  39.915  22.058   1.319
59675W        W32100  38.053  26.892  14.589
59676W        W32101   6.863   0.934   4.046
59677W        W32102   2.962  28.606  10.636
59678W        W32103   9.308   6.455  13.892
59679W        W32104  17.857  17.536  14.453
59680W        W32105  24.210  29.211  13.465
59681W        W32106  37.738  28.129   5.103
59682W        W32107  14.143   6.291   0.174
59683W        W32108   0.280  38.537  14.129
59684W        W32109  35.925  37.164   5.089
59685W        W32110  14.020  23.221   2.270
59686W        W32111  38.728   2.223   3.673
59687W        W32112  18.135  26.028   4.178
59688W        W32113  29.467   4.977  10.833
59689W        W32114  14.088  38.596   1.290
59690W        W32115  14.650  43.362  14.042
59691W        W32116  29.387  29.081  13.949
59692W        W32117  16.139  24.026  10.989
59693W        W32118  15.800  42.052   1.307
59694W        W32119  25.011  39.312   2.288
59695W        W32120  26.978  23.051   2.046
59696W        W32121  20.639  24.992   4.502
59697W        W32122  29.233   3.384   2.683
59698W        W32123  32.081  21.682  11.964
59699W        W32124  38.055  37.761   0.427
59700W        W32125  13.233   1.048  14.000
59701W        W32126   1.218   3.307   1.235
59702W        W32127   3.331  24.750   3.862
59703W        W32128  20.048  16.190  14.135
59704W        W32129   7.625  31.197  13.451
59705W        W32130  20.283  36.660   1.818
59706W        W32131  23.601  32.567   4.239
59707W        W32132   0.393  22.165  13.585
59708W        W32133   3.254   3.690   2.763
59709W        W32134  26.702   9.674  12.085
59710W        W32135  35.749   3.128  14.961
59711W        W32136  42.329  17.236   3.806
59712W        W32137  35.802  31.916   4.664
59713W        W32138  29.337   7.149  11.133
59714W        W32139   3.558  42.949  10.684
59715W        W32140  21.353   9.811   4.619
59716W        W32141  20.828   7.487   3.153
59717W        W32142   0.086  25.367  11.111
59718W        W32143  43.921   9.170  14.744
59719W        W32144  22.792  28.452  14.986
59720W        W32145  10.843  38.590   2.622
59721W        W32146  26.034  21.989  11.621
59722W        W32147  35.778  27.979  13.505
59723W        W32148   7.593  44.346  10.298
59724W        W32149  36.512  37.347  11.701
59725W        W32150  16.513  23.069  12.143
59726W        W32151   4.390  21.222   0.932
59727W        W32152  30.540  33.780   3.249
59728W        W32153  27.164  15.963   2.953
59729W        W32154  35.637   6.006  11.704
59730W        W32155  24.109  30.234  13.015
59731W        W32156  15.105  12.086   3.258
59732W        W32157  18.079  41.503   4.526
59733W        W32158   2.447  40.773   4.498
59734W        W32159  27.754  12.224  12.479
59735W        W32160  17.187  33.875  10.680
59736W        W32161  18.811  22.792   1.340
59737W        W32162  39.929  34.742   1.790
59738W        W32163  33.430  24.388  12.338
59739W        W32164  16.572  22.594  10.692
59740W        W32165  37.391  42.632  13.813
59741W        W32166  27.573  26.992  14.816
59742W        W32167  40.164  35.511   3.009
59743W        W32168  16.243   1.376   4.191
59744W        W32169  31.820  18.569  10.713
59745W        W32170  34.676  33.100  12.209
59746W        W32171  19.168   7.506  12.533
59747W        W32172  23.761  15.397  13.173
59748W        W32173  32.081  27.005   0.125
59749W        W32174   7.414  25.421   4.167
59750W        W32175  10.408  21.060   3.396
59751W        W32176  31.104   1.505   3.190
59752W        W32177  38.174  40.512  14.561
59753W        W32178  25.125  44.764  13.340
59754W        W32179   3.689  22.963  12.490
59755W        W32180  15.360  37.024  13.167
59756W        W32181  35.521  32.562   4.211
59757W        W32182  20.730  19.084  13.539
59758W        W32183  43.827  35.338  14.027
59759W        W32184  38.310  20.617   0.282
59760W        W32185  26.200  10.846  14.564
59761W        W32186  29.087  12.110   2.768
59762W        W32187  27.028  26.185   2.339
59763W        W32188  31.992  29.082  11.715
59764W        W32189  31.068  16.842  13.283
59765W        W32190  19.652  10.704  13.936
59766W        W32191  33.893  11.927   2.234
59767W        W32192  15.121  33.385   0.016
59768W        W32193  25.790  14.738   2.425
59769W        W32194  27.065  11.111   0.006
59770W        W32195  33.593  44.965  13.952
59771W        W32196   3.408  10.289  13.961
59772W        W32197  15.782  40.098  10.584
59773W        W32198  33.939  34.477  13.630
59774W        W32199  23.105   2.873  14.304
59775W        W32200  21.136  33.100   1.792
59776W        W32201  25.478   6.670  14.760
59777W        W32202  42.883   8.969  13.412
59778W        W32203   5.760  38.527   0.365
59779W        W32204  28.281  11.715   4.081
59780W        W32205  42.751  43.373  11.033
59781W        W32206  19.675  15.039  12.994
59782W        W32207  24.792  20.796  11.073
59783W        W32208  23.933  39.678   0.967
59784W        W32209   5.230  27.878  12.891
59785W        W32210  11.214  11.344  13.406
59786W        W32211  10.234   1.147   2.876
59787W        W32212  40.802  11.054  11.104
59788W        W32213  12.597  38.408   3.178
59789W        W32214  30.982   6.426   3.513
59790W        W32215  10.425  17.262   0.382
59791W        W32216  27.693  31.101  13.517
59792W        W32217  22.253   2.444  13.019
59793W        W32218  27.865  19.145   1.556
59794W        W32219   0.297  40.137  14.361
59795W        W32220   2.419  30.660  13.391
59796W        W32221  11.796  18.407  12.447
59797W        W32222  41.497  36.848  14.825
59798W        W32223  39.543  17.340  14.429
59799W        W32224  28.148  40.330   1.910
59800W        W32225  14.606   1.480   4.100
59801W        W32226  15.968  28.073   0.368
59802W        W32227   1.885  37.601  10.316
59803W        W32228  30.465  31.895   3.677
59804W        W32229  44.743  25.446   2.396
59805W        W32230  36.874  30.136  11.926
59806W        W32231  41.767  14.866   0.412
59807W        W32232  39.920  36.529  12.040
59808W        W32233  34.819   5.862  13.740
59809W        W32234  36.099  36.163  14.862
59810W        W32235   2.951  37.006  10.590
59811W        W32236  33.132  42.305   2.738
59812W        W32237  37.427  39.593  12.573
59813W        W32238  16.617  41.807   4.695
59814W        W32239  31.037   3.215   1.193
59815W        W32240  16.183  38.545  14.875
59816W        W32241  21.557  19.648   2.396
59817W        W32242  42.465   5.945   4.118
59818W        W32243  41.214   4.631   5.241
59819W        W32244  36.949  20.550   0.106
59820W        W32245  12.638  29.687  14.047
59821W        W32246  13.475  40.360   4.542
59822W        W32247  11.299  32.600   4.076
59823W        W32248  31.604  33.507   1.747
59824W        W32249   1.199   5.130   1.239
59825W        W32250  10.630  39.370   1.752
59826W        W32251   9.194  15.671   0.533
59827W        W32252  40.485  30.637  13.314
59828W        W32253  39.511  30.465   0.719
59829W        W32254   9.923  35.968  11.882
59830W        W32255   2.763  11.233  11.471
59831W        W32256  14.645   1.819   2.849
59832W        W32257   7.937  14.429   3.779
59833W        W32258  19.584  36.509   4.129
59834W        W32259  23.788   9.627  13.432
59835W        W32260  16.305  22.646   4.933
59836W        W32261  23.499  27.189  12.076
59837W        W32262   0.307  11.582   3.283
59838W        W32263  22.632  32.135  12.897
59839W        W32264  32.140  42.096  13.871
59840W        W32265  32.339  26.975   4.551
59841W        W32266   9.715   6.799  13.965
59842W        W32267  21.037  24.307  12.443
59843W        W32268  38.420  11.293  10.600
59844W        W32269  29.687   1.062   4.143
59845W        W32270  37.065  26.864  14.975
59846W        W32271  33.484   9.583   3.122
59847W        W32272  41.351  41.948   3.185
59848W        W32273  10.265  20.329  14.549
59849W        W32274  27.986   2.102   4.541
59850W        W32275  27.405   9.793  11.529
59851W        W32276  29.738   2.977   2.888
59852W        W32277  34.898  44.460  10.198
59853W        W32278  39.890  25.579  13.112
59854W        W32279   3.850  20.702  11.926
59855W        W32280  33.130   3.466   5.025
59856W        W32281  40.863  41.576   4.507
59857W        W32282  36.565  26.321   2.409
59858W        W32283   2.439  32.877   3.788
59859W        W32284   0.867  25.773  13.366
59860W        W32285  41.527  28.281   2.291
59861W        W32286  28.471  15.163  14.577
59862W        W32287  25.057  33.188  12.376
59863W        W32288  18.663   4.295   0.961
59864W        W32289  35.350  26.172   4.223
59865W        W32290   7.139   8.580   1.444
59866W        W32291   3.494  35.623   4.353
59867W        W32292  23.015  31.349   1.304
59868W        W32293  31.564  43.868   1.792
59869W        W32294  17.848  27.375  14.383
59870W        W32295  25.107  11.622  11.154
59871W        W32296  18.321   4.404   3.566
59872W        W32297  14.389  20.140   3.762
59873W        W32298  16.068  43.427  14.386
59874W        W32299  35.901  16.861   2.644
59875W        W32300  42.972  37.424  12.512
59876W        W32301  42.282  19.234   1.926
59877W        W32302  15.858  24.614  13.083
59878W        W32303  17.512  14.527   0.936
59879W        W32304  28.929  11.937   3.358
59880W        W32305  16.773   4.451   1.660
59881W        W32306  38.097  27.122   2.391
59882W        W32307  22.238  28.559   5.073
59883W        W32308  11.624   1.253   0.823
59884W        W32309   3.964   7.846  13.874
59885W        W32310  16.550  34.569  10.551
59886W        W32311  29.166   9.373   4.175
59887W        W32312   3.319  25.611   0.051
59888W        W32313  14.501   4.956  11.122
59889W        W32314  32.725  27.554   4.144
59890W        W32315  16.414  39.471   2.728
59891W        W32316  42.802  28.916  14.050
59892W        W32317  43.313  16.323  14.455
59893W        W32318   4.539  16.710   4.585
59894W        W32319  16.130   3.171   0.034
59895W        W32320  16.809  24.527  12.849
59896W        W32321  10.858  30.507   1.890
59897W        W32322  15.677   8.874  11.137
59898W        W32323  43.579  25.551  12.963
59899W        W32324  30.650  28.697   0.343
59900W        W32325  29.642   6.957   1.237
59901W        W32326  41.401  29.034  12.357
59902W        W32327  39.320  30.629  13.008
59903W        W32328  31.495   1.802  11.415
59904W        W32329  43.663  18.334   2.448
59905W        W32330   4.341  24.795  14.848
59906W        W32331  15.090   3.505  10.049
59907W        W32332  30.955   0.515  12.987
59908W        W32333  12.875  11.781  10.734
59909W        W32334   5.722  31.909   4.277
59910W        W32335  35.981  32.379   2.976
59911W        W32336  23.171  14.815   3.214
59912W        W32337   7.231  16.717   2.419
59913W        W32338   5.455   2.249  10.649
59914W        W32339  17.818  15.742  14.254
59915W        W32340  38.560  31.449  13.662
59916W        W32341   7.736   3.032  14.834
59917W        W32342  33.564   1.784  12.508
59918W        W32343  27.116   3.776  12.627
59919W        W32344   1.808   3.824   2.056
59920W        W32345   3.286  35.599  12.396
59921W        W32346  33.428  40.187  14.521
59922W        W32347   6.443  11.760   1.791
59923W        W32348   4.258  38.036  13.390
59924W        W32349  40.795  28.023   2.733
59925W        W32350  20.849  21.299  10.098
59926W        W32351  20.080  11.378   0.564
59927W        W32352  24.103  22.031   2.842
59928W        W32353  29.452   8.637  12.695
59929W        W32354  41.394   0.297   1.771
59930W        W32355  27.970  20.945   4.538
59931W        W32356  33.680  37.133  13.201
59932W        W32357   4.427  42.803  12.449
59933W        W32358  27.485   9.366   0.293
59934W        W32359  24.068  16.392  14.242
59935W        W32360  23.887  35.082  14.725
59936W        W32361   6.190   6.658  12.038
59937W        W32362  15.706  12.636  12.555
59938W        W32363  43.344  27.230   0.904
59939W        W32364   9.334  10.160  12.078
59940W        W32365  37.504  27.629   3.604
59941W        W32366   4.086  38.984  11.937
59942W        W32367   2.667   6.891  14.078
59943W        W32368  32.854   0.743   3.117
59944W        W32369  21.229   5.488   1.995
59945W        W32370  12.787   6.609   2.703
59946W        W32371  44.984   5.251   1.717
59947W        W32372  37.043  27.704  12.582
59948W        W32373  15.947  42.607  11.014
59949W        W32374  40.400  28.464   3.875
59950W        W32375  18.202   4.242   1.176
59951W        W32376  32.897  15.749  12.906
59952W        W32377   5.986  10.651   1.442
59953W        W32378   9.305   5.761   1.342
59954W        W32379  13.803  22.076  14.378
59955W        W32380  11.363  29.516  10.344
59956W        W32381  44.884  20.235   3.116
59957W        W32382  13.628  29.391   4.512
59958W        W32383  15.720  43.774  13.369
59959W        W32384  11.602  39.416   3.329
59960W        W32385  27.469  22.789  14.428
59961W        W32386  32.191   3.385   4.769
59962W        W32387  30.027  18.473   3.433
59963W        W32388  13.803  14.920  10.699
59964W        W32389  42.491   4.729  14.954
59965W        W32390  16.865   8.237  14.449
59966W        W32391  29.583   0.360   3.629
59967W        W32392  36.272   7.404   9.914
59968W        W32393  38.485   1.309   1.337
59969W        W32394  10.571  41.369   4.030
59970W        W32395  20.699   1.735   2.785
59971W        W32396  30.210  21.521   3.660
59972W        W32397  11.732  35.835   0.687
59973W        W32398  18.994  16.523  13.777
59974W        W32399  40.303   1.272  11.985
59975W        W32400  33.140  19.282   2.855
59976W        W32401   4.240  43.913  13.052
59977W        W32402   4.004  40.116   3.323
59978W        W32403  36.616  31.926  12.086
59979W        W32404  42.211   2.841  13.099
59980W        W32405  40.738   7.848   0.444
59981W        W32406  40.456   4.006   1.912
59982W        W32407   1.592  11.602   1.340
59983W        W32408  42.084   1.781  10.270
59984W        W32409  36.867  30.555   1.662
59985W        W32410  27.428  40.934  14.326
59986W        W32411  32.685  41.464   2.385
59987W        W32412  37.948  40.934   1.249
59988W        W32413   6.119  12.208  14.500
59989W        W32414  23.152  10.679  11.470
59990W        W32415  33.326  33.808  13.326
59991W        W32416  34.307  23.624  12.672
59992W        W32417  42.564  22.025   3.762
59993W        W32418  10.027  33.506   0.859
59994W        W32419   0.292  19.738  11.683
59995W        W32420   6.392  14.979   2.723
59996W        W32421  22.586   2.726  12.614
59997W        W32422  15.363  33.927   3.058
59998W        W32423  13.222  16.756   3.735
59999W        W32424   6.838  15.585   4.641
60000W        W32425  36.464  41.922   1.723
60001W        W32426  21.098  26.571   4.134
60002W        W32427  32.160   7.232  11.629
60003W        W32428  24.425   3.789   1.018
60004W        W32429  28.646  25.511  14.245
60005W        W32430  28.994  10.261  10.135
60006W        W32431  44.858  12.830   4.669
60007W        W32432   0.482  14.591  14.853
60008W        W32433  36.299   3.961   3.032
60009W        W32434   6.736   2.256  11.199
60010W        W32435  11.879   8.688  14.766
60011W        W32436   0.459  36.395  14.321
60012W        W32437  40.919  41.438   5.041
60013W        W32438  34.108   5.788  14.783
60014W        W32439  31.421  32.029   4.685
60015W        W32440  11.809   2.419   4.566
60016W        W32441  18.089  24.076   1.769
60017W        W32442  13.588  40.965   3.634
60018W        W32443   7.644   4.738   3.138
60019W        W32444  20.948   6.431   4.135
60020W        W32445  25.600  32.656   1.425
60021W        W32446  36.464   1.781  12.440
60022W        W32447  17.503  17.073  13.276
60023W        W32448   0.214  39.371   1.369
60024W        W32449  15.758  28.338  14.955
60025W        W32450   9.787  23.436  11.612
60026W        W32451  24.894   9.605   1.241
60027W        W32452  43.547  20.693   3.346
60028W        W32453  24.072   2.755   3.385
60029W        W32454  16.345  31.551  11.659
60030W        W32455  32.132   2.784   0.454
60031W        W32456  36.618   9.690   0.890
60032W        W32457   4.319  41.931  13.466
60033W        W32458  17.258  44.749   0.777
60034W        W32459  36.611  30.328   3.312
60035W        W32460   3.040  15.179   0.452
60036W        W32461  17.070   7.720   2.641
60037W        W32462  18.026  39.951  14.911
60038W        W32463  24.027   6.255   4.068
60039W        W32464  21.555  19.136  11.563
60040W        W32465  26.418  32.363  12.116
60041W        W32466  27.911  21.786   5.421
60042W        W32467   4.091  16.376   2.127
60043W        W32468  15.094  17.699  10.451
60044W        W32469  28.432  40.444  13.033
60045W        W32470  20.200   3.736  14.940
60046W        W32471  28.189   0.339  12.550
60047W        W32472   6.014  34.557  13.943
60048W        W32473  39.943  44.309  13.053
60049W        W32474   6.786   1.430   4.254
60050W        W32475  13.303   8.308  10.724
60051W        W32476  28.981   5.776  10.631
60052W        W32477  12.771  40.128  10.478
60053W        W32478   9.252  10.066   1.295
60054W        W32479  29.912  26.431   4.980
60055W        W32480  12.905   3.287  12.491
60056W        W32481   9.793  12.688   2.702
60057W        W32482  27.931  16.328   3.079
60058W        W32483  11.158  37.811  14.572
60059W        W32484  19.669  10.649   4.620
60060W        W32485  36.929  17.816  12.196
60061W        W32486  24.317  12.787   4.482
60062W        W32487   4.966  19.229   2.768
60063W        W32488  17.537  13.792  14.378
60064W        W32489  11.258   0.883   2.800
60065W        W32490  12.095   1.627   1.877
60066W        W32491   4.451  23.474  11.985
60067W        W32492   9.578   6.841  11.356
60068W        W32493  34.596  16.036   1.911
60069W        W32494  14.509  22.420  11.533
60070W        W32495  19.672  13.392   4.296
60071W        W32496   3.201  24.250  12.032
60072W        W32497  32.112   0.483  12.551
60073W        W32498  19.730   0.934   3.168
60074W        W32499  38.900  37.822   0.256
60075W        W32500   0.756   2.946   3.557
60076W        W32501   2.658   8.665  14.896
60077W        W32502  17.016   7.454  10.962
60078W        W32503  33.091  36.453   0.099
60079W        W32504   4.222  28.559   3.760
60080W        W32505  27.743  41.628   4.574
60081W        W32506   9.827  31.622   3.385
60082W        W32507   3.779  14.616   2.211
60083W        W32508  33.255   7.902   1.389
60084W        W32509  15.967  29.652  12.973
60085W        W32510  36.055  38.743   2.333
60086W        W32511  28.517  38.807   2.872
60087W        W32512  26.378  24.071  11.942
60088W        W32513  11.640  14.503  10.192
60089W        W32514  32.748  17.332   4.622
60090W        W32515   3.771  36.441   4.655
60091W        W32516  42.330  31.374   4.338
60092W        W32517  37.036   5.692   3.217
60093W        W32518  26.047  28.604  14.926
60094W        W32519  29.714  15.936  12.106
60095W        W32520  42.027   5.702  14.901
60096W        W32521  23.255  30.235  11.083
60097W        W32522  12.635  15.610   2.468
60098W        W32523  17.044  14.261  10.221
60099W        W32524  24.522  39.416   1.830
60100W        W32525  15.792  16.823   0.899
60101W        W32526  44.971  41.522  11.530
60102W        W32527  34.105  33.476   2.791
60103W        W32528  25.675  25.525  12.564
60104W        W32529  11.147  19.689   1.342
60105W        W32530  43.320   6.147  11.119
60106W        W32531  13.724  29.933   3.752
60107W        W32532  11.631  44.005   3.718
60108W        W32533  27.459  26.137   3.312
60109W        W32534  23.736   5.357  11.986
60110W        W32535  29.158  23.460  13.073
60111W        W32536  13.659  38.554   2.083
60112W        W32537  41.951  40.745  11.607
60113W        W32538  29.101  26.646  11.034
60114W        W32539  37.664   2.501   5.054
60115W        W32540  34.383  39.268  14.690
60116W        W32541   0.312   6.399   4.192
60117W        W32542   7.740  38.930  14.934
60118W        W32543  36.967  11.109  12.647
60119W        W32544  10.166  32.671   2.893
60120W        W32545   7.874  25.439  11.168
60121W        W32546  29.931  40.955   2.644
60122W        W32547  22.800  26.103   0.335
60123W        W32548  32.969   8.698   3.378
60124W        W32549  24.078  44.008  11.225
60125W        W32550   1.771  13.805   2.909
60126W        W32551  20.544  41.939  14.584
60127W        W32552   7.682  12.308   3.332
60128W        W32553  24.089  22.108  11.444
60129W        W32554  36.987  37.053   3.176
60130W        W32555  42.952  18.163   0.340
60131W        W32556  32.126  23.701   4.578
60132W        W32557  27.528  30.691   1.139
60133W        W32558  38.003   5.116  11.518
60134W        W32559  16.576  43.795   0.930
60135W        W32560  13.220   6.661  12.011
60136W        W32561  25.946  36.014  12.601
60137W        W32562  17.851  36.909   3.086
60138W        W32563  33.280  27.676  13.484
60139W        W32564  20.483  39.846   1.979
60140W        W32565  26.660  32.038   4.149
60141W        W32566  35.046   5.817   5.015
60142W        W32567   7.685  40.542  13.997
60143W        W32568  22.219  33.964   1.353
60144W        W32569  33.946   4.819  13.441
60145W        W32570  44.125  27.160   0.466
60146W        W32571   9.848   7.230  12.472
60147W        W32572  29.639  38.883  12.963
60148W        W32573  29.338   1.594   2.699
60149W        W32574   0.237  42.848   2.265
60150W        W32575  22.689  19.259  14.848
60151W        W32576  23.178   5.658   3.847
60152W        W32577  39.773  29.090  12.890
60153W        W32578  36.422  30.229   2.383
60154W        W32579  39.735  32.373  14.015
60155W        W32580  37.563  36.375  10.560
60156W        W32581  28.260   9.297  12.094
60157W        W32582  44.377   2.894  12.113
60158W        W32583   3.779  42.972  10.209
60159W        W32584  26.190   4.260  11.172
60160W        W32585  43.902  16.151  11.704
60161W        W32586  31.028  40.299   1.605
60162W        W32587   3.686  40.026   1.231
60163W        W32588  32.871  10.405   3.147
60164W        W32589  18.129  18.347   1.488
60165W        W32590   7.694  32.114   3.664
60166W        W32591  34.431  44.383  11.146
60167W        W32592  42.599  30.657   3.302
60168W        W32593  27.152  14.388  12.968
60169W        W32594   1.366   4.609   4.782
60170W        W32595   9.263  41.972  11.880
60171W        W32596  30.911  14.190  12.195
60172W        W32597  26.682   6.308   1.662
60173W        W32598  34.060  28.712   1.161
60174W        W32599  12.382  26.726   4.467
60175W        W32600  37.791   8.593   9.663
60176W        W32601  18.157  34.115  14.532
60177W        W32602  24.093  22.538   1.725
60178W        W32603   4.298  10.146   3.972
60179W        W32604  10.088  10.358  10.467
60180W        W32605  19.404  31.589   0.697
60181W        W32606  44.280  29.965  11.267
60182W        W32607  24.975  20.486  13.936
60183W        W32608  29.191  10.884   3.830
60184W        W32609   4.719  20.227  10.485
60185W        W32610  22.474   2.923   1.734
60186W        W32611  16.638  41.068   1.164
60187W        W32612  36.288  43.753   0.176
60188W        W32613  35.493  34.335  13.015
60189W        W32614  30.697  33.964  13.644
60190W        W32615  32.988  23.749  13.823
60191W        W32616  16.575  10.523   3.737
60192W        W32617   9.573  21.076   5.126
60193W        W32618  43.733  24.069  11.111
60194W        W32619  39.917  28.086   0.880
60195W        W32620   9.332  41.602   4.426
60196W        W32621  22.831  21.741   1.962
60197W        W32622   0.480  13.450  13.864
60198W        W32623   0.807  15.892  12.600
60199W        W32624   8.925  35.565  13.400
60200W        W32625  42.827   5.396   4.960
60201W        W32626  11.751  15.313   3.772
60202W        W32627  29.571  28.076  14.593
60203W        W32628  21.175  39.414  12.551
60204W        W32629  25.472  37.365  11.613
60205W        W32630  20.185  42.013   3.357
60206W        W32631  39.386  20.775  11.972
60207W        W32632   3.943   2.425   1.380
60208W        W32633  17.999  39.256   4.847
60209W        W32634   7.244  39.795  13.194
60210W        W32635  14.745  29.172   5.067
60211W        W32636  10.376  33.955  11.311
60212W        W32637  21.920  36.418  14.316
60213W        W32638  26.750  15.742  14.325
60214W        W32639  41.433   5.494  11.585
60215W        W32640   1.856  24.283   4.761
60216W        W32641  28.518   0.422  14.400
60217W        W32642  40.672  35.984  11.661
60218W        W32643  30.871  38.988   1.393
60219W        W32644  29.976   0.946  10.527
60220W        W32645  14.234  30.087  12.557
60221W        W32646  32.747  17.965  12.607
60222W        W32647   1.981  41.022   4.528
60223W        W32648  33.641  27.578   2.707
60224W        W32649  34.506  31.673  10.712
60225W        W32650  10.303  28.748   2.737
60226W        W32651   9.331  19.403   0.834
60227W        W32652  16.533  28.924  13.947
60228W        W32653  22.592   0.968   4.614
60229W        W32654  39.442  27.124  11.563
60230W        W32655  14.591  30.030  10.605
60231W        W32656  34.479   9.239   4.049
60232W        W32657  35.972  41.533   0.836
60233W        W32658  42.384  18.535   4.562
60234W        W32659  19.735  11.738   0.201
60235W        W32660  27.933  41.104   0.354
60236W        W32661   5.668  10.245   1.455
60237W        W32662  21.993  41.935  13.095
60238W        W32663  33.101  24.257  11.187
60239W        W32664   8.442  32.540   1.807
60240W        W32665  33.288  26.124   0.353
60241W        W32666  23.961  42.317  13.865
60242W        W32667  23.173   0.366   3.663
60243W        W32668  37.994  19.087   2.196
60244W        W32669  42.384  35.560   3.864
60245W        W32670  17.255  41.245  13.522
60246W        W32671   1.823  42.730   1.287
60247W        W32672   5.701  32.445   2.222
60248W        W32673  36.492  35.378   2.768
60249W        W32674   3.755  21.676   2.056
60250W        W32675  32.552  21.246  14.262
60251W        W32676  28.805   9.228  12.862
60252W        W32677  24.118  23.949   1.255
60253W        W32678  44.898  13.061  12.531
60254W        W32679  17.023  17.757  12.006
60255W        W32680  29.217   3.777  10.720
60256W        W32681  41.602  12.323   0.890
60257W        W32682  31.158   6.164  14.921
60258W        W32683  42.767   5.923   2.656
60259W        W32684  18.812  43.447  12.512
60260W        W32685   2.835  28.405  11.857
60261W        W32686  31.015  34.949  11.163
60262W        W32687  44.377  14.003  12.994
60263W        W32688  26.404   8.155   4.782
60264W        W32689  34.893  24.533  10.652
60265W        W32690  13.045  38.967   2.598
60266W        W32691  20.297  16.989   1.678
60267W        W32692  39.471   3.867   4.509
60268W        W32693   5.138  29.986  13.310
60269W        W32694  34.288  39.677  13.925
60270W        W32695  25.425  25.441   2.397
60271W        W32696   0.518  27.095  13.380
60272W        W32697  11.855  13.501  14.289
60273W        W32698  26.554  13.720  14.425
60274W        W32699  26.894  43.467   0.039
60275W        W32700  37.822  29.692  13.018
60276W        W32701  38.864   7.933  14.539
60277W        W32702  34.520  38.864   2.692
60278W        W32703  42.033  36.100  13.974
60279W        W32704  10.183   1.834  11.505
60280W        W32705  26.509  35.165  12.374
60281W        W32706  21.716  35.877   4.704
60282W        W32707  27.008  33.939   2.452
60283W        W32708  44.381  43.301   0.247
60284W        W32709  23.068  21.651  11.130
60285W        W32710   1.747  16.674   4.185
60286W        W32711  14.950  12.297  13.384
60287W        W32712  43.491  29.384  11.984
60288W        W32713  24.131  31.567  13.701
60289W        W32714   7.831  34.935  12.439
60290W        W32715   0.422  38.944  12.921
60291W        W32716  35.916   9.913  14.757
60292W        W32717  22.635   6.220   2.687
60293W        W32718  43.848  21.063   1.675
60294W        W32719  16.389  43.748   1.418
60295W        W32720  21.295   1.832  14.398
60296W        W32721  33.155   2.128   3.468
60297W        W32722  11.666   3.297   2.358
60298W        W32723  19.727  11.535  14.699
60299W        W32724  36.909  33.453   4.770
60300W        W32725   2.083  10.874  10.488
60301W        W32726  12.084  21.352   1.302
60302W        W32727  25.949  23.637   1.721
60303W        W32728  37.972  37.054  11.903
60304W        W32729  30.038  42.516  11.399
60305W        W32730  31.920  27.220   3.745
60306W        W32731  29.217  31.516  12.459
60307W        W32732  11.700  37.830  14.685
60308W        W32733   7.446  36.918  12.617
60309W        W32734  27.643  17.749   4.312
60310W        W32735  39.848  26.552  10.201
60311W        W32736  14.061  13.100   1.387
60312W        W32737  11.225  19.061   2.765
60313W        W32738  43.368  16.716   3.361
60314W        W32739  11.717  11.381  10.767
60315W        W32740  29.861  21.903   0.326
60316W        W32741   6.516  26.036   3.256
60317W        W32742  20.206  27.139  11.619
60318W        W32743  42.907   7.162   1.863
60319W        W32744  26.069   8.660  13.019
60320W        W32745  18.229  34.149  11.574
60321W        W32746   2.087   0.390  11.269
60322W        W32747  31.114  40.074   3.296
60323W        W32748  31.603  29.022   3.243
60324W        W32749  18.627  34.881   4.709
60325W        W32750  22.657  29.168  11.988
60326W        W32751  25.381  37.781  13.810
60327W        W32752  17.619  17.043  14.842
60328W        W32753  10.333   2.924  10.581
60329W        W32754  15.081   5.982  10.862
60330W        W32755  10.986  34.303  14.348
60331W        W32756  24.926  19.867  11.075
60332W        W32757   5.259  41.812   3.125
60333W        W32758  27.418  31.965  12.910
60334W        W32759   2.552  42.363   2.300
60335W        W32760  31.553  12.320   3.424
60336W        W32761  25.562   4.135   2.318
60337W        W32762  35.955   8.912   0.283
60338W        W32763   8.258  22.952  11.602
60339W        W32764   8.767  26.981   4.931
60340W        W32765  35.574  39.590  12.748
60341W        W32766  23.045  30.973  11.922
60342W        W32767   8.193  18.207  13.100
60343W        W32768  44.228   8.428  12.449
60344W        W32769  27.382  33.624   3.840
60345W        W32770  27.577  25.156  14.355
60346W        W32771  24.997  36.387  11.595
60347W        W32772  44.374  22.264   3.862
60348W        W32773  39.356  36.019   4.409
60349W        W32774  24.288  11.819  12.358
60350W        W32775  33.562  11.853   1.377
60351W        W32776  12.125  25.692   4.123
60352W        W32777  39.833  23.135   0.307
60353W        W32778   0.444  44.747   0.164
60354W        W32779  20.664  20.699  12.338
60355W        W32780  18.789  19.786  10.698
60356W        W32781  23.079  35.385  12.455
60357W        W32782  20.296  26.492   1.845
60358W        W32783  33.151  15.719   2.278
60359W        W32784  19.061  23.108  14.347
60360W        W32785  22.702   6.913  14.944
60361W        W32786   3.687  30.575  13.522
60362W        W32787  22.047  37.361  12.794
60363W        W32788  15.158  29.768   2.316
60364W        W32789   3.801  39.070   3.207
60365W        W32790   7.236  25.172   3.719
60366W        W32791  43.967  12.224   2.278
60367W        W32792  29.620  22.926   2.851
60368W        W32793  22.769   9.748  12.004
60369W        W32794  33.866   9.964  11.975
60370W        W32795  13.325  24.058  14.324
60371W        W32796   2.520  24.663  12.377
60372W        W32797  13.321  22.855   5.187
60373W        W32798  36.866  25.142   5.037
60374W        W32799   7.892  12.177   4.194
60375W        W32800   6.935  34.119   1.193
60376W        W32801  16.852  21.036  12.489
60377W        W32802  34.158  26.202  14.513
60378W        W32803   0.468  23.179  13.494
60379W        W32804  36.435  15.622   1.873
60380W        W32805  19.689  15.738  10.392
60381W        W32806   4.445  19.271   2.897
60382W        W32807  34.044   5.981   3.836
60383W        W32808  16.189  28.614  14.810
60384W        W32809   6.972   6.595   1.352
60385W        W32810  34.149  17.684   3.426
60386W        W32811  40.768  40.202  11.137
60387W        W32812  34.410  20.200   2.338
60388W        W32813   0.085  35.906   1.897
60389W        W32814  14.762  36.730   2.278
60390W        W32815  12.193  17.792   0.210
60391W        W32816  15.736  41.717   1.709
60392W        W32817  16.180   3.391   0.492
60393W        W32818  27.684  22.272  11.088
60394W        W32819  11.144  26.691   0.569
60395W        W32820  43.774  44.286   4.117
60396W        W32821  26.604  26.443  14.732
60397W        W32822  38.970  18.309   4.104
60398W        W32823  30.914   5.311   0.503
60399W        W32824  29.587  34.559  12.112
60400W        W32825  14.402  29.989  11.133
60401W        W32826  15.825  39.604  13.370
60402W        W32827  32.445  21.311   4.899
60403W        W32828  30.916  28.460  14.426
60404W        W32829  44.089  35.386   4.709
60405W        W32830  26.610  41.523  10.312
60406W        W32831  39.455  29.405  11.677
60407W        W32832  26.451  29.689   4.161
60408W        W32833  30.191   2.891   0.270
60409W        W32834   2.850  21.169   1.714
60410W        W32835  43.591  35.577   4.766
60411W        W32836  16.773  22.782   4.732
60412W        W32837  12.783  24.061  14.376
60413W        W32838  36.074  29.608   0.153
60414W        W32839  25.272  13.272   1.283
60415W        W32840  24.579  34.968  13.934
60416W        W32841  29.337  22.477  14.888
60417W        W32842  41.068  27.714   3.702
60418W        W32843   0.549  24.986   4.446
60419W        W32844   5.379  44.830   4.215
60420W        W32845   6.753  41.469   0.563
60421W        W32846  40.359  37.139   4.825
60422W        W32847  14.535  34.455   0.743
60423W        W32848  28.515  42.485   1.402
60424W        W32849  11.301  29.193   1.379
60425W        W32850   1.256  19.141  13.836
60426W        W32851  43.825  10.175  14.336
60427W        W32852   2.960   4.275   1.790
60428W        W32853  19.954  10.915  13.394
60429W        W32854  38.944  38.559  10.218
60430W        W32855  16.217  12.829   2.231
60431W        W32856  41.550  23.534  14.425
60432W        W32857  13.323  22.936   2.744
60433W        W32858  17.191  18.116   1.944
60434W        W32859  25.131  26.561  13.807
60435W        W32860  34.982   7.251  11.121
60436W        W32861   2.932   1.900  12.503
60437W        W32862  38.600  15.343  14.815
60438W        W32863  34.894   2.934   2.678
60439W        W32864  18.710  25.596   0.838
60440W        W32865  41.768  36.417  13.659
60441W        W32866   4.507  40.965   2.335
60442W        W32867  23.437  15.355   1.618
60443W        W32868  17.264  36.971  13.068
60444W        W32869   0.319  16.841   0.900
60445W        W32870  17.693  10.337  13.815
60446W        W32871  20.069   0.068   1.203
60447W        W32872  12.772  25.657  11.174
60448W        W32873  30.704  13.956   4.291
60449W        W32874  15.077  23.914   1.685
60450W        W32875  24.136  13.301  11.941
60451W        W32876  20.159  28.939  10.541
60452W        W32877  15.884  41.215   0.906
60453W        W32878  13.715  14.645   3.242
60454W        W32879  40.703  24.702  13.068
60455W        W32880  22.079   2.372  10.985
60456W        W32881   7.329  26.995   4.119
60457W        W32882   4.092  19.797  11.051
60458W        W32883  22.563  44.295  10.400
60459W        W32884  32.505   7.723  14.227
60460W        W32885   1.582  25.876   3.427
60461W        W32886  39.083  32.107  14.642
60462W        W32887   6.585  31.711  12.789
60463W        W32888   4.021  28.118   0.069
60464W        W32889  40.855  16.494   4.535
60465W        W32890  31.987  41.016  10.602
60466W        W32891  11.358  15.553   1.330
60467W        W32892  42.510   9.241   2.839
60468W        W32893   9.814   0.265  14.522
60469W        W32894  35.870  40.797   1.788
60470W        W32895  26.530  16.771   4.492
60471W        W32896  36.323   0.996  14.861
60472W        W32897   5.760  28.489  12.327
60473W        W32898  31.667  30.945  12.995
60474W        W32899  11.116  42.320   3.872
60475W        W32900  19.102  24.327   2.629
60476W        W32901   4.834  17.604   4.622
60477W        W32902  32.818  21.024  11.514
60478W        W32903  32.260   6.820   1.384
60479W        W32904   8.807  36.643  14.522
60480W        W32905  14.067  28.302   0.460
60481W        W32906  32.433   0.454   3.143
60482W        W32907  18.564  31.446   4.878
60483W        W32908  16.534  42.348   2.265
60484W        W32909  27.563  34.711   4.945
60485W        W32910  35.961  44.279   0.038
60486W        W32911  39.769  37.088   3.616
60487W        W32912  30.057  11.314   2.647
60488W        W32913  32.851  15.958  13.382
60489W        W32914  28.831  37.430  12.336
60490W        W32915  29.818  16.131  11.628
60491W        W32916  29.095  38.322   3.223
60492W        W32917  40.950  20.172  11.660
60493W        W32918  21.764  25.581  10.931
60494W        W32919  42.503   1.495  14.864
60495W        W32920  36.473  12.252  14.015
60496W        W32921   5.963   9.159  11.088
60497W        W32922  41.246  43.419   4.080
60498W        W32923   8.689  15.357   3.350
60499W        W32924  41.519  36.769  14.309
60500W        W32925   7.951   5.867  14.378
60501W        W32926  44.125   4.046   3.585
60502W        W32927  43.337  33.475   1.834
60503W        W32928   2.412   6.005  12.925
60504W        W32929  41.311  35.106  11.454
60505W        W32930  25.528  17.082  13.993
60506W        W32931  19.081  44.207   2.091
60507W        W32932   6.671  36.146   0.344
60508W        W32933  10.148  41.820  10.628
60509W        W32934  27.739   6.788   2.366
60510W        W32935  33.909  20.625   2.288
60511W        W32936  37.510  21.039  13.997
60512W        W32937   6.443  15.599   4.097
60513W        W32938  25.149  30.930   0.933
60514W        W32939  18.145  35.121  14.561
60515W        W32940  22.131  40.352   4.567
60516W        W32941  19.716  25.984   0.317
60517W        W32942   3.713  28.150  10.708
60518W        W32943  44.903  31.469  14.032
60519W        W32944  31.943  21.963  14.103
60520W        W32945  41.111   9.627  12.151
60521W        W32946  35.004  17.758   1.962
60522W        W32947  29.832  31.884  11.047
60523W        W32948  16.720  17.131  14.818
60524W        W32949  26.917  12.337   2.253
60525W        W32950   8.401  37.214   0.856
60526W        W32951   1.762  43.468  11.149
60527W        W32952  38.515   7.562   0.316
60528W        W32953   5.752  29.850  13.740
60529W        W32954  40.075  19.807  12.917
60530W        W32955  21.147  37.896   0.393
60531W        W32956   2.936   9.624   2.762
60532W        W32957  23.425  25.070  13.804
60533W        W32958  17.599  42.324   2.392
60534W        W32959   5.446   6.724   4.410
60535W        W32960   1.588  19.690   1.863
60536W        W32961  41.476  25.117   1.252
60537W        W32962   9.839  35.870  10.889
60538W        W32963   8.753  32.940  11.807
60539W        W32964  15.529  15.254  13.175
60540W        W32965  16.706  11.315  12.434
60541W        W32966   9.148  33.605  12.550
60542W        W32967  31.522  36.013  10.369
60543W        W32968  32.013  17.740   3.891
60544W        W32969  35.970  30.445  14.231
60545W        W32970  35.617  20.301  13.412
60546W        W32971   8.797  31.904   2.478
60547W        W32972   4.775   6.831   3.169
60548W        W32973  23.598  31.674  10.098
60549W        W32974  16.607  29.387  14.881
60550W        W32975  24.064  37.951   3.534
60551W        W32976  39.466  18.078  12.904
60552W        W32977   0.334  31.476   0.352
60553W        W32978  10.839  14.361   0.242
60554W        W32979  21.780  21.559   1.760
60555W        W32980  14.582  31.106   4.702
60556W        W32981  43.934  19.084  14.276
60557W        W32982  22.487  14.527  11.098
60558W        W32983  19.333  44.203  12.082
60559W        W32984  17.008  44.535  12.137
60560W        W32985  20.682  23.802  13.523
60561W        W32986   0.465   8.680  11.174
60562W        W32987   3.485  35.009   1.657
60563W        W32988   1.469   3.263  10.412
60564W        W32989  23.115  40.768   0.901
60565W        W32990  44.264  36.467   1.780
60566W        W32991  15.277  22.536   0.447
60567W        W32992   5.503   0.469  13.197
60568W        W32993  35.952  14.703   0.731
60569W        W32994  11.787  40.499   1.686
60570W        W32995   0.739  11.621   4.136
60571W        W32996  30.033  14.190  11.992
60572W        W32997  25.071  32.225   4.198
60573W        W32998  37.191  22.210  12.973
60574W        W32999   6.918  19.049   0.212
60575W        W33000  20.686  34.376   1.882
60576W        W33001  21.546  18.735   4.831
60577W        W33002   3.158  18.308  14.395
60578W        W33003  10.938  24.689  13.644
60579W        W33004  29.551   6.222  14.748
60580W        W33005  14.204  22.706   4.915
60581W        W33006  11.633   1.201   3.904
60582W        W33007  22.523  20.501  10.646
60583W        W33008  11.790  34.557   4.062
60584W        W33009  32.891  26.871  11.569
60585W        W33010   9.209  19.614  11.187
60586W        W33011  34.522   7.870   4.316
60587W        W33012   5.254  21.221  13.318
60588W        W33013  18.582  13.874   3.360
60589W        W33014   0.744  11.341   2.015
60590W        W33015  31.360  39.847  11.545
60591W        W33016  32.965  34.584   2.225
60592W        W33017   2.381  33.531  13.633
60593W        W33018  28.629  36.339  10.629
60594W        W33019  20.607  19.655  14.878
60595W        W33020   3.290   0.784  11.425
60596W        W33021  44.990  37.028  13.909
60597W        W33022   6.187  13.266  14.772
60598W        W33023  11.152   2.826  10.276
60599W        W33024  18.532  14.759   3.195
60600W        W33025  30.853  18.042   0.300
60601W        W33026  22.473  39.775  13.102
60602W        W33027  43.482  19.623   4.342
60603W        W33028  19.488  40.840   1.275
60604W        W33029  43.365  33.632  14.263
60605W        W33030   4.453  28.515  10.833
60606W        W33031   9.256  27.471   1.724
60607W        W33032  40.393  11.785  14.347
60608W        W33033  35.545   9.889   3.436
60609W        W33034  35.456  18.804   2.270
60610W        W33035  42.876  38.858  12.049
60611W        W33036  24.099  11.664   9.718
60612W        W33037  38.004  18.714   2.817
60613W        W33038  43.981  15.235  13.722
60614W        W33039  37.541  29.004  10.912
60615W        W33040  20.306  32.476   1.058
60616W        W33041  40.283  11.436   2.628
60617W        W33042   2.774   2.377  11.212
60618W        W33043  35.579  42.385  11.650
60619W        W33044  40.078  25.970   2.653
60620W        W33045   7.215  42.256   2.198
60621W        W33046  30.431  38.500  12.834
60622W        W33047  40.342  34.378  12.514
60623W        W33048  17.377  33.372   5.262
60624W        W33049   8.619  23.196   2.828
60625W        W33050  36.915  26.252  13.838
60626W        W33051  24.434  12.856   2.371
60627W        W33052  35.041  35.285   2.795
60628W        W33053  17.692  31.395   1.665
60629W        W33054   9.168  20.516  11.125
60630W        W33055  40.823  16.691  12.049
60631W        W33056  30.910  24.306  10.693
60632W        W33057  38.530  18.181   2.250
60633W        W33058  41.890  43.649   3.866
60634W        W33059  32.985   7.947  14.090
60635W        W33060  26.171  22.492  13.731
60636W        W33061   0.284  22.231  12.020
60637W        W33062  41.436  20.574   1.024
60638W        W33063  44.337  30.979   2.791
60639W        W33064   6.304  25.634   2.205
60640W        W33065   2.702  33.252   1.513
60641W        W33066  38.350  22.190  11.578
60642W        W33067  34.319  43.874  14.252
60643W        W33068   9.600  33.108  10.336
60644W        W33069  19.462   7.748  10.644
60645W        W33070  18.641  22.223   1.515
60646W        W33071   3.518  28.462  11.196
60647W        W33072  32.409  18.599  13.956
60648W        W33073   9.585  22.705   1.724
60649W        W33074  21.080  39.956  12.515
60650W        W33075  29.185  37.092   4.137
60651W        W33076  13.545  11.406   2.686
60652W        W33077  23.584  43.238   4.677
60653W        W33078  21.589  30.210   3.323
60654W        W33079  42.786  37.390  14.940
60655W        W33080  32.605  10.788   3.674
60656W        W33081  18.306  28.131  12.408
60657W        W33082  11.062  32.931   4.665
60658W        W33083  34.322  32.925   2.866
60659W        W33084  26.251  39.557  13.447
60660W        W33085  38.116  33.638   4.337
60661W        W33086  30.143  29.546   1.243
60662W        W33087  31.681  19.836   2.271
60663W        W33088  21.402  20.785  13.358
60664W        W33089  40.864  12.575  12.050
60665W        W33090   3.267  38.768  14.898
60666W        W33091  29.485  36.645   1.832
60667W        W33092   3.957  20.995   1.220
60668W        W33093  26.019   9.236  14.011
60669W        W33094  19.622  23.004  13.004
60670W        W33095  24.768  19.227  12.068
60671W        W33096  20.345  11.890   3.014
60672W        W33097  12.899   3.946   4.184
60673W        W33098  15.138   1.835   2.596
60674W        W33099   4.940  41.390  14.753
60675W        W33100  10.758   9.939   4.044
60676W        W33101  38.756  12.673   3.077
60677W        W33102  35.905  40.316   2.906
60678W        W33103   0.534  32.086  11.087
60679W        W33104  27.076  17.892   2.763
60680W        W33105   9.843   0.451   3.215
60681W        W33106   9.489  33.623   9.903
60682W        W33107  27.018   3.018   4.093
60683W        W33108  13.438  15.290  12.410
60684W        W33109   4.214  20.684   3.373
60685W        W33110  43.990   7.862   4.365
60686W        W33111  19.543  22.769  12.138
60687W        W33112  17.048   3.296   1.383
60688W        W33113  11.598  31.360  12.436
60689W        W33114  21.114  14.326  10.197
60690W        W33115   2.727  19.107   0.544
60691W        W33116  41.814   1.223  11.927
60692W        W33117  19.631  28.644   2.084
60693W        W33118  42.055   5.418  14.467
60694W        W33119   7.258  25.472  11.623
60695W        W33120  17.736  32.169   4.140
60696W        W33121  36.176  32.488  13.031
60697W        W33122   0.343   0.888  10.706
60698W        W33123  40.275   7.811  12.367
60699W        W33124  14.441   1.799  12.516
60700W        W33125  29.292   8.029   1.452
60701W        W33126  19.079  30.815  11.160
60702W        W33127   3.703  42.503  10.443
60703W        W33128  26.514  21.681  13.341
60704W        W33129  11.157   2.787   3.087
60705W        W33130  15.550  43.926   1.396
60706W        W33131  36.984   5.310  14.262
60707W        W33132  43.892  21.292   5.131
60708W        W33133   1.386  20.309  11.487
60709W        W33134  44.458   1.832  14.390
60710W        W33135   9.200  13.544   3.400
60711W        W33136  18.889   6.887  11.915
60712W        W33137   2.700  37.459   4.275
60713W        W33138  20.688   6.365  14.772
60714W        W33139  43.015  17.608   2.805
60715W        W33140  25.162  12.757   4.465
60716W        W33141  21.065  43.884   0.756
60717W        W33142  37.281  38.852   3.687
60718W        W33143  32.621  23.736  13.466
60719W        W33144  21.555   2.899   3.058
60720W        W33145   0.788  15.611   4.567
60721W        W33146  23.749   2.899   4.255
60722W        W33147  26.491  13.759   3.203
60723W        W33148  28.707  35.031   4.255
60724W        W33149  20.508  20.222  11.667
60725W        W33150  16.847  31.471  11.455
60726W        W33151  35.000  39.175   5.231
60727W        W33152  27.582  24.319   2.239
60728W        W33153   7.370  26.586   2.338
60729W        W33154  28.498  14.631  10.312
60730W        W33155  38.525  16.710   0.321
60731W        W33156  42.968  35.838   0.850
60732W        W33157   6.910  18.258   3.201
60733W        W33158  15.692  34.632   3.065
60734W        W33159   4.597  17.746  13.067
60735W        W33160  18.301  35.842  10.631
60736W        W33161  24.290  35.506  14.003
60737W        W33162   5.654  31.655   1.785
60738W        W33163   8.298  25.109  12.324
60739W        W33164  27.597  23.654   9.880
60740W        W33165  16.810  16.871  11.609
60741W        W33166   7.276  42.081   0.856
60742W        W33167  28.672  34.070  12.558
60743W        W33168   9.627  37.859   2.830
60744W        W33169   8.302  13.697   3.279
60745W        W33170  29.971  13.241   2.575
60746W        W33171  39.923  33.881   3.160
60747W        W33172  31.326  20.168  10.613
60748W        W33173  20.655   0.807  13.899
60749W        W33174  27.427  30.008  14.040
60750W        W33175  27.632  21.417   2.591
60751W        W33176  14.343  32.126  10.373
60752W        W33177  30.242  14.680   4.559
60753W        W33178  41.039  43.381  10.674
60754W        W33179   0.306   1.841  13.953
60755W        W33180  27.642  28.901   3.356
60756W        W33181  44.297  16.557   1.347
60757W        W33182  37.587  10.790  13.350
60758W        W33183   1.586  18.313  11.169
60759W        W33184  36.049  27.053   2.820
60760W        W33185  24.080  12.477   3.274
60761W        W33186  26.180  10.419  11.466
60762W        W33187  33.429  27.476  11.141
60763W        W33188  22.952  22.560  11.565
60764W        W33189  18.149  29.101  10.670
60765W        W33190  11.914  16.273  10.531
60766W        W33191   1.311   3.936  12.138
60767W        W33192   6.280   7.219  13.480
60768W        W33193  23.760  38.783  10.619
60769W        W33194  37.702   5.356  11.140
60770W        W33195   1.901  28.569  11.701
60771W        W33196  19.241  20.790   2.285
60772W        W33197  42.832  29.192  13.559
60773W        W33198  34.330   2.956  12.528
60774W        W33199  34.289  41.758   4.433
60775W        W33200  38.912  28.310  14.926
60776W        W33201   0.767  29.211   2.709
60777W        W33202  18.551   7.753   3.352
60778W        W33203  25.199  24.497  11.370
60779W        W33204  30.381  22.596   4.693
60780W        W33205  24.621  35.132   0.297
60781W        W33206   7.227  40.033  11.286
60782W        W33207  12.602  37.472   0.282
60783W        W33208  24.025  13.904  12.983
60784W        W33209   5.803   3.716   0.880
60785W        W33210  23.759  25.419   4.070
60786W        W33211   4.771  26.298  10.571
60787W        W33212   1.411  31.952   1.752
60788W        W33213  32.663  26.187  13.584
60789W        W33214  12.098  12.041  14.804
60790W        W33215  17.187  21.748  10.688
60791W        W33216  13.106  39.555  14.775
60792W        W33217  31.228  41.769  13.053
60793W        W33218  29.051   3.687  13.394
60794W        W33219  39.909  12.358  12.426
60795W        W33220  27.999  26.764   1.431
60796W        W33221   5.300   5.788   0.455
60797W        W33222   5.212  43.792   4.114
60798W        W33223  39.856  40.831  10.717
60799W        W33224  12.657  34.512   0.777
60800W        W33225  29.251  39.066  11.443
60801W        W33226  33.488  13.762  14.297
60802W        W33227  21.781  13.740  11.120
60803W        W33228  44.805   7.487  14.998
60804W        W33229  32.626   4.896   1.719
60805W        W33230   8.249  37.489  13.625
60806W        W33231  36.626  25.919  11.216
60807W        W33232  38.334  18.819   4.609
60808W        W33233  16.434  28.949   0.620
60809W        W33234  36.077   7.834  10.612
60810W        W33235  14.843  33.460   0.939
60811W        W33236  34.477  24.238   0.539
60812W        W33237  43.874  25.446   0.798
60813W        W33238  25.994  16.826   4.166
60814W        W33239  38.924  11.676  14.837
60815W        W33240  33.372   0.538  11.998
60816W        W33241  38.283   5.465  13.875
60817W        W33242  36.469  27.004  12.847
60818W        W33243  38.364  23.148   0.261
60819W        W33244  23.046  44.663  14.489
60820W        W33245  11.313  18.242   3.201
60821W        W33246  19.363   1.551  14.469
60822W        W33247  30.664  28.097   3.144
60823W        W33248   5.022  35.998  14.416
60824W        W33249  25.963  44.768   4.160
60825W        W33250  18.823  31.960  12.473
60826W        W33251   9.753  18.652  13.456
60827W        W33252   3.344  18.180   1.321
60828W        W33253   5.190   5.274   0.204
60829W        W33254   2.859   1.047  11.587
60830W        W33255   3.723  13.101   2.466
60831W        W33256  35.118   7.658  10.235
60832W        W33257   0.902   2.941  14.532
60833W        W33258   2.189   1.661  11.925
60834W        W33259  40.130   6.465   3.827
60835W        W33260  18.684  37.242  14.411
60836W        W33261  18.877  13.017   0.475
60837W        W33262  27.640  43.737   0.337
60838W        W33263  19.097  36.606   1.808
60839W        W33264   2.427  19.174  13.818
60840W        W33265   1.968  23.006   2.317
60841W        W33266  12.229  34.584  13.907
60842W        W33267  24.281  36.374  14.958
60843W        W33268  38.461  25.028   2.282
60844W        W33269  43.906  42.928   4.370
60845W        W33270  14.418  29.060   2.809
60846W        W33271   5.159   8.705  11.072
60847W        W33272  13.733   1.926   9.864
60848W        W33273  24.181  11.333  10.904
60849W        W33274  20.160  33.484   4.519
60850W        W33275   2.424  23.948   1.760
60851W        W33276  43.736  13.229  11.928
60852W        W33277  27.762  40.704   1.723
60853W        W33278  37.073  27.039  14.501
60854W        W33279  34.381  30.453  12.517
60855W        W33280  32.031   1.383   3.357
60856W        W33281  28.928   7.878   0.079
60857W        W33282  30.201   9.367   2.173
60858W        W33283   4.650  32.893   3.740
60859W        W33284   6.686   1.295   4.932
60860W        W33285   5.180  28.455  10.097
60861W        W33286  19.791  12.234  12.394
60862W        W33287  30.005   3.787   0.200
60863W        W33288  34.851  33.430  11.065
60864W        W33289  16.047   2.648  12.110
60865W        W33290  14.818  11.759   2.891
60866W        W33291   8.094  19.457  13.991
60867W        W33292   1.446  39.934  12.899
60868W        W33293  11.209  42.500   0.182
60869W        W33294   2.926  37.346   4.750
60870W        W33295  29.539  31.840  14.371
60871W        W33296  14.919  31.333   1.171
60872W        W33297  33.837   2.311   3.518
60873W        W33298  16.528  10.777  13.646
60874W        W33299   8.840   3.911   4.937
60875W        W33300  26.908  28.890  14.904
60876W        W33301   0.966  28.519  12.998
60877W        W33302  43.409  10.764   2.374
60878W        W33303  30.835  10.203   0.464
60879W        W33304  21.968   6.428   0.467
60880W        W33305  14.785  16.694  14.923
60881W        W33306   5.910   2.502  10.685
60882W        W33307  23.705  28.621  11.197
60883W        W33308  16.605  20.800   1.424
60884W        W33309   2.216  39.973  14.044
60885W        W33310  44.874   4.126   3.107
60886W        W33311  39.069  18.710  12.983
60887W        W33312  35.091  27.161   0.742
60888W        W33313  30.390  10.234   2.116
60889W        W33314  16.852  14.248   2.304
60890W        W33315  35.888  22.541  11.327
60891W        W33316   2.950   6.164   3.807
60892W        W33317  11.234  14.332  12.442
60893W        W33318   7.966  18.752   0.962
60894W        W33319  41.329  21.307   2.322
60895W        W33320  19.290  10.747  14.301
60896W        W33321  21.217  26.442   2.118
60897W        W33322  14.170  34.912  13.556
60898W        W33323   5.203  15.928  11.176
60899W        W33324  15.774   3.974  13.352
60900W        W33325  18.822  10.318   2.781
60901W        W33326   8.310  11.692   1.429
60902W        W33327  12.043   3.521  12.423
60903W        W33328  13.240  22.719   3.826
60904W        W33329  29.975  15.692  10.824
60905W        W33330  42.806   0.280  12.063
60906W        W33331  26.851  16.807  10.386
60907W        W33332  18.073  23.934   0.779
60908W        W33333  22.024  31.634   2.770
60909W        W33334  13.214  13.606  14.389
60910W        W33335  35.017  12.784  11.506
60911W        W33336  37.998   9.164   3.064
60912W        W33337  12.052  39.072   2.329
60913W        W33338  37.975  43.881   1.749
60914W        W33339   4.479  32.250   3.196
60915W        W33340  43.986  26.367  13.917
60916W        W33341  36.420  27.866   4.018
60917W        W33342   8.334  11.872   4.185
60918W        W33343   6.744   8.248   4.416
60919W        W33344  43.012  23.678  12.107
60920W        W33345  34.176  36.872  13.053
60921W        W33346  19.100   8.971   3.267
60922W        W33347  35.145  19.216  14.909
60923W        W33348  17.899  17.333   3.564
60924W        W33349   3.760  27.037  11.708
60925W        W33350  42.965  10.175   0.166
60926W        W33351   0.688   7.817   2.129
60927W        W33352  18.495  39.391   4.696
60928W        W33353  34.835  14.546   9.958
60929W        W33354  42.763  32.662   0.703
60930W        W33355   2.266  28.433   0.061
60931W        W33356   8.440  24.663   0.478
60932W        W33357   8.684  37.772  14.491
60933W        W33358  23.681  43.565  14.919
60934W        W33359  30.749   5.946  11.148
60935W        W33360   1.010  18.759  11.180
60936W        W33361   2.544  38.012   2.685
60937W        W33362  38.000   6.919   3.685
60938W        W33363   8.441  18.898   2.788
60939W        W33364  13.792   2.498   2.661
60940W        W33365   9.161  37.933   0.304
60941W        W33366  27.070  30.572  12.435
60942W        W33367  38.449  15.505  11.663
60943W        W33368  18.615  41.612   4.596
60944W        W33369  36.575  16.866   4.293
60945W        W33370   0.422  15.097  11.532
60946W        W33371  38.534  16.118   0.822
60947W        W33372  17.528  21.628   4.620
60948W        W33373   0.993  30.938   1.041
60949W        W33374  13.756  12.852   0.382
60950W        W33375   3.719  31.329   0.875
60951W        W33376  18.505  20.467  14.970
60952W        W33377   5.276  20.077   4.873
60953W        W33378   7.208  37.538   0.264
60954W        W33379  25.621  10.182   0.400
60955W        W33380  28.437  13.497  14.206
60956W        W33381  14.981  40.307  11.601
60957W        W33382  35.222  19.853   0.244
60958W        W33383  11.739  25.198   1.494
60959W        W33384  16.248  10.833   0.352
60960W        W33385   6.798  28.756  10.325
60961W        W33386  20.771  29.410   3.613
60962W        W33387   0.280  25.397   4.242
60963W        W33388  12.149  40.122  12.649
60964W        W33389   8.065  10.682  11.679
60965W        W33390  23.612  29.178  12.125
60966W        W33391   2.473  13.712   2.735
60967W        W33392  28.967  16.108   2.285
60968W        W33393   5.210  40.957  13.331
60969W        W33394  35.451  38.021  12.853
60970W        W33395   0.240  10.285   1.856
60971W        W33396  17.566  20.563   2.362
60972W        W33397   7.642  18.756   3.128
60973W        W33398  40.755   6.791   4.313
60974W        W33399  26.290  38.291  11.544
60975W        W33400   1.395  21.760   3.806
60976W        W33401  42.617  22.716   5.549
60977W        W33402   4.026  39.027   2.256
60978W        W33403  21.118  20.258   2.351
60979W        W33404  26.461  25.021  11.056
60980W        W33405  27.744  19.951   5.181
60981W        W33406  28.156  13.875  11.311
60982W        W33407   6.001  43.962  11.459
60983W        W33408  15.142  10.708  13.924
60984W        W33409   2.509  23.489   0.192
60985W        W33410  21.859   0.882  14.864
60986W        W33411  33.425  42.695  11.074
60987W        W33412  20.318   9.331  13.241
60988W        W33413  31.940  37.543  14.947
60989W        W33414  19.749  35.105  14.431
60990W        W33415   5.365  16.635  12.699
60991W        W33416   7.820  30.468  10.314
60992W        W33417  10.424   3.872   4.775
60993W        W33418  24.418  44.101  12.896
60994W        W33419  20.252  24.492  12.459
60995W        W33420  38.785  28.758   0.139
60996W        W33421  29.155  24.569  11.453
60997W        W33422  28.427   1.002   1.760
60998W        W33423  20.613  19.795  11.417
60999W        W33424  10.894  22.026   2.636
61000W        W33425  12.368  12.398   4.610
61001W        W33426   5.708   8.687  11.093
61002W        W33427  27.981  16.508   1.660
61003W        W33428  15.130   4.492   2.258
61004W        W33429   9.870  44.380  10.716
61005W        W33430   1.978  38.758  11.113
61006W        W33431  14.452  39.972   3.472
61007W        W33432  21.713   0.075   2.538
61008W        W33433  18.042  34.727  10.121
61009W        W33434  10.663  14.342   2.659
61010W        W33435  21.228  15.017  14.801
61011W        W33436   1.451  21.298  14.270
61012W        W33437  38.167  43.239   3.664
61013W        W33438  27.382  39.567  10.032
61014W        W33439  32.617  15.737  11.482
61015W        W33440  35.779  32.895   0.853
61016W        W33441  38.601  11.461   0.386
61017W        W33442  19.513  28.029   0.939
61018W        W33443  16.734  18.760  14.024
61019W        W33444  32.914   6.760   0.775
61020W        W33445  21.515  38.109  14.582
61021W        W33446  10.314  44.260   1.880
61022W        W33447  38.348  25.615  12.102
61023W        W33448  30.619  17.230   3.616
61024W        W33449   0.471  34.807  10.018
61025W        W33450  32.191   4.514  10.901
61026W        W33451   6.311   3.684   4.804
61027W        W33452  31.102   1.669  11.111
61028W        W33453  39.408   7.151   4.225
61029W        W33454  27.377  43.340   4.181
61030W        W33455  29.674  27.653   2.366
61031W        W33456  33.035  20.647  12.461
61032W        W33457  29.963   7.837  14.769
61033W        W33458  43.692  33.186  11.391
61034W        W33459  28.732  40.531   5.162
61035W        W33460  32.385  20.167   4.667
61036W        W33461  43.845  33.983   0.371
61037W        W33462  37.498  38.879   1.146
61038W        W33463  41.540  21.191   1.780
61039W        W33464  42.683  44.700  11.528
61040W        W33465  26.552  44.314   2.903
61041W        W33466  43.537  44.685  13.734
61042W        W33467  35.553  18.682  14.215
61043W        W33468  23.388  21.946   1.897
61044W        W33469  23.219  42.386   3.159
61045W        W33470  29.151  11.800   0.747
61046W        W33471  42.109  22.709  10.086
61047W        W33472   4.705  22.428   4.772
61048W        W33473  12.844   4.622  11.278
61049W        W33474  40.592  37.398   0.773
61050W        W33475  10.723  19.625  10.844
61051W        W33476  24.002  18.777  13.541
61052W        W33477  39.381   5.172  14.665
61053W        W33478  21.073  31.612   3.601
61054W        W33479  21.555  14.731   4.677
61055W        W33480   3.125   6.245   2.718
61056W        W33481  35.621  26.965   3.862
61057W        W33482  30.027  16.204   3.188
61058W        W33483  12.241  29.407   0.591
61059W        W33484   4.725  42.946   4.293
61060W        W33485   1.756  37.730   2.615
61061W        W33486  12.320   4.412  12.879
61062W        W33487  13.111  13.576   4.845
61063W        W33488  26.618  18.663  11.057
61064W        W33489   8.104  40.922   0.997
61065W        W33490  15.586  25.704  11.548
61066W        W33491  43.980  35.519   2.235
61067W        W33492  30.217  33.873  13.871
61068W        W33493  13.405  38.817   0.256
61069W        W33494   9.815   1.224   3.743
61070W        W33495  44.331  16.150   4.218
61071W        W33496  36.930  18.799   1.490
61072W        W33497  20.856   7.993  11.864
61073W        W33498  34.826  37.858   3.678
61074W        W33499  27.981  32.458  13.443
61075W        W33500   2.892  25.553  11.097
61076W        W33501  17.204   5.784  10.196
61077W        W33502  27.657  37.760  11.979
61078W        W33503  15.737  35.463   0.958
61079W        W33504  13.687  25.029   3.424
61080W        W33505  36.645  36.849  14.694
61081W        W33506  16.220  28.622  11.856
61082W        W33507  38.541   7.268  11.803
61083W        W33508   0.048  27.069  11.156
61084W        W33509  17.722  20.716  13.820
61085W        W33510  27.109  42.529  10.638
61086W        W33511  19.557  35.111   3.682
61087W        W33512  26.169  18.279   3.574
61088W        W33513  42.436  38.733   4.636
61089W        W33514  15.779  12.737   1.714
61090W        W33515  43.877  38.961   4.849
61091W        W33516  23.990  38.149  12.503
61092W        W33517  37.037   3.587  13.538
61093W        W33518  39.280  41.075  13.856
61094W        W33519  27.109  34.079  13.332
61095W        W33520  15.780  12.811  11.146
61096W        W33521  42.056   5.362  10.483
61097W        W33522  19.160   9.292  10.649
61098W        W33523  38.017  10.752  14.304
61099W        W33524  12.061  30.405  13.010
61100W        W33525  39.763   1.933   3.224
61101W        W33526  16.881  15.407  10.315
61102W        W33527   1.217  12.344   4.607
61103W        W33528  42.916  14.182  13.025
61104W        W33529  21.709   9.940   2.330
61105W        W33530   1.441  33.013  11.039
61106W        W33531  12.682  37.641   3.634
61107W        W33532  42.761  17.777   3.215
61108W        W33533  18.855   7.785  13.876
61109W        W33534  17.102  28.965   2.008
61110W        W33535  29.424   5.418   0.474
61111W        W33536  13.848  30.264   2.938
61112W        W33537   5.842  19.133  14.414
61113W        W33538   5.916   0.190  11.055
61114W        W33539  11.828  38.860  12.435
61115W        W33540   3.689  38.002   0.403
61116W        W33541  44.574  37.061   1.324
61117W        W33542  29.594  23.748  10.213
61118W        W33543  10.911  15.089   0.767
61119W        W33544   3.786  42.876  13.030
61120W        W33545  35.348  28.642   4.801
61121W        W33546  18.049  21.554   2.790
61122W        W33547   8.617  35.086   1.666
61123W        W33548  33.021  27.614  12.666
61124W        W33549  16.963   7.448   0.888
61125W        W33550  39.666  38.887   4.074
61126W        W33551  43.411  40.306  13.629
61127W        W33552  21.155   1.620   2.321
61128W        W33553  37.074  34.647   1.475
61129W        W33554  36.673   9.289   3.020
61130W        W33555  17.890   4.125   0.274
61131W        W33556  22.722  44.074   1.473
61132W        W33557  29.158   8.314  12.403
61133W        W33558  44.930  30.122   0.876
61134W        W33559  34.849   2.009   1.003
61135W        W33560  12.357  14.510   3.758
61136W        W33561  24.124  13.791  12.110
61137W        W33562  14.525  42.525   4.106
61138W        W33563  34.540  36.535  12.007
61139W        W33564  20.942   3.061  11.106
61140W        W33565   7.911   7.858  13.965
61141W        W33566  39.568   8.299   1.002
61142W        W33567  10.727  14.218   4.786
61143W        W33568  23.779   4.839  13.923
61144W        W33569  35.566  33.468   3.650
61145W        W33570  20.148  24.734   2.425
61146W        W33571   2.981  34.844   3.875
61147W        W33572   4.971  16.339  11.417
61148W        W33573   7.381  28.680   4.596
61149W        W33574  13.875  32.152  13.365
61150W        W33575  27.070  35.060   4.771
61151W        W33576  26.621  24.478   1.763
61152W        W33577  26.467  41.914   4.069
61153W        W33578   9.768  35.965  13.837
61154W        W33579  39.824  44.578  13.483
61155W        W33580  32.536  10.912  11.907
61156W        W33581  39.536  18.225  14.140
61157W        W33582  25.928   3.111  10.553
61158W        W33583   2.229  12.651   4.620
61159W        W33584   1.446  38.791   2.277
61160W        W33585   4.408   7.454  10.687
61161W        W33586   8.142  21.261   1.260
61162W        W33587  40.427  33.381   1.884
61163W        W33588   9.382   7.834   1.801
61164W        W33589  38.366  20.546  14.366
61165W        W33590  31.426  22.537   0.613
61166W        W33591  19.547  22.124  10.865
61167W        W33592   2.130  15.120  11.933
61168W        W33593  22.549  20.036   2.754
61169W        W33594  27.072  43.397   3.772
61170W        W33595  23.593  13.391  14.689
61171W        W33596  14.824  18.580   4.188
61172W        W33597  30.602   5.867   3.092
61173W        W33598  26.535  31.090  12.674
61174W        W33599   4.113   3.457   3.673
61175W        W33600  28.221  39.610   4.458
61176W        W33601  35.412  13.355  10.747
61177W        W33602  15.248  31.562   2.950
61178W        W33603   1.802   2.284   0.672
61179W        W33604  21.087  39.024  13.719
61180W        W33605   8.166  25.017   4.572
61181W        W33606  38.829  40.209   2.029
61182W        W33607  30.428  11.367  13.243
61183W        W33608  10.118  17.690  11.525
61184W        W33609  11.102  16.787  10.782
61185W        W33610  24.699  37.788  12.030
61186W        W33611   9.873  22.971   2.269
61187W        W33612  15.171  28.528  11.992
61188W        W33613   5.802  16.027  13.957
61189W        W33614  10.329  20.583   4.120
61190W        W33615  34.486  12.695  10.698
61191W        W33616  16.735  28.549   3.378
61192W        W33617  23.379  19.615  12.074
61193W        W33618  28.722  30.420  14.926
61194W        W33619  34.482  43.747   2.835
61195W        W33620  25.098   6.475   3.415
61196W        W33621  44.004  32.070   1.258
61197W        W33622  35.503  30.578   3.978
61198W        W33623  31.971  33.601   2.431
61199W        W33624  27.625  22.940  10.230
61200W        W33625   0.630  31.491   9.483
61201W        W33626  30.757  39.846  10.662
61202W        W33627  32.200  18.674   0.904
61203W        W33628  26.970  33.134   2.885
61204W        W33629  37.900  11.829  11.132
61205W        W33630  40.594   2.872  12.873
61206W        W33631  31.006  27.110  12.674
61207W        W33632  23.011  21.347   2.865
61208W        W33633  41.010   0.555  13.311
61209W        W33634  31.568  31.487  10.601
61210W        W33635  18.676   4.132  12.516
61211W        W33636  18.095  13.595  14.873
61212W        W33637  39.584  26.406   1.860
61213W        W33638   4.710   9.890  13.996
61214W        W33639  20.077  42.530   3.235
61215W        W33640  35.152  10.382   0.342
61216W        W33641   2.180  32.546  13.348
61217W        W33642   4.653   8.684   3.676
61218W        W33643   1.709   7.687   1.297
61219W        W33644   2.794   8.281  11.929
61220W        W33645  12.550   3.778  14.046
61221W        W33646   5.242   2.753  13.487
61222W        W33647  34.008  15.258  11.378
61223W        W33648  21.595   1.523  13.536
61224W        W33649  26.203  17.867  12.093
61225W        W33650  41.074  34.640  11.630
61226W        W33651  39.370  39.065  12.869
61227W        W33652  17.594  14.165  10.743
61228W        W33653  27.632  12.310   3.372
61229W        W33654  18.178  25.933  13.592
61230W        W33655  13.662  44.924   4.649
61231W        W33656  25.799  25.635   2.104
61232W        W33657  31.650  20.273  12.475
61233W        W33658  42.624  14.249   2.184
61234W        W33659   9.341   1.931  12.919
61235W        W33660  15.262  27.544  11.164
61236W        W33661  18.096  26.932  13.120
61237W        W33662   0.242   6.723   3.790
61238W        W33663  37.376  38.408   0.907
61239W        W33664  36.654   6.271   1.753
61240W        W33665  20.171  40.209   1.731
61241W        W33666  31.150   4.688  11.102
61242W        W33667  20.136   5.297   4.430
61243W        W33668  20.467  31.888   0.826
61244W        W33669  44.862  17.009  12.814
61245W        W33670  42.850  29.260   0.800
61246W        W33671  41.041  30.213   2.330
61247W        W33672  42.489   9.630  12.118
61248W        W33673  10.979  28.731   0.183
61249W        W33674  30.226  19.953   0.418
61250W        W33675  24.552  14.078   0.413
61251W        W33676  31.222  29.046  13.404
61252W        W33677   8.844  19.585  11.538
61253W        W33678  23.899  25.651   1.885
61254W        W33679   9.639  21.378   3.809
61255W        W33680  37.897  19.638   2.828
61256W        W33681  30.448  19.393  11.036
61257W        W33682  21.715  10.560   1.757
61258W        W33683  44.276  30.228  10.091
61259W        W33684   1.217  23.095  10.706
61260W        W33685  43.434  18.097   3.158
61261W        W33686  41.580  30.665  12.488
61262W        W33687  44.747  36.179   4.869
61263W        W33688  27.250  40.551   1.520
61264W        W33689  42.023  40.379   1.314
61265W        W33690   0.411  12.781   3.452
61266W        W33691  10.327  20.783  13.773
61267W        W33692  30.904  42.573  13.874
61268W        W33693  44.832   4.809   1.505
61269W        W33694  24.008   7.138  12.639
61270W        W33695  29.406  35.664   2.832
61271W        W33696  10.665  35.581  13.157
61272W        W33697  12.312  30.013  14.422
61273W        W33698  40.329  34.878   4.486
61274W        W33699  25.166  39.380  10.889
61275W        W33700  31.360  23.488  13.590
61276W        W33701  41.578   3.940  10.620
61277W        W33702   5.106  14.309  12.077
61278W        W33703  21.456  17.683   3.951
61279W        W33704  24.536   9.267   4.075
61280W        W33705  32.212  38.981   1.901
61281W        W33706   7.791  29.596   3.792
61282W        W33707  19.518   5.416   3.674
61283W        W33708  35.721  10.422  14.023
61284W        W33709  42.165  42.835  11.053
61285W        W33710  10.575   3.287  14.370
61286W        W33711  22.772  33.707   0.977
61287W        W33712  12.058  17.636  13.660
61288W        W33713  37.109  25.269  10.721
61289W        W33714   7.187  35.359  11.139
61290W        W33715   6.659   5.232   4.599
61291W        W33716  21.023  15.187   2.796
61292W        W33717   2.836  23.873  11.167
61293W        W33718   0.774  34.369  12.522
61294W        W33719   2.070   9.432   2.535
61295W        W33720  25.477  21.803   4.112
61296W        W33721   8.324  24.200   0.820
61297W        W33722  17.060  12.795   1.380
61298W        W33723  39.901   4.996   2.394
61299W        W33724   0.809  39.930   0.839
61300W        W33725   2.757  22.900   4.721
61301W        W33726  21.495  31.084   3.183
61302W        W33727  25.219  38.813   0.049
61303W        W33728  39.190  28.398  10.265
61304W        W33729   1.717  36.327  13.001
61305W        W33730  37.165  25.150   1.806
61306W        W33731  28.729  36.374   0.160
61307W        W33732  20.825  10.898   0.328
61308W        W33733  10.838   4.167   4.273
61309W        W33734   7.368   4.847  12.203
61310W        W33735  15.830   0.212   2.387
61311W        W33736   2.990   6.306  12.378
61312W        W33737  38.601  12.005  13.538
61313W        W33738  12.307   8.846   1.752
61314W        W33739  18.321  44.868   1.866
61315W        W33740  14.123   4.340  13.409
61316W        W33741  21.997  12.209   4.313
61317W        W33742   6.386  29.003   3.346
61318W        W33743  19.283  19.327   1.067
61319W        W33744  26.045   0.522   5.028
61320W        W33745  22.249  44.588  11.099
61321W        W33746  20.535  30.456   3.836
61322W        W33747  19.184  44.356  13.060
61323W        W33748   3.448  42.824   5.269
61324W        W33749  43.711   2.515   3.798
61325W        W33750   3.678  12.739   4.610
61326W        W33751  10.743  29.424  12.015
61327W        W33752   5.107   6.195   1.855
61328W        W33753  31.703   9.651  12.433
61329W        W33754  44.946  30.155  13.418
61330W        W33755   2.449  41.554   5.099
61331W        W33756   2.435  25.524  12.971
61332W        W33757  42.028  30.537   3.310
61333W        W33758  12.668  42.259  13.635
61334W        W33759  44.016   6.831   2.708
61335W        W33760  43.868   3.909   0.496
61336W        W33761   1.551  25.023  14.916
61337W        W33762  39.218   5.409   3.643
61338W        W33763  16.269  39.026   1.953
61339W        W33764  12.565   6.784  14.407
61340W        W33765   4.389  40.079   1.884
61341W        W33766  11.205  14.297   1.941
61342W        W33767  17.043   2.401  13.551
61343W        W33768   6.731  31.980   1.637
61344W        W33769  33.611  22.501   4.127
61345W        W33770   2.156  24.474  12.807
61346W        W33771   8.592  19.128   1.767
61347W        W33772  25.427   8.646  11.737
61348W        W33773  26.508  27.121   5.121
61349W        W33774  41.407  37.602   0.490
61350W        W33775  33.924  44.839   3.248
61351W        W33776  36.567  10.254  13.767
61352W        W33777  29.860  12.083   2.311
61353W        W33778  24.635  35.574  11.569
61354W        W33779  34.148  25.528   4.827
61355W        W33780  18.572  21.519  10.435
61356W        W33781  29.268  30.149   2.313
61357W        W33782   9.285  15.278   4.669
61358W        W33783   5.779  20.210  14.906
61359W        W33784  25.444  38.185  11.188
61360W        W33785  15.056  42.482   4.141
61361W        W33786  30.509   9.278  12.344
61362W        W33787  11.691  21.486  14.352
61363W        W33788  31.292  20.667  12.542
61364W        W33789  25.970  32.478   5.403
61365W        W33790  25.489  35.024  12.602
61366W        W33791  36.330  34.699   2.724
61367W        W33792  21.223  37.017   0.579
61368W        W33793  26.178  17.556  13.292
61369W        W33794  11.618  28.156  11.140
61370W        W33795  12.379  35.417  14.972
61371W        W33796  35.306  32.979  11.536
61372W        W33797  13.618  13.534  11.261
61373W        W33798  22.400  41.233   0.479
61374W        W33799  21.946  24.968  14.263
61375W        W33800  16.154  30.040   4.596
61376W        W33801  15.313  17.292  13.820
61377W        W33802  15.668  20.367   2.715
61378W        W33803   3.074  41.483   2.315
61379W        W33804   1.870   6.516  11.136
61380W        W33805  23.071   2.814  10.707
61381W        W33806  43.261  32.186  12.682
61382W        W33807  19.319  41.932  10.665
61383W        W33808   0.336  11.678  10.691
61384W        W33809  37.198  13.240  13.261
61385W        W33810   2.024   3.284   3.638
61386W        W33811   5.858  42.623  12.181
61387W        W33812  25.631  19.169  12.118
61388W        W33813  27.540  44.353   0.051
61389W        W33814  39.372   6.413  11.578
61390W        W33815  36.887  12.172   0.311
61391W        W33816  23.016  25.674  14.413
61392W        W33817  29.523  12.936  14.905
61393W        W33818  21.580   6.215   0.194
61394W        W33819  18.653  33.594  11.411
61395W        W33820  20.048   3.752   2.401
61396W        W33821  34.358  42.362  11.169
61397W        W33822  36.533  10.626  14.453
61398W        W33823   6.355  16.297  11.572
61399W        W33824   0.643   8.916  10.730
61400W        W33825  22.792  27.696  13.431
61401W        W33826  44.941  41.790   1.753
61402W        W33827   9.645  30.520   3.635
61403W        W33828  20.736  18.903  10.744
61404W        W33829   9.246  28.955  14.837
61405W        W33830   6.163  32.162  13.956
61406W        W33831  38.567  25.258  13.961
61407W        W33832  24.944  31.069   0.478
61408W        W33833  40.310  14.309   4.231
61409W        W33834  17.947   6.336  12.181
61410W        W33835  25.552  16.080  13.974
61411W        W33836  13.559  33.002   4.811
61412W        W33837  10.157  22.036   3.161
61413W        W33838  41.864  41.000  12.057
61414W        W33839  14.713  14.899   0.313
61415W        W33840  22.986  34.203   1.223
61416W        W33841  38.588   4.657   1.736
61417W        W33842  41.445   7.630  11.155
61418W        W33843  33.202  21.038   3.230
61419W        W33844  20.984  36.039  13.771
61420W        W33845  23.521  26.495   1.821
61421W        W33846  23.450   4.077   3.821
61422W        W33847  20.575  17.891  10.988
61423W        W33848  13.109  11.387  10.963
61424W        W33849  33.473  38.596  11.683
61425W        W33850   8.127  24.539   3.730
61426W        W33851   8.756  38.622  13.884
61427W        W33852  35.448  30.578  13.283
61428W        W33853  15.619  26.561  12.565
61429W        W33854  15.304  32.400   3.676
61430W        W33855  24.192  18.118  14.419
61431W        W33856   9.157   8.348   0.068
61432W        W33857  23.548  25.178   1.189
61433W        W33858  36.209  11.795   3.728
61434W        W33859   8.388  37.940   1.263
61435W        W33860  43.182  25.393   3.752
61436W        W33861  17.303   2.592   3.714
61437W        W33862  37.486  28.209   1.156
61438W        W33863  10.758   0.926   4.540
61439W        W33864   0.278  34.863  13.311
61440W        W33865   7.167   2.076  10.641
61441W        W33866  22.111  17.483  13.293
61442W        W33867   5.770  36.550   4.098
61443W        W33868  11.159  25.422   2.885
61444W        W33869  34.870  37.292   1.410
61445W        W33870  27.450   5.797   0.990
61446W        W33871  23.976   2.727   1.783
61447W        W33872  26.180  30.165  10.601
61448W        W33873   2.805  27.535  13.932
61449W        W33874  13.301  13.781   0.295
61450W        W33875  36.019  21.609   0.832
61451W        W33876   5.718   0.810  12.448
61452W        W33877  37.275  17.780  14.275
61453W        W33878   4.949  19.235  14.075
61454W        W33879  37.414   7.207   0.871
61455W        W33880   4.799  40.786  10.671
61456W        W33881   5.669   2.297  12.030
61457W        W33882   4.273  23.679   0.211
61458W        W33883  23.080  16.708  14.225
61459W        W33884  26.692  27.958  13.536
61460W        W33885  12.285  10.068  12.389
61461W        W33886  36.503  14.754  14.371
61462W        W33887  10.320  18.128  10.547
61463W        W33888   8.272  33.523  13.493
61464W        W33889  23.298  19.099  11.033
61465W        W33890  17.865  22.997  13.452
61466W        W33891   5.959  23.804  14.295
61467W        W33892  26.569  39.978   2.501
61468W        W33893  42.875  32.547   0.183
61469W        W33894  25.120  22.242   0.763
61470W        W33895  16.145  15.536   1.880
61471W        W33896   6.485  14.392   0.505
61472W        W33897  23.282  18.642   0.839
61473W        W33898  25.914  23.121  14.839
61474W        W33899  12.490   0.253   0.061
61475W        W33900  40.547  39.117   1.864
61476W        W33901   0.305  19.674   3.186
61477W        W33902  29.445   7.394   0.507
61478W        W33903   8.104  30.884   0.446
61479W        W33904  22.648  38.391  11.972
61480W        W33905  25.749  32.234  10.216
61481W        W33906  19.731   3.361   3.278
61482W        W33907  37.846  17.774   3.194
61483W        W33908  42.610  42.448   1.005
61484W        W33909   7.419  20.553  13.416
61485W        W33910  39.431  28.126   4.142
61486W        W33911  36.577  30.973   1.705
61487W        W33912   3.398  19.258  12.029
61488W        W33913   6.646  16.533  11.975
61489W        W33914  36.022  14.966   1.199
61490W        W33915  35.370  12.507   4.760
61491W        W33916   9.864  13.814  12.393
61492W        W33917  23.624  19.464  10.711
61493W        W33918  33.313  37.375  12.574
61494W        W33919   1.449  19.321  14.724
61495W        W33920  21.833  34.118  11.684
61496W        W33921  11.786  41.754   4.255
61497W        W33922  35.957  16.564   3.123
61498W        W33923   5.867  36.399   1.665
61499W        W33924   6.727  27.933   3.291
61500W        W33925  29.341   8.732   4.933
61501W        W33926  33.808  42.845   2.778
61502W        W33927  10.791  10.975   4.360
61503W        W33928  28.743   0.847   0.471
61504W        W33929  11.509  20.121   2.842
61505W        W33930  37.065  38.057   1.303
61506W        W33931  27.604  43.846  11.683
61507W        W33932   9.180  29.477  13.845
61508W        W33933  12.034  24.985   1.867
61509W        W33934   1.504  38.397   4.201
61510W        W33935  42.535  40.808   3.745
61511W        W33936  30.946  28.571   3.107
61512W        W33937  12.066  26.003  12.484
61513W        W33938  15.428  11.210   3.654
61514W        W33939  27.670  13.590  11.246
61515W        W33940  42.250  27.322  11.805
61516W        W33941  32.892   9.221  13.372
61517W        W33942  24.082  16.288   2.213
61518W        W33943  26.949   6.913  13.516
61519W        W33944  33.349  15.075  13.808
61520W        W33945  30.235   8.105  12.639
61521W        W33946  18.182  22.614  14.901
61522W        W33947  22.700  14.707   0.062
61523W        W33948  22.960  34.594   0.003
61524W        W33949  36.872  28.554   4.596
61525W        W33950   3.811  32.393   0.028
61526W        W33951  18.564   2.453  11.086
61527W        W33952  38.248  27.889  11.969
61528W        W33953   8.302  25.937   3.584
61529W        W33954  32.120  40.790   3.318
61530W        W33955   9.469   6.228   3.568
61531W        W33956  14.778   9.052   0.797
61532W        W33957  17.288  14.137  13.082
61533W        W33958  40.821  37.113  12.195
61534W        W33959   3.881  32.904  14.921
61535W        W33960  42.737   6.931  11.726
61536W        W33961   6.277  13.876  13.355
61537W        W33962  13.845   4.754  14.916
61538W        W33963  15.730   1.921  10.627
61539W        W33964  19.414   2.369  11.917
61540W        W33965   1.010  19.095   4.575
61541W        W33966   3.948  22.302  13.045
61542W        W33967   2.814  42.536  10.899
61543W        W33968  16.623  10.214   3.321
61544W        W33969  37.793   6.219  11.963
61545W        W33970  10.760  21.016   0.771
61546W        W33971  10.273  43.775   0.982
61547W        W33972  32.742  28.884   1.864
61548W        W33973   6.537  29.426   0.471
61549W        W33974  16.598  41.864   3.380
61550W        W33975  24.979  44.024   1.443
61551W        W33976  19.794  10.469   3.797
61552W        W33977  35.565  19.493   1.566
61553W        W33978   8.328  15.995  14.512
61554W        W33979  32.012  22.784  10.696
61555W        W33980  16.323  16.042  14.387
61556W        W33981  16.672   2.578  11.660
61557W        W33982  23.970  15.060   1.906
61558W        W33983   7.472  37.424  12.882
61559W        W33984   7.304  22.071   0.531
61560W        W33985   6.716  17.733  12.479
61561W        W33986  22.290  15.510   4.999
61562W        W33987  41.230  15.132   3.666
61563W        W33988  24.992  14.085   4.615
61564W        W33989   7.439  28.226  12.350
61565W        W33990   4.292  12.528  12.883
61566W        W33991   7.657   3.726   2.909
61567W        W33992   2.552  18.403  10.345
61568W        W33993   1.881   2.349   1.213
61569W        W33994  14.852  20.704  14.988
61570W        W33995  13.765  29.082  14.909
61571W        W33996  38.484  20.572   4.605
61572W        W33997  21.697   4.467   1.184
61573W        W33998  33.131  15.819  11.563
61574W        W33999  21.175  34.362  11.072
61575W        W34000  41.964  34.365   3.417
61576W        W34001  31.104   4.320  14.852
61577W        W34002  23.019   4.667   1.491
61578W        W34003   5.646  22.815   4.762
61579W        W34004   5.085  36.082   4.330
61580W        W34005  36.538  36.062   2.430
61581W        W34006  43.471  15.089  11.103
61582W        W34007   8.756  40.748  10.769
61583W        W34008  30.140  37.571   1.897
61584W        W34009  40.348  26.641   2.866
61585W        W34010   6.409  15.551  14.477
61586W        W34011  28.156   3.465  13.454
61587W        W34012  32.050  44.371   0.266
61588W        W34013  20.113  38.767   4.859
61589W        W34014  29.458  13.350   2.570
61590W        W34015  23.268  36.758  12.984
61591W        W34016  11.748  14.160  12.575
61592W        W34017  17.246   0.218  12.445
61593W        W34018   8.883  33.060  14.345
61594W        W34019  30.337  17.977   4.433
61595W        W34020  26.407  25.028   3.205
61596W        W34021  17.364   0.452   0.336
61597W        W34022  26.918  38.766  13.651
61598W        W34023  23.039  36.536   1.159
61599W        W34024   4.583  31.264   3.397
61600W        W34025   8.366  28.121  14.380
61601W        W34026  22.998  12.177   2.303
61602W        W34027  29.900   5.317   3.253
61603W        W34028  15.603  35.609   3.265
61604W        W34029  40.351   2.884   3.283
61605W        W34030  37.634   8.902  12.320
61606W        W34031  35.079   3.872  13.086
61607W        W34032  19.615  14.549  13.766
61608W        W34033  35.460  32.177   4.956
61609W        W34034  15.520  20.346  11.386
61610W        W34035  28.159  36.578   4.947
61611W        W34036  14.629  41.072   2.142
61612W        W34037  32.086  12.333  14.823
61613W        W34038  30.615  44.954   0.512
61614W        W34039  43.413   5.566   0.417
61615W        W34040  11.132  28.233   2.315
61616W        W34041  15.168  33.076  10.732
61617W        W34042  41.003  15.626   1.159
61618W        W34043  23.250  31.757  13.773
61619W        W34044  10.730  30.861  14.039
61620W        W34045   3.299  24.577   1.763
61621W        W34046  34.596   5.730   4.741
61622W        W34047   5.967  13.351   4.199
61623W        W34048  22.264  15.770  12.956
61624W        W34049  35.542  30.713   3.496
61625W        W34050  29.661  30.043  14.760
61626W        W34051  27.488  24.671   1.222
61627W        W34052  21.442  30.720   3.616
61628W        W34053  42.081  38.919   0.211
61629W        W34054   0.220   9.418  12.429
61630W        W34055  15.372  24.769  13.096
61631W        W34056  26.543  40.502   2.776
61632W        W34057  32.851   9.342   1.703
61633W        W34058  10.649  36.085  13.957
61634W        W34059  13.185  29.166   0.220
61635W        W34060  28.776  31.949  14.754
61636W        W34061  13.037  13.203   3.138
61637W        W34062  19.590  15.603  10.885
61638W        W34063  18.296   7.796  14.871
61639W        W34064  22.990  35.956   4.644
61640W        W34065   0.031  34.479  13.011
61641W        W34066  44.589  40.590   0.422
61642W        W34067  24.161  19.250   0.162
61643W        W34068  25.694   6.215   1.448
61644W        W34069  22.324  17.111  10.150
61645W        W34070   8.353  12.661  12.595
61646W        W34071  12.288   1.308  10.222
61647W        W34072  37.268  12.236   4.615
61648W        W34073  33.483  20.181   2.119
61649W        W34074  21.097  40.355  11.111
61650W        W34075  31.377  30.539   2.793
61651W        W34076  15.989  36.810   1.328
61652W        W34077   3.971  15.227   1.445
61653W        W34078  23.506   4.780   2.439
61654W        W34079   1.656  13.636  11.298
61655W        W34080  27.178  37.406  11.364
61656W        W34081   6.643   6.253   0.862
61657W        W34082  23.590   6.133   0.738
61658W        W34083  18.704  27.447   0.570
61659W        W34084  44.360  10.437   2.273
61660W        W34085  43.437  35.628  13.933
61661W        W34086  23.735  35.881   3.578
61662W        W34087  21.467  19.499  13.858
61663W        W34088  18.179   4.675   2.626
61664W        W34089   1.334   9.917  14.954
61665W        W34090   0.768  40.476  13.239
61666W        W34091  34.093   3.874  11.637
61667W        W34092  39.847  43.742  10.570
61668W        W34093  30.654  30.554  14.785
61669W        W34094  37.418   8.095   4.800
61670W        W34095  11.338  37.848   0.049
61671W        W34096  11.327  32.452   0.929
61672W        W34097  27.445  28.544  11.423
61673W        W34098  14.823   1.393  12.957
61674W        W34099  37.982  23.754   1.869
61675W        W34100  12.889   4.297   0.699
61676W        W34101  19.317   6.439   3.828
61677W        W34102   0.767  39.270   2.448
61678W        W34103   8.351  19.083   2.291
61679W        W34104   6.151  16.743   1.577
61680W        W34105  17.987  10.286   3.435
61681W        W34106  42.492   2.253  14.439
61682W        W34107  39.454  15.552  12.050
61683W        W34108  34.411  16.713   4.733
61684W        W34109   1.311  38.487   3.713
61685W        W34110  28.027  20.165  13.534
61686W        W34111  11.646  11.094  13.518
61687W        W34112  29.920  21.686   3.266
61688W        W34113  21.199  37.361   3.297
61689W        W34114   4.341  10.410   4.464
61690W        W34115   3.945  30.912   0.699
61691W        W34116  38.474   3.383  10.351
61692W        W34117  10.282  38.960   4.596
61693W        W34118   5.395   3.683   3.926
61694W        W34119  17.775   7.833   4.602
61695W        W34120   4.657  24.922  14.450
61696W        W34121  33.991  26.612   9.985
61697W        W34122   7.622  18.992   1.894
61698W        W34123  27.588  11.520  12.054
61699W        W34124   4.468  31.601   3.773
61700W        W34125  36.561   8.933   5.241
61701W        W34126  26.645  21.566  13.832
61702W        W34127  34.581  22.721   4.106
61703W        W34128  16.146  34.764   1.257
61704W        W34129  38.301  37.341  13.095
61705W        W34130  13.098   5.658   1.669
61706W        W34131   8.264   2.171   2.222
61707W        W34132  35.321   5.977  13.675
61708W        W34133  35.066  18.325  10.343
61709W        W34134  36.985   8.864   3.743
61710W        W34135  17.795  29.132   0.744
61711W        W34136  14.295  35.540   1.346
61712W        W34137   4.133  19.141  14.338
61713W        W34138  36.320  44.393   2.271
61714W        W34139  43.066   0.975  13.365
61715W        W34140  21.170  12.691  14.480
61716W        W34141  27.460  37.998   0.963
61717W        W34142   3.895  43.957  14.474
61718W        W34143   2.450   3.718   2.824
61719W        W34144  36.533  35.936   0.209
61720W        W34145  17.323   4.933  11.848
61721W        W34146  44.151  16.327  14.370
61722W        W34147   9.668  28.140  13.082
61723W        W34148  36.036  12.704   0.038
61724W        W34149  24.553  23.527  11.371
61725W        W34150  39.272  24.904  13.030
61726W        W34151   9.797  38.275   1.328
61727W        W34152  33.442  25.006   4.569
61728W        W34153  23.476  41.198   0.755
61729W        W34154  22.964  17.123  14.549
61730W        W34155  32.310  29.530   3.136
61731W        W34156  17.085  12.267   1.241
61732W        W34157  37.511   4.399  14.108
61733W        W34158  42.413  20.364   2.783
61734W        W34159   4.280  36.869  12.950
61735W        W34160  11.554   8.823   0.497
61736W        W34161  11.620  35.132   1.380
61737W        W34162  20.311  26.570  12.592
61738W        W34163  15.173   5.138  10.561
61739W        W34164  44.517  13.912  14.012
61740W        W34165   1.231  32.953   0.752
61741W        W34166  43.016  10.922  13.011
61742W        W34167   4.532   9.425  13.827
61743W        W34168  33.580  13.234   3.119
61744W        W34169  27.025  35.853   4.062
61745W        W34170  35.182  40.464   2.429
61746W        W34171  10.852  20.632  12.429
61747W        W34172  30.527  11.542   1.916
61748W        W34173  39.162  25.625   0.399
61749W        W34174  37.542  39.288   1.776
61750W        W34175  31.501  22.610  14.316
61751W        W34176  29.518  37.902  13.991
61752W        W34177  36.179  11.699  12.058
61753W        W34178  13.121  20.283  10.438
61754W        W34179  13.217  16.821  13.109
61755W        W34180  10.278  17.130  14.158
61756W        W34181  17.725  23.904  10.761
61757W        W34182   9.426   7.047   0.743
61758W        W34183   0.273  43.467  12.078
61759W        W34184  29.867  15.889  13.892
61760W        W34185  38.258  25.196  12.963
61761W        W34186  40.523  24.293   0.926
61762W        W34187  14.240  34.662   1.691
61763W        W34188  21.453  23.008  12.158
61764W        W34189  18.089  42.526   2.337
61765W        W34190  27.882  17.027  11.630
61766W        W34191  19.739  21.504   3.167
61767W        W34192  29.094  16.351  14.513
61768W        W34193  13.327  38.955   1.162
61769W        W34194   8.333  40.537   2.690
61770W        W34195  43.298   3.252   2.136
61771W        W34196  26.176  35.060  11.877
61772W        W34197   1.738   6.674   0.868
61773W        W34198   8.445   1.307   2.232
61774W        W34199   0.127   5.422  13.358
61775W        W34200  14.166  44.211  13.459
61776W        W34201   4.350   7.467  12.093
61777W        W34202  21.791  35.484  10.947
61778W        W34203   4.214  14.785   1.375
61779W        W34204   0.436  23.178   3.822
61780W        W34205  16.493  20.748  13.365
61781W        W34206   9.674  39.538   4.563
61782W        W34207  42.806  42.290  14.811
61783W        W34208  20.592  21.940  13.304
61784W        W34209   7.050  29.455   0.409
61785W        W34210  43.672  26.215   0.357
61786W        W34211  35.614   2.222   2.762
61787W        W34212   5.927   5.493   3.616
61788W        W34213  33.106  14.725   0.125
61789W        W34214   3.747   6.908   4.135
61790W        W34215  28.088  41.816  13.041
61791W        W34216   7.342  22.999  12.187
61792W        W34217  25.597  22.501   4.635
61793W        W34218  11.218  11.431  12.888
61794W        W34219  11.614  41.147  12.588
61795W        W34220   9.947  31.912  11.517
61796W        W34221  30.424   6.429  14.468
61797W        W34222  36.303  16.132   0.469
61798W        W34223  15.188  19.097  11.519
61799W        W34224  15.128  31.020   3.523
61800W        W34225  41.009  31.579  11.572
61801W        W34226  27.637   6.963  10.386
61802W        W34227  23.892  13.114   0.970
61803W        W34228  10.709  36.063  13.400
61804W        W34229  15.309  24.669   3.635
61805W        W34230  19.622  30.649   3.701
61806W        W34231  10.912  11.819   4.173
61807W        W34232  14.187  18.167   0.889
61808W        W34233  17.576  27.428   0.816
61809W        W34234  44.071  41.243  11.586
61810W        W34235  33.860  33.825  13.743
61811W        W34236  41.735  34.154   0.309
61812W        W34237  13.586  27.546   1.529
61813W        W34238  29.898  39.390  13.829
61814W        W34239  21.753  28.969   4.535
61815W        W34240  33.558  22.676  13.793
61816W        W34241  33.668  37.008  12.700
61817W        W34242  31.585  17.753   2.744
61818W        W34243  14.325   3.418  14.015
61819W        W34244  18.739  25.655   3.680
61820W        W34245  30.241  26.565  12.323
61821W        W34246   6.230   4.788  12.356
61822W        W34247  17.466  33.018   3.121
61823W        W34248  26.759  17.703   3.130
61824W        W34249  20.773  34.838   2.715
61825W        W34250  35.439   8.155  14.462
61826W        W34251  12.094  25.646   4.990
61827W        W34252   8.564  40.521  14.423
61828W        W34253   7.753  39.816   4.238
61829W        W34254  27.304  31.383  12.033
61830W        W34255  25.557  22.467   0.974
61831W        W34256  27.950  22.797   9.739
61832W        W34257   6.309  35.160  13.735
61833W        W34258  18.684  41.376   1.288
61834W        W34259  32.100   7.307  10.678
61835W        W34260  41.790   6.420   3.316
61836W        W34261  24.693  17.584  10.584
61837W        W34262  16.620  22.572  13.211
61838W        W34263  22.119  21.273  11.995
61839W        W34264  44.247  42.282   4.911
61840W        W34265   3.000  31.049  13.083
61841W        W34266   7.718  24.079  14.072
61842W        W34267  29.491  13.313   3.175
61843W        W34268  26.933   0.889   3.713
61844W        W34269  17.560  16.730  12.449
61845W        W34270  12.634  30.985   3.074
61846W        W34271  17.663  33.086   2.645
61847W        W34272   4.903  43.328  11.018
61848W        W34273  33.191  26.104  13.586
61849W        W34274  17.249  36.281   1.633
61850W        W34275  36.916   9.822  12.099
61851W        W34276  24.267   2.840   0.077
61852W        W34277  13.103   9.815  13.954
61853W        W34278  32.407  28.702   2.221
61854W        W34279  26.151  31.359  12.435
61855W        W34280   8.622   3.285   3.694
61856W        W34281  37.434   0.031   4.075
61857W        W34282  27.882  17.111  14.893
61858W        W34283  26.710   0.944   3.257
61859W        W34284  22.159   4.055   4.084
61860W        W34285  41.337   0.030   4.132
61861W        W34286  37.552   1.473   1.306
61862W        W34287  10.806  40.253   3.179
61863W        W34288   2.978  13.759  13.556
61864W        W34289   6.237   2.934   2.168
61865W        W34290  20.113   1.196  10.743
61866W        W34291   3.684   8.486   2.424
61867W        W34292  24.781  18.531   1.027
61868W        W34293  24.265  16.361  11.166
61869W        W34294  32.320  13.122   1.521
61870W        W34295   5.034  28.075   5.144
61871W        W34296  15.054  40.172  13.543
61872W        W34297   8.803  15.857   2.682
61873W        W34298  24.112  38.311  13.121
61874W        W34299  38.497  21.536  10.368
61875W        W34300   3.685  30.922   1.878
61876W        W34301   2.316  18.121   4.342
61877W        W34302   3.452  43.764   3.255
61878W        W34303  15.868  26.084  12.804
61879W        W34304  21.865  39.014  13.591
61880W        W34305  34.894  22.612  14.480
61881W        W34306  27.689  21.488   3.697
61882W        W34307   6.591  13.070   1.349
61883W        W34308  31.580  36.896   1.887
61884W        W34309   4.494  42.280   4.190
61885W        W34310  22.686   9.602   0.846
61886W        W34311  21.665  10.783   2.656
61887W        W34312   3.011  44.970   0.973
61888W        W34313  26.955   9.924  11.699
61889W        W34314  16.644  10.128  14.773
61890W        W34315  11.446  10.157  10.312
61891W        W34316  10.609   2.656  13.313
61892W        W34317  40.831  38.346  13.492
61893W        W34318  30.271  41.455  10.964
61894W        W34319  10.213   5.945  13.998
61895W        W34320  17.575  38.863   1.380
61896W        W34321  16.883  37.815  14.817
61897W        W34322  20.345  19.534   0.336
61898W        W34323  25.528  43.462  13.368
61899W        W34324  34.590  20.588  14.756
61900W        W34325  21.560  17.991   2.219
61901W        W34326  33.999  35.835  12.565
61902W        W34327   6.285  25.589   3.383
61903W        W34328  32.171  26.685  10.979
61904W        W34329  16.329  10.223   2.649
61905W        W34330  29.048  43.340  12.878
61906W        W34331  43.757  37.523   1.361
61907W        W34332  12.828  13.412  11.745
61908W        W34333  23.168   7.722  12.864
61909W        W34334  33.099   9.747  14.431
61910W        W34335  33.299  13.345  10.562
61911W        W34336  40.814  22.343   5.487
61912W        W34337   9.837  18.711   2.228
61913W        W34338  24.475  11.153   4.749
61914W        W34339  44.280  24.685   2.407
61915W        W34340  32.925  29.448  12.032
61916W        W34341  26.956  36.563   4.614
61917W        W34342  31.466   3.250  11.657
61918W        W34343   6.191  15.658  14.010
61919W        W34344  24.884   5.938  11.032
61920W        W34345  27.092   3.842  10.714
61921W        W34346  28.413   3.673   1.875
61922W        W34347  14.861   4.809   4.760
61923W        W34348  37.433  25.014   3.680
61924W        W34349  29.099  43.074   1.830
61925W        W34350  12.609  19.106  11.087
61926W        W34351  31.098   3.497   2.608
61927W        W34352  16.222  11.938   3.306
61928W        W34353  16.602  24.636  12.387
61929W        W34354  15.680   5.568   3.123
61930W        W34355  29.053   4.934  11.257
61931W        W34356   9.364  23.523  12.455
61932W        W34357  38.356  37.957   4.612
61933W        W34358  21.020  29.591  12.564
61934W        W34359  25.780  17.609  14.851
61935W        W34360  32.947  38.793   3.159
61936W        W34361   9.279   4.822   1.878
61937W        W34362  40.081   5.243   3.423
61938W        W34363   6.330  38.831   2.254
61939W        W34364   4.214  38.467  11.629
61940W        W34365  33.325  13.090   1.801
61941W        W34366  29.148  21.103   1.686
61942W        W34367  13.851   7.006  12.008
61943W        W34368  31.723  26.009  14.695
61944W        W34369   8.385  28.673  14.466
61945W        W34370   5.597  13.093   4.432
61946W        W34371   8.566  20.190   2.703
61947W        W34372   2.508  16.962  13.322
61948W        W34373  26.557  35.438  14.539
61949W        W34374  34.812  14.620  10.617
61950W        W34375  24.243  26.924   3.308
61951W        W34376  20.289  16.322  14.595
61952W        W34377  22.625  36.485   2.481
61953W        W34378  15.036  40.031   4.127
61954W        W34379  29.108  18.759   1.506
61955W        W34380  40.434  31.198  13.331
61956W        W34381  13.849  29.822   3.223
61957W        W34382  36.605  38.367  13.844
61958W        W34383  42.074  22.181   2.232
61959W        W34384  12.495   3.933   3.824
61960W        W34385   1.263  31.454  13.231
61961W        W34386  36.423  12.531   2.350
61962W        W34387  30.457   9.355   4.710
61963W        W34388  16.472   6.760   2.281
61964W        W34389  17.101  11.087   3.253
61965W        W34390   0.985  33.633  10.313
61966W        W34391  24.716  18.664   2.452
61967W        W34392  33.389  34.998   3.803
61968W        W34393   4.056  10.660  13.423
61969W        W34394  15.671  30.889   0.956
61970W        W34395   3.535   9.251  14.036
61971W        W34396   2.599   1.486  11.620
61972W        W34397  42.265  39.745  13.702
61973W        W34398  23.792   6.947   0.514
61974W        W34399  26.976  39.496   4.631
61975W        W34400   6.988  18.825  12.972
61976W        W34401  38.396  19.112  10.519
61977W        W34402  25.714  22.122   3.794
61978W        W34403  14.149  36.536   1.554
61979W        W34404  27.125  39.742   3.143
61980W        W34405  43.946  41.383  13.979
61981W        W34406   0.218  30.654  14.876
61982W        W34407  24.853  20.978   0.347
61983W        W34408  37.404  28.696  11.666
61984W        W34409   0.853  27.989  12.114
61985W        W34410  39.074  34.862  14.392
61986W        W34411  15.799   9.041   1.840
61987W        W34412  20.065  30.422   3.609
61988W        W34413  38.027  24.590  14.048
61989W        W34414  25.940  22.441  14.717
61990W        W34415  14.016  19.461  12.417
61991W        W34416   5.786  31.557  10.241
61992W        W34417   7.861   5.314   3.114
61993W        W34418  22.254  44.451   3.410
61994W        W34419  25.281  18.143   1.651
61995W        W34420  29.310  23.624  14.403
61996W        W34421  44.231  15.689   1.856
61997W        W34422  26.701  24.127   3.190
61998W        W34423  33.105  20.098  13.805
61999W        W34424  41.338  28.970  14.711
62000W        W34425   2.786  33.912  13.772
62001W        W34426  30.549  24.575   4.570
62002W        W34427   2.314  31.527   0.453
62003W        W34428  43.407  11.431  11.090
62004W        W34429  32.876  22.260   2.947
62005W        W34430  40.852  18.233   1.273
62006W        W34431  10.408  14.856   0.927
62007W        W34432   0.345   6.238   1.823
62008W        W34433  11.344  25.250   0.756
62009W        W34434  21.478  34.121   3.209
62010W        W34435  44.342  39.104   5.119
62011W        W34436  20.465  21.692   1.192
62012W        W34437   7.683  11.823  10.791
62013W        W34438  22.995  19.013   2.180
62014W        W34439  11.079   3.315   3.786
62015W        W34440  13.845  18.623  10.854
62016W        W34441   7.163  18.687   3.340
62017W        W34442  38.907  15.574   1.460
62018W        W34443  15.628  28.989   2.178
62019W        W34444   0.288  44.778   1.328
62020W        W34445  26.174  33.873   0.910
62021W        W34446  32.299  33.369   3.193
62022W        W34447  22.387  17.680   2.388
62023W        W34448   6.645  40.952   2.408
62024W        W34449  26.007  17.728  14.385
62025W        W34450  44.328  17.973   4.184
62026W        W34451  14.872  30.103  11.024
62027W        W34452  28.944  39.762  13.959
62028W        W34453  30.363   1.711   1.288
62029W        W34454  21.105  20.753  12.583
62030W        W34455  24.384  41.343   2.429
62031W        W34456  33.980  25.088   1.936
62032W        W34457   9.439   2.101   0.051
62033W        W34458  12.313  44.877  10.676
62034W        W34459   3.182  14.283   9.877
62035W        W34460  12.155  31.731   3.176
62036W        W34461  19.971  14.264   4.848
62037W        W34462  26.493   7.795   5.196
62038W        W34463   2.788  28.139  10.727
62039W        W34464  10.728  11.543   0.497
62040W        W34465  27.871  43.427  11.454
62041W        W34466  38.452  13.213   4.721
62042W        W34467  32.345  43.921   3.676
62043W        W34468   7.931  22.410   0.227
62044W        W34469  22.179  38.550  11.289
62045W        W34470  15.522  20.494  13.495
62046W        W34471  27.031  20.485   4.387
62047W        W34472  32.679  25.538  14.842
62048W        W34473  23.654  26.489  11.398
62049W        W34474  31.445  33.578   4.551
62050W        W34475  23.021  10.666   1.020
62051W        W34476  17.294  17.625   4.883
62052W        W34477  38.127  23.951  11.049
62053W        W34478  11.103   1.766  12.525
62054W        W34479  28.615  17.009   0.343
62055W        W34480  15.802  21.734  13.920
62056W        W34481  20.822   5.908  14.537
62057W        W34482  17.566  30.442   1.260
62058W        W34483  42.499   9.712   1.289
62059W        W34484  36.060  40.372  14.448
62060W        W34485   2.674   6.677  14.986
62061W        W34486  31.475  31.154   4.676
62062W        W34487  27.701  39.390  10.402
62063W        W34488   5.453   7.291   0.789
62064W        W34489  32.965  38.393  11.908
62065W        W34490   6.589  21.712   1.994
62066W        W34491  29.581  28.219   3.767
62067W        W34492  34.413  12.227   4.693
62068W        W34493  12.949  24.130  13.903
62069W        W34494  32.079   1.076  13.375
62070W        W34495  18.365  17.875   2.300
62071W        W34496  26.519  11.339   4.351
62072W        W34497   7.953   4.517   3.477
62073W        W34498  37.922   4.170   4.326
62074W        W34499  16.603  26.163   4.303
62075W        W34500  40.019  38.335   2.371
62076W        W34501  35.500   7.462  13.898
62077W        W34502   5.638  18.258   0.757
62078W        W34503  22.710  16.126   0.736
62079W        W34504  41.079  41.055  10.794
62080W        W34505  25.886  31.910  13.921
62081W        W34506  11.646  42.889  11.507
62082W        W34507  41.363  22.611   1.364
62083W        W34508  32.205  16.061  11.478
62084W        W34509   7.160  44.292  10.602
62085W        W34510   1.969   0.485   1.808
62086W        W34511  42.666  25.227   3.855
62087W        W34512  26.204  31.500  14.846
62088W        W34513  13.831  17.148  12.951
62089W        W34514  19.784  42.965  11.824
62090W        W34515   0.696  33.602  11.714
62091W        W34516   9.971   2.291  11.589
62092W        W34517  28.603  24.668  12.931
62093W        W34518  43.087  15.772  11.034
62094W        W34519   6.507  29.751   0.881
62095W        W34520   1.503  15.864   3.114
62096W        W34521   8.570  43.997   4.765
62097W        W34522  24.983  27.451  11.527
62098W        W34523  21.175   5.429  13.459
62099W        W34524  43.063  39.256   1.482
62100W        W34525  19.274  30.675  13.892
62101W        W34526  17.213  44.059  11.991
62102W        W34527  15.690  40.404   4.378
62103W        W34528   7.424   0.059  10.811
62104W        W34529  27.450   9.088  14.850
62105W        W34530   9.711  37.665   3.837
62106W        W34531  41.027  19.027   0.825
62107W        W34532  17.842  22.558  12.622
62108W        W34533  30.396  41.714   3.624
62109W        W34534  40.037  24.424  11.128
62110W        W34535   0.062  11.935  11.041
62111W        W34536   1.355  25.674  14.421
62112W        W34537  38.351  11.168   3.574
62113W        W34538  12.751  23.310   3.462
62114W        W34539  35.040  40.872   3.839
62115W        W34540  14.329  11.657  12.418
62116W        W34541  43.007  27.066   3.375
62117W        W34542   7.389  41.185  14.792
62118W        W34543  10.883  42.295  11.673
62119W        W34544  13.319  25.466  11.631
62120W        W34545  32.513   9.710   1.828
62121W        W34546  21.696  38.149  13.023
62122W        W34547  41.498  10.214  14.340
62123W        W34548  30.426   5.770  14.825
62124W        W34549  19.559  17.721   0.209
62125W        W34550  10.930  13.284  11.576
62126W        W34551  38.724  40.741  11.043
62127W        W34552  35.428  31.598   2.340
62128W        W34553  14.883  15.231   1.364
62129W        W34554   3.859  32.605  11.975
62130W        W34555  35.902  27.163   3.298
62131W        W34556  20.826  24.007  14.872
62132W        W34557   2.383  11.626   4.582
62133W        W34558   3.695  42.000   3.280
62134W        W34559  42.946  21.541   1.713
62135W        W34560  38.985  38.946  10.616
62136W        W34561  15.689  38.637  13.168
62137W        W34562  33.334  23.131  11.063
62138W        W34563  21.490   9.325  14.512
62139W        W34564  32.904  28.982  10.474
62140W        W34565   8.363  16.062  12.572
62141W        W34566  42.323  26.450  11.487
62142W        W34567  17.077  31.994   2.145
62143W        W34568  17.011  14.715  12.372
62144W        W34569  21.748  25.376  11.913
62145W        W34570  20.898  20.246   3.704
62146W        W34571   8.698  16.339   3.198
62147W        W34572  26.215  36.409  14.051
62148W        W34573  39.345  24.210  11.953
62149W        W34574  32.406  42.525  12.115
62150W        W34575   6.335  19.227   0.995
62151W        W34576   6.466   1.356   3.530
62152W        W34577  10.899   5.390   1.387
62153W        W34578  11.425   4.518  10.654
62154W        W34579  27.007  40.052  14.178
62155W        W34580  23.918  15.797   2.152
62156W        W34581  20.267  20.053   0.250
62157W        W34582   5.666  13.112  12.014
62158W        W34583  27.534  30.346  12.563
62159W        W34584   5.474  34.883  13.402
62160W        W34585  12.125   6.652   2.342
62161W        W34586   6.133  34.218  11.405
62162W        W34587  38.708  34.395   2.669
62163W        W34588  39.824   6.726  13.591
62164W        W34589  24.317  12.187  11.621
62165W        W34590  24.508  19.591   2.084
62166W        W34591  42.745  34.864   1.222
62167W        W34592  38.733  15.715  12.581
62168W        W34593   6.698   1.787   3.687
62169W        W34594  13.752  28.609  14.657
62170W        W34595   0.985  25.194  12.664
62171W        W34596   0.770  32.988   9.804
62172W        W34597   0.830   7.113   1.314
62173W        W34598   1.949   9.379   3.372
62174W        W34599  17.103  12.204  12.026
62175W        W34600  44.678   4.102   3.572
62176W        W34601   6.481  20.611  10.319
62177W        W34602  41.767  10.165   0.971
62178W        W34603  26.460  26.575  10.582
62179W        W34604   7.792  21.102  13.493
62180W        W34605  26.236  15.011  11.376
62181W        W34606  41.828   0.185   3.765
62182W        W34607  18.304   4.841  12.038
62183W        W34608  42.728  36.959  12.463
62184W        W34609  30.864  24.595   4.116
62185W        W34610  39.426  43.433  10.581
62186W        W34611  36.570  40.029  13.312
62187W        W34612  13.974  17.324  13.424
62188W        W34613  32.352   1.880   3.293
62189W        W34614  11.350   5.964   3.058
62190W        W34615  40.546  19.282   0.846
62191W        W34616   7.708  20.633   1.639
62192W        W34617  28.488  20.494   1.302
62193W        W34618  11.173  27.885  14.968
62194W        W34619  12.451  17.246   3.431
62195W        W34620  20.821   9.428  13.307
62196W        W34621  16.629   9.744   4.258
62197W        W34622  24.946  34.189  12.968
62198W        W34623  21.996  17.608  14.791
62199W        W34624  25.952  11.241  11.377
62200W        W34625  19.525  12.614  14.904
62201W        W34626   0.846  35.621   0.318
62202W        W34627  29.243  31.431  13.997
62203W        W34628  23.267  10.264   0.186
62204W        W34629  26.775  37.932  14.399
62205W        W34630  42.696  10.311   2.092
62206W        W34631  42.420  10.589   1.448
62207W        W34632  41.774  20.022   0.417
62208W        W34633  17.457  40.878   1.431
62209W        W34634   1.212   1.867  13.954
62210W        W34635   2.454  32.469  13.787
62211W        W34636   4.931  42.318   2.703
62212W        W34637  13.805  27.769  14.109
62213W        W34638  36.569  28.177  14.997
62214W        W34639  37.563  27.986  11.024
62215W        W34640   0.766   9.464   0.378
62216W        W34641  24.252  41.873  14.603
62217W        W34642  21.499  11.840   2.183
62218W        W34643  33.579  41.713  12.336
62219W        W34644   9.610  14.608  10.642
62220W        W34645  31.721  44.537  12.444
62221W        W34646  11.964  28.060   2.694
62222W        W34647  28.995  31.395  10.421
62223W        W34648   9.922  28.408   2.812
62224W        W34649  32.405   7.221  14.428
62225W        W34650  30.992  25.906   1.740
62226W        W34651  30.631  25.512   0.652
62227W        W34652   3.154   4.949  12.488
62228W        W34653  26.699  11.269   1.252
62229W        W34654  25.998  32.402  10.924
62230W        W34655   7.884  27.708  11.986
62231W        W34656  41.949   7.151  12.049
62232W        W34657  43.294   1.685  13.025
62233W        W34658   0.235  30.557   0.820
62234W        W34659  12.557  20.972  10.935
62235W        W34660  43.002  33.093   2.688
62236W        W34661  34.617  16.338  14.622
62237W        W34662  32.378  29.142  14.949
62238W        W34663  18.249  42.892  10.398
62239W        W34664  44.799  40.296   2.270
62240W        W34665   2.148   1.911   3.743
62241W        W34666  12.759   8.914   1.945
62242W        W34667   8.161  39.565  11.951
62243W        W34668   6.112   8.765  13.437
62244W        W34669   8.436  15.184  12.489
62245W        W34670  12.372  41.782  11.940
62246W        W34671  36.862  39.028  12.498
62247W        W34672  23.250  44.316   0.437
62248W        W34673  39.326  31.011  14.869
62249W        W34674  14.084  29.689   0.449
62250W        W34675  40.507  35.685  13.018
62251W        W34676  34.050  21.698  11.474
62252W        W34677   7.135  17.837  12.951
62253W        W34678  42.542  32.768  11.352
62254W        W34679  10.098  26.151   0.363
62255W        W34680  30.596   1.944   1.678
62256W        W34681   2.692   7.990   5.165
62257W        W34682   8.683  28.138  11.431
62258W        W34683   4.752  15.052  14.813
62259W        W34684   7.651  37.041  11.951
62260W        W34685  36.929  26.008  13.387
62261W        W34686   2.446  43.907   1.415
62262W        W34687  28.099  33.928   1.417
62263W        W34688  23.043  36.940  12.285
62264W        W34689  14.655  37.739  14.672
62265W        W34690   3.693   8.831  12.075
62266W        W34691  24.028  31.937   9.753
62267W        W34692  13.843   2.350  10.132
62268W        W34693   5.290  29.028   2.625
62269W        W34694  32.456  25.048   1.593
62270W        W34695  26.536  15.137  14.931
62271W        W34696  14.154  39.672   2.512
62272W        W34697  21.079  19.991  10.719
62273W        W34698  12.153  38.654  13.936
62274W        W34699  37.796  16.706   2.474
62275W        W34700  28.121   1.427  12.119
62276W        W34701  20.530  11.786   2.152
62277W        W34702  10.702  44.211  11.119
62278W        W34703   4.071  22.166  14.913
62279W        W34704  14.574  12.576   2.781
62280W        W34705  31.552  44.542   2.259
62281W        W34706  31.347  21.058   0.132
62282W        W34707   8.211   4.997   4.519
62283W        W34708  13.268  43.279  13.733
62284W        W34709  32.381  36.120   1.396
62285W        W34710  42.869  13.697  12.785
62286W        W34711  19.534  18.485   3.348
62287W        W34712  11.952   0.176   0.157
62288W        W34713  36.412  11.585   0.996
62289W        W34714  20.870  12.489  14.038
62290W        W34715  37.738  14.257   2.867
62291W        W34716   4.919  14.193   2.317
62292W        W34717  19.347  22.927   2.282
62293W        W34718   4.798  25.811  10.725
62294W        W34719  18.959   6.447   4.215
62295W        W34720  36.489   4.491  13.028
62296W        W34721  31.821  24.242  12.018
62297W        W34722   4.373  43.033   4.646
62298W        W34723  31.742  23.044  12.104
62299W        W34724  32.548  26.957  11.970
62300W        W34725  24.691   6.898   0.266
62301W        W34726   3.723   5.498   3.646
62302W        W34727  40.347  11.296  11.078
62303W        W34728  39.778  19.587   5.066
62304W        W34729  40.989  20.586  10.648
62305W        W34730  22.255   4.980   3.746
62306W        W34731  20.001  40.011   2.176
62307W        W34732  20.239  34.025  14.468
62308W        W34733  36.412  39.357  13.258
62309W        W34734   8.749   3.731  14.494
62310W        W34735  24.961  40.846  13.002
62311W        W34736  15.751  14.588   4.147
62312W        W34737  12.635  34.475  11.914
62313W        W34738  14.088   3.934   0.009
62314W        W34739   2.488   1.052   4.099
62315W        W34740  24.327  24.334  12.498
62316W        W34741   6.213  23.743   3.267
62317W        W34742  36.489   7.820  10.269
62318W        W34743  23.057  41.427   1.662
62319W        W34744  26.659  19.242   4.540
62320W        W34745  14.539  18.991   3.079
62321W        W34746  43.956  31.481   5.059
62322W        W34747  33.938   2.353  13.526
62323W        W34748   3.497  16.057   0.358
62324W        W34749  43.789  42.465   3.240
62325W        W34750  13.835  44.334   2.339
62326W        W34751   9.168  33.222  13.939
62327W        W34752   0.464  41.485   2.168
62328W        W34753  11.379  44.255  11.560
62329W        W34754   4.964   3.875  11.096
62330W        W34755   6.231  32.495  10.785
62331W        W34756  13.085  23.432   4.333
62332W        W34757  31.721   0.448  14.096
62333W        W34758   3.466  34.391  11.044
62334W        W34759  21.151  40.167  10.061
62335W        W34760   7.303  15.781   4.492
62336W        W34761  40.167  14.948   1.073
62337W        W34762  41.842  16.116   3.231
62338W        W34763  26.909   1.441  11.153
62339W        W34764   0.789   4.520   3.276
62340W        W34765  26.022   0.007   2.728
62341W        W34766  15.813  34.841  13.836
62342W        W34767   6.525  16.835  12.927
62343W        W34768  34.058  29.563   1.673
62344W        W34769   9.301  28.516  14.265
62345W        W34770  32.248  21.109  12.895
62346W        W34771  10.041  40.907   0.256
62347W        W34772   1.911  19.407   0.026
62348W        W34773   7.411  22.738   2.877
62349W        W34774  38.755  14.389   2.799
62350W        W34775  29.084  31.024  11.717
62351W        W34776  10.153  42.997  12.875
62352W        W34777  42.042  12.046  14.905
62353W        W34778  23.531   2.036  14.368
62354W        W34779   1.977  44.686  14.455
62355W        W34780  21.602  32.712  11.910
62356W        W34781  16.166  40.424   1.293
62357W        W34782  15.356  12.474  11.227
62358W        W34783   1.915  23.558  10.788
62359W        W34784  23.253  20.643  14.014
62360W        W34785  43.800  17.331  12.313
62361W        W34786  24.092  16.305  14.786
62362W        W34787  41.390  25.443  12.434
62363W        W34788  33.103   7.800  13.480
62364W        W34789  34.519  21.531   0.945
62365W        W34790  41.395  22.061   1.526
62366W        W34791   3.510  26.463  13.289
62367W        W34792  42.990  20.814   4.605
62368W        W34793  33.688  24.238   4.261
62369W        W34794  30.471  22.516   2.745
62370W        W34795   1.072  22.700   5.273
62371W        W34796  14.089  40.979  13.460
62372W        W34797  13.313   7.677  11.133
62373W        W34798  36.020   4.907  13.890
62374W        W34799  43.934   7.125   3.956
62375W        W34800  33.213  17.217   3.496
62376W        W34801  34.343  31.138   3.297
62377W        W34802  28.731  18.600  14.554
62378W        W34803  24.748  30.710   2.236
62379W        W34804   3.108   2.020  14.437
62380W        W34805  43.721   4.747  11.673
62381W        W34806  19.637  11.555  14.183
62382W        W34807  13.654  18.719  13.130
62383W        W34808  24.102  28.944  14.778
62384W        W34809  31.070  13.488   3.444
62385W        W34810   0.898   7.784   4.584
62386W        W34811   2.414  30.636  14.940
62387W        W34812  22.244   6.816   5.015
62388W        W34813  39.096  43.258   3.338
62389W        W34814  10.878   9.698   4.491
62390W        W34815  37.725  37.970   4.971
62391W        W34816   1.344  19.249   3.569
62392W        W34817  18.199  24.771   2.530
62393W        W34818   5.361  37.095   4.676
62394W        W34819  17.597  32.202  12.763
62395W        W34820  17.557  19.551  11.768
62396W        W34821  24.206   7.746   0.179
62397W        W34822   9.612  15.654  14.428
62398W        W34823   1.381  24.124   4.225
62399W        W34824   5.407  40.025  14.577
62400W        W34825  17.637  10.073  12.483
62401W        W34826   1.807  41.017  11.173
62402W        W34827  12.755  28.500   1.411
62403W        W34828  16.868  31.928   5.537
62404W        W34829  23.762  30.438  13.447
62405W        W34830  14.830  14.674   0.798
62406W        W34831  19.271  38.789  13.852
62407W        W34832  21.118  15.324  12.522
62408W        W34833  31.200  11.848   2.698
62409W        W34834  36.397  40.286   1.695
62410W        W34835  14.428  26.928   3.249
62411W        W34836  38.203  41.951   3.110
62412W        W34837  15.268   1.272   0.370
62413W        W34838  35.806  27.104  12.540
62414W        W34839  30.821  20.792   4.743
62415W        W34840  21.223  34.069   4.543
62416W        W34841  10.416  22.049  13.901
62417W        W34842  17.620   8.336   2.262
62418W        W34843  37.840  19.741   1.487
62419W        W34844  25.217   7.712   3.777
62420W        W34845   7.175  37.477  10.515
62421W        W34846  27.760  40.778  10.208
62422W        W34847  44.211  19.493   4.093
62423W        W34848  11.899   9.790   2.759
62424W        W34849  30.094  36.514   0.979
62425W        W34850  39.291  41.801  14.338
62426W        W34851   7.276  25.169   1.872
62427W        W34852  36.527   6.246  10.728
62428W        W34853  17.070  10.806   2.810
62429W        W34854   0.282  22.539   1.958
62430W        W34855  18.985  23.973   0.831
62431W        W34856  18.808   9.338  11.177
62432W        W34857  39.491   8.702   0.181
62433W        W34858  24.488   1.574  14.951
62434W        W34859  30.424  19.579   3.621
62435W        W34860   1.317  30.962   4.012
62436W        W34861  19.785   7.113   4.206
62437W        W34862  17.496  18.470  12.918
62438W        W34863  35.052  20.127   1.742
62439W        W34864   8.916  39.592  13.879
62440W        W34865   1.846   7.022  11.134
62441W        W34866   3.689   9.342   1.812
62442W        W34867  23.467  43.772   3.175
62443W        W34868  33.523   8.850  12.216
62444W        W34869  27.667  24.796  12.985
62445W        W34870  21.040  26.123   1.719
62446W        W34871   8.567  19.569  13.793
62447W        W34872   8.804  19.176   4.855
62448W        W34873  40.539  39.532   2.193
62449W        W34874  37.659  28.232   0.667
62450W        W34875   4.401  28.552  10.320
62451W        W34876  28.204   4.228   4.324
62452W        W34877   5.079   2.820   2.955
62453W        W34878  35.080   7.699   4.560
62454W        W34879  33.400  41.246   0.936
62455W        W34880   5.234   3.134   4.418
62456W        W34881  14.626   3.953   4.525
62457W        W34882  34.582  27.293  11.451
62458W        W34883  35.202  40.968   3.363
62459W        W34884   0.128  36.821   2.699
62460W        W34885  32.473   8.829  13.255
62461W        W34886  17.514   1.496   1.602
62462W        W34887  39.810  21.711  12.054
62463W        W34888  18.028  17.110  13.171
62464W        W34889  10.356  25.115   2.311
62465W        W34890   0.558   6.542  10.002
62466W        W34891  38.516   5.316   2.376
62467W        W34892  16.080  37.360  11.696
62468W        W34893  28.948  14.251  11.498
62469W        W34894  17.510  30.191  13.011
62470W        W34895  17.950  32.060  14.556
62471W        W34896   4.026  26.480  11.091
62472W        W34897   3.669  28.478  12.615
62473W        W34898  29.707  34.374  11.156
62474W        W34899  21.087  39.791   4.795
62475W        W34900  43.465  27.128   4.155
62476W        W34901   6.122  22.113  14.306
62477W        W34902   4.304   4.185   4.597
62478W        W34903  43.982  39.893   2.714
62479W        W34904  32.389  35.560  12.393
62480W        W34905  44.288  35.929  11.162
62481W        W34906  13.925  30.717   2.691
62482W        W34907  33.578  38.089  11.689
62483W        W34908   1.425  33.654   3.366
62484W        W34909  36.037  38.673   4.187
62485W        W34910  17.316  27.045  14.967
62486W        W34911   6.774  25.675  11.079
62487W        W34912  23.217  22.942  14.293
62488W        W34913  15.634  18.836  11.508
62489W        W34914  10.423  21.566  10.601
62490W        W34915  13.370  21.780  10.605
62491W        W34916  30.948   6.316   4.527
62492W        W34917  16.300  37.476   4.109
62493W        W34918  32.472  37.499   2.296
62494W        W34919  40.719  36.141   4.156
62495W        W34920   4.373  25.143   2.133
62496W        W34921  17.735  19.831   1.853
62497W        W34922   0.678  20.432   4.818
62498W        W34923  39.986   2.375   1.088
62499W        W34924   7.254  18.959   2.833
62500W        W34925  26.839   8.155  11.118
62501W        W34926  24.682  17.241  14.476
62502W        W34927   0.875   3.011  11.509
62503W        W34928  13.226   8.213  12.008
62504W        W34929   3.578  38.946  11.924
62505W        W34930  26.251   5.756   3.128
62506W        W34931  43.219  25.753  12.466
62507W        W34932  14.714  15.244   1.857
62508W        W34933  27.737  15.853   2.802
62509W        W34934  20.822  38.330  11.033
62510W        W34935   0.472  29.615  11.999
62511W        W34936  22.001  19.087   3.646
62512W        W34937  11.176  44.217  12.399
62513W        W34938  36.119  35.134   0.422
62514W        W34939  41.990  24.563   1.376
62515W        W34940   2.407  31.580  14.254
62516W        W34941  19.223   2.248   3.307
62517W        W34942   6.129  12.263   3.637
62518W        W34943  39.595   0.819   2.746
62519W        W34944  42.005   3.094   2.696
62520W        W34945  13.204  37.876  10.594
62521W        W34946  38.105  30.540  10.308
62522W        W34947  34.655  35.352  14.872
62523W        W34948  14.888  26.147   1.833
62524W        W34949  18.030  42.035   4.494
62525W        W34950  30.572  14.202   0.994
62526W        W34951   4.225  33.983  11.011
62527W        W34952  27.433  40.100   1.178
62528W        W34953  37.818   3.827  14.425
62529W        W34954  19.119  12.437   2.751
62530W        W34955  36.455  19.270   3.650
62531W        W34956  39.428  28.925  14.454
62532W        W34957  13.240  35.938   3.334
62533W        W34958  40.143  44.349  14.870
62534W        W34959   7.264  20.042   4.851
62535W        W34960  24.718  36.415  13.990
62536W        W34961  11.232  27.468  12.942
62537W        W34962  26.153  21.048   2.143
62538W        W34963  29.735  20.203  12.949
62539W        W34964  19.994  16.689  14.829
62540W        W34965   5.400  32.980  13.021
62541W        W34966  11.064  27.267  12.486
62542W        W34967   2.430  21.783   2.329
62543W        W34968  43.945  19.854   4.528
62544W        W34969  22.996  39.927   4.582
62545W        W34970   8.765   1.805  11.452
62546W        W34971  27.907  15.821  10.928
62547W        W34972   6.858  27.382   1.378
62548W        W34973   5.384  20.563   0.014
62549W        W34974  42.871   1.510  14.219
62550W        W34975  40.744  26.480   4.681
62551W        W34976   5.410  11.761  14.046
62552W        W34977  26.147  25.391   1.742
62553W        W34978  33.847  31.135   4.211
62554W        W34979  37.556  31.365  12.566
62555W        W34980   5.253  38.429  10.628
62556W        W34981  23.871  12.302   3.730
62557W        W34982   1.289  41.302   4.213
62558W        W34983  23.693   2.252  14.841
62559W        W34984  44.538  39.565   2.735
62560W        W34985  31.175  21.700  13.200
62561W        W34986  18.773   0.426   1.464
62562W        W34987   8.644   2.015  10.984
62563W        W34988  30.617  16.649  13.094
62564W        W34989  36.817  25.206  12.980
62565W        W34990  33.567  20.247   1.155
62566W        W34991   0.689  29.728  11.501
62567W        W34992  39.844   8.604   1.471
62568W        W34993  18.243  29.641   3.852
62569W        W34994  20.598  13.497  14.011
62570W        W34995  36.621  37.937   0.509
62571W        W34996  16.555   1.457   1.776
62572W        W34997  44.403   7.687   2.237
62573W        W34998  18.770  10.147  14.135
62574W        W34999   3.836   3.468   4.267
62575W        W35000  16.741  12.667  11.006
62576W        W35001  17.503  41.543  12.998
62577W        W35002  43.303   8.382   3.925
62578W        W35003  30.913   4.380  13.776
62579W        W35004  29.452  44.622   0.428
62580W        W35005  13.984  27.353   2.257
62581W        W35006   6.404  26.595  12.443
62582W        W35007  28.976   3.270  11.533
62583W        W35008   8.288  19.958  13.970
62584W        W35009  26.967  40.093   2.182
62585W        W35010   3.216  23.529   0.785
62586W        W35011  15.847  25.308   3.343
62587W        W35012  20.494  41.452  11.939
62588W        W35013  40.863  14.131  11.868
62589W        W35014  13.937  12.411   0.167
62590W        W35015   3.967  27.903   1.454
62591W        W35016   7.814  32.920   4.096
62592W        W35017  26.672  12.124   3.745
62593W        W35018  28.571  26.190   2.378
62594W        W35019   0.475  16.096   0.040
62595W        W35020  43.538  43.754   0.248
62596W        W35021  40.486  18.264   0.911
62597W        W35022  10.686  32.185   2.327
62598W        W35023  14.651  14.776   1.283
62599W        W35024  21.466  16.435   0.984
62600W        W35025  26.372  13.111   3.754
62601W        W35026   3.198  12.304  10.719
62602W        W35027  14.575  33.348   3.086
62603W        W35028  23.629  43.031   2.768
62604W        W35029  28.214  41.026  10.187
62605W        W35030  40.937  20.817  13.851
62606W        W35031   9.354  19.319  11.985
62607W        W35032   3.226  35.032   4.666
62608W        W35033  44.441  25.693  11.192
62609W        W35034  29.013  10.398  14.032
62610W        W35035  42.215  35.910   0.321
62611W        W35036  43.041  22.255   5.066
62612W        W35037  39.093  19.621  13.841
62613W        W35038  39.927  37.851  12.512
62614W        W35039  24.103  28.546   3.097
62615W        W35040   1.727   0.191   3.294
62616W        W35041  10.764  33.434  10.274
62617W        W35042  22.921  38.397  13.886
62618W        W35043   7.244   5.725   2.009
62619W        W35044  36.390  36.461  11.972
62620W        W35045  21.752  22.104  12.593
62621W        W35046  19.723   5.767   4.952
62622W        W35047  11.763  27.074  12.077
62623W        W35048  15.585  35.172   2.224
62624W        W35049  18.981  11.970  11.625
62625W        W35050   8.594   6.953   1.029
62626W        W35051  32.703  34.526   3.791
62627W        W35052  19.343  14.780  11.598
62628W        W35053  14.568  10.794  14.061
62629W        W35054  39.887  21.532   0.861
62630W        W35055  25.583  30.467   4.049
62631W        W35056  17.821   1.051   3.131
62632W        W35057  13.366  34.393   1.523
62633W        W35058  18.479  36.996   3.862
62634W        W35059  23.003  20.546   1.832
62635W        W35060  25.158  28.961   3.800
62636W        W35061  20.479  32.431  11.011
62637W        W35062  24.669  12.426  14.573
62638W        W35063  20.544   2.116  13.472
62639W        W35064  33.365   1.734  14.591
62640W        W35065  36.870   8.803   5.644
62641W        W35066  33.736  28.165   0.347
62642W        W35067  40.480  17.714  14.758
62643W        W35068  24.459  26.714   2.808
62644W        W35069  24.572  24.516  10.982
62645W        W35070  36.164  42.302   4.546
62646W        W35071   4.173  42.036   0.536
62647W        W35072  36.557  29.114   4.682
62648W        W35073   9.739  24.655  10.895
62649W        W35074  44.344  38.410   0.957
62650W        W35075  27.889  34.688  10.684
62651W        W35076  34.432   7.584   0.654
62652W        W35077  43.819  10.884  12.415
62653W        W35078  13.200   8.130   0.700
62654W        W35079   7.891   8.870  14.795
62655W        W35080  33.918  20.813  11.118
62656W        W35081  33.410  28.474  14.428
62657W        W35082   9.770  31.421  14.017
62658W        W35083  33.401  26.700  14.459
62659W        W35084  25.134  17.326   3.669
62660W        W35085  36.452  40.512   0.295
62661W        W35086  28.734  41.585   0.826
62662W        W35087  15.596  13.308  12.272
62663W        W35088  37.769  42.402   3.759
62664W        W35089  43.078   8.274  14.290
62665W        W35090  38.321  40.023   1.883
62666W        W35091  38.866  42.315  12.575
62667W        W35092  15.862  44.235   3.308
62668W        W35093  39.753  28.617  14.690
62669W        W35094  42.397  39.346  12.474
62670W        W35095  29.657  15.075   3.626
62671W        W35096  14.387  43.806   2.921
62672W        W35097  33.513  44.407  11.204
62673W        W35098   3.237  21.535  12.477
62674W        W35099  27.617   3.230  14.968
62675W        W35100  23.282  23.821   4.099
62676W        W35101  24.590  34.849   0.799
62677W        W35102  36.679   1.867   2.879
62678W        W35103  33.356  28.890   2.309
62679W        W35104  41.869  14.970   2.298
62680W        W35105  25.487  38.420  11.655
62681W        W35106  32.453   2.348   1.988
62682W        W35107  41.262   4.423   0.348
62683W        W35108  24.651  12.863  12.891
62684W        W35109  30.121  27.005  12.642
62685W        W35110  17.539  19.249   4.709
62686W        W35111  43.284  10.948   2.837
62687W        W35112  31.537  17.247  13.885
62688W        W35113  17.080  14.515   3.272
62689W        W35114  28.995  44.906   2.386
62690W        W35115  24.450   7.730  10.980
62691W        W35116  25.300   5.688  11.641
62692W        W35117   4.847  35.548   3.214
62693W        W35118  18.685  12.413   3.075
62694W        W35119  10.289  33.944   0.718
62695W        W35120  41.257  41.485   3.458
62696W        W35121   6.228   6.475   4.607
62697W        W35122   0.250  12.100   0.796
62698W        W35123  29.188  29.301  13.502
62699W        W35124  20.973   7.980  13.524
62700W        W35125  25.729  17.272  14.423
62701W        W35126   9.928  21.247   3.409
62702W        W35127  35.777  22.502   2.783
62703W        W35128  43.161  36.858   4.354
62704W        W35129  30.926  44.267  13.109
62705W        W35130  14.376  13.732   1.750
62706W        W35131  36.853  13.186   1.798
62707W        W35132  42.483  34.678   4.563
62708W        W35133  42.672  44.208  11.384
62709W        W35134  37.013   1.523  11.028
62710W        W35135  32.641  37.888  13.002
62711W        W35136   2.924  20.739  13.905
62712W        W35137  14.217  36.592   0.075
62713W        W35138  12.429  20.724  11.520
62714W        W35139  16.367   0.571   2.385
62715W        W35140   0.687   9.284  11.429
62716W        W35141  15.092  36.485  11.737
62717W        W35142  19.535  39.784   2.178
62718W        W35143  21.016  43.905   4.351
62719W        W35144  32.909  17.752  12.191
62720W        W35145  26.077  18.891   0.853
62721W        W35146  42.940  10.023  13.647
62722W        W35147   0.563  37.428   3.226
62723W        W35148   1.386   4.263  13.908
62724W        W35149   8.663   1.789   2.309
62725W        W35150   7.487  24.190   1.332
62726W        W35151  19.741  26.148   2.262
62727W        W35152  36.557   4.079   4.425
62728W        W35153  15.769   3.295  11.680
62729W        W35154  20.136  39.093  14.286
62730W        W35155  34.056  37.492   4.400
62731W        W35156  26.763  18.657  11.910
62732W        W35157  22.257  16.523   1.699
62733W        W35158  18.607  18.377  13.756
62734W        W35159  22.619  21.945  14.788
62735W        W35160  13.656   4.853   1.736
62736W        W35161  34.088   3.895  10.667
62737W        W35162  22.640  38.600   3.388
62738W        W35163  25.131  14.465  10.709
62739W        W35164   6.452  14.716  12.838
62740W        W35165  19.935   0.288  12.954
62741W        W35166   0.478  16.338  12.608
62742W        W35167  32.178  30.015  12.963
62743W        W35168  21.216  12.025  12.965
62744W        W35169  28.047  23.247   2.882
62745W        W35170  30.504  35.875  14.859
62746W        W35171  21.970  28.244   1.448
62747W        W35172  43.054  14.672   4.249
62748W        W35173   8.979  38.442   1.713
62749W        W35174   3.174  23.056  12.458
62750W        W35175   7.291  36.449   1.440
62751W        W35176  10.803  19.277  14.095
62752W        W35177   5.402  41.564   0.845
62753W        W35178  28.197   1.045   1.273
62754W        W35179   7.925  15.713   4.220
62755W        W35180  15.559  28.069   2.214
62756W        W35181  40.526  21.522  11.605
62757W        W35182  13.506  30.355  11.200
62758W        W35183   5.912  39.257  11.565
62759W        W35184  20.883  38.585   2.883
62760W        W35185  11.966  18.704  14.848
62761W        W35186  25.501   9.111  11.948
62762W        W35187  41.037  18.145   3.555
62763W        W35188   5.394  11.205   0.866
62764W        W35189  14.089  30.347   2.243
62765W        W35190   8.021   7.974   4.878
62766W        W35191  10.631  29.697   3.367
62767W        W35192  44.475  28.360  11.614
62768W        W35193  18.798  33.872   0.337
62769W        W35194  30.599  19.468  11.522
62770W        W35195   4.444   9.128  14.892
62771W        W35196  27.988  10.919  12.939
62772W        W35197  32.106  26.305  14.844
62773W        W35198  42.976  42.092  10.617
62774W        W35199  23.548  31.713  14.862
62775W        W35200  30.415  31.473   0.912
62776W        W35201   9.664  12.858  12.745
62777W        W35202  44.825  19.099   3.632
62778W        W35203  40.979  40.526  14.943
62779W        W35204  35.491  39.088  12.869
62780W        W35205  25.005  17.121  13.307
62781W        W35206  34.542  14.104  12.699
62782W        W35207  31.524  34.073   3.626
62783W        W35208  32.886  30.597   4.671
62784W        W35209  24.702  23.088  14.453
62785W        W35210  27.401  27.233   1.029
62786W        W35211  35.395   6.531   1.198
62787W        W35212  22.751  24.623   2.303
62788W        W35213  22.820   6.871   3.333
62789W        W35214  11.823   0.723  13.006
62790W        W35215  40.868  43.221  12.890
62791W        W35216  12.264  21.571  11.441
62792W        W35217   2.784  23.838   1.379
62793W        W35218   8.036  17.214   2.471
62794W        W35219  28.154  16.621   4.043
62795W        W35220  13.083  22.759  13.959
62796W        W35221  27.123  20.961  10.550
62797W        W35222  16.618  37.809   1.396
62798W        W35223  23.967   5.733  11.129
62799W        W35224  15.138  38.926   4.516
62800W        W35225   5.293  22.188  11.903
62801W        W35226   1.961  20.775  13.540
62802W        W35227  39.990  31.861  14.813
62803W        W35228   0.064   8.826   5.123
62804W        W35229   3.544   9.246   2.309
62805W        W35230  16.222  12.311   4.643
62806W        W35231  28.809   5.815  12.934
62807W        W35232   0.775  31.381  11.534
62808W        W35233  20.094  17.160   1.234
62809W        W35234  19.615  43.824  13.060
62810W        W35235  44.850  33.179   3.585
62811W        W35236  12.978  22.984   1.454
62812W        W35237  13.265  22.060   0.462
62813W        W35238   1.864   2.697  13.115
62814W        W35239  21.034  43.122   4.654
62815W        W35240  28.552  28.278  10.851
62816W        W35241  23.457  36.195  12.324
62817W        W35242  32.317  27.131  12.976
62818W        W35243  39.793   1.224  11.983
62819W        W35244  19.737  17.644   2.949
62820W        W35245  43.682  22.116   1.119
62821W        W35246  34.031   5.940  14.293
62822W        W35247  34.598  44.230   3.688
62823W        W35248  35.069  44.391   3.909
62824W        W35249  14.362   4.279  11.533
62825W        W35250  33.985  22.975   1.857
62826W        W35251  12.359  34.827  10.637
62827W        W35252  20.045  39.034   3.189
62828W        W35253  27.142   1.460   4.362
62829W        W35254  16.105   9.265  14.694
62830W        W35255  14.018   5.380   2.396
62831W        W35256  24.038  38.988   3.171
62832W        W35257  40.214   7.977   4.589
62833W        W35258  21.714   5.683  14.302
62834W        W35259   8.916  12.524   1.523
62835W        W35260   4.226  16.623  14.457
62836W        W35261   4.797  31.491  11.134
62837W        W35262  12.670  42.241   0.006
62838W        W35263  19.288  26.080   4.774
62839W        W35264  23.433   0.258  10.685
62840W        W35265   0.020  42.846   0.714
62841W        W35266  26.460  32.154   0.463
62842W        W35267  29.120  40.949  14.862
62843W        W35268  39.899  10.644  10.656
62844W        W35269  17.176  42.932  13.816
62845W        W35270   0.658  30.567   1.824
62846W        W35271  20.090   4.074  13.995
62847W        W35272  25.937  38.078   3.282
62848W        W35273  37.131  16.601   0.744
62849W        W35274  40.754  29.889   0.587
62850W        W35275  10.703  23.231  11.424
62851W        W35276  42.632  27.412   1.379
62852W        W35277  38.860   1.267  14.775
62853W        W35278  21.191  22.455  12.297
62854W        W35279  24.117  41.276   5.018
62855W        W35280  23.434   7.610  11.157
62856W        W35281  37.867   3.292   0.806
62857W        W35282   2.462  24.376   2.729
62858W        W35283  22.111  44.466   2.375
62859W        W35284  21.470  20.484  11.480
62860W        W35285  22.682   5.752  13.639
62861W        W35286  34.723  43.154  12.570
62862W        W35287  10.245  42.418  12.990
62863W        W35288  39.781   6.812   0.388
62864W        W35289   8.313  43.985  12.529
62865W        W35290  15.117  33.947   4.990
62866W        W35291  33.611  28.224   4.827
62867W        W35292   2.195  39.159  10.232
62868W        W35293  40.867  32.648   3.115
62869W        W35294  28.163  12.183   4.741
62870W        W35295  24.523  28.864   0.566
62871W        W35296  35.455  16.534  14.885
62872W        W35297   3.375   5.723  11.503
62873W        W35298   8.548   7.915  14.012
62874W        W35299  35.089  37.592  14.807
62875W        W35300  20.573  34.961  13.045
62876W        W35301   9.149   9.741  13.624
62877W        W35302  21.776  33.706   2.359
62878W        W35303  23.609  17.759   0.445
62879W        W35304   4.297   3.233   1.731
62880W        W35305  27.484  43.957  13.819
62881W        W35306   7.090  28.965   3.802
62882W        W35307   1.672  40.248  12.125
62883W        W35308   7.414  34.067  11.137
62884W        W35309   1.268  34.848  11.157
62885W        W35310  20.692  25.530  11.051
62886W        W35311  21.709  23.173  12.617
62887W        W35312  33.466   4.596  12.591
62888W        W35313  18.532   2.808  10.522
62889W        W35314   8.778  42.379   3.671
62890W        W35315  24.188  32.651   3.451
62891W        W35316  37.564  26.023  13.984
62892W        W35317  10.791   3.495   1.078
62893W        W35318  23.796  32.451   1.355
62894W        W35319   7.839  21.995   0.529
62895W        W35320  33.551  13.537  11.863
62896W        W35321  26.300   3.657   1.014
62897W        W35322  44.255  33.665  11.159
62898W        W35323  14.007   9.506  14.259
62899W        W35324   3.680   4.623  12.542
62900W        W35325  37.099  43.988  11.155
62901W        W35326  10.269  16.093   2.329
62902W        W35327  26.734   4.748   0.014
62903W        W35328  20.239  23.238  13.857
62904W        W35329   2.248  44.797  12.933
62905W        W35330  13.569  34.884   0.065
62906W        W35331  18.657  39.918   4.647
62907W        W35332   6.112   3.772  14.285
62908W        W35333  15.603  23.899  14.892
62909W        W35334  32.843   1.286   2.747
62910W        W35335   1.799  34.998   0.183
62911W        W35336  26.689  19.785   0.509
62912W        W35337  20.648  20.671   2.837
62913W        W35338  30.443  14.893  11.163
62914W        W35339  28.605  34.437   1.617
62915W        W35340  31.014  36.349  12.484
62916W        W35341  27.649  31.077  11.263
62917W        W35342  44.786  32.913   3.164
62918W        W35343  33.009   6.464   0.195
62919W        W35344  12.511  10.895   1.757
62920W        W35345  27.069  11.367  14.303
62921W        W35346  25.650   5.248  14.839
62922W        W35347  17.746  16.056   0.804
62923W        W35348  16.089  30.974  12.023
62924W        W35349   2.676  14.684   1.222
62925W        W35350   1.214  42.862   2.408
62926W        W35351   0.643  44.424   0.512
62927W        W35352  35.821  21.592   1.352
62928W        W35353  32.160  42.593   1.833
62929W        W35354  13.641  29.398   0.342
62930W        W35355   0.736  43.164  11.144
62931W        W35356  33.057  42.439   4.126
62932W        W35357  15.269  31.402  14.373
62933W        W35358   2.945  35.005  10.724
62934W        W35359  31.854   2.377   4.724
62935W        W35360   7.868  23.733   1.328
62936W        W35361  20.468  20.689  12.815
62937W        W35362  13.806   4.974   2.684
62938W        W35363   7.660  39.905   5.212
62939W        W35364  25.544  37.451   2.318
62940W        W35365  25.815  13.903   1.865
62941W        W35366  32.539  16.885   4.762
62942W        W35367  15.361  28.884  11.617
62943W        W35368  32.622   0.825   4.553
62944W        W35369  13.857  31.412  14.422
62945W        W35370  34.961  32.088  11.874
62946W        W35371   3.289  15.597   0.248
62947W        W35372  20.133  17.387  12.381
62948W        W35373  43.470  18.710  12.602
62949W        W35374  32.589  34.909   0.349
62950W        W35375  11.421   5.022  10.852
62951W        W35376  11.326  34.366   2.693
62952W        W35377  11.936  22.987   2.500
62953W        W35378   7.248  27.562  13.965
62954W        W35379  36.944  25.660   4.330
62955W        W35380  19.105  29.657  12.429
62956W        W35381  31.636  14.229   3.717
62957W        W35382  28.885  42.075  11.763
62958W        W35383  41.115  30.578  14.486
62959W        W35384  44.365  33.128  12.938
62960W        W35385  16.207  14.050   1.772
62961W        W35386  44.415  30.529   1.207
62962W        W35387   1.904  14.511   2.271
62963W        W35388  25.921  15.725  10.740
62964W        W35389  41.591  11.808   4.319
62965W        W35390  24.283  12.373  10.789
62966W        W35391  32.481  37.545   1.301
62967W        W35392  22.264  30.458  11.884
62968W        W35393  16.777   7.803  12.445
62969W        W35394  40.994  26.128  13.050
62970W        W35395  33.613  22.005   3.282
62971W        W35396  19.231  25.626   1.714
62972W        W35397  24.119  32.020  13.495
62973W        W35398  17.299  34.620   4.173
62974W        W35399  35.581   2.904  14.520
62975W        W35400   5.780  26.122  13.874
62976W        W35401   5.890  30.330   3.996
62977W        W35402  18.927  42.310  14.326
62978W        W35403  12.786   4.258   1.215
62979W        W35404   5.703  30.703  13.433
62980W        W35405   7.673  39.952  13.447
62981W        W35406  44.370   0.083  12.403
62982W        W35407   1.617   6.798  12.994
62983W        W35408  38.422   9.712  14.244
62984W        W35409  28.534   2.899   0.941
62985W        W35410   6.299  37.593  14.871
62986W        W35411  31.392  27.044  14.982
62987W        W35412  21.040  21.296   4.032
62988W        W35413  30.236  18.602   0.807
62989W        W35414  22.922  13.290   1.828
62990W        W35415  18.021   3.484  11.753
62991W        W35416  14.744  42.020  12.616
62992W        W35417  43.266   5.757   1.211
62993W        W35418   1.867  28.859   4.564
62994W        W35419  44.443  15.219   1.809
62995W        W35420  25.603  23.459   3.585
62996W        W35421   0.357  21.174   0.340
62997W        W35422   2.980  43.011   0.916
62998W        W35423  10.163  44.968  14.102
62999W        W35424  28.436   0.807   3.637
63000W        W35425  35.960  43.423   2.829
63001W        W35426  37.944  19.182   4.687
63002W        W35427  34.461   7.396   1.666
63003W        W35428  30.633   8.652  11.095
63004W        W35429  16.591  36.577  13.138
63005W        W35430  31.956   5.390  10.954
63006W        W35431  18.694  27.971   4.539
63007W        W35432  32.066  39.065  12.632
63008W        W35433  29.733  39.886  12.530
63009W        W35434   1.027   3.460   5.182
63010W        W35435  33.811  35.466   1.236
63011W        W35436   0.281  18.749  13.471
63012W        W35437  12.831  43.325  14.416
63013W        W35438  23.210   5.656  10.718
63014W        W35439  35.775  26.284  12.637
63015W        W35440  21.560  13.056   4.706
63016W        W35441  41.909  21.810   1.796
63017W        W35442  29.782  21.019   4.168
63018W        W35443   7.761  15.109  11.544
63019W        W35444  17.054  34.498  12.348
63020W        W35445  39.820  38.617   1.786
63021W        W35446  39.949   5.143   2.899
63022W        W35447  28.105  13.856  13.008
63023W        W35448  42.809  24.239   3.199
63024W        W35449   8.439  37.365   3.378
63025W        W35450  37.791  21.992   2.197
63026W        W35451   2.147  23.952  11.549
63027W        W35452   2.754  18.621   4.870
63028W        W35453  27.994  11.261  10.628
63029W        W35454  41.434  26.089   4.909
63030W        W35455  31.415  16.748  14.070
63031W        W35456   6.804  22.582   1.125
63032W        W35457  11.842  20.212  12.057
63033W        W35458  38.486   4.430  10.587
63034W        W35459  35.552  28.559   3.220
63035W        W35460  38.964   0.524   0.463
63036W        W35461  26.719  13.352   2.985
63037W        W35462   7.203  14.080  13.978
63038W        W35463  18.235  42.885  10.925
63039W        W35464  37.554  42.958   2.159
63040W        W35465  20.530  36.654   2.317
63041W        W35466  15.594  40.899  11.535
63042W        W35467  34.961   4.191   3.162
63043W        W35468   4.432  20.879   2.402
63044W        W35469  35.464   0.974   3.047
63045W        W35470  27.135  38.394   0.301
63046W        W35471  20.544  31.385  11.119
63047W        W35472  13.861  35.401  12.729
63048W        W35473   5.786  19.183   1.576
63049W        W35474  16.451  25.288  14.332
63050W        W35475  28.010   9.322   3.893
63051W        W35476  43.471   8.837   1.909
63052W        W35477  35.452  20.103   3.646
63053W        W35478   0.017  14.682  12.151
63054W        W35479   1.675  32.641  13.314
63055W        W35480  42.819  41.053   1.494
63056W        W35481   9.688  37.080   4.581
63057W        W35482   0.426  42.744  13.959
63058W        W35483  41.782  17.682  11.988
63059W        W35484  25.990  35.557  11.724
63060W        W35485  13.902  29.455   3.663
63061W        W35486  23.213   6.768  13.935
63062W        W35487   3.316  40.889  12.470
63063W        W35488   9.718  42.992  11.929
63064W        W35489  44.047  12.983   3.813
63065W        W35490   9.241  42.435   2.289
63066W        W35491   3.210  20.762   0.248
63067W        W35492  39.937  16.486  14.841
63068W        W35493  36.106  27.490  12.405
63069W        W35494   4.733  37.656  12.966
63070W        W35495  13.697  25.078  12.331
63071W        W35496  33.389  11.297   1.211
63072W        W35497  44.776  26.924  13.877
63073W        W35498  30.361  16.065  14.857
63074W        W35499   7.866   5.779  12.198
63075W        W35500  28.501  28.095  12.604
63076W        W35501   5.429   1.778   1.717
63077W        W35502  44.853  41.086  10.627
63078W        W35503  43.112  11.782   1.744
63079W        W35504  10.229  19.399   4.934
63080W        W35505   7.194  28.451  10.543
63081W        W35506   4.314  23.133   0.970
63082W        W35507   8.149  37.469  12.233
63083W        W35508  33.956   4.148   1.801
63084W        W35509  29.170  20.180   1.715
63085W        W35510  12.134  15.352   1.884
63086W        W35511  27.612  10.919   1.730
63087W        W35512  15.198  22.580   1.894
63088W        W35513  17.111  41.796   3.474
63089W        W35514  34.572   3.252   0.836
63090W        W35515   2.982  12.532   0.806
63091W        W35516  36.504  42.259   0.266
63092W        W35517  11.109  38.052  11.996
63093W        W35518  42.812  11.414   1.450
63094W        W35519  16.125  10.111  11.734
63095W        W35520  43.511  40.761   4.957
63096W        W35521  14.674  34.209  10.064
63097W        W35522  38.834  14.022   1.218
63098W        W35523  23.638  10.250  10.449
63099W        W35524  17.244  35.201   9.593
63100W        W35525   2.722   8.385   2.244
63101W        W35526  17.820  38.148   2.792
63102W        W35527  40.546   6.294   2.416
63103W        W35528   1.035   8.316  14.239
63104W        W35529  41.763   7.921   0.316
63105W        W35530  20.617  41.897  10.934
63106W        W35531  40.888  26.230  12.540
63107W        W35532   6.750  32.348  12.425
63108W        W35533   6.864  33.665  12.044
63109W        W35534  27.255  40.915   5.003
63110W        W35535  25.870   8.869  11.569
63111W        W35536   8.253  41.625   3.604
63112W        W35537  32.075   5.245  13.328
63113W        W35538  25.102  25.591   0.259
63114W        W35539   1.292  24.497  10.785
63115W        W35540  42.033  12.124  12.550
63116W        W35541  18.987  29.149  14.806
63117W        W35542  35.359  32.871  12.854
63118W        W35543  29.921  38.312  14.509
63119W        W35544  39.845  17.840   2.268
63120W        W35545  27.630  20.500   3.707
63121W        W35546  22.646  24.693  13.961
63122W        W35547  25.155  42.522   1.791
63123W        W35548  35.099  31.005  11.015
63124W        W35549  43.198   1.070   0.480
63125W        W35550  22.592   1.832  12.439
63126W        W35551  23.765  33.644  13.764
63127W        W35552  18.606   0.942  13.873
63128W        W35553  13.350  32.594   0.322
63129W        W35554  38.809   4.389   4.155
63130W        W35555  13.304  43.405  11.658
63131W        W35556   5.298  25.415   5.009
63132W        W35557  31.745   3.251  14.842
63133W        W35558  34.739  15.611   3.449
63134W        W35559  34.985  41.608  11.620
63135W        W35560  27.977  33.866   5.074
63136W        W35561  16.159  32.551  14.537
63137W        W35562  20.128  24.173   0.266
63138W        W35563  39.331  42.920  11.356
63139W        W35564  34.152  29.549   0.185
63140W        W35565  36.873  41.071   1.727
63141W        W35566  33.595  30.188  13.018
63142W        W35567  19.571  40.555   4.701
63143W        W35568  17.454   3.324   1.047
63144W        W35569  23.052   5.186  12.651
63145W        W35570  44.831  37.721   4.293
63146W        W35571   7.252   5.271   4.557
63147W        W35572  35.046   7.380   4.948
63148W        W35573  37.080  27.951   2.311
63149W        W35574   7.169  16.233   2.225
63150W        W35575   9.776   8.763   4.108
63151W        W35576  12.714  44.413  10.615
63152W        W35577  10.807  11.814  13.007
63153W        W35578  41.886  11.246  14.963
63154W        W35579  20.233  21.830  11.510
63155W        W35580  10.842  22.290   1.233
63156W        W35581  10.321  31.895  13.487
63157W        W35582   6.705  22.802  13.399
63158W        W35583  36.780  10.683  14.006
63159W        W35584  14.553  24.989  11.571
63160W        W35585   1.514  36.449   4.496
63161W        W35586  15.867  22.124   1.883
63162W        W35587  39.217  35.089   3.885
63163W        W35588  29.007   1.230   0.691
63164W        W35589  19.495   8.225  10.860
63165W        W35590  33.381  39.889   4.266
63166W        W35591  43.303  15.443  12.864
63167W        W35592  26.632  20.734  14.099
63168W        W35593  41.525  28.909  11.880
63169W        W35594  44.474  44.722  13.375
63170W        W35595  30.980  28.420   4.135
63171W        W35596  43.200   4.718  13.872
63172W        W35597   5.997   7.500   2.639
63173W        W35598  21.452   1.798   3.799
63174W        W35599   1.165  11.789   3.907
63175W        W35600   8.806  42.271  13.177
63176W        W35601  33.380  37.879  14.807
63177W        W35602  33.631  27.269  10.186
63178W        W35603  10.321  12.695  11.095
63179W        W35604  10.055  44.926   0.141
63180W        W35605  22.500   1.039  11.963
63181W        W35606   1.373  29.474   1.976
63182W        W35607  26.327   5.665   0.872
63183W        W35608  32.051  32.945  11.220
63184W        W35609  19.076  35.584  11.049
63185W        W35610  10.224  41.429  12.967
63186W        W35611   5.191  33.477   3.658
63187W        W35612  14.371   1.782  13.388
63188W        W35613  32.062   7.870   0.536
63189W        W35614  22.167  28.989  12.048
63190W        W35615   9.235  10.839   4.333
63191W        W35616  15.083   8.467   1.705
63192W        W35617  26.130  34.153  11.652
63193W        W35618  38.455  20.243  13.937
63194W        W35619  16.130   8.746  10.638
63195W        W35620  36.692  13.293  13.995
63196W        W35621  39.936  40.235   3.075
63197W        W35622   7.163  12.320   4.157
63198W        W35623   5.680   1.761   0.821
63199W        W35624  36.552   9.593   1.893
63200W        W35625  39.490  41.289   3.256
63201W        W35626  31.876  21.656   2.252
63202W        W35627  35.433  20.777  11.571
63203W        W35628   1.456  44.512   0.873
63204W        W35629  16.454   0.564   3.155
63205W        W35630  32.605  24.441  11.159
63206W        W35631  21.555  38.305   4.131
63207W        W35632  38.417   1.344   3.313
63208W        W35633   8.351  37.520  13.107
63209W        W35634   1.312  21.874  14.252
63210W        W35635  26.772  37.670   2.842
63211W        W35636  32.354   3.508  12.936
63212W        W35637   3.121  18.012  11.643
63213W        W35638  11.849  41.570  13.399
63214W        W35639  14.333  38.781   0.289
63215W        W35640  32.913  36.343   4.500
63216W        W35641  43.001   1.483  11.185
63217W        W35642  23.650  24.832  12.054
63218W        W35643   8.173  34.631   4.281
63219W        W35644   4.833  40.769   4.262
63220W        W35645  35.082  25.560   1.627
63221W        W35646  37.051   4.061  13.338
63222W        W35647  14.937  35.571   0.613
63223W        W35648  29.654  16.786  13.930
63224W        W35649  12.831  34.024  11.703
63225W        W35650   5.258  25.924   2.166
63226W        W35651  24.666  25.524  13.893
63227W        W35652   7.779   7.941   4.175
63228W        W35653  21.389  35.499   1.791
63229W        W35654   2.943  31.979  11.618
63230W        W35655   9.950  33.814  12.598
63231W        W35656  40.284  27.322   1.778
63232W        W35657   7.582   5.256  12.841
63233W        W35658   5.276  16.726   3.858
63234W        W35659  23.692  12.638   0.936
63235W        W35660   9.495   4.905  13.883
63236W        W35661   3.723  31.150   0.283
63237W        W35662   7.962  42.362   1.864
63238W        W35663  37.974  23.515   4.501
63239W        W35664   6.410  23.626  10.849
63240W        W35665  12.251  38.173  12.509
63241W        W35666  31.914   1.732   1.871
63242W        W35667  18.753   5.364   1.510
63243W        W35668   8.219  36.047   1.905
63244W        W35669  32.083   9.856  14.469
63245W        W35670  12.619  24.136   0.977
63246W        W35671   4.888  40.370  14.680
63247W        W35672  13.170   7.880  14.757
63248W        W35673   6.462  29.585  10.058
63249W        W35674  14.535  33.567  11.935
63250W        W35675  18.087  27.059   0.367
63251W        W35676  14.811  25.695  12.004
63252W        W35677  17.827  25.727  11.935
63253W        W35678  44.063  26.170   1.312
63254W        W35679  16.902  21.233  10.760
63255W        W35680  38.858  13.889   3.631
63256W        W35681   5.210  20.545   0.512
63257W        W35682  44.195   3.669   0.054
63258W        W35683   6.659  41.795  11.182
63259W        W35684  31.497  20.795   3.134
63260W        W35685  19.366  33.692   0.486
63261W        W35686  30.077  26.405  10.978
63262W        W35687  28.872   5.716   0.895
63263W        W35688  44.829  30.816   1.651
63264W        W35689  23.624  14.750   3.904
63265W        W35690  15.157   5.422   3.126
63266W        W35691  39.841  24.648  11.949
63267W        W35692  42.498  15.058  14.292
63268W        W35693   0.177  22.287   3.343
63269W        W35694  33.173   6.252   0.640
63270W        W35695  42.532  41.307   3.676
63271W        W35696  42.905  30.096   4.576
63272W        W35697  29.628  43.466  12.916
63273W        W35698  17.801  16.262   0.325
63274W        W35699  44.301  24.600   0.892
63275W        W35700  17.327  28.349  11.967
63276W        W35701  10.592  37.083  14.902
63277W        W35702  44.767  35.001  11.333
63278W        W35703  40.926  12.259   2.731
63279W        W35704  39.566  40.332   4.809
63280W        W35705  34.350  13.215  10.817
63281W        W35706  15.221  40.339   3.687
63282W        W35707  18.225   9.234  12.929
63283W        W35708  31.565  10.658  14.390
63284W        W35709  33.948  14.314  10.368
63285W        W35710  26.784  31.376  12.027
63286W        W35711  32.418  39.275  10.896
63287W        W35712  24.778   7.101  12.243
63288W        W35713  25.265  28.444  12.260
63289W        W35714  29.364   9.658   0.066
63290W        W35715   7.220   3.420  13.939
63291W        W35716   0.878  40.247   4.617
63292W        W35717  20.226   6.098  12.055
63293W        W35718  19.985  21.930  14.897
63294W        W35719  21.955   1.865   3.677
63295W        W35720  28.003  28.732   2.739
63296W        W35721  44.337  42.580   4.519
63297W        W35722  37.394  44.088  13.358
63298W        W35723  23.114  37.266   3.276
63299W        W35724   6.344  17.549  13.501
63300W        W35725  18.173  11.608   3.358
63301W        W35726  28.861  41.006   4.960
63302W        W35727  21.033  27.278  14.814
63303W        W35728   7.764  14.318  12.074
63304W        W35729  29.101  25.997  13.921
63305W        W35730   8.766  26.676  13.444
63306W        W35731   3.923  30.977  11.310
63307W        W35732   2.041  12.032  12.320
63308W        W35733  40.063  23.014  10.611
63309W        W35734  26.395  22.678   4.633
63310W        W35735  23.710  14.705   0.167
63311W        W35736  10.908  35.887   3.073
63312W        W35737  38.840  40.746   4.992
63313W        W35738  19.147   5.646   3.187
63314W        W35739   7.128  38.242  13.938
63315W        W35740  39.826   1.881  13.510
63316W        W35741   1.978  40.626  11.566
63317W        W35742  32.572   8.489   1.239
63318W        W35743  21.206  28.183   1.537
63319W        W35744  23.691  15.200   3.156
63320W        W35745  15.270   1.043   1.634
63321W        W35746  16.752  33.286   1.623
63322W        W35747  20.982  18.797   4.199
63323W        W35748  38.106  25.087  14.815
63324W        W35749  38.082  13.846  12.091
63325W        W35750  28.078  41.589  11.078
63326W        W35751  13.562  23.542  13.564
63327W        W35752  40.977  12.866  14.100
63328W        W35753  32.604  28.340   1.276
63329W        W35754  11.228  17.313  11.007
63330W        W35755  40.827   0.979   1.332
63331W        W35756  38.064   9.949   2.747
63332W        W35757  25.995   2.574   3.377
63333W        W35758   1.958  15.705   1.831
63334W        W35759  35.535  15.544  12.343
63335W        W35760  40.478  22.547  11.239
63336W        W35761  42.853  44.999  11.174
63337W        W35762  11.883  23.433  12.972
63338W        W35763   3.807  13.645   4.175
63339W        W35764  21.170  15.587   1.936
63340W        W35765   3.249  39.850  10.679
63341W        W35766  17.626  22.723   0.900
63342W        W35767  44.678  18.249   4.479
63343W        W35768  43.981  19.831   2.257
63344W        W35769  21.110  39.262   0.955
63345W        W35770  15.176  28.953   1.864
63346W        W35771  29.011  10.582   2.885
63347W        W35772  32.080   1.821  10.162
63348W        W35773  27.664  38.785   4.592
63349W        W35774  35.992   8.961  12.777
63350W        W35775  28.840  13.390   3.772
63351W        W35776   1.909  21.646   3.739
63352W        W35777  20.720  44.316   3.375
63353W        W35778   4.053  10.749   0.460
63354W        W35779  17.690   8.879  10.634
63355W        W35780  19.116  16.989   0.810
63356W        W35781   4.305   1.305   0.927
63357W        W35782  24.436  35.972  12.429
63358W        W35783   6.693   4.018  10.897
63359W        W35784   9.822  36.796  12.997
63360W        W35785   7.863  10.648   4.537
63361W        W35786  17.197  30.423   0.425
63362W        W35787  40.287  42.737   4.626
63363W        W35788  41.788   6.905  13.452
63364W        W35789   1.820   9.412  13.810
63365W        W35790  32.876  18.856   2.152
63366W        W35791  42.879  33.801  12.046
63367W        W35792  29.247  31.859  11.645
63368W        W35793  22.789  25.208   3.197
63369W        W35794  12.649   4.682  11.767
63370W        W35795   9.138   5.732  11.043
63371W        W35796  17.813  27.571  11.601
63372W        W35797   1.283  27.709   3.703
63373W        W35798  23.561  25.045  11.539
63374W        W35799  11.771  32.042   0.987
63375W        W35800  28.143  14.328  12.018
63376W        W35801   5.222  19.492   4.497
63377W        W35802   3.748  22.800  12.986
63378W        W35803  43.640  44.373   3.619
63379W        W35804   5.648  43.360  12.552
63380W        W35805  32.153  41.086  12.891
63381W        W35806  31.666  23.680  13.230
63382W        W35807  42.883   8.305   2.598
63383W        W35808  18.253  33.172  11.542
63384W        W35809  16.274  30.442   0.432
63385W        W35810  42.100  17.761  13.570
63386W        W35811  28.612  13.397   4.258
63387W        W35812   0.359  36.961   3.143
63388W        W35813  16.572  20.813   0.200
63389W        W35814  34.088   0.892   2.922
63390W        W35815  32.699   9.877  12.503
63391W        W35816  37.497   5.503   3.363
63392W        W35817  18.330  12.743  11.654
63393W        W35818   2.559  18.066  12.442
63394W        W35819  14.513  42.970  13.302
63395W        W35820  43.413   5.780   3.875
63396W        W35821  42.974  34.095  14.483
63397W        W35822  38.724  34.966  13.995
63398W        W35823  30.404  25.240   1.672
63399W        W35824  37.206  10.057  10.211
63400W        W35825   0.188   7.795  14.857
63401W        W35826  15.874  44.339  12.865
63402W        W35827  37.348  31.391   1.921
63403W        W35828  42.113   7.296   2.199
63404W        W35829  27.166   1.165   0.273
63405W        W35830  17.059  17.206   4.080
63406W        W35831   1.452  34.882   2.660
63407W        W35832   5.263  22.951  14.926
63408W        W35833   4.008  15.831   2.904
63409W        W35834  25.188   8.820   1.670
63410W        W35835  11.310   7.274   2.884
63411W        W35836   7.604  26.538  10.465
63412W        W35837  18.611  28.911  11.439
63413W        W35838  17.855  27.164   3.909
63414W        W35839  25.660  42.951  12.579
63415W        W35840  35.826  40.688  13.350
63416W        W35841   6.323  28.382   1.979
63417W        W35842   3.219   1.401  12.466
63418W        W35843  10.922  31.879   0.417
63419W        W35844  27.588   1.247   0.661
63420W        W35845  40.411  31.534  14.865
63421W        W35846  18.807  19.043  11.833
63422W        W35847  29.565   4.239  10.763
63423W        W35848   3.766  17.710  13.364
63424W        W35849  36.632   1.345   3.208
63425W        W35850  17.801  23.902  13.482
63426W        W35851  34.899  34.462   1.327
63427W        W35852  40.254  33.878  11.897
63428W        W35853  43.482  36.093  12.481
63429W        W35854  27.036  23.487  14.420
63430W        W35855   9.345  32.123   0.892
63431W        W35856  36.206  14.127   1.183
63432W        W35857  24.888  37.537   1.968
63433W        W35858  10.494  28.597   3.613
63434W        W35859   3.910  10.117   4.298
63435W        W35860   3.116  13.126  11.621
63436W        W35861  32.347  39.494   3.128
63437W        W35862   4.933  33.857  13.023
63438W        W35863  32.896  38.218   3.233
63439W        W35864  22.569  35.754   4.899
63440W        W35865  12.085   8.411   2.714
63441W        W35866  16.840  15.160   2.249
63442W        W35867   9.642  44.757   2.302
63443W        W35868   5.402  42.221   3.413
63444W        W35869  22.927   5.414   4.228
63445W        W35870  14.808  23.672   4.187
63446W        W35871  36.095   7.181  13.487
63447W        W35872   7.974  22.982  10.797
63448W        W35873   2.225  20.837   3.862
63449W        W35874   7.493  41.121   4.247
63450W        W35875   3.712  30.372   4.086
63451W        W35876  32.665  37.436  14.378
63452W        W35877  16.521  25.785   0.862
63453W        W35878  19.282  14.310  13.411
63454W        W35879  36.600  13.611   3.282
63455W        W35880  36.261  16.799   3.478
63456W        W35881   8.841  19.857   2.374
63457W        W35882  28.163  18.840  11.180
63458W        W35883  43.561   2.021   0.178
63459W        W35884  16.247   6.651  14.302
63460W        W35885  37.676  40.787  11.581
63461W        W35886  20.046  16.638  11.091
63462W        W35887  25.468   3.408   3.644
63463W        W35888   6.266  14.118  14.006
63464W        W35889  29.429  13.783  12.576
63465W        W35890  43.236  25.711   3.156
63466W        W35891  19.273  23.671   0.489
63467W        W35892  19.347  10.695   3.143
63468W        W35893  24.644   5.639   4.331
63469W        W35894  28.378   8.782  11.968
63470W        W35895  27.030   3.896  11.228
63471W        W35896  10.094  36.388  11.041
63472W        W35897  20.103   3.253  10.679
63473W        W35898  29.884   1.528  14.740
63474W        W35899   3.771  28.614   1.021
63475W        W35900   0.190  14.657   1.933
63476W        W35901  40.920  31.797  12.013
63477W        W35902  38.021  38.296  12.455
63478W        W35903  42.548   3.215  13.560
63479W        W35904  27.693  16.734  12.375
63480W        W35905  10.343  20.793  14.833
63481W        W35906  29.642   6.680  12.019
63482W        W35907   5.032  44.063   2.858
63483W        W35908  41.350  12.121  12.834
63484W        W35909  23.205  37.557  14.543
63485W        W35910   5.662   6.286   4.095
63486W        W35911  20.074  11.187   3.583
63487W        W35912  35.530   7.447   4.706
63488W        W35913  33.188   8.123  12.171
63489W        W35914  38.813  24.229   1.672
63490W        W35915   5.219  24.218   3.205
63491W        W35916   8.790  28.037   1.169
63492W        W35917  34.315  43.490  10.696
63493W        W35918  23.707  43.589  12.520
63494W        W35919  30.338  33.217   5.019
63495W        W35920  40.003  18.819  13.147
63496W        W35921  44.901   8.488   2.374
63497W        W35922   9.839  37.645  11.694
63498W        W35923  27.734  25.303  12.866
63499W        W35924  12.393  30.923  12.958
63500W        W35925   0.332  13.297  14.321
63501W        W35926  25.916  14.023  11.781
63502W        W35927   5.890   2.800  12.800
63503W        W35928  43.020  41.678  12.043
63504W        W35929   8.923   8.882   4.039
63505W        W35930  12.223  35.332   2.620
63506W        W35931   3.833  11.230  13.036
63507W        W35932   2.359  32.518   1.215
63508W        W35933  14.828  24.646   3.796
63509W        W35934  20.706  44.921   2.712
63510W        W35935   6.289  25.210   0.925
63511W        W35936   8.868  39.776   2.420
63512W        W35937  42.863   8.231   3.655
63513W        W35938  26.491  44.514  13.985
63514W        W35939  12.450  28.018   3.932
63515W        W35940  41.320  10.204   4.682
63516W        W35941  40.000  22.983   1.335
63517W        W35942   9.588  17.636  11.567
63518W        W35943   1.703   8.222   1.274
63519W        W35944   9.142  33.533   4.124
63520W        W35945  26.721  38.108  11.105
63521W        W35946  19.023  15.567   1.973
63522W        W35947  40.295   4.620   5.075
63523W        W35948   8.392  24.112  12.158
63524W        W35949   6.523   1.450  11.155
63525W        W35950  24.389   5.188   2.305
63526W        W35951   0.318  28.473  11.589
63527W        W35952  18.963  16.625  14.815
63528W        W35953  31.677   5.925   1.252
63529W        W35954  36.309  36.988   4.735
63530W        W35955  42.429  22.767   3.327
63531W        W35956  39.946  33.221   1.729
63532W        W35957  32.475  24.730   2.765
63533W        W35958   2.327  30.468   4.184
63534W        W35959  24.007  38.422   3.274
63535W        W35960   3.034  44.013   0.055
63536W        W35961  34.106   3.938   1.183
63537W        W35962  17.970   5.319   3.320
63538W        W35963  31.150   1.823  12.658
63539W        W35964  41.621   5.431   4.116
63540W        W35965   5.219  12.135   1.815
63541W        W35966  40.380  12.055  12.551
63542W        W35967  36.518  42.040   4.864
63543W        W35968  25.580  12.874   1.263
63544W        W35969  31.086   7.932   3.781
63545W        W35970  27.879  20.523  11.880
63546W        W35971  34.562   1.792  12.003
63547W        W35972  44.380  15.275  14.042
63548W        W35973   1.278  18.842  13.051
63549W        W35974  20.662  14.789  12.147
63550W        W35975   2.238   0.484  13.433
63551W        W35976  31.484  17.282   4.037
63552W        W35977  21.041  29.952  12.984
63553W        W35978  29.592  37.753   0.726
63554W        W35979  44.458  27.092  10.444
63555W        W35980  16.227  27.592   1.024
63556W        W35981  35.853  19.115  12.184
63557W        W35982   7.852  26.452   0.366
63558W        W35983  24.069   7.615  11.294
63559W        W35984  35.854  10.058   0.820
63560W        W35985   6.023  42.992  14.224
63561W        W35986   7.918   2.335  12.164
63562W        W35987  28.390   4.192   1.764
63563W        W35988  36.588  22.307  14.430
63564W        W35989  37.964   8.774   4.248
63565W        W35990  44.662  29.903   0.479
63566W        W35991  19.658  39.457  13.544
63567W        W35992  18.241  15.125  13.004
63568W        W35993  25.704  35.952  14.769
63569W        W35994  33.436  28.091  13.732
63570W        W35995   4.761  20.903   4.963
63571W        W35996  32.149   9.692   0.858
63572W        W35997  34.509  28.422  11.096
63573W        W35998  28.499   7.120   0.296
63574W        W35999  37.630  10.324  10.220
63575W        W36000   1.107   9.900  13.357
63576W        W36001  44.806  37.007  14.835
63577W        W36002  25.095   0.781  13.058
63578W        W36003  37.742   8.258   1.309
63579W        W36004  25.360  13.785  13.504
63580W        W36005  39.603   1.695  12.100
63581W        W36006  30.426   6.996   3.891
63582W        W36007  40.904  33.478   1.681
63583W        W36008  29.963  26.517  10.482
63584W        W36009  30.071  33.119   1.241
63585W        W36010  34.752  20.550  12.251
63586W        W36011  40.445  15.007   2.800
63587W        W36012   3.207   1.228   3.350
63588W        W36013  34.676   3.975   0.419
63589W        W36014   4.289  27.677   3.254
63590W        W36015  34.866   2.755  11.138
63591W        W36016  19.596  26.922  12.283
63592W        W36017  14.142  36.108  14.452
63593W        W36018   9.140  33.632  14.912
63594W        W36019  34.439  31.111  13.907
63595W        W36020   4.145  39.498   4.096
63596W        W36021  38.611  22.908   0.910
63597W        W36022  42.441  15.139   3.422
63598W        W36023  19.027  44.938   4.577
63599W        W36024   1.031  36.819  12.610
63600W        W36025  14.695  42.454   3.123
63601W        W36026   3.899  35.122  10.257
63602W        W36027  34.138  20.089   3.222
63603W        W36028  43.004  36.857   0.810
63604W        W36029   7.156  20.678   2.378
63605W        W36030  21.523  15.769  12.022
63606W        W36031  19.257  41.371  14.225
63607W        W36032   8.365  10.887   4.596
63608W        W36033   1.280   9.476   2.913
63609W        W36034  21.538   1.005  13.489
63610W        W36035  42.567  24.942   4.266
63611W        W36036  36.470  38.906  13.507
63612W        W36037  34.884  20.044   2.544
63613W        W36038   2.289  35.958  13.330
63614W        W36039   3.905   5.627   1.105
63615W        W36040   8.097  17.684  12.438
63616W        W36041  12.049  22.476  10.060
63617W        W36042  15.593  13.708   3.226
63618W        W36043  22.521  36.359  10.724
63619W        W36044  13.114   2.771   3.078
63620W        W36045   6.977  19.157   3.223
63621W        W36046  23.592  30.601  10.162
63622W        W36047  25.631  37.385  10.255
63623W        W36048  44.955   8.915  12.067
63624W        W36049  17.539  43.929  11.155
63625W        W36050  33.123  14.544   3.590
63626W        W36051  26.061  22.321   4.788
63627W        W36052  44.520  15.529   2.294
63628W        W36053  18.485   0.739   1.761
63629W        W36054  10.901   8.814  12.596
63630W        W36055   6.230  13.625   2.182
63631W        W36056  26.140  10.205   0.829
63632W        W36057  30.221   3.065   1.341
63633W        W36058   6.430  12.040   3.981
63634W        W36059  19.700  43.823  10.711
63635W        W36060  24.668  15.018  12.046
63636W        W36061  17.628  28.543   1.890
63637W        W36062   4.825   5.671   0.255
63638W        W36063  22.312  13.956  14.428
63639W        W36064  36.437  20.558  11.136
63640W        W36065   3.960   0.459   2.749
63641W        W36066  17.281  27.741   4.915
63642W        W36067   4.726  37.864  11.197
63643W        W36068  31.156   2.873   2.855
63644W        W36069  19.552  41.637   0.495
63645W        W36070  44.407  36.967   3.303
63646W        W36071  15.008  37.574   0.622
63647W        W36072   5.981  20.789   0.572
63648W        W36073  15.653  12.106  14.075
63649W        W36074   1.154  18.161   4.631
63650W        W36075   0.014  37.024   1.616
63651W        W36076  42.921  34.533   3.745
63652W        W36077  24.781  19.206  11.123
63653W        W36078  16.842   8.350  13.959
63654W        W36079  41.218  29.458   3.677
63655W        W36080   2.384  21.548   3.297
63656W        W36081  33.393  28.133  13.226
63657W        W36082  29.686  12.735   0.356
63658W        W36083  12.372  15.192  11.744
63659W        W36084  34.992   4.427  10.545
63660W        W36085  13.317  24.643  14.755
63661W        W36086   6.891  43.474  14.438
63662W        W36087  25.055  32.619  12.851
63663W        W36088  25.640  18.042   2.678
63664W        W36089  21.517   4.733   3.714
63665W        W36090  35.170   6.981  10.738
63666W        W36091   4.984  14.253  10.384
63667W        W36092   8.469  36.151  13.755
63668W        W36093  17.520  37.146   0.278
63669W        W36094   9.814   0.710   3.678
63670W        W36095  21.076  18.738   1.857
63671W        W36096   2.340  29.641   1.426
63672W        W36097  20.783  38.513   2.387
63673W        W36098  21.955  39.430  13.874
63674W        W36099  25.494  28.518  13.642
63675W        W36100   7.754  21.652   0.146
63676W        W36101  35.445  22.156  14.806
63677W        W36102  19.264  39.329  12.386
63678W        W36103  24.197  43.965   1.786
63679W        W36104   3.254  14.532   0.402
63680W        W36105  22.421  34.331  14.440
63681W        W36106  38.879  16.619  12.607
63682W        W36107   4.706  37.429  11.488
63683W        W36108  12.866  41.004  11.049
63684W        W36109  12.941  34.860  12.071
63685W        W36110  30.126  35.574  11.158
63686W        W36111  38.767  34.161   2.170
63687W        W36112  34.426  18.313  14.749
63688W        W36113  21.076  22.471   3.587
63689W        W36114   1.678   8.768  10.781
63690W        W36115  43.851   0.397  14.321
63691W        W36116  34.706  30.694   4.166
63692W        W36117  42.247  21.702   2.190
63693W        W36118  25.071  42.312  13.391
63694W        W36119  25.651  14.705   0.800
63695W        W36120   3.886  41.474   3.162
63696W        W36121  19.177  34.386  12.142
63697W        W36122  30.402  16.559   4.504
63698W        W36123  38.950  12.709   4.271
63699W        W36124   7.766   1.313  12.992
63700W        W36125  18.924  10.409  10.252
63701W        W36126   6.693   7.473   1.322
63702W        W36127   5.426  20.758   2.814
63703W        W36128  30.512  34.801   4.387
63704W        W36129  14.849  36.914  14.422
63705W        W36130  27.954  11.202  11.173
63706W        W36131   5.734  35.283  13.625
63707W        W36132  19.146   6.007  13.877
63708W        W36133  24.525  40.820   1.194
63709W        W36134  30.446   9.692  12.640
63710W        W36135  27.925  23.716   4.585
63711W        W36136  10.585   5.924   1.644
63712W        W36137   5.890  37.236   2.114
63713W        W36138  23.958   1.441  11.911
63714W        W36139  22.021  10.746   3.641
63715W        W36140   2.883   3.222   3.401
63716W        W36141   2.402  14.194  12.492
63717W        W36142  22.619  31.495   4.192
63718W        W36143  38.168  41.561   5.067
63719W        W36144  17.313  31.561   5.071
63720W        W36145   4.668  25.057   4.588
63721W        W36146   4.702   6.989   1.415
63722W        W36147  26.207  10.272  14.368
63723W        W36148  30.555  28.200   0.389
63724W        W36149  18.498  42.498  11.625
63725W        W36150   2.620  27.947  11.703
63726W        W36151  38.572  36.104   2.168
63727W        W36152  23.970   6.442   0.456
63728W        W36153  30.625   4.306  11.628
63729W        W36154  17.588  12.407   0.768
63730W        W36155  19.597   7.445  12.882
63731W        W36156  18.517  13.236  11.659
63732W        W36157  12.654  27.604   3.762
63733W        W36158  11.197  17.397   1.805
63734W        W36159  21.380  20.961   0.701
63735W        W36160  30.475  10.547   1.694
63736W        W36161  14.724  44.415   2.796
63737W        W36162  21.341  20.601   1.115
63738W        W36163  10.652  15.781   2.919
63739W        W36164  30.106  14.077  11.504
63740W        W36165  26.713  17.798  13.874
63741W        W36166  18.840  41.814  11.623
63742W        W36167   0.485  20.580  13.498
63743W        W36168   0.067  20.719  10.671
63744W        W36169  17.689  39.957   0.428
63745W        W36170  23.997  35.512   2.763
63746W        W36171   1.951  23.730   0.867
63747W        W36172  30.480  43.963   3.559
63748W        W36173  35.084  18.708   1.333
63749W        W36174   4.443  24.836   4.167
63750W        W36175  31.815  23.238  13.532
63751W        W36176   1.270  37.134  13.452
63752W        W36177  15.689  21.391   2.789
63753W        W36178   2.281  26.360  11.539
63754W        W36179  30.002   0.094  13.037
63755W        W36180  38.734   3.895  12.526
63756W        W36181  36.148  25.646  11.213
63757W        W36182  38.722  33.559   2.740
63758W        W36183  13.306   1.274   5.496
63759W        W36184  42.870   9.518  13.488
63760W        W36185  23.918  42.024   2.702
63761W        W36186  35.574  12.243  14.205
63762W        W36187  20.963  31.438   3.124
63763W        W36188  43.915   1.062  14.044
63764W        W36189  24.028  26.508  14.411
63765W        W36190  41.565  19.354  10.520
63766W        W36191  36.058  41.048  13.948
63767W        W36192  38.699  21.113  11.578
63768W        W36193   7.134  26.494  11.406
63769W        W36194   1.232  44.483   0.389
63770W        W36195   4.457  13.368   3.608
63771W        W36196  28.094  23.721   9.754
63772W        W36197   9.902  14.304  12.564
63773W        W36198  29.247  41.743  11.014
63774W        W36199  15.245  40.267  14.503
63775W        W36200  33.331  12.219  10.315
63776W        W36201  17.836   2.677   2.444
63777W        W36202  38.540   0.818   4.608
63778W        W36203  43.481  15.181  13.902
63779W        W36204  33.691  13.827   2.234
63780W        W36205  41.720  11.206  12.578
63781W        W36206   4.137  14.814  11.732
63782W        W36207   5.394  42.094  13.787
63783W        W36208   6.352  23.082  14.546
63784W        W36209  43.792  24.183   3.193
63785W        W36210  34.632  10.370   0.356
63786W        W36211   3.585   2.376  11.889
63787W        W36212   8.152  43.802  12.045
63788W        W36213  20.972  20.113  13.941
63789W        W36214   5.086   0.280  12.903
63790W        W36215  44.557   1.981  12.360
63791W        W36216   1.339  39.344  12.631
63792W        W36217  23.037  23.772  11.949
63793W        W36218  21.051  42.280  11.972
63794W        W36219   3.211   4.124  11.615
63795W        W36220  19.556  29.030  11.201
63796W        W36221  12.697  13.747   4.536
63797W        W36222   6.815   8.863  12.549
63798W        W36223  10.295  42.348   4.025
63799W        W36224  41.299  44.486   4.140
63800W        W36225  21.763  19.789  14.907
63801W        W36226  43.317  26.644  13.809
63802W        W36227  20.690  27.122   3.229
63803W        W36228  22.301  44.422  13.296
63804W        W36229   7.639  11.167   0.779
63805W        W36230  14.288   2.692  10.788
63806W        W36231  26.247  17.223  10.947
63807W        W36232  17.127   5.757  13.112
63808W        W36233  27.706  27.180   4.185
63809W        W36234  10.826  18.046  14.932
63810W        W36235  19.236  16.705   5.007
63811W        W36236  35.407  28.028  11.200
63812W        W36237   1.017   7.912   0.836
63813W        W36238  13.576  21.266   4.019
63814W        W36239   3.676  13.936  10.700
63815W        W36240   9.845  14.199  12.059
63816W        W36241  39.308  10.138   4.529
63817W        W36242   7.882  30.460   3.352
63818W        W36243   2.394  15.617   1.572
63819W        W36244  40.631  13.089   5.054
63820W        W36245  30.621  15.709   0.586
63821W        W36246  30.332  36.501   2.954
63822W        W36247  42.044  13.424   3.055
63823W        W36248  27.050  34.607  11.438
63824W        W36249  28.406  38.908   0.518
63825W        W36250  28.286  17.676   3.305
63826W        W36251  20.181  11.373  13.439
63827W        W36252  41.914   7.965   1.196
63828W        W36253   1.951  29.320   1.269
63829W        W36254   3.885  35.638   0.273
63830W        W36255  36.087  15.346  14.686
63831W        W36256  20.854  12.263  14.504
63832W        W36257  16.315   7.545  10.946
63833W        W36258  29.972  28.597  12.012
63834W        W36259   2.410  26.763   0.076
63835W        W36260  31.118   9.580  11.147
63836W        W36261  39.774   0.972  13.333
63837W        W36262  35.491  32.520  14.301
63838W        W36263   2.876  30.757  14.632
63839W        W36264  19.678  34.795   1.843
63840W        W36265  23.974  33.900  11.383
63841W        W36266  37.921  41.317   0.253
63842W        W36267   9.915  27.141   1.080
63843W        W36268  10.191   4.633  13.055
63844W        W36269  38.333  33.083   0.741
63845W        W36270  13.760  21.068  14.248
63846W        W36271  44.978  34.571   3.923
63847W        W36272  44.322  10.699  12.304
63848W        W36273  22.269  25.615  13.653
63849W        W36274   8.228  28.410  11.609
63850W        W36275  24.557  17.674   1.488
63851W        W36276  18.728  35.235  12.562
63852W        W36277  42.245  34.918  12.870
63853W        W36278   3.211  43.775   2.317
63854W        W36279  35.058  12.915   3.197
63855W        W36280   8.313  24.333   3.300
63856W        W36281  27.621  22.035  11.523
63857W        W36282  40.969  23.564  12.366
63858W        W36283  29.911  14.057   4.876
63859W        W36284  34.416  28.515  14.539
63860W        W36285   7.137   0.257  13.466
63861W        W36286  36.843  18.195  11.876
63862W        W36287  13.451  19.461  11.156
63863W        W36288  37.847  26.335  10.589
63864W        W36289  19.486  29.041  14.824
63865W        W36290   1.654  39.731  10.834
63866W        W36291  28.453  28.927  14.438
63867W        W36292   5.317  24.055  10.449
63868W        W36293  44.938  14.893  11.662
63869W        W36294  15.547  28.173  12.128
63870W        W36295  11.597  23.672  12.533
63871W        W36296  41.413  20.042   5.442
63872W        W36297  31.161  27.520   4.203
63873W        W36298  29.333  30.656  12.019
63874W        W36299  37.487  25.968   2.265
63875W        W36300  15.560  33.307  13.817
63876W        W36301  26.748   9.722   2.314
63877W        W36302  10.579  43.724  14.002
63878W        W36303  11.852  20.154   4.819
63879W        W36304  25.190  22.144   4.583
63880W        W36305   4.196  38.458  13.063
63881W        W36306  35.989  44.236  13.431
63882W        W36307   9.842   3.539  13.556
63883W        W36308  15.354   4.296  14.510
63884W        W36309   9.801   6.373  10.766
63885W        W36310  34.408  14.856   4.235
63886W        W36311   3.344  32.373   2.672
63887W        W36312   1.552  32.030  11.135
63888W        W36313  34.934  22.654   1.500
63889W        W36314  11.593  30.515   1.329
63890W        W36315   7.942  35.483   2.755
63891W        W36316  41.019  43.530   3.636
63892W        W36317   3.071  40.988   3.204
63893W        W36318  32.057   4.074  10.676
63894W        W36319  11.216   4.271   2.586
63895W        W36320  20.426  27.170  12.875
63896W        W36321   0.491  44.256   3.832
63897W        W36322   2.201   1.947   5.018
63898W        W36323  33.440  37.051  11.402
63899W        W36324  37.126  43.801  12.496
63900W        W36325  22.613  41.036   4.141
63901W        W36326  43.599  19.515  11.237
63902W        W36327  25.791   1.306   2.937
63903W        W36328  42.334  24.192   0.518
63904W        W36329   7.780  39.136   0.981
63905W        W36330  40.949   8.596   3.145
63906W        W36331   7.446  14.267   5.089
63907W        W36332  43.788   9.419   3.572
63908W        W36333   4.759  34.827  11.288
63909W        W36334  40.475  21.012  13.317
63910W        W36335  22.778  15.826   0.323
63911W        W36336  34.242  24.428  11.928
63912W        W36337   7.423  14.163  13.522
63913W        W36338  19.558  10.206   0.811
63914W        W36339  21.303   4.360   4.017
63915W        W36340  38.101  19.579   5.022
63916W        W36341  19.529  27.247  11.416
63917W        W36342  28.079   0.612   4.579
63918W        W36343  17.105  19.478   4.529
63919W        W36344  38.103  15.808   3.803
63920W        W36345  42.375  18.218   3.563
63921W        W36346  31.986  18.193  12.982
63922W        W36347  40.874   4.082   3.924
63923W        W36348   1.052  26.331   4.986
63924W        W36349  18.195  27.598   3.817
63925W        W36350  30.927   2.645   4.883
63926W        W36351  19.607  25.847  11.642
63927W        W36352  31.341  28.554  10.666
63928W        W36353  32.476  43.843   4.172
63929W        W36354  42.905  18.605  13.995
63930W        W36355  18.145  13.644   4.511
63931W        W36356   5.632  15.904  12.278
63932W        W36357  36.541   7.903   3.069
63933W        W36358  36.935  36.918   0.862
63934W        W36359  32.231  33.487   0.136
63935W        W36360   5.679  34.446   1.882
63936W        W36361   9.646  24.683  10.384
63937W        W36362  33.797   7.908   1.381
63938W        W36363  18.048  22.893  14.345
63939W        W36364   5.187  28.564  13.418
63940W        W36365  16.765  10.354  12.833
63941W        W36366   5.669  18.766   3.423
63942W        W36367  37.453   1.225   4.927
63943W        W36368  25.179   3.159  12.400
63944W        W36369  22.997  38.823   1.232
63945W        W36370  32.503  20.954  13.314
63946W        W36371  27.023  17.717  13.343
63947W        W36372  42.882  27.253   1.840
63948W        W36373   0.331   5.875   4.137
63949W        W36374  28.533  13.704   2.519
63950W        W36375  18.937  32.882   3.360
63951W        W36376  17.149  30.508   0.941
63952W        W36377  32.580  33.404  10.672
63953W        W36378  20.338  35.090   2.803
63954W        W36379  11.580  25.610   4.120
63955W        W36380   2.749   4.769   4.952
63956W        W36381   5.406  30.569  12.489
63957W        W36382  17.674   4.195   2.017
63958W        W36383  13.748  29.881  14.131
63959W        W36384  40.807   7.587  11.597
63960W        W36385  23.347   5.201   2.146
63961W        W36386  28.461  23.685   2.213
63962W        W36387  40.286  33.467   3.709
63963W        W36388   4.722  30.521   0.318
63964W        W36389   7.196  28.527   2.111
63965W        W36390   2.731   5.790  14.104
63966W        W36391  38.645  30.444  10.306
63967W        W36392  20.659   7.440  13.028
63968W        W36393  21.696  18.006   3.055
63969W        W36394  25.631  30.529  13.745
63970W        W36395  12.074  30.425   0.452
63971W        W36396  15.851  22.776   5.148
63972W        W36397  36.725  11.862   3.691
63973W        W36398   8.946  17.755  11.987
63974W        W36399   7.008   9.979  11.149
63975W        W36400  15.542  11.902  12.902
63976W        W36401  31.463   8.265  14.471
63977W        W36402  12.049   3.870   0.842
63978W        W36403  44.007  36.338   3.121
63979W        W36404  31.898  25.077   4.903
63980W        W36405   0.617  13.731   2.433
63981W        W36406  32.297  38.996   0.939
63982W        W36407  11.299  10.337  12.308
63983W        W36408   1.989  36.653   2.198
63984W        W36409  16.587  12.171  11.176
63985W        W36410  21.145  12.838  13.313
63986W        W36411  13.233  13.752  11.644
63987W        W36412  21.488  26.164  13.372
63988W        W36413  30.873  27.387   3.792
63989W        W36414  37.488   5.342  14.376
63990W        W36415  21.188  25.970   4.603
63991W        W36416   7.491  35.185   2.734
63992W        W36417  39.307  27.659   3.341
63993W        W36418  33.094   8.228  14.970
63994W        W36419  22.129  38.062  13.992
63995W        W36420  37.931  12.648   0.953
63996W        W36421  43.686  18.110  11.672
63997W        W36422  19.227  41.146  13.756
63998W        W36423   9.176  17.161   3.840
63999W        W36424  43.332  31.400   3.150
64000W        W36425   0.909  34.406  11.568
64001W        W36426  11.265  11.325  11.038
64002W        W36427  42.409  17.127   4.308
64003W        W36428  19.278   3.417  12.183
64004W        W36429  38.786  33.149  12.349
64005W        W36430  40.807  32.868   3.655
64006W        W36431  34.504   7.848   1.920
64007W        W36432  10.639  33.972   2.898
64008W        W36433   0.267   3.083   3.388
64009W        W36434  36.838  15.743   4.952
64010W        W36435  16.597  36.070  12.016
64011W        W36436  29.635  26.535   4.552
64012W        W36437  35.027  27.682   4.149
64013W        W36438  43.490  33.465  10.160
64014W        W36439  29.165  41.453  12.578
64015W        W36440   6.262  31.992  12.517
64016W        W36441  26.137  19.627  13.852
64017W        W36442   7.199  28.953   2.724
64018W        W36443  25.041  12.583  11.139
64019W        W36444  21.988  26.545   4.174
64020W        W36445   5.640  44.702  14.430
64021W        W36446  21.502  15.569   4.624
64022W        W36447   7.756  42.370  11.551
64023W        W36448   6.872  41.400   3.333
64024W        W36449  11.152  29.002  13.201
64025W        W36450  17.186  30.055  11.714
64026W        W36451  14.693   0.278   3.747
64027W        W36452  27.005  16.559   4.467
64028W        W36453  27.945  36.631   0.672
64029W        W36454  31.374  15.649   1.219
64030W        W36455  40.368   6.390   4.673
64031W        W36456   0.753  30.552   0.811
64032W        W36457  21.157   8.664  10.755
64033W        W36458  10.267   8.820  11.067
64034W        W36459  33.935  28.518  12.072
64035W        W36460  40.407  43.388  14.224
64036W        W36461  15.245  38.417   3.110
64037W        W36462  42.035  22.243  10.280
64038W        W36463  33.833  14.750   0.258
64039W        W36464   5.710  17.293  13.803
64040W        W36465   6.269  21.069   1.773
64041W        W36466  42.516  42.896   2.297
64042W        W36467   9.176  13.080  10.362
64043W        W36468   8.116  43.283  14.808
64044W        W36469  40.750   4.120   4.544
64045W        W36470  41.759  21.823   1.043
64046W        W36471  33.203  32.926  11.179
64047W        W36472  27.410   1.299  11.166
64048W        W36473  26.776  27.625  11.124
64049W        W36474  36.867  44.713  10.710
64050W        W36475  19.091  27.067   1.279
64051W        W36476  10.639   6.238  13.998
64052W        W36477   5.426  31.868   3.080
64053W        W36478  15.797  37.278   1.437
64054W        W36479  36.286   7.665  11.040
64055W        W36480  14.055  28.242  14.449
64056W        W36481  19.153  17.071  10.635
64057W        W36482   9.726  10.309  13.452
64058W        W36483  20.043   7.979  13.402
64059W        W36484  27.014  40.928   1.230
64060W        W36485   2.403   4.435   4.343
64061W        W36486  41.038  31.060  14.639
64062W        W36487  44.318  12.628  14.946
64063W        W36488   9.803  22.233  10.639
64064W        W36489  36.534  17.704   4.662
64065W        W36490  25.664  26.670   4.189
64066W        W36491  26.809  33.020  11.117
64067W        W36492  21.700  44.718  13.962
64068W        W36493  11.761   0.781   4.211
64069W        W36494   1.026  37.110   3.662
64070W        W36495   6.291  15.472  10.478
64071W        W36496  30.161  42.926   4.145
64072W        W36497   6.421  44.438   3.716
64073W        W36498  14.799   8.255   0.330
64074W        W36499  25.507   3.930   1.476
64075W        W36500  32.982  24.680  13.838
64076W        W36501  17.759   2.017  14.514
64077W        W36502   3.328   1.165  14.275
64078W        W36503  10.797   3.764   2.267
64079W        W36504  10.648   1.763   1.349
64080W        W36505   5.210   5.257  13.334
64081W        W36506   8.970  26.537   4.734
64082W        W36507   8.425   2.908  12.844
64083W        W36508  38.520  41.543  13.894
64084W        W36509   3.696   2.558   1.944
64085W        W36510  16.239  31.574   4.157
64086W        W36511  21.471  32.168   4.669
64087W        W36512  29.518  31.801   1.827
64088W        W36513  32.457   0.539   2.301
64089W        W36514  23.904  11.261   4.108
64090W        W36515  43.776   3.463   1.389
64091W        W36516  15.531   9.745   3.375
64092W        W36517  42.501  10.300   4.205
64093W        W36518  12.095  35.709  11.771
64094W        W36519  23.625   9.676   0.784
64095W        W36520  15.624   9.129  14.854
64096W        W36521  23.115  35.450  10.618
64097W        W36522   9.366   9.991  10.179
64098W        W36523  25.600   2.175   3.395
64099W        W36524  41.185   1.917   1.788
64100W        W36525   1.875  36.962   1.784
64101W        W36526  25.044  41.483  14.369
64102W        W36527   2.552   6.138  11.311
64103W        W36528  13.342   4.422  12.949
64104W        W36529   9.394  33.807  11.057
64105W        W36530   1.486   9.615   3.357
64106W        W36531   5.824  27.026   3.018
64107W        W36532  36.047  41.052  11.686
64108W        W36533  13.867  11.302  13.571
64109W        W36534  33.667  23.806  10.007
64110W        W36535   9.927  25.424  11.944
64111W        W36536  44.735  39.583   0.468
64112W        W36537   9.726  28.051   4.656
64113W        W36538   4.291  33.503  10.853
64114W        W36539  23.160  33.785  10.549
64115W        W36540  23.190   7.153  10.558
64116W        W36541  29.689  39.503   4.408
64117W        W36542  43.415  12.782  12.211
64118W        W36543  14.547  29.964   0.264
64119W        W36544   4.473  26.139   2.698
64120W        W36545  15.301  31.579   0.869
64121W        W36546  41.124  34.268  11.972
64122W        W36547  25.948  16.780  14.500
64123W        W36548  37.693   8.202   0.481
64124W        W36549  17.668   6.556  13.811
64125W        W36550  37.585  41.306   2.384
64126W        W36551  17.656  35.540   0.252
64127W        W36552  17.962  43.586   2.384
64128W        W36553  37.349  34.570   4.332
64129W        W36554  24.690  35.257  12.020
64130W        W36555  34.852  36.312  13.322
64131W        W36556  17.136  26.617   2.745
64132W        W36557  18.665  20.785  12.322
64133W        W36558  24.733  22.618  12.247
64134W        W36559  29.300  25.147  10.441
64135W        W36560  24.487  23.213   4.271
64136W        W36561  12.290   3.644  11.009
64137W        W36562  18.087  22.225   4.543
64138W        W36563  30.438  16.308   1.889
64139W        W36564  40.348  16.657  13.849
64140W        W36565  15.634  30.112  10.593
64141W        W36566   9.360  26.626  12.696
64142W        W36567  28.923  22.300   0.434
64143W        W36568  38.744  12.198   1.797
64144W        W36569  34.479  33.853   4.258
64145W        W36570   9.297  41.954  12.403
64146W        W36571  43.551   0.966  13.651
64147W        W36572  22.709  10.122   0.974
64148W        W36573  17.681  26.756   4.764
64149W        W36574  25.509  21.459   0.998
64150W        W36575   9.796   5.439  13.413
64151W        W36576  25.129   7.845  12.956
64152W        W36577  13.688   1.268   3.520
64153W        W36578   8.134  16.256   0.857
64154W        W36579  42.265  42.579   3.174
64155W        W36580  32.819  10.373  12.613
64156W        W36581  31.921  26.544  11.404
64157W        W36582   9.213  39.310   2.664
64158W        W36583  35.333  38.381  12.107
64159W        W36584  22.447   0.892   2.858
64160W        W36585  24.523  27.183  14.775
64161W        W36586   6.151  35.813  12.929
64162W        W36587  36.884  33.017   4.481
64163W        W36588  14.111  14.158  10.762
64164W        W36589  40.835   7.381  12.438
64165W        W36590  32.510  13.550   0.003
64166W        W36591  29.520   4.956   4.206
64167W        W36592  22.497  12.023  13.407
64168W        W36593   3.219  30.475   1.340
64169W        W36594   9.324  37.090   3.231
64170W        W36595  43.700  27.942   1.672
64171W        W36596  31.201  43.838  12.989
64172W        W36597   0.888  16.681   3.450
64173W        W36598  43.187  29.610  11.575
64174W        W36599  27.225  41.746  11.075
64175W        W36600  41.069  28.467   1.678
64176W        W36601  44.328  39.933  12.071
64177W        W36602  18.362   1.302  14.394
64178W        W36603  39.443   4.474   3.567
64179W        W36604  44.043  42.521   1.379
64180W        W36605  29.091  18.490   4.693
64181W        W36606  20.229  26.419   0.805
64182W        W36607  28.127   6.353   3.735
64183W        W36608  26.136  44.116   3.180
64184W        W36609   4.722   9.054   0.874
64185W        W36610  42.904  39.600  10.705
64186W        W36611  26.296  41.227  13.065
64187W        W36612  39.735  29.520  12.572
64188W        W36613  20.553  32.115  13.927
64189W        W36614  35.528  31.309  13.777
64190W        W36615  13.301  16.788   3.205
64191W        W36616  29.376   8.851   4.097
64192W        W36617  44.847  11.550   0.315
64193W        W36618   0.712  41.882   3.796
64194W        W36619  20.301  21.504  13.342
64195W        W36620   6.315  34.501   0.707
64196W        W36621  21.133  40.674   5.062
64197W        W36622   6.290   1.668  10.724
64198W        W36623  38.779  30.222  12.380
64199W        W36624  42.254  19.297  13.529
64200W        W36625  17.513  42.482   3.069
64201W        W36626  19.905  12.311  11.903
64202W        W36627  20.819  18.836   1.291
64203W        W36628  37.855  15.334   3.736
64204W        W36629  26.195  21.236   4.772
64205W        W36630  12.234  25.486  13.835
64206W        W36631  26.957   4.435   0.366
64207W        W36632  26.051  17.756   1.746
64208W        W36633  36.563  38.873   2.206
64209W        W36634  29.451  41.844   9.704
64210W        W36635   3.297  18.347  10.787
64211W        W36636  34.952   6.083  14.196
64212W        W36637   9.364   4.887  14.770
64213W        W36638  21.501  36.457   2.240
64214W        W36639  34.630  25.383   4.901
64215W        W36640   1.723  34.332   2.128
64216W        W36641  40.469  24.305  12.418
64217W        W36642   8.261   5.301  14.858
64218W        W36643  26.040  15.322  14.926
64219W        W36644  33.956  24.153  11.595
64220W        W36645  27.083  22.434  14.193
64221W        W36646   4.801  29.951  11.164
64222W        W36647  17.263  42.548  12.119
64223W        W36648   1.173  17.710  11.138
64224W        W36649  14.339   0.667   3.033
64225W        W36650  17.571  18.800   4.450
64226W        W36651  20.075  42.956   0.929
64227W        W36652  41.380  34.881  14.893
64228W        W36653  16.177   9.872  11.310
64229W        W36654  36.641   7.633  14.276
64230W        W36655  37.074  27.296   3.597
64231W        W36656  41.992   0.656   4.020
64232W        W36657  13.074  21.572   0.369
64233W        W36658  38.487  15.226   2.159
64234W        W36659  39.543  28.186  12.995
64235W        W36660  33.400  44.968   4.146
64236W        W36661  17.244  44.959   4.588
64237W        W36662  16.852  31.637  12.541
64238W        W36663   2.107  27.286  11.142
64239W        W36664   7.900  26.494   1.430
64240W        W36665   9.524  39.395  12.759
64241W        W36666  12.720  10.144   1.391
64242W        W36667  38.734  22.556  11.090
64243W        W36668  44.726  13.789  11.963
64244W        W36669  27.148  34.505   1.203
64245W        W36670  14.771   4.774  13.897
64246W        W36671  40.521  19.622   2.940
64247W        W36672   2.781  35.944  14.110
64248W        W36673  32.486  13.246  11.189
64249W        W36674  19.792  44.016   3.214
64250W        W36675  21.152   8.139   2.660
64251W        W36676   4.805  41.422  10.304
64252W        W36677  19.071  23.178  12.384
64253W        W36678  26.042  36.595   1.445
64254W        W36679  16.540  25.116  13.851
64255W        W36680   5.383   5.306  11.190
64256W        W36681  14.964  22.721  11.524
64257W        W36682  25.920  29.503   4.868
64258W        W36683   5.425  42.489   1.969
64259W        W36684  18.517  34.629   9.835
64260W        W36685  27.514   8.111   4.572
64261W        W36686   1.549  13.568   2.241
64262W        W36687  12.772  44.292  11.136
64263W        W36688  19.073  13.292  11.676
64264W        W36689   2.697  26.703   3.422
64265W        W36690  11.185  20.612   4.432
64266W        W36691  22.125  32.266  12.839
64267W        W36692   2.072  32.517   4.604
64268W        W36693  44.354  27.132  14.502
64269W        W36694  15.512  15.588  12.511
64270W        W36695  12.191  43.959   1.251
64271W        W36696   3.954  38.860  10.461
64272W        W36697  26.753   9.442   4.074
64273W        W36698  30.197  41.862  13.078
64274W        W36699  31.491  43.967   4.928
64275W        W36700   9.422  17.329  12.410
64276W        W36701  22.728  20.694  14.020
64277W        W36702  42.379  23.686  10.891
64278W        W36703  14.352  42.051   3.882
64279W        W36704  39.308  20.606  11.154
64280W        W36705  35.982  32.430   0.992
64281W        W36706  42.445  22.164   0.031
64282W        W36707  27.666  24.563   3.580
64283W        W36708  18.930   7.452   3.188
64284W        W36709  36.581  13.799  12.900
64285W        W36710  23.267  25.251  11.974
64286W        W36711  19.473  21.620   1.228
64287W        W36712   9.335   5.153  14.329
64288W        W36713   3.256   3.948   1.395
64289W        W36714  20.122  27.941   4.315
64290W        W36715  21.400   6.751   2.757
64291W        W36716  31.632   5.676   2.683
64292W        W36717  21.561   3.768  11.203
64293W        W36718  36.874   1.889  14.321
64294W        W36719  25.666  16.914   3.610
64295W        W36720  14.049  39.355  10.374
64296W        W36721   1.970   1.003   0.459
64297W        W36722  23.702  37.880   4.991
64298W        W36723   0.425   1.540  13.534
64299W        W36724   3.018  44.617   2.861
64300W        W36725  17.600  32.218   9.853
64301W        W36726   0.860  24.968  13.977
64302W        W36727  13.402  34.952   2.758
64303W        W36728  25.354  16.688  11.639
64304W        W36729  16.264  44.218   0.437
64305W        W36730  11.292  17.770  11.923
64306W        W36731   0.257   5.893  12.236
64307W        W36732   1.814  19.306   0.551
64308W        W36733   5.101  29.236   3.830
64309W        W36734  33.493  12.357   3.655
64310W        W36735  38.599  44.972  10.408
64311W        W36736  41.030  34.460  10.746
64312W        W36737  36.537  19.770  12.432
64313W        W36738  25.150   0.839   4.177
64314W        W36739  24.955  32.509   0.014
64315W        W36740  21.713  21.501   4.729
64316W        W36741  24.105   3.466   1.313
64317W        W36742   7.303   1.966  11.131
64318W        W36743  31.870  22.260  13.014
64319W        W36744  36.094   6.943  10.103
64320W        W36745   9.774   5.297  14.078
64321W        W36746  33.911  17.635   1.869
64322W        W36747   6.268  27.057   2.720
64323W        W36748  16.901  32.495  10.163
64324W        W36749   3.637   3.627   3.825
64325W        W36750  22.166  24.290  12.137
64326W        W36751  19.027  30.727   1.170
64327W        W36752  27.940  30.519  14.349
64328W        W36753  22.521  14.586  13.781
64329W        W36754  27.448   6.292   0.686
64330W        W36755  11.296  13.051  14.957
64331W        W36756  24.635   7.589  12.128
64332W        W36757   9.811  37.868  10.750
64333W        W36758  33.942  35.936   1.477
64334W        W36759  16.849   7.824   3.150
64335W        W36760  40.105   2.713   1.940
64336W        W36761   1.441  37.403   2.859
64337W        W36762  11.830  13.226   1.261
64338W        W36763  35.946  24.746   1.315
64339W        W36764  42.327   0.413   0.761
64340W        W36765  41.031  14.049  14.501
64341W        W36766  16.628  19.317   1.785
64342W        W36767  23.207  17.247  14.119
64343W        W36768  28.059  42.978   4.656
64344W        W36769   5.920   2.004   1.250
64345W        W36770  15.202   4.636  10.669
64346W        W36771  31.587  11.667  11.570
64347W        W36772  38.561   7.346   4.465
64348W        W36773   4.895   6.525   1.279
64349W        W36774   8.756  26.540   1.707
64350W        W36775  40.554  24.800   0.903
64351W        W36776  21.501  15.810   0.003
64352W        W36777  40.513  34.183  13.321
64353W        W36778   1.427   2.452   0.979
64354W        W36779  18.211  12.596   5.011
64355W        W36780  40.941  14.420   0.338
64356W        W36781  38.027  34.809  14.564
64357W        W36782  10.751  18.097  12.587
64358W        W36783   4.452   5.526  10.727
64359W        W36784  14.888  16.193  13.510
64360W        W36785  36.116   5.754  14.309
64361W        W36786  14.727  27.602  14.607
64362W        W36787  41.807  43.184   5.126
64363W        W36788  11.254  20.760   0.748
64364W        W36789  18.293  31.982  12.412
64365W        W36790  43.962   5.710  14.106
64366W        W36791  23.412   8.163   4.801
64367W        W36792   4.851  22.740   3.842
64368W        W36793  11.620  22.460  12.948
64369W        W36794  19.513   7.173  11.117
64370W        W36795  43.042   8.146   0.025
64371W        W36796  13.910  16.398   2.803
64372W        W36797  11.829  39.666  10.926
64373W        W36798   9.786  41.480   4.638
64374W        W36799   1.852  21.607   2.287
64375W        W36800  29.996  42.304   1.507
64376W        W36801  36.939   6.413   4.240
64377W        W36802  20.615  38.482   1.894
64378W        W36803   6.347   4.227  10.567
64379W        W36804  20.031   1.214   1.812
64380W        W36805   3.010   9.797   4.644
64381W        W36806   2.502   6.966  11.953
64382W        W36807  10.280  20.599   3.176
64383W        W36808  39.471   5.737  12.635
64384W        W36809  23.656  27.132   0.490
64385W        W36810  28.272  38.414   9.654
64386W        W36811  19.372  40.938   0.023
64387W        W36812  18.652  10.587   1.786
64388W        W36813   3.728  17.129   3.220
64389W        W36814  32.653  42.587  12.572
64390W        W36815   6.954  39.817   0.863
64391W        W36816   2.881   9.691  10.666
64392W        W36817  12.884  14.138  13.534
64393W        W36818   0.724  37.590  14.006
64394W        W36819  40.776   8.382   2.683
64395W        W36820  16.537   4.301   3.068
64396W        W36821  21.213  11.416  12.204
64397W        W36822  39.614   5.949  11.502
64398W        W36823  38.306  15.719  11.224
64399W        W36824   0.403   2.884  11.745
64400W        W36825  30.117   9.309   1.382
64401W        W36826  25.991   9.333   1.299
64402W        W36827   1.501  18.207  13.848
64403W        W36828   2.401  41.915  13.501
64404W        W36829  27.662  26.291  13.860
64405W        W36830   3.896  36.124   2.798
64406W        W36831  16.788  16.615  14.812
64407W        W36832   6.673   9.642   2.340
64408W        W36833  32.026  24.047  13.155
64409W        W36834  22.138  41.899  11.608
64410W        W36835   9.398  20.336   4.785
64411W        W36836  10.780  35.413   3.230
64412W        W36837   8.718   2.633  13.270
64413W        W36838  12.310   8.963  14.903
64414W        W36839   3.719  25.931  11.773
64415W        W36840   3.058  24.888  13.428
64416W        W36841  14.065  10.839  13.807
64417W        W36842  41.923  26.582  14.504
64418W        W36843  25.965  39.253   3.668
64419W        W36844  29.661  42.982   3.224
64420W        W36845   4.430  27.473  12.008
64421W        W36846  25.234   2.516   1.742
64422W        W36847  43.088  21.080   5.671
64423W        W36848  23.162  36.510   3.706
64424W        W36849   6.464  23.922   2.840
64425W        W36850  15.786  10.246  11.326
64426W        W36851  29.274   2.300   4.251
64427W        W36852  12.319  42.937  14.921
64428W        W36853  39.444  33.968  14.932
64429W        W36854  33.139  33.140   3.778
64430W        W36855   4.896  17.197  13.269
64431W        W36856  44.996  15.789   4.665
64432W        W36857  44.064  40.778   2.292
64433W        W36858  42.815   8.638   2.189
64434W        W36859  31.050  34.384   9.913
64435W        W36860   7.881  44.147   2.694
64436W        W36861  41.150   3.716  13.086
64437W        W36862  25.067   1.883  13.897
64438W        W36863  20.349   1.777   0.302
64439W        W36864  21.027  21.975  14.904
64440W        W36865  28.925  42.876  10.629
64441W        W36866   6.595  33.903  11.663
64442W        W36867   2.761  16.774  13.719
64443W        W36868  19.364  12.633  13.967
64444W        W36869  27.325   8.418  11.080
64445W        W36870  15.128  31.987   4.692
64446W        W36871  43.590   1.772  10.352
64447W        W36872  24.092   4.164  14.288
64448W        W36873  38.795  34.398  11.103
64449W        W36874   1.454   0.394   4.654
64450W        W36875  23.948  13.226   3.616
64451W        W36876  44.745  32.578   1.431
64452W        W36877  25.156  12.735   3.429
64453W        W36878  35.284  10.812  13.992
64454W        W36879  12.105  25.634  13.336
64455W        W36880  32.474  39.464   0.773
64456W        W36881  17.438  31.816   3.023
64457W        W36882  19.266   3.812  13.753
64458W        W36883   6.194  32.999  13.463
64459W        W36884  12.980  35.562  12.799
64460W        W36885  40.308  43.734   1.463
64461W        W36886   9.208  32.900   2.752
64462W        W36887  11.769  24.282   5.135
64463W        W36888  27.995   1.038  14.405
64464W        W36889  20.686  26.897  14.988
64465W        W36890  30.348  30.053   4.186
64466W        W36891   8.165   7.906  11.617
64467W        W36892   9.117  40.007   0.426
64468W        W36893  10.361  10.323   2.120
64469W        W36894  31.082   0.083  14.275
64470W        W36895  37.209   8.923   4.650
64471W        W36896  28.001  31.467  14.487
64472W        W36897  41.434   1.046   4.622
64473W        W36898  12.351  27.600   0.861
64474W        W36899  30.070  39.282  14.310
64475W        W36900  38.926  15.288   2.426
64476W        W36901  14.652  41.667   4.760
64477W        W36902  33.434  10.891  12.530
64478W        W36903   1.730  41.564   4.070
64479W        W36904  35.881  21.777   1.839
64480W        W36905  21.394  38.983   3.651
64481W        W36906   2.043  34.865  10.908
64482W        W36907  26.538   9.552  11.602
64483W        W36908   5.655  14.852   3.324
64484W        W36909  25.652  32.452  14.530
64485W        W36910  14.655  18.300   4.639
64486W        W36911  27.990  17.148   4.578
64487W        W36912  15.513  38.506   2.659
64488W        W36913  32.597   4.353  14.968
64489W        W36914  17.091   4.377   4.854
64490W        W36915   2.168   6.566   1.806
64491W        W36916  38.284  40.442   0.073
64492W        W36917   8.741  43.503   2.256
64493W        W36918  13.549   3.385   3.706
64494W        W36919  16.899  16.141   1.314
64495W        W36920   8.321  16.272  11.558
64496W        W36921  42.021  11.051  13.337
64497W        W36922  27.254   5.930  14.103
64498W        W36923   5.359   6.288   1.404
64499W        W36924  38.991  20.202  12.480
64500W        W36925  43.843   9.389  12.419
64501W        W36926  24.452  11.148   2.913
64502W        W36927  40.850   4.620   4.755
64503W        W36928  31.049  24.176   2.329
64504W        W36929  36.591   8.559   1.656
64505W        W36930   9.611  36.645   0.102
64506W        W36931  14.688  28.068   2.709
64507W        W36932  20.134  10.171  14.542
64508W        W36933  24.555  30.632  10.251
64509W        W36934  11.026  13.605   2.936
64510W        W36935  31.459  11.016   3.277
64511W        W36936  41.869  10.308  14.946
64512W        W36937   1.373  31.895   3.068
64513W        W36938  29.521   7.212  13.039
64514W        W36939  39.300  25.690  12.512
64515W        W36940  11.234  27.631   4.394
64516W        W36941  15.393  43.315   3.777
64517W        W36942  24.493   1.374   2.495
64518W        W36943  26.600  36.152   1.920
64519W        W36944  36.598  14.581   2.964
64520W        W36945  26.569   6.898   3.064
64521W        W36946  15.105  35.490  10.489
64522W        W36947  21.022  40.299   0.819
64523W        W36948   3.768  12.746   3.676
64524W        W36949  19.588  31.383   3.364
64525W        W36950   2.431  26.618  14.571
64526W        W36951  22.641  40.712   4.987
64527W        W36952  20.723   6.185  12.240
64528W        W36953  36.418  31.892  11.160
64529W        W36954  29.359  16.051   1.953
64530W        W36955   4.460  17.633   1.264
64531W        W36956  31.932  10.016  12.801
64532W        W36957  15.043  35.182  13.117
64533W        W36958  10.780  40.374   3.664
64534W        W36959   5.112  26.873  13.108
64535W        W36960  17.502  19.347  13.763
64536W        W36961   6.985  17.396   3.266
64537W        W36962  10.151  26.434   0.821
64538W        W36963   5.296   0.664  14.650
64539W        W36964   7.493   9.945  12.508
64540W        W36965   8.898  44.311  13.358
64541W        W36966  41.032   9.272  13.300
64542W        W36967  30.698   2.370   0.665
64543W        W36968  42.478  29.076   4.370
64544W        W36969  43.250   0.476   4.746
64545W        W36970   4.138  38.383   0.880
64546W        W36971  11.921   2.737  13.113
64547W        W36972  22.626  30.336   3.774
64548W        W36973  38.510   3.724   2.263
64549W        W36974  44.912  40.293  13.318
64550W        W36975   1.485  22.041   0.147
64551W        W36976  18.178  11.232  13.595
64552W        W36977  34.403  27.633   4.577
64553W        W36978  14.767  16.809   2.845
64554W        W36979  17.244  39.902  11.012
64555W        W36980  26.289  38.970   2.313
64556W        W36981  44.036  12.904   0.327
64557W        W36982   5.205  20.816   0.944
64558W        W36983  43.404  28.964  10.951
64559W        W36984  35.073  41.524  13.399
64560W        W36985  21.725   6.381   2.589
64561W        W36986  32.652  18.670  11.928
64562W        W36987  26.596   8.643   4.580
64563W        W36988  13.885  29.013  13.787
64564W        W36989  41.637  24.962   2.573
64565W        W36990  23.119  15.360   2.691
64566W        W36991   6.903  34.645   2.738
64567W        W36992  40.895   0.203  14.302
64568W        W36993  11.124  22.296  12.941
64569W        W36994   0.771  44.325   1.595
64570W        W36995  18.152  27.947   1.219
64571W        W36996  16.584   6.470   1.442
64572W        W36997   3.076  10.294   2.846
64573W        W36998   4.652  34.421   1.529
64574W        W36999  34.099  35.976  13.044
64575W        W37000   8.737  43.874  11.386
64576W        W37001  25.005  12.678  12.007
64577W        W37002  16.332  26.602   3.345
64578W        W37003  40.691  31.493   1.824
64579W        W37004   8.679  31.048   3.612
64580W        W37005  17.808  40.427  13.552
64581W        W37006  42.843  17.641   1.407
64582W        W37007  24.132  17.302   3.642
64583W        W37008  13.516  20.790   2.129
64584W        W37009  42.496   9.833   2.162
64585W        W37010  17.907  27.919  13.476
64586W        W37011   7.027  11.610  11.394
64587W        W37012   7.393  28.755  14.503
64588W        W37013  12.768  33.598  12.493
64589W        W37014  16.796  44.746  14.413
64590W        W37015  35.845   4.108   2.675
64591W        W37016  16.278  25.541  12.032
64592W        W37017  37.904   7.277  10.215
64593W        W37018   6.198  19.083  11.011
64594W        W37019  15.753  32.479   4.001
64595W        W37020   6.875   9.187  13.478
64596W        W37021  38.927  17.164   1.841
64597W        W37022   9.879  32.419  12.267
64598W        W37023  26.746  14.799  10.486
64599W        W37024  28.437  41.377   3.234
64600W        W37025  14.719  14.614  11.587
64601W        W37026   5.955   1.796   1.775
64602W        W37027   4.300  26.476  10.666
64603W        W37028  26.094  26.536  13.387
64604W        W37029  43.316  18.655   1.354
64605W        W37030   0.301  24.610   4.698
64606W        W37031  39.597   3.376  11.698
64607W        W37032  30.534  42.463   1.682
64608W        W37033  26.494  26.352   4.351
64609W        W37034  28.498  38.482   1.474
64610W        W37035   6.732  22.858   4.150
64611W        W37036  37.876   8.016  10.650
64612W        W37037  38.176  23.353  12.111
64613W        W37038  27.092  44.244   4.079
64614W        W37039  36.495  34.192  12.895
64615W        W37040  13.593   3.721  10.292
64616W        W37041  42.752  44.341  11.886
64617W        W37042   9.616  21.239   2.872
64618W        W37043  30.479  24.129  11.451
64619W        W37044  32.501  25.798  11.338
64620W        W37045   5.970  30.478  11.677
64621W        W37046  44.777   3.175   3.178
64622W        W37047   2.928  12.760  10.675
64623W        W37048  12.236   9.208   1.407
64624W        W37049  29.194  15.257  10.834
64625W        W37050  17.710  15.239   4.118
64626W        W37051   1.660  15.730  10.762
64627W        W37052  12.110  35.291  10.593
64628W        W37053   5.735  11.232  11.625
64629W        W37054  23.609  22.207  11.162
64630W        W37055  15.341  28.085   4.026
64631W        W37056  21.020  26.853  11.144
64632W        W37057   7.169  36.502   0.461
64633W        W37058  37.028   6.976  10.045
64634W        W37059  27.047  21.387  10.195
64635W        W37060  30.810  34.327  14.836
64636W        W37061   6.888  10.086   0.158
64637W        W37062  44.585   9.396   3.636
64638W        W37063  14.172  20.241   1.750
64639W        W37064  31.765  40.797   3.703
64640W        W37065  34.460  23.258  10.389
64641W        W37066  43.525   5.933   1.657
64642W        W37067  21.127  15.575   4.262
64643W        W37068  20.841   6.904  13.456
64644W        W37069  31.421  31.924   3.720
64645W        W37070  33.925  14.191   3.561
64646W        W37071   4.808  34.166   5.127
64647W        W37072  41.593  33.336   3.301
64648W        W37073   0.960  15.583   3.668
64649W        W37074  18.080  14.070  13.932
64650W        W37075  24.676  16.704   4.387
64651W        W37076  27.933  32.441  12.533
64652W        W37077  38.494   4.382   1.267
64653W        W37078  16.395  38.860  10.779
64654W        W37079  36.150  32.010   2.647
64655W        W37080  15.636  31.343  12.543
64656W        W37081  18.776  15.725  12.111
64657W        W37082  22.221  43.392  10.520
64658W        W37083  28.887  28.826  11.126
64659W        W37084  13.905   2.706  14.431
64660W        W37085  18.848  31.152   1.724
64661W        W37086  19.372  39.090   1.698
64662W        W37087   6.252  12.022  13.406
64663W        W37088  27.501  39.775   1.880
64664W        W37089  34.442  31.387   2.684
64665W        W37090  15.189  28.543  11.080
64666W        W37091  33.846   1.422  11.686
64667W        W37092   1.231  33.177   3.328
64668W        W37093  21.292  28.940   0.168
64669W        W37094   5.927  14.336  10.702
64670W        W37095  10.620  30.319   5.095
64671W        W37096  26.043  28.883   2.433
64672W        W37097  34.885  34.791  10.792
64673W        W37098  14.728  18.222   0.968
64674W        W37099   8.662  27.644  10.565
64675W        W37100  19.695  16.220  12.031
64676W        W37101  15.763  39.593  10.720
64677W        W37102  27.764  24.448  14.941
64678W        W37103   2.183  24.482   3.156
64679W        W37104   3.176  18.176   4.581
64680W        W37105  24.471   2.705   0.839
64681W        W37106  26.666  36.523  12.101
64682W        W37107  39.369  33.368  14.234
64683W        W37108  39.887  39.433  14.886
64684W        W37109   4.880  14.512   4.297
64685W        W37110  15.897   1.664   2.166
64686W        W37111   8.762   2.294   2.192
64687W        W37112  26.162  23.589   3.783
64688W        W37113   5.084  30.475   4.436
64689W        W37114  35.325  27.967  10.057
64690W        W37115  11.223  25.373  11.166
64691W        W37116  20.682  26.465   3.836
64692W        W37117   5.847  20.146   1.857
64693W        W37118   8.852  37.536  11.699
64694W        W37119  16.498  13.144  12.768
64695W        W37120  44.459  40.078   5.258
64696W        W37121  37.816   2.765  14.232
64697W        W37122  14.799  22.283   4.120
64698W        W37123  10.177  13.041   2.782
64699W        W37124   8.921   9.773   1.943
64700W        W37125  24.224   5.278  11.101
64701W        W37126   5.165  15.937   4.095
64702W        W37127  27.232  38.478  12.500
64703W        W37128  36.590  26.800   0.208
64704W        W37129   5.955  16.197  13.434
64705W        W37130  11.699  41.923   3.771
64706W        W37131   5.623  35.542  14.953
64707W        W37132  18.187  34.250   5.084
64708W        W37133  30.462  42.804  12.999
64709W        W37134   7.732  14.347  10.879
64710W        W37135   8.713  12.620  14.064
64711W        W37136  23.892  20.594   4.348
64712W        W37137  12.655   9.471  11.956
64713W        W37138  30.963  15.776  12.668
64714W        W37139  11.852  30.862   3.785
64715W        W37140  12.563  18.649   3.901
64716W        W37141  41.723  37.592  11.127
64717W        W37142  25.412  44.684   4.221
64718W        W37143  26.695  17.343   0.417
64719W        W37144  31.350  22.262  12.121
64720W        W37145  22.231   2.645   3.282
64721W        W37146  14.615   1.140   2.186
64722W        W37147   0.707  12.863  12.691
64723W        W37148  41.289  28.829  12.841
64724W        W37149  31.971  20.742   0.420
64725W        W37150  38.529  36.973  14.039
64726W        W37151  37.065  39.952  13.251
64727W        W37152  14.618  35.871  14.394
64728W        W37153  30.452   6.354   4.259
64729W        W37154  25.661  41.994  10.402
64730W        W37155  35.913  33.701   0.433
64731W        W37156  33.378  23.582   0.803
64732W        W37157  25.941  26.513  14.304
64733W        W37158  30.678   3.767   4.325
64734W        W37159  32.143  18.297  14.807
64735W        W37160  42.177   0.744  14.414
64736W        W37161  18.745  44.964  10.525
64737W        W37162  38.469   8.018   5.440
64738W        W37163   6.479  36.818   2.538
64739W        W37164  27.039  42.405  11.506
64740W        W37165  37.319  15.501   1.373
64741W        W37166  42.239  18.807  13.294
64742W        W37167  18.376  31.086   4.503
64743W        W37168   0.548  34.252   1.295
64744W        W37169   6.705   4.976  12.435
64745W        W37170   5.224  22.099   0.297
64746W        W37171  23.532  18.398   3.941
64747W        W37172  26.249  34.624  13.530
64748W        W37173  16.115  16.726   4.117
64749W        W37174  12.931  16.264  13.421
64750W        W37175  30.442  38.377  11.994
64751W        W37176  42.071  39.072  14.341
64752W        W37177  19.037  11.807  11.139
64753W        W37178   4.970  41.807   0.911
64754W        W37179  17.605  17.839   1.809
64755W        W37180  22.523   5.580  14.606
64756W        W37181  30.694  33.861  11.926
64757W        W37182  18.273  10.404  13.562
64758W        W37183  10.475  41.098   3.576
64759W        W37184  35.724  41.786  11.215
64760W        W37185   4.027  42.473   2.632
64761W        W37186  18.019  34.182  14.042
64762W        W37187  35.994  15.405  12.529
64763W        W37188  33.090  17.042   4.340
64764W        W37189  14.749  27.529  11.834
64765W        W37190  33.663  21.185   0.083
64766W        W37191  26.631  31.054   4.775
64767W        W37192  11.177  21.661  12.675
64768W        W37193  20.266   6.698  14.288
64769W        W37194  39.314  35.298   2.743
64770W        W37195  24.495  38.411   4.526
64771W        W37196  15.923   8.840  13.941
64772W        W37197  36.016  18.882   0.904
64773W        W37198  22.178  24.047   4.523
64774W        W37199  42.932  28.596  12.028
64775W        W37200   0.755  33.751   2.171
64776W        W37201   5.918  23.015  13.069
64777W        W37202  24.011  30.356   1.269
64778W        W37203  14.575  23.494   5.038
64779W        W37204  10.261   0.527  12.895
64780W        W37205  24.943  26.505   0.900
64781W        W37206  30.086   5.327  12.585
64782W        W37207  33.965  38.316  11.984
64783W        W37208   3.893  30.639   0.265
64784W        W37209   6.869  26.482   1.188
64785W        W37210  19.198  10.262  14.960
64786W        W37211  34.124  30.946   0.558
64787W        W37212   2.220  30.967   3.457
64788W        W37213  23.514  25.998  14.066
64789W        W37214  32.130  22.170  12.580
64790W        W37215  35.054  21.141  13.321
64791W        W37216   5.167  12.172  14.539
64792W        W37217  42.992   7.881  12.558
64793W        W37218  14.722  38.136   3.794
64794W        W37219  25.806   5.770  10.430
64795W        W37220  38.129  43.314   2.748
64796W        W37221   4.661  38.389   1.890
64797W        W37222  20.553   4.749  13.618
64798W        W37223  12.219  16.486  12.085
64799W        W37224  29.902   6.396   4.180
64800W        W37225  13.708  35.054   3.187
64801W        W37226  37.489   4.000   4.143
64802W        W37227  35.840  31.621  14.722
64803W        W37228  28.138   0.283  13.944
64804W        W37229  40.353  22.202  13.937
64805W        W37230  20.895  27.897   5.094
64806W        W37231  24.724   9.941  11.548
64807W        W37232  24.914   4.033  11.078
64808W        W37233  22.261  33.333  10.456
64809W        W37234  36.358   1.624   4.555
64810W        W37235  23.242  30.483   1.180
64811W        W37236  15.728  19.123  14.968
64812W        W37237  36.470  12.763  13.510
64813W        W37238  29.128  26.019   2.620
64814W        W37239   0.347  11.193  13.534
64815W        W37240  16.359  17.721  14.410
64816W        W37241  31.567  34.139  11.882
64817W        W37242   9.907  10.233   0.706
64818W        W37243  28.848  34.309  13.779
64819W        W37244  29.157  25.755  13.432
64820W        W37245   7.868  36.635   3.341
64821W        W37246  16.845   6.767  10.535
64822W        W37247  26.249   6.784  12.936
64823W        W37248  35.738   7.925   4.691
64824W        W37249  12.133  42.337   0.618
64825W        W37250  11.856   5.323   3.240
64826W        W37251   3.347  15.771  12.874
64827W        W37252  11.625  29.145   3.314
64828W        W37253  42.874  23.602  13.047
64829W        W37254   8.446  39.394   4.576
64830W        W37255   1.290  22.573  12.019
64831W        W37256  39.293  34.163   1.339
64832W        W37257  36.667  32.630  13.203
64833W        W37258   6.121   1.246   1.707
64834W        W37259  21.370   2.911   2.538
64835W        W37260  16.519  27.564  11.157
64836W        W37261   4.830  19.197  12.939
64837W        W37262  21.893  40.079   1.313
64838W        W37263  32.462  43.492   2.379
64839W        W37264  15.697  24.694  13.927
64840W        W37265  13.488  16.615   0.950
64841W        W37266  14.447  30.907  10.657
64842W        W37267  13.817   2.259   1.284
64843W        W37268  23.759   7.267   2.329
64844W        W37269  25.441   2.517   3.735
64845W        W37270  10.288  44.770   0.945
64846W        W37271   3.933  12.102   2.818
64847W        W37272  43.018  22.093  10.613
64848W        W37273   1.733  44.854  13.091
64849W        W37274  11.800  15.055   4.220
64850W        W37275  30.614  23.440  11.654
64851W        W37276  14.960  32.809   1.743
64852W        W37277  22.123  39.490  12.855
64853W        W37278  30.299  34.981   3.555
64854W        W37279   3.640  36.229  13.145
64855W        W37280  15.625  42.265  10.771
64856W        W37281  23.772   7.828   1.067
64857W        W37282  25.456  25.007   0.419
64858W        W37283  24.285  40.631  11.037
64859W        W37284  13.761  30.190   4.201
64860W        W37285   1.604  20.129   3.760
64861W        W37286  43.744   9.780  10.605
64862W        W37287  37.585   8.274  13.432
64863W        W37288  13.319  31.536   3.669
64864W        W37289  21.789  37.895   2.668
64865W        W37290   8.302  13.207   2.684
64866W        W37291   6.690  14.797  11.464
64867W        W37292  43.357  32.606  11.122
64868W        W37293  33.441  26.771  13.943
64869W        W37294  41.754   1.593  11.576
64870W        W37295  16.183  35.666   4.344
64871W        W37296  17.351  25.209   2.446
64872W        W37297  17.276  38.855   4.594
64873W        W37298   3.345   8.547   4.906
64874W        W37299  36.620  25.209   0.811
64875W        W37300  20.131  42.484   4.164
64876W        W37301  44.244  12.911  14.009
64877W        W37302   2.077  31.313  14.560
64878W        W37303  39.353  25.685   4.517
64879W        W37304   0.696  30.162   2.976
64880W        W37305  13.804   7.029   3.634
64881W        W37306  42.860  29.383  12.490
64882W        W37307  40.996  11.287   0.249
64883W        W37308  15.840  44.977   3.850
64884W        W37309   7.186  41.480   1.719
64885W        W37310  36.009   6.618  13.474
64886W        W37311  31.523  38.331  14.962
64887W        W37312  43.062  25.401   0.457
64888W        W37313   6.598   9.647  13.461
64889W        W37314  12.857  43.408  12.886
64890W        W37315  18.486  40.091  14.702
64891W        W37316  30.173  40.919  14.950
64892W        W37317  24.565  34.349   3.684
64893W        W37318  39.340   3.278   3.886
64894W        W37319  33.783  24.463   1.574
64895W        W37320   8.704  19.593  11.012
64896W        W37321  17.591  18.276  11.094
64897W        W37322   3.356  41.478   0.482
64898W        W37323  17.061  24.627  13.778
64899W        W37324   5.387  14.205  11.656
64900W        W37325  35.570  37.326   1.719
64901W        W37326  32.621  18.645   2.933
64902W        W37327  20.437   0.344  12.983
64903W        W37328  17.053  37.349   3.826
64904W        W37329   9.216  29.458  10.741
64905W        W37330  20.075  44.531  14.910
64906W        W37331   3.065  29.163  13.349
64907W        W37332  27.221  30.424   4.259
64908W        W37333  32.703   8.949   4.817
64909W        W37334  30.139   5.359  14.917
64910W        W37335  43.242   7.927  11.711
64911W        W37336  42.106  31.433  11.608
64912W        W37337  35.599   1.449  13.592
64913W        W37338  41.811  20.102   4.327
64914W        W37339  17.272  44.012  13.913
64915W        W37340  34.985   9.510  13.382
64916W        W37341  10.261  32.325  11.117
64917W        W37342   2.294  17.608  12.273
64918W        W37343  12.278  24.417  13.268
64919W        W37344   6.014  14.330   4.385
64920W        W37345  31.008  31.879  12.136
64921W        W37346  30.219  38.260   2.294
64922W        W37347  41.366  21.662   9.999
64923W        W37348  19.014   9.356   0.500
64924W        W37349  19.621  29.914   0.964
64925W        W37350  31.360  28.854   1.485
64926W        W37351   0.341  26.582   2.170
64927W        W37352  35.104  34.472  11.624
64928W        W37353  23.175  33.570   2.295
64929W        W37354   0.917  23.815   4.884
64930W        W37355  24.604   5.909   1.852
64931W        W37356   0.017   9.807   1.743
64932W        W37357  40.730  20.579  13.465
64933W        W37358  12.557  41.412  11.073
64934W        W37359   6.272  24.276   3.250
64935W        W37360  43.679   7.653  10.480
64936W        W37361  36.625  30.138   0.055
64937W        W37362  22.162   1.901   2.367
64938W        W37363  29.106  43.181  11.022
64939W        W37364  21.147   6.725  13.883
64940W        W37365  18.234  40.530  14.555
64941W        W37366  16.767   1.880   1.183
64942W        W37367  44.074  23.579   2.001
64943W        W37368  13.598   8.705   0.466
64944W        W37369   5.950  36.152  11.112
64945W        W37370  13.156  30.664  14.993
64946W        W37371  16.202  40.447  14.431
64947W        W37372   7.877   1.600   2.832
64948W        W37373  36.455  10.407   2.845
64949W        W37374   1.329  10.121  11.448
64950W        W37375  35.005   6.452  14.810
64951W        W37376   5.247   5.477  12.025
64952W        W37377  16.281  17.219  10.805
64953W        W37378  32.828  22.161   0.253
64954W        W37379  29.149  38.956  12.985
64955W        W37380  17.709  35.658  11.707
64956W        W37381   7.189  19.987  11.150
64957W        W37382  38.855   1.339   2.866
64958W        W37383  36.046  19.788   0.867
64959W        W37384   6.749   6.333  14.763
64960W        W37385  39.508  35.057   1.858
64961W        W37386  29.030  44.678   4.329
64962W        W37387  24.069  28.573   2.184
64963W        W37388  12.909  19.908   0.268
64964W        W37389  15.678   4.855  10.567
64965W        W37390  29.540  36.897  10.917
64966W        W37391   6.275   3.830   2.389
64967W        W37392  12.335  39.725   3.670
64968W        W37393  20.176  17.306   3.147
64969W        W37394  16.076  28.015   2.161
64970W        W37395   9.810  11.456  13.930
64971W        W37396  12.606  44.796  14.743
64972W        W37397  38.349  20.717  13.048
64973W        W37398   8.656  38.395   4.165
64974W        W37399   7.372   3.966  13.036
64975W        W37400  36.235  42.042  12.905
64976W        W37401  24.119  23.488  12.099
64977W        W37402  16.088  23.878  11.940
64978W        W37403  38.196  25.426   3.636
64979W        W37404  34.993  27.597   0.432
64980W        W37405  42.919  32.953  12.455
64981W        W37406  10.610  25.940   3.291
64982W        W37407   2.018  17.124   1.869
64983W        W37408  41.532  22.116  10.498
64984W        W37409  43.925  11.159  11.119
64985W        W37410  21.054   8.733  11.643
64986W        W37411  23.668   9.333   3.606
64987W        W37412  41.830  36.298  11.034
64988W        W37413   6.686  13.384  14.047
64989W        W37414  43.895   3.438  12.501
64990W        W37415  14.172  34.569  14.362
64991W        W37416  10.166  27.482  14.393
64992W        W37417  23.423  34.950   2.366
64993W        W37418  33.542  19.182  11.442
64994W        W37419  41.505   3.972  14.018
64995W        W37420  39.527  16.333  13.456
64996W        W37421  14.716  21.713  14.269
64997W        W37422  26.106  32.575   1.520
64998W        W37423   5.296  12.627   3.175
64999W        W37424   3.780  25.515  11.462
65000W        W37425  29.972   9.563   3.823
65001W        W37426  15.256   8.223   3.637
65002W        W37427  32.288  30.618  14.823
65003W        W37428  33.949   4.410   0.353
65004W        W37429  21.187  14.711   4.043
65005W        W37430  21.678  31.002  10.940
65006W        W37431  25.021  43.888  11.173
65007W        W37432  21.076  12.913   2.709
65008W        W37433  15.543   7.833   0.955
65009W        W37434  41.995   2.958   0.249
65010W        W37435   2.062   1.030  13.938
65011W        W37436  35.602   7.655  10.520
65012W        W37437  38.387  28.330  10.775
65013W        W37438   9.456  11.250  10.493
65014W        W37439  38.443  19.469  12.509
65015W        W37440   0.591  32.578   1.746
65016W        W37441  25.953  34.342  14.510
65017W        W37442  44.426  29.601  12.935
65018W        W37443  22.122  15.014   5.009
65019W        W37444  15.331   5.355  13.847
65020W        W37445  31.638  41.539  12.834
65021W        W37446  38.618  41.429  11.726
65022W        W37447  23.669  35.359   1.434
65023W        W37448  37.931  11.136  10.418
65024W        W37449  25.161   9.627  11.564
65025W        W37450  26.420  24.070   0.842
65026W        W37451  21.682  18.692  10.720
65027W        W37452  26.513  23.236   3.958
65028W        W37453  17.519  37.462   4.784
65029W        W37454  36.697  10.675  12.506
65030W        W37455  38.821  22.942   0.429
65031W        W37456  21.276  22.836  12.640
65032W        W37457  22.106  22.352   0.506
65033W        W37458  40.992   1.348  14.572
65034W        W37459  17.090  39.327   4.535
65035W        W37460  20.281  36.378   2.678
65036W        W37461  25.258   5.364  12.040
65037W        W37462  44.241  37.932  13.313
65038W        W37463  31.094  40.982  14.794
65039W        W37464  13.870   0.941   0.309
65040W        W37465  10.949   5.920   2.737
65041W        W37466  24.234   7.489  13.478
65042W        W37467  33.878  27.969  13.942
65043W        W37468  40.258   6.137  10.022
65044W        W37469   2.404  10.186   3.049
65045W        W37470   0.833  11.301   0.484
65046W        W37471  39.068  44.527   3.719
65047W        W37472  18.634  15.425   1.200
65048W        W37473   6.173  30.943  10.941
65049W        W37474  29.980  22.503  11.162
65050W        W37475  33.564  25.457  14.699
65051W        W37476  34.616  41.758  14.832
65052W        W37477  10.359  44.285  10.517
65053W        W37478  34.142  41.952   3.947
65054W        W37479  14.189  13.103  12.525
65055W        W37480  27.623  38.402   3.172
65056W        W37481  42.798  20.731  12.988
65057W        W37482  31.344  32.398  11.160
65058W        W37483   6.671  15.119  12.537
65059W        W37484   5.701  23.584  11.135
65060W        W37485   0.479  43.737  10.386
65061W        W37486  44.996  39.922  14.734
65062W        W37487   6.689  14.618  12.354
65063W        W37488  30.505   5.853   4.071
65064W        W37489  39.053  16.186  13.310
65065W        W37490   9.770  20.067  13.462
65066W        W37491   1.717  32.019  12.086
65067W        W37492  20.551   6.467   3.162
65068W        W37493  25.774  36.211  14.315
65069W        W37494  36.100  20.195   4.792
65070W        W37495  19.193  40.033  14.449
65071W        W37496  12.338  19.734   1.253
65072W        W37497  11.274  15.078  14.931
65073W        W37498   7.346  15.775   2.410
65074W        W37499  10.034  38.347   0.868
65075W        W37500  40.884  36.787  12.586
65076W        W37501  19.235  21.289   3.181
65077W        W37502  39.835   9.711   0.392
65078W        W37503  27.574  14.683  11.427
65079W        W37504   9.962  31.179  13.580
65080W        W37505  13.097  30.737   0.501
65081W        W37506  44.375  16.039   3.082
65082W        W37507  18.776  33.331   3.693
65083W        W37508  17.360  31.667  12.404
65084W        W37509  11.170  23.988  11.196
65085W        W37510  35.021   7.152   4.049
65086W        W37511  25.002  39.619   4.720
65087W        W37512   0.419  39.765  12.583
65088W        W37513  12.943  21.501   5.118
65089W        W37514  23.707   8.730   4.599
65090W        W37515  26.946  38.989   4.557
65091W        W37516  29.680   1.058   3.348
65092W        W37517  16.778   2.802  13.358
65093W        W37518  36.538  18.796  11.684
65094W        W37519  14.204  29.975   3.945
65095W        W37520  17.613  29.857  11.918
65096W        W37521  20.796  27.097  13.249
65097W        W37522  24.995  40.863   4.219
65098W        W37523  13.353  22.622   1.379
65099W        W37524  34.208  19.626  13.241
65100W        W37525   8.414  15.375  12.022
65101W        W37526  18.488  40.916   0.402
65102W        W37527  30.677  13.813  14.980
65103W        W37528  21.803  26.115  12.363
65104W        W37529  40.411  39.889   2.845
65105W        W37530   0.461  35.445   4.229
65106W        W37531  28.422  43.288   0.012
65107W        W37532  20.457  33.913   3.344
65108W        W37533   8.764  26.017   3.353
65109W        W37534  23.223  38.232  13.061
65110W        W37535  38.936  42.793  11.051
65111W        W37536   2.803  30.133  12.441
65112W        W37537   4.727   9.731  12.513
65113W        W37538  16.633  31.599   2.740
65114W        W37539   6.999  35.466  13.984
65115W        W37540  21.842  29.215   2.191
65116W        W37541  17.658   0.869   0.497
65117W        W37542  35.584   9.987  10.345
65118W        W37543  39.009   6.179   0.455
65119W        W37544   2.683   6.439  11.954
65120W        W37545  36.757  33.156  13.140
65121W        W37546  12.017   7.986   4.008
65122W        W37547  34.327  26.469  14.916
65123W        W37548  16.993  41.467  13.968
65124W        W37549  20.191  17.619  10.746
65125W        W37550  37.507  10.362  14.805
65126W        W37551  22.422   1.352   1.746
65127W        W37552  39.126  39.815  14.108
65128W        W37553  26.066   1.235  10.408
65129W        W37554  41.795  38.577   1.432
65130W        W37555   5.602  18.679   1.432
65131W        W37556  26.400  19.775  14.440
65132W        W37557  34.529  39.283   1.818
65133W        W37558   1.712   1.792  13.894
65134W        W37559  19.589   8.307   2.881
65135W        W37560  15.682  22.844  12.821
65136W        W37561  16.681  43.544  13.557
65137W        W37562   4.525  21.261   4.065
65138W        W37563   8.183  34.400   3.428
65139W        W37564  28.349  10.291   2.658
65140W        W37565  34.964  10.480   5.027
65141W        W37566  27.962  34.901   1.177
65142W        W37567  22.114  26.213  12.792
65143W        W37568  29.343  29.966   0.714
65144W        W37569   2.974   3.009   3.982
65145W        W37570   8.428  35.427  14.884
65146W        W37571  43.485  35.907   2.728
65147W        W37572  44.249  17.568  14.284
65148W        W37573  10.813  28.419   4.572
65149W        W37574  33.085   4.079   1.732
65150W        W37575  19.139   0.890  13.841
65151W        W37576  31.725  39.553   5.840
65152W        W37577  34.309   0.864   1.808
65153W        W37578  27.148  35.439  11.178
65154W        W37579  33.734  19.999  12.640
65155W        W37580  25.507   2.701  11.166
65156W        W37581  26.594  28.760   0.365
65157W        W37582   6.838  26.748   2.174
65158W        W37583  22.702  37.169  12.625
65159W        W37584   9.823   9.879   1.495
65160W        W37585  32.643  29.647   4.046
65161W        W37586  12.671  20.589  12.866
65162W        W37587  42.545  13.574  13.857
65163W        W37588  36.816  35.614   2.340
65164W        W37589  14.364  13.389  11.094
65165W        W37590  14.919  26.066   2.822
65166W        W37591  22.643  28.066   3.903
65167W        W37592  11.981   2.836   0.284
65168W        W37593  35.200  30.820   4.308
65169W        W37594  14.670  14.196   1.599
65170W        W37595  17.585  27.133   1.251
65171W        W37596  37.853  22.810   5.006
65172W        W37597  10.042  19.868   4.676
65173W        W37598  28.028  25.937   1.832
65174W        W37599  11.800  30.909   4.312
65175W        W37600  31.845  14.738   3.606
65176W        W37601  44.305   6.163   5.018
65177W        W37602  16.375   4.362   0.330
65178W        W37603   1.967  30.388  10.672
65179W        W37604  22.039  12.474  13.999
65180W        W37605   9.298  38.817   2.462
65181W        W37606   9.447  35.813  12.083
65182W        W37607   6.650   8.248  14.833
65183W        W37608   0.789  20.900   4.612
65184W        W37609  18.202   2.796   4.166
65185W        W37610  30.127   4.852  11.060
65186W        W37611  40.630  30.523  14.732
65187W        W37612  16.695  13.361  10.432
65188W        W37613  10.841  15.117  14.394
65189W        W37614  41.294  37.054  12.460
65190W        W37615  27.693  27.120  10.605
65191W        W37616  21.841  30.446   0.309
65192W        W37617   6.782  29.154   0.096
65193W        W37618  15.354  44.403  12.882
65194W        W37619  25.903  42.998   0.311
65195W        W37620  18.515  31.862   0.189
65196W        W37621  31.324   6.064   3.645
65197W        W37622  13.540  19.091  14.131
65198W        W37623  33.644  41.325   2.634
65199W        W37624  24.134  33.420  13.422
65200W        W37625  36.281  20.046   1.228
65201W        W37626   3.553  19.058  12.476
65202W        W37627   9.381  38.821  13.506
65203W        W37628  36.530  22.908  10.756
65204W        W37629  44.013  28.894   1.031
65205W        W37630  13.155   4.183   2.124
65206W        W37631  12.000  23.995   3.090
65207W        W37632   5.522  29.920   3.190
65208W        W37633  41.911  37.124  11.137
65209W        W37634  34.113   7.357  13.644
65210W        W37635  31.551   3.272   2.897
65211W        W37636   9.257  36.891   0.365
65212W        W37637  30.888   1.242   0.812
65213W        W37638  37.376  30.954  14.294
65214W        W37639  17.547  17.256   2.226
65215W        W37640  34.474  44.962  13.835
65216W        W37641  18.677   6.101  11.487
65217W        W37642  15.005   3.485   1.421
65218W        W37643  18.182  24.016   4.201
65219W        W37644  44.866  20.211  12.444
65220W        W37645  29.962  34.522   2.358
65221W        W37646   4.439  27.996   2.480
65222W        W37647  40.874  18.851  12.894
65223W        W37648  10.880  13.681   4.780
65224W        W37649  43.272  13.311  14.335
65225W        W37650  43.255  28.623  13.800
65226W        W37651   8.060  44.555  11.631
65227W        W37652  40.978  27.479   0.589
65228W        W37653  12.383  11.578   4.230
65229W        W37654  37.079  28.204  12.718
65230W        W37655  15.792   1.275  14.494
65231W        W37656   7.338  12.426   2.704
65232W        W37657  35.473   0.773  14.210
65233W        W37658   6.787  14.711   1.278
65234W        W37659  18.966  11.755  13.384
65235W        W37660  33.442  21.492  12.065
65236W        W37661   7.761  25.429   4.593
65237W        W37662  28.080  26.936  11.935
65238W        W37663  13.325  23.514  11.177
65239W        W37664  42.409   1.236   2.586
65240W        W37665   5.431   9.791   0.814
65241W        W37666   7.405  12.400  12.463
65242W        W37667  44.317  35.913  14.562
65243W        W37668  26.207  27.983  11.461
65244W        W37669   7.671  32.899   2.680
65245W        W37670  20.350  24.557  10.457
65246W        W37671   9.894  10.140  14.792
65247W        W37672  27.751  27.003   2.866
65248W        W37673   3.677  28.532   3.019
65249W        W37674  44.865  15.598  13.140
65250W        W37675  39.874  37.727  10.668
65251W        W37676  15.753   9.126  14.328
65252W        W37677  37.343  23.134  13.857
65253W        W37678  42.222  35.004   0.225
65254W        W37679  10.440   3.031  11.227
65255W        W37680   3.783  20.090   4.036
65256W        W37681   0.739  37.336   1.079
65257W        W37682  17.595  41.886   1.134
65258W        W37683  35.700  26.755  11.085
65259W        W37684  14.195  44.824   4.771
65260W        W37685   7.369   6.282   1.253
65261W        W37686   9.209  26.493   2.852
65262W        W37687  34.464  29.143   0.284
65263W        W37688   7.178  24.507   3.137
65264W        W37689  33.752  20.790   2.784
65265W        W37690  22.233   5.494   3.669
65266W        W37691  29.502  37.294   5.047
65267W        W37692   6.701  30.864   0.843
65268W        W37693  15.591  26.730   1.156
65269W        W37694  44.416  23.168   1.843
65270W        W37695   9.760  13.728  13.771
65271W        W37696  12.893   5.357   1.276
65272W        W37697   9.262  10.102  13.258
65273W        W37698  34.339  33.905  11.694
65274W        W37699   1.772   4.917  12.354
65275W        W37700  12.312  18.072   4.564
65276W        W37701  41.880  26.710  11.689
65277W        W37702   5.149  29.647   3.439
65278W        W37703  15.776  30.481   5.217
65279W        W37704   8.168  27.391   1.232
65280W        W37705   3.189  16.684  14.389
65281W        W37706  26.264  11.728  14.830
65282W        W37707  30.124   1.451  10.531
65283W        W37708   5.443  42.896   0.179
65284W        W37709  34.305  37.845  13.440
65285W        W37710  18.553   1.468   2.709
65286W        W37711   1.704  30.938  13.469
65287W        W37712  32.826  25.749  10.944
65288W        W37713   1.176  42.909  10.171
65289W        W37714  12.822  18.968  13.971
65290W        W37715  35.198  35.631  13.744
65291W        W37716  41.459  21.968  11.434
65292W        W37717  38.558  29.097   3.889
65293W        W37718  29.657  14.173   1.573
65294W        W37719  12.650  21.087  13.032
65295W        W37720  44.701  42.804   3.319
65296W        W37721  23.560   6.948   0.063
65297W        W37722  29.072   5.926   3.230
65298W        W37723   9.328  23.666   4.040
65299W        W37724   1.172  32.639   4.144
65300W        W37725   4.726  20.847   0.771
65301W        W37726  25.853  38.764  11.477
65302W        W37727  39.207   0.762   5.188
65303W        W37728  39.096  27.868   0.787
65304W        W37729  13.105   0.684  11.919
65305W        W37730  44.499  13.187  10.667
65306W        W37731   5.138  30.516  13.428
65307W        W37732  25.039  19.766  12.978
65308W        W37733   1.461  19.558  11.980
65309W        W37734  34.429  36.389  12.983
65310W        W37735   3.812   3.535  11.475
65311W        W37736  16.563  35.854  11.144
65312W        W37737   0.210  15.268  12.912
65313W        W37738  24.009  28.032   0.476
65314W        W37739   3.588  26.117   2.642
65315W        W37740  18.286  27.688   4.718
65316W        W37741  37.698  11.855  13.495
65317W        W37742  40.875  44.682  14.353
65318W        W37743  33.392   4.459   1.198
65319W        W37744  22.837  35.023  11.598
65320W        W37745  41.921  32.492  13.853
65321W        W37746  31.219   7.615  14.506
65322W        W37747  31.494  43.513  13.292
65323W        W37748  30.495  23.482  10.671
65324W        W37749  30.436  40.760   0.451
65325W        W37750  10.936   9.737  11.738
65326W        W37751  43.233  13.603  13.164
65327W        W37752  11.166  13.753   3.424
65328W        W37753  42.259  27.552  14.444
65329W        W37754  17.578  34.678   2.275
65330W        W37755  27.475  35.581  14.815
65331W        W37756   6.636  32.355   2.371
65332W        W37757  38.443  28.218   3.597
65333W        W37758  21.699  27.757  12.626
65334W        W37759  33.373  24.189  14.998
65335W        W37760  19.539  20.602   0.033
65336W        W37761   1.783  20.299  11.061
65337W        W37762  21.586   8.718  11.681
65338W        W37763  11.083  36.901   1.280
65339W        W37764   3.995  11.267   2.196
65340W        W37765  38.771   2.255   3.162
65341W        W37766  36.640  18.046  11.430
65342W        W37767   1.667  37.395  10.741
65343W        W37768  21.271   2.810   3.906
65344W        W37769  44.965  42.225   1.380
65345W        W37770   7.747  20.593  14.327
65346W        W37771  13.993   3.316   4.595
65347W        W37772  12.961  16.276   4.777
65348W        W37773   8.835  33.247  11.424
65349W        W37774  42.369  25.645   2.752
65350W        W37775  20.268  10.741  12.992
65351W        W37776   4.562  12.170  12.601
65352W        W37777  23.677  38.428  12.801
65353W        W37778  26.155  37.137  12.593
65354W        W37779  18.639   5.679   4.398
65355W        W37780  21.171  21.409  10.507
65356W        W37781  40.912  35.509  11.553
65357W        W37782   3.426   1.926  13.467
65358W        W37783   0.429   4.203   0.678
65359W        W37784  42.658  26.163   3.895
65360W        W37785   7.874  14.839  12.101
65361W        W37786  44.587   5.181   3.975
65362W        W37787  22.281  26.328  11.380
65363W        W37788  44.750   1.794   4.619
65364W        W37789  43.919   4.217   0.914
65365W        W37790   7.654   5.723  13.045
65366W        W37791  12.446  18.373  11.040
65367W        W37792  38.649  38.101  11.852
65368W        W37793   9.572  24.994  12.647
65369W        W37794   3.407  12.106   0.682
65370W        W37795  43.222  32.058   0.809
65371W        W37796  20.111  35.129   1.953
65372W        W37797   1.690   4.796  11.861
65373W        W37798  32.603  29.188   4.502
65374W        W37799  40.893  37.629  12.106
65375W        W37800  40.936  32.091  11.475
65376W        W37801  30.050  43.691  10.643
65377W        W37802  40.415  35.657  14.408
65378W        W37803  38.073  44.130   3.615
65379W        W37804  15.344  37.909   1.873
65380W        W37805  37.890   6.463  12.417
65381W        W37806  37.350  16.480  11.564
65382W        W37807  24.310  18.684  13.098
65383W        W37808  43.359  31.686  12.580
65384W        W37809  37.596  16.553  13.535
65385W        W37810  21.513  33.634   4.466
65386W        W37811  10.431  34.208  14.878
65387W        W37812  34.867  17.813  10.667
65388W        W37813  12.581   1.551  11.108
65389W        W37814  11.751  33.109   1.712
65390W        W37815  31.019  22.613  13.359
65391W        W37816  44.844  35.273  13.488
65392W        W37817   9.744  24.272   0.347
65393W        W37818  24.286   9.395  13.481
65394W        W37819   6.289   3.595   3.909
65395W        W37820  33.593   4.043  11.885
65396W        W37821  42.573  34.398   1.424
65397W        W37822  19.423  39.877   3.034
65398W        W37823  23.945   3.983   3.846
65399W        W37824  36.551   5.290  14.557
65400W        W37825  42.290   2.941   0.802
65401W        W37826  36.384   6.984  13.106
65402W        W37827  26.730   0.463   3.434
65403W        W37828  23.603  24.018   3.285
65404W        W37829   8.210  42.069   3.315
65405W        W37830  27.666   9.620  11.118
65406W        W37831   0.565  10.632   0.904
65407W        W37832  39.511  24.130   2.673
65408W        W37833  11.644  40.637  12.419
65409W        W37834  20.680  41.856   3.334
65410W        W37835  42.823  24.255  13.801
65411W        W37836  14.631  19.667   0.915
65412W        W37837  39.253  38.827  14.853
65413W        W37838  40.928  27.983  14.829
65414W        W37839   5.813  21.044   3.157
65415W        W37840  24.752   8.476   0.366
65416W        W37841   1.134  34.945  14.962
65417W        W37842  11.731  10.877   0.865
65418W        W37843  15.308  13.316  14.946
65419W        W37844  22.454  10.641  13.745
65420W        W37845  24.010   4.796   5.075
65421W        W37846  20.394   5.825  14.997
65422W        W37847  22.787  13.172  12.401
65423W        W37848  22.231   4.858  13.943
65424W        W37849  22.980  22.544  10.677
65425W        W37850  18.157  39.726   0.362
65426W        W37851  28.018  34.466  12.028
65427W        W37852  35.501  37.509  13.002
65428W        W37853  30.205   3.464   0.974
65429W        W37854  18.121   1.857   1.079
65430W        W37855  39.526  30.073   2.430
65431W        W37856  33.752  18.749   4.148
65432W        W37857  24.799  17.569   2.432
65433W        W37858   0.699  30.077  14.116
65434W        W37859  38.567  17.569   1.801
65435W        W37860  35.618  36.405  12.473
65436W        W37861  13.908  15.734   3.894
65437W        W37862  35.099   8.541  14.314
65438W        W37863  26.652  40.870   3.317
65439W        W37864   0.420  44.352  11.491
65440W        W37865   1.344  36.660   0.858
65441W        W37866   7.552  44.640  13.924
65442W        W37867  43.264  21.528   2.236
65443W        W37868  26.974  32.290   3.293
65444W        W37869  44.001   2.385  12.830
65445W        W37870   3.511  17.602  11.047
65446W        W37871   6.737  32.861  12.490
65447W        W37872  42.404   2.511   3.261
65448W        W37873  21.144  44.096   3.602
65449W        W37874  26.493   6.921   4.436
65450W        W37875   7.189  21.214   4.189
65451W        W37876  14.144   4.342   2.524
65452W        W37877  19.568   2.899   3.375
65453W        W37878  32.984  32.909  12.424
65454W        W37879  28.454  13.052   1.919
65455W        W37880  35.434  12.057   4.520
65456W        W37881  34.021   7.803  10.578
65457W        W37882  29.632   3.777  14.267
65458W        W37883  26.098  12.521  12.623
65459W        W37884  25.633  24.112  12.632
65460W        W37885  20.206  22.645   1.779
65461W        W37886   9.172  27.313   3.220
65462W        W37887  39.779   1.307  10.948
65463W        W37888  44.733  22.526  14.879
65464W        W37889  44.865  23.906  14.867
65465W        W37890  17.727  31.539  13.814
65466W        W37891  42.355  22.792   4.679
65467W        W37892  43.082  18.108   1.265
65468W        W37893  34.560  29.551   2.496
65469W        W37894  29.804  21.454  13.395
65470W        W37895  34.337  26.409  14.043
65471W        W37896   9.140   5.919   3.273
65472W        W37897  26.049  23.488   0.230
65473W        W37898  38.535  31.352   1.218
65474W        W37899  20.829  37.724   4.130
65475W        W37900  10.449  32.333   4.766
65476W        W37901  41.493  32.166  12.628
65477W        W37902  32.630  20.348  12.369
65478W        W37903   3.873   8.906   1.092
65479W        W37904  14.519  38.133  13.704
65480W        W37905  21.047  26.250   3.017
65481W        W37906  19.793  24.910  11.386
65482W        W37907  44.174  19.219  13.013
65483W        W37908  26.389  37.288  11.531
65484W        W37909  30.496  16.408  10.760
65485W        W37910  15.570   6.470   4.234
65486W        W37911   5.877  44.321   2.935
65487W        W37912  18.801   6.140   4.614
65488W        W37913  28.980  17.796   2.682
65489W        W37914   9.629  26.638   2.591
65490W        W37915  31.115   8.271  13.691
65491W        W37916  12.395  30.598   0.926
65492W        W37917  39.517  34.725  14.174
65493W        W37918  33.230   4.878   3.705
65494W        W37919   3.121  24.445   2.610
65495W        W37920  40.323  36.548  12.884
65496W        W37921  24.327   6.604  11.453
65497W        W37922  43.833  14.784   1.246
65498W        W37923  16.616  16.872   4.023
65499W        W37924  38.018  17.604   0.354
65500W        W37925  37.975  22.937  14.327
65501W        W37926  13.275  38.054   1.243
65502W        W37927   4.443  21.701   4.830
65503W        W37928  31.846  26.895   3.225
65504W        W37929   7.938  20.347  13.922
65505W        W37930  37.756  35.295  11.875
65506W        W37931  38.419  35.914   3.644
65507W        W37932  21.112  27.196   2.876
65508W        W37933  44.946  31.131  13.104
65509W        W37934  29.934  15.001   2.793
65510W        W37935  27.043  29.870   1.579
65511W        W37936  37.876   9.630  11.915
65512W        W37937  10.190  33.576   3.231
65513W        W37938  25.395  17.233  10.977
65514W        W37939  19.226  10.784  10.457
65515W        W37940  36.419  32.496   4.912
65516W        W37941   8.389  31.960   4.664
65517W        W37942  17.434  25.463  14.168
65518W        W37943  26.923  14.173  10.818
65519W        W37944  37.611  16.767   0.856
65520W        W37945  32.375  26.136   2.448
65521W        W37946  44.779   1.870   0.794
65522W        W37947  19.674  13.230  10.437
65523W        W37948  44.310   9.234  14.328
65524W        W37949   6.781  22.846  11.254
65525W        W37950   8.920   5.417  10.478
65526W        W37951  34.859  35.012  14.001
65527W        W37952  34.884  14.516  14.503
65528W        W37953  38.384  40.054   9.962
65529W        W37954  41.670  34.032  14.517
65530W        W37955  13.163  21.743  13.990
65531W        W37956   6.170  39.310   2.844
65532W        W37957  12.278  12.951   1.374
65533W        W37958   5.962   0.510  10.661
65534W        W37959  41.974  22.134   5.045
65535W        W37960  27.204  15.272   0.805
65536W        W37961  15.284  36.009  14.905
65537W        W37962  42.664  28.051  12.088
65538W        W37963  18.653  24.962   0.340
65539W        W37964   7.729  33.807  14.376
65540W        W37965   6.827  31.037   3.567
65541W        W37966  36.421  23.389  13.006
65542W        W37967   4.358  14.230  12.371
65543W        W37968   6.138  10.296  13.857
65544W        W37969  25.218   6.173  12.405
65545W        W37970   4.895  20.498   1.262
65546W        W37971  33.741  14.386  12.912
65547W        W37972  20.702  29.434   2.763
65548W        W37973  38.953  31.022   1.213
65549W        W37974  29.882  18.606   5.160
65550W        W37975   2.343  10.306   0.050
65551W        W37976  43.472  25.473   1.803
65552W        W37977   8.043  44.024   4.662
65553W        W37978  19.170   3.834  14.252
65554W        W37979  13.160  22.262   2.186
65555W        W37980  11.692  22.116   9.953
65556W        W37981   6.246   1.979  13.085
65557W        W37982  40.134   1.941  12.956
65558W        W37983   7.345  32.874  11.964
65559W        W37984  15.358   5.383  13.325
65560W        W37985  15.154  36.112  11.382
65561W        W37986   7.606  14.729  11.212
65562W        W37987  39.021   1.820   3.563
65563W        W37988  13.357   4.514  11.445
65564W        W37989   1.422  14.857  10.932
65565W        W37990   3.997   5.410  11.528
65566W        W37991  31.908  24.955   3.151
65567W        W37992  17.024  23.760   1.516
65568W        W37993  30.885  22.623   4.529
65569W        W37994   0.330  21.077   1.251
65570W        W37995  12.591   5.246   3.962
65571W        W37996  13.997  40.357   2.295
65572W        W37997  42.092  11.131   4.736
65573W        W37998  25.141  29.973   4.736
65574W        W37999  11.631  26.420  10.592
65575W        W38000   2.732  31.461   2.927
65576W        W38001  29.589  14.237  11.660
65577W        W38002  41.664   1.479   3.390
65578W        W38003  33.946  34.402  11.109
65579W        W38004  26.736  22.621   1.707
65580W        W38005  16.564  44.414  11.089
65581W        W38006   9.185  21.530   1.996
65582W        W38007  38.029  33.554  12.329
65583W        W38008   3.994  42.611  11.434
65584W        W38009   1.917  43.811   1.329
65585W        W38010  11.848   7.303  13.969
65586W        W38011  20.047  32.718   2.779
65587W        W38012   2.451   9.928  12.496
65588W        W38013  35.798  33.511  13.288
65589W        W38014  22.960  23.222  12.002
65590W        W38015  33.002  42.948  10.316
65591W        W38016   1.903  29.254  14.017
65592W        W38017  22.094  27.136   3.213
65593W        W38018  21.547   4.856   2.331
65594W        W38019   1.556  16.043  11.609
65595W        W38020  38.057  35.403   1.960
65596W        W38021  17.065   6.730   0.453
65597W        W38022  14.870  40.289   1.825
65598W        W38023  24.752  41.339   0.351
65599W        W38024  23.744  21.703  14.544
65600W        W38025  36.417  16.893   2.973
65601W        W38026  41.789  31.406  10.410
65602W        W38027  29.279  16.542   2.290
65603W        W38028  18.290  38.739   3.060
65604W        W38029   4.890  13.992   3.053
65605W        W38030  22.507  10.203   2.035
65606W        W38031  23.072  26.458  10.738
65607W        W38032  39.806  28.571   0.683
65608W        W38033  42.399   2.581  12.010
65609W        W38034  11.278  41.479   2.919
65610W        W38035  19.016  10.750  12.255
65611W        W38036  37.353  34.123   4.609
65612W        W38037  28.018   8.519  11.743
65613W        W38038  39.490  39.575  13.838
65614W        W38039  32.889  42.868   2.431
65615W        W38040  16.205  36.921  11.902
65616W        W38041  16.593  34.617  12.138
65617W        W38042   7.765  25.907  11.010
65618W        W38043  43.491   0.694  14.084
65619W        W38044  24.502  10.602   3.667
65620W        W38045  31.584  43.092   3.260
65621W        W38046  37.394  24.418  10.744
65622W        W38047   4.429  42.355  11.494
65623W        W38048  39.611  25.037   4.502
65624W        W38049   8.746  32.877  13.873
65625W        W38050   1.978  10.969  11.019
65626W        W38051  25.942  12.262   1.380
65627W        W38052   6.901  39.113  12.471
65628W        W38053  34.897   1.361   4.517
65629W        W38054  10.645  22.762   0.311
65630W        W38055  12.350   5.423   4.945
65631W        W38056  34.410  30.842   5.022
65632W        W38057  23.678  11.715   2.000
65633W        W38058  15.591  33.173  14.799
65634W        W38059  29.090  19.485   2.885
65635W        W38060  14.261  40.526  12.235
65636W        W38061  30.592   4.426   0.737
65637W        W38062  26.434  37.422   1.920
65638W        W38063   1.500  29.036   4.262
65639W        W38064  21.311   7.243  12.145
65640W        W38065  17.021  11.379   4.139
65641W        W38066   3.350  43.915   9.905
65642W        W38067   2.032   1.184  14.918
65643W        W38068  38.530  25.374  11.246
65644W        W38069  39.976  42.728  14.801
65645W        W38070   4.426  32.610  13.802
65646W        W38071  11.164  40.547   2.908
65647W        W38072  17.362   6.903  12.425
65648W        W38073  29.905  11.835  14.347
65649W        W38074  39.512  17.385   4.696
65650W        W38075   0.675  41.445   2.638
65651W        W38076  16.203  23.352  11.821
65652W        W38077  41.651   4.868  14.558
65653W        W38078   0.586  32.356   5.466
65654W        W38079   8.815  26.709   1.198
65655W        W38080  21.016  15.290   1.217
65656W        W38081  28.432   0.657  11.355
65657W        W38082  38.975  31.616   1.110
65658W        W38083  11.719  21.228  10.171
65659W        W38084  33.043  22.991  10.653
65660W        W38085  32.918  16.494   2.893
65661W        W38086  18.688  31.032   0.184
65662W        W38087  39.440  30.327   2.878
65663W        W38088  15.304  20.218   1.059
65664W        W38089   6.659  12.418  12.850
65665W        W38090  27.732  41.276  10.366
65666W        W38091  16.543  44.450  10.558
65667W        W38092  18.860  15.263   4.204
65668W        W38093  43.309  28.609  10.594
65669W        W38094  22.677  14.634   2.956
65670W        W38095   7.383  34.034   0.825
65671W        W38096  38.429  14.847   0.916
65672W        W38097  17.080  22.643  11.961
65673W        W38098  19.735  38.787  14.111
65674W        W38099  41.853  13.403  11.818
65675W        W38100  44.385  23.743   4.575
65676W        W38101   2.848  30.420   3.173
65677W        W38102   8.767  21.947   0.901
65678W        W38103   4.305  30.687  11.151
65679W        W38104  30.421   1.473  12.249
65680W        W38105  35.912  42.768   3.687
65681W        W38106  21.610   3.310  13.408
65682W        W38107   5.950  16.007  11.318
65683W        W38108  14.690   5.389   4.587
65684W        W38109   4.666  36.619   2.592
65685W        W38110  35.814  15.238   0.291
65686W        W38111  29.406  29.130   2.321
65687W        W38112  12.524   3.396   3.620
65688W        W38113   7.276  24.480  11.510
65689W        W38114  20.266  18.403  14.272
65690W        W38115  22.597  15.856  11.480
65691W        W38116  42.079  11.577   3.000
65692W        W38117  24.816  20.955   4.031
65693W        W38118  21.860  40.376   4.122
65694W        W38119  42.256  43.943   2.174
65695W        W38120  12.878   8.326  14.924
65696W        W38121   5.763  18.642   2.902
65697W        W38122  19.794   8.974   3.655
65698W        W38123  12.029   5.733  12.141
65699W        W38124   2.422  37.500  10.334
65700W        W38125   1.447  16.240  12.960
65701W        W38126  25.998  24.603   4.061
65702W        W38127   5.965  10.112  12.423
65703W        W38128  21.775  27.541  13.497
65704W        W38129  29.872  24.663   2.844
65705W        W38130  13.816  32.658   0.582
65706W        W38131  11.503  28.767   3.659
65707W        W38132  15.559  43.914   0.861
65708W        W38133  35.218  38.931  11.590
65709W        W38134  36.381  14.764   0.091
65710W        W38135  16.120  13.589   0.846
65711W        W38136  23.776  16.289  10.309
65712W        W38137   6.096  40.627  11.967
65713W        W38138  32.634  36.587   1.286
65714W        W38139  10.679  29.144  14.430
65715W        W38140   3.809   3.675   3.334
65716W        W38141  44.718  11.342  14.517
65717W        W38142  32.075   7.808  10.856
65718W        W38143  14.853  21.333   4.475
65719W        W38144  28.135  34.304  11.097
65720W        W38145  12.121  13.622   3.895
65721W        W38146  30.203  19.238  14.681
65722W        W38147  38.448  14.638  11.248
65723W        W38148   0.519  10.103   4.119
65724W        W38149  29.207  44.512   2.759
65725W        W38150  16.821  43.811  10.527
65726W        W38151   9.316   3.367   2.183
65727W        W38152  25.296  28.212  14.760
65728W        W38153  27.933   5.407   3.320
65729W        W38154  18.332  15.245  13.534
65730W        W38155   8.167  14.133   0.048
65731W        W38156   5.246  26.889   4.119
65732W        W38157  42.932  12.344   3.264
65733W        W38158  21.678   5.946  14.743
65734W        W38159   6.349  34.474   3.973
65735W        W38160  13.757  24.119   1.232
65736W        W38161  11.795  24.176   0.403
65737W        W38162  42.942  26.194   3.229
65738W        W38163  32.829  41.183   4.710
65739W        W38164  26.615   9.110   3.677
65740W        W38165   0.237  31.446   9.866
65741W        W38166  40.348  11.852  14.897
65742W        W38167  20.534  14.252  11.394
65743W        W38168  35.560  10.182  14.457
65744W        W38169   2.283  43.099   4.045
65745W        W38170  15.389  33.226   4.172
65746W        W38171   3.810  17.739  12.039
65747W        W38172  20.031   9.220  14.851
65748W        W38173  42.324   2.003   3.255
65749W        W38174  38.900  10.621  14.775
65750W        W38175  44.093   2.104   0.226
65751W        W38176  18.540   3.616  11.426
65752W        W38177  19.635  12.705   0.604
65753W        W38178  16.021  27.979   1.292
65754W        W38179  18.190  24.164  10.918
65755W        W38180  24.044  33.608   3.731
65756W        W38181  35.454  12.561   2.397
65757W        W38182  26.677  23.579  13.525
65758W        W38183  10.945  36.683   2.654
65759W        W38184  44.845  32.117   2.579
65760W        W38185  25.944  25.075  12.551
65761W        W38186  26.490  30.179   4.096
65762W        W38187  25.138  43.843  14.724
65763W        W38188  31.452  36.017  14.284
65764W        W38189  34.563   4.300   1.034
65765W        W38190  26.019  24.874   1.784
65766W        W38191   0.441  37.960  11.241
65767W        W38192  14.101  20.675   0.462
65768W        W38193  25.744  13.374   4.746
65769W        W38194  13.398  25.616   0.035
65770W        W38195  21.458  44.835   0.793
65771W        W38196  38.503  21.240  14.138
65772W        W38197  18.101  18.726   3.776
65773W        W38198  23.929  41.027  10.960
65774W        W38199  10.463   5.159  11.659
65775W        W38200  40.489   1.398   2.799
65776W        W38201  22.118  21.065   1.935
65777W        W38202  24.013  16.509  10.729
65778W        W38203  15.977  26.592  14.053
65779W        W38204  34.525  44.318  14.503
65780W        W38205  37.876  20.893  12.962
65781W        W38206  21.212  16.084  10.517
65782W        W38207  41.837  20.708  11.612
65783W        W38208  20.261   8.805  13.064
65784W        W38209  10.937   9.293   0.879
65785W        W38210   1.212  31.031  10.661
65786W        W38211   9.287  22.491   2.703
65787W        W38212   3.745  10.663   0.012
65788W        W38213  15.242   4.504  11.168
65789W        W38214  30.924  33.189  11.572
65790W        W38215  17.668  43.889   3.214
65791W        W38216  31.135  18.251  14.929
65792W        W38217  13.976  19.397  11.138
65793W        W38218  41.768   0.915   1.277
65794W        W38219  37.935   9.434   1.889
65795W        W38220   0.048  23.710  10.645
65796W        W38221  22.574  28.092   4.401
65797W        W38222  22.773  14.622   2.319
65798W        W38223  40.452  28.720   2.849
65799W        W38224  42.887   7.859   2.839
65800W        W38225   9.166  40.419  10.081
65801W        W38226  39.121  13.106   1.501
65802W        W38227  32.633  35.343  14.464
65803W        W38228  43.497  38.409  11.533
65804W        W38229  29.040  26.723   4.812
65805W        W38230  17.981  32.176   3.671
65806W        W38231  26.169  44.822  11.858
65807W        W38232   4.332  14.200  11.024
65808W        W38233  12.226  18.695   0.687
65809W        W38234   6.729   4.301   0.746
65810W        W38235  12.752   5.042  10.992
65811W        W38236  24.098  14.126  13.546
65812W        W38237  41.023  26.127   3.294
65813W        W38238  27.150  34.758  14.929
65814W        W38239  26.240   1.043  12.954
65815W        W38240  44.205   1.200   0.338
65816W        W38241  17.105  28.489  14.829
65817W        W38242  42.544  18.101  14.450
65818W        W38243  26.259  25.839   4.190
65819W        W38244  17.184   2.085   3.737
65820W        W38245  34.052  12.064  12.325
65821W        W38246  17.891   0.516  14.437
65822W        W38247  37.057  19.791   4.240
65823W        W38248  12.788  43.029  10.744
65824W        W38249   8.100   2.772   4.525
65825W        W38250   4.744  25.931   3.381
65826W        W38251  23.894  40.367   3.179
65827W        W38252  12.248  44.853  11.617
65828W        W38253  32.537  13.347   1.928
65829W        W38254   4.752  12.913  12.096
65830W        W38255  14.756  35.734  13.697
65831W        W38256  33.174  29.813  14.431
65832W        W38257  14.549  30.067  13.795
65833W        W38258  23.593  38.362   4.801
65834W        W38259  13.170  36.882   1.334
65835W        W38260   9.260  15.201  13.266
65836W        W38261   9.724  37.129  14.101
65837W        W38262  40.272   9.728  13.931
65838W        W38263   2.753  43.307   0.442
65839W        W38264  38.357  32.573   4.080
65840W        W38265  44.754  38.961  10.357
65841W        W38266  11.251  35.276  11.495
65842W        W38267  17.349   3.185  13.876
65843W        W38268  24.738   8.220   1.184
65844W        W38269  15.823  19.267   2.112
65845W        W38270  27.015  11.867   0.644
65846W        W38271  25.596  22.298  12.543
65847W        W38272  36.831   8.771  11.011
65848W        W38273   7.500   0.535  12.154
65849W        W38274   3.883   6.157   1.252
65850W        W38275   1.958   9.778  12.452
65851W        W38276  20.488   4.164  13.563
65852W        W38277  25.492  39.310   3.092
65853W        W38278  19.688   2.028  11.664
65854W        W38279  44.877  41.932   2.700
65855W        W38280  38.872  38.981  14.213
65856W        W38281  29.177  31.509   1.579
65857W        W38282  20.773   2.830   0.179
65858W        W38283  31.154  25.578  14.766
65859W        W38284  29.106  32.608  14.079
65860W        W38285  21.250  41.972  11.602
65861W        W38286  11.358  21.322   0.864
65862W        W38287  28.410  23.640   4.803
65863W        W38288   8.923  41.388   4.648
65864W        W38289  11.826  18.077   2.270
65865W        W38290  35.619   6.849  11.508
65866W        W38291   0.268  38.598  14.996
65867W        W38292  35.631   7.883  13.575
65868W        W38293   5.491   6.942  12.864
65869W        W38294  30.126  37.943  12.406
65870W        W38295  40.922  29.994   4.137
65871W        W38296  28.492  22.964  13.398
65872W        W38297   1.922  25.725  14.492
65873W        W38298  19.852  35.046   4.106
65874W        W38299   1.918  23.053   3.741
65875W        W38300  40.852  23.363   3.705
65876W        W38301  38.908  29.020   3.160
65877W        W38302  37.026  17.754   2.936
65878W        W38303   8.194   2.312  11.150
65879W        W38304  29.201   0.385  11.964
65880W        W38305  22.038   6.737  13.043
65881W        W38306  24.571   6.225  10.751
65882W        W38307  42.238  21.225  14.078
65883W        W38308  10.409  23.937   1.777
65884W        W38309  29.497  16.054  14.321
65885W        W38310  16.119  29.636   1.981
65886W        W38311   8.466  35.289  13.381
65887W        W38312  16.263   0.473  11.534
65888W        W38313  23.519   1.177   0.458
65889W        W38314  41.435  14.320   0.440
65890W        W38315  24.989   1.679  14.836
65891W        W38316  37.411  23.187   2.811
65892W        W38317  41.882  37.306   0.433
65893W        W38318   4.247  33.715  11.842
65894W        W38319  17.840  44.874  12.189
65895W        W38320  34.815  37.995  13.518
65896W        W38321  12.640   3.194   1.338
65897W        W38322   8.365   2.893   0.640
65898W        W38323   3.324  40.268  14.788
65899W        W38324  33.893  32.589  12.896
65900W        W38325  29.437   8.935  10.637
65901W        W38326   7.939   3.199  10.117
65902W        W38327  17.725   2.420   2.902
65903W        W38328   0.348  29.149  14.998
65904W        W38329  15.154  42.493  12.101
65905W        W38330  22.767  11.317  12.544
65906W        W38331  29.867  29.612  10.627
65907W        W38332  12.692  18.771   4.831
65908W        W38333  31.967  34.573  12.571
65909W        W38334  22.229  35.346   4.229
65910W        W38335   1.288  14.426   2.919
65911W        W38336  16.838  28.043   1.706
65912W        W38337  33.226  22.578   1.530
65913W        W38338  10.651   7.891   0.693
65914W        W38339  31.079   2.073  13.651
65915W        W38340  35.363  44.368  10.435
65916W        W38341  27.642  35.999  12.125
65917W        W38342  27.753  25.893   3.664
65918W        W38343  27.855  16.646   4.489
65919W        W38344  12.879  13.870  10.139
65920W        W38345  37.702  10.576   0.337
65921W        W38346  40.055  27.441  11.932
65922W        W38347   3.294  37.001   2.561
65923W        W38348  20.700  23.272  13.537
65924W        W38349  30.467  37.562   5.091
65925W        W38350  29.900  29.067   4.144
65926W        W38351  25.906  31.087  14.749
65927W        W38352  17.617   5.690  12.917
65928W        W38353  13.705  18.406   0.950
65929W        W38354  29.016   8.790   0.053
65930W        W38355  20.688  37.839   0.655
65931W        W38356  43.466   4.198  10.992
65932W        W38357  14.263  44.894  12.498
65933W        W38358   4.760  24.453  12.555
65934W        W38359  10.063  33.066  12.057
65935W        W38360  14.775  43.403   1.830
65936W        W38361   1.341  42.481   4.124
65937W        W38362  24.292  43.717  12.585
65938W        W38363   5.155  34.372   0.314
65939W        W38364  16.050  20.121   4.875
65940W        W38365  20.122   3.286  11.598
65941W        W38366  21.044  34.551   4.555
65942W        W38367  28.176  37.479   2.612
65943W        W38368  21.232  30.945   1.348
65944W        W38369  26.761  11.365  12.132
65945W        W38370  23.480  36.012  14.880
65946W        W38371  22.239   5.359  12.945
65947W        W38372  30.401   7.964  12.153
65948W        W38373  31.932  21.673  12.472
65949W        W38374   7.665  23.876   1.792
65950W        W38375  32.892  37.939   2.742
65951W        W38376  34.035  20.265   4.464
65952W        W38377  35.802  18.178  13.580
65953W        W38378  29.878  21.632   2.284
65954W        W38379  35.414  34.110  11.920
65955W        W38380  29.538  38.070  10.253
65956W        W38381   9.457   5.258  11.664
65957W        W38382   7.300  21.309   3.204
65958W        W38383  12.403  24.227   9.734
65959W        W38384  18.375   6.874   2.441
65960W        W38385  13.255  19.901   1.224
65961W        W38386   2.857  44.167  12.641
65962W        W38387   2.197  19.674  11.509
65963W        W38388  44.524   8.301  10.284
65964W        W38389  39.521  33.886   0.950
65965W        W38390  31.799   3.376   5.127
65966W        W38391  38.891  22.132   1.234
65967W        W38392  26.855  21.588   4.153
65968W        W38393  41.075  24.617  14.858
65969W        W38394  14.049   3.495   3.737
65970W        W38395  32.119  20.966  11.092
65971W        W38396  23.790   4.338   1.178
65972W        W38397  27.043   7.207  12.338
65973W        W38398   9.782  41.485   3.096
65974W        W38399  10.929  32.203  11.580
65975W        W38400  20.633  39.460   4.745
65976W        W38401  12.572  34.914  14.927
65977W        W38402  39.546  39.792   0.050
65978W        W38403  22.912  44.806   3.799
65979W        W38404  13.694  36.362  10.328
65980W        W38405  11.735   4.934   0.986
65981W        W38406  11.671  15.760   0.956
65982W        W38407  34.861  38.375   3.619
65983W        W38408  35.865   0.050   4.088
65984W        W38409  28.875   4.749   0.914
65985W        W38410  11.124   2.341   0.384
65986W        W38411   9.792  39.341  14.414
65987W        W38412  33.811   9.442  11.919
65988W        W38413  37.548  42.609  13.315
65989W        W38414  14.590  16.822  12.031
65990W        W38415  22.808  44.997  12.921
65991W        W38416  34.571   4.525   3.052
65992W        W38417  39.289  23.486  12.893
65993W        W38418   5.032  35.726   1.227
65994W        W38419  31.060   7.125  13.069
65995W        W38420  24.180  10.726  13.785
65996W        W38421  32.391  35.878   2.290
65997W        W38422  27.107  26.377   0.040
65998W        W38423  33.146   4.373   2.146
65999W        W38424   9.631  23.948  14.895
66000W        W38425  27.253   8.879  11.681
66001W        W38426  42.918  15.671   1.919
66002W        W38427  21.227  25.686   3.705
66003W        W38428   5.283  30.775  11.174
66004W        W38429  11.335   7.765   0.299
66005W        W38430   3.437   6.731  11.695
66006W        W38431  11.034  17.991   4.231
66007W        W38432  34.122  12.282  12.777
66008W        W38433  19.162  28.412   0.961
66009W        W38434  32.142  12.113   4.607
66010W        W38435  43.851  24.984  10.675
66011W        W38436  13.653  19.176   1.540
66012W        W38437  24.966  35.986   3.264
66013W        W38438  39.058  21.168   3.583
66014W        W38439  22.845   5.295  13.860
66015W        W38440  13.158  41.479   2.212
66016W        W38441  16.051   6.946  13.705
66017W        W38442   0.989  41.910  13.819
66018W        W38443  12.090  19.752  12.090
66019W        W38444   3.724  28.519  14.978
66020W        W38445  42.630  43.043   5.260
66021W        W38446  32.270  24.303  12.801
66022W        W38447  21.642  37.444   0.748
66023W        W38448  30.710   1.994  10.983
66024W        W38449  15.620  14.708  12.360
66025W        W38450  16.166   7.189   4.005
66026W        W38451  22.283  13.193   4.102
66027W        W38452  34.576  28.433   2.454
66028W        W38453  23.471   2.128   2.107
66029W        W38454  32.092  24.913  13.802
66030W        W38455   0.158  19.798  10.703
66031W        W38456  43.968  24.215  11.559
66032W        W38457  36.696  41.537   4.659
66033W        W38458  13.797  18.213  12.974
66034W        W38459  15.183  24.024   0.837
66035W        W38460  41.589   8.316   2.791
66036W        W38461  24.055  25.876   1.406
66037W        W38462   5.983  15.514   3.820
66038W        W38463  26.650  39.845   3.348
66039W        W38464  31.547  13.927  12.912
66040W        W38465  41.488  22.457  14.099
66041W        W38466  33.847   9.254  10.558
66042W        W38467  21.955   2.243   1.645
66043W        W38468  33.164  24.460   3.634
66044W        W38469  24.907   8.442   2.422
66045W        W38470  16.585   4.628   2.620
66046W        W38471   4.463  37.035  14.433
66047W        W38472  28.244  41.559   1.328
66048W        W38473  20.220  32.168  14.334
66049W        W38474   8.281  31.384   0.462
66050W        W38475  32.257   8.007  13.482
66051W        W38476   5.713  20.736   4.925
66052W        W38477  12.599  36.443   3.146
66053W        W38478   7.061  24.210  13.822
66054W        W38479  23.800  11.890   5.657
66055W        W38480  17.106   9.880   4.025
66056W        W38481  14.028  16.683   1.175
66057W        W38482  29.218  25.148   3.192
66058W        W38483  26.074  35.410  12.236
66059W        W38484  13.130  30.066  13.502
66060W        W38485  30.849   9.746   3.570
66061W        W38486  22.208  40.761   3.764
66062W        W38487   1.915   1.650   3.364
66063W        W38488  30.940  15.838   3.563
66064W        W38489  18.339  38.824  11.984
66065W        W38490  26.161  37.868   1.804
66066W        W38491  40.996  21.003  11.987
66067W        W38492   0.269  16.819  12.480
66068W        W38493  30.957   6.667  10.716
66069W        W38494  34.298  20.767  12.347
66070W        W38495  21.057   6.321  12.597
66071W        W38496  35.784  29.907  10.340
66072W        W38497  41.445  37.934  10.425
66073W        W38498  36.009   7.220   2.422
66074W        W38499   4.164  19.460   4.596
66075W        W38500  18.856  36.821  11.424
66076W        W38501  15.762   6.388  14.384
66077W        W38502  21.801   9.579  11.036
66078W        W38503  38.301  41.387   3.703
66079W        W38504  32.855   4.813  14.377
66080W        W38505  30.579   4.265   3.539
66081W        W38506  21.604  17.237   3.609
66082W        W38507  24.250  33.533  10.589
66083W        W38508  19.988  37.422   2.411
66084W        W38509  31.967   5.477  11.982
66085W        W38510   5.938  29.955   1.245
66086W        W38511   4.840   8.271   1.746
66087W        W38512  36.563  38.580  10.550
66088W        W38513   3.763   2.638   3.383
66089W        W38514  37.865  38.469  11.970
66090W        W38515  30.571  29.660  11.925
66091W        W38516  40.697  40.970  14.858
66092W        W38517  39.302  43.791  11.870
66093W        W38518  37.936   3.901   0.359
66094W        W38519  20.935   9.880  14.947
66095W        W38520  39.298   8.845  13.883
66096W        W38521  34.189  15.898   3.351
66097W        W38522  35.047  42.730   2.410
66098W        W38523  11.167   2.286  14.407
66099W        W38524  39.587  28.494  11.445
66100W        W38525   2.761  16.615   4.336
66101W        W38526  29.684  29.122  13.522
66102W        W38527  29.996  44.316  14.563
66103W        W38528  21.751  25.136   2.281
66104W        W38529  21.564  26.952   3.682
66105W        W38530  15.767  37.913   0.491
66106W        W38531  21.480  16.771   2.765
66107W        W38532  27.021  31.166  12.462
66108W        W38533  39.056  31.098   2.341
66109W        W38534  35.817  10.821  13.113
66110W        W38535  36.020  24.434  12.549
66111W        W38536  22.321  39.940   2.384
66112W        W38537  24.578   7.688   0.752
66113W        W38538  15.380  15.333   4.246
66114W        W38539  10.828  33.021  14.686
66115W        W38540  28.412  36.885   4.646
66116W        W38541  36.864  22.434   4.140
66117W        W38542  15.614  21.272  10.695
66118W        W38543  39.097   5.267   4.550
66119W        W38544  39.397  15.130   3.708
66120W        W38545  44.231  24.226  10.981
66121W        W38546  30.864  26.613   0.504
66122W        W38547  24.012  14.595  13.754
66123W        W38548   4.676   5.169   0.300
66124W        W38549  31.469  23.552  12.722
66125W        W38550   3.258  15.594  13.772
66126W        W38551  28.609  17.331  12.354
66127W        W38552  19.988  42.873  12.659
66128W        W38553  40.086  12.584  14.171
66129W        W38554  16.534  29.874   3.815
66130W        W38555  25.970  24.863  11.130
66131W        W38556   9.297  16.140   1.882
66132W        W38557  43.940   1.494   0.766
66133W        W38558   3.722  31.750  10.722
66134W        W38559   8.143  20.444   2.868
66135W        W38560  21.988  10.266   3.868
66136W        W38561  26.991  23.264   3.745
66137W        W38562  34.944  17.998  11.170
66138W        W38563  11.148  33.269  14.363
66139W        W38564  28.903  26.553   0.369
66140W        W38565  42.410  34.070  12.742
66141W        W38566  35.783  13.906  11.707
66142W        W38567  20.649  17.869   2.871
66143W        W38568   8.084  37.517   4.681
66144W        W38569  24.228   3.810   4.821
66145W        W38570  39.848   9.642  10.683
66146W        W38571  39.979  33.331  13.179
66147W        W38572  22.915  11.796  12.695
66148W        W38573  22.010   2.435   0.655
66149W        W38574  37.762  40.912  12.067
66150W        W38575   9.384   8.884   3.800
66151W        W38576  25.975   6.358   0.506
66152W        W38577  30.084  41.246   1.323
66153W        W38578  11.636  41.007  14.739
66154W        W38579  35.394  34.017  14.358
66155W        W38580  18.037  11.296   2.313
66156W        W38581  36.285   5.450  11.084
66157W        W38582   4.907  18.763  10.715
66158W        W38583  42.622  11.081   4.713
66159W        W38584  37.093  10.495  12.864
66160W        W38585  16.332  12.380  11.608
66161W        W38586  42.037  25.970   3.714
66162W        W38587  22.243   3.184  11.449
66163W        W38588   6.244  34.476   2.641
66164W        W38589  42.867   6.485   1.295
66165W        W38590  32.860  40.070  12.890
66166W        W38591  10.636  16.830  13.873
66167W        W38592  24.672   7.722   3.773
66168W        W38593  44.721  28.250   1.868
66169W        W38594   4.781   0.881  14.422
66170W        W38595  38.829  26.896   1.761
66171W        W38596  30.950  42.244   1.446
66172W        W38597  24.671   0.670  14.777
66173W        W38598  41.349  18.026  12.973
66174W        W38599  15.184  31.642  13.400
66175W        W38600   2.701  28.755   0.379
66176W        W38601  11.872  29.906  12.410
66177W        W38602   1.827  43.345   0.395
66178W        W38603   1.574   2.704  12.616
66179W        W38604  37.891  32.505   2.365
66180W        W38605  31.013  32.420   2.625
66181W        W38606  26.974  35.345   1.750
66182W        W38607  23.063  24.096   3.366
66183W        W38608   8.196  34.266   3.911
66184W        W38609  19.674  38.112   4.145
66185W        W38610  33.205  39.525   1.308
66186W        W38611  37.825   8.687   2.315
66187W        W38612  42.474  31.500   1.045
66188W        W38613   9.595  17.676   0.468
66189W        W38614  27.542   9.795   2.701
66190W        W38615  32.243  33.642  14.626
66191W        W38616  15.259  31.984  11.956
66192W        W38617  44.087   2.332   5.012
66193W        W38618   5.829   4.217   0.819
66194W        W38619   0.713   6.387   3.329
66195W        W38620  44.276  40.322   2.155
66196W        W38621  13.088  31.102  14.731
66197W        W38622  44.872  13.365   4.663
66198W        W38623  15.480  19.056   1.117
66199W        W38624  44.710  19.169   0.420
66200W        W38625  28.722  16.873  13.392
66201W        W38626  26.231  14.318  13.994
66202W        W38627  40.208  39.888  11.706
66203W        W38628   1.403   9.649   4.482
66204W        W38629   9.904   0.861  12.147
66205W        W38630  10.775  23.623   9.614
66206W        W38631  15.097  12.738   4.961
66207W        W38632  17.715  44.821   3.184
66208W        W38633  38.264  29.487  13.237
66209W        W38634  18.875   1.711   4.629
66210W        W38635  33.459  13.203  11.022
66211W        W38636   2.416  39.188   2.352
66212W        W38637   5.840  43.774   3.671
66213W        W38638   0.299   7.186  12.157
66214W        W38639   1.697  26.379   2.404
66215W        W38640  35.819   5.898   3.745
66216W        W38641  22.562  36.523  11.585
66217W        W38642  13.231  13.622   2.193
66218W        W38643   7.911   2.918  12.987
66219W        W38644  29.526   4.819   2.850
66220W        W38645  16.075  43.974   0.864
66221W        W38646  18.771  23.535   0.670
66222W        W38647  23.563  22.255   3.746
66223W        W38648  40.484   3.585  14.808
66224W        W38649  32.188  12.671  11.039
66225W        W38650  21.556  33.389  12.430
66226W        W38651  41.711  42.894  14.733
66227W        W38652  13.718  28.460   1.277
66228W        W38653  39.422  30.702   1.517
66229W        W38654   9.625  31.995   1.335
66230W        W38655  28.674   4.418   3.136
66231W        W38656  15.566   2.189   3.278
66232W        W38657  15.828  15.509   3.179
66233W        W38658  10.095  16.876  14.579
66234W        W38659  27.064  17.653  10.711
66235W        W38660  23.577   9.354   1.224
66236W        W38661  19.234   2.693   2.277
66237W        W38662  22.395  10.174  10.177
66238W        W38663   5.272  41.860  12.398
66239W        W38664   2.151  40.397  11.143
66240W        W38665  43.794  21.535   2.339
66241W        W38666   1.110   2.321  12.796
66242W        W38667  21.562  28.081  13.393
66243W        W38668  38.328   3.789  12.866
66244W        W38669  38.210   0.426   1.768
66245W        W38670   8.583   1.300  13.409
66246W        W38671   8.573  17.100   2.594
66247W        W38672  25.548  44.607  12.441
66248W        W38673  15.338   7.492   0.044
66249W        W38674   2.412   4.903   4.107
66250W        W38675   0.204  41.774  14.810
66251W        W38676   4.446   3.690   4.736
66252W        W38677   0.255  41.605   4.151
66253W        W38678  11.871  36.142   0.255
66254W        W38679   1.771  42.702  14.820
66255W        W38680   5.027  10.858   4.223
66256W        W38681  19.666  41.348  12.904
66257W        W38682   8.135  10.086  10.667
66258W        W38683  40.833  11.235  14.732
66259W        W38684  31.821   6.885   3.285
66260W        W38685  19.663  35.312   1.770
66261W        W38686  44.447  22.684  13.587
66262W        W38687   4.607   0.424   1.340
66263W        W38688  31.129  20.482   0.900
66264W        W38689   2.354   2.954  12.980
66265W        W38690  25.974  44.894   3.641
66266W        W38691  20.552  25.001   0.933
66267W        W38692   7.443   9.130  14.363
66268W        W38693  27.696   8.326  12.459
66269W        W38694  16.826   7.251  13.163
66270W        W38695  13.596  11.400   1.927
66271W        W38696  10.339  37.306  14.518
66272W        W38697  21.908  18.043   4.854
66273W        W38698   2.367  26.942   2.810
66274W        W38699  17.007   2.888  12.899
66275W        W38700  19.191  28.063   3.181
66276W        W38701  27.553  34.318  10.802
66277W        W38702  13.739   9.980   0.955
66278W        W38703  38.553  14.229   3.252
66279W        W38704  22.033  27.571  13.962
66280W        W38705  42.905  27.670  14.434
66281W        W38706  20.258   8.348   1.005
66282W        W38707   4.832   9.642  10.150
66283W        W38708  30.083  10.889   0.250
66284W        W38709  16.501  38.556  11.828
66285W        W38710  25.704  18.605  12.039
66286W        W38711   3.761  21.242  13.806
66287W        W38712  10.149  22.280  11.055
66288W        W38713  23.080  28.668  14.621
66289W        W38714  29.951  34.726   4.493
66290W        W38715  12.794   8.297  10.659
66291W        W38716  41.799  19.994   3.837
66292W        W38717  14.522  33.618   3.535
66293W        W38718  26.049  22.443  11.904
66294W        W38719   4.722  43.200   2.794
66295W        W38720  33.523  39.073   4.880
66296W        W38721  19.836  23.110   2.456
66297W        W38722  24.443   0.870   2.713
66298W        W38723  13.256  22.117   5.014
66299W        W38724  26.759  40.753  10.647
66300W        W38725  42.017  12.231   5.245
66301W        W38726   8.936  10.923   2.511
66302W        W38727  25.684  44.062  11.582
66303W        W38728  17.858  19.595   3.401
66304W        W38729  32.708  23.166   2.045
66305W        W38730  32.363  23.467   3.335
66306W        W38731  17.018  39.971  13.289
66307W        W38732  43.411   1.911  11.547
66308W        W38733  28.160  14.286   3.330
66309W        W38734  38.824   8.921   2.027
66310W        W38735  36.834   1.269  11.991
66311W        W38736  22.557  22.001   1.214
66312W        W38737  37.821   0.930  14.651
66313W        W38738  30.217  24.211  10.157
66314W        W38739  31.159  25.643  12.447
66315W        W38740  14.796  38.980  10.624
66316W        W38741  43.002  30.304   0.905
66317W        W38742   2.328  30.833   0.845
66318W        W38743  40.395  17.984   1.387
66319W        W38744  25.640  26.805  13.291
66320W        W38745  42.887  24.126   1.784
66321W        W38746  23.027  10.185  13.000
66322W        W38747  17.547  31.455   4.619
66323W        W38748  12.183  18.364   3.642
66324W        W38749  40.483  22.945   2.211
66325W        W38750   2.271   5.705  12.507
66326W        W38751  18.632  23.584   3.617
66327W        W38752  41.538   7.142  13.020
66328W        W38753  13.644  24.909  10.923
66329W        W38754   8.410  33.180  14.092
66330W        W38755  36.839   6.529   9.849
66331W        W38756  14.249  25.431   2.268
66332W        W38757  39.276  12.346  14.507
66333W        W38758  32.406   0.161  14.415
66334W        W38759  14.134   2.893   3.135
66335W        W38760   2.461   5.974  10.831
66336W        W38761   1.693  27.649   4.082
66337W        W38762   8.646  31.063   0.270
66338W        W38763   4.306  27.609   0.656
66339W        W38764  42.562  15.331   4.090
66340W        W38765  33.562   8.361   3.582
66341W        W38766  28.229   7.754  14.548
66342W        W38767  22.064  30.823  12.846
66343W        W38768  27.101  37.257   3.702
66344W        W38769  12.507  36.087  14.498
66345W        W38770  23.200  15.042   2.260
66346W        W38771  15.394  35.958  10.398
66347W        W38772  27.887  44.543   1.146
66348W        W38773  44.416  23.273   3.354
66349W        W38774  15.636   5.935   2.715
66350W        W38775  42.506  16.580   0.579
66351W        W38776  40.696  15.753  10.669
66352W        W38777   3.927  40.090  10.451
66353W        W38778  14.933  19.088  11.975
66354W        W38779  12.119   4.413  11.843
66355W        W38780  27.863  43.900   2.429
66356W        W38781  28.807  26.718  11.464
66357W        W38782  42.531  13.098   4.117
66358W        W38783  34.473  12.679   4.455
66359W        W38784  23.714  10.774  13.553
66360W        W38785  25.159  14.111   0.784
66361W        W38786  21.615  42.865  14.535
66362W        W38787   4.887   2.380   1.298
66363W        W38788  18.825  31.924  14.219
66364W        W38789  43.259  21.780   0.769
66365W        W38790  38.414   4.175  14.388
66366W        W38791   6.505  16.326  12.829
66367W        W38792  40.368   9.572   4.146
66368W        W38793  43.951  41.014  13.584
66369W        W38794  33.621   0.154   2.734
66370W        W38795  23.981   4.898  12.095
66371W        W38796  33.150  23.566  13.342
66372W        W38797  18.709   9.729   0.038
66373W        W38798  18.807  44.608  10.174
66374W        W38799  17.231  37.876   4.626
66375W        W38800  31.404  12.258  14.290
66376W        W38801  12.424  27.152   4.155
66377W        W38802  12.224  21.656   1.820
66378W        W38803   7.860  40.383  10.608
66379W        W38804  19.115  24.751   0.415
66380W        W38805  19.684  14.057   2.336
66381W        W38806  42.459   1.493  10.557
66382W        W38807  16.186  12.729  12.898
66383W        W38808   4.364   1.483   2.233
66384W        W38809  19.147  26.591  13.477
66385W        W38810  34.357  14.489   3.397
66386W        W38811   2.951  14.247  11.339
66387W        W38812  40.320  10.649   1.941
66388W        W38813  13.328  31.707   0.333
66389W        W38814  23.782   3.605   4.665
66390W        W38815   9.684   7.305  14.910
66391W        W38816  20.352  15.899  13.849
66392W        W38817  36.100   5.707  13.438
66393W        W38818  44.981  10.349   3.607
66394W        W38819  40.406  13.261   2.267
66395W        W38820  34.542  39.392   0.680
66396W        W38821  35.853  30.885  13.335
66397W        W38822   3.298   2.050   4.946
66398W        W38823  23.282  43.288   3.100
66399W        W38824  41.094  23.243   4.618
66400W        W38825   4.001  31.464  12.014
66401W        W38826   6.637  11.207  11.639
66402W        W38827  42.910   8.908   3.154
66403W        W38828   9.242   1.366   0.730
66404W        W38829  33.089  29.099  13.903
66405W        W38830  22.459  16.881   0.191
66406W        W38831  22.587   2.457  11.685
66407W        W38832   6.403   4.203  14.434
66408W        W38833   0.950  33.090   2.887
66409W        W38834  38.928  29.245   5.129
66410W        W38835  18.185   5.371  14.953
66411W        W38836   2.723  31.194  14.382
66412W        W38837   5.974   8.807  11.515
66413W        W38838  12.752  37.617   4.517
66414W        W38839   7.493  24.085   3.588
66415W        W38840   4.690  35.539  13.337
66416W        W38841  43.835  16.742  10.672
66417W        W38842   5.728   4.292  13.627
66418W        W38843   8.725  39.981   1.936
66419W        W38844   2.479  11.148  12.001
66420W        W38845  16.819  11.361  14.478
66421W        W38846  33.749  11.595  11.582
66422W        W38847  32.370   6.258  14.299
66423W        W38848  24.392  37.798   1.906
66424W        W38849   5.989  17.573  10.605
66425W        W38850  23.343  34.641  11.125
66426W        W38851  42.624  37.248  12.864
66427W        W38852  14.817  34.888  11.044
66428W        W38853  23.627  33.671   0.627
66429W        W38854   8.513  33.888  11.964
66430W        W38855  35.878  41.257  11.225
66431W        W38856  21.698   6.705  12.581
66432W        W38857  26.240   6.755   2.685
66433W        W38858  40.100   1.564  14.494
66434W        W38859  29.563  14.671   4.548
66435W        W38860   7.306  32.414  11.735
66436W        W38861  40.450  14.472   2.839
66437W        W38862   3.215  21.022   3.015
66438W        W38863  30.658  16.906   3.210
66439W        W38864  39.061  42.789  13.053
66440W        W38865  26.640  24.771   0.306
66441W        W38866  17.618  23.167  14.477
66442W        W38867  33.458  24.199   1.905
66443W        W38868  33.879  19.964   3.638
66444W        W38869   5.916  42.239   1.291
66445W        W38870  22.549   5.169  14.269
66446W        W38871   6.944   2.227   4.567
66447W        W38872   7.260  41.437   4.761
66448W        W38873  11.239  39.286  10.677
66449W        W38874  10.668   6.795   1.245
66450W        W38875  12.483  24.741   5.475
66451W        W38876  18.544  42.188   1.785
66452W        W38877  41.343   3.591  11.180
66453W        W38878  44.232  41.383   3.116
66454W        W38879  30.877  36.804   3.517
66455W        W38880  26.454  11.928   5.076
66456W        W38881   1.434   8.215   1.737
66457W        W38882  34.584  14.647  11.913
66458W        W38883  29.863  38.227  12.756
66459W        W38884  25.039  38.971   4.136
66460W        W38885   7.874   6.905   2.007
66461W        W38886   6.404  41.950   3.822
66462W        W38887   8.073  31.921   1.373
66463W        W38888  12.834  20.551   2.745
66464W        W38889   6.185  11.494  13.283
66465W        W38890  31.987   3.238   0.286
66466W        W38891   9.837  33.114   4.125
66467W        W38892  41.418  43.610   4.532
66468W        W38893  22.239  35.817   0.357
66469W        W38894   7.083  28.974  12.900
66470W        W38895  39.490  38.322   3.732
66471W        W38896  25.187   6.808   3.807
66472W        W38897  41.407  39.870   0.887
66473W        W38898  38.943  33.106  13.229
66474W        W38899   8.391  18.144  14.757
66475W        W38900   3.923   2.199  12.773
66476W        W38901  12.624  13.646   4.025
66477W        W38902  41.025  40.943   0.264
66478W        W38903  44.962  20.174   1.010
66479W        W38904  18.260  27.866   2.898
66480W        W38905   3.829  15.825  12.608
66481W        W38906  19.601   6.828  10.734
66482W        W38907   3.221  21.120  14.870
66483W        W38908  19.661  19.988   4.072
66484W        W38909  37.535  21.233   1.417
66485W        W38910  17.298  34.441  11.490
66486W        W38911  25.671  37.198  12.065
66487W        W38912  36.854  19.913  13.529
66488W        W38913  43.205  25.654   4.739
66489W        W38914  12.351  20.077  14.474
66490W        W38915  37.332  23.502  13.452
66491W        W38916  34.641  14.099   4.564
66492W        W38917  12.571  11.206  14.802
66493W        W38918  35.855   1.687   4.724
66494W        W38919  39.509  19.698  14.794
66495W        W38920  10.738  36.898  12.835
66496W        W38921  16.808   8.440  11.819
66497W        W38922  16.350  38.175   1.731
66498W        W38923  40.004   3.780  14.726
66499W        W38924  37.781  22.534   4.573
66500W        W38925  12.547  13.110  13.957
66501W        W38926  18.777  13.407   3.474
66502W        W38927  38.593  15.153  10.395
66503W        W38928   4.729  23.577   2.859
66504W        W38929  27.528  21.650   4.172
66505W        W38930  39.284  35.977   0.865
66506W        W38931  34.051   5.168   1.862
66507W        W38932  36.935   5.417   4.105
66508W        W38933  14.880  24.124  11.452
66509W        W38934  30.974  18.049   3.400
66510W        W38935  41.530  26.639   4.148
66511W        W38936  41.647  10.120  11.999
66512W        W38937  27.964  38.371   4.753
66513W        W38938  18.165   4.661   0.197
66514W        W38939  15.816  18.636   0.164
66515W        W38940  12.181  14.998   1.460
66516W        W38941  24.600  35.881   1.779
66517W        W38942   7.190  22.530   4.158
66518W        W38943  30.771  27.678   1.233
66519W        W38944  30.027  14.174   3.828
66520W        W38945  26.083  28.426  13.016
66521W        W38946  21.801  14.862   0.242
66522W        W38947  44.008  43.151  14.547
66523W        W38948  22.000  13.811   4.677
66524W        W38949  43.306  26.739   2.278
66525W        W38950  37.883   8.048   2.789
66526W        W38951  41.371  10.557  10.721
66527W        W38952  25.726  34.314  14.020
66528W        W38953  12.604   1.867   1.773
66529W        W38954  43.762  29.599   2.346
66530W        W38955  38.445  37.589   0.087
66531W        W38956  10.198  35.897   3.835
66532W        W38957  23.536  34.189   0.531
66533W        W38958  21.744   1.373   3.695
66534W        W38959  25.218  38.955   1.483
66535W        W38960   5.106  43.552   2.772
66536W        W38961  29.200  10.013   3.741
66537W        W38962   7.200  35.084   4.004
66538W        W38963  33.375  15.011   3.570
66539W        W38964  26.462  21.473  11.900
66540W        W38965  33.936  13.565   4.731
66541W        W38966   9.689   5.729   0.949
66542W        W38967  12.580   8.159  11.099
66543W        W38968  44.546  31.625  11.045
66544W        W38969   8.640  20.512  13.046
66545W        W38970  30.124  21.105   4.598
66546W        W38971  38.985   5.780  13.545
66547W        W38972  26.457   1.181  13.821
66548W        W38973  20.484  42.058   2.885
66549W        W38974  41.342  26.701   1.329
66550W        W38975  35.497   6.652  14.429
66551W        W38976  37.408  26.680  11.407
66552W        W38977  25.307  32.581   5.035
66553W        W38978  33.599  26.770  12.079
66554W        W38979  23.510  21.837  14.993
66555W        W38980  29.195  10.220  13.443
66556W        W38981  31.378  29.170   4.435
66557W        W38982  38.762  37.808  14.029
66558W        W38983   5.415  24.512  11.631
66559W        W38984  41.945  36.111   5.041
66560W        W38985  41.408  20.324   3.697
66561W        W38986   2.184   7.745  13.381
66562W        W38987  40.744  36.874   0.792
66563W        W38988  36.132  28.542  11.914
66564W        W38989  24.156  27.990  11.771
66565W        W38990  40.217  42.309   4.303
66566W        W38991  35.864  20.730   2.265
66567W        W38992  37.576   2.778  11.721
66568W        W38993  26.913  27.419   1.080
66569W        W38994  35.127  41.759   3.626
66570W        W38995   2.497  34.366  10.154
66571W        W38996  25.285  30.436  10.579
66572W        W38997  43.873   3.278  13.194
66573W        W38998  26.757  21.053  12.056
66574W        W38999  29.950  36.075   4.575
66575W        W39000  20.393  14.922  13.491
66576W        W39001  31.066  29.576   2.735
66577W        W39002  35.238  11.551  11.074
66578W        W39003  19.057   5.211  11.233
66579W        W39004   6.412   6.502   3.044
66580W        W39005  41.761  13.857  14.957
66581W        W39006   0.059  13.413   1.165
66582W        W39007  42.922  18.151   2.887
66583W        W39008  44.202  32.074  14.727
66584W        W39009  12.097  29.531   2.000
66585W        W39010  20.297  35.818  14.981
66586W        W39011  44.263  27.653   0.227
66587W        W39012  32.125   6.340   4.774
66588W        W39013  24.769  38.870  14.792
66589W        W39014  30.867  25.415   1.781
66590W        W39015  22.149  23.757  11.975
66591W        W39016   3.748  42.556  11.974
66592W        W39017  36.400  41.609  11.909
66593W        W39018  17.202  44.177   4.150
66594W        W39019   3.019  17.016   4.090
66595W        W39020  15.766   3.885   1.274
66596W        W39021  16.067  32.159   5.050
66597W        W39022  14.160  11.148   0.424
66598W        W39023  12.132  29.390   4.118
66599W        W39024  15.601  43.483   4.222
66600W        W39025  12.734  24.571   1.925
66601W        W39026  24.115  13.112   4.098
66602W        W39027  14.343  37.457   0.967
66603W        W39028  25.448  30.957   0.375
66604W        W39029  40.419  28.814  12.077
66605W        W39030  44.223  29.325  14.308
66606W        W39031  33.056  24.756   2.257
66607W        W39032  24.240  37.864  12.860
66608W        W39033  21.546  10.302   4.688
66609W        W39034  28.341  32.211   0.833
66610W        W39035  22.558  31.170  12.056
66611W        W39036  21.018  11.789  11.240
66612W        W39037   0.052   0.026  14.107
66613W        W39038  18.123  21.037   4.959
66614W        W39039  24.063  40.844   3.263
66615W        W39040  22.819  31.848   1.278
66616W        W39041  14.612  33.654  13.803
66617W        W39042  22.668  12.782  10.208
66618W        W39043  18.811  32.556  12.017
66619W        W39044  26.891  38.462   3.924
66620W        W39045  33.826  16.000  12.566
66621W        W39046  35.391  21.766   1.590
66622W        W39047  43.921  22.672  13.381
66623W        W39048  36.276   6.215   5.234
66624W        W39049  18.139  27.984   0.212
66625W        W39050  14.218  31.618  11.930
66626W        W39051   8.636  23.594   0.975
66627W        W39052  25.342  19.532   1.647
66628W        W39053  17.621   3.775  11.563
66629W        W39054  31.638  12.310   1.252
66630W        W39055  20.324  26.187   5.039
66631W        W39056  38.097  12.574   2.515
66632W        W39057   8.790  29.141   3.092
66633W        W39058   8.477  14.688   0.755
66634W        W39059  20.239  11.804  10.274
66635W        W39060  27.962  26.513   0.514
66636W        W39061  22.306  37.637  13.466
66637W        W39062   4.475  30.175  12.447
66638W        W39063  40.910  43.427   4.492
66639W        W39064  35.027   8.194   1.180
66640W        W39065   0.044   2.688   2.279
66641W        W39066  14.572  31.038  12.487
66642W        W39067  13.645  22.130  11.892
66643W        W39068  27.291  34.550  13.423
66644W        W39069  37.290  35.510   3.200
66645W        W39070  28.162   6.758  14.552
66646W        W39071  34.563  14.708   1.959
66647W        W39072  14.070   9.716  10.611
66648W        W39073   6.796  31.999   1.104
66649W        W39074  20.704  37.650  14.240
66650W        W39075  21.252  28.129   3.041
66651W        W39076  36.572  35.781  10.359
66652W        W39077  11.806  24.562   1.391
66653W        W39078  40.389  29.588   0.368
66654W        W39079  44.515  21.534   3.158
66655W        W39080  37.985  28.601   0.856
66656W        W39081  35.083  20.126  12.988
66657W        W39082  33.503  40.426   3.138
66658W        W39083  33.483  25.934  14.917
66659W        W39084  26.403  20.053  11.006
66660W        W39085  24.605  39.380  14.728
66661W        W39086  17.233  28.496  14.312
66662W        W39087   5.211  11.684   2.945
66663W        W39088   8.654  29.112  14.302
66664W        W39089  32.511  19.023   4.151
66665W        W39090  32.011  19.486   2.831
66666W        W39091  23.419  26.368  10.020
66667W        W39092  34.107  40.961   0.463
66668W        W39093  29.159  26.679   4.306
66669W        W39094  37.568   1.501  12.463
66670W        W39095  40.305  32.101   2.074
66671W        W39096   9.365  17.527  13.420
66672W        W39097  40.577  41.880   3.571
66673W        W39098  12.924  15.795   2.857
66674W        W39099   4.722  30.448   3.408
66675W        W39100   7.174  33.652  13.286
66676W        W39101  25.244  12.716  13.985
66677W        W39102  21.722  25.890  11.835
66678W        W39103  29.905  13.221  14.502
66679W        W39104  14.984  12.193  14.260
66680W        W39105  16.553  12.818  14.555
66681W        W39106   6.549  21.448  12.512
66682W        W39107  42.480  22.529   3.790
66683W        W39108  17.801  36.882  12.999
66684W        W39109  10.209  31.571   1.778
66685W        W39110  13.131  34.485  10.481
66686W        W39111  31.665  19.203  11.438
66687W        W39112  10.769  11.697   2.321
66688W        W39113  28.092  30.166  13.543
66689W        W39114  35.061  12.445   0.058
66690W        W39115  15.820   7.711   3.238
66691W        W39116  25.916  36.490   4.583
66692W        W39117  30.407  36.013  14.354
66693W        W39118  19.417  30.849   0.330
66694W        W39119  36.564  31.068  10.770
66695W        W39120  37.089   2.766  14.872
66696W        W39121  20.174  40.647  14.811
66697W        W39122  21.291  39.319   4.913
66698W        W39123   6.756  37.653  12.441
66699W        W39124  35.079  11.802  13.823
66700W        W39125  20.758  42.867   3.115
66701W        W39126   6.701   9.129   2.306
66702W        W39127  30.439  11.880   1.545
66703W        W39128  41.576   7.379  13.483
66704W        W39129  38.870  24.211  14.446
66705W        W39130  27.619  21.442  10.672
66706W        W39131  30.081  37.485  11.663
66707W        W39132  38.865  27.243  12.192
66708W        W39133  15.053  17.703  13.964
66709W        W39134   1.169  37.754   0.326
66710W        W39135  40.902  38.020   1.228
66711W        W39136   7.750   7.917   2.841
66712W        W39137   9.674  35.650   2.257
66713W        W39138  31.990  28.483  13.521
66714W        W39139  13.127   4.901  12.160
66715W        W39140  19.560  19.986  13.447
66716W        W39141  20.525  33.092  14.686
66717W        W39142   4.326  43.264  12.914
66718W        W39143  29.451   4.406   3.651
66719W        W39144  21.079   0.305  14.531
66720W        W39145  23.803  38.490   1.760
66721W        W39146  26.973  32.056   5.442
66722W        W39147  42.281  42.520  13.548
66723W        W39148  32.689  31.351   3.687
66724W        W39149  19.488  43.870   4.044
66725W        W39150  40.500  34.002  12.847
66726W        W39151  30.988  10.377  10.631
66727W        W39152   9.286  29.288   4.453
66728W        W39153  30.620  18.995  11.658
66729W        W39154   9.718  37.770   1.345
66730W        W39155  37.366  41.256   0.459
66731W        W39156  31.244  41.904  14.408
66732W        W39157  20.793  28.188  14.431
66733W        W39158  12.098   2.415  14.962
66734W        W39159  29.618  16.580  11.297
66735W        W39160  41.628  22.598  10.212
66736W        W39161  13.495  24.954  13.965
66737W        W39162   6.633  40.469  12.823
66738W        W39163  23.160  14.106  13.518
66739W        W39164   2.776  21.758  12.450
66740W        W39165  39.516  34.802   2.760
66741W        W39166  27.599  13.688   0.395
66742W        W39167  31.644  26.594   2.823
66743W        W39168  28.879  43.480  14.403
66744W        W39169  30.243  21.592   4.503
66745W        W39170  30.868   4.397   0.300
66746W        W39171   4.006  13.711   2.740
66747W        W39172  41.083   9.459  14.318
66748W        W39173  12.766  35.905   3.073
66749W        W39174  35.419  40.589   4.164
66750W        W39175  10.696  23.822   2.296
66751W        W39176  41.476   8.442  10.748
66752W        W39177  35.597  39.937   1.829
66753W        W39178  29.873  22.674   4.620
66754W        W39179  31.164  17.510  13.054
66755W        W39180   6.920   9.813  14.746
66756W        W39181  10.796  20.572   2.972
66757W        W39182   5.837  19.884   1.405
66758W        W39183  19.654  21.802   2.758
66759W        W39184  24.329  28.583  12.394
66760W        W39185  39.945  20.592   1.165
66761W        W39186  39.858  19.662  12.491
66762W        W39187  36.067  12.263   3.921
66763W        W39188  16.936  33.463  13.380
66764W        W39189  31.337   5.150  13.794
66765W        W39190  12.658   3.027   4.014
66766W        W39191   1.241  12.341   4.052
66767W        W39192  29.965  37.848  14.249
66768W        W39193  41.093  19.186  14.483
66769W        W39194   8.730  34.585   5.129
66770W        W39195   2.460  26.555  11.106
66771W        W39196  22.183  37.148  13.617
66772W        W39197  15.043  30.701   2.325
66773W        W39198  17.493   7.765   0.459
66774W        W39199  13.332   1.494   1.323
66775W        W39200  21.145  44.634   4.635
66776W        W39201  31.845  33.273   3.438
66777W        W39202   7.635  23.521   0.821
66778W        W39203  14.067  20.118   0.750
66779W        W39204  40.647   7.938   3.713
66780W        W39205  40.335  42.742   1.411
66781W        W39206  24.344   2.996   1.456
66782W        W39207  28.255  38.519   2.453
66783W        W39208  25.616  24.437   2.193
66784W        W39209   1.535  34.915   1.524
66785W        W39210  27.905  43.470  11.973
66786W        W39211   4.658   2.048   1.955
66787W        W39212  10.875  24.083  12.492
66788W        W39213  44.317  21.531   4.958
66789W        W39214  43.332  40.943  14.212
66790W        W39215  10.777  18.397  13.024
66791W        W39216  38.928   5.379  14.474
66792W        W39217  41.346  12.639  13.758
66793W        W39218  21.839  38.011  10.675
66794W        W39219  41.444  24.004  14.233
66795W        W39220   9.737   7.730  12.508
66796W        W39221  37.491  31.106  11.687
66797W        W39222  40.778  43.460   1.286
66798W        W39223   0.646  17.030   1.303
66799W        W39224  20.274  24.730  14.322
66800W        W39225  35.759  20.835  13.514
66801W        W39226  44.864  12.009   3.381
66802W        W39227  29.774  31.011   2.274
66803W        W39228  23.031   4.563   0.872
66804W        W39229  14.489  39.233   0.475
66805W        W39230   2.351  30.713  10.888
66806W        W39231  24.608  12.748   1.071
66807W        W39232  23.814   6.734   4.187
66808W        W39233   6.394   0.641   4.652
66809W        W39234  19.399  30.669  14.813
66810W        W39235   6.277  17.064  10.575
66811W        W39236   1.337   0.213   3.662
66812W        W39237  35.623  40.373   0.279
66813W        W39238  17.777  35.637   3.548
66814W        W39239  21.680  41.728   3.211
66815W        W39240  17.214   8.741   0.304
66816W        W39241  31.631  35.685   1.147
66817W        W39242   8.296   4.549   4.224
66818W        W39243  43.932  43.038   3.772
66819W        W39244  32.871  43.910   3.739
66820W        W39245  36.155  44.148  10.732
66821W        W39246   2.356  30.196  13.591
66822W        W39247  14.182   0.539  13.853
66823W        W39248  41.816   4.003  13.301
66824W        W39249  18.230  38.957  12.943
66825W        W39250  39.042  29.563  10.593
66826W        W39251  27.062  35.941  11.066
66827W        W39252  40.909  14.810   4.641
66828W        W39253  38.208   1.787  12.864
66829W        W39254  37.115  23.986  11.170
66830W        W39255  32.990  29.842  13.424
66831W        W39256  44.497  24.741  14.327
66832W        W39257  38.531  32.884   1.193
66833W        W39258  36.401  12.020   2.419
66834W        W39259  18.815  26.558   4.056
66835W        W39260  32.847  12.632  12.903
66836W        W39261   1.265  26.542  10.404
66837W        W39262  40.594  21.230   1.901
66838W        W39263  23.551  25.174   2.332
66839W        W39264   1.730   6.275   3.307
66840W        W39265  42.536  24.970  13.671
66841W        W39266  44.939   8.172   4.213
66842W        W39267   9.747  11.439   3.867
66843W        W39268   5.428   4.721  10.838
66844W        W39269  12.625  29.461   4.187
66845W        W39270  27.029  17.940  11.135
66846W        W39271  16.800  36.321  12.430
66847W        W39272  15.997  34.909  11.661
66848W        W39273  41.328   5.275   3.724
66849W        W39274  13.280   8.792  10.128
66850W        W39275  21.912  14.520   3.577
66851W        W39276  29.186  34.439   3.289
66852W        W39277  43.563  34.881   3.619
66853W        W39278  18.414  11.717  12.092
66854W        W39279  37.059  13.214  12.413
66855W        W39280  14.781  13.337  13.319
66856W        W39281  32.214  27.409   4.131
66857W        W39282  23.213  22.576  11.133
66858W        W39283  21.085  38.977   4.130
66859W        W39284  40.492  33.393  11.619
66860W        W39285   3.825  22.550  14.373
66861W        W39286  14.413  40.283  12.671
66862W        W39287  17.275  15.347  14.584
66863W        W39288  43.686  42.295  13.482
66864W        W39289  43.408  39.467  12.520
66865W        W39290  24.129  39.534   2.340
66866W        W39291   0.260  19.110   1.859
66867W        W39292  27.010   0.271  12.844
66868W        W39293   8.459   6.916   3.306
66869W        W39294  24.869  15.183  10.988
66870W        W39295  16.234   3.159  12.993
66871W        W39296  31.297  21.129  14.599
66872W        W39297   1.900   3.404  10.654
66873W        W39298   2.319   9.787  12.977
66874W        W39299  22.625  27.678  11.948
66875W        W39300   1.675  37.775   0.339
66876W        W39301  22.162   3.295   4.571
66877W        W39302  43.492   4.927  13.472
66878W        W39303  21.073  26.936  14.396
66879W        W39304  27.589  29.351  12.316
66880W        W39305  24.782   3.023   1.146
66881W        W39306  37.040   6.681  13.405
66882W        W39307   2.828  24.698   1.638
66883W        W39308  13.724  17.758   4.601
66884W        W39309  29.581  18.259   4.772
66885W        W39310  18.976   8.881  14.671
66886W        W39311   4.019  40.355   2.855
66887W        W39312   6.184  33.554   3.615
66888W        W39313  25.408  41.861  11.949
66889W        W39314  12.902  35.483   4.152
66890W        W39315  12.044   7.071  13.335
66891W        W39316  37.084  22.309   0.311
66892W        W39317  11.844  21.694  11.904
66893W        W39318  23.517  19.090   2.221
66894W        W39319   3.960   3.282   0.915
66895W        W39320   6.699  12.182   3.349
66896W        W39321  13.353   3.394  13.828
66897W        W39322   2.236  18.398   1.678
66898W        W39323  15.567  24.942   1.407
66899W        W39324   9.648  29.431   2.773
66900W        W39325  30.689  19.985  14.322
66901W        W39326   8.249  13.297   4.678
66902W        W39327   3.024  19.310  10.731
66903W        W39328  44.290   6.635   0.900
66904W        W39329  20.056  26.279   1.361
66905W        W39330   5.893  36.402  14.790
66906W        W39331  32.579  29.223  14.002
66907W        W39332  26.530  17.189  14.026
66908W        W39333  29.878   0.433  10.675
66909W        W39334  26.555  29.567   2.278
66910W        W39335  11.850  14.663   1.672
66911W        W39336  23.444  16.588   2.496
66912W        W39337  31.337  34.629  11.987
66913W        W39338  38.014  27.129   4.070
66914W        W39339  42.779  20.160   5.155
66915W        W39340  16.689  35.918   1.145
66916W        W39341  17.227  23.705  11.027
66917W        W39342  25.816  38.029   4.693
66918W        W39343  40.955  27.587  12.106
66919W        W39344  28.349  39.424   0.435
66920W        W39345   7.858  18.798   2.314
66921W        W39346  35.874  11.252   0.606
66922W        W39347  11.345  43.986  11.101
66923W        W39348  42.900  15.356  11.719
66924W        W39349  16.648  39.144  13.212
66925W        W39350   0.687  19.591   2.861
66926W        W39351  22.493  20.115   0.457
66927W        W39352  37.434  33.528   5.399
66928W        W39353  27.943  15.105   3.801
66929W        W39354  44.882  27.362  14.977
66930W        W39355  29.131  34.796   0.788
66931W        W39356  22.766   0.247   4.941
66932W        W39357  40.245  32.841  14.959
66933W        W39358   3.289  20.523  13.630
66934W        W39359  29.163   8.313  14.921
66935W        W39360  34.482  26.046   4.314
66936W        W39361  44.859   7.617  12.444
66937W        W39362   6.970  41.974  10.744
66938W        W39363   4.692  41.807  12.473
66939W        W39364   5.225  28.864  10.776
66940W        W39365  43.384  18.421  13.949
66941W        W39366   1.528  29.028  12.416
66942W        W39367   8.856  18.555  14.402
66943W        W39368  37.332  16.812   2.694
66944W        W39369  38.318   7.357   1.267
66945W        W39370   7.731  19.318  11.539
66946W        W39371  39.419   4.858   4.503
66947W        W39372  35.381  31.114  13.335
66948W        W39373  40.880  20.506   3.599
66949W        W39374   0.923  38.982  12.190
66950W        W39375   8.908  24.530  12.954
66951W        W39376  16.069   6.389   1.439
66952W        W39377   6.884  31.879   3.064
66953W        W39378  14.902  11.569   4.985
66954W        W39379  29.618  29.895  11.962
66955W        W39380  39.459  41.489   1.582
66956W        W39381  21.458   3.884  12.547
66957W        W39382  34.609  26.754  11.807
66958W        W39383  29.201  36.104  10.741
66959W        W39384  34.441  20.157  10.553
66960W        W39385  21.941  25.249  12.399
66961W        W39386   0.816  40.495  14.781
66962W        W39387  17.682  37.105  13.467
66963W        W39388  15.845  10.547  14.494
66964W        W39389  25.010  21.001   1.862
66965W        W39390  36.362  31.598   1.917
66966W        W39391  22.971   5.456   1.895
66967W        W39392  42.942   1.851   4.602
66968W        W39393  12.116  38.501   4.492
66969W        W39394  25.269  14.184  13.832
66970W        W39395   4.981  31.901  12.992
66971W        W39396   1.799  11.120   0.683
66972W        W39397  37.400   6.401   1.196
66973W        W39398   9.197  24.549   0.561
66974W        W39399  36.932  38.244  14.290
66975W        W39400  16.140  18.753   4.297
66976W        W39401  15.417   1.684  12.876
66977W        W39402  24.680  44.687   0.976
66978W        W39403   4.954   4.436  14.744
66979W        W39404  17.238   0.791   5.042
66980W        W39405   2.342   7.993  11.925
66981W        W39406   2.882   8.813   4.987
66982W        W39407  20.398   2.834  13.852
66983W        W39408   4.374  17.654   4.877
66984W        W39409  23.251  36.240  13.039
66985W        W39410  41.972  10.554  13.241
66986W        W39411  41.416  24.191   2.133
66987W        W39412   5.636  42.561   0.939
66988W        W39413  30.575  32.919  11.857
66989W        W39414  10.739  21.084  13.269
66990W        W39415  38.380  22.110   1.310
66991W        W39416  19.845  28.570  13.994
66992W        W39417  18.962  43.421  13.175
66993W        W39418  14.829  40.419   2.760
66994W        W39419  21.751  38.630   4.563
66995W        W39420  35.058  28.500   2.241
66996W        W39421  38.044  16.543   4.901
66997W        W39422   4.837  17.679   4.111
66998W        W39423   3.208   2.776  11.789
66999W        W39424  15.115  14.742  12.398
67000W        W39425   6.139  33.667  11.307
67001W        W39426   7.350   5.838  11.599
67002W        W39427  27.814  42.236  12.409
67003W        W39428   8.364  33.831   1.795
67004W        W39429  16.710   3.716   2.949
67005W        W39430  26.981  39.896   4.292
67006W        W39431  22.722   3.041  11.192
67007W        W39432  11.082  43.217  13.085
67008W        W39433   8.778  15.432   4.630
67009W        W39434   8.772  41.398  11.584
67010W        W39435  20.972  40.538   0.344
67011W        W39436  20.199  39.985  10.706
67012W        W39437   5.460  34.936  11.546
67013W        W39438  20.591  18.602   1.700
67014W        W39439  39.240  20.987  11.510
67015W        W39440  15.182  34.859   0.421
67016W        W39441   5.893  21.987  11.175
67017W        W39442  20.624  36.830   2.801
67018W        W39443   4.375  20.018   0.501
67019W        W39444  13.516  42.533  10.696
67020W        W39445  12.606  10.016  11.169
67021W        W39446  11.613  29.946  13.898
67022W        W39447  19.219  44.941  14.824
67023W        W39448  16.331  35.142   5.203
67024W        W39449   6.193  31.749  14.363
67025W        W39450  36.014  18.695   2.765
67026W        W39451   0.277   0.302  11.249
67027W        W39452  33.130   6.276   1.147
67028W        W39453  39.861   6.904   3.913
67029W        W39454  18.571   7.965  13.415
67030W        W39455  27.584  11.396  14.403
67031W        W39456  12.209  37.134  13.458
67032W        W39457  42.837  18.859  10.612
67033W        W39458  43.286   8.574   2.779
67034W        W39459  34.660  11.774   4.867
67035W        W39460  21.516  25.084  13.962
67036W        W39461   7.840  33.304   1.357
67037W        W39462  14.651  23.935  14.533
67038W        W39463  34.503   8.145  12.169
67039W        W39464   6.571  23.111   3.752
67040W        W39465  44.964   6.760  12.046
67041W        W39466  12.136  32.427  10.198
67042W        W39467  26.054  18.753   2.831
67043W        W39468  41.368   0.595   3.331
67044W        W39469  15.203  24.268  13.073
67045W        W39470  39.058  41.139  11.742
67046W        W39471  10.429  32.087  11.561
67047W        W39472  18.599  24.083   2.855
67048W        W39473  30.177   2.719  14.347
67049W        W39474  37.531  36.244   2.782
67050W        W39475  43.965  30.153  13.321
67051W        W39476  34.807  33.033  11.687
67052W        W39477  14.334  30.582   1.796
67053W        W39478  25.829  24.469  14.745
67054W        W39479  24.737  34.216   1.966
67055W        W39480  31.656  26.914   0.421
67056W        W39481  15.828   0.712   0.356
67057W        W39482  30.507  27.751   1.844
67058W        W39483  41.685  35.028   2.474
67059W        W39484  39.032   9.678   2.374
67060W        W39485  13.608  14.567  14.329
67061W        W39486   6.870   1.129   1.289
67062W        W39487  22.532  10.677   1.228
67063W        W39488  15.663   9.831   1.794
67064W        W39489  36.748  10.871   2.805
67065W        W39490  32.200  23.156   1.910
67066W        W39491  28.481  24.014   9.606
67067W        W39492  20.936  20.575   1.758
67068W        W39493  42.908   5.662   0.336
67069W        W39494  24.000  28.424  13.841
67070W        W39495  17.616  42.290   0.339
67071W        W39496   6.888  18.557   1.949
67072W        W39497  15.243  12.848   2.199
67073W        W39498   8.893  16.646   1.292
67074W        W39499   1.786  24.960   1.253
67075W        W39500  14.026   8.239   1.562
67076W        W39501  35.169  36.324   1.263
67077W        W39502  16.915  26.202   1.612
67078W        W39503  35.031   6.869   4.991
67079W        W39504  14.324   9.438   4.585
67080W        W39505  20.957  38.511  12.625
67081W        W39506  25.252   9.359   0.889
67082W        W39507  32.386   0.771   4.103
67083W        W39508  28.451  18.236  12.036
67084W        W39509   6.841  43.900  14.704
67085W        W39510   6.312  13.303   2.828
67086W        W39511   4.310  37.368  12.823
67087W        W39512  13.607  35.119   2.296
67088W        W39513   9.672  22.490  11.974
67089W        W39514  24.412  37.787   0.457
67090W        W39515  43.533  38.801  13.348
67091W        W39516   5.966   0.965  13.913
67092W        W39517  39.446  43.471   0.960
67093W        W39518  32.016  22.487   2.117
67094W        W39519  29.521   9.710   4.040
67095W        W39520  37.318   3.656  11.992
67096W        W39521  30.139  43.850  12.092
67097W        W39522  33.459  15.600   0.334
67098W        W39523  20.325   5.130  14.476
67099W        W39524  17.540   4.235  11.347
67100W        W39525   8.741  18.327   1.331
67101W        W39526  16.662  41.254  11.097
67102W        W39527  40.077   9.745  11.968
67103W        W39528  14.535   1.760  11.126
67104W        W39529   0.933   7.702  11.952
67105W        W39530  34.413   3.465   3.272
67106W        W39531   5.240  40.750   0.378
67107W        W39532  35.403  11.545   2.273
67108W        W39533  44.743  23.065  12.800
67109W        W39534  21.065  17.070  12.604
67110W        W39535  33.562   5.827   9.906
67111W        W39536  28.198  16.302   0.814
67112W        W39537  30.152  10.130  12.044
67113W        W39538  13.316  22.061  11.057
67114W        W39539  17.855  25.437  10.685
67115W        W39540  28.936   6.274  12.363
67116W        W39541   0.937   4.280   2.245
67117W        W39542  18.200   5.875   4.612
67118W        W39543   2.514  35.869   1.736
67119W        W39544  19.625  41.323  11.837
67120W        W39545  27.663  37.423   1.393
67121W        W39546  35.483  41.550   0.688
67122W        W39547  37.557   7.124   1.880
67123W        W39548  29.125   0.166   3.465
67124W        W39549  24.124  43.131   5.198
67125W        W39550  39.378  15.791  11.610
67126W        W39551  32.590  37.581   4.190
67127W        W39552  11.570  12.600   3.872
67128W        W39553  12.215  38.012  14.742
67129W        W39554  13.153   8.927   4.589
67130W        W39555   4.508  26.203  14.842
67131W        W39556  28.179  40.332   3.853
67132W        W39557  27.882   0.094   1.269
67133W        W39558  30.147  14.884   3.742
67134W        W39559  33.182  29.708   4.054
67135W        W39560  23.760  29.456  13.425
67136W        W39561  33.109  13.349  13.514
67137W        W39562  43.477  10.695   3.278
67138W        W39563  22.120  25.680   3.592
67139W        W39564   6.165  35.598   3.247
67140W        W39565  39.586  44.634  12.557
67141W        W39566  34.617   3.216  11.200
67142W        W39567  21.564   8.290   4.174
67143W        W39568  15.475   7.093   1.937
67144W        W39569   9.145  11.334   1.769
67145W        W39570   5.274  26.627   4.572
67146W        W39571  22.867  29.598   0.826
67147W        W39572  20.200  16.787   2.200
67148W        W39573  18.996  23.715  10.782
67149W        W39574  29.030   2.438  11.604
67150W        W39575  39.421   7.057  13.506
67151W        W39576   4.654  14.155  14.248
67152W        W39577   3.403   7.238  11.529
67153W        W39578  35.643  32.879  11.954
67154W        W39579  20.857  21.496  14.624
67155W        W39580  29.944  20.225  11.249
67156W        W39581  38.307   7.910  11.691
67157W        W39582   1.817  15.302  11.508
67158W        W39583  21.047  12.085   2.351
67159W        W39584  26.257  27.555   4.931
67160W        W39585   1.953  41.349   3.645
67161W        W39586  20.793  30.095  13.459
67162W        W39587   6.140  27.436   1.856
67163W        W39588  30.184   0.815  14.024
67164W        W39589  25.151  25.920  10.943
67165W        W39590  22.228  21.619   4.659
67166W        W39591  28.029  31.505   5.425
67167W        W39592  42.954  10.737   3.158
67168W        W39593  15.779  11.675  13.295
67169W        W39594   0.069  27.484   3.983
67170W        W39595  25.189  39.104   2.731
67171W        W39596  31.890  42.731   2.272
67172W        W39597  43.694  31.021   2.576
67173W        W39598  40.808   8.384  11.181
67174W        W39599  32.140   2.132  12.947
67175W        W39600  18.750  29.905  11.563
67176W        W39601  16.360  18.050   0.834
67177W        W39602   5.176   8.694   5.259
67178W        W39603  17.852  13.176  12.341
67179W        W39604  11.216  15.320   1.780
67180W        W39605  27.307  17.058  12.551
67181W        W39606  38.974   7.896   0.452
67182W        W39607  39.415   9.220  12.245
67183W        W39608  33.958  32.391  10.894
67184W        W39609  26.027   4.712  10.970
67185W        W39610  38.036  27.713  10.238
67186W        W39611   6.186   6.326  11.594
67187W        W39612   5.735  38.003   0.337
67188W        W39613  42.010  10.739   2.656
67189W        W39614  19.133  33.616   3.171
67190W        W39615   8.757  17.799   1.424
67191W        W39616   5.749  25.510   3.349
67192W        W39617  37.999  35.547  12.240
67193W        W39618  27.580  32.473  11.556
67194W        W39619  34.552  10.617   4.155
67195W        W39620  19.810   9.850   1.861
67196W        W39621  16.062   8.375  14.883
67197W        W39622  17.039  10.288   3.678
67198W        W39623  26.912  34.021   0.472
67199W        W39624  38.140  20.520   2.126
67200W        W39625   8.165  38.348  13.676
67201W        W39626  21.667  20.496   4.529
67202W        W39627  37.929  14.669  14.284
67203W        W39628  34.430  14.214  10.631
67204W        W39629   8.781  38.408  12.951
67205W        W39630  13.929  26.897   3.305
67206W        W39631  17.773  25.219   2.783
67207W        W39632  11.864  38.496  10.701
67208W        W39633   6.445  27.955  12.854
67209W        W39634  11.422  29.701   0.727
67210W        W39635  27.001  23.993   0.491
67211W        W39636  27.495  29.419  10.982
67212W        W39637  25.541  44.933  10.662
67213W        W39638  14.277  39.277  14.452
67214W        W39639  12.361  11.731  10.739
67215W        W39640  27.759  37.073  10.710
67216W        W39641  16.740  30.534  13.348
67217W        W39642  20.923  25.003  10.365
67218W        W39643   1.003   7.389   0.874
67219W        W39644  29.548  39.264  10.911
67220W        W39645   7.011   6.417   3.648
67221W        W39646   9.628  32.970  13.948
67222W        W39647   8.391  40.858  12.480
67223W        W39648  26.689  38.188   2.745
67224W        W39649  34.008  15.615  14.568
67225W        W39650  18.611   5.014  10.982
67226W        W39651  23.111  11.613   3.161
67227W        W39652  17.256  24.480   4.085
67228W        W39653  37.301  38.326   3.743
67229W        W39654  39.342   4.394  10.909
67230W        W39655  31.881  36.354  12.599
67231W        W39656  28.646  33.656  10.471
67232W        W39657  23.238  21.647   2.284
67233W        W39658   6.189  27.176  11.563
67234W        W39659   6.184   4.425   4.283
67235W        W39660   3.252  29.954   1.295
67236W        W39661  35.368  12.611   4.230
67237W        W39662   5.224   6.239   4.389
67238W        W39663  37.115  42.405   1.687
67239W        W39664  13.434  24.685  12.524
67240W        W39665  44.577  13.291   4.247
67241W        W39666  19.073   5.769   2.144
67242W        W39667  19.013  23.346  13.896
67243W        W39668  34.122  33.310  10.991
67244W        W39669   3.374  24.965  11.581
67245W        W39670   0.979   9.256   2.377
67246W        W39671  20.633  17.584   3.366
67247W        W39672  38.719  37.474   1.681
67248W        W39673  23.567  37.549   3.175
67249W        W39674  10.348  33.033  14.526
67250W        W39675  28.974  25.614  14.975
67251W        W39676   8.191  16.781   0.749
67252W        W39677  27.867  17.084   0.927
67253W        W39678  31.141  23.082   4.530
67254W        W39679   7.671  23.820  10.656
67255W        W39680  15.155   6.930  12.157
67256W        W39681  36.028  42.277  14.326
67257W        W39682  38.250  35.919  12.499
67258W        W39683  14.100  41.410   1.241
67259W        W39684  20.576  39.962   3.857
67260W        W39685   6.598  14.601   2.359
67261W        W39686  20.814  30.461   4.276
67262W        W39687  36.794   2.692  13.831
67263W        W39688  15.945  34.518   4.994
67264W        W39689  16.729  31.376  12.982
67265W        W39690  37.256   8.744   2.389
67266W        W39691  16.157  41.429  12.021
67267W        W39692  41.922  44.695  12.611
67268W        W39693  19.495   0.491  13.904
67269W        W39694  22.491   9.248   4.615
67270W        W39695  28.182  41.590   5.453
67271W        W39696  25.130   3.667  12.512
67272W        W39697  42.333  25.183  12.656
67273W        W39698  29.696  31.269   5.054
67274W        W39699  40.979  44.504   4.566
67275W        W39700  19.748   5.790  13.553
67276W        W39701  19.126   4.960   3.857
67277W        W39702  37.488   9.467  12.905
67278W        W39703  23.484  31.552   2.708
67279W        W39704  10.513  39.955   3.791
67280W        W39705  11.320   2.416  12.799
67281W        W39706  21.454  29.305   0.919
67282W        W39707  38.745  24.483   2.898
67283W        W39708  28.913  18.334   1.786
67284W        W39709  24.672  29.205   4.648
67285W        W39710  42.022  24.480   3.719
67286W        W39711  36.555   1.500  11.236
67287W        W39712  38.893  23.847  11.553
67288W        W39713  19.807  32.564   0.931
67289W        W39714  24.343   7.707  10.490
67290W        W39715  15.533   4.886  13.436
67291W        W39716   2.930  37.877  11.453
67292W        W39717   2.314  31.435  12.566
67293W        W39718  43.342  15.958  10.617
67294W        W39719  13.800  27.257  13.926
67295W        W39720  44.882  12.715   4.167
67296W        W39721   9.600  36.916   4.092
67297W        W39722  20.594  21.629  12.371
67298W        W39723  22.626  32.100  10.674
67299W        W39724  33.114  34.460   0.279
67300W        W39725   5.966  11.059  13.508
67301W        W39726   8.168  11.388   3.176
67302W        W39727  18.951  24.033  12.376
67303W        W39728  10.716  11.298  13.075
67304W        W39729   6.762  16.357   0.444
67305W        W39730  36.004  18.544   4.776
67306W        W39731  23.962  39.354   1.841
67307W        W39732  21.074  17.011  14.278
67308W        W39733  11.154  42.529  13.452
67309W        W39734  40.409  14.324  11.178
67310W        W39735  24.504  43.258   0.991
67311W        W39736  31.299  43.927  13.518
67312W        W39737  42.281  34.060   1.138
67313W        W39738  37.741  20.570  14.452
67314W        W39739  36.549   8.814  12.419
67315W        W39740   5.102   2.487   0.839
67316W        W39741  41.918  16.810  10.774
67317W        W39742  17.242  38.400   2.344
67318W        W39743  38.125   7.569   2.830
67319W        W39744  23.561  11.250   1.742
67320W        W39745  15.984  19.936  10.722
67321W        W39746  25.055  27.754  13.058
67322W        W39747  24.502  26.347  14.288
67323W        W39748  44.876  29.974   1.383
67324W        W39749  40.435  34.368   2.529
67325W        W39750  39.860  44.358   1.868
67326W        W39751  37.430  23.536  10.922
67327W        W39752  26.075   9.907   4.126
67328W        W39753   3.821  29.889   4.172
67329W        W39754   5.789  41.757   4.608
67330W        W39755  16.324  35.684   5.544
67331W        W39756   2.926  36.918  11.634
67332W        W39757   2.544  29.232  13.339
67333W        W39758  40.421  19.060   1.333
67334W        W39759  18.432   0.827  11.735
67335W        W39760  34.104  25.957   3.976
67336W        W39761   4.373   8.936  13.893
67337W        W39762  14.287  41.823  10.555
67338W        W39763  22.639  41.351  13.161
67339W        W39764  14.303  27.529  12.929
67340W        W39765  44.788  16.797  11.539
67341W        W39766   4.898  24.258  10.760
67342W        W39767  27.701  22.411   0.934
67343W        W39768  19.243  17.090  13.828
67344W        W39769  22.728  22.753  11.112
67345W        W39770  19.018  30.093  12.136
67346W        W39771   8.357  43.811   4.306
67347W        W39772  37.064   6.573   4.728
67348W        W39773  22.504  38.340  10.559
67349W        W39774   6.382   2.883   1.244
67350W        W39775  43.287  24.049   3.166
67351W        W39776   3.775  32.257  10.695
67352W        W39777  11.180  22.986   5.186
67353W        W39778  15.133   0.556   3.107
67354W        W39779  24.356  16.271  12.023
67355W        W39780  37.886   4.787   2.587
67356W        W39781  34.964  28.614  13.462
67357W        W39782  17.156   6.443  14.887
67358W        W39783  15.593   9.807   2.678
67359W        W39784   1.906  17.322   2.358
67360W        W39785  22.243  29.390  11.064
67361W        W39786  18.051   2.821   1.908
67362W        W39787  39.977  25.263   4.181
67363W        W39788  14.836  43.464  10.682
67364W        W39789  20.105   2.797   4.340
67365W        W39790  20.634  10.333  14.436
67366W        W39791  31.382   0.318  13.200
67367W        W39792   6.957   4.783  11.131
67368W        W39793  11.563   4.740   1.430
67369W        W39794  14.127  28.050  10.648
67370W        W39795  16.661  41.538   1.348
67371W        W39796  42.860  16.966   0.970
67372W        W39797  40.028  27.141   2.629
67373W        W39798  26.450  11.844   0.723
67374W        W39799  38.349  33.039   3.853
67375W        W39800  18.540  21.726   4.492
67376W        W39801   9.222   7.316   0.303
67377W        W39802  34.693  22.020   1.169
67378W        W39803  10.864   7.677   2.124
67379W        W39804   1.967  40.360   2.845
67380W        W39805  25.198  35.128  10.955
67381W        W39806  20.521  25.938  12.142
67382W        W39807  19.228  34.162   0.322
67383W        W39808  12.856   2.949  13.448
67384W        W39809  31.263   7.937  13.268
67385W        W39810   9.540   8.140   3.763
67386W        W39811  26.158  11.905  14.364
67387W        W39812  31.708  27.591  13.430
67388W        W39813  31.056  20.746   3.809
67389W        W39814   4.754  32.161  10.568
67390W        W39815   1.238  43.050   3.451
67391W        W39816  11.873  40.811  10.220
67392W        W39817  15.604  25.721   4.545
67393W        W39818  23.404  20.191  13.366
67394W        W39819  39.497  30.170   4.145
67395W        W39820  36.925   7.656   3.381
67396W        W39821  32.504   4.455   0.478
67397W        W39822  41.511  34.503  13.422
67398W        W39823   7.503  37.626   3.738
67399W        W39824  38.420  43.309  13.064
67400W        W39825   4.355  42.749   5.085
67401W        W39826  27.179   7.263   2.730
67402W        W39827   2.435  39.948  13.175
67403W        W39828  30.051  38.250   3.628
67404W        W39829  23.947  35.958   3.090
67405W        W39830  13.913  36.373   2.767
67406W        W39831  22.502  13.196  13.421
67407W        W39832  32.539  18.962  13.455
67408W        W39833  27.685  28.671   3.820
67409W        W39834  41.075  30.297  14.931
67410W        W39835   4.143  33.477  14.989
67411W        W39836   8.661  41.121   2.164
67412W        W39837   5.895  35.404   1.895
67413W        W39838  31.124  36.044   2.147
67414W        W39839   2.825  28.003   0.917
67415W        W39840   5.334  20.153  14.639
67416W        W39841  29.653  27.668  14.281
67417W        W39842  37.295   3.256   4.498
67418W        W39843  35.438  22.753  11.561
67419W        W39844  42.033  28.442  11.176
67420W        W39845  44.409  17.867   0.779
67421W        W39846  25.516  30.660   3.588
67422W        W39847  16.831  24.273   0.103
67423W        W39848   5.310   9.649  10.567
67424W        W39849  27.085   3.855   3.634
67425W        W39850  42.932  33.809  11.203
67426W        W39851   3.932  22.715   0.840
67427W        W39852  16.406  34.712   4.097
67428W        W39853  31.005  34.796  10.574
67429W        W39854  14.315  43.574  12.914
67430W        W39855  36.376  14.085   1.701
67431W        W39856  34.085   3.916   0.222
67432W        W39857  25.140  33.714   1.362
67433W        W39858  12.787   3.366  13.846
67434W        W39859  38.105  24.126  12.372
67435W        W39860  14.072  23.635  12.542
67436W        W39861   8.452  20.995  10.655
67437W        W39862  35.548   1.962   2.250
67438W        W39863   1.244  32.146   2.202
67439W        W39864  18.256  10.902  11.408
67440W        W39865   2.906   4.012  13.581
67441W        W39866  25.885  13.409  12.885
67442W        W39867   7.493  40.551  10.956
67443W        W39868  37.129   1.427  14.430
67444W        W39869  18.524  41.337  10.805
67445W        W39870  16.151  31.530   1.968
67446W        W39871  27.266  35.160   2.221
67447W        W39872  38.925  15.728  13.549
67448W        W39873   4.201   4.947   2.443
67449W        W39874  10.361  35.073   4.245
67450W        W39875  40.384   9.892  14.948
67451W        W39876  37.056  34.866  14.389
67452W        W39877  16.565   6.541   0.937
67453W        W39878  20.010  43.419  14.339
67454W        W39879  23.551   8.493  11.233
67455W        W39880  43.911  21.495   9.847
67456W        W39881  23.241  22.650  13.456
67457W        W39882  18.806  32.631   0.752
67458W        W39883  16.285   0.170  12.500
67459W        W39884   4.760  11.551   5.010
67460W        W39885   7.193  34.181   2.731
67461W        W39886   5.447  22.610  13.297
67462W        W39887  31.387   0.605   0.866
67463W        W39888  44.859  30.504   2.079
67464W        W39889  19.086  18.073  14.731
67465W        W39890  37.921   6.621   1.277
67466W        W39891  43.467   8.971  10.812
67467W        W39892   6.773  25.449   1.927
67468W        W39893  28.601  32.063  12.907
67469W        W39894  25.831  20.747  10.646
67470W        W39895  32.674  15.620   3.289
67471W        W39896  28.063  28.620   4.178
67472W        W39897  12.639  12.253   3.144
67473W        W39898  22.170  14.452  10.668
67474W        W39899  12.190  19.400  10.359
67475W        W39900   5.195   4.383   3.366
67476W        W39901  43.498  10.271   0.027
67477W        W39902  41.530  31.217  14.742
67478W        W39903  19.590  37.024   2.341
67479W        W39904  39.495  25.454  13.414
67480W        W39905   5.781  25.724   2.321
67481W        W39906   1.104  37.607  14.833
67482W        W39907  37.913   8.284   4.107
67483W        W39908  22.210  37.841  14.488
67484W        W39909  36.172  39.766   0.059
67485W        W39910  42.011  27.777  13.835
67486W        W39911  38.656   9.324  10.967
67487W        W39912  13.295  33.268   3.962
67488W        W39913   2.246  44.147  11.482
67489W        W39914   9.188  26.972   4.126
67490W        W39915  37.820   6.844   4.163
67491W        W39916  17.324  33.211   4.118
67492W        W39917  10.417  30.168   2.886
67493W        W39918  11.692  32.918   2.704
67494W        W39919   0.351  18.520  14.813
67495W        W39920  12.566  30.449   2.361
67496W        W39921  41.453  40.287   1.249
67497W        W39922  41.991   9.949   2.202
67498W        W39923  12.293  28.508   4.698
67499W        W39924  37.969   7.709   1.381
67500W        W39925  13.539  41.637   4.123
67501W        W39926  20.841  17.068   0.945
67502W        W39927  39.241   0.229  12.942
67503W        W39928  15.038  33.119   3.098
67504W        W39929  29.254  38.581  12.640
67505W        W39930  16.771  19.980  14.969
67506W        W39931  38.400  15.565  13.637
67507W        W39932  12.633   2.699  12.089
67508W        W39933  43.437  17.950   0.184
67509W        W39934  11.019  30.716   2.334
67510W        W39935  37.851  23.053  12.342
67511W        W39936  32.377  18.164  14.218
67512W        W39937   6.993  40.474  11.041
67513W        W39938  34.572  21.834  11.555
67514W        W39939   8.166  36.070   0.461
67515W        W39940  28.510  35.958   0.395
67516W        W39941  35.107  21.908  11.766
67517W        W39942   8.624   7.795   1.443
67518W        W39943  27.189   7.738   3.656
67519W        W39944  36.898  20.250  10.700
67520W        W39945  24.282  29.803   4.236
67521W        W39946  39.774  29.550   1.361
67522W        W39947   4.892  42.576   1.282
67523W        W39948  19.196  24.124   4.511
67524W        W39949  22.704  44.879  11.667
67525W        W39950   0.775  36.155  12.044
67526W        W39951  10.331  13.342   4.582
67527W        W39952  13.841   6.196  11.985
67528W        W39953  29.099   9.157   2.368
67529W        W39954  38.525   9.192   3.155
67530W        W39955  21.945  39.060  13.073
67531W        W39956  44.035   7.713  10.852
67532W        W39957  31.479  32.652  14.370
67533W        W39958  18.060  41.985  10.954
67534W        W39959   5.172  18.646   2.756
67535W        W39960  16.173  31.948   5.494
67536W        W39961  11.256  10.375  13.228
67537W        W39962   9.254  15.322  13.780
67538W        W39963  40.781  27.549  14.050
67539W        W39964  20.050  27.458   4.139
67540W        W39965  17.705   0.032  14.395
67541W        W39966  34.839  39.043   3.195
67542W        W39967  31.339   9.657   4.064
67543W        W39968  21.244  15.661  12.924
67544W        W39969  38.544  26.456   1.907
67545W        W39970   6.629  29.436  12.850
67546W        W39971   1.604  13.550  14.475
67547W        W39972  34.608  35.864  14.894
67548W        W39973  38.889  10.839  12.482
67549W        W39974  21.363  39.950  13.430
67550W        W39975  39.489  11.573  12.509
67551W        W39976  30.326  20.366  13.906
67552W        W39977  24.533  15.383  14.865
67553W        W39978  35.081  34.014  12.844
67554W        W39979  43.333  30.914   1.160
67555W        W39980  10.282  28.011  14.287
67556W        W39981   4.350  40.527   3.247
67557W        W39982   2.945  28.122   3.968
67558W        W39983  37.512  30.472  12.125
67559W        W39984  44.951  17.564  10.575
67560W        W39985  44.955  17.052  10.378
67561W        W39986  18.551  19.606  14.764
67562W        W39987  22.460  41.887   2.729
67563W        W39988  13.177  23.539   3.254
67564W        W39989   8.571  30.709   0.675
67565W        W39990  10.587  34.857   1.495
67566W        W39991  24.732   4.852  10.496
67567W        W39992   6.864   8.245  14.357
67568W        W39993  41.129   8.987   3.860
67569W        W39994  13.576  10.275  14.473
67570W        W39995  12.585  23.458   4.215
67571W        W39996  13.629  14.171   1.706
67572W        W39997  31.921  11.818  14.965
67573W        W39998  13.292   0.542  13.819
67574W        W39999  43.947  14.523  11.586
67575W        W40000   8.417  25.688  14.900
67576W        W40001  22.562  36.354   1.289
67577W        W40002   0.437  30.738   4.199
67578W        W40003   1.915  43.749   4.893
67579W        W40004  23.113  13.288  14.419
67580W        W40005  42.415  10.247  13.352
67581W        W40006   2.865  29.092  12.879
67582W        W40007   3.770  44.283   3.883
67583W        W40008  22.774  14.591   3.463
67584W        W40009   3.800   0.119   3.241
67585W        W40010   4.956   7.636   2.738
67586W        W40011  44.684  32.035   2.122
67587W        W40012  25.742   5.477  11.911
67588W        W40013  42.228  37.854  13.403
67589W        W40014   2.182   9.463   3.822
67590W        W40015  43.513   2.289   0.979
67591W        W40016  42.874  16.260   4.939
67592W        W40017  38.040  33.016   2.332
67593W        W40018  13.201   6.357   3.395
67594W        W40019  26.564  20.519   4.174
67595W        W40020  37.005  22.917  12.522
67596W        W40021  36.004  14.724   3.752
67597W        W40022  39.085  29.469   2.143
67598W        W40023   0.665  29.100  12.155
67599W        W40024  17.249   6.211  13.873
67600W        W40025  31.163  10.302   0.022
67601W        W40026  13.936  18.843   0.228
67602W        W40027   9.920  36.295  12.881
67603W        W40028  38.072  27.984   0.068
67604W        W40029  37.114  42.500   2.204
67605W        W40030  23.751   3.925   2.857
67606W        W40031  12.356  27.314  12.963
67607W        W40032  39.339  18.670  14.300
67608W        W40033  11.393  31.650   0.274
67609W        W40034  26.247  19.160  11.591
67610W        W40035  39.558   8.843   2.316
67611W        W40036   4.429  43.933   4.542
67612W        W40037   6.837  14.647   0.221
67613W        W40038  13.914  40.924   0.537
67614W        W40039  10.655  38.702   4.358
67615W        W40040  10.837  17.799  12.178
67616W        W40041   9.407   3.765   0.831
67617W        W40042  15.279   4.255  13.157
67618W        W40043  32.023  36.789   5.234
67619W        W40044  35.335  37.341   4.047
67620W        W40045  38.486   6.230  10.670
67621W        W40046  22.040  13.494  13.451
67622W        W40047  34.155  29.817  14.744
67623W        W40048  39.011   4.231  14.451
67624W        W40049  38.473  23.556  11.381
67625W        W40050  18.652   2.174  14.388
67626W        W40051   4.286  12.533   2.951
67627W        W40052  10.351  27.465  14.968
67628W        W40053  24.248  13.884  10.655
67629W        W40054  42.068  44.966   1.005
67630W        W40055  10.473  21.580  11.519
67631W        W40056  22.258  36.526  11.997
67632W        W40057  17.253  17.268  10.917
67633W        W40058  23.015   2.811   0.649
67634W        W40059  43.272  30.188   3.571
67635W        W40060  26.369  29.903  11.511
67636W        W40061   5.891   4.993   0.332
67637W        W40062  16.950  22.553  11.029
67638W        W40063  23.274  13.372   3.106
67639W        W40064  19.064  21.151  14.462
67640W        W40065   3.706  14.802   1.263
67641W        W40066  37.430  42.089  13.431
67642W        W40067  15.701  43.413  10.974
67643W        W40068  37.967  18.280   3.204
67644W        W40069  40.843  22.469  12.102
67645W        W40070   6.340  11.127   2.052
67646W        W40071  42.293  28.688   3.538
67647W        W40072   0.623  43.791   3.028
67648W        W40073  44.269  44.286   4.196
67649W        W40074  42.503  40.782   0.219
67650W        W40075  38.989  23.537   2.776
67651W        W40076  10.749   8.441  10.509
67652W        W40077  31.251   3.155  12.133
67653W        W40078  21.280   5.437  14.359
67654W        W40079  12.842  26.713  13.950
67655W        W40080   4.172   0.417  12.575
67656W        W40081  34.367  39.631   4.575
67657W        W40082  12.154   6.940  11.382
67658W        W40083  39.963  26.660  14.579
67659W        W40084   0.782  38.845  10.431
67660W        W40085  18.176  22.141  11.982
67661W        W40086  27.288  27.171  13.892
67662W        W40087  42.276  41.861   2.840
67663W        W40088  37.721   1.620   5.190
67664W        W40089   4.300   4.885  13.910
67665W        W40090  13.805   6.972   2.765
67666W        W40091  44.799   1.737  11.882
67667W        W40092  29.865  15.687  14.390
67668W        W40093  40.828  22.572   2.157
67669W        W40094   1.735  34.592  13.340
67670W        W40095   8.921   6.842   1.963
67671W        W40096  16.886  15.684  14.819
67672W        W40097  30.198   2.839   1.946
67673W        W40098  33.525  23.944  11.413
67674W        W40099  38.712  26.341   0.169
67675W        W40100  30.952   3.363   0.453
67676W        W40101  37.313  37.416   1.469
67677W        W40102  41.534   0.774  11.150
67678W        W40103  38.546  39.917  12.575
67679W        W40104  32.395  36.428  10.619
67680W        W40105  36.396   3.702  12.050
67681W        W40106  41.757   8.013  11.528
67682W        W40107  15.907  35.400   3.620
67683W        W40108  23.560  37.107   2.910
67684W        W40109  41.379  35.060  13.023
67685W        W40110  40.181  28.644  14.993
67686W        W40111  34.353  14.672  10.896
67687W        W40112   8.517  32.148   2.871
67688W        W40113   9.733  10.825  10.355
67689W        W40114  29.554  16.691  10.799
67690W        W40115  11.247  22.748  12.730
67691W        W40116   6.277  25.515  10.371
67692W        W40117   0.189  31.893  10.196
67693W        W40118  25.297   4.483   4.929
67694W        W40119  43.514  20.267   3.046
67695W        W40120   8.689   7.203   0.261
67696W        W40121   8.466   9.279  12.136
67697W        W40122  42.032  39.886   1.767
67698W        W40123  23.231  18.252   0.450
67699W        W40124  28.624  30.567  10.577
67700W        W40125  41.408  15.273   1.277
67701W        W40126  26.017  20.745  13.038
67702W        W40127   6.139  27.714   0.878
67703W        W40128  11.392  16.074  14.822
67704W        W40129  22.709  19.964  10.703
67705W        W40130   1.027  25.963   4.625
67706W        W40131  42.570  16.832   3.112
67707W        W40132   9.858  36.071  13.345
67708W        W40133  20.871  33.555  14.997
67709W        W40134  14.154  14.114   4.758
67710W        W40135  34.497  29.234  11.505
67711W        W40136  24.249  39.421  11.061
67712W        W40137  23.490   9.769   9.738
67713W        W40138  37.285   6.389   3.625
67714W        W40139  26.573   0.651  12.832
67715W        W40140   8.220  39.349   2.625
67716W        W40141  17.829  26.586  13.824
67717W        W40142  27.306  16.817   2.760
67718W        W40143  44.358  20.891  11.486
67719W        W40144  28.425  28.687  13.430
67720W        W40145   6.157  42.290  14.088
67721W        W40146  15.554  43.360  12.896
67722W        W40147  22.433  13.595  12.756
67723W        W40148  44.868   8.758  14.378
67724W        W40149  11.889  40.613   1.173
67725W        W40150  27.705  42.895   1.066
67726W        W40151  34.505  16.215   4.569
67727W        W40152  36.472  16.089  10.891
67728W        W40153  27.947   9.401   4.923
67729W        W40154   8.415   0.568   0.194
67730W        W40155  40.893  35.882   0.159
67731W        W40156  19.184  40.665   2.803
67732W        W40157  36.949  18.815   0.984
67733W        W40158  28.932  31.919   1.845
67734W        W40159  21.358  36.725   1.833
67735W        W40160  12.199  39.610  12.284
67736W        W40161  15.135  38.511   0.300
67737W        W40162  18.900  10.272  12.060
67738W        W40163   8.756  26.085   4.424
67739W        W40164  34.367  26.557   0.801
67740W        W40165  13.387  36.565  14.985
67741W        W40166  42.328  16.110   0.418
67742W        W40167  22.037   0.792  12.073
67743W        W40168  20.695  32.881  11.124
67744W        W40169  20.104   4.097   3.674
67745W        W40170  31.216   0.000  13.784
67746W        W40171  40.309  19.685  13.350
67747W        W40172  14.492  41.221   4.955
67748W        W40173  15.173  16.803  12.385
67749W        W40174  33.599  44.500   0.942
67750W        W40175  40.971  20.054   0.873
67751W        W40176  26.750   6.139  12.064
67752W        W40177  23.327  23.592  14.317
67753W        W40178  13.229  13.099  10.438
67754W        W40179  42.403   7.750  14.561
67755W        W40180  11.653  11.100   3.031
67756W        W40181  40.994  13.190   0.916
67757W        W40182  37.802  34.952   1.798
67758W        W40183  40.162  27.647   4.187
67759W        W40184   8.110   8.429   4.613
67760W        W40185   6.012  43.002  12.513
67761W        W40186  17.800  35.149  11.640
67762W        W40187  30.923  40.897   2.382
67763W        W40188   3.470  18.648   1.531
67764W        W40189  30.408   1.438   0.839
67765W        W40190  31.387  30.198  10.898
67766W        W40191  11.311  39.829   1.691
67767W        W40192  19.466   2.248   1.778
67768W        W40193  30.485  31.878  10.474
67769W        W40194  15.561  35.785   4.485
67770W        W40195   7.220  33.052   2.933
67771W        W40196  21.740   7.181  12.412
67772W        W40197  35.586   2.834   2.296
67773W        W40198  15.170  15.689   4.574
67774W        W40199  28.850  19.599  12.132
67775W        W40200  18.192  28.908   0.452
67776W        W40201  14.878  11.166  13.867
67777W        W40202   3.775  34.847  14.920
67778W        W40203  18.177   5.335   3.884
67779W        W40204  12.293  27.692   2.872
67780W        W40205  27.004  44.886  12.205
67781W        W40206  15.542  26.696   3.759
67782W        W40207   3.644  21.709   1.534
67783W        W40208  32.676  38.062  13.929
67784W        W40209  29.640  41.437  10.030
67785W        W40210  41.400  25.079  13.142
67786W        W40211  32.351  32.983  14.878
67787W        W40212  24.723  20.148   4.642
67788W        W40213  29.170  32.550   3.365
67789W        W40214  10.158  11.813  12.401
67790W        W40215   6.593  28.130  14.206
67791W        W40216  31.397  42.485  14.196
67792W        W40217  39.723  28.984  11.581
67793W        W40218  32.706  14.239   1.784
67794W        W40219  44.193   6.716   5.042
67795W        W40220  16.025  16.681   1.338
67796W        W40221  27.201  19.981   1.840
67797W        W40222   4.125  33.306  14.459
67798W        W40223  20.108  37.181  10.944
67799W        W40224   2.178  21.040   4.580
67800W        W40225  23.039  18.778   1.269
67801W        W40226  37.922  39.868   1.296
67802W        W40227  29.487  40.740  11.227
67803W        W40228  22.316   9.742   1.815
67804W        W40229  16.642  11.590   2.655
67805W        W40230  10.814  29.111   1.231
67806W        W40231   9.422   0.040  13.610
67807W        W40232   9.354  42.022  10.983
67808W        W40233  22.653  21.788   2.858
67809W        W40234  43.478  35.458  14.416
67810W        W40235   7.366   1.681  13.870
67811W        W40236  35.801  44.403  12.433
67812W        W40237  31.437   6.874   0.992
67813W        W40238  27.525  20.022   0.498
67814W        W40239  40.999   2.529   3.176
67815W        W40240  10.597   7.868  14.220
67816W        W40241   9.730  29.094  13.485
67817W        W40242  35.698  42.011  12.994
67818W        W40243  16.417  38.022  14.924
67819W        W40244  25.786  31.365   0.277
67820W        W40245  11.778  42.213   3.093
67821W        W40246  35.007  15.230  10.437
67822W        W40247  15.710  38.961  12.163
67823W        W40248  12.680   8.651  13.244
67824W        W40249  41.537  15.349   2.252
67825W        W40250   2.090  24.453   5.197
67826W        W40251  42.336   7.693   3.161
67827W        W40252  37.505  32.122  14.849
67828W        W40253  12.431  32.119  13.827
67829W        W40254  19.687   7.619   4.193
67830W        W40255   2.735  30.375   0.888
67831W        W40256  23.543   8.284   1.238
67832W        W40257  43.267  26.589   1.379
67833W        W40258  18.795  19.127   1.313
67834W        W40259  14.520  11.108   1.777
67835W        W40260  13.937  38.406   0.829
67836W        W40261  39.275   6.731   3.989
67837W        W40262  10.526   5.909  12.979
67838W        W40263   5.642  13.772  11.541
67839W        W40264  17.930  25.672   3.145
67840W        W40265  38.187  21.401   0.298
67841W        W40266  16.781  35.328   2.428
67842W        W40267  14.270  22.751  12.102
67843W        W40268  37.365  21.604  13.834
67844W        W40269  15.223  14.308  10.672
67845W        W40270   4.698   8.347   4.418
67846W        W40271  44.028  40.141   4.293
67847W        W40272  15.729  43.131   1.351
67848W        W40273  11.547  37.736  12.089
67849W        W40274  35.756  28.245   2.805
67850W        W40275  22.137   1.429   2.173
67851W        W40276  16.655  27.124   1.204
67852W        W40277  34.026  14.145  12.529
67853W        W40278  31.652   4.655   2.643
67854W        W40279  13.812   7.607  11.049
67855W        W40280  42.664  22.040   2.863
67856W        W40281   2.703   9.144   2.749
67857W        W40282   8.345  15.546   1.934
67858W        W40283  10.871  19.588  12.659
67859W        W40284  30.166   5.720   0.289
67860W        W40285  19.077  38.522   0.003
67861W        W40286   2.825  18.417  12.925
67862W        W40287   2.062  23.452   2.606
67863W        W40288  10.875   6.402   3.674
67864W        W40289   3.220  16.075   2.451
67865W        W40290  24.653  21.090  14.560
67866W        W40291   0.488  39.579  12.063
67867W        W40292  32.685  19.306  11.203
67868W        W40293  22.163  43.762   4.605
67869W        W40294  12.041   5.543  14.841
67870W        W40295  11.175  19.151   1.265
67871W        W40296  16.606  10.110   0.291
67872W        W40297  14.807  40.545   3.880
67873W        W40298  32.800  32.184  12.040
67874W        W40299  17.373   5.251  10.267
67875W        W40300  19.797  21.617  11.709
67876W        W40301  31.527  44.293   0.323
67877W        W40302   4.596  40.940  12.106
67878W        W40303  28.610  43.585   0.389
67879W        W40304  34.467  36.661  13.408
67880W        W40305   7.738  34.491  14.220
67881W        W40306  11.615  39.355   0.549
67882W        W40307  22.020  13.337  13.963
67883W        W40308   9.333   6.725  14.332
67884W        W40309   3.225  36.635  14.997
67885W        W40310  11.675  32.019  13.620
67886W        W40311  27.951   3.859   1.997
67887W        W40312  28.327  11.728  12.976
67888W        W40313   4.169  23.561  14.131
67889W        W40314  23.616   3.529  10.340
67890W        W40315  37.657  37.487   0.747
67891W        W40316   1.496  43.907   3.557
67892W        W40317  13.695  14.240   4.566
67893W        W40318  12.569  44.819  13.837
67894W        W40319  23.247  43.384  12.722
67895W        W40320  26.597  20.552  10.986
67896W        W40321  24.420  38.113  11.615
67897W        W40322  33.118  13.589  11.081
67898W        W40323   8.668   1.746  10.528
67899W        W40324  38.645   6.232   3.689
67900W        W40325  27.260  44.387  14.148
67901W        W40326  13.133  32.164   1.127
67902W        W40327   0.222  35.610  12.570
67903W        W40328  44.786  14.186  13.256
67904W        W40329   3.857  17.046   4.109
67905W        W40330  27.199  34.421   1.716
67906W        W40331  37.988  18.092  11.159
67907W        W40332  24.946   9.790   3.712
67908W        W40333  32.471  44.402  10.450
67909W        W40334  39.244   7.506  13.315
67910W        W40335  24.969   4.237  14.180
67911W        W40336   2.173  10.364  12.427
67912W        W40337  44.523  10.757   1.908
67913W        W40338  31.927  16.946  11.230
67914W        W40339  24.469   9.175  13.927
67915W        W40340  23.243  38.472   3.732
67916W        W40341  21.428   6.230  11.311
67917W        W40342  44.222  11.134   1.680
67918W        W40343   4.332  16.084  12.603
67919W        W40344  43.802  36.118   3.585
67920W        W40345  35.927  36.271  12.088
67921W        W40346  37.143  40.804  12.946
67922W        W40347   4.974   5.204  11.603
67923W        W40348  26.711   6.102   2.153
67924W        W40349  17.333   5.297   2.621
67925W        W40350  31.733  37.541   3.153
67926W        W40351   1.814  26.184  13.025
67927W        W40352   7.260  22.521   0.877
67928W        W40353  44.745  39.296   2.324
67929W        W40354   1.814  14.741   4.619
67930W        W40355  36.822  21.691   4.356
67931W        W40356  39.414   9.297  11.524
67932W        W40357  22.234  40.336  11.839
67933W        W40358   2.257  27.680   3.288
67934W        W40359  20.238  26.615  11.617
67935W        W40360  20.601   0.809   4.398
67936W        W40361  26.137  36.114   0.023
67937W        W40362  10.008  27.955   2.107
67938W        W40363  20.295  44.246   3.702
67939W        W40364   3.810   7.537   3.492
67940W        W40365   4.438  12.864   4.315
67941W        W40366   6.515  12.518   1.333
67942W        W40367   1.912  18.311   4.109
67943W        W40368  24.271  20.346  15.000
67944W        W40369  28.423  34.524  14.704
67945W        W40370  41.996  36.126   1.686
67946W        W40371  31.570   0.566   2.164
67947W        W40372   4.744  22.464  11.104
67948W        W40373   8.717  21.223   0.019
67949W        W40374  19.556  12.217   2.486
67950W        W40375  11.847  31.097  14.508
67951W        W40376  42.143   3.935   1.901
67952W        W40377  37.095  37.149  14.705
67953W        W40378   3.379  36.276   1.820
67954W        W40379  18.462  25.437   0.392
67955W        W40380  22.913   3.509   1.963
67956W        W40381  15.145  33.924  11.161
67957W        W40382   3.956  25.189  11.095
67958W        W40383  19.202  23.884   0.025
67959W        W40384   0.012  31.377   1.832
67960W        W40385  19.224  34.507  14.056
67961W        W40386  41.385  36.516  12.466
67962W        W40387  39.385  25.203  12.400
67963W        W40388  12.572   6.640   3.604
67964W        W40389  30.894  39.798   1.489
67965W        W40390  12.724  32.177  10.820
67966W        W40391  42.105   9.305   4.614
67967W        W40392  24.715  35.459   1.404
67968W        W40393  42.005  18.123  10.148
67969W        W40394  14.558  10.402   1.377
67970W        W40395  33.352  21.483  14.617
67971W        W40396  42.628  33.079   0.984
67972W        W40397  14.233  23.700   2.862
67973W        W40398   5.229   1.925  12.129
67974W        W40399  15.761  18.701   1.427
67975W        W40400  17.113  19.620  12.118
67976W        W40401  17.758   2.237  13.925
67977W        W40402   2.951  40.995  13.838
67978W        W40403  26.652  11.176   1.766
67979W        W40404  33.479   4.358   4.086
67980W        W40405  14.548  33.004  11.994
67981W        W40406  33.316  31.455   4.745
67982W        W40407  33.520  24.719   1.954
67983W        W40408  30.449  27.397  13.895
67984W        W40409   1.855  17.833  10.683
67985W        W40410  29.556  25.156   4.997
67986W        W40411   3.670   8.914   4.674
67987W        W40412  37.787  16.345   2.103
67988W        W40413   6.902   7.660   3.321
67989W        W40414  40.436  21.456   5.481
67990W        W40415  25.898  33.086   4.701
67991W        W40416  44.836  44.060  13.082
67992W        W40417  17.305  39.381  10.639
67993W        W40418   5.491  38.931  11.485
67994W        W40419  27.624  11.010  12.105
67995W        W40420   8.767  39.395   5.008
67996W        W40421   4.098   2.673  12.877
67997W        W40422   8.198   9.120  12.562
67998W        W40423  35.797   5.907  13.915
67999W        W40424   3.298  23.829   1.227
68000W        W40425  24.719  22.166  11.493
68001W        W40426  23.914  26.528   1.010
68002W        W40427   8.056  18.241   0.963
68003W        W40428  31.628  37.093   0.470
68004W        W40429  28.496  39.558  10.260
68005W        W40430  30.186  27.702  13.406
68006W        W40431   5.879  39.756  11.739
68007W        W40432  40.882  41.723   3.178
68008W        W40433  20.934   9.261   4.154
68009W        W40434  41.361  36.519  13.353
68010W        W40435  38.931  22.080  11.237
68011W        W40436   9.735  16.748   1.403
68012W        W40437  20.118  16.507  13.007
68013W        W40438   5.363  35.449  12.176
68014W        W40439   0.387  42.105   4.119
68015W        W40440   6.706  10.371  13.050
68016W        W40441  21.642  28.002   1.766
68017W        W40442  11.736  30.495   4.594
68018W        W40443   5.487  39.481   1.243
68019W        W40444  25.188  35.049  12.131
68020W        W40445  29.589   0.012  11.853
68021W        W40446  34.624   7.894   1.010
68022W        W40447   3.176  11.781  13.584
68023W        W40448  33.482  28.835   1.521
68024W        W40449  14.842   4.202  14.415
68025W        W40450  44.713  24.398   0.077
68026W        W40451  29.100  32.330  10.804
68027W        W40452  43.766  31.901  10.289
68028W        W40453  23.955   1.807   0.899
68029W        W40454  26.538  13.795   1.298
68030W        W40455  39.801   3.155   4.073
68031W        W40456  24.250   4.460   1.455
68032W        W40457  23.259  10.082   3.149
68033W        W40458  18.520   9.902   2.793
68034W        W40459   0.250  30.200   3.261
68035W        W40460  14.598  34.790  11.493
68036W        W40461   6.328  18.114   4.528
68037W        W40462  31.240  29.621  11.553
68038W        W40463   1.108  39.063   2.792
68039W        W40464  25.607  22.952   0.227
68040W        W40465  29.857  18.837  14.894
68041W        W40466  23.263  43.804  11.940
68042W        W40467  42.805  19.817  14.391
68043W        W40468  14.927  15.211  12.520
68044W        W40469  33.604  23.384   3.350
68045W        W40470  41.825  21.772  10.256
68046W        W40471  10.332  14.853  11.081
68047W        W40472  31.461   5.798  13.170
68048W        W40473  34.387  33.809   1.277
68049W        W40474  31.125  22.774  12.158
68050W        W40475  26.129   5.274   2.937
68051W        W40476  40.369  26.958   2.222
68052W        W40477  17.325   3.883   0.843
68053W        W40478  25.989  37.457   4.049
68054W        W40479   1.864  15.894  14.220
68055W        W40480  11.360  28.399   1.860
68056W        W40481  14.679  18.911  11.548
68057W        W40482  13.332  18.594  10.877
68058W        W40483  20.191  27.019   4.366
68059W        W40484  36.335  23.556  14.799
68060W        W40485   4.003  42.243  14.912
68061W        W40486   7.752  38.305  11.605
68062W        W40487  40.262  12.676   0.859
68063W        W40488   8.276  27.504   4.649
68064W        W40489  17.144  28.829   4.167
68065W        W40490   2.104  13.646  14.392
68066W        W40491   2.181  27.974   0.252
68067W        W40492   3.576  15.712   3.196
68068W        W40493  16.084  44.426  10.786
68069W        W40494  39.845  36.874  11.587
68070W        W40495  18.784  14.462   1.622
68071W        W40496   6.695  44.650   4.564
68072W        W40497  16.568  27.007   3.137
68073W        W40498  18.982  23.171  11.879
68074W        W40499  29.886   9.641  13.489
68075W        W40500  27.911   1.852   0.123
68076W        W40501   8.097  20.682   2.003
68077W        W40502  15.694  30.898  13.436
68078W        W40503  29.141  20.555   3.823
68079W        W40504  27.937  16.206   4.214
68080W        W40505   5.413  18.982  14.018
68081W        W40506  29.949  30.478   0.394
68082W        W40507  15.693  32.075  11.169
68083W        W40508  43.557   5.803  14.967
68084W        W40509   5.507  43.584  12.120
68085W        W40510  39.944   5.410   0.108
68086W        W40511  32.419  20.675  11.429
68087W        W40512   2.359   5.364   3.882
68088W        W40513   7.331  43.342   4.090
68089W        W40514  37.789  42.479   5.192
68090W        W40515  35.443  12.137  13.720
68091W        W40516  11.438   5.244  14.130
68092W        W40517  25.494  31.973  11.954
68093W        W40518  41.900  10.788   0.212
68094W        W40519  37.007  29.454   2.295
68095W        W40520  44.514  39.545   4.525
68096W        W40521   3.248  21.704   4.161
68097W        W40522  11.543  43.180   2.268
68098W        W40523  10.000  40.013   3.801
68099W        W40524  38.094  21.525   1.249
68100W        W40525  15.065  19.885   0.732
68101W        W40526  37.518  12.719   4.607
68102W        W40527  36.144   1.437   2.378
68103W        W40528  26.170  11.929   1.841
68104W        W40529  32.141  17.572  11.581
68105W        W40530  24.709   1.952   3.260
68106W        W40531  18.916  41.705  14.051
68107W        W40532   6.589  19.050  12.356
68108W        W40533  41.499   2.034  11.080
68109W        W40534  36.844  44.383   2.374
68110W        W40535  30.011  25.574   1.752
68111W        W40536  31.547  36.986   2.402
68112W        W40537   8.272  40.411  13.507
68113W        W40538  13.150   6.381   1.273
68114W        W40539   9.317  16.140   2.414
68115W        W40540  32.325  39.199   3.883
68116W        W40541  43.720  29.959   0.255
68117W        W40542  37.323  10.177   2.335
68118W        W40543   7.035  33.027  10.730
68119W        W40544  40.519  24.750   2.773
68120W        W40545  25.560  21.113   3.674
68121W        W40546   8.150   7.799   3.815
68122W        W40547  44.281  31.188  14.814
68123W        W40548   6.521   2.847   3.055
68124W        W40549  25.646  22.250   2.824
68125W        W40550  12.871  33.131  10.434
68126W        W40551  22.068   7.003   1.365
68127W        W40552   9.606  22.623   4.089
68128W        W40553  42.063   7.729   4.040
68129W        W40554  20.927  44.528   1.465
68130W        W40555  20.268  22.331  11.630
68131W        W40556  29.880  10.766   2.981
68132W        W40557  39.436  22.843  13.831
68133W        W40558   8.863  38.492  10.595
68134W        W40559   8.406   6.926   1.917
68135W        W40560   6.782  12.376  13.915
68136W        W40561  19.140  29.569  11.457
68137W        W40562  30.383  28.264   2.746
68138W        W40563  30.651  17.235   0.868
68139W        W40564  28.001  44.535   4.874
68140W        W40565  36.160  26.129   0.806
68141W        W40566  28.967  36.830   0.024
68142W        W40567  26.942  22.595  10.981
68143W        W40568  36.186  10.664  12.582
68144W        W40569  43.095  16.871  14.819
68145W        W40570  27.937  23.264   9.931
68146W        W40571  31.570  20.771   0.755
68147W        W40572   9.167   4.714  10.248
68148W        W40573  43.110  14.379   2.127
68149W        W40574  35.918  37.844   1.903
68150W        W40575  16.525   2.720  12.905
68151W        W40576  12.712  32.999  13.726
68152W        W40577  27.195  36.819   1.895
68153W        W40578   5.930   3.231   1.846
68154W        W40579   6.160  35.136   4.496
68155W        W40580  44.933  41.895  14.382
68156W        W40581  15.379  24.397  14.286
68157W        W40582  10.620  32.667   3.662
68158W        W40583   8.842  20.371   2.285
68159W        W40584  26.421   1.593  11.143
68160W        W40585   2.937   3.703  13.063
68161W        W40586   3.970  10.721   3.285
68162W        W40587  25.764  29.150  10.760
68163W        W40588   5.839  17.767   1.475
68164W        W40589  41.502  20.494  12.815
68165W        W40590  40.831  15.645   0.671
68166W        W40591  30.391  31.174   0.271
68167W        W40592  26.566  24.256   0.283
68168W        W40593  11.590   6.727  13.188
68169W        W40594   1.396  11.253  12.828
68170W        W40595   0.917  34.584  12.058
68171W        W40596  36.054  44.781   0.971
68172W        W40597  25.992  26.268   4.227
68173W        W40598  27.296  24.630  14.881
68174W        W40599  44.300  42.879   0.563
68175W        W40600  27.084  30.157  12.792
68176W        W40601   6.645   6.809   3.709
68177W        W40602  13.960   4.757   0.439
68178W        W40603  38.605   2.350   1.276
68179W        W40604  35.677  37.927   3.332
68180W        W40605  39.014  43.513  14.208
68181W        W40606  36.822   2.907  12.842
68182W        W40607  32.077  12.584  10.307
68183W        W40608  27.553  42.225  11.934
68184W        W40609  12.242  23.293  12.084
68185W        W40610  25.948  35.998   3.312
68186W        W40611  29.085   7.689   4.168
68187W        W40612  40.850   9.757   4.121
68188W        W40613  40.820   6.620   1.382
68189W        W40614   6.842  11.613   4.797
68190W        W40615  27.197  11.282   1.492
68191W        W40616  17.117  33.818   2.377
68192W        W40617  20.502  10.745  13.461
68193W        W40618  14.443  34.925  10.447
68194W        W40619  23.619  41.039  11.658
68195W        W40620   3.183  16.674  10.839
68196W        W40621  38.614   7.016   0.489
68197W        W40622  32.912  36.992  14.486
68198W        W40623  17.021  36.998   1.427
68199W        W40624   1.399  14.850   4.918
68200W        W40625  12.590  32.588   2.773
68201W        W40626  15.103  40.942  12.194
68202W        W40627  37.307  19.154  13.897
68203W        W40628  33.266  18.032   1.174
68204W        W40629  19.829  10.176  13.744
68205W        W40630   5.909  11.881  14.044
68206W        W40631   0.397  19.802  11.186
68207W        W40632  28.928  32.608   3.869
68208W        W40633   5.121  13.941   4.121
68209W        W40634   5.935  26.646  14.310
68210W        W40635  41.850  37.209  14.922
68211W        W40636   4.694   2.133   0.733
68212W        W40637  15.652  23.672   3.674
68213W        W40638  10.343   2.892   2.983
68214W        W40639  18.873  40.011  12.977
68215W        W40640  24.045  33.904   2.389
68216W        W40641  33.978  41.072   3.766
68217W        W40642  40.339  16.769   0.838
68218W        W40643  36.741  27.997  13.560
68219W        W40644  25.133  16.271  10.709
68220W        W40645  23.482  25.029  11.035
68221W        W40646  17.021  18.726  12.241
68222W        W40647  31.835  34.501  12.101
68223W        W40648  37.030  40.879  11.679
68224W        W40649  27.171   5.290   1.639
68225W        W40650  22.930  14.918  14.054
68226W        W40651  27.539  26.621   1.183
68227W        W40652  24.629  20.273   4.125
68228W        W40653   5.847  20.007   0.884
68229W        W40654  36.391  26.484  10.479
68230W        W40655  29.204  36.390   2.215
68231W        W40656  26.933  41.073  11.849
68232W        W40657   0.465   1.333   4.382
68233W        W40658   8.076   5.975   1.867
68234W        W40659  25.806  10.193  11.761
68235W        W40660  35.338  34.726   1.418
68236W        W40661  24.316  13.683  13.406
68237W        W40662  17.719  17.538  14.968
68238W        W40663  12.815   1.262  12.938
68239W        W40664  42.580  34.374  10.539
68240W        W40665   3.247   3.856  11.189
68241W        W40666  20.507   4.814   2.262
68242W        W40667   7.711  13.436   3.795
68243W        W40668   4.341  38.857   0.922
68244W        W40669  37.024  11.239  10.699
68245W        W40670   5.442  34.395   0.814
68246W        W40671   8.688  41.525  13.956
68247W        W40672  19.428  10.712  12.569
68248W        W40673  19.511  39.930   1.250
68249W        W40674   1.378  36.136   0.942
68250W        W40675  27.216  12.191   3.069
68251W        W40676  38.841  31.769   4.160
68252W        W40677  23.649  15.578  11.001
68253W        W40678  41.422  42.484  13.862
68254W        W40679  25.702   5.307   4.728
68255W        W40680  14.287   3.926   3.866
68256W        W40681  17.367  17.853   3.328
68257W        W40682  31.132  24.970  14.500
68258W        W40683   2.270  19.031   3.816
68259W        W40684  41.311   8.167   0.362
68260W        W40685  25.736   4.394   3.689
68261W        W40686   7.413  20.207   2.353
68262W        W40687   6.387  42.558  10.768
68263W        W40688   4.845  21.476   3.184
68264W        W40689  41.921  36.943  13.668
68265W        W40690   0.255  34.522   4.415
68266W        W40691  11.240  11.931   1.477
68267W        W40692  36.038  39.638   3.223
68268W        W40693  17.730   3.445   3.075
68269W        W40694  42.152   3.714  12.939
68270W        W40695  11.232  36.540  12.305
68271W        W40696  43.349  30.618   2.002
68272W        W40697  11.240   5.200  12.363
68273W        W40698  14.634  25.513  10.721
68274W        W40699  39.529  37.075  12.383
68275W        W40700   2.547  36.498   4.666
68276W        W40701  13.593  33.349   0.971
68277W        W40702  13.223  14.774   3.326
68278W        W40703  29.109  33.574   0.231
68279W        W40704   5.313   2.739  10.528
68280W        W40705  11.419   3.795  11.131
68281W        W40706   4.653  44.474   0.476
68282W        W40707   2.577  35.637   3.901
68283W        W40708   1.724  40.053   4.303
68284W        W40709  23.749  21.173  10.628
68285W        W40710  30.839  37.459   4.689
68286W        W40711  41.741  18.563   0.377
68287W        W40712  30.603  10.948   4.223
68288W        W40713  32.132  44.074   1.873
68289W        W40714  11.783   6.261  11.626
68290W        W40715  36.518  11.059   1.672
68291W        W40716   9.235   1.827  11.217
68292W        W40717  16.600  10.734   0.975
68293W        W40718  15.777  11.121  12.563
68294W        W40719  12.278  36.326  13.054
68295W        W40720  27.975   6.752   1.920
68296W        W40721   4.268  42.719  12.933
68297W        W40722   5.216   9.951  14.915
68298W        W40723   9.335   0.515  12.961
68299W        W40724   4.576  29.095   0.909
68300W        W40725  38.483  28.041   3.105
68301W        W40726   7.385  39.803  12.182
68302W        W40727  32.682  24.262   4.499
68303W        W40728  34.150  22.765   3.814
68304W        W40729  29.065   5.842   4.560
68305W        W40730  30.165  40.810   3.868
68306W        W40731  19.327   2.012  11.139
68307W        W40732  21.789  24.465   2.889
68308W        W40733  32.277   2.317  12.434
68309W        W40734   6.322  27.224   3.722
68310W        W40735   5.984  27.568  13.349
68311W        W40736  25.520  27.796   0.961
68312W        W40737  39.909  33.935  13.973
68313W        W40738  13.308  23.948   5.153
68314W        W40739   5.253  28.150  14.223
68315W        W40740  14.762   2.619  13.633
68316W        W40741  44.371  12.321  12.633
68317W        W40742   9.802  29.025   3.714
68318W        W40743  25.230  19.549   3.343
68319W        W40744  40.377  20.826  10.625
68320W        W40745  25.241  32.169  11.511
68321W        W40746  15.119  18.188  11.791
68322W        W40747  43.842  14.412   2.923
68323W        W40748  32.003  42.792   4.541
68324W        W40749  19.784  44.367   2.825
68325W        W40750  40.019  13.705   0.319
68326W        W40751  10.312  31.121   4.526
68327W        W40752  38.904  33.444   4.991
68328W        W40753  17.109   3.037   1.829
68329W        W40754  16.808   3.747   1.273
68330W        W40755   8.195  19.134  11.447
68331W        W40756  28.008  36.840  11.098
68332W        W40757  44.303  15.560   4.190
68333W        W40758   3.730   6.413  11.986
68334W        W40759  14.055  10.279   4.271
68335W        W40760  40.947  16.105   2.406
68336W        W40761  43.216  43.259   3.420
68337W        W40762   7.107   7.697   0.391
68338W        W40763   9.697  27.147   2.482
68339W        W40764  29.429  42.586   0.276
68340W        W40765   1.711  37.195   4.252
68341W        W40766   6.598   2.972   1.800
68342W        W40767  20.160   6.556   3.740
68343W        W40768  22.070  35.228  13.424
68344W        W40769  24.445  19.531  14.609
68345W        W40770  10.401   9.871   4.649
68346W        W40771  19.110  38.537  13.377
68347W        W40772  20.227  34.942  13.431
68348W        W40773  34.042  30.102  13.523
68349W        W40774   7.428  19.182  13.510
68350W        W40775   0.022   2.289  11.046
68351W        W40776  36.064  26.044   4.158
68352W        W40777  22.861   9.226  10.255
68353W        W40778  29.350  34.437   4.337
68354W        W40779  38.331  26.575   2.379
68355W        W40780  30.999  25.847   4.528
68356W        W40781  43.259  17.551   4.329
68357W        W40782  24.893   2.037  11.838
68358W        W40783  16.548  28.972  13.003
68359W        W40784   2.458  21.492   1.900
68360W        W40785  27.256  31.544   2.100
68361W        W40786   8.316  19.628  11.581
68362W        W40787  18.017  22.661   3.804
68363W        W40788  35.597  24.256  14.439
68364W        W40789  32.132  42.911  10.763
68365W        W40790  43.013   2.879  13.481
68366W        W40791   7.163  22.257   3.165
68367W        W40792  37.100  44.515  11.136
68368W        W40793  27.128  40.074   1.676
68369W        W40794  33.397   2.510   3.723
68370W        W40795   4.308  32.202  11.526
68371W        W40796  19.184  29.094   4.705
68372W        W40797  34.454  11.813  14.505
68373W        W40798  18.530  43.428   3.364
68374W        W40799   1.425  21.163  12.721
68375W        W40800  44.925  33.805   3.184
68376W        W40801   3.743  36.454   4.144
68377W        W40802   9.659  36.577   2.220
68378W        W40803  38.839   4.715  12.059
68379W        W40804  17.026  12.330   3.980
68380W        W40805   1.139  34.341  11.129
68381W        W40806  30.982  25.930   1.201
68382W        W40807   7.027  14.005   4.519
68383W        W40808   0.384  21.956  12.561
68384W        W40809  39.026  35.388   1.872
68385W        W40810  14.709  32.934   1.266
68386W        W40811  10.723  15.602  12.485
68387W        W40812  11.800  20.381   1.783
68388W        W40813  14.539  20.608   1.676
68389W        W40814  18.614  18.819   3.228
68390W        W40815  42.206  15.002   3.857
68391W        W40816   6.261  31.966  10.710
68392W        W40817   3.951  39.819   0.845
68393W        W40818  16.610   3.308   3.722
68394W        W40819  41.610  39.338   4.907
68395W        W40820  10.579  41.956   3.187
68396W        W40821  14.744   2.434  11.981
68397W        W40822  38.391  17.226  11.180
68398W        W40823  35.904  20.109  11.708
68399W        W40824  42.409  42.819   3.625
68400W        W40825  31.105  21.500  13.899
68401W        W40826   5.275  16.738  12.125
68402W        W40827  22.672  18.321  13.953
68403W        W40828   2.047  15.088  12.508
68404W        W40829  25.241   3.281   1.399
68405W        W40830   8.716  39.291   2.243
68406W        W40831  21.068  44.472   2.232
68407W        W40832   9.135  39.075  14.987
68408W        W40833  28.420  39.076   4.220
68409W        W40834   9.394  35.981   5.009
68410W        W40835  28.002   8.116   3.140
68411W        W40836  29.870   6.358   1.396
68412W        W40837   0.847   1.071  13.865
68413W        W40838  29.971   1.759   1.658
68414W        W40839   6.401  17.816  10.856
68415W        W40840  23.139   3.903  14.388
68416W        W40841  17.324  31.112  14.020
68417W        W40842  40.503  26.086  12.860
68418W        W40843   6.223  37.393  10.772
68419W        W40844   9.803  15.070  10.833
68420W        W40845  30.414  21.733   1.970
68421W        W40846   3.786  12.791  11.226
68422W        W40847  11.658  31.414  14.869
68423W        W40848   3.400  23.062  11.291
68424W        W40849  17.139  32.758   3.921
68425W        W40850  10.304   3.427  13.292
68426W        W40851  35.397  17.670  13.918
68427W        W40852   8.949  20.947   0.855
68428W        W40853   5.812   3.981   3.190
68429W        W40854  44.211  23.647   0.969
68430W        W40855  10.366  25.161  14.819
68431W        W40856   8.286  17.209   0.152
68432W        W40857  21.576  21.165  10.696
68433W        W40858  15.429  10.722   1.968
68434W        W40859  12.607  14.882   4.395
68435W        W40860  19.808  43.336  12.516
68436W        W40861  32.799  17.520   3.389
68437W        W40862  28.131   7.720  10.905
68438W        W40863  15.187  26.654   4.271
68439W        W40864   8.657  16.493  14.925
68440W        W40865  27.449  21.552   0.197
68441W        W40866  22.925   7.340   2.703
68442W        W40867   5.604  36.554  11.104
68443W        W40868  28.527  38.563  13.807
68444W        W40869  28.480  14.208   2.647
68445W        W40870   1.429  25.464   4.788
68446W        W40871  27.706  11.322  11.604
68447W        W40872  15.713  11.899   3.183
68448W        W40873  11.510  36.035  11.853
68449W        W40874   3.432   2.916   4.218
68450W        W40875  16.277  15.691  14.776
68451W        W40876  26.199  43.568   3.356
68452W        W40877  12.074  41.188  11.181
68453W        W40878   5.918  33.939  14.482
68454W        W40879  14.191  33.819   1.260
68455W        W40880  28.652  13.312  13.112
68456W        W40881  21.460  23.592   0.806
68457W        W40882   9.839   4.425   1.376
68458W        W40883  36.536  33.012   2.673
68459W        W40884  22.761   8.714  14.032
68460W        W40885  20.250  11.110  11.034
68461W        W40886  30.658  31.529  14.991
68462W        W40887  36.386   6.800  12.628
68463W        W40888  22.658  38.295   4.366
68464W        W40889  24.793  18.096  10.481
68465W        W40890   9.915   5.217   0.996
68466W        W40891  36.001   7.756   3.161
68467W        W40892  30.991  13.861   1.944
68468W        W40893  44.342  28.268   0.454
68469W        W40894  14.827  41.762   2.858
68470W        W40895   9.666  15.682  12.568
68471W        W40896   2.396  14.612   0.470
68472W        W40897   8.911  24.466  14.377
68473W        W40898  21.472  11.632   1.154
68474W        W40899  39.315  26.665   2.258
68475W        W40900   3.801  22.178  11.174
68476W        W40901  27.636  30.198   1.202
68477W        W40902  16.618  30.053   4.941
68478W        W40903   4.311  30.887  13.549
68479W        W40904  24.760  39.541  13.554
68480W        W40905   0.352  23.538   0.906
68481W        W40906  14.013   9.805   0.561
68482W        W40907  19.894  13.814   4.637
68483W        W40908  34.781   3.284  10.456
68484W        W40909  27.943   5.884  10.487
68485W        W40910  30.285  44.991  14.329
68486W        W40911  14.216  28.050  12.893
68487W        W40912  38.994   5.215  14.986
68488W        W40913   9.968  27.389   2.842
68489W        W40914   0.965  20.942   3.219
68490W        W40915  23.961  30.520   2.663
68491W        W40916  26.923   1.310  14.809
68492W        W40917   4.192   6.875  10.673
68493W        W40918   1.413  18.283  14.955
68494W        W40919  41.352  27.387   2.732
68495W        W40920   8.685  37.015   4.488
68496W        W40921  17.292   3.284  13.073
68497W        W40922  37.165  15.445  11.946
68498W        W40923  19.864  27.619   4.701
68499W        W40924  25.134  30.257   4.300
68500W        W40925  40.556   5.772  13.485
68501W        W40926  10.266  19.930  13.571
68502W        W40927  34.095  28.375  13.011
68503W        W40928  24.049  44.231  11.911
68504W        W40929  30.249   5.852  13.452
68505W        W40930  36.863  44.276   3.198
68506W        W40931   8.983  13.010  14.787
68507W        W40932  29.858   6.062   1.817
68508W        W40933   0.456  32.875   2.955
68509W        W40934  31.008  31.970  12.680
68510W        W40935  28.663  41.833   3.244
68511W        W40936  42.320  38.165  12.992
68512W        W40937  23.262   7.950  11.510
68513W        W40938  43.928  22.562   0.952
68514W        W40939  37.335   8.986   0.962
68515W        W40940  13.976  27.687   4.166
68516W        W40941  26.128   6.264   2.936
68517W        W40942  44.454  20.141  12.058
68518W        W40943   7.275   8.412   2.192
68519W        W40944   8.293  32.166  13.915
68520W        W40945  18.676  44.910   0.666
68521W        W40946  30.922  15.768   0.996
68522W        W40947   5.096  41.575  13.017
68523W        W40948  34.413  29.147  12.952
68524W        W40949   5.905  27.307  10.737
68525W        W40950  26.642  29.267   0.451
68526W        W40951  10.905  31.668   2.374
68527W        W40952  38.983  15.779   4.154
68528W        W40953  16.717   3.312  11.103
68529W        W40954   2.694  42.424   3.821
68530W        W40955  20.775  21.585   0.132
68531W        W40956  14.275  10.923   3.620
68532W        W40957  35.213  29.129   4.684
68533W        W40958  34.769  12.162   2.767
68534W        W40959  42.167  25.468  11.724
68535W        W40960  27.598  17.632   1.489
68536W        W40961  20.748  36.851  10.665
68537W        W40962  18.592  42.341  12.434
68538W        W40963  24.601  20.175  14.213
68539W        W40964  29.864   1.949  13.817
68540W        W40965   3.772  33.820  11.569
68541W        W40966  14.641  38.860   2.694
68542W        W40967  12.822  39.575   3.792
68543W        W40968   5.263  31.300  11.055
68544W        W40969  17.191   4.966  12.607
68545W        W40970   2.236  22.847  11.670
68546W        W40971  19.064   2.234   1.417
68547W        W40972  29.921  22.002  11.033
68548W        W40973  42.447  17.207   0.723
68549W        W40974  36.240  36.001   1.978
68550W        W40975  21.610  31.323   1.911
68551W        W40976  15.838   4.087  14.466
68552W        W40977  12.385  42.729   2.436
68553W        W40978   5.510  31.100   4.225
68554W        W40979   0.825   1.556  11.783
68555W        W40980  34.269  37.654   0.408
68556W        W40981  20.732  16.335  12.986
68557W        W40982  38.652  36.100  11.683
68558W        W40983  18.523   3.322   0.839
68559W        W40984  34.517   5.734  12.601
68560W        W40985  27.795  11.146  13.472
68561W        W40986   1.799  26.599   1.943
68562W        W40987  41.223  42.954  10.979
68563W        W40988  20.555  19.285   3.737
68564W        W40989  43.065   2.045  11.166
68565W        W40990  25.763  41.819  13.318
68566W        W40991  42.124   6.705   2.771
68567W        W40992  41.419  38.141  14.917
68568W        W40993  14.810  11.551  10.132
68569W        W40994  17.691  34.023  10.641
68570W        W40995  42.726  35.140   2.458
68571W        W40996  33.114  20.687   1.804
68572W        W40997  33.074  13.210  12.042
68573W        W40998   7.212  28.434  14.880
68574W        W40999   7.862  26.056  10.529
68575W        W41000  10.805  23.566   1.839
68576W        W41001  29.185   7.106   1.947
68577W        W41002  38.523  35.911   1.342
68578W        W41003  16.798  33.689  12.455
68579W        W41004  14.124  25.339  11.503
68580W        W41005  10.215  20.414   4.625
68581W        W41006  23.643  40.679   0.826
68582W        W41007   9.386   4.493   3.248
68583W        W41008  17.739  35.968   4.406
68584W        W41009  13.495   6.422  11.649
68585W        W41010  16.810  43.025  12.938
68586W        W41011  34.795  38.925  10.176
68587W        W41012  25.970  25.871   3.746
68588W        W41013  40.551  29.231   2.818
68589W        W41014  27.611   3.989   0.472
68590W        W41015  41.640  34.490   2.429
68591W        W41016   2.577  28.675  11.004
68592W        W41017  14.554  30.591  13.846
68593W        W41018   4.874  38.843   3.243
68594W        W41019  44.209  29.747  12.487
68595W        W41020  20.098  24.221  14.379
68596W        W41021  27.150   5.177  10.671
68597W        W41022  12.577  24.727  13.564
68598W        W41023  38.316   6.929  14.794
68599W        W41024  29.523   2.030   2.956
68600W        W41025  32.821  20.702   2.228
68601W        W41026  23.257  20.543   3.200
68602W        W41027  13.209   1.208  10.184
68603W        W41028  10.317  22.030   1.626
68604W        W41029  25.134  31.877  14.370
68605W        W41030  12.737  26.223  13.855
68606W        W41031  34.823   4.453   4.496
68607W        W41032  27.646  19.608   2.794
68608W        W41033  27.024  40.963   0.189
68609W        W41034  26.056  11.679   4.842
68610W        W41035  22.234   1.711  14.401
68611W        W41036  25.420   7.866   4.530
68612W        W41037   2.248  11.381   4.143
68613W        W41038  37.020  26.511   0.333
68614W        W41039  25.198  18.805   0.903
68615W        W41040  22.618  23.691   0.364
68616W        W41041  40.451   0.733  13.978
68617W        W41042   0.857  21.403  13.372
68618W        W41043  21.224  32.340   0.423
68619W        W41044   7.638   4.939   3.633
68620W        W41045   6.741  24.421   1.774
68621W        W41046  27.732  40.360   2.562
68622W        W41047  28.133   4.408  11.892
68623W        W41048  32.673   1.334   4.669
68624W        W41049  38.955   8.950   4.170
68625W        W41050  27.730   4.044   3.033
68626W        W41051  44.898   1.510  13.917
68627W        W41052  15.766  18.057  10.443
68628W        W41053   9.313  24.272   1.868
68629W        W41054  36.219  13.174   0.775
68630W        W41055  41.021  11.879  11.568
68631W        W41056  38.150  15.760   2.789
68632W        W41057  34.640  17.084   3.627
68633W        W41058  14.336   6.732  14.012
68634W        W41059  25.629  22.016   4.864
68635W        W41060  38.074  13.869   1.664
68636W        W41061  19.722  34.291   1.975
68637W        W41062   6.425   5.411   1.275
68638W        W41063  34.811  35.923  12.417
68639W        W41064  38.510   7.927   0.675
68640W        W41065  20.369   8.405  11.120
68641W        W41066  21.268   5.107  12.951
68642W        W41067  17.523  12.921  12.968
68643W        W41068   9.506  12.652   4.491
68644W        W41069  35.113  15.255   3.536
68645W        W41070  31.361  39.538   3.383
68646W        W41071  24.018  19.304  11.559
68647W        W41072  40.101   4.446  13.842
68648W        W41073  19.260  34.998  14.314
68649W        W41074  37.377  42.467  12.430
68650W        W41075  14.374  24.703  14.277
68651W        W41076  22.753  40.085   4.150
68652W        W41077  35.096   0.382  13.403
68653W        W41078  39.231  30.098   3.293
68654W        W41079   8.196  35.996   1.388
68655W        W41080  38.464   0.205   0.376
68656W        W41081  17.013   6.862   2.271
68657W        W41082   6.129   1.955  11.904
68658W        W41083   8.324   9.755  14.397
68659W        W41084  30.922   3.906   2.295
68660W        W41085  33.924  29.999   0.168
68661W        W41086  32.073   1.610  13.037
68662W        W41087   0.749   5.885   2.592
68663W        W41088  12.115  27.829  13.079
68664W        W41089  24.312  39.688  11.505
68665W        W41090  42.826  23.994  10.853
68666W        W41091  12.818  12.177   0.395
68667W        W41092  15.634  40.772   1.847
68668W        W41093  17.661  25.800   1.737
68669W        W41094  27.434  12.299   1.448
68670W        W41095  39.585  27.690   0.821
68671W        W41096  37.346  36.891   1.499
68672W        W41097  12.847   6.827   1.368
68673W        W41098   5.391  13.348  11.654
68674W        W41099  12.127  13.351  12.964
68675W        W41100   6.444  24.113  11.108
68676W        W41101  34.061  41.055  14.913
68677W        W41102  37.108  33.604  14.993
68678W        W41103  36.743  33.484  13.538
68679W        W41104   2.014  43.236   2.184
68680W        W41105  27.645  44.615  13.275
68681W        W41106   5.383  25.626  14.360
68682W        W41107   5.207  14.784   3.597
68683W        W41108  12.121  42.234   3.741
68684W        W41109  42.447   5.254  12.005
68685W        W41110  30.125   6.946  11.984
68686W        W41111  33.684   9.435  13.372
68687W        W41112  33.626   9.655  14.395
68688W        W41113  17.825  22.655   4.716
68689W        W41114   3.295  26.356   4.591
68690W        W41115  34.881  13.387   1.882
68691W        W41116  36.601  13.730  14.321
68692W        W41117  41.981  30.057   2.228
68693W        W41118  32.486   5.855  13.183
68694W        W41119  10.631  32.187  13.070
68695W        W41120   5.650  37.412   4.994
68696W        W41121   2.148  37.928  12.530
68697W        W41122  30.200  12.415   2.068
68698W        W41123  40.389   6.396  10.452
68699W        W41124  38.446  20.781  13.890
68700W        W41125  17.831  28.501   0.412
68701W        W41126  41.420  36.684  11.988
68702W        W41127   7.734  22.390  10.387
68703W        W41128   5.829   9.859   2.817
68704W        W41129  42.847  43.823  12.091
68705W        W41130  22.640  23.266   4.280
68706W        W41131  38.911  30.608   1.585
68707W        W41132  17.660  41.089   4.874
68708W        W41133  28.178  39.062   2.585
68709W        W41134  25.293  11.177   1.086
68710W        W41135   0.056  43.330  12.537
68711W        W41136  40.704  22.621   2.642
68712W        W41137   7.656   8.716   4.712
68713W        W41138  23.944  36.829   4.293
68714W        W41139  43.999  22.954  11.767
68715W        W41140  35.454  14.698  11.841
68716W        W41141  23.055   9.612   1.358
68717W        W41142   0.321  33.619   1.884
68718W        W41143  37.643   6.172  14.856
68719W        W41144  28.955  24.269  10.507
68720W        W41145  13.910   3.467  12.498
68721W        W41146  31.932   5.747   0.823
68722W        W41147  20.764  12.330  11.995
68723W        W41148  42.312  44.410  11.071
68724W        W41149  28.615  31.563  13.161
68725W        W41150  14.679  36.953   4.112
68726W        W41151  13.145  10.205   0.291
68727W        W41152  11.456   1.311  11.392
68728W        W41153   4.457  16.742   3.245
68729W        W41154  11.592   3.015  13.419
68730W        W41155  14.537  14.117  12.829
68731W        W41156  16.106   5.186  10.591
68732W        W41157   5.143  21.579  12.903
68733W        W41158  23.491   9.800  14.374
68734W        W41159  34.873  18.718   5.101
68735W        W41160  23.868  42.818  12.968
68736W        W41161   1.891  13.348  14.021
68737W        W41162  42.867  42.508  12.969
68738W        W41163  31.762  24.630  10.809
68739W        W41164  20.766  12.604   4.054
68740W        W41165  12.628   5.973  12.937
68741W        W41166  33.616  16.765  13.213
68742W        W41167  19.234  29.052   0.268
68743W        W41168   2.408   3.202   2.784
68744W        W41169  35.463  12.617   0.391
68745W        W41170  28.819   8.123  12.058
68746W        W41171   8.220   4.667   1.346
68747W        W41172  39.490  39.208   4.909
68748W        W41173  11.373   5.713  12.472
68749W        W41174  43.982  34.817   5.478
68750W        W41175  23.088  29.404   0.380
68751W        W41176  31.358  20.601  13.868
68752W        W41177  36.116  31.108   1.879
68753W        W41178   5.163  37.375   4.261
68754W        W41179  27.755  31.444  13.875
68755W        W41180  17.184   0.503   3.700
68756W        W41181   5.689  28.098  10.716
68757W        W41182  28.469  23.461   3.363
68758W        W41183   8.640  22.701  11.857
68759W        W41184  17.275  40.427   2.213
68760W        W41185  31.118  22.149   2.271
68761W        W41186  37.303  42.905   1.727
68762W        W41187  35.653  31.363  11.433
68763W        W41188  11.727  43.565   4.012
68764W        W41189  24.718  13.255   2.243
68765W        W41190  15.428  32.635   2.236
68766W        W41191   9.515  24.003  10.656
68767W        W41192  39.759  20.811  14.401
68768W        W41193  44.347  33.508  12.036
68769W        W41194  37.316  38.517  10.570
68770W        W41195  41.172  16.173  13.933
68771W        W41196  13.795  26.504  10.890
68772W        W41197  41.941  38.229  14.990
68773W        W41198  39.552   8.189  11.652
68774W        W41199  34.990   3.768  13.608
68775W        W41200   9.399  11.171   3.615
68776W        W41201  10.363  37.889   4.812
68777W        W41202   0.403  40.492   4.025
68778W        W41203   0.911  27.502   0.000
68779W        W41204  34.052   3.392   4.367
68780W        W41205  12.791  12.711   2.316
68781W        W41206  19.885  32.928  13.842
68782W        W41207  23.568   7.909  10.494
68783W        W41208  19.266   2.438  11.432
68784W        W41209  19.764  29.626   3.671
68785W        W41210  18.057  38.430   4.585
68786W        W41211   4.820  13.446   5.021
68787W        W41212  35.276  35.957  13.328
68788W        W41213  32.611  32.945  13.883
68789W        W41214  40.455  13.921  12.114
68790W        W41215   2.499  17.212   1.683
68791W        W41216  13.814  18.701   1.525
68792W        W41217  43.466   6.216   4.134
68793W        W41218  31.958   5.544  10.083
68794W        W41219  28.199   0.533   3.243
68795W        W41220   9.149  28.344  14.824
68796W        W41221  36.320  27.192  11.117
68797W        W41222  10.727  31.227   3.178
68798W        W41223  13.104  17.798  13.861
68799W        W41224  37.557  35.806  13.070
68800W        W41225  35.966  23.701  13.916
68801W        W41226  36.588   3.523  11.590
68802W        W41227  16.813  23.493  11.251
68803W        W41228  21.171  24.632   2.197
68804W        W41229  31.352   6.682  13.060
68805W        W41230  37.452  41.149  14.019
68806W        W41231  31.509  23.100  14.770
68807W        W41232   2.346  22.740   3.361
68808W        W41233  39.538   9.711   4.322
68809W        W41234  35.951  11.388  13.989
68810W        W41235   9.375  24.480   3.744
68811W        W41236  28.503   4.550  12.660
68812W        W41237  24.960  31.520   2.595
68813W        W41238   2.832  35.528  14.424
68814W        W41239  12.929  40.577   0.356
68815W        W41240  38.900  28.503  10.690
68816W        W41241  22.846  12.307  10.332
68817W        W41242  11.671  22.998  14.368
68818W        W41243  43.933  11.202   4.099
68819W        W41244   0.064  12.570   2.215
68820W        W41245  37.532  21.510  10.684
68821W        W41246   1.058  15.792   4.968
68822W        W41247  43.485  12.031  14.450
68823W        W41248  41.785  13.705   3.411
68824W        W41249  19.847  40.680   0.205
68825W        W41250  24.624  23.576  10.892
68826W        W41251   3.316  26.944  11.986
68827W        W41252  32.411  30.969  11.477
68828W        W41253  26.204  27.335   2.323
68829W        W41254  33.943  33.063  11.529
68830W        W41255  15.276  10.552   3.092
68831W        W41256  15.813  40.063  11.929
68832W        W41257   9.249  10.152  10.982
68833W        W41258  37.109  17.025  12.837
68834W        W41259   8.865  10.089  11.327
68835W        W41260  19.364  12.584  10.579
68836W        W41261  31.474  18.760  11.627
68837W        W41262  10.331  30.058   1.470
68838W        W41263  42.359   5.360   2.751
68839W        W41264   8.119  34.876  14.407
68840W        W41265   9.224  27.905   4.714
68841W        W41266  44.352  26.943   3.949
68842W        W41267   3.666   9.937   1.779
68843W        W41268  18.899   0.392  11.183
68844W        W41269  10.649  29.848  14.029
68845W        W41270   3.319  13.430   1.151
68846W        W41271  41.268  22.083   5.589
68847W        W41272  19.143  18.187   1.275
68848W        W41273  17.087  32.219   3.726
68849W        W41274  39.980  37.324  12.555
68850W        W41275   8.941  25.813   1.961
68851W        W41276  11.113  36.895   0.768
68852W        W41277  28.512  18.618  12.991
68853W        W41278  31.844  42.522  13.905
68854W        W41279  39.613  30.933  10.808
68855W        W41280  38.939  37.894   3.805
68856W        W41281   0.230  25.687  14.843
68857W        W41282  20.889  41.695   2.164
68858W        W41283  40.344  40.953  13.933
68859W        W41284   5.873  34.661   0.970
68860W        W41285  18.537  30.760  13.530
68861W        W41286  24.172  32.136   4.587
68862W        W41287  24.455  24.630  14.541
68863W        W41288  24.018  33.591  14.977
68864W        W41289  14.286  22.759  10.406
68865W        W41290  33.343   4.222   3.112
68866W        W41291  23.632   6.909  10.723
68867W        W41292  24.078  19.115  14.668
68868W        W41293   2.821  38.126   3.551
68869W        W41294   0.897  19.817   0.785
68870W        W41295  10.992  40.595  10.711
68871W        W41296  41.415   9.633  12.961
68872W        W41297  37.116  44.523   2.820
68873W        W41298  40.791  29.691   4.602
68874W        W41299  39.243  42.287   1.536
68875W        W41300  21.644  13.403   2.218
68876W        W41301  30.922  31.373  11.932
68877W        W41302  15.180   6.716   2.805
68878W        W41303  16.310  11.218  14.451
68879W        W41304  31.986  31.104   2.807
68880W        W41305  40.139  21.573   1.357
68881W        W41306   4.268  28.969   2.283
68882W        W41307  39.975  18.277  11.012
68883W        W41308  31.134  20.078   3.391
68884W        W41309   4.914   4.531   4.197
68885W        W41310  30.459  33.574  10.709
68886W        W41311  35.551  22.970   2.664
68887W        W41312  39.658  38.256  11.614
68888W        W41313   3.211   3.740   3.576
68889W        W41314  23.582  34.061  10.617
68890W        W41315  29.092   9.406   0.448
68891W        W41316   2.751  24.237   0.395
68892W        W41317  21.504  28.693  12.415
68893W        W41318  40.013  18.553   0.058
68894W        W41319  16.921  18.033   0.022
68895W        W41320  43.785  40.699   1.430
68896W        W41321  25.609  16.529   3.979
68897W        W41322  22.957  31.058  12.410
68898W        W41323  38.811  25.974  13.440
68899W        W41324   4.157  37.923  13.965
68900W        W41325  10.324  44.062  12.389
68901W        W41326  28.308  13.651  11.759
68902W        W41327   3.346   5.233  10.596
68903W        W41328  42.941  10.450   1.609
68904W        W41329  34.902   6.473  12.290
68905W        W41330  41.325  18.355   2.436
68906W        W41331   7.448   8.732   1.802
68907W        W41332  17.546  15.419  12.288
68908W        W41333  25.447  35.114   3.585
68909W        W41334  40.458  27.054   3.162
68910W        W41335   7.173   9.201  10.728
68911W        W41336  40.575  36.568  14.357
68912W        W41337  30.140   7.607   1.017
68913W        W41338  22.070  18.844   1.998
68914W        W41339   5.924  25.898   0.010
68915W        W41340  12.920   9.968  13.047
68916W        W41341  23.254  44.368  11.170
68917W        W41342  32.534  36.055  13.306
68918W        W41343  17.575  25.945  12.360
68919W        W41344  37.522  34.328  11.617
68920W        W41345  19.168  31.515   2.633
68921W        W41346   6.209  22.207   4.167
68922W        W41347   6.269  17.125  12.576
68923W        W41348  38.200  42.950  14.012
68924W        W41349  41.239   8.695   2.731
68925W        W41350  17.122  16.692  10.103
68926W        W41351  39.030  23.202   2.327
68927W        W41352   5.817   8.260   0.317
68928W        W41353  41.882  35.209   2.018
68929W        W41354   1.199  16.288   3.343
68930W        W41355  22.056   8.345  10.581
68931W        W41356  33.544  19.725   1.315
68932W        W41357  10.861  15.364   2.645
68933W        W41358  43.942  32.736  11.480
68934W        W41359  43.308  19.816   2.871
68935W        W41360  36.304  34.640   0.562
68936W        W41361  10.748  43.277   3.181
68937W        W41362   1.778  27.924  14.308
68938W        W41363  36.538  33.625  14.387
68939W        W41364   9.977  16.646   2.868
68940W        W41365  17.713  17.505  13.047
68941W        W41366  41.066  26.062   1.835
68942W        W41367  36.320  24.753   1.724
68943W        W41368   8.681  22.896   4.866
68944W        W41369   5.013  41.952   3.625
68945W        W41370   6.415  39.312   2.405
68946W        W41371  19.195  35.809  12.001
68947W        W41372   1.397  40.266  13.602
68948W        W41373  39.898  44.397   3.227
68949W        W41374  32.635   0.328  10.402
68950W        W41375  38.830  42.292  12.025
68951W        W41376  16.812   2.089  11.801
68952W        W41377  29.325  42.105   0.394
68953W        W41378   4.397   2.251  13.032
68954W        W41379  20.031  11.893  10.748
68955W        W41380  39.120   2.473   2.831
68956W        W41381  32.202   4.835   3.727
68957W        W41382  10.236  30.977   3.129
68958W        W41383  40.639  35.412   2.808
68959W        W41384   2.268  31.785   3.557
68960W        W41385  28.718  14.317   1.233
68961W        W41386  38.902  25.154   4.030
68962W        W41387  17.137  18.258  14.558
68963W        W41388  10.352   0.530  13.869
68964W        W41389  40.565   9.611   0.987
68965W        W41390  29.945  24.070  13.434
68966W        W41391  15.868   1.423  10.566
68967W        W41392  25.994  36.645  14.529
68968W        W41393  28.711  39.227   0.804
68969W        W41394   6.433   3.436   2.035
68970W        W41395  28.075  21.025   1.875
68971W        W41396  42.445   4.852  13.315
68972W        W41397  31.682  36.949  10.775
68973W        W41398  12.103   8.402  11.002
68974W        W41399  34.494  28.913  12.437
68975W        W41400   8.163  27.532  11.389
68976W        W41401   3.537  15.079   0.292
68977W        W41402  36.617   3.799   2.660
68978W        W41403  22.711  33.133  10.249
68979W        W41404  41.326  20.020   4.091
68980W        W41405  10.482   0.594   4.248
68981W        W41406   9.402  21.818  11.536
68982W        W41407  28.555  11.151   0.856
68983W        W41408  42.872  27.896  13.067
68984W        W41409  17.456  31.563  14.869
68985W        W41410  42.327  33.456  13.944
68986W        W41411  34.531  42.424   2.932
68987W        W41412  27.651  19.463  13.968
68988W        W41413  22.770  19.218   0.361
68989W        W41414  41.496  41.820   5.115
68990W        W41415  11.342  30.034   1.334
68991W        W41416  42.909  11.272   4.302
68992W        W41417   1.445  22.232  14.659
68993W        W41418   2.849  37.009   1.398
68994W        W41419  15.328  43.566   3.354
68995W        W41420  19.222  25.245   2.604
68996W        W41421  25.605  18.266  11.521
68997W        W41422  35.848  41.297   2.744
68998W        W41423  37.875   6.751  11.986
68999W        W41424  18.157   6.867  13.073
69000W        W41425  20.229  37.253  11.540
69001W        W41426   6.458  43.263  12.913
69002W        W41427  44.756   0.299  14.477
69003W        W41428   7.259  23.290   1.102
69004W        W41429  11.238  25.210   2.406
69005W        W41430  11.354  15.431   3.122
69006W        W41431   4.194  14.140   1.807
69007W        W41432  30.633   0.055  11.503
69008W        W41433  12.206  16.301   2.167
69009W        W41434   2.931  26.099   4.157
69010W        W41435  30.557   0.555  11.740
69011W        W41436  39.273  21.192   3.092
69012W        W41437  37.965  16.005  12.868
69013W        W41438  32.049  17.995   2.860
69014W        W41439   7.801  38.043   3.845
69015W        W41440  41.110  42.394   0.892
69016W        W41441   1.059  16.832   1.033
69017W        W41442  18.860  36.056  14.802
69018W        W41443  18.243  28.473   3.042
69019W        W41444  41.553  21.733  12.798
69020W        W41445  27.211  12.826  13.557
69021W        W41446  12.370  31.528   4.697
69022W        W41447   7.354  22.041   0.028
69023W        W41448  18.739  26.213   4.800
69024W        W41449  44.255   9.406   1.966
69025W        W41450   5.409   3.906   4.870
69026W        W41451  30.604  38.156  12.496
69027W        W41452   1.907   5.974   2.891
69028W        W41453  17.708  21.338  12.258
69029W        W41454  42.013  32.091   4.456
69030W        W41455  39.016  18.781   1.869
69031W        W41456  39.087  33.380  10.682
69032W        W41457  29.951   1.716   3.625
69033W        W41458  42.092  30.495   1.189
69034W        W41459  15.053  20.449   1.860
69035W        W41460  29.083  13.395  11.057
69036W        W41461  22.562  23.424   3.732
69037W        W41462  30.645  43.825  13.061
69038W        W41463   8.846  26.745  12.020
69039W        W41464   5.267  11.066  10.938
69040W        W41465  18.761  36.928  11.917
69041W        W41466   8.801  30.378  12.960
69042W        W41467  31.523   2.299  13.510
69043W        W41468  33.125  34.902  13.481
69044W        W41469   1.751  42.760  12.386
69045W        W41470   9.307  40.984  12.837
69046W        W41471  21.628  13.521  11.564
69047W        W41472  37.150  20.678  10.511
69048W        W41473  32.231   3.844   2.801
69049W        W41474  33.567  18.796  13.444
69050W        W41475  36.936  25.730   4.857
69051W        W41476  19.704   4.227   3.368
69052W        W41477  16.333  33.805  10.325
69053W        W41478  34.915  12.650  12.399
69054W        W41479  40.917  22.528  10.924
69055W        W41480  12.368  33.517   2.787
69056W        W41481  12.277  42.479  11.537
69057W        W41482  34.677  15.845  12.067
69058W        W41483  18.502  16.103  13.910
69059W        W41484  15.116  27.810  12.410
69060W        W41485  14.181  38.853   1.758
69061W        W41486   7.419  43.323  14.372
69062W        W41487  37.163   1.433   0.383
69063W        W41488   1.479  16.752  14.219
69064W        W41489  10.288  10.783   0.712
69065W        W41490   6.770   9.911   0.614
69066W        W41491  23.443  40.044  11.258
69067W        W41492  25.913  13.689  11.046
69068W        W41493  22.245  14.208  13.993
69069W        W41494   0.234  18.285   3.176
69070W        W41495  10.998  20.481   2.120
69071W        W41496  23.082  41.302   4.794
69072W        W41497  11.054   3.785   2.766
69073W        W41498  21.514  41.864  14.416
69074W        W41499  43.000  24.608   2.638
69075W        W41500  30.643   2.238   1.198
69076W        W41501  27.069  24.516  14.419
69077W        W41502  37.071  31.437   5.020
69078W        W41503  27.909  43.352  14.972
69079W        W41504  20.642  30.503   2.947
69080W        W41505   2.379   7.222   4.599
69081W        W41506   2.218   7.606   1.262
69082W        W41507   3.923  39.834   4.474
69083W        W41508  35.446  14.136   2.321
69084W        W41509  19.091  10.314  12.537
69085W        W41510  35.013  22.619   0.936
69086W        W41511   2.666  17.137   3.125
69087W        W41512  12.280  12.295  12.074
69088W        W41513  24.713   2.784   0.345
69089W        W41514  27.242  23.775   2.764
69090W        W41515  20.782  32.945   2.279
69091W        W41516  17.044  39.409  13.454
69092W        W41517  33.947  27.499   1.848
69093W        W41518  44.344  24.748  13.394
69094W        W41519  43.106  41.894   2.277
69095W        W41520   3.699  12.565  12.652
69096W        W41521  10.325  19.253   0.862
69097W        W41522  33.359   2.835   1.910
69098W        W41523   9.390  35.452  12.488
69099W        W41524  40.453  14.680   2.371
69100W        W41525  28.970  10.857  11.127
69101W        W41526  24.488  25.573   1.257
69102W        W41527  35.278  24.094  11.950
69103W        W41528  28.488  12.918  12.418
69104W        W41529   9.528  27.502   4.553
69105W        W41530  25.690   7.325  11.903
69106W        W41531  16.048  25.859   1.146
69107W        W41532  44.723  32.077  10.206
69108W        W41533  11.826  28.898  11.567
69109W        W41534  41.880  19.104   3.439
69110W        W41535  27.003   9.496   3.099
69111W        W41536  29.098  38.939  11.916
69112W        W41537  42.554  11.860   0.885
69113W        W41538  24.095  21.700   3.236
69114W        W41539  25.723  15.782  13.044
69115W        W41540   5.266  24.503  12.618
69116W        W41541  32.111  34.480  13.076
69117W        W41542  18.616  13.783   2.355
69118W        W41543  36.509  17.820   3.224
69119W        W41544  27.076  14.952   2.738
69120W        W41545  44.751  11.160   1.710
69121W        W41546  18.445   8.745  12.938
69122W        W41547  32.132  21.494   1.827
69123W        W41548  11.236  15.355  11.163
69124W        W41549  17.273  19.063  13.401
69125W        W41550  13.769   9.419   1.830
69126W        W41551  13.166  44.078  14.926
69127W        W41552  26.244  29.351  12.933
69128W        W41553  35.106  21.660   4.894
69129W        W41554  33.843  32.322  13.305
69130W        W41555  38.559  32.921  12.917
69131W        W41556  28.240  38.992  14.821
69132W        W41557  25.273  31.466   0.344
69133W        W41558  33.352  40.331  12.363
69134W        W41559  12.809  28.983  11.512
69135W        W41560  18.282  39.319   2.209
69136W        W41561  41.336   2.775   4.783
69137W        W41562   6.777   0.416   2.637
69138W        W41563  32.643  44.990  13.980
69139W        W41564  44.204  24.631   3.374
69140W        W41565  39.588   8.173   3.268
69141W        W41566  10.062  28.469  13.328
69142W        W41567   1.731  18.256   3.177
69143W        W41568  21.200  44.171  10.294
69144W        W41569  25.510  23.053   1.580
69145W        W41570  38.687  30.452   4.543
69146W        W41571  14.272  12.095  12.126
69147W        W41572  14.684  32.185   4.521
69148W        W41573  34.435  19.322   4.463
69149W        W41574  24.148  39.451  13.776
69150W        W41575  19.202  35.567   1.806
69151W        W41576  35.131   1.536  12.592
69152W        W41577   0.388  27.512  14.960
69153W        W41578  29.048   5.698  14.479
69154W        W41579  18.739  25.749   1.925
69155W        W41580  40.262  26.728  12.709
69156W        W41581  15.328  20.072  12.580
69157W        W41582  40.797  16.212   4.093
69158W        W41583  21.080  15.611   0.183
69159W        W41584  27.363  21.679   2.957
69160W        W41585  16.781  22.867   0.043
69161W        W41586  36.905  20.666   4.705
69162W        W41587   9.838  33.556  10.279
69163W        W41588  41.064  14.612  14.864
69164W        W41589  29.688  30.405   1.910
69165W        W41590  24.186  22.102   4.591
69166W        W41591  38.372   3.517  11.900
69167W        W41592  19.571  30.039  14.531
69168W        W41593  37.120  25.183   0.730
69169W        W41594  33.900  15.314  11.913
69170W        W41595  38.418  17.072   1.731
69171W        W41596  20.727   5.467   3.646
69172W        W41597  16.118  34.800   0.293
69173W        W41598  33.485  15.903   5.147
69174W        W41599  12.103   7.404  12.344
69175W        W41600  37.305  41.516   4.672
69176W        W41601  33.184  14.744   2.296
69177W        W41602  40.972  18.148   2.117
69178W        W41603  30.928  37.593  11.182
69179W        W41604  32.422  17.766   3.131
69180W        W41605  30.654  15.655  11.906
69181W        W41606   2.376  42.934   4.543
69182W        W41607  31.437   7.397   1.013
69183W        W41608  13.859  34.990  12.366
69184W        W41609  22.057  38.117  13.479
69185W        W41610  18.683  26.071   3.374
69186W        W41611  14.374   0.833  11.401
69187W        W41612  37.409   8.860   2.909
69188W        W41613  27.052  29.689   2.413
69189W        W41614  22.179  39.423   0.307
69190W        W41615  37.672  11.289   9.888
69191W        W41616   4.423  33.157   4.113
69192W        W41617  14.354  20.243   0.321
69193W        W41618  15.429  19.197  12.009
69194W        W41619  43.224  14.109   0.214
69195W        W41620   8.424  23.563  14.346
69196W        W41621  12.704  44.447   2.883
69197W        W41622   0.113  19.059   1.377
69198W        W41623   8.125  28.537  12.925
69199W        W41624  42.274  31.949  11.439
69200W        W41625  42.656  14.538   0.889
69201W        W41626  44.773  29.160  11.710
69202W        W41627  28.492  16.385  12.101
69203W        W41628  36.863  24.752   4.531
69204W        W41629  30.573  32.848  14.558
69205W        W41630  27.931   4.676   0.039
69206W        W41631   3.307   2.199   2.189
69207W        W41632  44.338  30.570  13.074
69208W        W41633   3.894  10.165  11.838
69209W        W41634   6.806   1.467  14.819
69210W        W41635  32.412  40.054  12.549
69211W        W41636  40.862  33.171   2.376
69212W        W41637  17.303  16.562  13.439
69213W        W41638  17.733  30.226  13.945
69214W        W41639  43.904  36.398  12.507
69215W        W41640  29.109  12.640   2.706
69216W        W41641  15.436  10.689  12.055
69217W        W41642  22.211   6.789   2.691
69218W        W41643  36.531  41.612   1.311
69219W        W41644  20.793  39.814  13.419
69220W        W41645  42.761  33.930   1.283
69221W        W41646  42.845  23.152  11.504
69222W        W41647   4.252  27.757  13.851
69223W        W41648  24.783   6.704   3.104
69224W        W41649  36.178  26.096   2.148
69225W        W41650   7.239  14.502  11.512
69226W        W41651  14.355  37.257  13.352
69227W        W41652  11.795  11.724   9.983
69228W        W41653  25.187  17.192   1.898
69229W        W41654  15.256  41.346   3.673
69230W        W41655   6.875  21.993  14.753
69231W        W41656  27.235  40.941   2.337
69232W        W41657  22.386   8.801  12.270
69233W        W41658  27.155  29.112   4.593
69234W        W41659  16.695  31.951  10.916
69235W        W41660  39.862  16.170   3.245
69236W        W41661   5.750  26.539  12.015
69237W        W41662   7.304  11.877  12.446
69238W        W41663   8.153  24.820   3.249
69239W        W41664  36.989  17.740   0.114
69240W        W41665   3.984  20.036  13.929
69241W        W41666   1.507   2.425   3.389
69242W        W41667   6.741  16.330  13.890
69243W        W41668   5.772  22.708  11.314
69244W        W41669  39.225  27.669   3.884
69245W        W41670  16.484  37.200  12.563
69246W        W41671  29.987  28.553   4.122
69247W        W41672   0.891  41.347   0.890
69248W        W41673  31.195   0.807  13.417
69249W        W41674  20.104  42.394  13.417
69250W        W41675  27.455  14.540  13.924
69251W        W41676  25.921  20.657  12.132
69252W        W41677  30.386  23.942   4.448
69253W        W41678   9.770   7.796  14.845
69254W        W41679   1.445  19.206   0.224
69255W        W41680   8.557  39.493   1.779
69256W        W41681  23.007   5.491   2.438
69257W        W41682  18.792  41.507   2.621
69258W        W41683  29.168   5.868   0.459
69259W        W41684  12.922  38.539   0.954
69260W        W41685  40.272   4.717  13.422
69261W        W41686  42.945  37.927  12.767
69262W        W41687  30.783   6.798   0.380
69263W        W41688  21.251  42.567   4.622
69264W        W41689  34.635  14.668   4.651
69265W        W41690  24.581  24.063  10.723
69266W        W41691  10.289   4.611  14.193
69267W        W41692  27.062   1.984   0.855
69268W        W41693  14.995   0.778  12.681
69269W        W41694  25.159  20.049  12.038
69270W        W41695   4.809  14.292   0.953
69271W        W41696  25.909  18.666   4.200
69272W        W41697  20.769  11.284   1.133
69273W        W41698  42.511   1.702   2.822
69274W        W41699  40.884   5.752  10.836
69275W        W41700  38.294  26.866   2.818
69276W        W41701  32.014   8.334  12.747
69277W        W41702  23.388   6.746   4.482
69278W        W41703   0.012  16.149  12.705
69279W        W41704  12.045  32.167   3.881
69280W        W41705  20.505   2.487   1.717
69281W        W41706  32.860  36.371   3.695
69282W        W41707  44.496  36.483   3.157
69283W        W41708  21.275  32.877  11.304
69284W        W41709   6.431  30.336  13.106
69285W        W41710  31.435  26.020   1.975
69286W        W41711   5.515  37.002   4.192
69287W        W41712  25.256   1.261  13.387
69288W        W41713  33.639   8.162  14.918
69289W        W41714  41.485   5.250  12.481
69290W        W41715  34.129  39.488   2.847
69291W        W41716  33.506  12.276   4.180
69292W        W41717  42.277  33.482   3.783
69293W        W41718  33.844  15.263   2.554
69294W        W41719  35.087  21.137  11.829
69295W        W41720  42.522  40.450  13.357
69296W        W41721  24.265  38.301   3.860
69297W        W41722  13.706   9.767  14.582
69298W        W41723  16.187  15.871   3.835
69299W        W41724  16.579  31.419   3.702
69300W        W41725  24.235  35.793   0.822
69301W        W41726   1.891  17.233  12.018
69302W        W41727   5.785  28.108  14.963
69303W        W41728  22.612  13.946   0.737
69304W        W41729  28.241  24.082   3.340
69305W        W41730   7.227  27.571  13.039
69306W        W41731   2.719  20.289  13.071
69307W        W41732   1.393  14.039  11.494
69308W        W41733   5.859  27.929   2.240
69309W        W41734   2.900  26.796   0.268
69310W        W41735  38.124  28.980  14.158
69311W        W41736  31.646  31.974   4.191
69312W        W41737   0.885  39.755   4.431
69313W        W41738  40.040  13.462  11.599
69314W        W41739  19.697   8.287   4.842
69315W        W41740  44.120  41.989  13.378
69316W        W41741  28.859  42.903   2.346
69317W        W41742  40.530  10.660   0.741
69318W        W41743  36.584   1.223  10.806
69319W        W41744  28.972  39.040   2.720
69320W        W41745  12.292  40.353  11.329
69321W        W41746  29.415   7.886   4.974
69322W        W41747  24.165  40.421   1.367
69323W        W41748  36.402  13.165  10.756
69324W        W41749  24.470  22.794  14.063
69325W        W41750   0.869  44.459   2.611
69326W        W41751  27.456   7.712   0.865
69327W        W41752  14.296  29.432  12.397
69328W        W41753  38.196  36.439   3.863
69329W        W41754  44.789  12.999  14.905
69330W        W41755   7.138  29.517  12.955
69331W        W41756  16.269  22.371  11.542
69332W        W41757   5.026  44.865   2.172
69333W        W41758  26.535  36.866   5.101
69334W        W41759  39.487  26.268   3.201
69335W        W41760   6.924  42.522  14.155
69336W        W41761  14.361   6.460  11.181
69337W        W41762  14.535   8.366   1.474
69338W        W41763  31.984  44.030  11.483
69339W        W41764  28.959  12.300  14.075
69340W        W41765   3.443  10.617  11.708
69341W        W41766  42.055   4.534  14.505
69342W        W41767  13.216  17.695   3.260
69343W        W41768   0.410  35.856   0.509
69344W        W41769  43.516  34.008   2.729
69345W        W41770  27.672   9.327  13.525
69346W        W41771  43.441  31.052  10.839
69347W        W41772  30.646  25.018   4.307
69348W        W41773  20.190  21.683  10.468
69349W        W41774   9.530  12.181  10.506
69350W        W41775  29.169  42.016   4.617
69351W        W41776  18.013  30.684   1.438
69352W        W41777  26.062  11.160   4.928
69353W        W41778  23.463  15.505   4.451
69354W        W41779  23.454  36.483   0.356
69355W        W41780  26.405  23.516  10.808
69356W        W41781  30.827  16.370  12.483
69357W        W41782  21.238  16.213  12.872
69358W        W41783   1.079  41.207  10.313
69359W        W41784  23.627  35.023   3.310
69360W        W41785  28.472  41.174   0.997
69361W        W41786   9.707  34.134  14.043
69362W        W41787   2.500  31.085  13.051
69363W        W41788  44.075  10.354   0.005
69364W        W41789  15.700  24.750  12.065
69365W        W41790   6.918   3.286   3.371
69366W        W41791  39.392  15.158  14.516
69367W        W41792  24.554   0.102  13.414
69368W        W41793   8.977  30.462   5.034
69369W        W41794  25.232  35.472  12.400
69370W        W41795  15.810  16.109  12.069
69371W        W41796   6.372   7.504  14.910
69372W        W41797  22.652  35.372   4.568
69373W        W41798   1.850  20.680   0.305
69374W        W41799  10.112  22.713   3.917
69375W        W41800  11.331  29.785  14.308
69376W        W41801  12.105  18.751   1.708
69377W        W41802   3.486  17.557   3.400
69378W        W41803   5.309   3.915   1.944
69379W        W41804  16.427   7.192   0.897
69380W        W41805  25.120   5.196   1.871
69381W        W41806  31.080  39.465   5.565
69382W        W41807  26.494  35.480  11.958
69383W        W41808  39.545  22.301   4.496
69384W        W41809   0.457  20.473  12.627
69385W        W41810   3.470   8.709   3.020
69386W        W41811  21.316  19.315  14.878
69387W        W41812   1.154   9.518  12.144
69388W        W41813  29.375  17.467  13.365
69389W        W41814  11.176   5.265   1.936
69390W        W41815  13.195   7.564  14.331
69391W        W41816  10.824  21.061  14.327
69392W        W41817  36.920  41.757  14.385
69393W        W41818  26.506  23.257   0.551
69394W        W41819  40.209  35.358  14.030
69395W        W41820  20.076  15.561  11.968
69396W        W41821  39.365  13.611  14.852
69397W        W41822  32.603  44.335   3.532
69398W        W41823   5.879  40.509  14.334
69399W        W41824  44.776  30.655   2.591
69400W        W41825  29.387  41.408   1.940
69401W        W41826   8.432   2.386   0.877
69402W        W41827  23.423  34.642   4.260
69403W        W41828  22.007  26.619   3.143
69404W        W41829  27.536  44.007   2.806
69405W        W41830  23.099  42.511  10.736
69406W        W41831  38.380  10.608   4.261
69407W        W41832  20.694   6.140  13.309
69408W        W41833  14.919  38.108  13.068
69409W        W41834  23.197   6.485   0.895
69410W        W41835  34.631  10.166  11.016
69411W        W41836  43.506  24.730  13.373
69412W        W41837  11.162  41.630   0.265
69413W        W41838   4.913  31.790  11.972
69414W        W41839  33.583  28.441  14.912
69415W        W41840  32.561   8.150  10.296
69416W        W41841   3.997  11.234   3.289
69417W        W41842  19.811  24.189  14.830
69418W        W41843  28.009  41.323   0.838
69419W        W41844   6.205  40.183   2.956
69420W        W41845  24.988  35.155   0.943
69421W        W41846  11.840   8.591  12.982
69422W        W41847   3.712  10.143  14.931
69423W        W41848  31.154   3.439   5.049
69424W        W41849  27.911  11.076   2.135
69425W        W41850  36.845   3.442   0.463
69426W        W41851  24.975  40.778   1.453
69427W        W41852  17.780  43.342   4.123
69428W        W41853  11.760  40.238  12.107
69429W        W41854   7.991   8.889   4.332
69430W        W41855  44.569  34.991  12.260
69431W        W41856   2.014  42.002  12.771
69432W        W41857  16.536   7.735   0.927
69433W        W41858  35.509  18.145  12.325
69434W        W41859   9.996  29.224  10.697
69435W        W41860  24.961   8.145  12.548
69436W        W41861  34.325  39.073   3.109
69437W        W41862  11.843  26.679   2.374
69438W        W41863  35.051  10.885   0.396
69439W        W41864  20.745  14.826   1.727
69440W        W41865  14.170  16.734  13.820
69441W        W41866  20.423  21.067  13.584
69442W        W41867  36.366  19.727   4.968
69443W        W41868  41.047  28.020   4.112
69444W        W41869  33.038  23.995   2.705
69445W        W41870  11.632  17.098   1.720
69446W        W41871  12.263   7.411  13.664
69447W        W41872  21.795  14.034  11.542
69448W        W41873  17.170  29.904  12.712
69449W        W41874  39.100  11.709   1.720
69450W        W41875  10.970  24.609  10.344
69451W        W41876  13.812  12.403   0.661
69452W        W41877  34.704   7.294  10.127
69453W        W41878  36.925   1.476  10.520
69454W        W41879  16.716  13.258  11.447
69455W        W41880  38.095  13.504   0.545
69456W        W41881   6.090  32.394   1.263
69457W        W41882  39.902  39.106   3.676
69458W        W41883  27.684  12.750  14.293
69459W        W41884  17.745  14.995   1.896
69460W        W41885  24.056  14.286   1.922
69461W        W41886  23.163  10.784   4.085
69462W        W41887  44.427  16.710   2.237
69463W        W41888  44.988   1.366   4.824
69464W        W41889  17.025   2.988   0.300
69465W        W41890  21.223  27.115   0.270
69466W        W41891  11.133  24.172  13.631
69467W        W41892   4.781   9.374   0.395
69468W        W41893  43.018  24.050   2.737
69469W        W41894  26.668  40.262  10.470
69470W        W41895  21.145  33.014  14.523
69471W        W41896   5.906  12.705  12.824
69472W        W41897  15.489  17.830   0.863
69473W        W41898  30.743  29.062   5.193
69474W        W41899  25.665  14.256  14.514
69475W        W41900  43.870  13.907   2.899
69476W        W41901  29.952   4.780   2.398
69477W        W41902  38.980  22.378   5.319
69478W        W41903  13.647  40.254  10.571
69479W        W41904  43.870  23.394   1.268
69480W        W41905  13.328   5.788   4.134
69481W        W41906  31.105  18.659  12.931
69482W        W41907   8.558  29.579   2.527
69483W        W41908  13.067  42.765  12.173
69484W        W41909  25.490  41.960  12.442
69485W        W41910  41.048   3.176  11.979
69486W        W41911  34.957  16.747   0.790
69487W        W41912   7.428   7.910   2.174
69488W        W41913  17.730  36.048   1.621
69489W        W41914  40.527  30.691  13.838
69490W        W41915  30.145  19.089  12.546
69491W        W41916  43.821  22.229  12.688
69492W        W41917  42.854  31.518  14.293
69493W        W41918  44.377  44.784  14.850
69494W        W41919  28.050  19.030   4.347
69495W        W41920  23.502  32.493  13.289
69496W        W41921  41.822  15.806   4.085
69497W        W41922  34.146  40.902   3.267
69498W        W41923   6.412   2.468   2.364
69499W        W41924  44.997  30.597   5.047
69500W        W41925  40.949  42.104  13.351
69501W        W41926  34.527  18.311  12.050
69502W        W41927  10.996  14.120   2.982
69503W        W41928   1.262  20.488  13.917
69504W        W41929   1.951   9.129  13.009
69505W        W41930  40.524  24.694   1.881
69506W        W41931   4.969  30.465   1.856
69507W        W41932  23.998  27.690   2.296
69508W        W41933  31.211  21.223  12.120
69509W        W41934   4.317  11.741   2.303
69510W        W41935  25.063  10.608   1.283
69511W        W41936   0.153  34.574   3.019
69512W        W41937  32.062  10.145   3.473
69513W        W41938  40.327  16.041  10.980
69514W        W41939  36.958  25.074   1.313
69515W        W41940  18.299  35.950  14.108
69516W        W41941  13.132  10.961  10.679
69517W        W41942  13.573  31.052  12.108
69518W        W41943  17.635  36.620   1.717
69519W        W41944   9.168  39.399   1.161
69520W        W41945  33.025  43.399  10.650
69521W        W41946  43.220  21.632  10.652
69522W        W41947  41.800   6.957  11.597
69523W        W41948  25.214  28.155  10.681
69524W        W41949  10.877  23.163  10.914
69525W        W41950  10.790  13.057   0.377
69526W        W41951  30.036   2.033   4.776
69527W        W41952  39.000  28.052  13.853
69528W        W41953   8.650  13.100   0.167
69529W        W41954   6.166  38.922   0.210
69530W        W41955  42.389  19.092   1.056
69531W        W41956   1.750  44.944   4.655
69532W        W41957  17.829  19.794  12.477
69533W        W41958  15.343   9.434  12.262
69534W        W41959  28.919  13.062  14.362
69535W        W41960  43.410  15.295   3.697
69536W        W41961  37.585  22.816   4.154
69537W        W41962  17.612  28.877  14.315
69538W        W41963  13.628  28.611  13.550
69539W        W41964  44.919  44.907   3.805
69540W        W41965  22.541  16.368   3.825
69541W        W41966  16.690  11.881  10.347
69542W        W41967  14.742  35.472   4.197
69543W        W41968  37.068  33.483  11.858
69544W        W41969   8.398  41.079  13.928
69545W        W41970  20.561  17.228  12.626
69546W        W41971  27.745  32.384   4.829
69547W        W41972   5.934  32.343  13.290
69548W        W41973  20.100   4.623   3.705
69549W        W41974  40.536   5.166  12.533
69550W        W41975  19.116  14.438  14.883
69551W        W41976  37.715   8.921   4.676
69552W        W41977  35.186   0.385  10.653
69553W        W41978  36.873  42.945  14.572
69554W        W41979  16.520  27.055   2.236
69555W        W41980   3.878  24.488  14.962
69556W        W41981  36.675  38.541  12.374
69557W        W41982  41.834  35.015  10.629
69558W        W41983   3.983   9.859   0.269
69559W        W41984  22.711  21.557   0.207
69560W        W41985  35.524  18.111   0.810
69561W        W41986  44.334   5.216  13.893
69562W        W41987  35.481  19.040  11.845
69563W        W41988  42.269  44.459   3.275
69564W        W41989  17.168  34.030  12.533
69565W        W41990  24.338  36.627   3.350
69566W        W41991  24.968  43.225  12.077
69567W        W41992  27.220  24.076   0.009
69568W        W41993   1.134   3.679   0.776
69569W        W41994   4.113  44.735  13.487
69570W        W41995  36.540  43.341  12.073
69571W        W41996  27.196  25.859   0.831
69572W        W41997  29.807   9.346  10.761
69573W        W41998  26.084  32.729  11.914
69574W        W41999  31.487  21.968  14.876
69575W        W42000  42.842  31.017   1.370
69576W        W42001   2.461  10.663   3.223
69577W        W42002  11.858  34.771  13.285
69578W        W42003  29.683  26.225   1.308
69579W        W42004  41.292   3.348   3.446
69580W        W42005  23.882  22.435  10.249
69581W        W42006  13.436  12.605   4.096
69582W        W42007  25.579  39.043  13.778
69583W        W42008  17.585   5.174  12.906
69584W        W42009  26.707   4.634   2.280
69585W        W42010  31.600   6.368   3.318
69586W        W42011  40.764  23.689  14.070
69587W        W42012  13.528  27.486   4.399
69588W        W42013  42.265  42.113  14.846
69589W        W42014   4.344  15.165  13.102
69590W        W42015  34.497   7.252  13.959
69591W        W42016  24.138  37.848  13.793
69592W        W42017   4.832  13.538   3.932
69593W        W42018  32.087  16.079  10.971
69594W        W42019  13.777  40.181   1.859
69595W        W42020   5.810   4.891  14.426
69596W        W42021  23.290  20.997  14.433
69597W        W42022   1.683  23.764  11.647
69598W        W42023  21.054  38.182   4.234
69599W        W42024  33.094  29.467   0.271
69600W        W42025  30.892   6.177  14.463
69601W        W42026  43.785  38.817  11.880
69602W        W42027   3.205  42.898  14.905
69603W        W42028  16.734   3.310  13.062
69604W        W42029  22.194  14.454  13.364
69605W        W42030  39.673  31.668   2.017
69606W        W42031  34.599   9.836  13.475
69607W        W42032  37.475   7.791  10.885
69608W        W42033  16.486  32.842   1.463
69609W        W42034   8.618  33.470   0.835
69610W        W42035  10.280  32.647  12.983
69611W        W42036  32.392   7.503   4.380
69612W        W42037   2.475   2.328   3.755
69613W        W42038  25.655  16.111   0.808
69614W        W42039  14.405   0.222   2.261
69615W        W42040  37.773  13.974  13.383
69616W        W42041  33.847  44.682   1.343
69617W        W42042  27.249  22.208  11.832
69618W        W42043   1.883  35.837  12.929
69619W        W42044   2.974  22.384   2.820
69620W        W42045  31.603  32.522   1.846
69621W        W42046  20.161  26.548  13.484
69622W        W42047   6.047   4.706   4.728
69623W        W42048  20.035  15.763  13.431
69624W        W42049  44.053  20.741   3.407
69625W        W42050  21.441  30.992   0.354
69626W        W42051  39.268  19.248   4.349
69627W        W42052  15.642  19.279  12.955
69628W        W42053  18.297  38.895   4.609
69629W        W42054  15.010   4.644   4.041
69630W        W42055  42.613  43.991   1.794
69631W        W42056  24.462  16.534   3.280
69632W        W42057   0.843  12.755   1.672
69633W        W42058  26.956  29.717  10.433
69634W        W42059  12.097   1.676  10.889
69635W        W42060   8.218  39.518   4.122
69636W        W42061  39.180   0.854   1.757
69637W        W42062  14.240  24.926   4.999
69638W        W42063  40.312  40.982   1.970
69639W        W42064   1.608  42.227  12.531
69640W        W42065  11.536  26.516  12.780
69641W        W42066  18.026  33.964   0.016
69642W        W42067  38.820  30.393   4.046
69643W        W42068  30.164  30.509   0.850
69644W        W42069   2.684  37.847  12.466
69645W        W42070  36.856   6.872   0.672
69646W        W42071  40.736  16.314   0.264
69647W        W42072  13.062  37.113   2.231
69648W        W42073  17.990  33.459  11.924
69649W        W42074  40.252  25.730   4.316
69650W        W42075  18.637  36.622  10.640
69651W        W42076  36.931  28.652   2.718
69652W        W42077  15.685  30.172   4.332
69653W        W42078  27.578   5.185  11.478
69654W        W42079  39.951  44.931  11.857
69655W        W42080  14.218   7.983  11.921
69656W        W42081   4.600  28.571   2.646
69657W        W42082  20.608  26.640   2.309
69658W        W42083  29.422   6.799  11.533
69659W        W42084   1.452  41.281  14.738
69660W        W42085  34.759  43.445   2.199
69661W        W42086  41.983   5.716  11.258
69662W        W42087  38.487  37.501  14.518
69663W        W42088  39.957  43.087  11.623
69664W        W42089  38.487   7.611  12.938
69665W        W42090   8.636  40.097   0.614
69666W        W42091  15.700   4.452  14.114
69667W        W42092  15.236  21.141   0.650
69668W        W42093  34.056  44.434  14.763
69669W        W42094  40.013  21.177   5.436
69670W        W42095  35.349  42.489  13.007
69671W        W42096  25.919  41.815  12.693
69672W        W42097  20.907  34.497  13.130
69673W        W42098  42.729  44.013   4.517
69674W        W42099  30.395   3.372  12.575
69675W        W42100  15.664   7.830  14.028
69676W        W42101  17.535  15.366  12.856
69677W        W42102  21.113  23.524  11.465
69678W        W42103  17.798  13.737   0.724
69679W        W42104  37.075  36.062   2.361
69680W        W42105  36.957   6.211   3.266
69681W        W42106   6.872  40.046   3.569
69682W        W42107  37.451   7.109   5.147
69683W        W42108  44.272  11.992  13.007
69684W        W42109  18.822   6.598   2.273
69685W        W42110  39.137   8.753  10.707
69686W        W42111  36.802  17.190   3.618
69687W        W42112  39.283  35.022  11.962
69688W        W42113  11.763  34.377   3.078
69689W        W42114  16.764   7.508   1.379
69690W        W42115  42.787   0.167   2.309
69691W        W42116  20.241  12.553   4.794
69692W        W42117  13.826  42.977  10.769
69693W        W42118  36.150  22.969   1.743
69694W        W42119  30.512   7.469   2.318
69695W        W42120  27.021  19.301   1.207
69696W        W42121   3.895   3.786   2.425
69697W        W42122   4.266  35.426   1.730
69698W        W42123   3.914  25.025  11.593
69699W        W42124   0.920  15.421  12.388
69700W        W42125  21.194  36.131  13.318
69701W        W42126  35.820  35.825  13.376
69702W        W42127  17.377  18.382   4.158
69703W        W42128  34.672  27.820  11.507
69704W        W42129  24.045  38.457   2.334
69705W        W42130  13.835  41.442   3.743
69706W        W42131  16.037  32.022   1.155
69707W        W42132  30.504  35.618  11.584
69708W        W42133  26.161  18.547  13.959
69709W        W42134   4.344   2.274  12.472
69710W        W42135  33.275  17.626   0.405
69711W        W42136  22.744  42.934   3.614
69712W        W42137  27.907  10.480  11.577
69713W        W42138  18.597   3.491   3.148
69714W        W42139   4.032  36.285  13.630
69715W        W42140   4.818   7.762   1.962
69716W        W42141  35.595  33.052  10.645
69717W        W42142  33.630  11.671   4.639
69718W        W42143  10.783   2.109  14.998
69719W        W42144  40.319  14.930   1.942
69720W        W42145  38.972  14.843   0.926
69721W        W42146  19.869   5.357  13.825
69722W        W42147  37.446  42.988   3.669
69723W        W42148   0.836  34.112  13.387
69724W        W42149  22.790   0.416   4.454
69725W        W42150  17.648  26.986  11.604
69726W        W42151  18.666  18.193  11.987
69727W        W42152  18.531  13.978  12.560
69728W        W42153   2.485  20.106  14.241
69729W        W42154  33.477  11.813  13.265
69730W        W42155   8.873  28.217  14.389
69731W        W42156   7.011  18.218   2.326
69732W        W42157  13.212  22.759  14.987
69733W        W42158  16.851  22.871   0.553
69734W        W42159   2.759  33.308   3.766
69735W        W42160  16.337  27.545   2.311
69736W        W42161  18.747  38.792   3.730
69737W        W42162  38.750  13.272  14.299
69738W        W42163  30.025  40.478  11.517
69739W        W42164  33.921  10.633  14.971
69740W        W42165  37.830  36.392   4.217
69741W        W42166  44.784  27.150   3.707
69742W        W42167   4.645  29.038   1.913
69743W        W42168  37.062   5.324  14.779
69744W        W42169   6.720   2.570  12.611
69745W        W42170  34.995  16.504   1.272
69746W        W42171   0.134   8.778  10.747
69747W        W42172  18.305  10.185   0.455
69748W        W42173  38.896  40.250   2.538
69749W        W42174   7.690   1.741   5.177
69750W        W42175   3.610   0.504  14.749
69751W        W42176  28.656   5.701   2.850
69752W        W42177  26.496  40.009  14.906
69753W        W42178  15.465  11.443  11.180
69754W        W42179  25.115  20.722   2.790
69755W        W42180  31.712  22.285   1.002
69756W        W42181  31.528  28.916   3.763
69757W        W42182  17.331   7.368   2.276
69758W        W42183  12.314  28.091  13.996
69759W        W42184   6.807  33.366  12.531
69760W        W42185  32.453  33.071  12.507
69761W        W42186  41.853   4.893  10.341
69762W        W42187  27.159  41.488  12.108
69763W        W42188  21.522  11.498   3.850
69764W        W42189   5.942  27.999  12.998
69765W        W42190  25.979  31.150   1.719
69766W        W42191   8.404   5.422   3.219
69767W        W42192  41.975  18.216  13.883
69768W        W42193  10.142  38.175  14.412
69769W        W42194  38.374  34.842  13.540
69770W        W42195  16.770   8.607  13.526
69771W        W42196   0.249  27.056  14.750
69772W        W42197  13.765  41.852   4.774
69773W        W42198  17.002  22.173  13.739
69774W        W42199  17.646  28.067  11.637
69775W        W42200  26.465  36.599  13.380
69776W        W42201   0.347  36.892  14.877
69777W        W42202  33.938  21.942  14.008
69778W        W42203  30.166  13.214   3.950
69779W        W42204  22.720  15.788   5.098
69780W        W42205  41.237  34.856   3.303
69781W        W42206  18.036  15.702   3.336
69782W        W42207  32.528  39.579   0.266
69783W        W42208  33.523  13.309  10.050
69784W        W42209  25.259  20.024   1.824
69785W        W42210  19.220  17.856  14.287
69786W        W42211  36.094  18.123  10.701
69787W        W42212  30.357  19.309   4.098
69788W        W42213  23.587  31.424  13.535
69789W        W42214  39.903  27.652   2.624
69790W        W42215  33.990  15.669  11.051
69791W        W42216  18.563   4.406   1.882
69792W        W42217  36.289  20.007  12.048
69793W        W42218   4.468  23.472  13.315
69794W        W42219  28.521  43.111  14.545
69795W        W42220  41.480  33.852   3.350
69796W        W42221  21.121  15.099   3.712
69797W        W42222  31.684   9.077  10.711
69798W        W42223  11.618  38.483  11.160
69799W        W42224   0.801   1.875   0.510
69800W        W42225  40.497  27.009  10.816
69801W        W42226  28.213   8.499  14.776
69802W        W42227  11.146  11.075  11.483
69803W        W42228  36.436  18.990   2.548
69804W        W42229  34.156  25.601   1.839
69805W        W42230  42.298  38.132  10.718
69806W        W42231  22.498  43.826   4.117
69807W        W42232  44.018  14.766  12.046
69808W        W42233   6.944  43.993   1.150
69809W        W42234   7.563  44.498  11.510
69810W        W42235  21.323  43.908  11.943
69811W        W42236  44.843   8.761  13.832
69812W        W42237  41.743  41.752   2.832
69813W        W42238  22.739  26.442  12.501
69814W        W42239   7.389  15.046  14.677
69815W        W42240  29.037  15.225   0.925
69816W        W42241  29.657  18.710   1.690
69817W        W42242  21.789  33.981   0.238
69818W        W42243  41.540  35.096   5.090
69819W        W42244   1.825  35.829   0.745
69820W        W42245  30.679  21.692   0.082
69821W        W42246  12.576  41.767  13.753
69822W        W42247   1.377   9.944  11.985
69823W        W42248  36.823  23.167  13.864
69824W        W42249  36.157   6.633   4.966
69825W        W42250  41.767  21.530   2.211
69826W        W42251  27.764  13.072  11.183
69827W        W42252  21.706   0.934   1.942
69828W        W42253  31.652  10.823   2.827
69829W        W42254  32.036  25.744  11.103
69830W        W42255  39.961  12.707   1.752
69831W        W42256  12.742   7.145   4.846
69832W        W42257  13.126  31.033  12.580
69833W        W42258  22.635  25.670   2.300
69834W        W42259  21.082   0.297  10.751
69835W        W42260   6.207  44.620   2.263
69836W        W42261  31.579  36.495  11.648
69837W        W42262   2.691  12.078  11.113
69838W        W42263  23.758  23.998   4.269
69839W        W42264  41.618  16.830  14.642
69840W        W42265   8.302  24.740  11.418
69841W        W42266  12.427  37.057  12.199
69842W        W42267  23.002   0.710   4.814
69843W        W42268  19.299  24.685  14.025
69844W        W42269  20.642  26.121   0.728
69845W        W42270  27.716  13.175   1.273
69846W        W42271   0.479  42.456  10.574
69847W        W42272   4.142  22.755  13.998
69848W        W42273  33.214  11.775   0.399
69849W        W42274  12.629  41.446  13.026
69850W        W42275  15.569  26.445  11.012
69851W        W42276   5.343  16.163   3.635
69852W        W42277  34.421   0.340   0.055
69853W        W42278  39.047  39.336   1.713
69854W        W42279  26.018  10.174  13.433
69855W        W42280  14.734   6.799   4.429
69856W        W42281  36.111  40.621   3.251
69857W        W42282  29.008  35.555  12.571
69858W        W42283  22.296  26.176   0.352
69859W        W42284  19.266  29.151  13.511
69860W        W42285  34.019   1.851   4.222
69861W        W42286  40.616  25.706   3.947
69862W        W42287  24.590   0.075   3.247
69863W        W42288  19.586   1.762   1.051
69864W        W42289  22.514  44.901   0.482
69865W        W42290  31.014  37.369  12.576
69866W        W42291   8.384  16.995   3.426
69867W        W42292  42.713  37.888  13.239
69868W        W42293  21.816  26.668  10.067
69869W        W42294  44.923  15.992   0.913
69870W        W42295  18.764  42.462  13.434
69871W        W42296  35.490  33.974   0.259
69872W        W42297  40.752  38.785  11.148
69873W        W42298   6.943  24.186   3.680
69874W        W42299  41.970  25.103   1.426
69875W        W42300  43.097  10.045   9.866
69876W        W42301   8.460  34.129   3.103
69877W        W42302  11.267  25.153   1.262
69878W        W42303  28.101  14.884  13.064
69879W        W42304  27.130  43.757  11.329
69880W        W42305  43.573   5.061   0.495
69881W        W42306  31.479  40.882  10.648
69882W        W42307  41.960   1.762  11.113
69883W        W42308  21.269  30.129  12.524
69884W        W42309  44.010  21.597  11.140
69885W        W42310  41.382  13.438   1.681
69886W        W42311  29.834  37.645  12.098
69887W        W42312  32.491  44.015   2.234
69888W        W42313   5.905   1.166   4.270
69889W        W42314  36.969  17.552   1.063
69890W        W42315  28.815   4.716  11.687
69891W        W42316  41.505  42.963  11.397
69892W        W42317  29.354  23.638   3.403
69893W        W42318  13.694  42.231   0.794
69894W        W42319  15.749  27.728   0.849
69895W        W42320  31.172   1.409  11.555
69896W        W42321  33.203  12.228  13.897
69897W        W42322  20.793   0.252   1.185
69898W        W42323   0.614  38.808   2.627
69899W        W42324  34.892  31.118   3.290
69900W        W42325  14.535  42.987   1.486
69901W        W42326  32.488  30.470   0.932
69902W        W42327   5.291  33.430   2.753
69903W        W42328  31.686   4.436  10.766
69904W        W42329   7.650   2.753   1.808
69905W        W42330  21.525  38.619  14.415
69906W        W42331  33.343   7.725  11.185
69907W        W42332  18.278  24.245   2.458
69908W        W42333   2.309  43.996  10.695
69909W        W42334  30.048  27.242   1.041
69910W        W42335  32.909   0.240   2.224
69911W        W42336  19.928  14.553   1.438
69912W        W42337  22.182  18.524  10.677
69913W        W42338  30.527   2.303  11.533
69914W        W42339  24.558  37.701  10.678
69915W        W42340   6.814  14.414   3.613
69916W        W42341  40.793  43.705   4.067
69917W        W42342  22.576  29.147  10.721
69918W        W42343   4.106   9.357  11.279
69919W        W42344  23.651  25.233  13.342
69920W        W42345  32.506   0.907  13.633
69921W        W42346  43.428  12.217   2.345
69922W        W42347   9.766  11.712   2.330
69923W        W42348  23.807  22.826   2.714
69924W        W42349  42.958  33.763   3.190
69925W        W42350  10.146  21.590   0.374
69926W        W42351  32.012   3.392  11.226
69927W        W42352  19.266  19.387  12.340
69928W        W42353  11.378  17.268   0.343
69929W        W42354   2.285  42.743  10.250
69930W        W42355  30.160  38.958  13.899
69931W        W42356  32.362   0.962   3.234
69932W        W42357  19.341  43.759   2.109
69933W        W42358  35.066  23.791   2.222
69934W        W42359  19.077  28.630  11.516
69935W        W42360  14.113  20.180  13.447
69936W        W42361   2.894  39.017  13.043
69937W        W42362  11.293  13.314   4.732
69938W        W42363   7.670  16.273   3.232
69939W        W42364  17.184  10.182   5.037
69940W        W42365  19.540  21.077  14.243
69941W        W42366  29.703  38.663   5.344
69942W        W42367  27.252  22.523   1.518
69943W        W42368  42.862  18.069  12.349
69944W        W42369  16.673   0.730  11.713
69945W        W42370   9.192   9.354   3.662
69946W        W42371  14.374  41.479  14.791
69947W        W42372  42.191   1.505   3.378
69948W        W42373  14.826   5.850   4.384
69949W        W42374  43.846  29.051  10.673
69950W        W42375  33.870  39.060  10.202
69951W        W42376  29.555  39.993   4.574
69952W        W42377   2.407   1.369   2.779
69953W        W42378   4.739  35.151   4.147
69954W        W42379  14.716   2.523  11.030
69955W        W42380  21.690  44.075  10.567
69956W        W42381  33.379   1.499  11.031
69957W        W42382  30.084  34.380  13.766
69958W        W42383   3.388  36.599   4.967
69959W        W42384   9.364  18.543   2.365
69960W        W42385  40.850  37.907   3.243
69961W        W42386  17.344  35.570   3.807
69962W        W42387  16.674  32.875  11.175
69963W        W42388   7.488  13.313  13.408
69964W        W42389  36.645   6.330   0.752
69965W        W42390  18.178  41.347   0.390
69966W        W42391  40.785   2.870   2.324
69967W        W42392  14.568  11.299  12.879
69968W        W42393  18.113  23.138   3.596
69969W        W42394  11.052  44.880  14.797
69970W        W42395  22.808  34.623   9.986
69971W        W42396  13.296  36.363  13.261
69972W        W42397  37.024  22.031   3.187
69973W        W42398  24.298  36.633  11.174
69974W        W42399  41.921  41.021  13.949
69975W        W42400   5.368  16.792  10.385
69976W        W42401  30.542   1.535   0.323
69977W        W42402  21.168  40.379  14.808
69978W        W42403  39.333  43.040   4.039
69979W        W42404  38.984  44.575   4.535
69980W        W42405   8.593   5.936   1.880
69981W        W42406   1.504  38.817  10.976
69982W        W42407  32.476  34.123  13.426
69983W        W42408  30.383  28.590  12.386
69984W        W42409  25.231  36.581   1.847
69985W        W42410   3.811  39.812  11.488
69986W        W42411  40.820   4.715  11.368
69987W        W42412  34.737  21.715   0.488
69988W        W42413  29.038  13.567  14.273
69989W        W42414  36.544   4.001  14.823
69990W        W42415  24.600  23.348   0.301
69991W        W42416  10.211   1.865  13.583
69992W        W42417  34.008   1.568  13.975
69993W        W42418  32.643   3.004   3.631
69994W        W42419  20.183  44.828   2.691
69995W        W42420  40.040  18.526   0.934
69996W        W42421   8.659  27.915   0.175
69997W        W42422  41.339  10.998   0.717
69998W        W42423   0.804   6.901   0.232
69999W        W42424  25.191  23.717   5.029
70000W        W42425  26.600  19.782  14.987
70001W        W42426  33.594  33.621   0.118
70002W        W42427  38.843   7.623   3.702
70003W        W42428   6.846  13.412  11.135
70004W        W42429  15.514  25.640  14.315
70005W        W42430   7.265  35.393   0.389
70006W        W42431  42.188  39.815   0.385
70007W        W42432   8.926  38.137  14.006
70008W        W42433  36.016  12.797   1.058
70009W        W42434  33.019  34.417  12.582
70010W        W42435  19.941  14.090   3.602
70011W        W42436   4.963  26.420  14.585
70012W        W42437  43.813  33.927   1.298
70013W        W42438  15.844  24.021  13.368
70014W        W42439   8.255  24.583  12.369
70015W        W42440   4.435  41.986   2.325
70016W        W42441  19.634  11.650   0.728
70017W        W42442  33.474  39.890   3.768
70018W        W42443  20.393   3.146   3.712
70019W        W42444  24.163  18.882  11.322
70020W        W42445   1.892  10.150  12.819
70021W        W42446  39.009  32.695   2.344
70022W        W42447  36.160  32.506   1.468
70023W        W42448   0.322  15.261   1.184
70024W        W42449  25.155  11.775   3.072
70025W        W42450  20.647  29.342   0.292
70026W        W42451   1.255   0.880  11.994
70027W        W42452  18.724   7.326  10.764
70028W        W42453  38.474  27.401   1.721
70029W        W42454   6.277  16.144  13.803
70030W        W42455  25.110  13.245  13.954
70031W        W42456  16.072  34.072  12.547
70032W        W42457  38.903  40.334  10.715
70033W        W42458   3.158  39.513   0.723
70034W        W42459   3.663  17.532   2.877
70035W        W42460  33.655  37.552   2.689
70036W        W42461  38.007   6.936   4.631
70037W        W42462  42.650  10.237  12.829
70038W        W42463  40.533  29.516   1.018
70039W        W42464  32.617  44.791   3.754
70040W        W42465  17.390   5.775  11.535
70041W        W42466  34.970  42.081   1.705
70042W        W42467  13.603  16.078  10.209
70043W        W42468  12.867  36.336  12.522
70044W        W42469  29.418  24.823  11.082
70045W        W42470  20.053  20.745  12.435
70046W        W42471  30.733   5.003   1.328
70047W        W42472  43.891  22.492   2.402
70048W        W42473  13.723  43.971   4.551
70049W        W42474   1.541  43.924   3.044
70050W        W42475   8.378   0.098   0.422
70051W        W42476  37.995  34.333  10.386
70052W        W42477   6.503  38.494  12.114
70053W        W42478  18.785  16.613   4.264
70054W        W42479  25.633  10.258   0.934
70055W        W42480  40.265   1.599   0.001
70056W        W42481  21.795  31.330  14.042
70057W        W42482  44.879  27.180  12.120
70058W        W42483  27.629  20.539   1.502
70059W        W42484   1.234  32.895   4.603
70060W        W42485  35.120  17.227  13.936
70061W        W42486  30.502  23.472  13.934
70062W        W42487  26.352  27.188  14.181
70063W        W42488  44.835  28.171   3.663
70064W        W42489   1.157  15.642  10.625
70065W        W42490  13.363  15.594  11.971
70066W        W42491  39.800  36.967   2.321
70067W        W42492  10.605  17.854   2.155
70068W        W42493  25.716  31.555  12.689
70069W        W42494   8.289  12.015  13.332
70070W        W42495  14.754  26.075  11.656
70071W        W42496  38.461  38.610  12.538
70072W        W42497  21.535  22.642   4.703
70073W        W42498  16.289  41.451  12.514
70074W        W42499  42.835  24.760   3.124
70075W        W42500   4.970  34.609   0.787
70076W        W42501  30.419  13.722  10.600
70077W        W42502  40.304  10.029   4.955
70078W        W42503  31.427   3.146   2.414
70079W        W42504  25.581  23.144   2.600
70080W        W42505  41.828  17.560  11.426
70081W        W42506  35.959   2.996   1.768
70082W        W42507  25.148   1.854  13.358
70083W        W42508  28.487  17.920   2.865
70084W        W42509  23.783  36.278  11.950
70085W        W42510  11.623  16.077  12.360
70086W        W42511  39.420  12.900   1.130
70087W        W42512  12.699  30.146  13.808
70088W        W42513  38.483   1.765   3.642
70089W        W42514   2.658  37.987   4.711
70090W        W42515  19.840   5.362  13.282
70091W        W42516   5.915  34.771   4.197
70092W        W42517   7.228  20.668   0.890
70093W        W42518   9.728  42.411   0.750
70094W        W42519   4.942   7.800  12.637
70095W        W42520  14.901  42.970  11.633
70096W        W42521  36.461  31.510   1.411
70097W        W42522  30.018  16.565  10.566
70098W        W42523  40.158  27.444   1.280
70099W        W42524  37.954  14.370   1.671
70100W        W42525  33.108  37.547   2.326
70101W        W42526  24.508  11.291  13.426
70102W        W42527  29.508  38.438   1.275
70103W        W42528  18.742  17.056   2.838
70104W        W42529   4.716   3.537   4.238
70105W        W42530   1.815  17.693   4.198
70106W        W42531  15.202  19.810  14.742
70107W        W42532  32.456  29.678   4.708
70108W        W42533  35.166  17.565  14.781
70109W        W42534  36.323  18.679   2.163
70110W        W42535  22.586  23.879   1.810
70111W        W42536   0.148   8.392   0.827
70112W        W42537  33.582  26.773   4.254
70113W        W42538   0.645  29.245  11.666
70114W        W42539  44.030  15.679  11.887
70115W        W42540  37.864  25.827  10.646
70116W        W42541  17.331  27.200   3.640
70117W        W42542  21.581  37.557  10.568
70118W        W42543  34.213   0.019   1.490
70119W        W42544  24.095   2.170  12.474
70120W        W42545  33.977  34.433   1.252
70121W        W42546  16.638  20.231   3.303
70122W        W42547  31.456  21.123  10.274
70123W        W42548  19.123   9.328  14.442
70124W        W42549   3.196  31.548  11.516
70125W        W42550  16.641  10.906  10.661
70126W        W42551  19.120  18.510  13.830
70127W        W42552   2.007  41.962  12.255
70128W        W42553   6.287  36.587   3.383
70129W        W42554  12.232  24.458   0.799
70130W        W42555  15.133   3.396   5.013
70131W        W42556  34.270  25.609   2.354
70132W        W42557  27.490  42.352   3.157
70133W        W42558  25.599  11.780   2.752
70134W        W42559  32.428   8.928   4.072
70135W        W42560  32.595  14.671  10.591
70136W        W42561  30.201   7.795   0.368
70137W        W42562  18.341  41.298   2.632
70138W        W42563  15.289  28.929   3.717
70139W        W42564   7.511  30.171  12.431
70140W        W42565  14.074  21.158   2.773
70141W        W42566  38.532   9.130   3.864
70142W        W42567  27.127   3.869  14.034
70143W        W42568  38.770  17.834   3.656
70144W        W42569  41.828  12.876  12.903
70145W        W42570  25.281  39.430   4.293
70146W        W42571  15.284  32.950   2.658
70147W        W42572  27.996  36.576  13.356
70148W        W42573  38.502  24.129   1.297
70149W        W42574  11.653   7.624  11.095
70150W        W42575  10.747   6.148  10.526
70151W        W42576   5.850  10.421  10.606
70152W        W42577  22.799  22.067  12.624
70153W        W42578   8.483  35.855  11.721
70154W        W42579  41.427  10.381  13.305
70155W        W42580  22.676  44.892  13.950
70156W        W42581  39.990   0.970  14.691
70157W        W42582  14.265  37.114  12.362
70158W        W42583  33.354  22.006   4.223
70159W        W42584  42.498  22.230  10.037
70160W        W42585  29.591  39.295  13.299
70161W        W42586   0.051  34.671  12.229
70162W        W42587  43.817  34.805  12.544
70163W        W42588  21.570   7.950  10.778
70164W        W42589  37.544  41.986  12.505
70165W        W42590  26.048   1.872   4.657
70166W        W42591   2.682  39.753   1.277
70167W        W42592  13.372  40.441  12.618
70168W        W42593  32.063  21.717  13.612
70169W        W42594   2.642   3.869  10.561
70170W        W42595   0.208  22.092   1.352
70171W        W42596  15.054  33.693   1.450
70172W        W42597  13.685   8.001  11.942
70173W        W42598  41.099  33.884  12.275
70174W        W42599  34.488  30.955  12.531
70175W        W42600  25.216  13.728  12.996
70176W        W42601  21.665   8.414  12.887
70177W        W42602  41.866  21.300   4.670
70178W        W42603  25.213  36.047   1.859
70179W        W42604  39.029  29.646  11.805
70180W        W42605  20.989  19.046  12.520
70181W        W42606  16.688  10.718   1.484
70182W        W42607  37.377  36.734   2.861
70183W        W42608  17.220  17.686   0.268
70184W        W42609   4.491  36.824   3.262
70185W        W42610  36.593  34.974   0.253
70186W        W42611  18.544   9.256   0.257
70187W        W42612  26.682  41.150   5.263
70188W        W42613  37.937   1.376   2.366
70189W        W42614  15.335  32.976  10.215
70190W        W42615   5.726  37.038   0.424
70191W        W42616  11.234  22.108   5.092
70192W        W42617  37.977   2.294  10.692
70193W        W42618  20.271  34.930  11.546
70194W        W42619  44.545  14.215   0.666
70195W        W42620  35.627  14.082  13.007
70196W        W42621  14.408  42.951   5.104
70197W        W42622  26.029  40.846   0.746
70198W        W42623   8.703  32.103  12.042
70199W        W42624   9.873   3.628   1.574
70200W        W42625  13.111  11.592   1.799
70201W        W42626  39.411  11.853   1.225
70202W        W42627  26.172  34.410   1.022
70203W        W42628   4.832  23.196   4.619
70204W        W42629  22.686  11.672  14.939
70205W        W42630  18.300  17.170  10.907
70206W        W42631  23.916  41.907   4.001
70207W        W42632  41.501  17.654   0.084
70208W        W42633   2.543  33.381   0.753
70209W        W42634  27.732  14.060   4.802
70210W        W42635   2.282  26.951   4.802
70211W        W42636  36.983  26.466  11.614
70212W        W42637  17.138  16.714   3.914
70213W        W42638  29.563   1.820   0.284
70214W        W42639  32.678  41.997  11.152
70215W        W42640  11.831  25.553  12.298
70216W        W42641   7.413  32.425   1.781
70217W        W42642   1.939  20.771   3.158
70218W        W42643  31.665   3.852  13.365
70219W        W42644   7.939   7.482  13.491
70220W        W42645   1.005   2.379  10.661
70221W        W42646  25.216  20.473   3.220
70222W        W42647   1.472  40.959  11.546
70223W        W42648  31.019  44.798  12.911
70224W        W42649  14.966   7.810   2.322
70225W        W42650  22.198  30.732   2.322
70226W        W42651   3.667  40.464  13.859
70227W        W42652  19.583  25.415   1.363
70228W        W42653  44.839  24.026   0.388
70229W        W42654  19.830  22.217  12.573
70230W        W42655  11.715  16.182  11.483
70231W        W42656   9.146  33.211   4.570
70232W        W42657  26.567  18.327   2.239
70233W        W42658  33.909  41.581  14.361
70234W        W42659  16.702   3.748   4.928
70235W        W42660  15.638  16.896  11.450
70236W        W42661   3.366  10.115  11.675
70237W        W42662  26.264  25.072   2.687
70238W        W42663  31.052  34.466  10.961
70239W        W42664  16.678  21.678   1.757
70240W        W42665   6.855   7.603  11.786
70241W        W42666  17.953  21.130   1.194
70242W        W42667   3.951  19.385  12.679
70243W        W42668  23.735  31.597   0.847
70244W        W42669  28.639  21.395  12.648
70245W        W42670  30.395  29.881  12.969
70246W        W42671  26.939  34.970   4.279
70247W        W42672  41.221  40.256   1.710
70248W        W42673   4.740  30.609  13.779
70249W        W42674  21.594  41.312   4.125
70250W        W42675  38.569  33.451  10.572
70251W        W42676  41.334  20.119   1.247
70252W        W42677  34.060  38.357  13.906
70253W        W42678   2.440  22.687  14.800
70254W        W42679  14.546  12.126  11.691
70255W        W42680  13.460  25.992   1.806
70256W        W42681  39.855  38.659  10.994
70257W        W42682  16.073  38.507  10.486
70258W        W42683   1.681  17.226   3.277
70259W        W42684   8.583  20.157  12.170
70260W        W42685  17.860   3.837   4.203
70261W        W42686  31.125  42.119  13.961
70262W        W42687  17.893  36.888  11.570
70263W        W42688   2.563  30.110  14.042
70264W        W42689   9.914  28.015  13.565
70265W        W42690  15.601  13.624   4.228
70266W        W42691  30.031  38.248  10.244
70267W        W42692  24.569  44.721   0.473
70268W        W42693  20.339   6.424  11.604
70269W        W42694  23.790  11.419  10.066
70270W        W42695  39.008   8.807   0.320
70271W        W42696  14.742  17.802  14.361
70272W        W42697  43.984  40.251   3.116
70273W        W42698  20.375  27.742  10.581
70274W        W42699   9.736  10.730  11.384
70275W        W42700   5.732  29.360  12.284
70276W        W42701  20.222  40.180  14.587
70277W        W42702  33.875  22.558   0.314
70278W        W42703   0.790  35.535   3.716
70279W        W42704  35.146  20.273  13.915
70280W        W42705  24.905  31.318  14.498
70281W        W42706  44.000  14.179   2.469
70282W        W42707  20.777  44.764   4.138
70283W        W42708  44.819  36.292   0.889
70284W        W42709  42.946  39.088  13.320
70285W        W42710   0.496  20.675   0.461
70286W        W42711   8.479  21.844  12.779
70287W        W42712  23.146  29.164   2.630
70288W        W42713  14.363  44.474  13.066
70289W        W42714   0.152   6.964   2.850
70290W        W42715  11.385  43.133   4.075
70291W        W42716  22.554  40.897   0.118
70292W        W42717  42.969   0.287   1.380
70293W        W42718  23.649  17.488   2.900
70294W        W42719   1.031   3.473   1.710
70295W        W42720  40.140  28.165  12.986
70296W        W42721   1.883  11.722   2.823
70297W        W42722  23.233   4.770   2.903
70298W        W42723  10.554   5.783   4.097
70299W        W42724   2.489  32.638  12.091
70300W        W42725   4.368   0.767   2.836
70301W        W42726   4.011   2.701   0.917
70302W        W42727  11.823   6.048  12.521
70303W        W42728  26.389  26.981   2.662
70304W        W42729  21.304   7.777  13.893
70305W        W42730  21.079  11.080   2.263
70306W        W42731  41.934   2.306  11.068
70307W        W42732   0.734  18.325   3.449
70308W        W42733  33.420  18.954   0.462
70309W        W42734  43.944  32.473   0.937
70310W        W42735   9.734   3.184  12.629
70311W        W42736  29.525  33.984   4.128
70312W        W42737   1.997  21.249   4.132
70313W        W42738  33.060   4.415  13.483
70314W        W42739  10.302  40.815   0.708
70315W        W42740  38.748  10.320   2.773
70316W        W42741  39.219  35.073  13.897
70317W        W42742  23.092  28.243   2.185
70318W        W42743  39.918  13.920  12.557
70319W        W42744  38.379   5.150   4.042
70320W        W42745  27.408  30.557   3.784
70321W        W42746  25.310  20.844   4.051
70322W        W42747  21.614   7.757   3.716
70323W        W42748  20.275  32.831  12.559
70324W        W42749   5.647  14.162  14.477
70325W        W42750   6.732  43.656   3.503
70326W        W42751  17.285  32.368   4.214
70327W        W42752   3.232   6.817   1.500
70328W        W42753   6.798  41.460   2.422
70329W        W42754   6.350  18.048  13.382
70330W        W42755  42.877  19.144   0.753
70331W        W42756  23.599   7.676   2.020
70332W        W42757  26.214  22.074  11.092
70333W        W42758   2.396  44.901  14.254
70334W        W42759  22.310  44.856  12.052
70335W        W42760  34.221  34.155  13.939
70336W        W42761   0.029   9.207   4.318
70337W        W42762   9.807  40.507   4.829
70338W        W42763   0.713  41.854   1.017
70339W        W42764  10.810  28.682   3.091
70340W        W42765  35.072  26.730  14.404
70341W        W42766   2.787  26.259   0.315
70342W        W42767  20.086   8.261  14.953
70343W        W42768  28.047   5.672  14.482
70344W        W42769  43.260  31.585  11.009
70345W        W42770  33.926  35.027  10.411
70346W        W42771  31.693  38.554   1.379
70347W        W42772  25.364  32.371   2.888
70348W        W42773   0.541  32.104  14.669
70349W        W42774   9.568  20.146  12.008
70350W        W42775   7.776  21.407  13.894
70351W        W42776  13.184   4.728  14.421
70352W        W42777  29.868   5.376  14.082
70353W        W42778  25.962  16.138   3.596
70354W        W42779   4.316   2.999  14.827
70355W        W42780  35.522  20.791  12.503
70356W        W42781  38.079  34.828   4.373
70357W        W42782  15.938  38.025  11.166
70358W        W42783  28.182  13.645  14.649
70359W        W42784   3.418  39.809  12.141
70360W        W42785  21.222   6.810  11.400
70361W        W42786  16.430  20.166  11.575
70362W        W42787  29.449   2.965   0.004
70363W        W42788   9.832  21.712   4.581
70364W        W42789  14.304  30.459  11.635
70365W        W42790  37.922  27.960  12.510
70366W        W42791  23.297  29.909   2.249
70367W        W42792  30.946  34.133  14.363
70368W        W42793  28.982   0.494  14.640
70369W        W42794   9.443  26.024  13.374
70370W        W42795   2.874  12.026   0.707
70371W        W42796  39.051  16.216   1.759
70372W        W42797   0.060  25.554  13.017
70373W        W42798   5.863  29.470  14.737
70374W        W42799  44.316  44.025   4.640
70375W        W42800  27.589   1.374   4.126
70376W        W42801  39.809   2.959   3.290
70377W        W42802   8.169  43.856   3.781
70378W        W42803  27.669  21.902   0.824
70379W        W42804  28.413  26.117  12.569
70380W        W42805  13.534   9.408  14.942
70381W        W42806  32.929  20.243   1.977
70382W        W42807  33.496  43.437  11.334
70383W        W42808   8.795  36.489   4.530
70384W        W42809  33.550  13.054   0.756
70385W        W42810  32.448  16.982  14.590
70386W        W42811  15.235  23.100  14.007
70387W        W42812  15.922  23.512  13.085
70388W        W42813  36.784  37.572  10.895
70389W        W42814  10.330   7.262   3.164
70390W        W42815  37.060  30.968  11.452
70391W        W42816   5.194  27.936  11.615
70392W        W42817   4.003  15.360   3.287
70393W        W42818   4.382   9.724  13.073
70394W        W42819  25.131  11.362   0.615
70395W        W42820  39.933   9.146  11.441
70396W        W42821  23.242  27.971   3.201
70397W        W42822   0.192  23.173  14.366
70398W        W42823   8.291  10.642   1.324
70399W        W42824  16.248  32.240  12.451
70400W        W42825  25.228  20.033   0.919
70401W        W42826  33.516  36.596  12.983
70402W        W42827  22.508  31.681  12.078
70403W        W42828   4.500   9.805   0.354
70404W        W42829   7.100   1.502   1.863
70405W        W42830   7.658  41.572  13.489
70406W        W42831  11.973  21.571  10.998
70407W        W42832  39.346   5.681  14.495
70408W        W42833  25.514   3.491  14.322
70409W        W42834   0.327  25.173   1.826
70410W        W42835  37.469  34.506  13.606
70411W        W42836  13.996  10.390   4.838
70412W        W42837  11.155  38.437   2.159
70413W        W42838  36.422  20.182   4.049
70414W        W42839   6.999  19.885   2.430
70415W        W42840  31.055  43.921  10.550
70416W        W42841  10.388   6.264  11.523
70417W        W42842  39.839  38.075   0.660
70418W        W42843   2.763  38.546  13.981
70419W        W42844  26.167   9.906  11.291
70420W        W42845  44.476   4.906   3.503
70421W        W42846  17.722  14.293   4.646
70422W        W42847  21.636  25.602   3.416
70423W        W42848  24.103  11.259  11.408
70424W        W42849  30.985   0.249  12.539
70425W        W42850  15.088  33.026   2.182
70426W        W42851   9.705  14.674  12.222
70427W        W42852  14.724  35.103   0.473
70428W        W42853  11.124   0.548   1.811
70429W        W42854  30.053  18.658  13.373
70430W        W42855  10.795  17.575  11.022
70431W        W42856  30.580  38.503   4.730
70432W        W42857  36.850  10.226  11.536
70433W        W42858  38.930   8.768  10.231
70434W        W42859  32.991   8.221   4.535
70435W        W42860  27.039  41.464   0.439
70436W        W42861  24.168  33.261   2.319
70437W        W42862   0.461  16.117   4.142
70438W        W42863  27.610   8.481  13.910
70439W        W42864   1.963  14.859  10.702
70440W        W42865  39.484   2.696  12.081
70441W        W42866   4.791  32.337  13.219
70442W        W42867   7.713  23.080   4.536
70443W        W42868  38.843   3.338   2.724
70444W        W42869  34.913  26.462   2.120
70445W        W42870  35.102  42.487  14.422
70446W        W42871  24.627  22.194   2.873
70447W        W42872  44.080  36.135   4.026
70448W        W42873  18.155  37.094   0.971
70449W        W42874  42.415   8.426   2.444
70450W        W42875  17.320   6.987   3.215
70451W        W42876   4.608  14.238   4.623
70452W        W42877  22.341   0.458   1.935
70453W        W42878   1.733   0.775   0.039
70454W        W42879  22.110  21.791   1.408
70455W        W42880  11.501  31.151  13.390
70456W        W42881  13.145  22.515  12.849
70457W        W42882  13.729  24.973  13.311
70458W        W42883  37.314  41.839   4.265
70459W        W42884  28.241  39.363  14.401
70460W        W42885  20.234  20.571   0.443
70461W        W42886   3.357   7.666   3.271
70462W        W42887  12.426  14.155   4.151
70463W        W42888  12.663  30.676  13.909
70464W        W42889  32.896  27.101   1.670
70465W        W42890  41.530  16.174  12.486
70466W        W42891  10.794  34.436   1.196
70467W        W42892  26.483  30.226   9.933
70468W        W42893  39.551  18.761   2.794
70469W        W42894  29.151  29.698   3.240
70470W        W42895  40.515  25.099  11.560
70471W        W42896  29.522   0.392  11.469
70472W        W42897  27.968  23.537  11.622
70473W        W42898  41.301  31.403  11.985
70474W        W42899  27.433   9.228  13.064
70475W        W42900  19.680  23.505  12.839
70476W        W42901  44.144  29.768   4.575
70477W        W42902  11.118  14.818  12.595
70478W        W42903  18.692   1.608   3.750
70479W        W42904  23.578  25.623   1.471
70480W        W42905  32.297  41.485   0.205
70481W        W42906  13.662   6.413  14.994
70482W        W42907  13.275   6.145  12.025
70483W        W42908  42.999  16.505   0.757
70484W        W42909  29.911   1.538   0.734
70485W        W42910  21.519  29.635  12.463
70486W        W42911  23.510  19.736  14.719
70487W        W42912  24.635   5.359   2.782
70488W        W42913   8.280  35.768   4.761
70489W        W42914  40.962  40.331  13.959
70490W        W42915  32.986  25.368  13.263
70491W        W42916  32.741  14.951  13.097
70492W        W42917   1.501  33.203   5.551
70493W        W42918   7.704  43.223   4.733
70494W        W42919  15.771  36.537   2.280
70495W        W42920   3.985  14.784  13.062
70496W        W42921  39.994  44.976  13.786
70497W        W42922  10.711   9.483   1.727
70498W        W42923   0.303  31.474  13.225
70499W        W42924   6.627  20.126  10.482
70500W        W42925   7.840  23.380   1.735
70501W        W42926  25.646  32.077  13.478
70502W        W42927   7.912  33.139  10.297
70503W        W42928  32.321   0.495   3.657
70504W        W42929   9.941  37.365   4.188
70505W        W42930  38.391   9.380  11.498
70506W        W42931  33.374  10.732   4.463
70507W        W42932  16.536  33.903   0.874
70508W        W42933  27.932  41.778   2.767
70509W        W42934   1.019  33.150   0.307
70510W        W42935   7.831  25.799  13.822
70511W        W42936   1.834  20.602  11.660
70512W        W42937  25.344  25.650  11.353
70513W        W42938  10.166  29.008  14.514
70514W        W42939  21.479   5.367   0.190
70515W        W42940  25.593  25.770  13.465
70516W        W42941  35.347   2.219  13.010
70517W        W42942   8.088  24.608  12.861
70518W        W42943  43.893   4.928  13.080
70519W        W42944  12.545   7.353  12.627
70520W        W42945  15.850  37.121  14.386
70521W        W42946  36.858  20.704  11.987
70522W        W42947  32.412   5.777   2.790
70523W        W42948  14.799  18.055   4.182
70524W        W42949  44.797   2.575  14.164
70525W        W42950   3.761  18.525  10.503
70526W        W42951  43.451   9.283   3.942
70527W        W42952   4.940  20.900   2.203
70528W        W42953  31.386  18.247   2.880
70529W        W42954  14.879  18.283  12.890
70530W        W42955  10.385  14.337   0.812
70531W        W42956  22.994   8.695   2.220
70532W        W42957  27.456   7.399   1.277
70533W        W42958  21.074  15.374  10.315
70534W        W42959  35.475  32.522   3.207
70535W        W42960  28.569   5.224  13.807
70536W        W42961   1.826   2.572  12.174
70537W        W42962  10.378  35.364   2.877
70538W        W42963   3.419  29.022   3.049
70539W        W42964   4.830  33.596   0.544
70540W        W42965  11.832  31.887   0.495
70541W        W42966  25.657  20.774   0.037
70542W        W42967  29.515   0.910  10.243
70543W        W42968  15.775   8.610  13.509
70544W        W42969  13.705  28.184   1.718
70545W        W42970  11.177  14.926   4.922
70546W        W42971   8.637  29.387  13.044
70547W        W42972   0.290  33.978  11.000
70548W        W42973  13.525   0.961  12.093
70549W        W42974  27.072   3.451   1.654
70550W        W42975  32.430   0.770  13.146
70551W        W42976  12.906  29.186  10.670
70552W        W42977  17.531  25.679   4.533
70553W        W42978  12.063   3.640   3.708
70554W        W42979  37.523  24.938  13.434
70555W        W42980  33.454  10.150  14.428
70556W        W42981  15.279   8.224  10.919
70557W        W42982   5.926   8.223   1.918
70558W        W42983  12.626  10.414   2.691
70559W        W42984  24.277  33.175  12.512
70560W        W42985   5.433  21.453   0.267
70561W        W42986  40.457  38.839   2.741
70562W        W42987  42.445   5.747   3.641
70563W        W42988  35.913  23.935   3.618
70564W        W42989  12.385  37.909  11.175
70565W        W42990  39.246  27.165  14.921
70566W        W42991  11.169  33.186  12.527
70567W        W42992   0.794  43.476  12.007
70568W        W42993  33.125  19.307   4.267
70569W        W42994  20.317  25.594  10.672
70570W        W42995   3.146  44.620  14.525
70571W        W42996  15.113  25.908   3.292
70572W        W42997  34.188  21.256  11.253
70573W        W42998   1.466  40.793   2.048
70574W        W42999  23.693  34.877   3.809
70575W        W43000  35.820  42.251   0.005
70576W        W43001  34.794  43.353  13.865
70577W        W43002  31.636  21.914  13.312
70578W        W43003  41.111  29.931  10.941
70579W        W43004  12.693  17.610  14.747
70580W        W43005  12.610  27.953   3.372
70581W        W43006  32.349  35.435   2.781
70582W        W43007  18.365  30.077   4.064
70583W        W43008  43.393  29.428   9.956
70584W        W43009  31.486  10.424  10.908
70585W        W43010  31.197  24.577   3.256
70586W        W43011  23.952  25.310   4.537
70587W        W43012  21.982  35.831  11.866
70588W        W43013  10.743   8.491   1.684
70589W        W43014   1.761  41.623   0.487
70590W        W43015   0.391  12.719  10.793
70591W        W43016  21.730  20.649   2.065
70592W        W43017   7.876  43.810  11.556
70593W        W43018   6.172  30.480   1.236
70594W        W43019  27.913  30.499   0.766
70595W        W43020  20.606   0.318   3.109
70596W        W43021  15.784  41.074  11.977
70597W        W43022  23.157  17.580   1.234
70598W        W43023   9.806  36.321  10.609
70599W        W43024  25.996  21.792   0.963
70600W        W43025  38.123  41.644   4.106
70601W        W43026  42.936  24.294   3.699
70602W        W43027  23.085  28.425  12.112
70603W        W43028  14.050   8.685  13.334
70604W        W43029  34.367  43.285  12.926
70605W        W43030   7.236  10.187   0.761
70606W        W43031  11.724   4.659  14.447
70607W        W43032   2.424  13.298  12.672
70608W        W43033  30.470  41.081   4.678
70609W        W43034   4.219  34.468   3.541
70610W        W43035  41.313   7.272  12.570
70611W        W43036  12.934  26.747   0.860
70612W        W43037  14.044  25.740   2.709
70613W        W43038  30.849  20.459  13.918
70614W        W43039   3.227   2.381  10.494
70615W        W43040   7.183  35.119  14.814
70616W        W43041  11.336  16.757  14.442
70617W        W43042   9.643  26.548   0.859
70618W        W43043  32.494  33.852   3.169
70619W        W43044   8.563  10.814   3.318
70620W        W43045  37.617  29.515   3.124
70621W        W43046  19.170  31.886  13.333
70622W        W43047   8.761  16.834  12.995
70623W        W43048  26.931  38.077  12.409
70624W        W43049  35.944  30.890   3.231
70625W        W43050   8.726  18.804   0.432
70626W        W43051  12.257  34.674  11.625
70627W        W43052   3.712  13.168  13.902
70628W        W43053  10.229  23.656  11.478
70629W        W43054  39.832  16.636  13.914
70630W        W43055  18.324   3.287   1.330
70631W        W43056  23.979  31.193   0.041
70632W        W43057   8.889  20.876   2.304
70633W        W43058  29.095  17.252   0.374
70634W        W43059  24.537  34.969   1.305
70635W        W43060  35.157  22.240   1.288
70636W        W43061  18.705  35.562  14.866
70637W        W43062  44.395  22.620   0.259
70638W        W43063  12.471   0.867   4.221
70639W        W43064  33.213   4.829  13.992
70640W        W43065  13.199  25.062  14.398
70641W        W43066   5.454  32.524   3.749
70642W        W43067  15.037  26.603   3.780
70643W        W43068  37.657  35.640   0.873
70644W        W43069   1.944  20.897  12.655
70645W        W43070  15.723  33.662  14.773
70646W        W43071  37.031   8.490   2.902
70647W        W43072  31.353   1.206  12.647
70648W        W43073  44.274  42.868  13.922
70649W        W43074  14.434  15.463   0.108
70650W        W43075  11.733   9.434  12.708
70651W        W43076   2.883   7.046  11.437
70652W        W43077   9.956  35.182   2.220
70653W        W43078  40.951   7.695  10.696
70654W        W43079  10.413  34.335   2.596
70655W        W43080  40.834  31.845   2.673
70656W        W43081  41.336  29.506  11.157
70657W        W43082  24.633   3.569  14.772
70658W        W43083  30.930  33.541  13.422
70659W        W43084  16.096  19.996  11.225
70660W        W43085   5.012  17.532  12.885
70661W        W43086  17.688  31.655   4.162
70662W        W43087   3.968  15.080  10.745
70663W        W43088  34.896  26.554  14.904
70664W        W43089  33.866   8.885   3.609
70665W        W43090   5.186   1.969   0.821
70666W        W43091  20.144  21.594   2.799
70667W        W43092  34.801  10.198  14.398
70668W        W43093  25.713  19.952  11.553
70669W        W43094  13.428  19.957   3.780
70670W        W43095  24.672   9.748   4.199
70671W        W43096  13.072  40.390   4.172
70672W        W43097   0.189  31.411  12.730
70673W        W43098  30.623  40.651  14.894
70674W        W43099  28.586  30.187   1.390
70675W        W43100  27.515   6.324   4.368
70676W        W43101  29.914  44.812   2.154
70677W        W43102  43.369  34.568  13.989
70678W        W43103  18.830  11.163   3.633
70679W        W43104   6.748  29.634   1.356
70680W        W43105   8.178  40.402   4.496
70681W        W43106  11.603  14.000   3.727
70682W        W43107   3.586  41.225   0.920
70683W        W43108  35.555  44.959   1.274
70684W        W43109  19.752  30.856  13.972
70685W        W43110   2.180  10.243   1.838
70686W        W43111  33.358  43.244   0.246
70687W        W43112  35.602  17.771  13.352
70688W        W43113   0.668  34.320  10.903
70689W        W43114  14.294  26.094   4.147
70690W        W43115  41.925  33.852  10.075
70691W        W43116  34.397  34.627  10.989
70692W        W43117   4.700   2.910   2.426
70693W        W43118  38.418  23.616   0.464
70694W        W43119  42.284  10.765  11.572
70695W        W43120  38.432  20.670  11.677
70696W        W43121  21.167  38.071  13.495
70697W        W43122  16.792  19.022   0.888
70698W        W43123  36.295  22.731  11.654
70699W        W43124  16.193  22.367  13.417
70700W        W43125  24.644  22.833   0.334
70701W        W43126  21.654   6.462  14.740
70702W        W43127   8.473   3.526   1.888
70703W        W43128  42.073  37.582   2.770
70704W        W43129  41.581  11.841  11.637
70705W        W43130  18.328  31.058  13.887
70706W        W43131  39.860   8.343   2.818
70707W        W43132  28.124  35.443   2.408
70708W        W43133   1.844  22.634  14.273
70709W        W43134   7.013  32.386  14.403
70710W        W43135  27.979  30.993  11.662
70711W        W43136  42.622  23.649   1.734
70712W        W43137  44.350   3.948   4.616
70713W        W43138  29.223  36.543  12.841
70714W        W43139  22.733  23.575   3.229
70715W        W43140  31.629  21.197   2.154
70716W        W43141  21.706  15.713  14.507
70717W        W43142  17.815   3.325   4.222
70718W        W43143   3.697  32.477  13.513
70719W        W43144  16.652  43.806   4.889
70720W        W43145  35.564  38.940   4.525
70721W        W43146  38.318  42.547   1.690
70722W        W43147  31.603  16.724  11.595
70723W        W43148  14.876  20.220   2.345
70724W        W43149  16.267  20.167  14.780
70725W        W43150  17.322   2.992   3.332
70726W        W43151  31.371  44.545  13.982
70727W        W43152  20.326  16.060   0.488
70728W        W43153  31.957  31.534  13.462
70729W        W43154  34.997   6.133  13.296
70730W        W43155  23.010   9.211  10.740
70731W        W43156  20.579  39.014  14.019
70732W        W43157  25.186  10.232   3.722
70733W        W43158   0.854   0.826  13.418
70734W        W43159  27.903  11.240  14.000
70735W        W43160  42.446  13.405   2.735
70736W        W43161  19.736  39.923   1.707
70737W        W43162  21.148  28.601   2.319
70738W        W43163  41.920  23.287   4.490
70739W        W43164  17.158   9.804  13.227
70740W        W43165  28.442  19.973   1.289
70741W        W43166  41.313  27.609  14.735
70742W        W43167  44.395  25.966   3.164
70743W        W43168   8.957  44.725  12.860
70744W        W43169  16.245  35.056  10.134
70745W        W43170  13.326   5.402   4.758
70746W        W43171  30.293   2.346   3.976
70747W        W43172  13.847  38.451  14.520
70748W        W43173   9.420   2.415   4.910
70749W        W43174  14.202  11.438  14.993
70750W        W43175  23.466  31.164   2.337
70751W        W43176  18.320  22.607   4.858
70752W        W43177  23.123  44.380  11.696
70753W        W43178   8.111  22.770   4.067
70754W        W43179  35.824  14.917  11.592
70755W        W43180  31.282  35.887  12.373
70756W        W43181   0.738  27.425   4.283
70757W        W43182   7.897  14.823  14.719
70758W        W43183  21.668  26.043   3.689
70759W        W43184   8.632  24.012  14.059
70760W        W43185  15.698  10.260   3.360
70761W        W43186  27.578   2.208  14.912
70762W        W43187  43.353  20.616  12.022
70763W        W43188   3.412  10.661  12.950
70764W        W43189  31.982   2.984   2.396
70765W        W43190   9.093   7.008  14.902
70766W        W43191  43.289  41.733  14.019
70767W        W43192  18.532  37.230   0.388
70768W        W43193  37.531  26.528   2.187
70769W        W43194  25.521  15.311   1.246
70770W        W43195  40.107   4.791  14.848
70771W        W43196  34.585  10.243   2.414
70772W        W43197  18.168  33.144   0.373
70773W        W43198  27.613  40.002  10.213
70774W        W43199  13.645  19.147  10.757
70775W        W43200  25.243  21.624  11.226
70776W        W43201  29.221  13.129   4.293
70777W        W43202   1.314  16.053  12.478
70778W        W43203  12.845  40.996   4.646
70779W        W43204  42.819  36.059   1.313
70780W        W43205  36.341  34.004  14.705
70781W        W43206  37.845   5.998  13.329
70782W        W43207  24.206  28.054   3.297
70783W        W43208   7.328  43.836  10.752
70784W        W43209   7.884   6.357  14.536
70785W        W43210   1.177  15.191   0.679
70786W        W43211  30.399  20.619   1.068
70787W        W43212  14.384   6.753   4.043
70788W        W43213  24.113   5.618   0.594
70789W        W43214  35.884  36.523   3.689
70790W        W43215  43.427  29.428   4.213
70791W        W43216  40.826  39.822  14.390
70792W        W43217  10.308  38.335   1.323
70793W        W43218  31.606   2.413   4.043
70794W        W43219   7.035  10.931   4.119
70795W        W43220  10.675  19.249   1.429
70796W        W43221  15.628  16.302  13.037
70797W        W43222  27.623   0.339   2.713
70798W        W43223  27.177  43.327   1.959
70799W        W43224  36.012  32.737   4.334
70800W        W43225   0.842   7.161  12.011
70801W        W43226  10.323  12.129   2.944
70802W        W43227  41.287  43.562   1.381
70803W        W43228   5.927   1.674   4.209
70804W        W43229  40.932  38.471   2.080
70805W        W43230   6.297  30.342   4.927
70806W        W43231  33.094  32.558  10.465
70807W        W43232  39.753  16.935  13.498
70808W        W43233  24.177  34.767  11.546
70809W        W43234  19.998  30.435   4.699
70810W        W43235   4.898  31.845   9.891
70811W        W43236   0.966   1.327  13.286
70812W        W43237  23.525   0.433  14.321
70813W        W43238  20.502  18.825  12.543
70814W        W43239  18.070  27.496  11.105
70815W        W43240  23.690   3.488   3.227
70816W        W43241  22.183  40.352   0.709
70817W        W43242   9.349  32.867   0.473
70818W        W43243  43.848  20.266  10.971
70819W        W43244  40.448  13.077   4.545
70820W        W43245  32.916  14.774  14.092
70821W        W43246  24.502  44.252  13.886
70822W        W43247  27.221   6.882  14.021
70823W        W43248  21.029  10.624  11.499
70824W        W43249   5.736  39.553   1.929
70825W        W43250   1.210  37.898   4.285
70826W        W43251  15.047  33.574  11.925
70827W        W43252  15.294  32.224  10.637
70828W        W43253  44.199  11.307  10.690
70829W        W43254  31.180  30.853   1.292
70830W        W43255   7.838  30.223   2.850
70831W        W43256  42.280  22.650   2.410
70832W        W43257  36.103  19.250  11.185
70833W        W43258  44.095  39.473   4.844
70834W        W43259  23.597  37.306   1.367
70835W        W43260  33.888  12.749  12.885
70836W        W43261  29.074  24.159   2.796
70837W        W43262   4.946  35.136  11.641
70838W        W43263  15.075   4.820   1.202
70839W        W43264  21.108  19.460  13.415
70840W        W43265   1.097  39.035   5.113
70841W        W43266  20.221   8.637   3.788
70842W        W43267  25.750  12.276  12.115
70843W        W43268   8.649  27.632   1.503
70844W        W43269  26.569   8.855   2.014
70845W        W43270  43.774  39.316   4.485
70846W        W43271   5.662   2.248   1.858
70847W        W43272  27.672   5.432   2.852
70848W        W43273  41.267  13.501  10.680
70849W        W43274  31.952  18.641   4.628
70850W        W43275  43.979  19.174  11.086
70851W        W43276   8.136  38.065   0.417
70852W        W43277  39.316   4.535  13.514
70853W        W43278  33.478   1.704  10.567
70854W        W43279   1.582  40.059   2.233
70855W        W43280  37.923  42.524  13.901
70856W        W43281   0.932  21.328   0.486
70857W        W43282  24.890  10.966   3.320
70858W        W43283   5.434   9.331  12.362
70859W        W43284  22.437  40.877  13.138
70860W        W43285  12.573  13.719  13.466
70861W        W43286   6.360  12.111  13.977
70862W        W43287  33.073   1.094   4.411
70863W        W43288  19.782  21.120  10.955
70864W        W43289   4.374  12.592  11.874
70865W        W43290   2.111   5.738  14.355
70866W        W43291  14.086  14.023   0.937
70867W        W43292   3.496   5.166   0.827
70868W        W43293  23.951   0.401  10.638
70869W        W43294  16.618  43.882   4.365
70870W        W43295  28.681  26.567   3.759
70871W        W43296  33.013  28.078  10.976
70872W        W43297   6.150  26.108   2.374
70873W        W43298  14.754  36.001  11.071
70874W        W43299  23.995  41.721   0.038
70875W        W43300  34.022  28.207   4.097
70876W        W43301  11.189   3.786  11.630
70877W        W43302   3.778  28.836   4.928
70878W        W43303  12.566  14.084   2.827
70879W        W43304   1.782  31.518   0.292
70880W        W43305   6.405  28.008   1.620
70881W        W43306  39.914  31.928   2.377
70882W        W43307  30.569  22.540   1.684
70883W        W43308  24.502   8.658  11.957
70884W        W43309  18.389  11.731   4.657
70885W        W43310  27.406  43.376   0.010
70886W        W43311  37.529   4.445   1.412
70887W        W43312  25.120  23.029   3.582
70888W        W43313   7.225  41.951  13.292
70889W        W43314   2.772  21.245   3.148
70890W        W43315  28.911   4.336   3.702
70891W        W43316   8.813  27.540   0.534
70892W        W43317  37.807  37.563   1.760
70893W        W43318   2.779  42.830   2.281
70894W        W43319  42.919  26.081  10.767
70895W        W43320  29.403  44.515  13.601
70896W        W43321   6.813  25.586  12.601
70897W        W43322  25.485  41.316  12.580
70898W        W43323  14.300  27.235  14.580
70899W        W43324   2.287  28.614   4.371
70900W        W43325  33.922  28.457   2.805
70901W        W43326  32.065  30.977   5.010
70902W        W43327  32.207  44.217   3.231
70903W        W43328  39.958  31.174  11.175
70904W        W43329   8.925  24.238  11.065
70905W        W43330  32.631  20.207  11.062
70906W        W43331  33.839   5.947   4.316
70907W        W43332  36.117  16.071   4.487
70908W        W43333  20.335  44.402  12.800
70909W        W43334   1.561  35.384  13.984
70910W        W43335  31.023  32.953  11.114
70911W        W43336  43.417  27.033   2.699
70912W        W43337  27.567   6.297   2.434
70913W        W43338  33.060  32.343   0.414
70914W        W43339   1.476  23.319   3.672
70915W        W43340   1.241   1.190   3.698
70916W        W43341  21.665  13.296  12.063
70917W        W43342  36.831  41.353  11.548
70918W        W43343   5.010   2.243   4.684
70919W        W43344   1.736  24.592  10.530
70920W        W43345  16.589  14.848  12.653
70921W        W43346  30.452  31.514   2.733
70922W        W43347  21.215   6.202  14.780
70923W        W43348  43.336   1.206  12.919
70924W        W43349   8.046  40.601  14.528
70925W        W43350  27.968  25.658   4.539
70926W        W43351  18.352   7.879  13.882
70927W        W43352  31.885  20.798  11.505
70928W        W43353  40.703  14.415   4.960
70929W        W43354   6.247  17.792  11.841
70930W        W43355  28.639  34.432   0.152
70931W        W43356  21.163  38.354  12.187
70932W        W43357  41.152  30.596   1.632
70933W        W43358   6.851  33.227   2.586
70934W        W43359  29.788  22.181  10.257
70935W        W43360  35.086  40.406  11.031
70936W        W43361  44.513  35.403  13.093
70937W        W43362  31.171  11.488  12.633
70938W        W43363  12.824   2.133   1.362
70939W        W43364  41.275   0.101   3.230
70940W        W43365  36.774  15.732  12.132
70941W        W43366  34.025  24.071   3.899
70942W        W43367  36.853  41.334  12.931
70943W        W43368   2.725  30.642  12.413
70944W        W43369  43.445   1.301   0.898
70945W        W43370   3.349  15.227  12.845
70946W        W43371  31.421   5.749   0.810
70947W        W43372   6.399  25.993   4.178
70948W        W43373  41.612  26.982  10.713
70949W        W43374   6.616  44.498   9.981
70950W        W43375  22.675  13.897   1.698
70951W        W43376  40.130  31.599   0.399
70952W        W43377  22.949  40.939  12.034
70953W        W43378  33.857  37.082  12.226
70954W        W43379  42.311  15.304  14.766
70955W        W43380  10.823  13.228   1.409
70956W        W43381   3.178  23.034   0.926
70957W        W43382  39.948  38.602   3.681
70958W        W43383   9.034  11.069   3.269
70959W        W43384   0.956  39.259  10.687
70960W        W43385   9.854  21.454  12.592
70961W        W43386   4.278  29.421   0.643
70962W        W43387  14.591  39.031   3.636
70963W        W43388   6.634   9.271   0.921
70964W        W43389  30.153  35.564   0.558
70965W        W43390   2.474   7.879  11.159
70966W        W43391  35.493   5.901   0.036
70967W        W43392  31.304  31.372   0.841
70968W        W43393  33.548   2.243  10.531
70969W        W43394  36.783  26.142  10.508
70970W        W43395  32.273  33.620  13.382
70971W        W43396  44.330   3.935   4.085
70972W        W43397  42.388  28.823   2.731
70973W        W43398   3.746  36.888   2.315
70974W        W43399  33.959  42.976   4.179
70975W        W43400  21.766  23.366   4.221
70976W        W43401  17.166  32.666   2.893
70977W        W43402  44.205  15.153  10.638
70978W        W43403  38.938  16.853  11.683
70979W        W43404  40.451  34.128   0.878
70980W        W43405   7.313  32.463   3.828
70981W        W43406   8.877   0.319  11.669
70982W        W43407  18.181  41.031  12.493
70983W        W43408  25.632  42.773   4.243
70984W        W43409  25.760  13.588   0.845
70985W        W43410  17.674   2.260   0.392
70986W        W43411  25.164  21.665   3.642
70987W        W43412   0.688  26.612   3.898
70988W        W43413  40.358  19.519  11.162
70989W        W43414   4.173  20.066  13.415
70990W        W43415  36.796  43.403  14.846
70991W        W43416  24.443  38.666   3.100
70992W        W43417  17.288  17.796   0.895
70993W        W43418  17.553  18.633  13.387
70994W        W43419   6.752   5.794   2.811
70995W        W43420  42.740  30.541  12.903
70996W        W43421  40.424  24.240   3.662
70997W        W43422  42.854  21.495  11.916
70998W        W43423   2.237  42.453   0.739
70999W        W43424   9.802   8.326   4.968
71000W        W43425  29.701  27.000   0.718
71001W        W43426  37.359  44.968  12.831
71002W        W43427  11.312   0.808   0.227
71003W        W43428  19.322  19.855  12.552
71004W        W43429  12.174  26.276   1.277
71005W        W43430  24.447   6.865  11.021
71006W        W43431   6.696  23.944   1.962
71007W        W43432  29.465   2.274  10.719
71008W        W43433  40.410  16.503   2.656
71009W        W43434   9.624  17.582   0.973
71010W        W43435   6.344  27.191   0.937
71011W        W43436  30.620  24.478   1.224
71012W        W43437  23.684   0.194   3.701
71013W        W43438  42.060  29.002  11.137
71014W        W43439  25.238   1.848   4.279
71015W        W43440  35.543  26.645   5.095
71016W        W43441  33.186  40.547   2.714
71017W        W43442  42.722   3.477  14.154
71018W        W43443  35.983  38.023   0.984
71019W        W43444  26.336   5.819   4.175
71020W        W43445  35.080  14.412   4.615
71021W        W43446  14.177   8.440  11.090
71022W        W43447   3.656  26.018  14.953
71023W        W43448  20.000  23.599   1.345
71024W        W43449  27.538  14.766   3.899
71025W        W43450  12.553  44.789  12.964
71026W        W43451  23.935  40.282   1.902
71027W        W43452  43.043  25.691  13.371
71028W        W43453  14.054   3.958  12.475
71029W        W43454  27.086  34.433  10.961
71030W        W43455  25.742  20.585   0.498
71031W        W43456  26.243  13.182  12.110
71032W        W43457  35.606  42.375   1.857
71033W        W43458  30.579  44.474   3.872
71034W        W43459  34.949   4.675  11.037
71035W        W43460  35.476  30.582   0.904
71036W        W43461  41.549   2.423  11.378
71037W        W43462   6.008  23.499  12.923
71038W        W43463  17.726  43.166  12.165
71039W        W43464  44.355   2.918  10.690
71040W        W43465   0.057  24.860   5.098
71041W        W43466  39.190  31.371   0.274
71042W        W43467  31.103  23.091   5.047
71043W        W43468  11.546  32.488  13.464
71044W        W43469  33.950  19.873  11.338
71045W        W43470  36.810  14.238  13.558
71046W        W43471   6.185  36.867   0.303
71047W        W43472   6.087  18.651   2.354
71048W        W43473  43.938  10.350   4.079
71049W        W43474   7.411   5.661   4.248
71050W        W43475   4.636  25.707  14.894
71051W        W43476  30.443   9.468  13.497
71052W        W43477  25.459  31.494   2.621
71053W        W43478  15.846  21.290  11.685
71054W        W43479  19.777   7.851   0.033
71055W        W43480  25.040  28.571   4.230
71056W        W43481  10.142   2.891  12.546
71057W        W43482  28.006   6.377  12.600
71058W        W43483   0.069   7.815   2.810
71059W        W43484  43.970   3.285   2.825
71060W        W43485   1.737  25.146  11.110
71061W        W43486   5.693  36.986  11.437
71062W        W43487   7.930  16.305   2.790
71063W        W43488  38.053  10.582  10.356
71064W        W43489  28.210   8.396   2.752
71065W        W43490  14.488  41.615   2.051
71066W        W43491  10.653  28.698  12.434
71067W        W43492   7.794  24.481  13.745
71068W        W43493  18.435  10.572   1.309
71069W        W43494  35.587   3.659  11.551
71070W        W43495  20.148  32.131  11.583
71071W        W43496  33.113   8.743  12.533
71072W        W43497  17.047  21.539   4.475
71073W        W43498  44.564  16.818   2.735
71074W        W43499  21.761   4.092  14.305
71075W        W43500  10.466   7.814   4.848
71076W        W43501  33.474  25.191   3.263
71077W        W43502  33.995  14.848   3.440
71078W        W43503  16.680  37.145  12.092
71079W        W43504  34.841  43.505  12.954
71080W        W43505  39.037  31.638  11.763
71081W        W43506  38.276   8.745   3.248
71082W        W43507  25.907  14.144  11.281
71083W        W43508  26.523  28.007   0.862
71084W        W43509   8.504  31.668   1.272
71085W        W43510  10.332  11.745   0.781
71086W        W43511  19.152  10.398   2.322
71087W        W43512  22.414  29.235  14.508
71088W        W43513  33.915  38.021  12.449
71089W        W43514  20.548  19.108  12.120
71090W        W43515   4.944   5.706  11.616
71091W        W43516  22.265  39.349   1.696
71092W        W43517  28.304  23.226   5.159
71093W        W43518  16.663  11.995   0.493
71094W        W43519  18.628  31.067   1.238
71095W        W43520   4.182   0.001   3.970
71096W        W43521   6.382  39.842  13.999
71097W        W43522   5.730  11.143  11.136
71098W        W43523  35.644  36.783   1.832
71099W        W43524  11.814   9.120   9.915
71100W        W43525   0.809  11.298  14.966
71101W        W43526  31.363  24.844   0.380
71102W        W43527  20.678  17.947   0.433
71103W        W43528  30.402   4.196   1.785
71104W        W43529  22.071  33.998  14.303
71105W        W43530  20.350  23.751   0.456
71106W        W43531   1.805  21.914  12.419
71107W        W43532  31.596   9.368  11.126
71108W        W43533   0.813  20.762  13.853
71109W        W43534  15.087  29.039   4.173
71110W        W43535  12.244  42.038   4.207
71111W        W43536  37.483   5.404   1.224
71112W        W43537  13.178  28.536   4.809
71113W        W43538  29.969  19.711   3.397
71114W        W43539  38.278   9.855   0.215
71115W        W43540  15.719  13.198   0.290
71116W        W43541   0.978  30.112   0.911
71117W        W43542  10.719  35.293  14.490
71118W        W43543  26.550  25.725  12.781
71119W        W43544  11.213  30.907   1.205
71120W        W43545  25.716  25.897  11.091
71121W        W43546   4.677  36.399   4.492
71122W        W43547  37.802  34.028  11.094
71123W        W43548  12.259   9.453   4.505
71124W        W43549  21.687  15.818   3.682
71125W        W43550  30.165  33.448  12.096
71126W        W43551  17.237  35.982   2.460
71127W        W43552  29.251   6.140  11.994
71128W        W43553  42.319  37.567   4.063
71129W        W43554  32.575  19.231   0.051
71130W        W43555  28.189  25.946   1.249
71131W        W43556  14.924  30.503  14.912
71132W        W43557  32.090  26.045  12.123
71133W        W43558   7.344  26.103  10.575
71134W        W43559  31.029  23.166  14.573
71135W        W43560  30.313  23.645   4.944
71136W        W43561  31.841  25.983   3.654
71137W        W43562  43.838  29.457   0.296
71138W        W43563   1.650  32.525   2.599
71139W        W43564  26.545  11.258   2.903
71140W        W43565  23.122  16.775   1.722
71141W        W43566  25.536  35.249   1.681
71142W        W43567  18.136  26.926   1.290
71143W        W43568  44.496  30.658  10.980
71144W        W43569  17.359  14.639   4.730
71145W        W43570   0.750   5.406   4.635
71146W        W43571  42.277  21.227   3.860
71147W        W43572  25.167  39.371  14.494
71148W        W43573  22.778  43.723  12.368
71149W        W43574  27.489  19.315  12.138
71150W        W43575  30.744  11.191  12.878
71151W        W43576  14.174  43.939   2.456
71152W        W43577  12.392  28.475   0.977
71153W        W43578  43.381   7.951   4.530
71154W        W43579  12.806  18.152  11.863
71155W        W43580  44.838  21.305   1.710
71156W        W43581  38.883  27.469  10.718
71157W        W43582  44.919  35.417   4.128
71158W        W43583  38.145  31.867   3.561
71159W        W43584  32.366  14.720  11.082
71160W        W43585  25.164  35.623  12.881
71161W        W43586   4.712   9.654   4.229
71162W        W43587  14.689  15.618   2.802
71163W        W43588  16.021  42.326   2.271
71164W        W43589  32.602  19.706   4.528
71165W        W43590  36.377  37.885  13.048
71166W        W43591  20.716   6.964   3.323
71167W        W43592   8.257  31.812  12.002
71168W        W43593  35.013  27.955   2.360
71169W        W43594  32.833  44.971   1.254
71170W        W43595  37.036  37.862   2.846
71171W        W43596   8.183  17.626  10.333
71172W        W43597  13.623  25.147   0.908
71173W        W43598  15.785  28.898   3.627
71174W        W43599  19.159  23.494  14.692
71175W        W43600  12.293   8.236   3.203
71176W        W43601   4.324   8.687   0.815
71177W        W43602  28.557  21.979  10.718
71178W        W43603  19.553  35.731  11.193
71179W        W43604  10.720  36.586  14.914
71180W        W43605  39.088  40.539   1.749
71181W        W43606  13.735  26.052   0.953
71182W        W43607  38.255  30.920  14.755
71183W        W43608  36.320   6.291  11.215
71184W        W43609  23.992  44.779   0.108
71185W        W43610  40.781   3.253   3.521
71186W        W43611  39.988  37.105  11.149
71187W        W43612  37.894  32.678   0.450
71188W        W43613  12.696  26.032   1.814
71189W        W43614   1.456  15.082  13.206
71190W        W43615  36.140  23.766   3.147
71191W        W43616  41.485  32.448   2.256
71192W        W43617  21.517  19.278   3.725
71193W        W43618   5.211   8.256   2.793
71194W        W43619  18.083  24.160  10.423
71195W        W43620  33.597   7.824   0.438
71196W        W43621  14.837   0.894  14.241
71197W        W43622  23.602  31.956  10.516
71198W        W43623   5.838  33.876   3.199
71199W        W43624  38.089  22.188  10.742
71200W        W43625  12.125   9.451  14.870
71201W        W43626  36.330  25.211   2.156
71202W        W43627  38.781  12.399  14.429
71203W        W43628  39.141  30.470   1.144
71204W        W43629  12.274  10.637   4.069
71205W        W43630   5.208  26.717  14.964
71206W        W43631  33.594  39.584  13.371
71207W        W43632  37.033  27.989   1.219
71208W        W43633  28.390  39.940   1.184
71209W        W43634   1.215  12.350   2.647
71210W        W43635   3.263  12.610   3.730
71211W        W43636   5.332   2.698   1.282
71212W        W43637  12.275  16.244   4.525
71213W        W43638   8.288  37.654   1.685
71214W        W43639  16.775  41.989   3.856
71215W        W43640  26.650   3.705   3.884
71216W        W43641   5.952   0.971   1.291
71217W        W43642   6.861   8.126  11.730
71218W        W43643   5.655   1.850   2.207
71219W        W43644  19.501  24.073   1.721
71220W        W43645  35.699   2.259   0.930
71221W        W43646  11.192  12.916  14.426
71222W        W43647  11.748  22.324  11.596
71223W        W43648  36.666   7.281  10.273
71224W        W43649  41.847  16.144  11.068
71225W        W43650   7.007  19.658   3.258
71226W        W43651  38.455  39.481  11.880
71227W        W43652  27.417   0.790   1.848
71228W        W43653   8.200  36.506   1.519
71229W        W43654  32.177  20.155  13.805
71230W        W43655  12.349  19.492  14.819
71231W        W43656  33.957  29.476   4.474
71232W        W43657  13.096   7.806   1.414
71233W        W43658   5.730   9.686  11.533
71234W        W43659  19.185   6.972  12.654
71235W        W43660  30.094   6.168  10.652
71236W        W43661  25.109  19.117  10.718
71237W        W43662  41.947  23.920   3.691
71238W        W43663  43.401   5.208   2.495
71239W        W43664  21.479  34.498  10.690
71240W        W43665   3.982   6.772   2.784
71241W        W43666  21.505   9.947   0.379
71242W        W43667  44.541  26.160  10.368
71243W        W43668  44.255  12.126   3.814
71244W        W43669  24.250  37.032   4.651
71245W        W43670  12.618  16.262   3.101
71246W        W43671  37.409  13.605  11.525
71247W        W43672  36.918  21.523   3.271
71248W        W43673   4.251  11.505  13.144
71249W        W43674  33.355  42.140   0.972
71250W        W43675   6.136  37.558   5.225
71251W        W43676  17.139  29.392  14.325
71252W        W43677  44.114  32.621   4.128
71253W        W43678  14.731  17.078   3.280
71254W        W43679  31.240  20.133  14.955
71255W        W43680  31.859  16.600  10.841
71256W        W43681  18.911  14.905   1.877
71257W        W43682  30.849   9.294   2.763
71258W        W43683  44.532  24.993   4.176
71259W        W43684   0.846   0.665   0.928
71260W        W43685  22.482  10.262   4.582
71261W        W43686  26.478   9.783   3.819
71262W        W43687  35.505  42.875   2.131
71263W        W43688  29.078  36.604   3.837
71264W        W43689   2.756  44.935   1.456
71265W        W43690  39.725  21.070  13.733
71266W        W43691  32.427  43.251  13.330
71267W        W43692   6.258   9.708  14.515
71268W        W43693  16.563  34.950  13.507
71269W        W43694  33.583  34.181   1.006
71270W        W43695  10.413  11.359  10.416
71271W        W43696  27.837  29.967  14.963
71272W        W43697  40.861  36.425   3.742
71273W        W43698   8.952  36.487  13.793
71274W        W43699  11.364  31.141   0.218
71275W        W43700   6.728   8.348   4.920
71276W        W43701   7.906  37.559  14.791
71277W        W43702  29.364  17.583  11.141
71278W        W43703   1.653  38.592  11.470
71279W        W43704  19.144   2.026  14.488
71280W        W43705   1.106  40.755   1.700
71281W        W43706   2.410  40.269   4.617
71282W        W43707  25.954   2.372   4.751
71283W        W43708  35.120  14.837  12.625
71284W        W43709  34.356  13.341   1.742
71285W        W43710  15.393  31.127   2.551
71286W        W43711  17.364  21.668  13.534
71287W        W43712  40.247   2.278   2.188
71288W        W43713  22.016  30.853  14.001
71289W        W43714   9.526  32.450  11.411
71290W        W43715   5.723   8.338  11.663
71291W        W43716   4.680  35.815   2.391
71292W        W43717  24.844  19.699  14.263
71293W        W43718  30.032  16.781  11.033
71294W        W43719  42.437  18.433   5.068
71295W        W43720  39.099  41.569  13.885
71296W        W43721   0.778  41.545  14.198
71297W        W43722  19.855  18.791   1.259
71298W        W43723   7.080  21.336  12.427
71299W        W43724  25.153  17.750  10.340
71300W        W43725   5.089  16.532   2.245
71301W        W43726  42.794  30.640   2.795
71302W        W43727  42.013  26.926   1.285
71303W        W43728   8.681  10.844  10.633
71304W        W43729  34.833  12.137  14.667
71305W        W43730  10.276   0.864   0.526
71306W        W43731  14.384  11.282   3.248
71307W        W43732  15.196  20.828  14.379
71308W        W43733  16.063  41.987   0.717
71309W        W43734  24.651   2.867  10.789
71310W        W43735  23.647  13.853  12.356
71311W        W43736  22.774   0.080  12.124
71312W        W43737  44.365  44.189  13.380
71313W        W43738  31.598   4.909   3.146
71314W        W43739  19.283   2.196   2.312
71315W        W43740  15.544  12.652  10.707
71316W        W43741  24.940   8.615  11.623
71317W        W43742  27.636  31.702   0.207
71318W        W43743  14.616  10.165   0.921
71319W        W43744   1.256  31.214   2.329
71320W        W43745  43.784  31.020  12.472
71321W        W43746  14.236  18.814   2.154
71322W        W43747  30.235  28.549   1.099
71323W        W43748  27.630   6.931  12.744
71324W        W43749  36.182  13.886  10.805
71325W        W43750  11.089  32.380   0.434
71326W        W43751  16.331   5.110  13.740
71327W        W43752   9.909   2.410   4.722
71328W        W43753  10.104  40.312   2.889
71329W        W43754  30.561   1.727  10.575
71330W        W43755  35.904  44.026  11.187
71331W        W43756  35.396  22.754   3.762
71332W        W43757   8.367  34.804   2.126
71333W        W43758  33.274  25.561  11.854
71334W        W43759   3.411  36.138   4.399
71335W        W43760  25.746  42.758   3.269
71336W        W43761   5.245   3.765  11.519
71337W        W43762  34.828   5.368  13.934
71338W        W43763   0.746  43.995  14.862
71339W        W43764  39.420   4.858  11.152
71340W        W43765  32.914   8.433  13.909
71341W        W43766  41.235  17.776   4.769
71342W        W43767  41.578  25.222   3.038
71343W        W43768  14.787   6.160  12.890
71344W        W43769  38.456   4.679   3.211
71345W        W43770   9.583   3.828  14.807
71346W        W43771  19.075  27.471   3.370
71347W        W43772   3.203  15.760  14.760
71348W        W43773  21.183   8.284  13.926
71349W        W43774   7.242  41.032   3.240
71350W        W43775  12.671  43.343  14.912
71351W        W43776   3.209  17.513  11.610
71352W        W43777  23.085  25.757   1.589
71353W        W43778   4.190  21.082  12.070
71354W        W43779  25.434   6.239  13.997
71355W        W43780  25.119  23.721  11.079
71356W        W43781  10.792   3.187  10.905
71357W        W43782   7.581  36.174  12.570
71358W        W43783   4.782   5.737  12.513
71359W        W43784   7.335  41.377  12.078
71360W        W43785  39.951  37.085  14.034
71361W        W43786   5.769  31.856  14.071
71362W        W43787  41.342  41.334   1.360
71363W        W43788  14.824  11.675  11.630
71364W        W43789  40.859   3.291  12.998
71365W        W43790   4.183   2.710   0.239
71366W        W43791  42.486  20.798   0.726
71367W        W43792  23.705  32.867   4.708
71368W        W43793  12.703  43.524   0.483
71369W        W43794  40.671  15.814   1.970
71370W        W43795  41.012  33.966   2.578
71371W        W43796   8.036  16.789  10.097
71372W        W43797  32.954  40.771   0.399
71373W        W43798  25.743  30.806   4.413
71374W        W43799   4.466   8.122  14.297
71375W        W43800  42.617  15.959  14.941
71376W        W43801  22.107  21.541  11.550
71377W        W43802  24.747  37.202   4.520
71378W        W43803  42.414  35.260  14.344
71379W        W43804  30.054   4.399   3.369
71380W        W43805  38.610  37.309   0.950
71381W        W43806  29.103  41.969   0.852
71382W        W43807  20.167  42.913  13.632
71383W        W43808  29.129  41.455   5.028
71384W        W43809   4.252  32.745  11.405
71385W        W43810  18.387   4.218   0.145
71386W        W43811  28.162   8.904   3.584
71387W        W43812  37.090  22.716  10.587
71388W        W43813  43.648   2.917  10.588
71389W        W43814  24.663  40.339   1.284
71390W        W43815   7.735  13.141  12.993
71391W        W43816  34.978  37.050  12.496
71392W        W43817  16.397  33.886  12.921
71393W        W43818  44.286   1.975   4.305
71394W        W43819  39.554  32.335  11.529
71395W        W43820  11.393  22.570   4.946
71396W        W43821  44.269  20.591  11.873
71397W        W43822  41.501  23.019  11.563
71398W        W43823  34.564  28.584   1.962
71399W        W43824  18.982  43.984  14.895
71400W        W43825  29.902   4.780   1.048
71401W        W43826  19.879  30.474  14.744
71402W        W43827  29.685  43.426  10.931
71403W        W43828  25.944  24.419   3.569
71404W        W43829   3.673   6.550   1.604
71405W        W43830  35.086  44.828   1.048
71406W        W43831  28.211  32.201   5.064
71407W        W43832  27.672  14.362   4.215
71408W        W43833  36.351   1.355  12.179
71409W        W43834  23.677  43.991   2.750
71410W        W43835  33.542  17.826  13.407
71411W        W43836  41.743   9.877   1.738
71412W        W43837  13.002  16.201  12.546
71413W        W43838   2.177  32.993   3.332
71414W        W43839  13.271  14.253  11.371
71415W        W43840  19.982   8.424  10.745
71416W        W43841  37.850   1.472  14.996
71417W        W43842   0.387  28.262  13.867
71418W        W43843   1.030  24.577   2.747
71419W        W43844  12.129   3.137   3.790
71420W        W43845  31.483  33.490   2.289
71421W        W43846  36.046  35.564   3.686
71422W        W43847  26.928  40.513  11.062
71423W        W43848   0.338  26.963   1.640
71424W        W43849   9.891  43.912   2.758
71425W        W43850   4.052  32.867  13.513
71426W        W43851  34.954  37.011   4.731
71427W        W43852  43.903  39.734   3.189
71428W        W43853   8.331   7.911  14.891
71429W        W43854  44.698   2.504  10.708
71430W        W43855  34.027   2.258  14.040
71431W        W43856  34.330  31.648  12.904
71432W        W43857  37.030  35.401   1.914
71433W        W43858  12.603   5.130  11.481
71434W        W43859  18.283  25.410   4.526
71435W        W43860  22.487  11.641   0.918
71436W        W43861   9.030  27.923   1.678
71437W        W43862  26.667   2.521   1.490
71438W        W43863   7.083  37.526   4.739
71439W        W43864   5.072  20.204  11.723
71440W        W43865   7.972  36.247  14.874
71441W        W43866   2.672  14.899  13.730
71442W        W43867  28.669  22.950  12.354
71443W        W43868  25.779  35.351  13.937
71444W        W43869  22.317   7.376   0.487
71445W        W43870  15.755  21.217  14.104
71446W        W43871  44.513  31.361  11.494
71447W        W43872   0.025  31.656   3.324
71448W        W43873  27.073  11.342   4.178
71449W        W43874   2.256   9.287  11.223
71450W        W43875   4.551  44.392  14.410
71451W        W43876  11.307  39.989  12.226
71452W        W43877  17.289   2.538   0.628
71453W        W43878  32.646  20.073   2.960
71454W        W43879  25.382  43.820   4.517
71455W        W43880  37.440  25.190  12.548
71456W        W43881  22.753  16.115  14.894
71457W        W43882  43.722   2.433  10.734
71458W        W43883  27.924   4.465  14.250
71459W        W43884  13.768  28.474  10.676
71460W        W43885   8.743  20.932  11.156
71461W        W43886  10.358  27.508  11.381
71462W        W43887   9.197  41.316   3.473
71463W        W43888  10.292  43.371  11.548
71464W        W43889  36.321  22.879  13.802
71465W        W43890  40.835  20.198   4.085
71466W        W43891  39.396  41.980   0.729
71467W        W43892   9.111   5.996  11.994
71468W        W43893   0.348  24.481  14.948
71469W        W43894   5.498   1.843  11.181
71470W        W43895  37.366  23.687  14.680
71471W        W43896  35.660  18.837   4.121
71472W        W43897  32.057  33.920  12.080
71473W        W43898   2.712  26.673   4.859
71474W        W43899   8.806  17.570  13.489
71475W        W43900  13.785  34.120  11.475
71476W        W43901  18.843   5.280   2.610
71477W        W43902  23.196  17.330   2.717
71478W        W43903  36.179   1.202  14.392
71479W        W43904  38.486  39.964  13.531
71480W        W43905  28.541  25.427   1.213
71481W        W43906  34.817   7.787   5.163
71482W        W43907  44.867  17.752  13.122
71483W        W43908  44.264   6.487  11.592
71484W        W43909  22.464  34.564  12.915
71485W        W43910   0.745  16.071   0.949
71486W        W43911  20.119  38.085   4.410
71487W        W43912  26.560  24.065  12.562
71488W        W43913  21.283  33.547  12.827
71489W        W43914  42.768  37.009   0.341
71490W        W43915   4.917   7.254   1.818
71491W        W43916  35.983  38.488   3.705
71492W        W43917  36.616  43.319   3.626
71493W        W43918  24.205  32.754   2.116
71494W        W43919  29.511  34.204  10.284
71495W        W43920  14.065  39.372   1.600
71496W        W43921  33.585   2.494  10.995
71497W        W43922  43.802   9.766  12.813
71498W        W43923   1.235  43.781   2.258
71499W        W43924   2.700  16.241  12.361
71500W        W43925  31.040  41.110   3.283
71501W        W43926  31.609   3.168  12.574
71502W        W43927  24.516  41.479  12.906
71503W        W43928  38.877  15.190  14.408
71504W        W43929   3.064  29.656   4.584
71505W        W43930  13.244  36.096   1.810
71506W        W43931  22.215  38.058   4.266
71507W        W43932   9.983  23.178  13.605
71508W        W43933  17.367  17.086   3.629
71509W        W43934   5.649  11.847   3.219
71510W        W43935  26.591  16.259   3.754
71511W        W43936   3.772   1.295  12.400
71512W        W43937  37.589  19.627  13.931
71513W        W43938   8.719  13.921   2.261
71514W        W43939  20.684   0.786   2.888
71515W        W43940  33.482   2.439   4.652
71516W        W43941  21.772  10.455   0.207
71517W        W43942   8.701  33.535   3.858
71518W        W43943  15.188   6.476  10.769
71519W        W43944   5.927  12.385  13.983
71520W        W43945   4.371   8.913   1.278
71521W        W43946   2.908  19.727   0.320
71522W        W43947  40.917  15.116   1.339
71523W        W43948  29.885  17.854   4.632
71524W        W43949  18.675  37.959   4.654
71525W        W43950   2.446  12.590   1.819
71526W        W43951  14.863  30.252   4.588
71527W        W43952  21.669  44.170  10.021
71528W        W43953  16.251  12.196  13.807
71529W        W43954  21.026   0.958   0.652
71530W        W43955  41.028  13.770  13.481
71531W        W43956   8.979  31.035  12.574
71532W        W43957  15.696  15.564  10.730
71533W        W43958  34.539  35.081  14.400
71534W        W43959   0.364  19.513   4.119
71535W        W43960  36.573  42.545   5.044
71536W        W43961  39.900  39.971   0.955
71537W        W43962  16.605  38.478   0.186
71538W        W43963  19.508  40.668   0.605
71539W        W43964  40.471   3.312   4.516
71540W        W43965  26.499  36.540   3.705
71541W        W43966  25.508  20.458  11.870
71542W        W43967  31.403  21.588  11.019
71543W        W43968   5.462  41.253   0.424
71544W        W43969  12.673   1.473  14.965
71545W        W43970  25.174  17.851   2.213
71546W        W43971  39.433   4.544   2.367
71547W        W43972   8.746  21.465  13.890
71548W        W43973  15.203   9.221  11.819
71549W        W43974   5.792  10.392  12.029
71550W        W43975  18.818  27.645  12.961
71551W        W43976  39.370   5.457   2.849
71552W        W43977  28.656   1.415  12.015
71553W        W43978  16.314  14.572   2.734
71554W        W43979   8.954   6.650   2.850
71555W        W43980  19.573  27.654   4.280
71556W        W43981  35.615  18.712  11.094
71557W        W43982  24.685  18.735  12.194
71558W        W43983  17.240  25.318   1.492
71559W        W43984  27.206  13.334  12.147
71560W        W43985  40.548  32.140  12.094
71561W        W43986  20.741  10.051  14.008
71562W        W43987  15.140  22.044  13.965
71563W        W43988   3.994  44.339   2.728
71564W        W43989  12.326  36.599   1.466
71565W        W43990  14.935  33.942   9.715
71566W        W43991  12.326  37.380  10.593
71567W        W43992   5.820   9.371   3.579
71568W        W43993  16.377   4.806  12.030
71569W        W43994   5.243  16.205  12.434
71570W        W43995  27.338  33.886  11.059
71571W        W43996  25.662  12.691  12.420
71572W        W43997  30.213  13.628   1.417
71573W        W43998  16.884  10.906  11.160
71574W        W43999  20.221  12.371   0.984
71575W        W44000  19.066   1.729   2.337
71576W        W44001   7.640  28.603   4.136
71577W        W44002  41.969  44.500  10.657
71578W        W44003  17.593  35.764  14.377
71579W        W44004  44.822  21.604  14.890
71580W        W44005   4.437  18.348   4.317
71581W        W44006  26.237  27.226  10.770
71582W        W44007   7.715  39.050  11.017
71583W        W44008  17.089  35.044   2.811
71584W        W44009  11.276  41.849   4.672
71585W        W44010  41.738  36.052   2.182
71586W        W44011  24.970  34.025   2.874
71587W        W44012  20.274  28.728  13.089
71588W        W44013  30.684  14.257   3.147
71589W        W44014  30.418  22.978   1.435
71590W        W44015  43.300  28.187   1.905
71591W        W44016  13.112   3.300  14.268
71592W        W44017  38.668   0.650   1.703
71593W        W44018  39.037  25.897  11.662
71594W        W44019  32.513  31.445   4.200
71595W        W44020  25.105  42.207   4.022
71596W        W44021  14.222  17.016   3.350
71597W        W44022  40.563   0.698   1.836
71598W        W44023  32.341  43.968  10.715
71599W        W44024   0.663  34.531   3.148
71600W        W44025  11.048  33.428  10.722
71601W        W44026  44.555  42.862  12.123
71602W        W44027  41.604  35.389   4.635
71603W        W44028  40.009   6.594  10.736
71604W        W44029  40.514   7.593  14.339
71605W        W44030  19.990  28.065   0.762
71606W        W44031  13.851   3.809  13.387
71607W        W44032  35.077  42.118  11.565
71608W        W44033  35.087  18.524  14.383
71609W        W44034  29.369  42.314   4.238
71610W        W44035  37.494  29.192   1.455
71611W        W44036   2.079  31.490   1.409
71612W        W44037  21.149   1.576  13.947
71613W        W44038  25.203  37.707  10.302
71614W        W44039   6.702  39.009  11.954
71615W        W44040   8.253  15.641   3.426
71616W        W44041  18.965  33.234   2.438
71617W        W44042   2.627   4.780  11.587
71618W        W44043  23.129  39.411   4.663
71619W        W44044  11.686  18.576  10.942
71620W        W44045  13.380  29.590  14.367
71621W        W44046   3.352  17.580  12.563
71622W        W44047  44.996  33.098   2.183
71623W        W44048  33.814  29.103   2.351
71624W        W44049  41.368  14.145  14.049
71625W        W44050  15.397  18.178  13.731
71626W        W44051  43.917  30.697   2.947
71627W        W44052  18.037  14.754  12.429
71628W        W44053  16.093   0.024   1.719
71629W        W44054  42.495  29.173   0.319
71630W        W44055  14.211  19.027   4.879
71631W        W44056  21.515  25.640   4.387
71632W        W44057  10.153   6.986   2.178
71633W        W44058  24.467  28.750  13.853
71634W        W44059  39.195  24.564   1.230
71635W        W44060  28.881  13.682  12.588
71636W        W44061  35.445  15.250  11.703
71637W        W44062  11.697  11.876  12.476
71638W        W44063   8.474   3.903   0.412
71639W        W44064  44.932  38.110  12.980
71640W        W44065  13.264  33.610  13.962
71641W        W44066  43.104  39.100  10.804
71642W        W44067   3.857  31.110   2.340
71643W        W44068  26.388  36.996   3.208
71644W        W44069  20.701  34.121  11.455
71645W        W44070  32.079  12.163   2.652
71646W        W44071  41.003  17.844   0.262
71647W        W44072  25.497  11.311  13.789
71648W        W44073  42.405   8.498   3.732
71649W        W44074  12.588  42.008  11.535
71650W        W44075  27.933  33.562   0.734
71651W        W44076   9.674   5.135  11.189
71652W        W44077  43.387  29.917   2.624
71653W        W44078  35.639  19.066  13.510
71654W        W44079  22.082  26.146  14.360
71655W        W44080  22.874  30.449  10.840
71656W        W44081  20.498  18.444   0.482
71657W        W44082  20.245   3.345   3.268
71658W        W44083  39.245   7.822  11.438
71659W        W44084   7.769  41.789  13.991
71660W        W44085   7.356   1.169  13.935
71661W        W44086   7.431   8.779   4.259
71662W        W44087  15.122  16.093  14.333
71663W        W44088  26.134  42.010  13.620
71664W        W44089  19.753  34.104  14.554
71665W        W44090   8.877   6.468  14.316
71666W        W44091  22.076  42.269   1.844
71667W        W44092   5.634  40.841   3.115
71668W        W44093  42.870  22.151  11.633
71669W        W44094  17.595  40.932   2.778
71670W        W44095  21.098  32.373  12.671
71671W        W44096  26.973  16.129  13.398
71672W        W44097  13.789  12.927  13.535
71673W        W44098  14.319  14.087   3.848
71674W        W44099   9.445  17.337  11.045
71675W        W44100  32.784  36.123  14.846
71676W        W44101   7.288  18.529  12.028
71677W        W44102  11.043  34.514   1.645
71678W        W44103  34.992  19.678  14.749
71679W        W44104   5.692  32.704   1.262
71680W        W44105   5.872  25.600  14.573
71681W        W44106  30.830  31.397   0.503
71682W        W44107  23.125  13.789   3.369
71683W        W44108  29.705  34.939  12.887
71684W        W44109  34.926   3.930  12.084
71685W        W44110  31.626  15.835  10.452
71686W        W44111  39.046  24.719  10.740
71687W        W44112  37.791   6.750   2.806
71688W        W44113  34.110   3.198  11.085
71689W        W44114  11.266  28.483   4.024
71690W        W44115  35.869  17.145  10.777
71691W        W44116  14.616  23.498   3.161
71692W        W44117  10.309  30.016   0.871
71693W        W44118  32.969  30.122  13.851
71694W        W44119  16.266  18.079   1.877
71695W        W44120  28.539  38.140   1.920
71696W        W44121  18.689  10.658   3.761
71697W        W44122  30.959  37.529   1.387
71698W        W44123  27.120   7.230   1.835
71699W        W44124   5.765   9.238   4.560
71700W        W44125  32.038  23.034  11.167
71701W        W44126  24.635  17.188   3.681
71702W        W44127  36.823  42.180  14.683
71703W        W44128  42.553  27.639   1.871
71704W        W44129  39.704  30.430   1.186
71705W        W44130   6.058   2.786   4.970
71706W        W44131  37.801  44.435  13.440
71707W        W44132  32.920  25.547   0.638
71708W        W44133  13.772  12.648  11.200
71709W        W44134  37.850   5.846   1.763
71710W        W44135  32.530  15.361   2.504
71711W        W44136   9.177  21.754   0.616
71712W        W44137  23.193  43.722  13.355
71713W        W44138   6.465  42.059  14.423
71714W        W44139   3.977  16.139  14.503
71715W        W44140  10.632  41.507   5.060
71716W        W44141  39.537  32.467   0.294
71717W        W44142  23.087  19.296   1.291
71718W        W44143   4.187  44.873   4.865
71719W        W44144  27.443  43.682  12.141
71720W        W44145  30.599  15.747  11.403
71721W        W44146  32.543  16.788  11.972
71722W        W44147  24.718   1.197   4.243
71723W        W44148   7.394  37.919   4.166
71724W        W44149   1.798   7.330   3.842
71725W        W44150   1.709   7.768  10.713
71726W        W44151  39.998  28.138   4.900
71727W        W44152  17.374  28.570  10.667
71728W        W44153  22.976  21.109  12.505
71729W        W44154  16.476  27.483   3.303
71730W        W44155  41.427   3.193   1.401
71731W        W44156  24.933   9.291  14.115
71732W        W44157  40.084  39.399   0.934
71733W        W44158   5.350  33.122  13.576
71734W        W44159  18.677   1.882   4.187
71735W        W44160  32.954   7.117  10.724
71736W        W44161  11.366  34.913   0.706
71737W        W44162   1.463  39.230   4.146
71738W        W44163  21.204  38.911   1.358
71739W        W44164   8.430  25.039   2.387
71740W        W44165  30.112  12.076  14.828
71741W        W44166   0.735  35.097  13.068
71742W        W44167  22.510  37.493  12.980
71743W        W44168  37.560   3.320  12.937
71744W        W44169  10.958  37.466  14.965
71745W        W44170  41.521  43.550  10.686
71746W        W44171  44.722  11.598  10.855
71747W        W44172   1.221  37.385  11.567
71748W        W44173  21.755  18.066  11.006
71749W        W44174   7.090   8.300   0.746
71750W        W44175  16.685  13.547   0.306
71751W        W44176  20.366  42.424   3.679
71752W        W44177  22.037   8.864  14.825
71753W        W44178  33.401  12.614   1.001
71754W        W44179  30.847  36.610   1.838
71755W        W44180  17.281  20.818  11.597
71756W        W44181  27.137  15.806  14.889
71757W        W44182   9.636   0.948  11.672
71758W        W44183  14.020  27.416   1.757
71759W        W44184  27.139   2.327  11.108
71760W        W44185  36.368   4.648   3.752
71761W        W44186  11.380   7.625  11.529
71762W        W44187  39.466  38.008   3.112
71763W        W44188  14.816  37.905   1.856
71764W        W44189  23.032  25.500   3.629
71765W        W44190  23.303  16.173   3.458
71766W        W44191  14.827  29.690   3.604
71767W        W44192  27.585  23.328   0.818
71768W        W44193   6.947  18.339   4.126
71769W        W44194  23.403  37.037   4.312
71770W        W44195  29.528  37.960  13.497
71771W        W44196  20.389  12.118   5.394
71772W        W44197  14.730  16.517   2.398
71773W        W44198   3.246  23.286   3.975
71774W        W44199  27.556  26.161   2.414
71775W        W44200  17.654  17.602   0.563
71776W        W44201   2.235  20.564  12.945
71777W        W44202  34.389  31.638   1.674
71778W        W44203  33.465  27.787  11.896
71779W        W44204  16.845   5.829  14.896
71780W        W44205  43.222  18.425   3.837
71781W        W44206   6.303  30.389  10.692
71782W        W44207  39.907   5.718   3.285
71783W        W44208  35.997  10.044   3.653
71784W        W44209  19.795   5.275  12.776
71785W        W44210   7.704  22.506   2.065
71786W        W44211  14.667  24.449  10.122
71787W        W44212  19.216  12.518   0.346
71788W        W44213  12.108  17.506  11.037
71789W        W44214  19.553   7.202  12.407
71790W        W44215   4.971  38.032   0.738
71791W        W44216  26.080   4.260  14.374
71792W        W44217  29.617  18.949  13.474
71793W        W44218  22.046  32.443  11.928
71794W        W44219  41.579  22.162   9.491
71795W        W44220   6.973  33.285   1.556
71796W        W44221   5.958  25.567   3.826
71797W        W44222   3.952  38.318  12.543
71798W        W44223  19.740   6.396   2.152
71799W        W44224   9.888   8.373   3.352
71800W        W44225  22.035   5.227  13.400
71801W        W44226  25.814  32.582   4.915
71802W        W44227  20.109  28.759  12.567
71803W        W44228  15.279  44.994  10.875
71804W        W44229  19.957  33.863   3.181
71805W        W44230   1.269  26.118  13.074
71806W        W44231  34.931  11.323   2.110
71807W        W44232  29.426  25.027   4.161
71808W        W44233  37.358  20.076  13.708
71809W        W44234  35.428  12.793  12.030
71810W        W44235  21.936  40.076  11.458
71811W        W44236  20.023  26.410   3.223
71812W        W44237   7.513  25.616  10.665
71813W        W44238  10.624  43.880  10.683
71814W        W44239  37.365  25.124   0.254
71815W        W44240  13.783  29.157   0.782
71816W        W44241   5.586  40.622  12.049
71817W        W44242  14.572  41.863   0.071
71818W        W44243  10.311  25.510   5.148
71819W        W44244  26.977   2.957   2.791
71820W        W44245  12.321  39.418   4.622
71821W        W44246  36.453  24.724  13.496
71822W        W44247  22.688  32.738   2.159
71823W        W44248  42.335  12.900   2.799
71824W        W44249  14.503  38.915  13.685
71825W        W44250  36.421   1.793   0.508
71826W        W44251  28.341  41.783  13.506
71827W        W44252  30.948  33.514   3.087
71828W        W44253   0.679  32.680   4.244
71829W        W44254  10.102  17.664   1.590
71830W        W44255  27.039  30.325  13.293
71831W        W44256  20.274  43.471  11.076
71832W        W44257  33.308   7.755  14.975
71833W        W44258  36.206   4.977   4.712
71834W        W44259  34.518  29.201  13.869
71835W        W44260  37.067  13.024  11.045
71836W        W44261  16.049  33.429   0.474
71837W        W44262  13.665   1.647   5.440
71838W        W44263  30.657  41.832   0.875
71839W        W44264  10.062  21.635  13.891
71840W        W44265  27.546  32.330  10.138
71841W        W44266  26.238   6.181  12.154
71842W        W44267  14.511  30.920   4.217
71843W        W44268  18.561  22.258   0.061
71844W        W44269  25.505  15.589   0.788
71845W        W44270   9.972   7.297   4.184
71846W        W44271  18.111  33.425   2.239
71847W        W44272  35.902  31.658  13.862
71848W        W44273  42.801  10.690   1.151
71849W        W44274  13.763  43.840   2.141
71850W        W44275  36.352   6.969  12.157
71851W        W44276   4.545  16.757  10.768
71852W        W44277  18.956   3.489   3.557
71853W        W44278   9.033  22.357   2.216
71854W        W44279   7.930  43.864   1.065
71855W        W44280   3.479  41.811   2.305
71856W        W44281   5.140  35.968  12.882
71857W        W44282  35.406  33.720   1.275
71858W        W44283  13.731  34.623  11.640
71859W        W44284  38.565  17.603   0.331
71860W        W44285  24.082  29.525   3.310
71861W        W44286  39.507  24.287   4.171
71862W        W44287  32.396  37.012   3.011
71863W        W44288   9.950   9.838   0.338
71864W        W44289   4.953  12.456  11.951
71865W        W44290   5.388  23.178  13.931
71866W        W44291  24.201  28.618   0.189
71867W        W44292  30.435  13.822  13.441
71868W        W44293   5.220  17.953  13.967
71869W        W44294  30.519  14.617  12.626
71870W        W44295  31.508  28.068   1.900
71871W        W44296  41.752  36.782   0.566
71872W        W44297  37.568  35.368  12.531
71873W        W44298  31.554  23.506   0.875
71874W        W44299  32.131  13.066   3.593
71875W        W44300  17.521  22.791  11.680
71876W        W44301   4.851  28.405  12.617
71877W        W44302   9.296  23.401   4.999
71878W        W44303  20.583  24.273  11.629
71879W        W44304  38.539  38.540   2.186
71880W        W44305  22.302  32.859   4.544
71881W        W44306  39.936  12.897  12.484
71882W        W44307   7.973   2.639   0.856
71883W        W44308  43.449   3.379   3.718
71884W        W44309  30.304   3.850   4.665
71885W        W44310   5.378  26.136  14.242
71886W        W44311  38.464  23.717   4.542
71887W        W44312   4.540   1.306   2.699
71888W        W44313  22.951  37.900  14.055
71889W        W44314  36.545  28.100  14.049
71890W        W44315  31.835  37.464  10.719
71891W        W44316  17.069  30.118   2.593
71892W        W44317  19.092   5.732  11.232
71893W        W44318  33.124  31.092   0.918
71894W        W44319  40.380  10.375  10.684
71895W        W44320  20.615   2.081   1.339
71896W        W44321  43.837  22.058   1.604
71897W        W44322  43.774  26.634   1.318
71898W        W44323  11.637  29.370   1.772
71899W        W44324  43.291  31.663  14.537
71900W        W44325  12.711  28.464   3.916
71901W        W44326  25.925  26.170   3.293
71902W        W44327  21.109  10.537  10.155
71903W        W44328  37.478  18.752  10.911
71904W        W44329  28.903  35.472   2.930
71905W        W44330   4.278   3.466  11.904
71906W        W44331   6.567  13.772   2.734
71907W        W44332  13.323  27.159   1.238
71908W        W44333  22.275  41.945  14.023
71909W        W44334  11.226  29.408  12.858
71910W        W44335  42.538  33.260  11.192
71911W        W44336  27.101   1.897   1.785
71912W        W44337  12.707   7.962   3.031
71913W        W44338  28.625  37.342   4.706
71914W        W44339  19.479   0.591  12.158
71915W        W44340  11.329  21.501  11.565
71916W        W44341   2.242  12.670   2.845
71917W        W44342   4.920   1.508  12.000
71918W        W44343  14.725  32.059  14.055
71919W        W44344  39.029  36.394   2.188
71920W        W44345  40.337  19.977  12.482
71921W        W44346  36.088  30.136   1.429
71922W        W44347  39.043  36.560   3.374
71923W        W44348  41.063  35.959  13.859
71924W        W44349  39.192  37.185  10.635
71925W        W44350  17.824  39.333  10.701
71926W        W44351  36.200   5.007   0.282
71927W        W44352   3.762   5.769   2.185
71928W        W44353  23.958  14.990  12.938
71929W        W44354  24.935  25.234   1.200
71930W        W44355  30.960  37.545  12.073
71931W        W44356  33.522  41.307  13.107
71932W        W44357  23.151  29.955  12.000
71933W        W44358  18.732  25.702   4.605
71934W        W44359  12.854  26.597   2.204
71935W        W44360  33.888  38.173  13.430
71936W        W44361  18.222  29.891   0.509
71937W        W44362   6.847  40.053  14.864
71938W        W44363  37.634  42.298  12.014
71939W        W44364  37.935  39.760  12.613
71940W        W44365  20.579  42.373  11.681
71941W        W44366  31.606  19.609  12.990
71942W        W44367  10.254  13.773   4.283
71943W        W44368  44.218  33.598   0.333
71944W        W44369   2.405  20.331   1.283
71945W        W44370  41.000  42.282   4.134
71946W        W44371  17.640  40.593  13.070
71947W        W44372  43.046  42.929  12.099
71948W        W44373  32.640  44.912  14.856
71949W        W44374  27.757  10.074  11.325
71950W        W44375  39.481  12.096  12.581
71951W        W44376  10.805  20.308  10.962
71952W        W44377  32.520  27.058  14.351
71953W        W44378   2.200  15.366   2.427
71954W        W44379  19.083  43.703  10.985
71955W        W44380  20.712  13.666  11.130
71956W        W44381  42.600  13.619   3.870
71957W        W44382  37.468  20.508  10.872
71958W        W44383  37.892  30.727  11.853
71959W        W44384   2.813   7.418  12.797
71960W        W44385  12.737  36.317   1.775
71961W        W44386  24.703  32.377  13.790
71962W        W44387  18.598  21.017  11.856
71963W        W44388   5.210   0.926   2.217
71964W        W44389  32.467   1.267  11.437
71965W        W44390  19.025  41.835  11.087
71966W        W44391   5.863  36.864   4.579
71967W        W44392   0.605  10.813  13.070
71968W        W44393  25.559  18.841   2.956
71969W        W44394  36.596   2.465   0.025
71970W        W44395  13.047  32.926   4.931
71971W        W44396   9.634   0.924   3.253
71972W        W44397  37.450   7.329  11.557
71973W        W44398  38.854  26.607  11.415
71974W        W44399   8.485  29.013  11.939
71975W        W44400  19.152  10.311  10.702
71976W        W44401  44.557   2.867   0.016
71977W        W44402   8.020  10.505  10.374
71978W        W44403   6.939  44.443   0.863
71979W        W44404  29.938  24.707   9.901
71980W        W44405  22.336   9.243  10.206
71981W        W44406  38.950   5.027   1.701
71982W        W44407  13.742  20.606   3.207
71983W        W44408  24.080  42.863  13.447
71984W        W44409  15.178  19.301  10.579
71985W        W44410  43.498  28.896   1.150
71986W        W44411  12.611  44.782   3.267
71987W        W44412  23.717  40.074   0.434
71988W        W44413  16.157  35.323  14.347
71989W        W44414  11.395   6.344   2.454
71990W        W44415   9.368  18.891   0.858
71991W        W44416  27.392  27.122   3.789
71992W        W44417  32.771  12.989   2.871
71993W        W44418   8.937  29.032  13.886
71994W        W44419  24.252  30.812   1.327
71995W        W44420  13.235  14.220  10.857
71996W        W44421   0.780  43.754   0.709
71997W        W44422  37.916   6.335   0.359
71998W        W44423   9.834  20.374   2.980
71999W        W44424   6.825  22.460   0.626
72000W        W44425  34.015   2.431   0.545
72001W        W44426  19.448  17.595  13.912
72002W        W44427  29.083  16.610   1.390
72003W        W44428  15.306  39.890  10.694
72004W        W44429  13.186  26.494   4.083
72005W        W44430   2.839   3.337   1.834
72006W        W44431  28.561  13.398   1.340
72007W        W44432   7.669  26.062   0.701
72008W        W44433  13.265  16.899  10.707
72009W        W44434  12.675  10.201   0.022
72010W        W44435  36.411  31.341   4.656
72011W        W44436  14.540   2.673  12.394
72012W        W44437  23.757  32.066  11.546
72013W        W44438  23.757   6.203  11.239
72014W        W44439  41.044   3.912   3.481
72015W        W44440  19.590  42.309   3.515
72016W        W44441  41.376  16.061   4.099
72017W        W44442  29.650  41.503   5.018
72018W        W44443  17.149  24.129  12.832
72019W        W44444  39.247  31.476   1.800
72020W        W44445  36.054  38.139   4.218
72021W        W44446  36.474  26.464   1.029
72022W        W44447  13.775  26.195   3.409
72023W        W44448  24.200   2.218  13.332
72024W        W44449  15.051   3.188  14.830
72025W        W44450  13.520   1.033   9.798
72026W        W44451  12.327  14.021  11.296
72027W        W44452  23.580  34.978   0.851
72028W        W44453   5.250  12.258   3.855
72029W        W44454  24.899   8.190   3.761
72030W        W44455   1.719  14.304   1.800
72031W        W44456   3.139  22.717  14.032
72032W        W44457  30.164  38.012  11.484
72033W        W44458  37.236  24.512   2.671
72034W        W44459  16.888  25.637  14.894
72035W        W44460  31.547  37.851  14.782
72036W        W44461  23.065  21.053   1.832
72037W        W44462  34.542   4.154  10.601
72038W        W44463  39.892  43.464  11.224
72039W        W44464  11.001  37.928  13.495
72040W        W44465   4.974   9.946   0.981
72041W        W44466  29.370  40.323   3.210
72042W        W44467  19.818  12.807  10.716
72043W        W44468  15.010  42.953   1.778
72044W        W44469  24.462  27.645  10.716
72045W        W44470  28.100  24.785  14.213
72046W        W44471  36.281  22.242  12.991
72047W        W44472  17.248  28.483   2.235
72048W        W44473  41.332  28.067   1.857
72049W        W44474   9.365  25.019   0.426
72050W        W44475  44.915   3.803   4.870
72051W        W44476  43.264  36.778   1.262
72052W        W44477  28.600  23.074   4.264
72053W        W44478  33.392  34.643  12.291
72054W        W44479  40.325  21.654  12.066
72055W        W44480  44.446  20.188   0.233
72056W        W44481  11.274   9.305  13.892
72057W        W44482  19.188  32.492  14.784
72058W        W44483  39.419  37.813   3.598
72059W        W44484  11.367  10.442   4.686
72060W        W44485   7.696   0.444   0.756
72061W        W44486  24.689  40.453   3.822
72062W        W44487  14.740  12.904   0.351
72063W        W44488  43.662  41.927  14.946
72064W        W44489  13.646  40.460   1.356
72065W        W44490   9.994  22.543  12.382
72066W        W44491  10.042  18.077   1.260
72067W        W44492  36.048  43.849   3.242
72068W        W44493  16.534  40.515  12.181
72069W        W44494  41.107   7.134   2.255
72070W        W44495   7.892  27.990  12.437
72071W        W44496  16.702  32.603   3.673
72072W        W44497  15.570   4.187   3.452
72073W        W44498  26.381   4.883   2.694
72074W        W44499  26.200   7.237   0.788
72075W        W44500   2.475  38.076  12.909
72076W        W44501  34.511   2.560  10.714
72077W        W44502  33.473  44.161   4.629
72078W        W44503  44.042   5.924  14.913
72079W        W44504   6.939  43.906  11.677
72080W        W44505  29.916  18.291   1.868
72081W        W44506  11.162   5.985   1.250
72082W        W44507  33.616  30.367   2.227
72083W        W44508  11.810  28.375   4.473
72084W        W44509   4.402  35.489   4.360
72085W        W44510   8.356  39.007   4.207
72086W        W44511  19.190  17.595  10.646
72087W        W44512   4.939  22.249  12.323
72088W        W44513  28.114   8.889  14.038
72089W        W44514   4.981  21.217  14.497
72090W        W44515  23.192  44.589   3.027
72091W        W44516  37.441  24.718   1.750
72092W        W44517  26.543   5.902  12.471
72093W        W44518  33.606  15.339  11.049
72094W        W44519  31.195  38.102   2.497
72095W        W44520  13.272   1.704   0.855
72096W        W44521  28.472  29.527   1.204
72097W        W44522   6.972   3.797   0.224
72098W        W44523  36.898   6.804   2.165
72099W        W44524   3.046  33.241   0.729
72100W        W44525  19.525  44.730   3.726
72101W        W44526   5.309  32.708  13.909
72102W        W44527   1.872  43.425   4.077
72103W        W44528  27.388   9.103   2.692
72104W        W44529  30.487  12.253  11.522
72105W        W44530  26.316  13.375   1.494
72106W        W44531  29.015  35.887  13.804
72107W        W44532   9.315  32.899  12.109
72108W        W44533  38.364  34.666  11.165
72109W        W44534  41.149  42.318  12.250
72110W        W44535  27.514   8.807  13.450
72111W        W44536  11.485  36.344   0.575
72112W        W44537   1.290   6.009   0.981
72113W        W44538  41.850  13.088   2.712
72114W        W44539  37.317  33.930  11.849
72115W        W44540  14.773  22.455   0.613
72116W        W44541  15.222  44.717   0.005
72117W        W44542  22.106  36.337   3.360
72118W        W44543  30.946   9.818  14.913
72119W        W44544   1.306  42.029  10.621
72120W        W44545   0.541   5.096   3.803
72121W        W44546  32.002  39.002  10.675
72122W        W44547  28.211  31.100  13.590
72123W        W44548  33.425  21.410  13.482
72124W        W44549  16.936  22.948   1.781
72125W        W44550  41.909  15.085   1.407
72126W        W44551  27.947  23.001   5.474
72127W        W44552  25.223  36.136  11.125
72128W        W44553  28.070  13.227   3.184
72129W        W44554  12.161  24.279  11.975
72130W        W44555  36.638  34.637   2.295
72131W        W44556  27.681  13.074   4.782
72132W        W44557  30.013   8.091   1.930
72133W        W44558  25.004  31.605  13.289
72134W        W44559   7.384  23.178   3.165
72135W        W44560  30.557  11.874  13.273
72136W        W44561  24.505  40.838   4.114
72137W        W44562   4.585  16.048   1.246
72138W        W44563  11.731  10.749   4.864
72139W        W44564  10.786  27.055   0.994
72140W        W44565  40.967  28.682  11.254
72141W        W44566  42.683  42.581  11.975
72142W        W44567  10.969   0.382   4.204
72143W        W44568  24.975  38.293   2.329
72144W        W44569   1.251   1.762   4.665
72145W        W44570  25.409  24.646  10.446
72146W        W44571   0.273  10.324  13.859
72147W        W44572  24.962   9.086   1.228
72148W        W44573  33.009  15.295   3.805
72149W        W44574  27.203   5.665  12.615
72150W        W44575  20.627   1.796  14.861
72151W        W44576  27.546  12.393  14.642
72152W        W44577  44.517  43.786   0.428
72153W        W44578  13.877  15.411   0.204
72154W        W44579  10.954  34.891   1.026
72155W        W44580  17.382  41.368   1.792
72156W        W44581  22.535  20.703   2.856
72157W        W44582  38.808   1.218   4.309
72158W        W44583  18.139  21.463   0.800
72159W        W44584  33.140  28.914  14.435
72160W        W44585  21.788  24.304   1.396
72161W        W44586  34.829  23.538   1.870
72162W        W44587  23.582  11.418   5.630
72163W        W44588  35.045  27.664   3.063
72164W        W44589  29.144   9.085  13.813
72165W        W44590  39.299  16.640  10.733
72166W        W44591  29.984  16.085  13.415
72167W        W44592  32.384  39.934  13.912
72168W        W44593  26.103  15.827  14.951
72169W        W44594  27.998  39.335   5.218
72170W        W44595  18.533   6.616   3.823
72171W        W44596  38.968  43.405  10.353
72172W        W44597  43.403   6.996   3.866
72173W        W44598  16.691  11.590   0.907
72174W        W44599   5.786  22.501   3.684
72175W        W44600  23.360  28.931  14.282
72176W        W44601  34.564  42.896  14.062
72177W        W44602  22.932   0.928   1.273
72178W        W44603  20.694  43.068  13.062
72179W        W44604  40.837  27.560  14.554
72180W        W44605  20.055  35.493  14.608
72181W        W44606  39.072  39.819   1.415
72182W        W44607  22.612  10.574   0.711
72183W        W44608  33.667  15.316  12.868
72184W        W44609   9.598  36.293  11.095
72185W        W44610  11.739  17.305   4.286
72186W        W44611  13.801  36.344   3.777
72187W        W44612  28.187  33.918  12.532
72188W        W44613  22.493  33.698  11.039
72189W        W44614  19.188  42.432  10.634
72190W        W44615  10.925  37.336   4.000
72191W        W44616   5.043  19.893  11.195
72192W        W44617  18.329  44.696   1.354
72193W        W44618   0.055  16.840  11.988
72194W        W44619   8.383  11.494  13.335
72195W        W44620  32.154  43.722  11.120
72196W        W44621  39.318  39.964   0.929
72197W        W44622  32.640  17.453  11.494
72198W        W44623  20.129  15.071   3.658
72199W        W44624  33.942  40.142   0.284
72200W        W44625  43.884   8.873  12.508
72201W        W44626  11.202   8.400  11.093
72202W        W44627  11.753  26.185   1.004
72203W        W44628  35.019  20.173   4.018
72204W        W44629  14.219   1.955   3.120
72205W        W44630   2.360  34.876   2.598
72206W        W44631  21.955   2.857  13.079
72207W        W44632   4.366   0.904   1.315
72208W        W44633  31.338  26.748   3.194
72209W        W44634  42.899  10.202  14.130
72210W        W44635   2.054  18.117  11.111
72211W        W44636  23.299  25.473  14.830
72212W        W44637  12.303  34.210   4.676
72213W        W44638  13.341  21.728  11.587
72214W        W44639  18.248  15.319  11.171
72215W        W44640  36.800  16.287   1.409
72216W        W44641  12.886  21.937   3.759
72217W        W44642  30.630   7.678  14.048
72218W        W44643   4.944  23.289   5.215
72219W        W44644  31.498  34.164   1.239
72220W        W44645  40.093   9.873   2.744
72221W        W44646  44.011  26.151  14.506
72222W        W44647  44.586  26.467   1.881
72223W        W44648   1.366  32.853   3.719
72224W        W44649   9.856  29.955   4.991
72225W        W44650  13.240   1.716  10.161
72226W        W44651  21.107   6.429   0.227
72227W        W44652  10.967   7.221   4.328
72228W        W44653  38.312  37.137   3.124
72229W        W44654  34.072  12.545  11.862
72230W        W44655  40.268  25.960   2.166
72231W        W44656  31.129  35.048   4.499
72232W        W44657   0.783  24.752  12.891
72233W        W44658  33.410   8.829  14.018
72234W        W44659  12.894  18.273   3.175
72235W        W44660  37.303  27.071   1.830
72236W        W44661  10.081  43.915   0.518
72237W        W44662  30.142  31.583   0.007
72238W        W44663   6.427  38.943  12.379
72239W        W44664  13.809   5.943   2.745
72240W        W44665  10.914   6.732   1.690
72241W        W44666  17.347   2.875   1.294
72242W        W44667  10.383  24.643   3.618
72243W        W44668  34.841  15.224  12.418
72244W        W44669  30.369  29.986  10.625
72245W        W44670  36.402  19.411  12.880
72246W        W44671  16.230  19.564   2.962
72247W        W44672  29.461  19.290  11.053
72248W        W44673  26.571  17.103  12.097
72249W        W44674   5.122  38.231   5.051
72250W        W44675  34.918   0.265   2.900
72251W        W44676  14.428   8.225  11.512
72252W        W44677  33.105   8.830  14.563
72253W        W44678  14.668  15.100  14.822
72254W        W44679  32.899  37.801  13.456
72255W        W44680  19.128  26.789  12.994
72256W        W44681  15.700  41.236  13.822
72257W        W44682  22.691  14.090   2.253
72258W        W44683  27.242  10.565   1.802
72259W        W44684   9.610  17.098  13.252
72260W        W44685  29.961  41.480   2.805
72261W        W44686  43.851  34.208  11.521
72262W        W44687  27.075  44.763  14.453
72263W        W44688  20.520  11.882   1.184
72264W        W44689  34.320  10.822  11.842
72265W        W44690  36.793  10.258   1.154
72266W        W44691  44.616  10.222  14.976
72267W        W44692  43.993   7.427  11.889
72268W        W44693  38.577   2.434  14.004
72269W        W44694  21.267   3.349  12.454
72270W        W44695  37.347  25.665   0.735
72271W        W44696  19.917   7.812   3.273
72272W        W44697  25.473   2.860   2.717
72273W        W44698  10.756  25.560  13.240
72274W        W44699  36.075   4.368  14.158
72275W        W44700  30.892  17.709  11.075
72276W        W44701  30.443  16.490  14.560
72277W        W44702   8.865  43.877   2.604
72278W        W44703  13.502  36.144   4.159
72279W        W44704   7.940  40.434   0.463
72280W        W44705  43.656   2.880  14.912
72281W        W44706  13.562  15.400   3.658
72282W        W44707  21.905  12.437  11.629
72283W        W44708  17.919  12.127   3.782
72284W        W44709  14.277  39.053   4.548
72285W        W44710  31.270  33.375   4.124
72286W        W44711   1.271  33.386   3.805
72287W        W44712  44.224   3.529  12.887
72288W        W44713  34.921  15.694   2.941
72289W        W44714  31.340  14.655   3.601
72290W        W44715  13.302  19.751  14.935
72291W        W44716  12.157  31.635   1.696
72292W        W44717  23.600  28.790  14.723
72293W        W44718  19.597  12.698   1.127
72294W        W44719   0.515  22.771  14.298
72295W        W44720   3.632   4.249   2.371
72296W        W44721   9.842  17.257   1.307
72297W        W44722  32.948  22.887  14.296
72298W        W44723  44.204  32.038  11.086
72299W        W44724  44.989   5.214   2.255
72300W        W44725  44.225  27.993  14.427
72301W        W44726  21.434  21.130   2.687
72302W        W44727  31.103   1.164  11.106
72303W        W44728   4.334  14.095   5.039
72304W        W44729  15.630   7.468   5.128
72305W        W44730  29.643   5.231   0.978
72306W        W44731  42.066  36.209  11.552
72307W        W44732  39.528  19.148   2.315
72308W        W44733  34.138   3.816   4.652
72309W        W44734  35.152  18.345   3.804
72310W        W44735   2.154  29.227   1.739
72311W        W44736   7.600   7.927  10.774
72312W        W44737  37.578   1.889   0.979
72313W        W44738  20.646  10.585  13.946
72314W        W44739  17.139  11.296   0.237
72315W        W44740  20.724  26.364  14.841
72316W        W44741  22.149  32.817  11.593
72317W        W44742   0.958  20.747  12.538
72318W        W44743  28.853  28.722   3.130
72319W        W44744  38.430  32.376   1.188
72320W        W44745   7.214   9.895   1.239
72321W        W44746  13.608  11.273  10.737
72322W        W44747  17.803  11.776   2.275
72323W        W44748  26.518  27.511   0.675
72324W        W44749  28.515  21.286   0.882
72325W        W44750  19.179  39.863   0.333
72326W        W44751   1.936  13.096   2.306
72327W        W44752  34.485  34.140  12.138
72328W        W44753  15.601  36.394   0.309
72329W        W44754  35.379  44.518   3.116
72330W        W44755   8.779  34.168   1.249
72331W        W44756  29.454   6.299  12.433
72332W        W44757   8.869  20.064  11.737
72333W        W44758  13.408   2.751  10.968
72334W        W44759  39.833   7.079  10.579
72335W        W44760   5.171  28.024  11.100
72336W        W44761   6.878  31.017  14.415
72337W        W44762  41.499  37.036  13.379
72338W        W44763  26.420  28.508   0.796
72339W        W44764  34.052  43.317   0.901
72340W        W44765   0.163  11.100  14.346
72341W        W44766  41.466  21.587   4.354
72342W        W44767  18.545  36.526  11.686
72343W        W44768  21.984   7.126  10.957
72344W        W44769  11.801   3.343  11.960
72345W        W44770  28.438  26.758  14.787
72346W        W44771   0.382  42.909   1.769
72347W        W44772  15.279  21.054  13.917
72348W        W44773  17.101  34.466  14.346
72349W        W44774  19.864  33.050  11.590
72350W        W44775  28.023  14.231   2.359
72351W        W44776  38.842  26.442   4.593
72352W        W44777  39.397  37.946  13.462
72353W        W44778   3.212   9.129   1.892
72354W        W44779  44.427  25.836   3.838
72355W        W44780  37.974  36.502   2.901
72356W        W44781  42.759   0.396   3.353
72357W        W44782  21.547   0.745  13.945
72358W        W44783  27.038   4.812   3.191
72359W        W44784  21.434  20.127   2.754
72360W        W44785  36.850  31.487  14.769
72361W        W44786  19.554  30.199   0.030
72362W        W44787  43.488  14.229  11.615
72363W        W44788  24.165  16.827   0.882
72364W        W44789   0.236   3.823  14.810
72365W        W44790  30.887   4.656  10.646
72366W        W44791   5.710  32.886  12.440
72367W        W44792  23.014  23.339   1.795
72368W        W44793   4.704   5.769   2.630
72369W        W44794  16.785   0.398   4.134
72370W        W44795   0.483  31.263   4.136
72371W        W44796  16.488  10.240   0.868
72372W        W44797   4.692  27.579   1.419
72373W        W44798  18.209  23.066   4.638
72374W        W44799   5.183   6.871   3.509
72375W        W44800   6.002  27.978   1.298
72376W        W44801  42.847  17.342  10.687
72377W        W44802  40.370   7.919  12.866
72378W        W44803  37.286  20.832  14.423
72379W        W44804  14.571  34.879   4.842
72380W        W44805  19.866  19.583  13.405
72381W        W44806   1.735  19.594   2.778
72382W        W44807  38.809  39.041   0.918
72383W        W44808  43.047  19.856   4.461
72384W        W44809  25.707  28.101   3.847
72385W        W44810  24.497  18.609   1.446
72386W        W44811  26.551  30.776   0.349
72387W        W44812  28.466   3.225  10.813
72388W        W44813   0.253  19.881   4.476
72389W        W44814  16.638   7.416   0.488
72390W        W44815  28.626  12.396   3.370
72391W        W44816   2.194  14.094  12.002
72392W        W44817  34.174  14.120  13.427
72393W        W44818  29.784  44.652  10.994
72394W        W44819   2.825  19.712  14.304
72395W        W44820  13.371  26.955   0.306
72396W        W44821   9.934   5.865  10.723
72397W        W44822  33.115   3.613   2.639
72398W        W44823   8.169  34.552   1.074
72399W        W44824  15.378  37.947  12.077
72400W        W44825  23.957  43.397   4.353
72401W        W44826  43.449   0.358  10.683
72402W        W44827  23.564  34.587  10.653
72403W        W44828  32.064  35.582  11.595
72404W        W44829  41.531   8.886   4.149
72405W        W44830  26.237  12.255   0.932
72406W        W44831   9.960   2.401  12.595
72407W        W44832  44.949  39.387  10.624
72408W        W44833  23.117  27.104  12.465
72409W        W44834  26.568  43.499  11.182
72410W        W44835   3.786  22.117  12.068
72411W        W44836  32.133   4.026  13.589
72412W        W44837  14.571  36.318   3.322
72413W        W44838   9.622  38.120   0.506
72414W        W44839  36.857  24.157   0.432
72415W        W44840  16.146  18.212  10.789
72416W        W44841  10.332  27.722   3.791
72417W        W44842  34.305  28.387   3.660
72418W        W44843  24.134   6.840  10.611
72419W        W44844   6.209  21.582  14.291
72420W        W44845   0.829   4.679  10.766
72421W        W44846  27.907  31.595   2.665
72422W        W44847  37.495   0.888   4.106
72423W        W44848  11.899  28.981  13.857
72424W        W44849  12.772  34.467  11.413
72425W        W44850  29.242  30.422  14.931
72426W        W44851   6.742  16.347   0.962
72427W        W44852  39.280  36.123  14.315
72428W        W44853  43.390  42.029   1.006
72429W        W44854  34.614  20.732  12.747
72430W        W44855  21.645  20.028   0.384
72431W        W44856  37.036   8.922  14.897
72432W        W44857  41.425   1.454  14.286
72433W        W44858   2.326  36.426   4.203
72434W        W44859  38.381  42.746   1.208
72435W        W44860   0.286  20.815   4.744
72436W        W44861  26.652  24.416  12.189
72437W        W44862  19.607  13.493   0.484
72438W        W44863  26.609  13.610  11.164
72439W        W44864  42.223   7.343  11.561
72440W        W44865  41.266  14.233  13.557
72441W        W44866   3.604   7.821  12.202
72442W        W44867  31.768  17.012   3.248
72443W        W44868  40.536  15.217  10.650
72444W        W44869  23.184  44.057   0.883
72445W        W44870  16.263  13.924  11.646
72446W        W44871  36.027  18.236  14.950
72447W        W44872   3.925  34.669  11.044
72448W        W44873  16.863  17.711  14.613
72449W        W44874   8.120  20.651  10.895
72450W        W44875  14.845   4.288   4.857
72451W        W44876  16.685  39.424  14.359
72452W        W44877  40.888  29.959  13.760
72453W        W44878   9.102  19.167   0.440
72454W        W44879  38.271  16.227   1.266
72455W        W44880  43.563  40.434  12.458
72456W        W44881  34.203  14.908  12.114
72457W        W44882  30.125  30.641  14.498
72458W        W44883  37.764  26.590  13.821
72459W        W44884  21.842  37.417   1.239
72460W        W44885   0.811  32.510  14.507
72461W        W44886   5.755  22.405  11.974
72462W        W44887   4.732  20.840  11.513
72463W        W44888  11.691  14.318  14.927
72464W        W44889  10.540  19.773  13.986
72465W        W44890  15.644  42.312   1.830
72466W        W44891   0.607  23.804   3.768
72467W        W44892   7.078  41.967   1.811
72468W        W44893  15.077  26.474  11.715
72469W        W44894   9.718  12.754  13.245
72470W        W44895  32.224  15.631  14.759
72471W        W44896  23.089  19.556   0.027
72472W        W44897  39.005   7.409   1.884
72473W        W44898  31.524   8.591  10.719
72474W        W44899  29.075  36.735  14.544
72475W        W44900  10.610  40.517  11.531
72476W        W44901  41.960  19.522  14.461
72477W        W44902  31.820  12.398   0.746
72478W        W44903   6.960  38.962  14.889
72479W        W44904   9.026  25.954   0.738
72480W        W44905  39.416   8.530  13.460
72481W        W44906  39.859   7.856   1.000
72482W        W44907  12.175  19.310  12.357
72483W        W44908  12.240  37.511  11.474
72484W        W44909   9.322   3.306   4.533
72485W        W44910  29.442  32.871   2.359
72486W        W44911   0.951  22.212  14.436
72487W        W44912   7.881  42.356   4.946
72488W        W44913  44.624  20.199  14.716
72489W        W44914   2.834  39.006   0.770
72490W        W44915  27.170  16.472   3.145
72491W        W44916  27.144   5.898  11.073
72492W        W44917  14.302   2.393  11.723
72493W        W44918  44.161  19.617  13.358
72494W        W44919  24.056  40.219  13.816
72495W        W44920   7.396   3.581  10.477
72496W        W44921  26.906  22.226   1.270
72497W        W44922  34.151  35.123  12.159
72498W        W44923  12.261  16.080  14.392
72499W        W44924  20.173  23.489  11.886
72500W        W44925   6.678   3.743   3.119
72501W        W44926  12.355  38.908   3.313
72502W        W44927   3.514  21.043  14.453
72503W        W44928   7.836  32.843  14.262
72504W        W44929   6.945  22.025   3.578
72505W        W44930  16.130  21.190   2.262
72506W        W44931  20.089   5.348  14.881
72507W        W44932  22.673   3.652  14.457
72508W        W44933   0.287  11.342   4.677
72509W        W44934  39.949  28.603   4.124
72510W        W44935  19.020  22.198   0.319
72511W        W44936   8.104  11.531   2.397
72512W        W44937   1.452  44.993  10.740
72513W        W44938  43.502   1.682  11.991
72514W        W44939   7.294   5.375   2.393
72515W        W44940   7.444  37.925  10.620
72516W        W44941  15.798   8.501  10.304
72517W        W44942  16.769  30.072   3.006
72518W        W44943  27.954  38.878   4.121
72519W        W44944  32.670  22.576  10.678
72520W        W44945   8.878  31.187  11.542
72521W        W44946  22.058  27.080  14.775
72522W        W44947   0.319  44.240   3.298
72523W        W44948  14.298   8.702   4.181
72524W        W44949  41.011  29.019   3.851
72525W        W44950  15.313  32.408   1.773
72526W        W44951  11.724  23.335   4.386
72527W        W44952  13.129  41.193  10.244
72528W        W44953  19.075  40.755   4.552
72529W        W44954  38.514  28.421   1.876
72530W        W44955  26.016   9.719  10.439
72531W        W44956  33.526  10.274   4.199
72532W        W44957  43.399  31.860   4.213
72533W        W44958  10.205   8.805  11.991
72534W        W44959  16.594  44.246  12.036
72535W        W44960  40.320  31.318   0.824
72536W        W44961  12.292   7.920   1.783
72537W        W44962  12.615  35.957   4.748
72538W        W44963   7.684   7.253   2.372
72539W        W44964  29.652  27.858   0.074
72540W        W44965  18.060  20.824  13.027
72541W        W44966  28.459  15.209   3.775
72542W        W44967   6.154  24.305   2.751
72543W        W44968  33.532  21.010  10.778
72544W        W44969   0.649  15.619   2.872
72545W        W44970  40.720   8.837  13.667
72546W        W44971  31.415   7.122  12.395
72547W        W44972  36.333  42.893   3.393
72548W        W44973  22.198  29.592   1.296
72549W        W44974  32.396  28.908  11.202
72550W        W44975  32.584  43.038  13.871
72551W        W44976  31.459   8.322   0.478
72552W        W44977  44.145  28.692  11.379
72553W        W44978  28.107  16.562   2.168
72554W        W44979   9.159  15.102   3.268
72555W        W44980  14.783  33.997  10.506
72556W        W44981   3.258  23.160   2.609
72557W        W44982  19.542  39.919  11.416
72558W        W44983  35.522  37.975   2.845
72559W        W44984  17.291   1.264  11.121
72560W        W44985  18.233  34.991   3.154
72561W        W44986  35.436  20.537  12.054
72562W        W44987  41.772  21.437   3.625
72563W        W44988  23.644  34.296   1.332
72564W        W44989  16.082  32.016  11.575
72565W        W44990  39.462  11.143  14.401
72566W        W44991  10.055  12.077  12.972
72567W        W44992  14.184  19.119   4.363
72568W        W44993  42.343  18.102  13.068
72569W        W44994  44.746  37.997   0.269
72570W        W44995  28.567  26.409  11.142
72571W        W44996  36.191  44.908   2.997
72572W        W44997  27.375   9.840   3.218
72573W        W44998  27.952  34.612   3.288
72574W        W44999   2.449  40.120   1.669
72575W        W45000  39.057  22.050   3.669
72576W        W45001  30.844  12.911   0.878
72577W        W45002  30.381  44.678  12.437
72578W        W45003  27.473  11.608   0.755
72579W        W45004  25.008  39.894  11.990
72580W        W45005  15.807  16.071   4.148
72581W        W45006   7.318   6.394  13.925
72582W        W45007  12.701  18.994   1.318
72583W        W45008  40.761  26.162  10.775
72584W        W45009   3.148   7.647   0.495
72585W        W45010  16.523  15.294  14.993
72586W        W45011   7.012   1.653  11.447
72587W        W45012  20.722  12.578   4.556
72588W        W45013  29.860  28.650   0.761
72589W        W45014  38.065  13.220   3.369
72590W        W45015  15.134  14.551   3.433
72591W        W45016   9.278  16.310  14.308
72592W        W45017   5.495  10.663   2.241
72593W        W45018  44.379  26.269  13.452
72594W        W45019  32.827  37.223  12.603
72595W        W45020  13.467   5.307   1.473
72596W        W45021   1.356   9.133  11.192
72597W        W45022  28.649  27.183  12.062
72598W        W45023  17.994  34.980  12.091
72599W        W45024  41.144  37.059  12.998
72600W        W45025   8.151   5.723  10.372
72601W        W45026  13.840   1.498   2.485
72602W        W45027  15.134  19.345  13.013
72603W        W45028  30.194  29.407  12.823
72604W        W45029  30.823  38.175   3.365
72605W        W45030  39.378  37.292   3.871
72606W        W45031   3.772  30.199  14.369
72607W        W45032  33.813  37.909   4.197
72608W        W45033  16.703  18.226   0.458
72609W        W45034  14.195   7.185   4.775
72610W        W45035  23.911  12.272   2.759
72611W        W45036  16.170  21.534   1.719
72612W        W45037  44.735  32.727  11.125
72613W        W45038  44.433  21.774   1.709
72614W        W45039  31.273  34.345   0.571
72615W        W45040   8.869   4.798   3.766
72616W        W45041  16.800  30.343   3.726
72617W        W45042  10.109  41.035   3.200
72618W        W45043  33.934   9.532  11.066
72619W        W45044  21.776  38.976   0.008
72620W        W45045   1.128  18.126   2.675
72621W        W45046  26.126   7.121  12.113
72622W        W45047   8.694   8.416   4.082
72623W        W45048  26.133  20.419   4.462
72624W        W45049  20.665   2.554  12.530
72625W        W45050  34.943  12.662   1.407
72626W        W45051  29.515  31.397  11.578
72627W        W45052  23.300  20.211  14.896
72628W        W45053  17.614  28.965   2.210
72629W        W45054  27.262   9.629  11.994
72630W        W45055  37.655  38.013   0.194
72631W        W45056  16.525  26.179  11.472
72632W        W45057   2.250  23.046   4.652
72633W        W45058  30.575  34.337  11.044
72634W        W45059   3.215  14.735  14.355
72635W        W45060  10.306  34.462  11.161
72636W        W45061  40.381  44.794  14.079
72637W        W45062  21.759  31.696  14.996
72638W        W45063   5.326  38.049   4.545
72639W        W45064   0.445  29.947   1.723
72640W        W45065  37.380  40.285   4.612
72641W        W45066  18.788  17.228  11.903
72642W        W45067  43.394  15.849   1.931
72643W        W45068  19.561  25.939  11.127
72644W        W45069  14.270  44.007  12.451
72645W        W45070   0.737  34.616  13.289
72646W        W45071  39.352  43.842  14.891
72647W        W45072  35.194  27.192  13.484
72648W        W45073  22.696   2.398  14.885
72649W        W45074   0.423  43.864  12.366
72650W        W45075  36.400  24.787   4.266
72651W        W45076  34.973  29.024  12.156
72652W        W45077  17.230   5.020   3.625
72653W        W45078  37.965  38.896   1.389
72654W        W45079  14.178  10.768   3.145
72655W        W45080  38.219  16.803  12.012
72656W        W45081   0.890  13.677   1.669
72657W        W45082  39.742  12.731   0.759
72658W        W45083  41.515  29.782   0.019
72659W        W45084  18.007   8.726  12.680
72660W        W45085   4.913  17.831  11.066
72661W        W45086   5.916  43.202  11.264
72662W        W45087  40.386  40.329   4.546
72663W        W45088  41.902   3.601  11.523
72664W        W45089  39.097  37.559   0.724
72665W        W45090  33.492  41.089   0.445
72666W        W45091  18.709   2.342  12.486
72667W        W45092  31.387   3.228  14.482
72668W        W45093  26.486  30.346   3.604
72669W        W45094  42.740  27.922   1.361
72670W        W45095  20.797   6.712   0.543
72671W        W45096   8.580  17.123   0.808
72672W        W45097  43.310  36.819   3.852
72673W        W45098  28.378  15.693   3.644
72674W        W45099  20.203  17.219   2.617
72675W        W45100  39.057  26.067  13.006
72676W        W45101  26.149   7.229   2.942
72677W        W45102  41.736  34.593  13.899
72678W        W45103   3.942  12.148   1.202
72679W        W45104   6.973  42.476   1.786
72680W        W45105  42.222   0.905   0.992
72681W        W45106  21.430   7.613  11.128
72682W        W45107   5.647   1.836  11.810
72683W        W45108  33.487  34.592  10.888
72684W        W45109  35.483  20.343   0.245
72685W        W45110  32.105  41.320  13.731
72686W        W45111  24.714  38.565  14.375
72687W        W45112   0.063  37.080   1.089
72688W        W45113  22.943  13.856   4.939
72689W        W45114  39.739  18.736  12.151
72690W        W45115   3.226  35.014   3.163
72691W        W45116   7.797  40.833  10.351
72692W        W45117  28.384  41.054   3.637
72693W        W45118  39.485  16.766  12.464
72694W        W45119   3.851  22.432   2.580
72695W        W45120  43.338  30.413   4.477
72696W        W45121  42.449  21.159   1.467
72697W        W45122  31.915   1.749   4.701
72698W        W45123   7.743  10.173   3.167
72699W        W45124   8.328   6.007   4.806
72700W        W45125   8.367   4.165   1.321
72701W        W45126  14.144  11.403   3.737
72702W        W45127  43.239  29.660   3.455
72703W        W45128  36.768  31.144  11.819
72704W        W45129   3.557  34.131   1.671
72705W        W45130  37.523   1.688   2.428
72706W        W45131   7.605  20.134  11.408
72707W        W45132  37.448  27.464  11.011
72708W        W45133  17.583  27.142   0.381
72709ION    NA+45134  17.381   4.118   0.374
72710ION    NA+45135  31.620   5.161   2.686
72711ION    NA+45136  16.532   6.404  12.520
72712ION    NA+45137  26.718  14.146   4.263
72713ION    NA+45138  20.671  26.933   2.762
72714ION    NA+45139  11.379  17.923   1.515
72715ION    NA+45140  16.293   0.957   1.136
72716ION    NA+45141   5.842  41.614   3.087
72717ION    NA+45142  34.369  18.287   0.913
72718ION    NA+45143  13.353  41.887  11.109
72719ION    NA+45144  25.564  43.950  13.568
72720ION    NA+45145  26.552   9.786  14.768
72721ION    NA+45146  42.212  14.581   2.238
72722ION    NA+45147  14.211  21.708  14.399
72723ION    NA+45148  10.061   8.594   5.356
72724ION    NA+45149  11.603   7.817   4.266
72725ION    NA+45150  28.073  19.400  13.192
72726ION    NA+45151  13.783  30.514  10.779
72727ION    NA+45152  44.669  35.065   5.415
72728ION    NA+45153  23.788   0.745  11.460
72729ION    NA+45154  30.932   5.326  12.611
72730ION    NA+45155   2.300  18.515  14.900
72731ION    NA+45156  14.380  14.368   1.144
72732ION    NA+45157  36.672  39.519   3.745
72733ION    NA+45158  36.183  11.419   1.888
72734ION    NA+45159  15.121  20.051   1.531
72735ION    NA+45160  16.298   7.112  11.603
72736ION    NA+45161  15.934   3.691  10.908
72737ION    NA+45162  35.492  10.352   2.500
72738ION    NA+45163  40.637  22.611   4.122
72739ION    NA+45164   4.974  12.015  12.326
72740ION    NA+45165  23.839  27.275   3.538
72741ION    NA+45166   3.737  26.232   0.419
72742ION    NA+45167  36.605  32.850  14.397
72743ION    NA+45168  34.070  19.592  12.738
72744ION    NA+45169  10.063   1.572   2.144
72745ION    NA+45170   9.507  41.039   3.860
72746ION    NA+45171  33.525  37.174  10.630
72747ION    NA+45172  30.205  32.694   2.123
72748ION    NA+45173  10.191  28.348   5.280
72749ION    NA+45174  22.874   7.583  11.149
72750ION    NA+45175   1.289  31.156   1.389
72751ION    NA+45176  28.560   2.023   2.913
72752ION    NA+45177  36.580  35.220  11.156
72753ION    NA+45178  31.280  26.427   3.610
72754ION    NA+45179  28.543  22.308  11.130
72755ION    NA+45180  21.669  20.498   4.014
72756ION    NA+45181  18.847  15.101  13.479
72757ION    NA+45182  44.224   5.124   4.339
72758ION    NA+45183  23.752  27.272   2.132
72759ION    NA+45184  20.980  18.478   0.948
72760ION    NA+45185  16.423   0.070   1.298
72761ION    NA+45186   2.340   5.746   4.723
72762ION    NA+45187  39.618  30.575   2.397
72763ION    NA+45188  17.492  28.572   1.379
72764ION    NA+45189   1.112  29.866   0.047
72765ION    NA+45190   9.281  34.038  13.683
72766ION    NA+45191  28.853  16.397   2.706
72767ION    NA+45192  27.449   6.017  10.387
72768ION    NA+45193   3.197   3.907   4.074
72769ION    NA+45194  13.022   4.016  12.171
72770ION    NA+45195   6.807   5.008  14.711
72771ION    NA+45196  10.062  27.002   0.016
72772ION    NA+45197  34.962  36.290   2.136
72773ION    NA+45198  23.162  31.124   3.741
72774ION    NA+45199   4.022  18.404  13.919
72775ION    NA+45200  28.934   6.210  10.981
72776ION    NA+45201  10.245   5.291   2.791
72777ION    NA+45202  24.011  24.001  13.449
72778ION    NA+45203  32.930  13.668   1.832
72779ION    NA+45204  21.780  14.057  12.410
72780ION    NA+45205  21.374   6.526   1.010
72781ION    NA+45206  21.050   4.098   4.405
72782ION    NA+45207  32.461  17.601  12.365
72783ION    NA+45208   7.372  22.210  12.992
72784ION    NA+45209   3.035   1.382   2.886
72785ION    NA+45210  44.747  13.086   3.799
72786ION    NA+45211  43.301   3.564  11.669
72787ION    NA+45212   7.955  24.031  13.509
72788ION    NA+45213  18.536  15.903   4.496
72789ION    NA+45214   8.594   7.934   2.337
72790ION    NA+45215  43.281   7.436   4.565
72791ION    NA+45216  40.538  26.173   2.699
72792ION    NA+45217  31.616  34.012  10.923
72793ION    NA+45218   9.957  11.828  13.553
72794ION    NA+45219  27.779  34.627   2.424
72795ION    NA+45220   0.292  37.455   1.339
72796ION    NA+45221   5.369  19.488  11.970
72797ION    NA+45222  42.074  37.821   0.412
72798ION    NA+45223  21.317  37.166   2.711
72799ION    NA+45224   3.988   9.786  11.027
72800ION    NA+45225  27.016  28.603   4.361
72801ION    NA+45226  34.841   8.285  13.027
72802ION    NA+45227  11.649  35.961   4.728
72803ION    NA+45228  21.230  41.866   2.933
72804ION    NA+45229  39.206  28.760  13.270
72805ION    NA+45230  21.370   7.552  12.550
72806ION    NA+45231   8.271   4.412   1.840
72807ION    NA+45232  34.576  16.991   1.860
72808ION    NA+45233  35.780  25.062   0.551
72809ION    NA+45234  12.742   5.588   2.887
72810ION    NA+45235  13.903  17.298   2.871
72811ION    NA+45236  44.493  12.594  13.648
72812ION    NA+45237  37.933  30.665  11.336
72813ION    NA+45238   5.072  35.836   3.740
72814ION    NA+45239  44.767  31.253   3.131
72815ION    NA+45240  16.245  31.219  14.740
72816ION    NA+45241  43.305  27.893  11.154
72817ION    NA+45242  38.658  43.360   2.757
72818ION    NA+45243  15.318  26.172   3.718
72819ION    NA+45244  21.407  26.652   1.120
72820ION    NA+45245  26.713  21.417   5.219
72821ION    NA+45246   4.848   2.707  10.873
72822ION    NA+45247  11.233  29.545  13.816
72823ION    NA+45248  25.010  37.724   3.930
72824ION    NA+45249  38.083  25.104  13.882
72825ION    NA+45250  37.723  26.614   2.994
72826ION    NA+45251  17.002  20.693  13.322
72827ION    NA+45252  16.524  13.747  14.264
72828ION    NA+45253  22.079  35.903  11.114
72829ION    NA+45254  32.761  33.520   0.818
72830ION    NA+45255  42.183  11.666  14.009
72831ION    NA+45256  35.486  25.129   1.524
72832ION    NA+45257  36.090   4.505   0.352
72833ION    NA+45258   1.259  18.545  13.495
72834ION    NA+45259  19.214   2.469  12.379
72835ION    NA+45260   6.903  22.593   4.565
72836ION    NA+45261  23.202  14.017   2.318
72837ION    NA+45262  35.413   2.136  10.581
72838ION    NA+45263  25.374  43.402   0.723
72839ION    NA+45264  41.104  17.699   2.843
72840ION    NA+45265  31.464  37.696   3.575
72841ION    NA+45266  18.547   8.328  10.996
72842ION    NA+45267   9.799   0.724  13.007
72843ION    NA+45268   2.976  26.519   3.835
72844ION    NA+45269  27.808  26.264   1.477
72845ION    NA+45270  15.706  21.760  11.503
72846ION    NA+45271  27.488  16.327  12.095
72847ION    NA+45272   3.356   6.841   0.991
72848ION    NA+45273   2.765  22.978  14.521
72849ION    NA+45274  30.853  42.749   1.325
72850ION    NA+45275   7.467  22.586  11.428
72851ION    NA+45276   1.474  25.157  12.307
72852ION    NA+45277  25.335  35.544   0.842
72853ION    NA+45278  15.708  28.842  14.944
72854ION    NA+45279   2.434  41.107   4.060
72855ION    NA+45280  31.862   3.805   3.676
72856ION    NA+45281  15.244  12.927  11.043
72857ION    NA+45282  37.770  33.410   1.062
72858ION    NA+45283  33.273   6.238   2.796
72859ION    NA+45284  13.328   0.115   1.996
72860ION    NA+45285   7.563  40.930  12.296
72861ION    NA+45286  40.122  15.656  12.106
72862ION    NA+45287  12.551  43.993   1.982
72863ION    NA+45288  44.277   1.679  10.937
72864ION    NA+45289  41.224   1.413   4.197
72865ION    NA+45290  44.042  31.009   3.484
72866ION    NA+45291  27.817   0.722  13.969
72867ION    NA+45292  30.050  23.031  11.099
72868ION    NA+45293  11.784  35.430  13.838
72869ION    NA+45294  37.873  33.809   1.818
72870ION    NA+45295  27.094  18.452  11.046
72871ION    NA+45296   6.868   7.382   1.797
72872ION    NA+45297   5.746  40.824   3.605
72873ION    NA+45298  11.576  16.108  13.844
72874ION    NA+45299  35.805  42.946  11.847
72875ION    NA+45300  24.131   3.729  14.605
72876ION    NA+45301  16.880  12.122  12.863
72877ION    NA+45302  42.705  22.511   2.147
72878ION    NA+45303  44.788  35.909  13.953
72879ION    NA+45304   5.941  44.804  12.483
72880ION    NA+45305  21.017   1.327   2.758
72881ION    NA+45306  23.932  10.685   2.540
72882ION    NA+45307  27.112   0.780  12.972
72883ION    NA+45308  44.553  42.731   1.503
72884ION    NA+45309  25.617  21.307   4.145
72885ION    NA+45310   0.912  40.077  14.484
72886ION    NA+45311  26.843  44.958   3.512
72887ION    NA+45312  35.231  11.221  11.605
72888ION    NA+45313   1.381   7.150  10.940
72889ION    NA+45314  20.343  19.087  14.394
72890ION    NA+45315  27.608  37.954   4.043
72891ION    NA+45316  20.108   7.395  10.226
72892ION    NA+45317   4.818  26.606  11.580
72893ION    NA+45318  10.426  37.458   1.698
72894ION    NA+45319  15.540  21.667   3.217
72895ION    NA+45320  16.548  38.581   2.707
72896ION    NA+45321  33.878  21.280  12.238
72897ION    NA+45322  32.281  13.208  14.079
72898ION    NA+45323  15.456  14.239  11.153
72899ION    NA+45324  24.386  42.873  13.000
72900ION    NA+45325  32.404  24.652   4.292
72901ION    NA+45326   9.685  27.069   4.276
72902ION    NA+45327   5.188  37.107  13.655
72903ION    NA+45328  11.840  14.764   2.728
72904ION    NA+45329  14.756   7.345   9.945
72905ION    NA+45330  16.207  27.213   4.613
72906ION    NA+45331  16.729  44.625   3.401
72907ION    NA+45332   3.340   9.287  12.142
72908ION    NA+45333   8.072  41.644  12.116
72909ION    NA+45334  25.044  29.786   3.454
72910ION    NA+45335  18.651  32.243   9.658
72911ION    NA+45336  21.080  28.442   0.079
72912ION    NA+45337  43.997   0.075  13.624
72913ION    NA+45338  33.313  25.596  11.009
72914ION    NA+45339  15.695  44.497   4.938
72915ION    NA+45340  17.021  23.625  14.814
72916ION    NA+45341  18.158  21.666  10.723
72917ION    NA+45342  20.669  44.836   4.710
72918ION    NA+45343  37.703  21.735   4.559
72919ION    NA+45344  21.673  12.852   3.659
72920ION    NA+45345  24.330  31.624  12.260
72921ION    NA+45346  15.307  36.566   4.688
72922ION    NA+45347   2.436   1.260  12.182
72923ION    NA+45348  31.796  19.206   0.163
72924ION    NA+45349  19.247  17.721   2.689
72925ION    NA+45350  13.563  38.392   3.042
72926ION    NA+45351  15.444  43.149   0.729
72927ION    NA+45352  31.341  44.299  11.575
72928ION    NA+45353  29.105   6.639  11.947
72929ION    NA+45354  15.832   2.071   1.195
72930ION    NA+45355  43.243  33.652  12.852
72931ION    NA+45356  28.970  24.011   2.307
72932ION    NA+45357  37.314   8.656  13.647
72933ION    NA+45358  42.605   0.483   1.704
72934ION    NA+45359  29.910  37.897  10.611
72935ION    NA+45360  26.933  11.383   3.215
72936ION    NA+45361  12.720   9.747  14.321
72937ION    NA+45362  28.616  17.092   1.903
72938ION    NA+45363  44.694  21.485  10.966
72939ION    NA+45364  33.380  20.191  11.673
72940ION    NA+45365  30.811  39.863   3.647
72941ION    NA+45366  16.283  38.229  10.852
72942ION    NA+45367  44.819  19.817   4.764
72943ION    NA+45368   8.490  19.468   5.200
72944ION    NA+45369   4.984  25.355   1.203
72945ION    NA+45370  22.055  20.758  12.858
72946ION    NA+45371  28.617   9.778  14.153
72947ION    NA+45372  17.619  20.999   4.054
72948ION    NA+45373  22.524  39.422  11.717
72949ION    NA+45374  11.255  15.042   1.333
72950ION    NA+45375   3.737  25.166  14.340
72951ION    NA+45376  20.585  18.050   2.257
72952ION    NA+45377  15.738  10.235   3.909
72953ION    NA+45378  35.405   6.502  13.537
72954ION    NA+45379   5.372  12.659  14.626
72955ION    NA+45380  18.363   9.562   3.125
72956ION    NA+45381  28.204  17.843   2.228
72957ION    NA+45382  17.825  24.661  12.971
72958ION    NA+45383  24.293  17.212  12.562
72959ION    NA+45384   0.202  32.394  13.625
72960ION    NA+45385  35.907  34.263   3.180
72961ION    NA+45386   5.281   6.982   2.468
72962ION    NA+45387  24.717  24.606  13.921
72963ION    NA+45388  33.489  26.914   2.254
72964ION    NA+45389  25.689  19.512   4.636
72965ION    NA+45390  12.246  39.761   1.181
72966ION    NA+45391  14.063  30.202  12.064
72967ION    NA+45392  16.430  15.316   1.289
72968ION    NA+45393  19.600   9.772  13.956
72969ION    NA+45394  36.002  26.644   0.882
72970ION    NA+45395   2.375  10.561   4.582
72971ION    NA+45396  21.783  16.110  10.461
72972ION    NA+45397  43.627  35.949   4.120
72973ION    NA+45398  42.953   1.686   4.073
72974ION    NA+45399  16.783  43.294   0.797
72975ION    NA+45400  18.124   1.236  13.390
72976ION    NA+45401   9.162  22.638  13.755
72977ION    NA+45402   6.154  11.128  12.322
72978ION    NA+45403  32.933   7.705  11.964
72979ION    NA+45404  24.474  15.086  12.937
72980ION    NA+45405  41.831  32.422   3.205
72981ION    NA+45406  12.522  34.366  10.951
72982ION    NA+45407  43.370  31.067  11.885
72983ION    NA+45408  36.463  16.154  11.961
72984ION    NA+45409   0.875  31.813  14.186
72985ION    NA+45410   7.578  13.765  13.169
72986ION    NA+45411  19.637  37.352   3.835
72987ION    NA+45412   4.605  16.223  13.632
72988ION    NA+45413  28.588   3.812   0.443
72989ION    NA+45414   4.669  17.936  14.599
72990ION    NA+45415   2.852  25.211   4.216
72991ION    NA+45416  23.756  30.429   2.176
72992ION    NA+45417   4.076   5.298   4.012
72993ION    NA+45418  39.902  27.145   2.091
72994ION    NA+45419  17.233  19.613  14.115
72995ION    NA+45420  36.447   5.379   5.729
72996ION    NA+45421  14.181  14.077  12.375
72997ION    NA+45422  10.212  41.775   2.785
72998ION    NA+45423  17.293   8.851   4.074
72999ION    NA+45424  42.913   6.455  10.913
73000ION    NA+45425  31.934  26.474   1.164
73001ION    NA+45426  30.481   3.370  10.626
73002ION    NA+45427  38.547  28.837  10.872
73003ION    NA+45428   6.102  40.983   2.536
73004ION    NA+45429  26.453  25.676   3.746
73005ION    NA+45430  43.531  15.575  14.925
73006ION    NA+45431  16.113  37.836   1.327
73007ION    NA+45432  22.973  39.215   4.141
73008ION    NA+45433   3.330  33.833   2.007
73009ION    NA+45434  41.080  19.234  12.522
73010ION    NA+45435  35.766   3.275  10.635
73011ION    NA+45436  44.705   8.201   0.664
73012ION    NA+45437  12.792  28.855   3.609
73013ION    NA+45438  41.079  14.598  13.041
73014ION    NA+45439  18.765  14.189   2.061
73015ION    NA+45440  21.729  34.384  13.465
73016ION    NA+45441  30.583  16.169   0.938
73017ION    NA+45442  25.729  41.320   0.755
73018ION    NA+45443  12.170   0.381   3.603
73019ION    NA+45444  43.813   9.211   1.715
73020ION    NA+45445  36.489   6.851  14.890
73021ION    NA+45446  26.830  13.141  13.321
73022ION    NA+45447  34.702  36.413  14.397
73023ION    NA+45448  12.827  28.086  13.909
73024ION    NA+45449  30.003   6.665   3.731
73025ION    NA+45450   6.039  10.150   4.138
73026ION    NA+45451  10.914  35.934  11.043
73027ION    NA+45452   8.286  30.390   0.377
73028ION    NA+45453  22.627  20.112  13.364
73029ION    NA+45454  26.369  13.280   5.439
73030ION    NA+45455  13.562   6.183  11.188
73031ION    NA+45456  29.832  25.090   1.993
73032ION    NA+45457   2.192   0.231   4.102
73033ION    NA+45458  37.651   6.466   4.910
73034ION    NA+45459   3.220  35.348   1.939
73035ION    NA+45460  12.795  41.617  12.202
73036ION    NA+45461  13.183   1.196  11.047
73037ION    NA+45462  28.152  25.028   2.893
73038ION    NA+45463  41.753  17.392  13.419
73039ION    NA+45464  36.435  22.131  12.515
73040ION    NA+45465  22.190  26.725  11.691
73041ION    NA+45466  31.867  10.942  10.898
73042ION    NA+45467   7.093  33.628   2.379
73043ION    NA+45468  40.876  31.471  13.019
73044ION    NA+45469  27.537  15.788   1.871
73045ION    NA+45470   0.194  39.076  14.268
73046ION    NA+45471   6.871  11.312   3.824
73047ION    NA+45472  22.525  41.016   2.139
73048ION    NA+45473  25.596  21.305  14.168
73049ION    NA+45474  35.904  21.508  12.911
73050ION    NA+45475  28.572  39.804   2.718
73051ION    NA+45476  18.424  17.273  13.687
73052ION    NA+45477  40.920  15.111  14.816
73053ION    NA+45478   8.484  20.481  10.582
73054ION    NA+45479  33.338  28.648   3.627
73055ION    NA+45480  32.576  19.000   0.922
73056ION    NA+45481  38.608   3.237  14.395
73057ION    NA+45482  26.970  10.529   9.929
73058ION    NA+45483  11.469  34.273  10.676
73059ION    NA+45484  34.631  32.445   3.789
73060ION    NA+45485  44.470   9.577  13.953
73061ION    NA+45486   1.527  18.066  12.530
73062ION    NA+45487  34.114   3.831   4.105
73063ION    NA+45488  26.712  41.652   1.689
73064ION    NA+45489   6.058  11.711  11.644
73065ION    NA+45490   2.977  23.169   1.390
73066ION    NA+45491  31.184   2.738  12.910
73067ION    NA+45492  20.000  14.164   5.348
73068ION    NA+45493  23.805   6.890   1.962
73069ION    NA+45494  37.579   3.172   1.223
73070ION    NA+45495  36.993  20.940  13.416
73071ION    NA+45496  12.769  17.713  14.255
73072ION    NA+45497  27.470   4.504   0.219
73073ION    NA+45498  23.722   1.227  13.809
73074ION    NA+45499  26.684  43.900   1.296
73075ION    NA+45500  27.889  31.571  12.450
73076ION    NA+45501  19.769  44.226  12.780
73077ION    NA+45502  21.257  36.030   1.944
73078ION    NA+45503  31.911   3.724   0.053
73079ION    NA+45504  12.540  24.095   5.508
73080ION    NA+45505  24.147  13.139  13.526
73081ION    NA+45506   9.360  25.146  14.899
73082ION    NA+45507  36.021   8.651  13.767
73083ION    NA+45508  19.883  26.473  12.267
73084ION    NA+45509  11.230   7.175   4.789
73085ION    NA+45510  10.049  41.139  11.293
73086ION    NA+45511   9.756   8.385   0.901
73087ION    NA+45512  11.781  17.028   2.210
73088ION    NA+45513   9.766  29.954  13.649
73089ION    NA+45514  42.044  13.174   0.689
73090ION    NA+45515  34.645   8.169   2.656
73091ION    NA+45516  18.206  15.922   1.032
73092ION    NA+45517  30.355   9.969  13.520
73093ION    NA+45518  21.962  39.398  14.776
73094ION    NA+45519  15.983  33.150   3.229
73095ION    NA+45520   9.516  40.060   3.658
73096ION    NA+45521  18.919  34.202   0.757
73097ION    NA+45522  16.781  23.430   1.956
73098ION    NA+45523  23.066   8.458  11.025
73099ION    NA+45524   9.029  16.396  12.099
73100ION    NA+45525  15.795   2.646   4.967
73101ION    NA+45526   5.427   0.017   1.318
73102ION    NA+45527  15.005  18.821  12.781
73103ION    NA+45528  22.568  41.282  10.789
73104ION    NA+45529   7.222  39.961  12.661
73105ION    NA+45530  24.056   7.643  12.621
73106ION    NA+45531  26.653  38.687   0.083
73107ION    NA+45532  35.511  16.641   0.832
73108ION    NA+45533  38.439  43.028  13.549
73109ION    NA+45534  28.175  15.066   1.603
73110ION    NA+45535  38.351   4.165   3.091
73111ION    NA+45536  22.919  19.447  11.175
73112ION    NA+45537  10.696  20.273   2.556
73113ION    NA+45538   8.193  31.168   3.491
73114ION    NA+45539  37.763  18.063   3.622
73115ION    NA+45540  42.701  28.439   3.819
73116ION    NA+45541  21.024  26.414  13.307
73117ION    NA+45542   4.426   9.819   2.597
73118ION    NA+45543  33.954  33.266  13.684
73119ION    NA+45544  15.004  22.144  12.102
73120ION    NA+45545  13.153   4.508   5.579
73121ION    NA+45546  10.825  14.915  12.176
73122ION    NA+45547  17.573  19.683   4.422
73123ION    NA+45548  21.003  41.730   3.786
73124ION    NA+45549  11.854  29.969  10.737
73125ION    NA+45550  18.954  23.679   4.356
73126ION    NA+45551  38.817  11.269   1.586
73127ION    NA+45552   1.722  33.528  10.994
73128ION    NA+45553  18.822  37.090   1.931
73129ION    NA+45554  29.699  13.680   1.395
73130ION    NA+45555  44.783   9.763  12.448
73131ION    NA+45556  25.540   4.690   3.291
73132ION    NA+45557   1.388   3.805   1.214
73133ION    NA+45558  15.146   0.710  13.163
73134ION    NA+45559  27.946  13.308   0.509
73135ION    NA+45560  42.196   9.617  14.881
73136ION    NA+45561  21.752   5.981   4.146
73137ION    NA+45562  36.017  21.737  14.067
73138ION    NA+45563  35.319  13.061   1.237
73139ION    NA+45564   1.415   1.459   5.104
73140ION    NA+45565  39.917  31.384  14.956
73141ION    NA+45566  32.252  27.957   1.281
73142ION    NA+45567  39.888  14.552  10.586
73143ION    NA+45568  23.802  36.794  12.082
73144ION    NA+45569  20.405  12.945   4.008
73145ION    NA+45570  29.049  26.823  11.907
73146ION    NA+45571   1.337  30.444   4.048
73147ION    NA+45572  17.354  29.667   2.578
73148ION    NA+45573  37.930  36.004  14.353
73149ION    NA+45574  15.826   9.615  13.505
73150ION    NA+45575  30.179   7.899   2.386
73151ION    NA+45576  32.866  29.780   0.649
73152ION    NA+45577  34.482   6.874   5.026
73153ION    NA+45578  30.828   7.381   2.945
73154ION    NA+45579   4.933  17.271   2.893
73155ION    NA+45580  38.162  41.309  11.467
73156ION    NA+45581  30.187  38.190  14.962
73157ION    NA+45582  11.579   3.501  13.208
73158ION    NA+45583  16.497  15.127  11.202
73159ION    NA+45584  13.273  24.650   1.931
73160ION    NA+45585  44.622  44.604   3.138
73161ION    NA+45586   1.279   2.810  10.639
73162ION    NA+45587  23.018   3.372  14.094
73163ION    NA+45588  35.100   0.652   3.775
73164ION    NA+45589  40.519  36.960  11.017
73165ION    NA+45590  11.718   2.117   4.134
73166ION    NA+45591  18.757  24.244   2.191
73167ION    NA+45592  41.521   4.333  11.915
73168ION    NA+45593   6.037   6.210   3.254
73169ION    NA+45594  10.716  10.632   0.967
73170ION    NA+45595  36.518  27.673   3.533
73171ION    NA+45596  16.366   3.020   3.335
73172ION    NA+45597  33.749  34.215   2.727
73173ION    NA+45598  34.598  26.029  14.811
73174ION    NA+45599   4.468  18.177   3.034
73175ION    NA+45600   2.432  22.690  11.208
73176ION    NA+45601  35.801  12.372   2.911
73177ION    NA+45602  32.606  22.931  13.895
73178ION    NA+45603  35.922  37.856  11.186
73179ION    NA+45604  11.521  18.832  12.672
73180ION    NA+45605  19.017  28.685  14.355
73181ION    NA+45606  30.488  25.781   1.689
73182ION    NA+45607  11.738  43.878   1.566
73183ION    NA+45608  11.056  26.581  10.608
73184ION    NA+45609  14.548  13.439  11.818
73185ION    NA+45610  18.613  11.918  12.622
73186ION    NA+45611  36.998  37.843   0.841
73187ION    NA+45612   8.233  25.542   4.391
73188ION    NA+45613  37.459  38.052   2.635
73189ION    NA+45614  22.626  38.190  12.457
73190ION    NA+45615  29.542  25.807  11.855
73191ION    NA+45616   8.087  29.160  14.787
73192ION    NA+45617  44.487  34.053   2.722
73193ION    NA+45618  20.659  34.067  14.817
73194ION    NA+45619  38.537  16.924   2.651
73195ION    NA+45620  35.468  28.652   4.298
73196ION    NA+45621  20.423  33.551  12.326
73197ION    NA+45622  28.164   0.629   1.961
73198ION    NA+45623  17.522  18.711  12.130
73199ION    NA+45624  35.759  30.605  12.859
73200ION    NA+45625  33.607  27.976  14.411
73201ION    NA+45626  36.415   6.657   2.799
73202ION    NA+45627   8.543  22.603  12.335
73203ION    NA+45628  34.591  19.669   4.093
73204ION    NA+45629  15.356   3.480  11.401
73205ION    NA+45630   5.139  22.505   1.695
73206ION    NA+45631   8.057  16.680   0.259
73207ION    NA+45632  29.893  22.979   3.710
73208ION    NA+45633   0.508   4.601   2.848
73209ION    NA+45634  35.620  25.174   4.439
73210ION    NA+45635  34.440  33.274   4.067
73211ION    NA+45636  31.576  29.618   1.692
73212ION    NA+45637  26.911  43.278  14.305
73213ION    NA+45638  44.829   3.088  14.338
73214ION    NA+45639  20.868  32.288   2.914
73215ION    NA+45640   1.509  17.592  14.345
73216ION    NA+45641   7.986   4.188  14.275
73217ION    NA+45642  27.128   5.483  11.661
73218ION    NA+45643  25.013  28.712   2.492
73219ION    NA+45644  34.049  44.317   3.202
73220ION    NA+45645   2.565   7.941   1.514
73221ION    NA+45646   4.911  44.575   2.917
73222ION    NA+45647  39.599   9.085  12.687
73223ION    NA+45648  28.279  18.380  13.416
73224ION    NA+45649  35.231  17.804   3.479
73225ION    NA+45650  19.688  16.695  12.678
73226ION    NA+45651  29.220  42.069  13.212
73227ION    NA+45652  15.383  29.325  12.382
73228ION    NA+45653   1.231  19.045  10.800
73229ION    NA+45654  32.045  28.982   3.778
73230ION    NA+45655  15.895   0.779  13.823
73231ION    NA+45656   4.516  40.768  13.899
73232ION    NA+45657   0.995  39.452   1.463
73233ION    NA+45658   1.521   3.989  13.482
73234ION    NA+45659  32.403   0.269  13.006
73235ION    NA+45660  16.012  42.847   0.092
73236ION    NA+45661  31.556  39.376   5.380
73237ION    NA+45662  35.676   9.390   0.350
73238ION    NA+45663  34.386  35.571   0.277
73239ION    NA+45664  21.720  42.408   3.616
73240ION    NA+45665  14.382  40.111   2.457
73241ION    NA+45666  27.075  22.155   3.899
73242ION    NA+45667  17.043   1.680   0.117
73243ION    NA+45668  10.058  36.521   0.292
73244ION    NA+45669  25.994  23.501  11.797
73245ION    NA+45670  31.383  20.104   4.310
73246ION    NA+45671  10.895  31.596   4.218
73247ION    NA+45672  24.136   8.079   3.172
73248ION    NA+45673  15.858  28.652   4.826
73249ION    NA+45674  35.529  25.097  11.655
73250ION    NA+45675  18.312  42.283   2.738
73251ION    NA+45676  23.834  41.560   4.356
73252ION    NA+45677  42.018  13.279  10.876
73253ION    NA+45678   0.713  16.208   1.518
73254ION    NA+45679  38.517  29.089  14.464
73255ION    NA+45680  18.922  39.761   2.911
73256ION    NA+45681   4.045  24.539   1.380
73257ION    NA+45682   6.228  15.898   5.161
73258ION    NA+45683  15.204  10.202  14.025
73259ION    NA+45684  31.411  30.519  12.360
73260ION    NA+45685  42.899  39.552   0.421
73261ION    NA+45686   7.236   9.031   4.731
73262ION    NA+45687  38.269   7.943   3.132
73263ION    NA+45688  28.991  14.748   0.666
73264ION    NA+45689  16.465  24.243   1.665
73265ION    NA+45690  32.776   9.423   4.576
73266ION    NA+45691   7.986  36.023  13.925
73267ION    NA+45692   2.452  30.089  14.890
73268ION    NA+45693  19.980  29.955  14.843
73269ION    NA+45694  29.076  38.460  10.813
73270ION    NA+45695  36.427   3.234  12.978
73271ION    NA+45696  13.062  38.442  12.058
73272ION    NA+45697  21.554  40.058   3.664
73273ION    NA+45698   1.619  43.012  11.372
73274ION    NA+45699  16.150  28.576  13.862
73275ION    NA+45700  22.243  38.327   1.712
73276ION    NA+45701  40.082  40.125  14.022
73277ION    NA+45702  41.392  26.769   3.650
73278ION    NA+45703  14.324   8.724   3.293
73279ION    NA+45704  16.957  37.921  12.406
73280ION    NA+45705   1.716  14.439  10.949
73281ION    NA+45706   3.353  37.831  13.096
73282ION    NA+45707  36.111  24.886  14.640
73283ION    NA+45708  39.759  19.629   2.219
73284ION    NA+45709  18.250  19.583  11.123
73285ION    NA+45710  35.587  19.127   0.743
73286ION    NA+45711  21.376   3.811   0.858
73287ION    NA+45712  37.896  21.601   3.526
73288ION    NA+45713  18.016  23.273   3.089
73289ION    NA+45714  16.870  13.702   4.205
73290ION    NA+45715  30.221   5.925  12.027
73291ION    NA+45716   0.761  17.681   0.002
73292ION    NA+45717   5.636  31.868   2.593
73293ION    NA+45718  12.182  43.204   1.668
73294ION    NA+45719  43.847  42.692  12.697
73295ION    NA+45720  26.799  40.640  13.369
73296ION    NA+45721   3.177   8.647   3.920
73297ION    NA+45722  28.989  40.290  11.791
73298ION    NA+45723   9.836  29.852  12.657
73299ION    NA+45724  31.737  15.484   3.839
73300ION    NA+45725  24.726  16.932   0.237
73301ION    NA+45726  18.030  16.216  14.846
73302ION    NA+45727  17.734   3.843   1.645
73303ION    NA+45728  18.010  10.753   3.653
73304ION    NA+45729  13.066   8.047  12.917
73305ION    NA+45730   9.288  35.245  14.948
73306ION    NA+45731  13.918  13.132  11.057
73307ION    NA+45732  25.006  33.069   3.749
73308ION    NA+45733   7.379  12.717   5.189
73309ION    NA+45734  12.205  31.202  14.877
73310ION    NA+45735  23.259  39.573  11.056
73311ION    NA+45736  42.234  12.554  13.820
73312ION    NA+45737   8.105  14.901   3.823
73313ION    NA+45738  29.346   4.395   5.150
73314ION    NA+45739   5.573  20.325  12.478
73315ION    NA+45740   3.885  33.145   4.095
73316ION    NA+45741  37.861  16.551   0.416
73317ION    NA+45742  36.352  23.376   0.537
73318ION    NA+45743  25.755  11.260   3.604
73319ION    NA+45744  24.714  10.359   0.412
73320ION    NA+45745  44.194  28.851   9.791
73321ION    NA+45746  18.334  41.564   1.657
73322ION    NA+45747  16.162   7.471   2.940
73323ION    NA+45748  34.842   6.097   4.510
73324ION    NA+45749  15.478  21.200  14.616
73325ION    NA+45750   4.265  19.852   1.594
73326ION    NA+45751  13.790   4.891  11.303
73327ION    NA+45752  42.789  16.864  10.877
73328ION    NA+45753  34.628  40.012  14.088
73329ION    NA+45754  19.157  20.744  13.542
73330ION    NA+45755  26.593  21.703   2.223
73331ION    NA+45756   8.612  38.066   1.729
73332ION    NA+45757   3.624  11.653   2.900
73333ION    NA+45758  39.043   4.180   2.313
73334ION    NA+45759  38.850  27.167  13.527
73335ION    NA+45760  20.382  13.697   4.551
73336ION    NA+45761   9.809  18.098  11.384
73337ION    NA+45762  25.174  34.005  14.992
73338ION    NA+45763  15.071  22.227   2.812
73339ION    NA+45764  22.821  36.971  11.784
73340ION    NA+45765  31.690  42.970   4.137
73341ION    NA+45766   6.066  18.302   3.723
73342ION    NA+45767  37.197  33.268  11.246
73343ION    NA+45768  29.503  44.844   3.703
73344ION    NA+45769  33.563  26.972  11.159
73345ION    NA+45770  17.416  23.937  12.415
73346ION    NA+45771  23.078  16.571  11.934
73347ION    NA+45772  22.779  10.464   0.245
73348ION    NA+45773  12.703  32.207  11.851
73349ION    NA+45774  21.931  19.753  12.172
73350ION    NA+45775  27.931  10.379   4.241
73351ION    NA+45776   0.715   7.541   1.690
73352ION    NA+45777   4.226   2.825  11.960
73353ION    NA+45778  13.013  32.104   5.221
73354ION    NA+45779  31.281  17.275  12.354
73355ION    NA+45780  10.860  26.581   1.193
73356ION    NA+45781  28.317   9.671   4.116
73357ION    NA+45782   7.771   4.521   3.953
73358ION    NA+45783  19.053  38.792   2.275
73359ION    NA+45784  41.277  31.330   5.161
73360ION    NA+45785  19.366  22.498   3.923
73361ION    NA+45786  12.176  43.382   2.795
73362ION    NA+45787  28.802   7.552   2.113
73363ION    NA+45788  20.541  34.630   2.303
73364ION    NA+45789   2.311  14.870   2.256
73365ION    NA+45790  26.581  42.562  10.706
73366ION    NA+45791  26.920  22.517  11.532
73367ION    NA+45792  22.759  37.490   2.572
73368ION    NA+45793  40.957   4.353  11.040
73369ION    NA+45794  26.070  33.397  12.492
73370ION    NA+45795   0.827   8.578   1.589
73371ION    NA+45796  17.475   4.461   2.890
73372ION    NA+45797   2.236  38.486   0.720
73373ION    NA+45798  29.683   4.244  12.965
73374ION    NA+45799   1.381   7.189   1.814
73375ION    NA+45800   6.488  42.241  12.068
73376ION    NA+45801  36.707  13.944   4.718
73377ION    NA+45802  22.579  16.375   2.162
73378ION    NA+45803   6.165  24.485  12.440
73379ION    NA+45804  36.958  40.035   4.444
73380ION    NA+45805  44.045  31.211  13.550
73381ION    NA+45806   8.286   7.264  12.517
73382ION    NA+45807   6.300  19.779   9.758
73383ION    NA+45808  43.104  14.894  11.615
73384ION    NA+45809  26.384  15.804   1.647
73385ION    NA+45810   2.772  34.941   4.373
73386ION    NA+45811  13.171  38.908  10.718
73387ION    NA+45812  41.075  34.338   1.288
73388ION    NA+45813  13.493  27.953  12.897
73389ION    NA+45814  25.349  37.635   1.341
73390ION    NA+45815  23.829   4.031  11.767
73391ION    NA+45816  23.941   8.811   0.906
73392ION    NA+45817  16.795   6.927   3.149
73393ION    NA+45818  23.758  41.165  13.985
73394ION    NA+45819  16.855  11.039  14.027
73395ION    NA+45820  22.725  35.012   1.718
73396ION    NA+45821  20.645  17.038   2.403
73397ION    NA+45822  15.778   3.906   3.918
73398ION    NA+45823  42.084  27.854  10.753
73399ION    NA+45824   2.988  22.217  12.469
73400ION    NA+45825  36.799  30.232   4.130
73401ION    NA+45826  19.146  13.401   0.219
73402ION    NA+45827   8.832  11.711  10.194
73403ION    NA+45828  13.348  14.564   1.040
73404ION    NA+45829   1.421  25.189   1.891
73405ION    NA+45830  38.057  38.873  13.853
73406ION    NA+45831  40.514  26.229   0.717
73407ION    NA+45832  10.023  22.541  13.194
73408ION    NA+45833  42.523  36.974   3.592
73409ION    NA+45834  33.250  22.415  11.992
73410ION    NA+45835  12.157  25.854  11.996
73411ION    NA+45836  28.134  15.093   2.602
73412ION    NA+45837  23.176   4.215   1.735
73413ION    NA+45838   4.234  38.098   0.396
73414ION    NA+45839  20.703  24.787   1.404
73415ION    NA+45840  29.362   4.552  14.723
73416ION    NA+45841  33.762   2.032   0.310
73417ION    NA+45842  22.033   1.888  10.805
73418ION    NA+45843  37.528  41.410  12.183
73419ION    NA+45844  18.539  36.064   4.340
73420ION    NA+45845  38.022   1.900   1.722
73421ION    NA+45846  34.604  31.572   3.301
73422ION    NA+45847  23.452   3.372   1.922
73423ION    NA+45848  40.844  13.150   1.993
73424ION    NA+45849   1.433  22.709  11.156
73425ION    NA+45850  13.609  18.923  11.211
73426ION    NA+45851  33.178  42.680  11.930
73427ION    NA+45852   0.022  35.178  12.129
73428ION    NA+45853  38.937  15.250   3.433
73429ION    NA+45854  14.398  17.155   1.956
73430ION    NA+45855  22.325  43.012  10.095
73431ION    NA+45856  15.211  34.743   9.830
73432ION    NA+45857  32.387  25.555  14.408
73433ION    NA+45858   4.809  34.125   0.641
73434ION    NA+45859  10.709  21.525  14.525
73435ION    NA+45860  28.243  34.226   3.103
73436ION    NA+45861   9.817  13.275  13.498
73437ION    NA+45862   9.845   7.283  11.144
73438ION    NA+45863  38.702  17.326   3.552
73439ION    NA+45864  24.029  15.682   0.682
73440ION    NA+45865  10.920  42.356   3.398
73441ION    NA+45866  14.506  26.285  12.726
73442ION    NA+45867   4.476   9.288   3.934
73443ION    NA+45868  31.308  19.306  14.295
73444ION    NA+45869  22.740  35.867   2.238
73445ION    NA+45870  14.227  41.326   1.731
73446ION    NA+45871  41.552  41.771   3.802
73447ION    NA+45872   9.717   1.302   2.926
73448ION    NA+45873  35.537   0.583   2.197
73449ION    NA+45874  32.670  28.248   2.158
73450ION    NA+45875  10.550  27.993   0.792
73451ION    NA+45876  24.918  25.882   1.785
73452ION    NA+45877  21.451  20.555   3.039
73453ION    NA+45878  37.078  24.180   4.695
73454ION    NA+45879  10.059  26.635  10.808
73455ION    NA+45880  38.639  44.610  12.721
73456ION    NA+45881  18.281  28.451   0.685
73457ION    NA+45882  33.060  10.977   3.069
73458ION    NA+45883  37.408  10.742   4.433
73459ION    NA+45884   7.243  17.352  11.042
73460ION    NA+45885  20.240   0.784  11.671
73461ION    NA+45886  23.688   2.330   2.585
73462ION    NA+45887  18.548  31.382  13.553
73463ION    NA+45888   5.244   3.214  11.647
73464ION    NA+45889  38.985  36.305  10.791
73465ION    NA+45890  34.019  25.264  14.420
73466ION    NA+45891  37.419  29.523  13.279
73467ION    NA+45892   5.132  33.783  12.090
73468ION    NA+45893  16.393  38.822  13.528
73469ION    NA+45894  15.192   1.044  11.745
73470ION    NA+45895  34.339  42.892   2.771
73471ION    NA+45896  32.890  19.949   1.085
73472ION    NA+45897  14.588  23.302  12.733
73473ION    NA+45898  17.732  33.343   1.211
73474ION    NA+45899   6.538  18.802  11.506
73475ION    NA+45900   4.366  22.714   1.285
73476ION    NA+45901  14.574  18.709  14.680
73477ION    NA+45902  17.808   5.073   0.215
73478ION    NA+45903  37.781  16.597   3.028
73479ION    NA+45904  44.144  36.551  12.009
73480ION    NA+45905   8.339  13.294  13.373
73481ION    NA+45906   1.522  13.580  10.836
73482ION    NA+45907  34.978  35.657  11.560
73483ION    NA+45908  25.028  11.150   5.373
73484ION    NA+45909  26.937  41.370   4.727
73485ION    NA+45910  11.863  12.673   4.300
73486ION    NA+45911  28.097  29.044   3.151
73487ION    NA+45912   6.281  10.589   4.665
73488ION    NA+45913  31.616  14.757   3.122
73489ION    NA+45914   8.837  42.072  12.179
73490ION    NA+45915  18.565  26.881   0.434
73491ION    NA+45916  13.262  15.157  13.866
73492ION    NA+45917  21.325   2.941  12.088
73493ION    NA+45918  26.520  41.590  13.510
73494ION    NA+45919  13.943   9.665  11.503
73495ION    NA+45920  11.748  33.951   3.384
73496ION    NA+45921  26.939  18.768   1.196
73497ION    NA+45922   1.253  17.525  13.380
73498ION    NA+45923  41.885  25.050  11.881
73499ION    NA+45924  36.032  19.691   1.525
73500ION    NA+45925  16.637   7.715   4.692
73501ION    NA+45926   8.581   9.657  11.232
73502ION    NA+45927  30.533  28.502   3.437
73503ION    NA+45928  14.700   9.553   0.925
73504ION    NA+45929   9.238   5.732  11.551
73505ION    NA+45930   6.756  12.722   3.269
73506ION    NA+45931  14.691  38.749   4.649
73507ION    NA+45932  35.344   5.257   3.202
73508ION    NA+45933  39.559  43.935  14.429
73509ION    NA+45934  20.250   9.195   2.867
73510ION    NA+45935  36.634   5.437  13.038
73511ION    NA+45936  23.123  38.339   4.600
73512ION    NA+45937  19.073   5.445  10.778
73513ION    NA+45938   3.048   4.614   1.387
73514ION    NA+45939  24.185   2.421   1.431
73515ION    NA+45940  26.908  43.469   2.937
73516ION    NA+45941   9.827   0.964   0.047
73517ION    NA+45942  21.108  27.385  12.973
73518ION    NA+45943  15.508  35.794  12.720
73519ION    NA+45944  13.239  12.662  11.622
73520ION    NA+45945   1.340   5.131   2.647
73521ION    NA+45946   4.864  32.793   0.927
73522ION    NA+45947  20.787   8.960  12.010
73523ION    NA+45948  14.066   0.033  13.914
73524ION    NA+45949  27.680   6.142  14.701
73525ION    NA+45950  32.131   0.002   3.762
73526ION    NA+45951  28.070  44.675   1.627
73527ION    NA+45952  44.782  31.103  10.854
73528ION    NA+45953  18.055  15.745  13.356
73529ION    NA+45954   8.896  41.088  12.007
73530ION    NA+45955  31.203  25.635  11.120
73531ION    NA+45956  23.137  18.363  13.094
73532ION    NA+45957  14.450  32.798   1.793
73533ION    NA+45958  42.896   6.679   4.610
73534ION    NA+45959  42.763  21.813   3.324
73535ION    NA+45960  43.966  38.284  14.342
73536ION    NA+45961  19.727  15.552   3.618
73537ION    NA+45962  33.459  42.256   1.468
73538ION    NA+45963  14.351   4.811   4.839
73539ION    NA+45964  16.211   0.941  14.758
73540ION    NA+45965   8.095  41.561   1.207
73541ION    NA+45966  16.249  29.281   2.795
73542ION    NA+45967  21.518  25.150  11.055
73543ION    NA+45968   7.635  39.778   2.855
73544ION    NA+45969  30.940  24.687  11.300
73545ION    NA+45970  18.327  11.088  14.068
73546ION    NA+45971  11.992  30.541   5.043
73547ION    NA+45972  12.781  32.362   3.293
73548ION    NA+45973  36.859  13.245   0.109
73549ION    NA+45974  30.496  12.306  12.027
73550ION    NA+45975  30.317  25.762  11.286
73551ION    NA+45976  22.369  32.076  13.900
73552ION    NA+45977  30.924  44.980   4.645
73553ION    NA+45978  32.280  13.254   0.997
73554ION    NA+45979  29.418  42.416   0.839
73555ION    NA+45980   0.955   5.240   1.730
73556ION    NA+45981  30.283  30.579   1.563
73557ION    NA+45982  38.619  33.888   5.102
73558ION    NA+45983  20.554  16.552   3.317
73559ION    NA+45984   9.006   8.091   4.339
73560ION    NA+45985  31.444  18.961   3.671
73561ION    NA+45986  35.800  37.526   3.784
73562ION    NA+45987  15.074  40.579  10.799
73563ION    NA+45988  37.458  39.783  14.519
73564ION    NA+45989  19.468  40.443  14.304
73565ION    NA+45990  32.178  44.210  12.464
73566ION    NA+45991  26.980  15.123   5.060
73567ION    NA+45992   4.651   4.681  11.544
73568ION    NA+45993  10.680  31.738  14.990
73569ION    NA+45994  24.246  34.976  12.037
73570ION    NA+45995  44.332  19.260  12.034
73571ION    NA+45996  29.894  20.167  13.627
73572ION    NA+45997   3.289   4.972   2.425
73573ION    NA+45998  37.828  36.635   1.362
73574ION    NA+45999   1.417  23.651   0.877
73575ION    NA+46000  19.803  13.644  13.595
73576ION    NA+46001  34.817  26.433   1.229
73577ION    NA+46002  23.904  31.222   2.580
73578ION    NA+46003   8.574  17.837   3.018
73579ION    NA+46004  23.811   1.059  14.967
73580ION    NA+46005  10.054   3.443  12.086
73581ION    NA+46006   7.621  30.703   2.952
73582ION    NA+46007  14.810  23.252  13.708
73583ION    NA+46008  32.427  38.062   3.378
73584ION    NA+46009   1.415  16.106  13.465
73585ION    NA+46010  44.489  39.380  11.882
73586ION    NA+46011   2.228   9.134   2.983
73587ION    NA+46012  31.088  32.486   3.130
73588ION    NA+46013  11.877  16.214   0.269
73589ION    NA+46014  10.491  15.333  11.503
73590ION    NA+46015  28.468  28.523  12.029
73591ION    NA+46016  22.967  20.110   3.657
73592ION    NA+46017  42.887  16.548   3.448
73593ION    NA+46018  34.801  25.091   0.754
73594ION    NA+46019  11.864   1.135   2.018
73595ION    NA+46020  13.987  43.330   4.226
73596ION    NA+46021  17.217  29.057  10.731
73597ION    NA+46022  26.953   2.963  12.109
73598ION    NA+46023  25.889   3.736   0.685
73599ION    NA+46024   2.089  12.390   0.220
73600ION    NA+46025  32.447  35.111  14.892
73601ION    NA+46026  42.238  44.519  12.988
73602ION    NA+46027  34.185  18.029   4.327
73603ION    NA+46028  29.997   3.213  14.313
73604ION    NA+46029  38.501  12.509  13.530
73605ION    NA+46030  15.452  44.919  14.077
73606ION    NA+46031  38.899   6.853  10.258
73607ION    NA+46032  12.693  29.659   4.648
73608ION    NA+46033   1.344   8.426   2.317
73609ION    NA+46034   7.613  39.429  13.413
73610ION    NA+46035  18.087  15.207   2.699
73611ION    NA+46036  25.218  33.933   4.733
73612ION    NA+46037   1.404  12.551  12.519
73613ION    NA+46038  16.485   5.418   2.407
73614ION    NA+46039  10.786  39.878   1.791
73615ION    NA+46040  13.765  32.176  12.005
73616ION    NA+46041  43.064  36.802  10.730
73617ION    NA+46042  31.318  38.817   4.694
73618ION    NA+46043   5.996  34.920  13.382
73619ION    NA+46044   7.360  20.673   4.123
73620ION    NA+46045  32.595  42.733  10.584
73621ION    NA+46046  14.711   9.143  14.935
73622ION    NA+46047  31.369  29.942   3.988
73623ION    NA+46048  26.071  43.381   3.805
73624ION    NA+46049  31.424   5.337   0.493
73625ION    NA+46050  14.524  29.593   4.853
73626ION    NA+46051  27.874  10.343  10.640
73627ION    NA+46052  42.016  27.104  14.508
73628ION    NA+46053  25.212   1.328   2.934
73629ION    NA+46054  24.420   1.870  11.031
73630ION    NA+46055   9.985  33.973  13.100
73631ION    NA+46056  14.073  15.897  10.512
73632ION    NA+46057  16.704   6.577   0.110
73633ION    NA+46058  20.041  42.970  14.657
73634ION    NA+46059  17.605  32.970  13.301
73635ION    NA+46060  34.819   5.603  13.280
73636ION    NA+46061  15.636  42.764   3.088
73637ION    NA+46062  21.454  26.303  12.029
73638ION    NA+46063  13.944  21.960   9.906
73639ION    NA+46064  26.591  28.623   1.266
73640ION    NA+46065   0.313  40.236   4.732
73641ION    NA+46066  38.856  20.031   2.370
73642ION    NA+46067   2.910  15.780  11.119
73643ION    NA+46068   3.803  36.914   4.389
73644ION    NA+46069  28.764   7.846  14.565
73645ION    NA+46070  26.260  43.442   1.947
73646ION    NA+46071  14.547  29.442   0.295
73647ION    NA+46072  13.137  33.694   3.584
73648ION    NA+46073   1.113  11.684  12.919
73649ION    NA+46074  16.665   9.161  11.147
73650ION    NA+46075  12.906   9.817  11.596
73651ION    NA+46076  10.662  20.793   1.234
73652ION    NA+46077   6.784   4.526  11.549
73653ION    NA+46078  26.151  18.016  13.030
73654ION    NA+46079  15.580  41.407  11.039
73655ION    NA+46080  12.278  33.188   0.050
73656ION    NA+46081  31.160  15.292   0.880
73657ION    NA+46082  19.651  15.222  10.564
73658ION    NA+46083  42.868  19.020  12.708
73659ION    NA+46084  43.733  20.011   1.359
73660ION    NA+46085   3.538  11.253   3.728
73661ION    NA+46086  36.289  29.859   3.295
73662ION    NA+46087  10.803   3.892   1.387
73663ION    NA+46088   7.765  17.573  14.680
73664ION    NA+46089   6.878  41.030   0.059
73665ION    NA+46090  33.757   7.113   2.794
73666ION    NA+46091  29.740  40.760  14.355
73667ION    NA+46092  34.148  27.194  13.380
73668ION    NA+46093  17.084  29.560  14.835
73669ION    NA+46094   2.285   1.429   0.314
73670ION    NA+46095  11.301  10.167   2.225
73671ION    NA+46096   9.169  30.615  12.268
73672ION    NA+46097  29.382  31.984   2.305
73673ION    NA+46098  17.719  34.369   4.724
73674ION    NA+46099  21.417  11.913  10.928
73675ION    NA+46100   9.716  33.390   3.363
73676ION    NA+46101   9.430  22.637  12.478
73677ION    NA+46102   9.171  37.641   4.642
73678ION    NA+46103  10.405  10.409   4.560
73679ION    NA+46104  21.597   4.234   3.579
73680ION    NA+46105  34.354  17.735  13.778
73681ION    NA+46106  21.389  41.734   2.026
73682ION    NA+46107  26.577   4.336   0.732
73683ION    NA+46108   5.424   5.539  14.818
73684ION    NA+46109  39.588  20.256   1.356
73685ION    NA+46110  10.898  27.731  12.595
73686ION    NA+46111  14.347  17.105  12.800
73687ION    NA+46112  42.905  37.087  13.361
73688ION    NA+46113  16.136  28.645  12.865
73689ION    NA+46114  35.894  24.732  12.977
73690ION    NA+46115  42.732  28.140  14.598
73691ION    NA+46116  28.331  41.139  11.732
73692ION    NA+46117   2.530  10.172  11.048
73693ION    NA+46118   0.073   2.149  10.555
73694ION    NA+46119  33.049  34.331  14.719
73695ION    NA+46120  30.445  12.004  11.002
73696ION    NA+46121  17.055  42.389   2.229
73697ION    NA+46122  38.793  39.894  13.113
73698ION    NA+46123  10.516  44.053   3.665
73699ION    NA+46124  31.600  38.499  11.491
73700ION    NA+46125  22.471  36.339   0.428
73701ION    NA+46126   9.345  14.701  13.159
73702ION    NA+46127   4.951  31.641   3.448
73703ION    NA+46128  35.200  17.184   2.618
73704ION    NA+46129  42.408  30.332  12.077
73705ION    NA+46130  14.119  25.205   0.472
73706ION    NA+46131   1.327   2.093   1.831
73707ION    NA+46132  43.864  34.097  10.130
73708ION    NA+46133   7.166   5.172  12.553
73709ION    NA+46134  31.996  30.686  10.223
73710ION    NA+46135   3.773   3.941   1.529
73711ION    NA+46136  19.583  35.518  10.722
73712ION    NA+46137  26.903   0.316   1.398
73713ION    NA+46138  35.921  30.705   4.278
73714ION    NA+46139  30.824  11.523   4.495
73715ION    NA+46140  29.865   6.370  13.367
73716ION    NA+46141  32.819  29.802  11.208
73717ION    NA+46142  33.930  41.427  13.443
73718ION    NA+46143  28.410  20.847   4.764
73719ION    NA+46144  13.625  37.433   4.522
73720ION    NA+46145  32.567   0.648  12.095
73721ION    NA+46146  43.761  18.223   0.485
73722ION    NA+46147  16.837  16.530  11.182
73723ION    NA+46148  22.111   3.016  13.869
73724ION    NA+46149   8.910  32.576  12.133
73725ION    NA+46150  29.138  31.489   3.685
73726ION    NA+46151  41.744  38.881   3.611
73727ION    NA+46152  14.246  10.147   0.237
73728ION    NA+46153  34.284   5.923   2.717
73729ION    NA+46154   6.439  20.821  14.854
73730ION    NA+46155  40.129  29.632   4.685
73731ION    NA+46156  31.518  11.778  12.906
73732ION    NA+46157  40.319  26.618  14.027
73733ION    NA+46158  13.162  10.586  11.010
73734ION    NA+46159  26.684  19.154  12.825
73735ION    NA+46160  34.431  28.417   0.949
73736ION    NA+46161   5.162   9.888   1.821
73737ION    NA+46162  17.930  13.538   4.039
73738ION    NA+46163  34.995   2.248   1.472
73739ION    NA+46164  40.320  31.174   4.681
73740ION    NA+46165  28.223   3.761  12.455
73741ION    NA+46166  35.906  28.151  11.215
73742ION    NA+46167  34.872  27.551  12.715
73743ION    NA+46168  26.076  35.364   1.862
73744ION    NA+46169  33.501   3.192  13.777
73745ION    NA+46170  36.279  35.858   5.137
73746ION    NA+46171  31.791  13.319  13.333
73747ION    NA+46172  26.696  21.063   4.258
73748ION    NA+46173  23.107  34.529   4.695
73749ION    NA+46174  23.750  13.571   2.869
73750ION    NA+46175   1.197  12.307  11.699
73751ION    NA+46176  26.951  25.748   1.295
73752ION    NA+46177  22.553  30.042   3.346
73753ION    NA+46178   0.160  41.883  11.209
73754ION    NA+46179  33.973   8.123   4.717
73755ION    NA+46180   0.914   2.416   2.570
73756ION    NA+46181  16.050  28.306   2.896
73757ION    NA+46182  15.619  14.014  13.933
73758ION    NA+46183  15.363   2.311   2.798
73759ION    NA+46184  13.221   8.871  11.513
73760ION    NA+46185  37.314  19.403   4.034
73761ION    NA+46186   4.857  21.100   3.654
73762ION    NA+46187  21.035   2.683  14.248
73763ION    NA+46188   5.182   7.683   1.007
73764ION    NA+46189   8.951  12.554   0.006
73765ION    NA+46190  10.389   7.915   1.966
73766ION    NA+46191  18.604  36.268  13.418
73767ION    NA+46192  22.523   9.852  11.480
73768ION    NA+46193  38.163  14.386   4.049
73769ION    NA+46194  18.729  33.357   1.278
73770ION    NA+46195  27.035  41.265   3.738
73771ION    NA+46196  26.634  40.938  11.144
73772ION    NA+46197  33.720  20.283   0.637
73773ION    NA+46198  27.796   3.767  14.834
73774ION    NA+46199  20.010  30.265   1.860
73775ION    NA+46200   4.860  40.149   5.077
73776ION    NA+46201   3.832  38.899  14.953
73777ION    NA+46202  38.282  33.359   2.935
73778ION    NA+46203  22.258   4.850  12.999
73779ION    NA+46204  26.915   7.735  10.725
73780ION    NA+46205  27.556  15.174  13.297
73781ION    NA+46206  17.595  28.683  13.820
73782ION    NA+46207  38.987  14.135  10.704
73783ION    NA+46208  17.796   7.356   0.429
73784ION    NA+46209  36.926  27.582   4.441
73785ION    NA+46210   8.991  38.888   3.551
73786ION    NA+46211  23.558  33.878   0.115
73787ION    NA+46212  41.947   7.153   0.866
73788ION    NA+46213  34.921  24.439   3.367
73789ION    NA+46214  36.360  42.706   0.133
73790ION    NA+46215   9.815  18.891   4.623
73791ION    NA+46216  12.119  35.931   1.042
73792ION    NA+46217   7.164  15.034  11.580
73793ION    NA+46218   7.181  38.786  12.780
73794ION    NA+46219  37.981   4.613   4.550
73795ION    NA+46220  41.475  27.993   0.848
73796ION    NA+46221  40.998  29.447   4.167
73797ION    NA+46222  15.205  35.749   4.097
73798ION    NA+46223  32.096  36.937   1.692
73799ION    NA+46224  16.973  18.065   1.487
73800ION    NA+46225  11.289  39.235   0.176
73801ION    NA+46226  36.063   8.810   2.523
73802ION    NA+46227   3.014  35.042  14.391
73803ION    NA+46228  16.207  43.718  11.674
73804ION    NA+46229  30.595  15.312  13.290
73805ION    NA+46230   4.535  15.017   4.795
73806ION    NA+46231  24.846   4.372   2.644
73807ION    NA+46232  20.709  28.969   4.467
73808ION    NA+46233  24.979   6.433   0.792
73809ION    NA+46234  19.003  12.790   4.277
73810ION    NA+46235  10.839   4.880  12.441
73811ION    NA+46236   0.666   7.711   4.123
73812ION    NA+46237  29.831  26.416  11.435
73813ION    NA+46238  17.296  35.133  14.480
73814ION    NA+46239   9.666  11.226   1.714
73815ION    NA+46240  37.358  10.378   0.673
73816ION    NA+46241  21.980  10.347  13.714
73817ION    NA+46242  26.627  30.030   1.307
73818ION    NA+46243  39.129  10.016  11.019
73819ION    NA+46244  23.473  42.455  12.980
73820ION    NA+46245   7.110  37.361   3.489
73821ION    NA+46246   8.208  40.584   1.390
73822ION    NA+46247  27.532  27.786   0.812
73823ION    NA+46248  17.500   5.944   4.594
73824ION    NA+46249  28.998   3.129  12.433
73825ION    NA+46250  30.153   6.165   0.910
73826ION    NA+46251  33.265  42.802  13.511
73827ION    NA+46252  35.454  19.244   4.366
73828ION    NA+46253   3.553  35.396   4.800
73829ION    NA+46254  33.451  44.653  10.747
73830ION    NA+46255   1.314  29.592  12.842
73831ION    NA+46256  25.976  41.092   3.006
73832ION    NA+46257  29.905   2.642   4.149
73833ION    NA+46258   0.925   3.790   4.369
73834ION    NA+46259  32.095   5.922  11.054
73835ION    NA+46260  36.876  16.646   4.637
73836ION    NA+46261  34.205  34.412  11.638
73837ION    NA+46262  34.546  18.038   1.877
73838ION    NA+46263   4.848  14.274   3.847
73839ION    NA+46264  16.581  13.891  12.557
73840ION    NA+46265   4.437   3.206   1.216
73841ION    NA+46266  39.307  28.143  10.711
73842ION    NA+46267  13.845  17.760   1.281
73843ION    NA+46268  17.166  31.867   4.141
73844ION    NA+46269  15.984  15.005   4.917
73845ION    NA+46270   5.301  30.629  14.506
73846ION    NA+46271   4.983  10.724   0.273
73847ION    NA+46272  18.524  21.194   0.300
73848ION    NA+46273  38.894  38.967   2.911
73849ION    NA+46274  29.446  42.395  12.008
73850ION    NA+46275   0.105  18.533  11.192
73851ION    NA+46276  37.352   9.015  12.715
73852ION    NA+46277  22.541  30.972  14.689
73853ION    NA+46278  41.834  26.236  11.461
73854ION    NA+46279  24.036  16.319  12.931
73855ION    NA+46280  34.786  19.089  13.223
73856ION    NA+46281  33.898  40.815   1.356
73857ION    NA+46282  30.235  18.219   1.465
73858ION    NA+46283  26.005  27.511   3.329
73859ION    NA+46284  29.655  15.939  11.162
73860ION    NA+46285  41.270  19.805   0.422
73861ION    NA+46286  34.411  42.796  14.934
73862ION    NA+46287  11.491  20.040   0.549
73863ION    NA+46288  26.621   2.038  11.702
73864ION    NA+46289  26.925   9.207  11.959
73865ION    NA+46290  12.698   9.013  12.880
73866ION    NA+46291  37.755  29.245  11.327
73867ION    NA+46292  41.504  33.181   2.803
73868ION    NA+46293   3.719  16.730  12.784
73869ION    NA+46294  25.524  30.383   4.956
73870ION    NA+46295  12.186   4.469   2.316
73871ION    NA+46296  19.216  23.614  12.081
73872ION    NA+46297  20.121  38.837  14.769
73873ION    NA+46298   7.016  27.996  12.175
73874ION    NA+46299  16.967  19.092  11.389
73875ION    NA+46300   4.378  34.403  14.588
73876ION    NA+46301  24.966  28.019  13.855
73877ION    NA+46302  17.913  37.565  11.971
73878ION    NA+46303  15.827  27.563   2.242
73879ION    NA+46304  26.139   1.444   2.578
73880ION    NA+46305   0.230   1.381   2.364
73881ION    NA+46306  24.214  26.918   1.251
73882ION    NA+46307  43.502  37.503   1.843
73883ION    NA+46308  18.988  35.240   4.686
73884ION    NA+46309  14.911  41.275  11.498
73885ION    NA+46310  17.853   8.035  14.817
73886ION    NA+46311  20.872  26.361  11.217
73887ION    NA+46312  42.256  13.744  14.895
73888ION    NA+46313  16.628  43.877  12.761
73889ION    NA+46314  34.820  27.711  13.701
73890ION    NA+46315  33.297  39.712  10.900
73891ION    NA+46316  21.814  24.177   3.730
73892ION    NA+46317  12.548  22.994   3.105
73893ION    NA+46318  35.420  13.188  14.085
73894ION    NA+46319  30.334  34.409   2.699
73895ION    NA+46320  36.172  39.544   1.053
73896ION    NA+46321  18.111   3.644   3.387
73897ION    NA+46322  28.550   8.596   0.190
73898ION    NA+46323  12.738   1.122  11.939
73899ION    NA+46324  26.085  11.597  12.147
73900ION    NA+46325  34.810  38.346  10.986
73901ION    NA+46326  25.766  29.512  12.944
73902ION    NA+46327  17.570  14.017   0.246
73903ION    NA+46328  10.781  11.480   1.854
73904ION    NA+46329  41.333   9.054  14.068
73905ION    NA+46330  28.106  14.377  12.988
73906ION    NA+46331  37.166  10.301  12.011
73907ION    NA+46332  18.514  25.284  14.126
73908ION    NA+46333  24.744  44.348  14.745
73909ION    NA+46334  11.980  40.311   3.661
73910ION    NA+46335  17.341  22.210  13.340
73911ION    NA+46336  21.194  39.360   0.425
73912ION    NA+46337   4.660  44.451  11.437
73913ION    NA+46338  31.142  12.711  11.255
73914ION    NA+46339  39.266  17.193   1.437
73915ION    NA+46340  42.004  36.324   3.204
73916ION    NA+46341  19.489  32.669   0.198
73917ION    NA+46342  32.059  44.281   1.151
73918ION    NA+46343  33.658  23.024  11.451
73919ION    NA+46344  33.918  29.100   0.261
73920ION    NA+46345  18.137  12.518  14.867
73921ION    NA+46346  41.821   2.296  14.813
73922ION    NA+46347  21.683  12.781  14.536
73923ION    NA+46348  29.024  40.941  11.033
73924ION    NA+46349  33.792   1.856  13.607
73925ION    NA+46350  16.892  24.059  11.703
73926ION    NA+46351  15.548  38.090  13.787
73927ION    NA+46352   5.902  23.474  13.863
73928ION    NA+46353  14.378  14.865  12.788
73929ION    NA+46354  25.635  42.913  10.829
73930ION    NA+46355  31.164  13.561   2.942
73931ION    NA+46356   1.924  18.364   0.933
73932ION    NA+46357  26.973  25.516  14.997
73933ION    NA+46358  20.494  29.695   0.976
73934ION    NA+46359  23.273  15.498   1.142
73935ION    NA+46360   2.743  34.432   3.112
73936ION    NA+46361  26.460  26.757   4.716
73937ION    NA+46362  38.141  37.320   2.630
73938ION    NA+46363  18.973  40.834   1.412
73939ION    NA+46364  24.749   8.609   4.557
73940ION    NA+46365   4.371  11.098  10.883
73941ION    NA+46366  38.036  44.416  11.946
73942ION    NA+46367  36.192  14.746  10.848
73943ION    NA+46368   3.891  15.488   4.162
73944ION    NA+46369  31.763  39.784  10.449
73945ION    NA+46370   4.634  10.859   4.544
73946ION    NA+46371  34.442  38.862  13.539
73947ION    NA+46372  35.892   2.189   3.761
73948ION    NA+46373  37.356  25.749  13.263
73949ION    NA+46374  20.365   3.889   0.800
73950ION    NA+46375  38.688  43.226  14.497
73951ION    NA+46376   3.163  31.836  12.096
73952ION    NA+46377  21.526  27.105  12.234
73953ION    NA+46378  19.552  39.955  13.435
73954ION    NA+46379  44.065  30.238  12.799
73955ION    NA+46380  33.747  36.839   3.385
73956ION    NA+46381  17.901  24.782  11.981
73957ION    NA+46382  43.598  16.977   2.780
73958ION    NA+46383  41.533  17.673  12.485
73959ION    NA+46384  28.088   6.766  10.557
73960ION    NA+46385  43.794  25.897  14.948
73961ION    NA+46386  23.208  27.986   1.536
73962ION    NA+46387  28.611   8.042  13.596
73963ION    NA+46388  14.923  14.025   9.583
73964ION    NA+46389  42.999  43.393  11.470
73965ION    NA+46390  17.156  25.287   3.326
73966ION    NA+46391  27.899  35.175  13.404
73967ION    NA+46392  32.539  21.228   3.776
73968ION    NA+46393  44.177  18.524   4.583
73969ION    NA+46394  36.293  14.031  11.703
73970ION    NA+46395  22.744  16.253  13.556
73971ION    NA+46396  19.156  24.072  11.193
73972ION    NA+46397   4.668  33.388   3.002
73973ION    NA+46398  17.719  40.825  12.571
73974ION    NA+46399  24.388  29.820  14.405
73975ION    NA+46400   0.784   3.276  13.446
73976ION    NA+46401  32.931   4.741   4.859
73977ION    NA+46402  43.416  30.123  10.704
73978ION    NA+46403  32.557   9.144   2.138
73979ION    NA+46404  42.171  26.901   0.377
73980ION    NA+46405   4.998  23.235   3.580
73981ION    NA+46406  36.387  26.210  14.485
73982ION    NA+46407  33.769  38.719   1.003
73983ION    NA+46408  21.424   9.633  13.593
73984ION    NA+46409  43.076  22.422  13.865
73985ION    NA+46410  14.621  37.474  11.999
73986ION    NA+46411  14.183  43.841   1.192
73987ION    NA+46412   8.673  27.689   4.385
73988ION    NA+46413  33.071   0.765   3.580
73989ION    NA+46414  28.613  17.058  14.441
73990ION    NA+46415  23.215  32.599   0.490
73991ION    NA+46416  27.407  11.608  12.946
73992ION    NA+46417   1.382  24.925   3.378
73993ION    NA+46418   9.934  39.794   1.273
73994ION    NA+46419  37.546   7.187  10.596
73995ION    NA+46420  18.434   2.522   0.643
73996ION    NA+46421  17.285  42.845   5.171
73997ION    NA+46422   3.887   6.383   0.429
73998ION    NA+46423  12.547  26.881   3.331
73999ION    NA+46424  15.435  25.220   4.448
74000ION    NA+46425  44.012  23.387  10.683
74001ION    NA+46426  16.070  12.432   3.523
74002ION    NA+46427  15.282  23.490  11.999
74003ION    NA+46428   4.091  44.866  12.147
74004ION    NA+46429  32.307  19.267  14.269
74005ION    NA+46430   9.782  33.985   1.001
74006ION    NA+46431   5.825   4.959   3.558
74007ION    NA+46432   9.580  37.195   3.661
74008ION    NA+46433  23.520   8.940   2.896
74009ION    NA+46434  22.102  28.055   0.517
74010ION    NA+46435  10.303  23.832   2.943
74011ION    NA+46436  21.362   2.762  11.018
74012ION    NA+46437  13.580  17.677  14.840
74013ION    NA+46438  39.269  38.916   4.517
74014ION    NA+46439   7.651   3.142  12.176
74015ION    NA+46440  12.406   0.649   0.450
74016ION    NA+46441   9.663  12.742  14.330
74017ION    NA+46442  42.028  17.333   1.003
74018ION    NA+46443   1.170  35.610  11.586
74019ION    NA+46444   4.077  36.417  11.166
74020ION    NA+46445   1.839  40.483   4.566
74021ION    NA+46446  35.395  44.336  11.437
74022ION    NA+46447  22.264  15.886   0.447
74023ION    NA+46448  33.148   6.965  13.749
74024ION    NA+46449   5.087  34.676  14.119
74025ION    NA+46450   6.241   0.847   1.995
74026ION    NA+46451   3.736   3.519   2.849
74027ION    NA+46452   2.736  12.734  14.710
74028ION    NA+46453   4.406  11.645   0.574
74029ION    NA+46454  44.555   3.152  11.144
74030ION    NA+46455  38.534  41.391  14.822
74031ION    NA+46456  33.045  44.503  12.990
74032ION    NA+46457  29.183   7.399   3.289
74033ION    NA+46458  38.750  22.263   2.143
74034ION    NA+46459   0.953   7.518   2.466
74035ION    NA+46460  22.249  19.044   3.174
74036ION    NA+46461  33.195  28.574  11.655
74037ION    NA+46462   1.050  44.300  13.279
74038ION    NA+46463  13.597   4.844   4.178
74039ION    NA+46464  40.041  20.585  14.802
74040ION    NA+46465   7.416  37.269   2.694
74041ION    NA+46466  16.046   4.951  13.333
74042ION    NA+46467  18.366   1.877   2.941
74043ION    NA+46468  43.961  27.095  10.640
74044ION    NA+46469  41.571  27.510   4.735
74045ION    NA+46470  34.030  36.934   0.955
74046ION    NA+46471  27.976  22.072   1.968
74047ION    NA+46472  37.468  19.100   0.281
74048ION    NA+46473  36.544  36.155  13.812
74049ION    NA+46474  43.478  29.743   1.440
74050ION    NA+46475  42.761  10.982  13.978
74051ION    NA+46476  13.441  35.571  13.011
74052ION    NA+46477  43.572  16.965  14.714
74053ION    NA+46478  34.416  37.925  14.968
74054ION    NA+46479   2.271  28.603   3.356
74055ION    NA+46480   2.839  27.067   0.717
74056ION    NA+46481  33.349  18.620  12.445
74057ION    NA+46482   0.796  33.509   1.711
74058ION    NA+46483   3.938  41.325   0.028
74059ION    NA+46484  10.124   8.605  12.455
74060ION    NA+46485   9.491  38.952  10.745
74061ION    NA+46486   9.209   1.872   0.908
74062ION    NA+46487  24.253  10.937   1.627
74063ION    NA+46488  19.263  23.575   2.735
74064ION    NA+46489   1.399  22.414   1.337
74065ION    NA+46490   6.770  44.214   3.387
74066ION    NA+46491  35.534  32.388   1.716
74067ION    NA+46492  18.003  43.963   0.962
74068ION    NA+46493   5.251  21.553   4.763
74069ION    NA+46494  31.418  41.191  12.505
74070ION    NA+46495  19.720  33.088  14.320
74071ION    NA+46496   1.227  22.274   3.626
74072ION    NA+46497  34.260  26.555  11.462
74073ION    NA+46498  38.321  42.187  11.680
74074ION    NA+46499  26.678  17.310   1.945
74075ION    NA+46500  10.788  39.814  11.115
74076ION    NA+46501   1.036  20.552   2.356
74077ION    NA+46502  12.930  20.723  12.415
74078ION    NA+46503  22.579  23.206   2.852
74079ION    NA+46504  36.425  10.641   0.920
74080ION    NA+46505  22.767   2.534  11.017
74081ION    NA+46506  31.788   7.637   5.310
74082ION    NA+46507   6.575  42.819   3.374
74083ION    NA+46508   8.934  41.694   4.114
74084ION    NA+46509  23.961   3.134  13.794
74085ION    NA+46510  28.702  23.082   0.309
74086ION    NA+46511   3.266  31.366   2.783
74087ION    NA+46512  13.999  42.250  13.742
74088ION    NA+46513   9.813  40.490   1.982
74089ION    NA+46514   2.109  25.900   3.588
74090ION    NA+46515   8.599   4.947   1.061
74091ION    NA+46516  11.932  38.837  11.412
74092ION    NA+46517  44.718  26.649  13.460
74093ION    NA+46518  23.059  27.174  13.423
74094ION    NA+46519  11.718  39.994   4.622
74095ION    NA+46520  19.607  42.996   0.557
74096ION    NA+46521  12.226  22.495   0.000
74097ION    NA+46522   4.358  32.755   2.017
74098ION    NA+46523  33.066  13.956   5.188
74099ION    NA+46524  27.089   5.167   2.179
74100ION    NA+46525  14.775  34.581  14.760
74101ION    NA+46526  28.649   8.069   1.745
74102ION    NA+46527  11.182  18.534   4.189
74103ION    NA+46528   3.520  36.504   1.385
74104ION    NA+46529  43.246   6.240  14.846
74105ION    NA+46530  29.372  12.393  12.554
74106ION    NA+46531  25.626  26.879  14.152
74107ION    NA+46532   9.607  43.703  11.185
74108ION    NA+46533  44.546  29.540  11.067
74109ION    NA+46534  35.356   5.681  14.120
74110ION    NA+46535  38.928   5.246   2.711
74111ION    NA+46536   5.763   5.464   2.648
74112ION    NA+46537   0.034  44.664  11.800
74113ION    NA+46538  35.387  39.698  12.177
74114ION    NA+46539  16.824  21.279  12.028
74115ION    NA+46540  30.625  13.954   5.063
74116ION    NA+46541  14.316  33.538   0.818
74117ION    NA+46542   8.835   9.633   3.940
74118ION    NA+46543  15.198  14.178   1.686
74119ION    NA+46544  29.552   2.453  13.099
74120ION    NA+46545  41.391  33.403   1.454
74121ION    NA+46546   3.668  30.224   1.156
74122ION    NA+46547  32.714  17.278   2.431
74123ION    NA+46548   4.949   9.172  10.904
74124ION    NA+46549  36.965  35.790  14.504
74125ION    NA+46550  19.279  40.141   0.760
74126ION    NA+46551  28.557  39.916  14.303
74127ION    NA+46552  42.465  26.753   2.242
74128ION    NA+46553  27.424  30.920  14.948
74129ION    NA+46554  10.073  18.437  13.789
74130ION    NA+46555  28.985  21.163   9.372
74131ION    NA+46556  41.748  12.494   0.018
74132ION    NA+46557  42.844  25.847   0.257
74133ION    NA+46558  43.398  29.242   3.733
74134ION    NA+46559  10.114  39.156   0.521
74135ION    NA+46560   4.835  32.417   2.829
74136ION    NA+46561   0.264  27.289   4.419
74137ION    NA+46562   5.991  22.562   4.471
74138ION    NA+46563   8.787   3.324  10.644
74139ION    NA+46564   6.586  22.376  11.325
74140ION    NA+46565  21.438  12.319   5.054
74141ION    NA+46566  26.180  17.579   0.322
74142ION    NA+46567   1.477  42.919   0.954
74143ION    NA+46568  34.999  37.949   2.852
74144ION    NA+46569   3.310  23.020  10.776
74145ION    NA+46570  27.183  33.081  14.228
74146ION    NA+46571  23.633  44.337  12.994
74147ION    NA+46572  17.557  22.606  12.176
74148ION    NA+46573  10.840  42.434   1.950
74149ION    NA+46574  40.571  10.245  13.928
74150ION    NA+46575  33.900  33.560  12.730
74151ION    NA+46576  20.782   4.706  11.275
74152ION    NA+46577   1.255  29.278  10.774
74153ION    NA+46578   7.370  12.230   1.927
74154ION    NA+46579  17.112   5.847   0.481
74155ION    NA+46580  24.250  17.683  14.728
74156ION    NA+46581  17.551  36.387   0.740
74157ION    NA+46582  14.657  14.666   3.231
74158ION    NA+46583  28.275   9.881   5.037
74159ION    NA+46584  26.171  34.951   0.756
74160ION    NA+46585  39.360  17.134   0.443
74161ION    NA+46586  31.049  40.935  10.965
74162ION    NA+46587   8.215   5.741  11.404
74163ION    NA+46588  40.981  43.998  12.160
74164ION    NA+46589  24.953  37.146  12.818
74165ION    NA+46590  18.055  19.416   0.572
74166ION    NA+46591  15.939   9.727   3.070
74167ION    NA+46592  23.613  21.470  12.666
74168ION    NA+46593  26.293  33.169   4.331
74169ION    NA+46594  20.305  41.044   0.870
74170ION    NA+46595  17.277  13.606  13.054
74171ION    NA+46596  22.412  31.720   2.445
74172ION    NA+46597  14.430  30.567   4.645
74173ION    NA+46598   8.635  35.772  14.542
74174ION    NA+46599  25.686  12.557  11.473
74175ION    NA+46600   8.209  10.882  12.136
74176ION    NA+46601  14.843  27.387  10.357
74177ION    NA+46602  14.551  43.431   2.300
74178ION    NA+46603  37.884   7.075  13.249
74179ION    NA+46604  20.670  23.593  12.055
74180ION    NA+46605  44.429  28.035  13.447
74181ION    NA+46606  20.794  33.634   1.315
74182ION    NA+46607  14.521  43.427  13.546
74183ION    NA+46608  33.697  30.248   2.779
74184ION    NA+46609  10.655   4.663  11.426
74185ION    NA+46610   3.430   0.050  11.130
74186ION    NA+46611  27.093  39.821   2.633
74187ION    NA+46612   6.344  19.041   0.377
74188ION    NA+46613  24.010  37.801  11.709
74189ION    NA+46614  35.175   4.887   0.484
74190ION    NA+46615   8.215  16.314  11.041
74191ION    NA+46616  23.203  22.986   2.102
74192ION    NA+46617  24.663   1.425  14.489
74193ION    NA+46618  21.232   1.802   4.767
74194ION    NA+46619   3.772  18.513   4.894
74195ION    NA+46620  17.628  35.517   1.718
74196ION    NA+46621  10.662  29.224  11.536
74197ION    NA+46622  39.470  41.852   2.396
74198ION    NA+46623  10.859   5.193   4.779
74199ION    NA+46624  34.738  17.595   0.292
74200ION    NA+46625  11.487  23.762   4.577
74201ION    NA+46626  44.316  32.837  12.430
74202ION    NA+46627  16.074  16.318   0.962
74203ION    NA+46628   8.900  39.754   1.478
74204ION    NA+46629  29.230   5.469   3.624
74205ION    NA+46630   1.736   9.445   4.131
74206ION    NA+46631  30.815  44.855  13.456
74207ION    NA+46632   3.298  33.386  11.142
74208ION    NA+46633  35.272  35.491   0.446
74209ION    NA+46634   1.777  22.999   4.233
74210ION    NA+46635   3.306  14.179   1.837
74211ION    NA+46636  16.048   6.003   5.094
74212ION    NA+46637   9.422  25.506   1.813
74213ION    NA+46638  22.105   2.713  11.746
74214ION    NA+46639  17.768  18.484   0.325
74215ION    NA+46640   2.735  27.433   2.884
74216ION    NA+46641  44.450   6.816   0.443
74217ION    NA+46642  11.246  34.731   4.681
74218ION    NA+46643   4.979  18.875  14.452
74219ION    NA+46644  43.050  40.459  12.392
74220ION    NA+46645  23.377  15.053   0.465
74221ION    NA+46646  18.343   0.085   0.049
74222ION    NA+46647  32.415  31.431  14.764
74223ION    NA+46648  19.782   6.389  12.171
74224ION    NA+46649   9.454  34.455   4.235
74225ION    NA+46650   9.414  29.638  11.178
74226ION    NA+46651  35.122  41.995   4.124
74227ION    NA+46652  10.737  19.044  11.505
74228ION    NA+46653  13.690  16.380  14.789
74229ION    NA+46654  30.677  20.128   3.170
74230ION    NA+46655  18.945  39.115  14.148
74231ION    NA+46656  21.253  14.106   0.698
74232ION    NA+46657   1.163  11.765   3.393
74233ION    NA+46658  16.262   2.188  10.882
74234ION    NA+46659  40.364  18.860  11.727
74235ION    NA+46660  28.700  15.228   3.303
74236ION    NA+46661  10.117  15.540   0.755
74237ION    NA+46662  25.074  43.297   3.784
74238ION    NA+46663  29.153  23.128  12.402
74239ION    NA+46664   9.174  13.038   1.448
74240ION    NA+46665  34.191  44.947  14.788
74241ION    NA+46666   9.675  13.753   1.187
74242ION    NA+46667   8.714  20.003  12.960
74243ION    NA+46668   0.412  43.988   1.774
74244ION    NA+46669  29.003  21.310   4.272
74245ION    NA+46670  20.236   1.483  13.747
74246ION    NA+46671  33.608  11.652  14.308
74247ION    NA+46672  23.396  36.135   4.340
74248ION    NA+46673  37.375  35.411  10.580
74249ION    NA+46674   7.833  36.544  11.955
74250ION    NA+46675  11.151  33.645  11.687
74251ION    NA+46676  36.616  39.149   4.672
74252ION    NA+46677  42.868  23.919   1.315
74253ION    NA+46678  26.481  27.117  12.005
74254ION    NA+46679  12.618  36.876  10.497
74255ION    NA+46680  30.896  39.760  12.437
74256ION    NA+46681   1.314   9.122   3.388
74257ION    NA+46682  30.156  18.853   2.909
74258ION    NA+46683  19.617  44.311   1.492
74259ION    NA+46684  27.741   2.864  13.316
74260ION    NA+46685   4.917  39.027  12.321
74261ION    NA+46686  11.395  40.475   1.268
74262ION    NA+46687  24.533   0.019  12.356
74263ION    NA+46688  18.395   4.195   2.603
74264ION    NA+46689  34.341   7.120  14.903
74265ION    NA+46690  14.516  43.943   0.231
74266ION    NA+46691  32.938  30.129   2.120
74267ION    NA+46692  39.739  37.869   2.327
74268ION    NA+46693   7.682  24.525   0.815
74269ION    NA+46694  40.972  28.880  13.961
74270ION    NA+46695  25.094  31.007  12.309
74271ION    NA+46696   3.448   9.492   3.849
74272ION    NA+46697  38.736  36.476  12.103
74273ION    NA+46698   8.337  22.522   3.669
74274ION    NA+46699  16.013  39.611   3.819
74275ION    NA+46700  38.866  33.061  11.500
74276ION    NA+46701  37.986  14.844  13.305
74277ION    NA+46702  14.786   1.655   9.697
74278ION    NA+46703  13.852  22.475  13.867
74279ION    NA+46704  30.050  24.143  10.658
74280ION    NA+46705   4.436  12.841   0.070
74281ION    NA+46706  42.164  13.690   2.128
74282ION    NA+46707   2.156   0.912   2.802
74283ION    NA+46708  21.031  33.300  13.821
74284ION    NA+46709  39.366  13.635   3.812
74285ION    NA+46710  20.101  42.362   2.722
74286ION    NA+46711  16.897  21.091   1.124
74287ION    NA+46712  13.305  43.229   1.872
74288ION    NA+46713   2.751   2.674  14.929
74289ION    NA+46714  43.091   0.388  13.911
74290ION    NA+46715   2.351   1.987  11.501
74291ION    NA+46716  25.061  34.377  11.887
74292ION    NA+46717  38.445   5.671   4.115
74293ION    NA+46718  28.164   8.160  10.286
74294ION    NA+46719   4.454  42.052   0.093
74295ION    NA+46720  27.616  23.947  11.619
74296ION    NA+46721  23.640  32.962  10.612
74297ION    NA+46722  12.888  12.788   4.157
74298ION    NA+46723  22.514  14.908   1.851
74299ION    NA+46724  23.313  19.434  13.756
74300ION    NA+46725  20.555  28.622   3.193
74301ION    NA+46726  43.080  10.213  11.026
74302ION    NA+46727  28.897  18.822   5.094
74303ION    NA+46728  33.911  10.944   0.420
74304ION    NA+46729  24.605   6.399  14.347
74305ION    NA+46730   1.458   7.902   5.025
74306ION    NA+46731   8.767  11.050   1.314
74307ION    NA+46732  43.200  21.598   0.021
74308ION    NA+46733  10.200  32.396   2.459
74309ION    NA+46734   1.827  21.056   1.385
74310ION    NA+46735   2.254  13.499   5.047
74311ION    NA+46736   7.228  30.571  12.587
74312ION    NA+46737  35.112  31.656  10.161
74313ION    NA+46738  11.667  19.213  14.275
74314ION    NA+46739  14.082   4.222  12.030
74315ION    NA+46740   8.279  26.800  13.235
74316ION    NA+46741  29.742  23.915   5.499
74317ION    NA+46742   5.462  39.362   4.643
74318ION    NA+46743  40.581  36.469   3.306
74319ION    NA+46744  37.331  12.861   3.133
74320ION    NA+46745  31.200  35.305   4.043
74321ION    NA+46746  13.360  28.864   2.201
74322ION    NA+46747  28.928  44.259   3.131
74323ION    NA+46748  25.555   1.003  12.946
74324ION    NA+46749  41.262   4.124  14.924
74325ION    NA+46750   6.983  24.920   4.128
74326ION    NA+46751  38.887   9.770   1.421
74327ION    NA+46752  36.328  29.561   1.416
74328ION    NA+46753  42.121  27.447  12.551
74329ION    NA+46754   1.012  37.095   0.691
74330ION    NA+46755  31.438  14.571   4.117
74331ION    NA+46756  28.655   4.673  13.633
74332ION    NA+46757  33.198  36.086   1.053
74333ION    NA+46758  37.028   6.280   2.104
74334ION    NA+46759  14.299  18.216   2.852
74335ION    NA+46760  42.088  31.252   1.691
74336ION    NA+46761   0.476  30.666   5.518
74337ION    NA+46762  26.391   8.154  14.398
74338ION    NA+46763  17.903  20.153   3.600
74339ION    NA+46764  16.093  20.899  10.919
74340ION    NA+46765  30.766   5.935  13.386
74341ION    NA+46766  28.129  10.349   1.000
74342ION    NA+46767  14.554  22.644  14.560
74343ION    NA+46768  15.519  24.740   0.504
74344ION    NA+46769  36.556  24.012  14.988
74345ION    NA+46770  12.965  31.368   3.281
74346ION    NA+46771  30.177  38.608   5.038
74347ION    NA+46772  37.697  33.401  10.391
74348ION    NA+46773   2.961  27.761  14.386
74349ION    NA+46774  17.414   0.091   1.162
74350ION    NA+46775  11.825  32.520   0.769
74351ION    NA+46776   9.937  41.453  13.409
74352ION    NA+46777  39.811  30.576   0.296
74353ION    NA+46778  19.947  20.290  13.683
74354ION    NA+46779  37.888  13.637  13.012
74355ION    NA+46780  26.150   7.603  13.599
74356ION    NA+46781  21.370   9.634  12.176
74357ION    NA+46782  20.437  39.928   3.361
74358ION    NA+46783  20.695  37.801   3.181
74359ION    NA+46784  32.924   8.001  13.008
74360ION    NA+46785  27.868  42.316   3.511
74361ION    NA+46786  31.322   8.334   0.982
74362ION    NA+46787   1.822  14.137  13.470
74363ION    NA+46788  13.054  38.062   0.769
74364ION    NA+46789   9.149   1.498  14.385
74365ION    NA+46790  37.295  14.214  12.450
74366ION    NA+46791  33.321  36.656   4.323
74367ION    NA+46792   3.984  31.846   3.098
74368ION    NA+46793  39.310  43.747  13.036
74369ION    NA+46794  13.849  21.974   9.373
74370ION    NA+46795  36.375  13.404   4.110
74371ION    NA+46796   2.849  14.776   0.733
74372ION    NA+46797  43.711   4.781  13.947
74373ION    NA+46798  43.025   9.761  14.341
74374ION    NA+46799  10.909  18.057  11.715
74375ION    NA+46800   1.387  30.414   3.194
74376ION    NA+46801  25.738  36.469   3.214
74377ION    NA+46802  43.965  34.620  13.512
74378ION    NA+46803  40.679  17.804   4.695
74379ION    NA+46804  20.296  22.898  14.651
74380ION    NA+46805  19.293   7.795  14.833
74381ION    NA+46806  26.111  29.242  14.536
74382ION    NA+46807   7.668  40.910   3.554
74383ION    NA+46808   7.251  31.965  14.717
74384ION    NA+46809  23.833  26.544   5.436
74385ION    NA+46810  11.307  42.456   1.176
74386ION    NA+46811  16.749  23.531  13.039
74387ION    NA+46812   8.856   7.419  13.372
74388ION    NA+46813  25.652   8.446  13.395
74389ION    NA+46814  13.728  12.458   4.589
74390ION    NA+46815  44.987   7.867  12.016
74391ION    NA+46816  10.733  23.024  14.419
74392ION    NA+46817  43.019  34.982  13.410
74393ION    NA+46818  33.828  36.027   4.430
74394ION    NA+46819  35.151   6.420   2.693
74395ION    NA+46820  38.068  39.137  11.974
74396ION    NA+46821  29.450  21.679   1.905
74397ION    NA+46822  16.248  34.255   1.137
74398ION    NA+46823  23.990  28.349  12.074
74399ION    NA+46824  43.797  16.224  10.739
74400ION    NA+46825   7.070  17.633   0.234
74401ION    NA+46826  28.722  15.403  10.680
74402ION    NA+46827   0.348   9.302   2.569
74403ION    NA+46828  38.392  42.457  12.730
74404ION    NA+46829   8.163  28.218   0.851
74405ION    NA+46830  35.682   9.317   1.387
74406ION    NA+46831  25.314  26.157  11.385
74407ION    NA+46832  25.065   7.814  14.549
74408ION    NA+46833  16.912   2.828   2.396
74409ION    NA+46834  12.577  44.504  13.409
74410ION    NA+46835  38.503  31.376   4.295
74411ION    NA+46836   1.224  34.906   4.371
74412ION    NA+46837  30.844  21.573  11.435
74413ION    NA+46838  27.033  29.762  13.141
74414ION    NA+46839  26.238  37.738   5.067
74415ION    NA+46840  16.985  37.316  11.690
74416ION    NA+46841   2.682  40.637   3.192
74417ION    NA+46842  24.047  11.910  10.831
74418ION    NA+46843   5.873  42.478  10.808
74419ION    NA+46844  41.129  42.887  14.028
74420ION    NA+46845  24.291  43.026  14.390
74421ION    NA+46846  18.570  36.086  11.426
74422ION    NA+46847  28.731   7.606  12.807
74423ION    NA+46848  11.986  32.869  14.148
74424ION    NA+46849   5.796   6.626  14.763
74425ION    NA+46850  16.980   4.979   4.075
74426ION    NA+46851  40.366  23.469  11.107
74427ION    NA+46852   7.000  20.860   2.829
74428ION    NA+46853  42.436  31.085  11.420
74429ION    NA+46854  15.617  21.752   2.427
74430ION    NA+46855  12.279  13.539  13.981
74431ION    NA+46856  32.262   5.589  13.664
74432ION    NA+46857  27.122  25.065  11.980
74433ION    NA+46858  24.893  22.308   4.175
74434ION    NA+46859   1.825  43.427  14.353
74435ION    NA+46860  38.333  16.989  10.702
74436ION    NA+46861  34.081  19.689  14.728
74437ION    NA+46862  13.003  21.269  13.878
74438ION    NA+46863  10.852  27.378   2.720
74439ION    NA+46864  11.804  31.253  11.112
74440ION    NA+46865  40.665  33.492   4.655
74441ION    NA+46866   6.394   9.842  14.009
74442ION    NA+46867  29.497  29.478   0.939
74443ION    NA+46868  16.302  37.236  10.964
74444ION    NA+46869  44.387   4.420   3.272
74445ION    NA+46870  11.674  22.427   4.503
74446ION    NA+46871  20.044  10.340   1.758
74447ION    NA+46872  18.488  33.216   2.666
74448ION    NA+46873   2.389  36.318   2.860
74449ION    NA+46874  31.458  23.478  12.213
74450ION    NA+46875  42.441  33.033  11.783
74451ION    NA+46876   2.232  24.530  10.725
74452ION    NA+46877  18.493  39.605  13.522
74453ION    NA+46878   1.748  28.662   1.705
74454ION    NA+46879  40.932  13.501  14.463
74455ION    NA+46880  23.779  31.746  10.929
74456ION    NA+46881  18.552  37.471   2.821
74457ION    NA+46882  16.737  13.397   2.467
74458ION    NA+46883  39.935  11.439   1.809
74459ION    NA+46884  33.990  19.542  13.734
74460ION    NA+46885  43.760   7.685  12.939
74461ION    NA+46886   3.118  16.173   1.447
74462ION    NA+46887   3.954  34.908   3.735
74463ION    NA+46888  14.759  19.761   4.604
74464ION    NA+46889  43.724  30.766  14.386
74465ION    NA+46890  27.142  33.167   0.986
74466ION    NA+46891  41.499   8.415  11.741
74467ION    NA+46892  31.905  19.777   1.062
74468ION    NA+46893  10.534  17.572  14.963
74469ION    NA+46894   3.051  24.301   1.334
74470ION    NA+46895  40.309  28.218   2.840
74471ION    NA+46896  20.555   9.895  13.173
74472ION    NA+46897  40.930  31.081   3.274
74473ION    NA+46898  22.028   5.172   3.291
74474ION    NA+46899  19.618  11.526  11.726
74475ION    NA+46900  37.986  42.331  10.711
74476ION    NA+46901  13.165  34.051   4.418
74477ION    NA+46902  24.289  11.419  14.553
74478ION    NA+46903  23.462  36.632  13.708
74479ION    NA+46904   6.740  40.325  14.306
74480ION    NA+46905  33.771  17.504   0.533
74481ION    NA+46906  43.295  44.334   4.301
74482ION    NA+46907   7.614  35.191   1.856
74483ION    NA+46908  36.744  19.538  14.293
74484ION    NA+46909  22.485  23.355   1.880
74485ION    NA+46910  36.102  13.380  12.471
74486ION    NA+46911  30.500  26.911   0.853
74487ION    NA+46912  25.083  41.061  14.031
74488ION    NA+46913   0.061  39.774   3.596
74489ION    NA+46914  12.724   1.891   2.668
74490ION    NA+46915  19.279   8.073  13.772
74491ION    NA+46916  16.356  26.719  11.867
74492ION    NA+46917   5.210  40.282  11.953
74493ION    NA+46918  35.956   1.583  14.670
74494ION    NA+46919  40.741  27.163   4.298
74495ION    NA+46920  32.616  34.388  12.966
74496ION    NA+46921  17.182   1.748   1.937
74497ION    NA+46922  11.629  41.565  12.902
74498ION    NA+46923  15.482   6.617   2.154
74499ION    NA+46924  10.676  37.294  12.024
74500ION    NA+46925  22.144  21.987   4.243
74501ION    NA+46926  20.796   1.154   1.435
74502ION    NA+46927  10.472  24.568   1.201
74503ION    NA+46928  15.735   1.686  13.428
74504ION    NA+46929  14.547   2.138   0.028
74505ION    NA+46930  13.556   7.291  12.393
74506ION    NA+46931   9.223  40.828  14.568
74507ION    NA+46932  33.109   3.454   0.904
74508ION    NA+46933  38.702  18.872   1.068
74509ION    NA+46934  28.869  32.466   0.853
74510ION    NA+46935   5.876  11.369   3.912
74511ION    NA+46936  40.304  23.731  13.830
74512ION    NA+46937  44.095   6.374  14.619
74513ION    NA+46938  29.528  19.155   3.476
74514ION    NA+46939  24.588  30.923  11.595
74515ION    NA+46940  29.744  40.255  11.136
74516ION    NA+46941  34.593  37.031  11.726
74517ION    NA+46942  35.569  29.073  14.506
74518ION    NA+46943   9.925  15.224   2.764
74519ION    NA+46944  20.958  24.455   3.636
74520ION    NA+46945  38.513  40.302   4.398
74521ION    NA+46946  11.741  20.511   3.244
74522ION    NA+46947   9.694   1.699   4.901
74523ION    NA+46948  35.329  19.000  12.358
74524ION    NA+46949  22.034  16.959  13.415
74525ION    NA+46950  26.368   7.389   1.268
74526ION    NA+46951  35.869  23.439  11.902
74527ION    NA+46952  24.921  36.853   4.170
74528ION    NA+46953  19.904  15.153   0.394
74529ION    NA+46954  25.237  29.720   5.648
74530ION    NA+46955  12.848  40.408   3.706
74531ION    NA+46956  11.353  11.545  11.509
74532ION    NA+46957  26.946  20.609  11.814
74533ION    NA+46958   1.451  41.902  14.051
74534ION    NA+46959  16.886  32.399  13.163
74535ION    NA+46960  41.890  21.796  11.677
74536ION    NA+46961  24.921  32.598   9.627
74537ION    NA+46962  37.094  14.288  11.112
74538ION    NA+46963  17.966  14.552   1.847
74539ION    NA+46964  35.070  38.974  12.613
74540ION    NA+46965  25.921   9.805   0.544
74541ION    NA+46966   2.139  34.345   0.265
74542ION    CL-46967   7.028  22.423  11.473
74543ION    CL-46968  15.662  44.387   1.662
74544ION    CL-46969  39.640  28.641  13.277
74545ION    CL-46970   3.830  16.980   1.348
74546ION    CL-46971  31.582  18.083  13.543
74547ION    CL-46972  23.525  13.852   2.594
74548ION    CL-46973  44.900   7.432  11.957
74549ION    CL-46974  24.167  19.225   0.905
74550ION    CL-46975  28.681  20.994  14.433
74551ION    CL-46976   4.698  32.267  11.876
74552ION    CL-46977  31.228  38.063  13.843
74553ION    CL-46978  29.476   7.248   9.738
74554ION    CL-46979  12.418  41.926   2.899
74555ION    CL-46980  10.261   0.537  11.904
74556ION    CL-46981  27.965  34.443   2.795
74557ION    CL-46982  31.417  17.301   5.080
74558ION    CL-46983  10.523  15.116  11.902
74559ION    CL-46984  22.676  10.906   0.210
74560ION    CL-46985  28.978  33.102   3.214
74561ION    CL-46986  18.096   8.221  13.585
74562ION    CL-46987  41.180  20.524  14.185
74563ION    CL-46988  31.367  36.160  12.818
74564ION    CL-46989  24.651  11.905  11.918
74565ION    CL-46990  29.135  19.388   3.454
74566ION    CL-46991  44.951  36.656   4.925
74567ION    CL-46992  31.538  34.633   3.305
74568ION    CL-46993  21.374   5.986   3.910
74569ION    CL-46994   8.727  10.707   1.030
74570ION    CL-46995  18.084  32.073   2.361
74571ION    CL-46996  10.929  36.511   3.729
74572ION    CL-46997  21.705   5.739  10.656
74573ION    CL-46998   2.925  31.180   2.543
74574ION    CL-46999   8.348  35.429   3.786
74575ION    CL-47000  20.349  23.242  14.355
74576ION    CL-47001  30.037  16.464   2.741
74577ION    CL-47002   5.357   1.442   3.746
74578ION    CL-47003  27.574   4.138  14.972
74579ION    CL-47004  23.499  17.230   1.049
74580ION    CL-47005  30.552  32.250   0.389
74581ION    CL-47006  10.787  36.931  13.353
74582ION    CL-47007  28.789  32.106   0.583
74583ION    CL-47008  41.061  29.953  13.267
74584ION    CL-47009   8.710  40.059   0.096
74585ION    CL-47010  36.846  17.739  14.581
74586ION    CL-47011  27.910   2.506  12.080
74587ION    CL-47012  10.839  22.235  12.446
74588ION    CL-47013  35.934  39.306   0.746
74589ION    CL-47014   1.516  15.053  12.489
74590ION    CL-47015  32.787  42.552  11.731
74591ION    CL-47016  14.754  27.419  10.798
74592ION    CL-47017  29.193  37.392  13.915
74593ION    CL-47018   4.610  38.584   9.818
74594ION    CL-47019   0.190   5.708  12.902
74595ION    CL-47020   5.652  27.620   2.617
74596ION    CL-47021  21.807  38.999   2.759
74597ION    CL-47022  36.992  15.801   3.603
74598ION    CL-47023   7.410  17.486  14.971
74599ION    CL-47024   9.698   2.881  13.484
74600ION    CL-47025   4.477   8.248   3.446
74601ION    CL-47026  40.772  32.498  14.265
74602ION    CL-47027   1.434  41.027  10.715
74603ION    CL-47028  43.817  33.562   4.381
74604ION    CL-47029  13.279  26.124  14.351
74605ION    CL-47030  44.547  17.490   4.089
74606ION    CL-47031  27.060  35.275  14.891
74607ION    CL-47032   8.873  11.309  13.506
74608ION    CL-47033  28.353  37.284  12.557
74609ION    CL-47034  12.689  22.778   3.471
74610ION    CL-47035  32.534   9.874   3.227
74611ION    CL-47036  38.044   2.396   0.709
74612ION    CL-47037  11.016  31.857   3.876
74613ION    CL-47038   2.211  14.976  14.498
74614ION    CL-47039   1.943  38.197   0.546
74615ION    CL-47040   1.477  44.460  13.287
74616ION    CL-47041  42.404  27.118  12.442
74617ION    CL-47042  40.469   9.148  11.527
74618ION    CL-47043  18.907  38.038  14.935
74619ION    CL-47044   1.046   7.451   2.008
74620ION    CL-47045  32.350  23.465  11.118
74621ION    CL-47046  26.739  15.249  14.472
74622ION    CL-47047  42.280   6.600   3.245
74623ION    CL-47048  38.639  11.076   1.223
74624ION    CL-47049  20.360  22.693   0.059
74625ION    CL-47050  15.266   6.439   1.806
74626ION    CL-47051   8.730  11.778  10.635
74627ION    CL-47052  36.442  36.448   2.774
74628ION    CL-47053   8.658  23.863   9.938
74629ION    CL-47054   4.859  41.137  12.949
74630ION    CL-47055  26.886  11.829   2.282
74631ION    CL-47056  16.388  13.549   2.701
74632ION    CL-47057  37.592  34.089  13.867
74633ION    CL-47058   4.735   4.121   3.252
74634ION    CL-47059  12.619  41.313  11.919
74635ION    CL-47060  28.474  19.939   2.171
74636ION    CL-47061   4.258   6.697   4.115
74637ION    CL-47062  29.990   4.547   2.877
74638ION    CL-47063  25.563  10.979  10.684
74639ION    CL-47064  18.539  13.184  13.715
74640ION    CL-47065  34.452  12.765  12.627
74641ION    CL-47066  21.756  10.655   3.176
74642ION    CL-47067  14.631  14.182   0.827
74643ION    CL-47068  34.643  24.923  12.547
74644ION    CL-47069   9.114   0.308   3.815
74645ION    CL-47070   0.063  44.646   3.033
74646ION    CL-47071  21.543  37.318  12.861
74647ION    CL-47072   8.902  28.213  11.888
74648ION    CL-47073  38.275   4.490  14.795
74649ION    CL-47074  31.877  39.449   3.361
74650ION    CL-47075  29.894  18.954   3.269
74651ION    CL-47076  10.660  24.032  13.482
74652ION    CL-47077  24.207  33.034   1.124
74653ION    CL-47078   7.453  38.286  14.984
74654ION    CL-47079  28.019   0.458  11.069
74655ION    CL-47080  38.845  17.964  13.413
74656ION    CL-47081  28.972   3.939  11.159
74657ION    CL-47082  43.384  15.240  11.569
74658ION    CL-47083  34.321  29.159   2.264
74659ION    CL-47084   8.771  34.546   1.919
74660ION    CL-47085   3.529  16.058   1.591
74661ION    CL-47086  37.271  26.507   3.099
74662ION    CL-47087  13.028  41.892  14.965
74663ION    CL-47088  22.276  33.529   3.214
74664ION    CL-47089  35.215  13.019   1.670
74665ION    CL-47090  13.581  38.905  13.797
74666ION    CL-47091  28.224  26.729   2.879
74667ION    CL-47092  43.300   7.683   4.971
74668ION    CL-47093  24.008  12.184  11.185
74669ION    CL-47094  32.510   8.166  12.998
74670ION    CL-47095   6.853   1.159  13.080
74671ION    CL-47096  32.086  22.009   1.927
74672ION    CL-47097  29.227  31.688   4.424
74673ION    CL-47098  29.055  25.507  11.235
74674ION    CL-47099   0.216  40.195   3.615
74675ION    CL-47100  40.026  15.258   2.411
74676ION    CL-47101   7.834  21.559   2.259
74677ION    CL-47102  27.455  28.017  10.690
74678ION    CL-47103   3.659  15.426  14.065
74679ION    CL-47104   7.735   2.068   2.663
74680ION    CL-47105  44.417  40.448   2.622
74681ION    CL-47106  21.561   0.228  13.978
74682ION    CL-47107  12.787  19.756  13.814
74683ION    CL-47108  31.385   7.434  13.361
74684ION    CL-47109  24.604  42.585  13.261
74685ION    CL-47110   8.541  17.162  13.341
74686ION    CL-47111  26.655  25.477   4.094
74687ION    CL-47112  40.680  29.873   0.017
74688ION    CL-47113  17.453  14.399   0.044
74689ION    CL-47114   8.919  37.204  12.543
74690ION    CL-47115   4.655  41.685  11.587
74691ION    CL-47116   1.295  43.234  11.153
74692ION    CL-47117  24.961  14.099   3.147
74693ION    CL-47118  37.164   3.292   3.218
74694ION    CL-47119   3.422   8.342   3.678
74695ION    CL-47120  31.914  40.708   1.548
74696ION    CL-47121  33.995  24.615   2.484
74697ION    CL-47122  12.860   5.953   1.294
74698ION    CL-47123   8.486  20.085  10.362
74699ION    CL-47124  30.945   9.781  10.672
74700ION    CL-47125  21.049  43.511   3.086
74701ION    CL-47126   6.006  43.551  12.915
74702ION    CL-47127  44.429   4.876   4.669
74703ION    CL-47128  27.387  21.897   5.435
74704ION    CL-47129  28.650  39.734   0.776
74705ION    CL-47130  17.133  23.907  12.061
74706ION    CL-47131   6.522   4.230  11.335
74707ION    CL-47132  39.417   2.610   3.283
74708ION    CL-47133  10.736  43.538   0.919
74709ION    CL-47134  28.828  14.967  10.638
74710ION    CL-47135   7.372  15.274  11.267
74711ION    CL-47136   7.771  22.897  11.296
74712ION    CL-47137   3.678   6.609   0.767
74713ION    CL-47138  17.292  32.635  13.287
74714ION    CL-47139  36.830  38.369  11.906
74715ION    CL-47140  13.675  28.759   2.501
74716ION    CL-47141  21.135  28.139  13.737
74717ION    CL-47142  11.695  11.971   1.740
74718ION    CL-47143   2.799  14.821   4.467
74719ION    CL-47144  39.270   3.279   0.582
74720ION    CL-47145  27.717  23.705  13.315
74721ION    CL-47146  13.484  31.564   1.773
74722ION    CL-47147  16.355  24.683   1.731
74723ION    CL-47148  23.062  30.008  11.490
74724ION    CL-47149  19.457  11.854  11.460
74725ION    CL-47150  18.257  37.532  14.264
74726ION    CL-47151  17.680   0.709   3.506
74727ION    CL-47152   8.913  35.925  13.005
74728ION    CL-47153  22.729  13.549   3.118
74729ION    CL-47154  10.356  11.666   3.219
74730ION    CL-47155  28.460  15.143   2.926
74731ION    CL-47156  30.712  11.419   4.941
74732ION    CL-47157   9.673  14.257   4.947
74733ION    CL-47158  43.503  17.414   2.788
74734ION    CL-47159  11.049  44.788  13.833
74735ION    CL-47160  15.552  29.155  12.008
74736ION    CL-47161  16.659  32.240  12.788
74737ION    CL-47162  24.093   9.638  12.571
74738ION    CL-47163   3.410   5.659  10.218
74739ION    CL-47164   7.947  42.845  11.565
74740ION    CL-47165  43.885   8.952   1.356
74741ION    CL-47166  18.418  31.975   3.299
74742ION    CL-47167  44.099  39.936   0.010
74743ION    CL-47168   7.934  23.724   4.298
74744ION    CL-47169  43.333  12.197  12.294
74745ION    CL-47170  21.262  26.225   1.270
74746ION    CL-47171  39.897  30.470   2.728
74747ION    CL-47172  30.944  35.323  11.550
74748ION    CL-47173  29.765  42.311   0.578
74749ION    CL-47174  11.812   5.728  13.454
74750ION    CL-47175   3.881  41.832  13.222
74751ION    CL-47176  10.761  43.938  14.486
74752ION    CL-47177  11.044  18.237   1.486
74753ION    CL-47178  39.300  25.195  10.670
74754ION    CL-47179  33.547  38.647   0.621
74755ION    CL-47180   3.541  29.920   0.853
74756ION    CL-47181  19.829  36.514   0.399
74757ION    CL-47182  35.619   9.771  13.511
74758ION    CL-47183  44.066  16.625  13.390
74759ION    CL-47184  17.022  25.638  13.334
74760ION    CL-47185  29.192  33.438  12.970
74761ION    CL-47186  29.721   8.679  11.036
74762ION    CL-47187  33.192  20.201   2.890
74763ION    CL-47188  40.979  40.005  10.705
74764ION    CL-47189  31.977  32.859  14.395
74765ION    CL-47190  16.006  12.346   3.088
74766ION    CL-47191  31.784  36.339  14.984
74767ION    CL-47192  40.881  19.018   3.566
74768ION    CL-47193   1.388   0.477  10.516
74769ION    CL-47194  22.796  27.056   4.020
74770ION    CL-47195   6.885  27.530  10.710
74771ION    CL-47196  40.057  14.762   4.215
74772ION    CL-47197  40.130   4.533   1.437
74773ION    CL-47198  35.585  23.932   5.141
74774ION    CL-47199  34.794  43.977   4.117
74775ION    CL-47200  23.150  30.605  12.287
74776ION    CL-47201  20.893   5.728  12.515
74777ION    CL-47202  10.196   8.302  13.488
74778ION    CL-47203  26.772  13.725   4.120
74779ION    CL-47204  13.258  43.354   3.214
74780ION    CL-47205   1.715  25.539  12.381
74781ION    CL-47206  36.011  21.175  11.804
74782ION    CL-47207  29.925  36.585   3.283
74783ION    CL-47208  18.838  22.766   2.256
74784ION    CL-47209  21.076   7.680  12.234
74785ION    CL-47210  35.598   6.979   1.402
74786ION    CL-47211  20.717  25.023  12.978
74787ION    CL-47212  35.468  13.619   2.528
74788ION    CL-47213  39.887   8.624   3.260
74789ION    CL-47214   6.338  36.944   1.231
74790ION    CL-47215  40.504  25.086   5.037
74791ION    CL-47216   3.465   1.280   4.984
74792ION    CL-47217  10.597  41.884  14.877
74793ION    CL-47218  21.164   6.511   1.413
74794ION    CL-47219  17.607  14.263  11.737
74795ION    CL-47220  29.930  36.834  14.601
74796ION    CL-47221  42.126  14.140   2.171
74797ION    CL-47222  15.882  25.979   0.101
74798ION    CL-47223  42.184  27.106  14.086
74799ION    CL-47224  31.005  24.082   1.277
74800ION    CL-47225  22.117  34.600  13.520
74801ION    CL-47226  44.971  26.199  10.676
74802ION    CL-47227  11.525  24.194   4.683
74803ION    CL-47228  34.569  43.256   2.648
74804ION    CL-47229   8.528  41.740  12.158
74805ION    CL-47230   9.643  29.652  11.560
74806ION    CL-47231  35.820   5.846   1.858
74807ION    CL-47232   1.972  24.154   1.857
74808ION    CL-47233  15.147  24.466   0.571
74809ION    CL-47234  38.334  26.537  10.504
74810ION    CL-47235   6.247  29.978  11.858
74811ION    CL-47236  37.664  23.285   1.861
74812ION    CL-47237  42.600  15.636  10.974
74813ION    CL-47238  24.769  31.574   4.578
74814ION    CL-47239  19.169  16.714   3.622
74815ION    CL-47240  34.117  28.190   1.169
74816ION    CL-47241  14.332  13.733  12.094
74817ION    CL-47242   9.065   4.972   4.227
74818ION    CL-47243  22.942   8.027  11.091
74819ION    CL-47244  15.838  24.614  14.936
74820ION    CL-47245   5.285  23.474   3.830
74821ION    CL-47246  39.473  39.056  13.847
74822ION    CL-47247  10.885  27.362   3.167
74823ION    CL-47248   7.144   5.254  14.876
74824ION    CL-47249  26.534  38.873  14.691
74825ION    CL-47250  16.372   0.520   1.237
74826ION    CL-47251  31.472  27.030  12.455
74827ION    CL-47252   2.901  44.031   1.725
74828ION    CL-47253  28.642   0.692  10.321
74829ION    CL-47254  33.435  36.267   4.556
74830ION    CL-47255  26.527   4.843   4.789
74831ION    CL-47256  26.530  20.656  12.935
74832ION    CL-47257  27.588  12.559  12.068
74833ION    CL-47258  16.863   5.570   2.595
74834ION    CL-47259   4.988  33.370  11.958
74835ION    CL-47260  23.737  10.578  12.367
74836ION    CL-47261  32.972  14.332  11.856
74837ION    CL-47262  31.090  21.145   3.478
74838ION    CL-47263  42.996  39.349   3.352
74839ION    CL-47264   0.913   4.464  11.641
74840ION    CL-47265   0.205   8.934   2.784
74841ION    CL-47266   9.412  13.424   1.379
74842ION    CL-47267   2.958  18.136   2.167
74843ION    CL-47268  10.374  22.286  13.330
74844ION    CL-47269  26.915  33.085  10.354
74845ION    CL-47270  40.803  30.351  14.147
74846ION    CL-47271  40.553  41.913   0.257
74847ION    CL-47272  39.996   2.125   4.125
74848ION    CL-47273  14.894  21.978  12.502
74849ION    CL-47274  10.642   0.386   0.197
74850ION    CL-47275  38.042  10.314  13.995
74851ION    CL-47276  42.833   6.619  13.092
74852ION    CL-47277  17.718   1.087  11.949
74853ION    CL-47278  32.804  28.740  11.484
74854ION    CL-47279  42.482  31.413   1.556
74855ION    CL-47280  23.731   5.854   4.245
74856ION    CL-47281  44.270  40.935   1.383
74857ION    CL-47282  17.505  11.228  11.948
74858ION    CL-47283  39.426  14.803  13.036
74859ION    CL-47284   1.638  22.250   0.998
74860ION    CL-47285   0.481  12.872   2.317
74861ION    CL-47286  20.111   7.341   1.877
74862ION    CL-47287  43.669   6.236  14.681
74863ION    CL-47288  42.623  37.412   3.669
74864ION    CL-47289  34.460   4.335  14.016
74865ION    CL-47290  28.649  23.578   4.345
74866ION    CL-47291  21.143  23.568  14.868
74867ION    CL-47292  36.110  23.242  10.679
74868ION    CL-47293  35.919  11.950  13.003
74869ION    CL-47294  20.554  42.747   1.379
74870ION    CL-47295  19.513  22.471   3.494
74871ION    CL-47296  33.145  14.417   5.023
74872ION    CL-47297  37.841  26.723   2.557
74873ION    CL-47298  34.724   9.647   3.850
74874ION    CL-47299   6.825  18.517  11.289
74875ION    CL-47300  37.386  43.876  14.377
74876ION    CL-47301  25.441  26.465  14.206
74877ION    CL-47302  44.718  39.776  13.327
74878ION    CL-47303  40.688  14.759  13.185
74879ION    CL-47304  34.868  11.251  11.348
74880ION    CL-47305  20.893  38.601  13.960
74881ION    CL-47306  33.602  33.674  12.421
74882ION    CL-47307  34.628   8.371  12.644
74883ION    CL-47308  43.902   4.779   9.844
74884ION    CL-47309   0.376  35.036  12.381
74885ION    CL-47310  40.573  13.136  13.330
74886ION    CL-47311  13.890  44.848  10.746
74887ION    CL-47312  43.413  30.461  14.288
74888ION    CL-47313  15.090  35.638  12.727
74889ION    CL-47314  30.537  21.414  11.717
74890ION    CL-47315  40.860   0.080  13.414
74891ION    CL-47316  25.675  42.599  11.145
74892ION    CL-47317  33.179   0.054   0.344
74893ION    CL-47318  29.099  32.843   0.965
74894ION    CL-47319  33.116  41.453  12.528
74895ION    CL-47320  34.409  22.094  12.902
74896ION    CL-47321  16.707  34.033   2.693
74897ION    CL-47322  11.297  23.470  10.409
74898ION    CL-47323  32.940  42.456  10.520
74899ION    CL-47324  28.971  44.130   1.822
74900ION    CL-47325  12.866   5.300   0.190
74901ION    CL-47326  11.807  42.505  13.914
74902ION    CL-47327   3.144  12.779  14.513
74903ION    CL-47328  17.488  39.889  14.941
74904ION    CL-47329  33.530   6.787  13.899
74905ION    CL-47330  15.553  30.796  10.386
74906ION    CL-47331  20.389  20.336  13.793
74907ION    CL-47332  12.077  11.156   3.336
74908ION    CL-47333   7.292   6.631   0.261
74909ION    CL-47334  17.672   9.089  12.803
74910ION    CL-47335  17.382  25.673   3.247
74911ION    CL-47336  23.241  33.926  14.804
74912ION    CL-47337  24.394  13.137   0.831
74913ION    CL-47338  28.064  39.866   1.660
74914ION    CL-47339  25.726  12.353  11.077
74915ION    CL-47340  10.784   2.621   0.783
74916ION    CL-47341  31.968  35.629  13.976
74917ION    CL-47342  11.664  41.720   2.275
74918ION    CL-47343  31.301  22.275   4.642
74919ION    CL-47344  14.346   0.697   2.064
74920ION    CL-47345  41.322  19.037   2.619
74921ION    CL-47346   4.939  14.365   3.420
74922ION    CL-47347  16.099  14.722  14.855
74923ION    CL-47348   4.218  41.668   0.122
74924ION    CL-47349  35.525  25.461   4.778
74925ION    CL-47350  22.748  11.331  13.069
74926ION    CL-47351  30.325  10.055   0.363
74927ION    CL-47352  16.160   4.661  10.659
74928ION    CL-47353  13.261  39.774   0.256
74929ION    CL-47354  16.903   6.213   0.302
74930ION    CL-47355  15.020  12.843   2.867
74931ION    CL-47356   6.711  23.298  14.846
74932ION    CL-47357   6.777  25.443   0.960
74933ION    CL-47358  41.640   9.078  12.831
74934ION    CL-47359  20.520   0.160   5.009
74935ION    CL-47360   9.616  33.896  13.385
74936ION    CL-47361  12.606  38.310   1.923
74937ION    CL-47362  40.904  19.381  12.904
74938ION    CL-47363  13.146  35.824  13.236
74939ION    CL-47364   3.953  32.136   0.466
74940ION    CL-47365  37.667  29.626   1.696
74941ION    CL-47366  38.337  30.455  12.959
74942ION    CL-47367   9.757  44.134  11.190
74943ION    CL-47368   0.451  22.555  11.619
74944ION    CL-47369  31.115  39.134  12.977
74945ION    CL-47370  28.815  31.752   3.515
74946ION    CL-47371  34.617  33.462  14.994
74947ION    CL-47372  12.747  28.024   1.169
74948ION    CL-47373  10.413  20.159   5.043
74949ION    CL-47374  17.689  37.542   1.188
74950ION    CL-47375  43.720   5.931   2.577
74951ION    CL-47376  18.405  15.080   0.846
74952ION    CL-47377  21.625  15.294  13.818
74953ION    CL-47378  23.527  15.510  14.033
74954ION    CL-47379  14.640   1.707  14.913
74955ION    CL-47380  39.712  21.302   3.335
74956ION    CL-47381  14.734   7.798   5.169
74957ION    CL-47382  25.786   0.491   3.633
74958ION    CL-47383   8.244  12.392  11.944
74959ION    CL-47384   1.175  19.871  12.844
74960ION    CL-47385  14.575  44.159   3.704
74961ION    CL-47386   8.609  27.096  13.188
74962ION    CL-47387   3.639   0.454   1.240
74963ION    CL-47388   8.682  42.844   0.420
74964ION    CL-47389  16.248   3.545  11.196
74965ION    CL-47390  28.887  24.306   9.574
74966ION    CL-47391  20.520  24.865   2.775
74967ION    CL-47392  42.004   2.698  14.728
74968ION    CL-47393   5.726  34.294   5.009
74969ION    CL-47394  39.085  10.259   0.364
74970ION    CL-47395  10.179  44.202   3.919
74971ION    CL-47396  28.997  22.775   0.171
74972ION    CL-47397  17.136  39.128   9.976
74973ION    CL-47398  14.037   5.210  11.109
74974ION    CL-47399  12.884  34.135   4.793
74975ION    CL-47400   4.103  19.904   2.011
74976ION    CL-47401  23.639  22.176  10.638
74977ION    CL-47402  30.941  40.564  13.600
74978ION    CL-47403  18.664  41.273  12.587
74979ION    CL-47404  28.488  34.030  10.800
74980ION    CL-47405  22.580  38.131   1.496
74981ION    CL-47406   0.259   7.839   3.988
74982ION    CL-47407  14.416  30.465   0.088
74983ION    CL-47408  23.461  27.254   3.299
74984ION    CL-47409  13.014   1.040  12.280
74985ION    CL-47410   3.526  32.137   4.960
74986ION    CL-47411  38.004  24.043   2.756
74987ION    CL-47412  43.666   3.810  11.740
74988ION    CL-47413  40.577  11.753  12.972
74989ION    CL-47414  15.670  17.946   3.513
74990ION    CL-47415   3.329  17.718  13.077
74991ION    CL-47416  44.993  42.757   1.426
74992ION    CL-47417  24.794  31.100  11.972
74993ION    CL-47418  40.070   3.926   0.635
74994ION    CL-47419  35.404  16.178  12.481
74995ION    CL-47420  22.603  32.387  14.135
74996ION    CL-47421  23.406  21.451  13.860
74997ION    CL-47422  35.395  44.690  11.703
74998ION    CL-47423  21.819   7.689   0.962
74999ION    CL-47424  23.631  24.234  13.467
75000ION    CL-47425   0.672  20.066  14.805
75001ION    CL-47426  26.959   4.867   1.862
75002ION    CL-47427  20.175  11.637   5.207
75003ION    CL-47428  17.760  17.842   3.689
75004ION    CL-47429  11.589  37.625   0.507
75005ION    CL-47430  11.963  18.876  12.610
75006ION    CL-47431  41.583  40.327  13.333
75007ION    CL-47432  25.204  31.253   1.328
75008ION    CL-47433  22.688  12.899  11.111
75009ION    CL-47434   8.380  31.355   3.867
75010ION    CL-47435   7.895  33.798   1.496
75011ION    CL-47436  28.032   1.116   4.760
75012ION    CL-47437  16.552  17.592  12.096
75013ION    CL-47438  23.817   0.703   3.669
75014ION    CL-47439  26.346  33.153  12.239
75015ION    CL-47440  15.758  42.993   0.439
75016ION    CL-47441   2.956  15.419  10.846
75017ION    CL-47442  24.768   0.801  11.694
75018ION    CL-47443  29.997  39.135  11.177
75019ION    CL-47444  14.517   4.610  14.332
75020ION    CL-47445   6.451  22.557   4.487
75021ION    CL-47446  32.063  36.138   3.284
75022ION    CL-47447  37.577  44.048   1.386
75023ION    CL-47448  43.464  20.628   4.637
75024ION    CL-47449  34.914  24.031   0.249
75025ION    CL-47450   5.146  26.312  11.503
75026ION    CL-47451  41.349  37.546  13.512
75027ION    CL-47452  12.476  35.029   4.973
75028ION    CL-47453   7.095  37.328   3.034
75029ION    CL-47454  35.971  29.646   3.059
75030ION    CL-47455  15.678  30.000   4.879
75031ION    CL-47456  38.489  12.879  12.577
75032ION    CL-47457  21.566  24.056   2.615
75033ION    CL-47458   7.746   4.117   3.763
75034ION    CL-47459  33.509  28.301  11.841
75035ION    CL-47460  12.107   3.016   2.224
75036ION    CL-47461  34.835  16.098   3.272
75037ION    CL-47462  17.092  15.094   4.942
75038ION    CL-47463  40.952  24.284   4.762
75039ION    CL-47464  16.698  11.406   3.137
75040ION    CL-47465  33.780  37.487   5.118
75041ION    CL-47466   1.879   3.050  12.373
75042ION    CL-47467  44.669  24.922  14.981
75043ION    CL-47468  20.403  14.172   4.577
75044ION    CL-47469  33.173  36.001  12.007
75045ION    CL-47470   2.421   2.017   4.162
75046ION    CL-47471  21.372  27.338  12.607
75047ION    CL-47472  10.611  10.242   1.160
75048ION    CL-47473  28.445   7.845   2.093
75049ION    CL-47474  43.166   7.005   4.435
75050ION    CL-47475  22.467   1.933   1.282
75051ION    CL-47476  31.320  36.141   2.615
75052ION    CL-47477  37.650   7.303  12.945
75053ION    CL-47478  40.871  17.156   1.618
75054ION    CL-47479  24.756  43.261   1.860
75055ION    CL-47480  42.125  27.760  10.308
75056ION    CL-47481  43.425  35.343  11.973
75057ION    CL-47482  29.984  23.543   2.254
75058ION    CL-47483  26.302  24.547  10.882
75059ION    CL-47484  13.334  16.307   1.359
75060ION    CL-47485  25.826  27.258  14.299
75061ION    CL-47486  17.239  35.623  11.993
75062ION    CL-47487   7.750   0.171   2.830
75063ION    CL-47488  22.844  32.784   2.696
75064ION    CL-47489  35.953  37.398   3.384
75065ION    CL-47490  30.070  31.630  14.494
75066ION    CL-47491  32.557  37.867   1.921
75067ION    CL-47492  37.947  37.936  10.695
75068ION    CL-47493  22.584  19.117   4.587
75069ION    CL-47494  15.637   8.346  13.960
75070ION    CL-47495   5.457  25.470   3.776
75071ION    CL-47496  39.965  12.086  10.941
75072ION    CL-47497  21.093   9.284  12.084
75073ION    CL-47498  23.326  31.733  10.911
75074ION    CL-47499  23.209   4.573  10.382
75075ION    CL-47500  22.167  12.170  12.547
75076ION    CL-47501  12.681  33.101  12.328
75077ION    CL-47502  21.243  22.925   5.043
75078ION    CL-47503  30.124   2.985   4.345
75079ION    CL-47504  41.991  39.188   3.841
75080ION    CL-47505  39.512   4.121  13.935
75081ION    CL-47506  12.741  15.612  14.960
75082ION    CL-47507  19.275  12.688  12.562
75083ION    CL-47508  30.693  42.460   0.236
75084ION    CL-47509  36.046  43.130  11.520
75085ION    CL-47510   8.997  22.637  12.295
75086ION    CL-47511  37.103  19.454  11.648
75087ION    CL-47512   9.940  18.492   4.845
75088ION    CL-47513  43.338  20.469   0.479
75089ION    CL-47514  24.297   8.371  13.338
75090ION    CL-47515  17.546  30.024   2.765
75091ION    CL-47516  16.622  27.077  11.838
75092ION    CL-47517  11.094  37.447  11.979
75093ION    CL-47518   5.428  32.360  11.111
75094ION    CL-47519   4.586  18.154   3.465
75095ION    CL-47520  27.389  42.019  11.466
75096ION    CL-47521  24.213  37.990  12.059
75097ION    CL-47522  27.383  43.222  14.372
75098ION    CL-47523  24.616   7.864   4.494
75099ION    CL-47524  12.133  30.440   1.366
75100ION    CL-47525   5.253   4.470  13.802
75101ION    CL-47526  23.798  33.212   2.781
75102ION    CL-47527  33.556  42.645  12.188
75103ION    CL-47528  31.461  10.420   1.836
75104ION    CL-47529   8.385  34.983  12.191
75105ION    CL-47530  29.275  30.779   1.779
75106ION    CL-47531   0.802   6.239   0.852
75107ION    CL-47532   0.719   2.272   2.951
75108ION    CL-47533  24.184  22.541   0.318
75109ION    CL-47534  20.027   4.837   4.170
75110ION    CL-47535  10.725  14.214   2.151
75111ION    CL-47536  43.736  16.255   5.145
75112ION    CL-47537  31.409  12.744  11.610
75113ION    CL-47538   6.462  44.371  13.428
75114ION    CL-47539  12.322  37.001   1.797
75115ION    CL-47540  24.276  17.273   1.677
75116ION    CL-47541  12.323  42.448  13.051
75117ION    CL-47542  36.982  22.301   1.179
75118ION    CL-47543   7.923   2.585   3.499
75119ION    CL-47544  19.215   8.886   2.024
75120ION    CL-47545   1.535   9.296   3.749
75121ION    CL-47546  19.788  26.479   1.891
75122ION    CL-47547  17.557  24.636  14.007
75123ION    CL-47548  15.984  12.105  14.491
75124ION    CL-47549  27.366  10.294  13.830
75125ION    CL-47550  22.145  31.757  13.665
75126ION    CL-47551   2.812  21.459  11.467
75127ION    CL-47552   8.197   0.532   0.696
75128ION    CL-47553  26.527  42.058   1.729
75129ION    CL-47554  42.267  18.780   3.763
75130ION    CL-47555   5.930   3.930   0.387
75131ION    CL-47556   7.723  37.118   2.392
75132ION    CL-47557  17.175   9.425  14.784
75133ION    CL-47558   2.111  11.944  13.877
75134ION    CL-47559  33.727  33.021  10.200
75135ION    CL-47560  38.029  19.832  11.652
75136ION    CL-47561  40.513  24.039   0.375
75137ION    CL-47562   3.803  30.303   9.966
75138ION    CL-47563  15.448   4.181   4.040
75139ION    CL-47564  12.306  25.195   3.182
75140ION    CL-47565  15.635  31.694  10.827
75141ION    CL-47566  18.334  43.935   2.424
75142ION    CL-47567   9.649  14.661  10.061
75143ION    CL-47568  23.200  13.115  14.898
75144ION    CL-47569  23.895   4.482  11.736
75145ION    CL-47570  38.489  11.607   3.341
75146ION    CL-47571  15.603  31.076   3.817
75147ION    CL-47572   7.957  29.222  11.935
75148ION    CL-47573  44.297   8.755  11.182
75149ION    CL-47574  14.014  23.285   1.383
75150ION    CL-47575  29.431  44.654  14.079
75151ION    CL-47576  38.908  39.332   3.168
75152ION    CL-47577  31.669  26.402   3.387
75153ION    CL-47578  18.922   0.337   0.488
75154ION    CL-47579  37.977   5.345   3.252
75155ION    CL-47580  20.554   1.597  13.457
75156ION    CL-47581  13.608  31.093  14.799
75157ION    CL-47582  38.995  13.067   2.827
75158ION    CL-47583  41.265  40.383  12.021
75159ION    CL-47584  25.710   6.796   3.678
75160ION    CL-47585  26.476  14.334  13.529
75161ION    CL-47586  20.823  29.672   0.674
75162ION    CL-47587  13.249  10.196   3.001
75163ION    CL-47588  33.712  42.802  13.473
75164ION    CL-47589  12.952  41.847  12.558
75165ION    CL-47590  17.146  27.646  12.472
75166ION    CL-47591  17.486  16.971   4.225
75167ION    CL-47592  11.749   3.505  13.621
75168ION    CL-47593  34.001  17.946  13.603
75169ION    CL-47594  25.577  27.477   3.455
75170ION    CL-47595  28.377  21.865  14.048
75171ION    CL-47596  42.399   8.045   2.780
75172ION    CL-47597  14.212   0.076   3.875
75173ION    CL-47598  16.840  27.965   3.968
75174ION    CL-47599  41.474  30.124   0.571
75175ION    CL-47600  42.750  17.728  11.998
75176ION    CL-47601  28.550  26.135   0.518
75177ION    CL-47602  37.021  32.860   2.764
75178ION    CL-47603  34.487  32.824   3.993
75179ION    CL-47604   1.470  30.283   3.640
75180ION    CL-47605  19.523  20.482  13.624
75181ION    CL-47606   8.962  30.423   4.134
75182ION    CL-47607  37.032  35.358  12.444
75183ION    CL-47608  22.652  16.768   1.958
75184ION    CL-47609   9.222   7.826   4.054
75185ION    CL-47610  10.102  36.873   0.022
75186ION    CL-47611  40.986  29.270   0.753
75187ION    CL-47612  20.394  22.802   3.158
75188ION    CL-47613  27.388  34.315   4.594
75189ION    CL-47614  21.209  38.596  11.262
75190ION    CL-47615   8.851   5.304  13.580
75191ION    CL-47616  13.106  23.162  14.370
75192ION    CL-47617   1.334   5.279  14.518
75193ION    CL-47618  22.223  27.711   5.022
75194ION    CL-47619  17.561   4.213  13.834
75195ION    CL-47620   7.244   7.610   1.708
75196ION    CL-47621  30.428   8.407  14.454
75197ION    CL-47622  16.299  44.039  13.018
75198ION    CL-47623  42.309  36.607   3.395
75199ION    CL-47624  22.758  23.140   2.187
75200ION    CL-47625  15.723   9.235  11.929
75201ION    CL-47626   1.164  23.313   2.896
75202ION    CL-47627  22.151  23.569  12.863
75203ION    CL-47628   7.595  17.496   4.077
75204ION    CL-47629   1.501  14.039  10.957
75205ION    CL-47630  44.948  17.908   1.956
75206ION    CL-47631  35.251  39.343  12.424
75207ION    CL-47632   4.200   2.905   3.677
75208ION    CL-47633   2.380  25.715  14.920
75209ION    CL-47634  35.383   2.723  12.776
75210ION    CL-47635  42.054  21.877  13.482
75211ION    CL-47636  19.793  29.116   3.621
75212ION    CL-47637  43.051  32.231   1.472
75213ION    CL-47638  28.513  25.450  14.761
75214ION    CL-47639  27.738  11.567  14.868
75215ION    CL-47640  39.586  36.364   4.059
75216ION    CL-47641  16.840  34.801  11.381
75217ION    CL-47642  28.733  23.802   2.625
75218ION    CL-47643  41.029  15.321  10.532
75219ION    CL-47644  17.812   1.001   4.574
75220ION    CL-47645  26.833   1.109  12.860
75221ION    CL-47646  25.036  27.591   1.750
75222ION    CL-47647  35.871  16.068  14.240
75223ION    CL-47648  24.646  43.919  14.860
75224ION    CL-47649  32.153  25.619   3.890
75225ION    CL-47650   9.181  44.642  10.206
75226ION    CL-47651   1.721   8.118  12.929
75227ION    CL-47652  28.649  21.106   4.476
75228ION    CL-47653  35.556  19.447  13.923
75229ION    CL-47654  30.081  24.922  13.064
75230ION    CL-47655  36.623   0.484   3.716
75231ION    CL-47656  18.608  24.846  14.106
75232ION    CL-47657  10.348  17.371   4.204
75233ION    CL-47658  34.823  35.500   0.386
75234ION    CL-47659  31.431   1.797   1.170
75235ION    CL-47660  17.788  34.565   5.138
75236ION    CL-47661  36.315  23.741   0.268
75237ION    CL-47662  37.969  33.514  10.027
75238ION    CL-47663  28.526  33.982   3.363
75239ION    CL-47664  18.158  13.187   4.205
75240ION    CL-47665  37.208   0.367   0.919
75241ION    CL-47666  34.991  20.781  10.808
75242ION    CL-47667  43.996  34.223   5.414
75243ION    CL-47668  24.040  16.459  13.353
75244ION    CL-47669  15.611  19.662   9.838
75245ION    CL-47670   0.233  12.740   5.020
75246ION    CL-47671  37.937  39.555  12.043
75247ION    CL-47672  44.209   9.193   3.367
75248ION    CL-47673  28.298  27.943   2.312
75249ION    CL-47674  17.004  39.723   2.171
75250ION    CL-47675  25.498  34.099   2.696
75251ION    CL-47676  18.067  22.249   0.294
75252ION    CL-47677  39.001  19.037  11.719
75253ION    CL-47678  29.792  18.652  12.020
75254ION    CL-47679  43.872  11.718   3.307
75255ION    CL-47680  26.756   1.455   5.203
75256ION    CL-47681  10.989   3.974   0.981
75257ION    CL-47682   8.034  17.884  14.485
75258ION    CL-47683   6.765  24.142   3.206
75259ION    CL-47684  12.288  39.844  11.118
75260ION    CL-47685  31.393  20.541  11.475
75261ION    CL-47686  22.058   5.684  14.988
75262ION    CL-47687   7.292  10.139  13.320
75263ION    CL-47688   6.214  22.392  11.066
75264ION    CL-47689  11.761  27.871  12.390
75265ION    CL-47690  19.164   8.872   4.168
75266ION    CL-47691  43.100  30.512   3.197
75267ION    CL-47692  16.239  19.521   4.707
75268ION    CL-47693   3.935  20.569  13.906
75269ION    CL-47694  34.394  25.867  12.331
75270ION    CL-47695  11.827  31.636  10.871
75271ION    CL-47696   0.326  10.336   0.435
75272ION    CL-47697  11.180  12.304   3.210
75273ION    CL-47698  25.770  23.266  11.491
75274ION    CL-47699  37.467  28.538   3.896
75275ION    CL-47700   9.803  41.499  11.389
75276ION    CL-47701   6.402   2.891  12.907
75277ION    CL-47702   5.361  39.776  14.114
75278ION    CL-47703  21.373  24.258   3.649
75279ION    CL-47704   7.955  30.943   3.153
75280ION    CL-47705  17.194  20.746   1.081
75281ION    CL-47706   1.081  29.719  13.215
75282ION    CL-47707  19.269   7.633  12.025
75283ION    CL-47708  14.312  13.098  13.455
75284ION    CL-47709  42.515  41.457  14.489
75285ION    CL-47710   6.659  33.624   2.259
75286ION    CL-47711  40.822  33.270   4.299
75287ION    CL-47712  36.941  16.287  10.769
75288ION    CL-47713  10.306  34.120  12.811
75289ION    CL-47714  19.415  31.915   3.338
75290ION    CL-47715  37.859   6.795   5.138
75291ION    CL-47716  31.088  17.015   0.060
75292ION    CL-47717  41.547  35.482  13.350
75293ION    CL-47718  10.829  30.670  11.715
75294ION    CL-47719  36.962   8.167   3.324
75295ION    CL-47720  13.927   6.253  11.439
75296ION    CL-47721  34.210  44.590   2.876
75297ION    CL-47722  10.529  24.487   1.637
75298ION    CL-47723  13.242   4.854   3.905
75299ION    CL-47724  28.938  22.141  10.996
75300ION    CL-47725  23.495  15.413   0.742
75301ION    CL-47726  42.079  13.238  10.435
75302ION    CL-47727  42.033  16.762  14.262
75303ION    CL-47728  18.539  23.097  14.440
75304ION    CL-47729  11.954  17.268   4.802
75305ION    CL-47730  18.481  35.100  14.972
75306ION    CL-47731   5.751  15.360   2.905
75307ION    CL-47732  31.251   7.527   2.958
75308ION    CL-47733  19.653  35.507   1.287
75309ION    CL-47734   5.866  17.909   3.648
75310ION    CL-47735  35.498  34.385   1.014
75311ION    CL-47736   0.156  36.571  12.977
75312ION    CL-47737   4.507  21.572  12.112
75313ION    CL-47738  35.808  11.022  12.647
75314ION    CL-47739   3.467  18.925  11.618
75315ION    CL-47740   8.617  22.511   1.916
75316ION    CL-47741  21.288  41.866   2.453
75317ION    CL-47742  14.136   8.414   9.986
75318ION    CL-47743  24.717  24.943  14.215
75319ION    CL-47744   7.686  15.053   3.821
75320ION    CL-47745   3.787  44.475   0.479
75321ION    CL-47746  30.057  34.902  13.809
75322ION    CL-47747  23.196  19.152  14.084
75323ION    CL-47748   0.840  20.700   2.727
75324ION    CL-47749  16.847  44.802  11.346
75325ION    CL-47750   6.001   5.840  11.698
75326ION    CL-47751  42.420  29.826   2.941
75327ION    CL-47752  29.595  11.608   3.629
75328ION    CL-47753  10.733  23.478  14.426
75329ION    CL-47754  44.465   0.748   2.767
75330ION    CL-47755  16.150  19.514  13.855
75331ION    CL-47756   3.345  44.806   5.005
75332ION    CL-47757  17.536  22.111  13.732
75333ION    CL-47758  44.389  39.930   1.388
75334ION    CL-47759  19.980  18.836  14.319
75335ION    CL-47760  36.344  26.822   0.660
75336ION    CL-47761  18.742   9.427   2.927
75337ION    CL-47762   3.201  33.762  14.042
75338ION    CL-47763  31.308   6.711   4.483
75339ION    CL-47764  35.298  35.017   4.879
75340ION    CL-47765  29.877  25.974  11.561
75341ION    CL-47766  43.026  28.307  14.893
75342ION    CL-47767  15.265  41.144  11.240
75343ION    CL-47768  32.609  30.372   1.940
75344ION    CL-47769   7.628  12.931   3.745
75345ION    CL-47770  10.195  25.571   3.741
75346ION    CL-47771  11.210   7.243  12.398
75347ION    CL-47772   3.716  14.305  13.110
75348ION    CL-47773   8.963  35.524  14.779
75349ION    CL-47774  22.848  10.073   0.470
75350ION    CL-47775  38.216  41.743  11.686
75351ION    CL-47776  22.264  22.050  12.494
75352ION    CL-47777  20.128  33.232  12.209
75353ION    CL-47778  44.848  15.602   5.123
75354ION    CL-47779  16.334  10.900  11.092
75355ION    CL-47780  38.054   9.675  10.472
75356ION    CL-47781  35.294  21.367   9.895
75357ION    CL-47782   4.279  36.561  14.476
75358ION    CL-47783  31.685   7.093  10.963
75359ION    CL-47784   3.566  12.136  12.376
75360ION    CL-47785  34.524  37.033  12.172
75361ION    CL-47786  19.658   3.791   3.674
75362ION    CL-47787  26.227   4.044   0.689
75363ION    CL-47788  34.293  43.777   0.985
75364ION    CL-47789  34.874  33.088  12.914
75365ION    CL-47790  31.995  18.949  12.434
75366ION    CL-47791  19.492  23.276  11.977
75367ION    CL-47792   0.548  24.348   3.674
75368ION    CL-47793  41.400  28.638   2.637
75369ION    CL-47794  37.604  42.886   0.020
75370ION    CL-47795  32.167   8.482   2.955
75371ION    CL-47796  22.247  38.386  12.327
75372ION    CL-47797   7.342  27.694  12.111
75373ION    CL-47798  35.344  31.862  12.167
75374ION    CL-47799   3.142  44.697  11.125
75375ION    CL-47800  42.850   2.068   1.562
75376ION    CL-47801  35.815  23.083  11.637
75377ION    CL-47802  14.680  34.864  14.429
75378ION    CL-47803  18.774  16.984  13.648
75379ION    CL-47804   3.469  10.910   4.022
75380ION    CL-47805   7.807  22.879  13.981
75381ION    CL-47806  16.892  26.213   4.786
75382ION    CL-47807  11.597   3.223   3.837
75383ION    CL-47808  35.700   1.225  14.579
75384ION    CL-47809  28.869  19.327  11.559
75385ION    CL-47810   1.251  23.896   1.214
75386ION    CL-47811  31.559  37.937   2.867
75387ION    CL-47812  23.887  31.412   2.993
75388ION    CL-47813  12.856   8.256   2.299
75389ION    CL-47814  23.779  21.882  12.734
75390ION    CL-47815  42.856   2.418   2.499
75391ION    CL-47816  16.449  28.205   3.071
75392ION    CL-47817  35.530  15.212  10.253
75393ION    CL-47818   9.525  43.261  11.095
75394ION    CL-47819  38.179  16.714   2.841
75395ION    CL-47820  44.531  21.520   1.266
75396ION    CL-47821   3.148  44.392  13.808
75397ION    CL-47822  34.838  11.180  13.034
75398ION    CL-47823  40.914   3.849  14.873
75399ION    CL-47824  26.125  14.614   2.788
75400ION    CL-47825  13.797  34.399   4.482
75401ION    CL-47826  26.560  33.832  13.515
75402ION    CL-47827  21.108   3.125  14.235
75403ION    CL-47828  36.496   8.716   2.460
75404ION    CL-47829  17.997  17.398  13.581
75405ION    CL-47830  42.213  18.614   2.369
75406ION    CL-47831  13.854  41.958   3.873
75407ION    CL-47832  24.882  17.053   2.442
75408ION    CL-47833   3.855  27.453   4.184
75409ION    CL-47834  26.110   8.413   4.446
75410ION    CL-47835  11.411   7.455   4.461
75411ION    CL-47836  17.525   3.730   0.206
75412ION    CL-47837  21.189  21.812  13.459
75413ION    CL-47838  36.886  39.117  13.275
75414ION    CL-47839   2.950   8.427   4.555
75415ION    CL-47840  31.694  43.140  14.780
75416ION    CL-47841   1.855  42.552   3.367
75417ION    CL-47842  26.472  44.177   9.731
75418ION    CL-47843   9.293  38.614  13.982
75419ION    CL-47844  14.489  17.074  10.219
75420ION    CL-47845  18.711  29.514   1.227
75421ION    CL-47846  35.583  44.361   3.638
75422ION    CL-47847  41.369   9.404  13.777
75423ION    CL-47848   1.080   2.287   2.158
75424ION    CL-47849   3.764   5.006   3.847
75425ION    CL-47850  13.397  16.818   4.210
75426ION    CL-47851   0.720  14.361   3.332
75427ION    CL-47852  26.247  33.910   3.331
75428ION    CL-47853   4.043   1.282  12.872
75429ION    CL-47854  26.706   9.203  13.397
75430ION    CL-47855  41.727  35.915  14.521
75431ION    CL-47856  21.173  35.961  14.255
75432ION    CL-47857  24.550  23.254   4.888
75433ION    CL-47858  17.761   3.763   5.139
75434ION    CL-47859  18.377  35.143   9.909
75435ION    CL-47860  32.008   2.320  13.768
75436ION    CL-47861   8.225   0.008  10.704
75437ION    CL-47862  32.728  19.413  14.245
75438ION    CL-47863  42.161  27.078  14.958
75439ION    CL-47864  28.397  17.421   2.137
75440ION    CL-47865  37.217  25.314   4.054
75441ION    CL-47866  26.587  32.167  12.574
75442ION    CL-47867   7.253  37.913  12.140
75443ION    CL-47868  42.149   0.818   0.465
75444ION    CL-47869   8.140  41.784  11.053
75445ION    CL-47870  29.645  33.486  11.221
75446ION    CL-47871  31.470  42.580   4.148
75447ION    CL-47872   0.850  15.886   1.816
75448ION    CL-47873  41.487   8.431  13.579
75449ION    CL-47874   3.269  28.059  10.924
75450ION    CL-47875   8.891  40.640  11.988
75451ION    CL-47876  21.537  43.614   1.902
75452ION    CL-47877  24.206  11.409  12.664
75453ION    CL-47878   9.437  14.261  14.867
75454ION    CL-47879  39.148  18.725  14.788
75455ION    CL-47880  36.401  39.728   1.406
75456ION    CL-47881  37.473  41.676  14.072
75457ION    CL-47882  39.581  13.472   2.063
75458ION    CL-47883  14.730  37.239  14.836
75459ION    CL-47884  21.208  18.090   3.203
75460ION    CL-47885  36.534   4.215  13.958
75461ION    CL-47886  32.216   5.416  14.075
75462ION    CL-47887  34.142  16.814  11.345
75463ION    CL-47888  38.636  36.671   4.021
75464ION    CL-47889  24.917  17.994  12.143
75465ION    CL-47890  27.079  21.455  12.690
75466ION    CL-47891   2.410  41.318  10.817
75467ION    CL-47892  13.562   6.180  13.745
75468ION    CL-47893   1.397  12.099   3.579
75469ION    CL-47894   5.612  25.483   0.006
75470ION    CL-47895  16.882   5.397  10.339
75471ION    CL-47896   8.476  19.113  10.972
75472ION    CL-47897  30.134  41.593  12.283
75473ION    CL-47898   2.920  28.045  14.044
75474ION    CL-47899  24.739  12.525   2.676
75475ION    CL-47900  27.799  27.543   1.078
75476ION    CL-47901  32.055   7.334   2.103
75477ION    CL-47902  10.217  29.909  10.258
75478ION    CL-47903   6.976   9.360  11.858
75479ION    CL-47904  35.519  24.971  13.028
75480ION    CL-47905  21.024  22.520  11.412
75481ION    CL-47906  17.692  28.909  13.446
75482ION    CL-47907  20.820   4.440  10.905
75483ION    CL-47908  25.504  24.764  11.676
75484ION    CL-47909  31.912   7.454   0.204
75485ION    CL-47910  34.074  15.178  10.864
75486ION    CL-47911  38.860  23.713  13.632
75487ION    CL-47912   9.873  43.583  10.214
75488ION    CL-47913  13.342   0.521   2.184
75489ION    CL-47914  39.853  15.821   0.607
75490ION    CL-47915  16.384   7.079   3.018
75491ION    CL-47916  36.443  25.978  12.100
75492ION    CL-47917   3.503  34.217   2.173
75493ION    CL-47918  23.113  38.484  11.153
75494ION    CL-47919  19.242  21.852   2.262
75495ION    CL-47920  25.342  40.609   1.849
75496ION    CL-47921  23.809  18.496   4.696
75497ION    CL-47922  13.563  10.991  13.880
75498ION    CL-47923  11.434  23.162   0.446
75499ION    CL-47924  22.099   7.995  14.447
75500ION    CL-47925  27.903  43.962   3.815
75501ION    CL-47926  27.304  40.170   2.820
75502ION    CL-47927  26.406  32.942   4.712
75503ION    CL-47928  41.639  20.757   0.042
75504ION    CL-47929  19.593  22.483  12.966
75505ION    CL-47930  26.649  30.441  13.946
75506ION    CL-47931   5.384  13.737  11.093
75507ION    CL-47932   5.463  40.522  13.456
75508ION    CL-47933  40.725  10.659  13.845
75509ION    CL-47934  17.320  30.244   3.715
75510ION    CL-47935  12.625  41.501   1.708
75511ION    CL-47936  31.627  23.871  12.342
75512ION    CL-47937   0.797  35.888   3.306
75513ION    CL-47938  41.321   3.725   2.230
75514ION    CL-47939  34.491  27.508  13.452
75515ION    CL-47940  25.744  37.812   1.468
75516ION    CL-47941   5.401  34.100  12.281
75517ION    CL-47942  32.198  39.471  13.341
75518ION    CL-47943  26.886  20.254   0.004
75519ION    CL-47944  33.473  22.716  11.734
75520ION    CL-47945  20.100  17.125  10.927
75521ION    CL-47946  17.429  18.828  12.549
75522ION    CL-47947  27.251  20.573  10.197
75523ION    CL-47948  31.905  14.558   5.010
75524ION    CL-47949   4.937  21.137  10.545
75525ION    CL-47950  39.165  19.484  12.944
75526ION    CL-47951  23.757   9.264   3.095
75527ION    CL-47952   6.992  25.881   3.313
75528ION    CL-47953  29.341  14.269  12.464
75529ION    CL-47954  10.374  42.168   4.559
75530ION    CL-47955  29.177   2.606  13.312
75531ION    CL-47956   2.884  20.962   2.203
75532ION    CL-47957  41.203   2.478   0.286
75533ION    CL-47958  44.519  15.349  12.505
75534ION    CL-47959  10.216  18.847  13.935
75535ION    CL-47960  12.979   9.304  12.688
75536ION    CL-47961  24.954  26.948  14.954
75537ION    CL-47962  10.366  21.244  14.570
75538ION    CL-47963   0.939  36.515   4.856
75539ION    CL-47964  11.336  39.099   3.733
75540ION    CL-47965  13.779   3.486   0.906
75541ION    CL-47966   9.234  11.384  11.451
75542ION    CL-47967  38.359  36.237  12.089
75543ION    CL-47968   3.180   9.123   3.876
75544ION    CL-47969  19.013  28.514   2.003
75545ION    CL-47970  33.985   3.478   2.690
75546ION    CL-47971  38.057   7.759  12.143
75547ION    CL-47972  26.793  38.037   1.187
75548ION    CL-47973  25.851  21.135  13.840
75549ION    CL-47974  28.141  29.538  13.810
75550ION    CL-47975   4.012  11.177  13.535
75551ION    CL-47976  15.531  26.543  14.333
75552ION    CL-47977  32.259  26.244   0.958
75553ION    CL-47978   7.633  21.299   9.849
75554ION    CL-47979  43.798  41.072   3.204
75555ION    CL-47980  24.549  22.569  10.767
75556ION    CL-47981   9.170  13.981  10.615
75557ION    CL-47982  43.767  43.883   2.405
75558ION    CL-47983  37.636   1.941   1.501
75559ION    CL-47984  11.726   4.202   4.091
75560ION    CL-47985  25.909   0.777   0.822
75561ION    CL-47986   3.410  33.161   0.327
75562ION    CL-47987  25.468   4.668   0.876
75563ION    CL-47988  35.321  42.281   1.384
75564ION    CL-47989  36.201  34.985  11.112
75565ION    CL-47990  44.360  15.344   3.701
75566ION    CL-47991  10.831  33.924   1.462
75567ION    CL-47992  39.448  40.539  12.045
75568ION    CL-47993   0.220  38.110   2.180
75569ION    CL-47994  28.327  43.825  10.595
75570ION    CL-47995  10.851  30.801  13.557
75571ION    CL-47996  27.741  43.794   9.914
75572ION    CL-47997  19.461   4.030   1.775
75573ION    CL-47998  10.164  13.630  11.609
75574ION    CL-47999  36.809  39.687   4.153
75575ION    CL-48000   7.626  38.487   1.126
75576ION    CL-48001  39.440  14.457   2.167
75577ION    CL-48002  36.293  42.590   0.574
75578ION    CL-48003  11.830  20.610   3.683
75579ION    CL-48004  23.545  44.730   1.854
75580ION    CL-48005  43.176  29.726   1.772
75581ION    CL-48006  14.360  39.751  14.270
75582ION    CL-48007  18.361  35.918  13.582
75583ION    CL-48008  25.554  16.106  14.889
75584ION    CL-48009  43.576   6.783   1.436
75585ION    CL-48010  31.966  10.836   5.054
75586ION    CL-48011   6.594  27.402   2.945
75587ION    CL-48012  38.137  31.166   4.121
75588ION    CL-48013  23.157  27.068   0.320
75589ION    CL-48014  41.874   7.169  11.145
75590ION    CL-48015   4.986  39.283  14.927
75591ION    CL-48016   8.788  30.807   1.523
75592ION    CL-48017  32.739  25.429   1.328
75593ION    CL-48018   7.921  41.833  14.481
75594ION    CL-48019  23.804  27.988   5.303
75595ION    CL-48020  39.588  19.779  13.845
75596ION    CL-48021  23.695  41.614  13.947
75597ION    CL-48022  32.882  39.612  11.037
75598ION    CL-48023   2.870  40.519   0.873
75599ION    CL-48024  14.177  25.238   2.746
75600ION    CL-48025  24.124  24.107   4.665
75601ION    CL-48026  35.142  10.129  11.903
75602ION    CL-48027   1.360  40.604   0.895
75603ION    CL-48028   3.495  26.596  11.083
75604ION    CL-48029   9.105  27.606   1.236
75605ION    CL-48030  18.585  15.972   1.260
75606ION    CL-48031  43.522  41.335   0.854
75607ION    CL-48032  10.826  31.779  13.352
75608ION    CL-48033  33.657   1.886  13.182
75609ION    CL-48034  27.679   7.813  13.297
75610ION    CL-48035  25.011  22.646   3.910
75611ION    CL-48036   7.022  12.575  11.267
75612ION    CL-48037  20.645  23.771  11.646
75613ION    CL-48038  19.130  19.330  14.507
75614ION    CL-48039  37.470  41.242  11.770
75615ION    CL-48040  34.791  14.120  14.178
75616ION    CL-48041  13.809  34.111   2.343
75617ION    CL-48042  34.637  34.298  11.670
75618ION    CL-48043  18.827  26.530   3.556
75619ION    CL-48044  15.476   2.186   0.952
75620ION    CL-48045  16.399  32.482  13.709
75621ION    CL-48046  27.448  40.928   0.944
75622ION    CL-48047  15.486   6.072   5.070
75623ION    CL-48048  24.773  24.065   4.982
75624ION    CL-48049  24.043  28.492   1.206
75625ION    CL-48050  15.642  10.264  11.839
75626ION    CL-48051  40.932   0.494   4.990
75627ION    CL-48052  27.907  26.079  12.644
75628ION    CL-48053  10.913   0.749   3.547
75629ION    CL-48054  32.160   8.263  10.633
75630ION    CL-48055  16.235  40.877   4.436
75631ION    CL-48056  14.011  11.589  11.026
75632ION    CL-48057   7.967  13.541  13.266
75633ION    CL-48058  25.532  15.005   5.026
75634ION    CL-48059   5.799  33.003  13.826
75635ION    CL-48060   1.801  14.624   3.408
75636ION    CL-48061  32.113  13.276  13.657
75637ION    CL-48062  31.836  24.142   0.096
75638ION    CL-48063   9.210  26.760   1.801
75639ION    CL-48064  23.855   3.596  11.897
75640ION    CL-48065  32.149  41.562   1.085
75641ION    CL-48066   0.273  14.230  10.527
75642ION    CL-48067  36.331  14.079   5.109
75643ION    CL-48068   2.203  37.287   4.317
75644ION    CL-48069   1.661  25.805  11.031
75645ION    CL-48070  17.125  33.002  14.513
75646ION    CL-48071   6.401  16.129  11.068
75647ION    CL-48072  35.853  13.214  13.943
75648ION    CL-48073  25.375  39.482  13.956
75649ION    CL-48074  18.001  22.636  12.133
75650ION    CL-48075   9.952   1.447   2.565
75651ION    CL-48076  24.021   0.664  14.972
75652ION    CL-48077  28.400   9.011   3.123
75653ION    CL-48078  41.251   8.834  14.463
75654ION    CL-48079  40.954  28.223  12.488
75655ION    CL-48080   5.613  30.506  14.800
75656ION    CL-48081  41.280  31.253  13.029
75657ION    CL-48082  43.032  24.733  13.632
75658ION    CL-48083  30.096  26.732   0.909
75659ION    CL-48084  44.313  17.281  11.579
75660ION    CL-48085  25.616  17.739  10.702
75661ION    CL-48086  35.823  34.910   1.801
75662ION    CL-48087  27.199   5.374   2.569
75663ION    CL-48088   7.009  30.185  12.525
75664ION    CL-48089  43.014  34.347   0.491
75665ION    CL-48090  41.311   1.226  12.871
75666ION    CL-48091  21.301  26.821   0.691
75667ION    CL-48092  31.701   6.094  10.929
75668ION    CL-48093  30.173  13.536  11.415
75669ION    CL-48094   1.305  31.804  14.061
75670ION    CL-48095   3.468  13.187  11.276
75671ION    CL-48096   4.520  15.789  13.709
75672ION    CL-48097  21.232   9.658   1.847
75673ION    CL-48098  17.465   2.374  12.262
75674ION    CL-48099  12.852  10.001   4.742
75675ION    CL-48100   2.493  27.133   0.442
75676ION    CL-48101  30.776   9.863  13.663
75677ION    CL-48102  16.593  23.808   1.786
75678ION    CL-48103  42.061  27.706   2.014
75679ION    CL-48104   7.910   2.838  11.970
75680ION    CL-48105  43.057  13.239  12.568
75681ION    CL-48106  22.967   9.874   3.526
75682ION    CL-48107  37.352  43.418   2.303
75683ION    CL-48108   6.817   2.796   2.247
75684ION    CL-48109  19.680   9.866   5.210
75685ION    CL-48110   8.309  35.900  14.226
75686ION    CL-48111  12.021  40.456   2.165
75687ION    CL-48112  24.432  15.700  10.320
75688ION    CL-48113  15.869  31.384  11.748
75689ION    CL-48114  41.219  26.362   3.721
75690ION    CL-48115  39.792   8.268   0.222
75691ION    CL-48116  30.723   3.550   0.939
75692ION    CL-48117   4.635  35.809   3.645
75693ION    CL-48118  44.331  38.509  14.477
75694ION    CL-48119   6.101  20.048   3.294
75695ION    CL-48120  12.072  35.807   1.468
75696ION    CL-48121  17.993   2.588   0.656
75697ION    CL-48122  19.156  14.311  11.188
75698ION    CL-48123  44.914  27.553   4.491
75699ION    CL-48124  28.145  10.001   4.397
75700ION    CL-48125   6.664  23.104   2.895
75701ION    CL-48126  24.283  44.037  10.761
75702ION    CL-48127   3.908   8.234  13.541
75703ION    CL-48128  12.078   6.219   0.724
75704ION    CL-48129  42.156  12.105  13.850
75705ION    CL-48130  12.491  19.071   0.458
75706ION    CL-48131   3.558  11.475   3.314
75707ION    CL-48132   4.712  22.562   1.543
75708ION    CL-48133  31.054  14.208  11.218
75709ION    CL-48134   5.696  23.391   0.717
75710ION    CL-48135  19.075  22.119  11.511
75711ION    CL-48136  15.905  27.269  13.756
75712ION    CL-48137  11.778  20.538   2.789
75713ION    CL-48138  10.063  18.021  13.601
75714ION    CL-48139  36.662  13.669   4.344
75715ION    CL-48140  31.819  39.497  10.798
75716ION    CL-48141  33.845  42.446   1.593
75717ION    CL-48142  39.821  30.954   0.049
75718ION    CL-48143  20.454  15.702  11.067
75719ION    CL-48144  14.994   0.672   4.954
75720ION    CL-48145  21.693  29.651  14.231
75721ION    CL-48146  39.833  15.418   5.188
75722ION    CL-48147   9.202  41.343   4.002
75723ION    CL-48148   6.319  10.504   4.207
75724ION    CL-48149  29.338  38.257   5.496
75725ION    CL-48150  21.199  41.873   3.396
75726ION    CL-48151   1.060   8.474   1.965
75727ION    CL-48152  22.297  23.947  14.800
75728ION    CL-48153  38.058  22.206  12.962
75729ION    CL-48154  42.533   9.438  13.103
75730ION    CL-48155   0.566  32.849   5.233
75731ION    CL-48156  26.523  43.622   1.621
75732ION    CL-48157  34.644  16.666   4.282
75733ION    CL-48158  41.183  15.726   2.155
75734ION    CL-48159  44.478  25.622  11.690
75735ION    CL-48160  35.419   4.010  13.466
75736ION    CL-48161  10.454  36.527   2.740
75737ION    CL-48162  18.653  17.337  10.542
75738ION    CL-48163   0.675  44.047  13.229
75739ION    CL-48164   6.368  10.180  14.300
75740ION    CL-48165   3.166  31.870   1.319
75741ION    CL-48166  34.125  32.490  14.854
75742ION    CL-48167  23.582  36.762  14.117
75743ION    CL-48168   2.914   5.000   2.667
75744ION    CL-48169   5.953  41.182   2.918
75745ION    CL-48170  31.468  20.663  13.036
75746ION    CL-48171  31.450  29.904   2.011
75747ION    CL-48172  19.743  16.750   0.266
75748ION    CL-48173   3.236   5.867  14.054
75749ION    CL-48174  23.908   1.291  13.405
75750ION    CL-48175  25.438  26.041  11.801
75751ION    CL-48176  20.380  13.307   4.282
75752ION    CL-48177  25.147  25.163   1.657
75753ION    CL-48178  42.291   0.815  10.699
75754ION    CL-48179  17.982  11.833  11.225
75755ION    CL-48180  40.725  22.853   3.755
75756ION    CL-48181  28.542  24.487  10.269
75757ION    CL-48182  10.858  41.841  11.936
75758ION    CL-48183   8.946  34.250  13.903
75759ION    CL-48184  36.596  27.682   4.737
75760ION    CL-48185  28.367  13.771  10.590
75761ION    CL-48186  41.791   5.652  12.949
75762ION    CL-48187  19.320  44.481  14.557
75763ION    CL-48188  11.897  36.730  11.595
75764ION    CL-48189  38.296  31.244   0.485
75765ION    CL-48190   4.021   5.712   4.209
75766ION    CL-48191   4.082   3.112  12.270
75767ION    CL-48192   9.741  22.594  12.827
75768ION    CL-48193  24.564  20.258  13.688
75769ION    CL-48194   3.643  31.558   2.999
75770ION    CL-48195  39.613  10.072  13.547
75771ION    CL-48196  42.507  11.342  14.096
75772ION    CL-48197   1.283  12.107  12.893
75773ION    CL-48198   2.017  13.609   2.493
75774ION    CL-48199  28.985   7.749   1.742
75775ION    CL-48200  25.652  19.842  13.848
75776ION    CL-48201  43.513  40.121   2.898
75777ION    CL-48202  43.463  22.635  13.936
75778ION    CL-48203  18.985  42.128  12.010
75779ION    CL-48204  11.466  23.218  13.459
75780ION    CL-48205  43.871  44.768   1.244
75781ION    CL-48206  28.940  31.975   2.356
75782ION    CL-48207  23.838  28.460  11.661
75783ION    CL-48208  41.618   7.262   2.683
75784ION    CL-48209  39.806  22.534   1.541
75785ION    CL-48210  29.188  42.127  13.657
75786ION    CL-48211  16.581  21.324   1.361
75787ION    CL-48212  33.137  18.419   2.095
75788ION    CL-48213  21.768   2.845  12.023
75789ION    CL-48214  12.296   1.424  13.069
75790ION    CL-48215   4.995  33.633   3.181
75791ION    CL-48216  24.021  33.929  11.923
75792ION    CL-48217   5.185   3.205  12.959
75793ION    CL-48218  36.691  35.877  14.154
75794ION    CL-48219  44.693  35.259  11.817
75795ION    CL-48220  30.720   2.855   0.220
75796ION    CL-48221  19.113  38.573   0.864
75797ION    CL-48222  37.117  12.853   2.742
75798ION    CL-48223  18.532  27.542   3.416
75799ION    CL-48224   6.225  24.697   0.088
75800ION    CL-48225  33.991  36.760   3.019
75801ION    CL-48226   5.664  44.797   4.870
75802ION    CL-48227  44.792  44.732   4.841
75803ION    CL-48228  33.793  41.244   1.284
75804ION    CL-48229   3.684  22.929  10.549
75805ION    CL-48230  18.049   2.321   1.652
75806ION    CL-48231  20.751   1.250   1.001
75807ION    CL-48232  21.736   9.968  13.637
75808ION    CL-48233  31.519  12.139  14.797
75809ION    CL-48234   4.702  34.621  14.353
75810ION    CL-48235  42.584  13.941   0.133
75811ION    CL-48236  13.119  25.232   2.601
75812ION    CL-48237   9.435  29.440  14.747
75813ION    CL-48238  32.523  34.817  13.049
75814ION    CL-48239   1.674  29.562  12.561
75815ION    CL-48240   8.333   2.693   2.160
75816ION    CL-48241  33.182  23.695   1.315
75817ION    CL-48242  21.764   9.849   5.509
75818ION    CL-48243  18.673  13.602   1.204
75819ION    CL-48244  16.833  38.891  13.594
75820ION    CL-48245   1.115  41.766   4.110
75821ION    CL-48246  19.775   1.456   4.624
75822ION    CL-48247   7.360  39.250  14.729
75823ION    CL-48248  37.522  31.977   3.199
75824ION    CL-48249  41.691  32.806   2.978
75825ION    CL-48250  25.586   8.636   3.611
75826ION    CL-48251  15.019  11.709  11.150
75827ION    CL-48252  40.921  25.447  12.146
75828ION    CL-48253  23.906  17.683  14.444
75829ION    CL-48254  28.195   8.231  10.740
75830ION    CL-48255  13.841  35.159   0.422
75831ION    CL-48256  33.940  28.537   4.541
75832ION    CL-48257  15.321  20.605   3.316
75833ION    CL-48258  28.699  13.691   3.023
75834ION    CL-48259   8.867  13.122  11.502
75835ION    CL-48260  33.935  26.712  11.184
75836ION    CL-48261  31.707  33.596  10.791
75837ION    CL-48262   6.133  11.355  11.931
75838ION    CL-48263  43.009  33.738   2.194
75839ION    CL-48264   6.236  35.696  11.743
75840ION    CL-48265  30.672   6.815  11.124
75841ION    CL-48266  32.461  42.828   0.709
75842ION    CL-48267   3.112  11.340  14.535
75843ION    CL-48268  32.022  14.047  12.967
75844ION    CL-48269   0.633  16.518   1.192
75845ION    CL-48270  25.962  13.067   4.176
75846ION    CL-48271  18.018  43.488  14.450
75847ION    CL-48272  37.918  37.056  13.368
75848ION    CL-48273   1.303  30.758   2.906
75849ION    CL-48274  29.449  12.512   1.442
75850ION    CL-48275  28.672   7.854  13.184
75851ION    CL-48276   0.606   4.166   2.902
75852ION    CL-48277   2.973  16.026  11.496
75853ION    CL-48278  16.923  24.905   3.420
75854ION    CL-48279  31.186  43.133   2.797
75855ION    CL-48280  10.879   7.877  10.407
75856ION    CL-48281   1.331  12.564  12.048
75857ION    CL-48282  34.171  24.034  13.926
75858ION    CL-48283   4.805  17.304   0.424
75859ION    CL-48284  18.765  36.632  13.193
75860ION    CL-48285  32.472  16.513   0.356
75861ION    CL-48286  19.284   0.452   1.457
75862ION    CL-48287  19.011  40.199   2.930
75863ION    CL-48288   8.477  24.262   1.791
75864ION    CL-48289  24.600  36.372   1.145
75865ION    CL-48290  25.813  17.119  12.466
75866ION    CL-48291   2.995  21.880   1.222
75867ION    CL-48292  38.685  40.619   4.135
75868ION    CL-48293  17.662  36.125   2.734
75869ION    CL-48294   8.413   0.984  10.833
75870ION    CL-48295  33.802  43.376   5.015
75871ION    CL-48296   4.980   6.920  12.991
75872ION    CL-48297  17.303  35.728   4.544
75873ION    CL-48298  37.843  31.985   2.252
75874ION    CL-48299  28.239  33.601  11.916
75875ION    CL-48300  39.710   1.067  11.411
75876ION    CL-48301  34.989  36.147   3.236
75877ION    CL-48302   6.399  16.688   3.237
75878ION    CL-48303  25.009   3.363   3.345
75879ION    CL-48304   5.332   6.538  11.440
75880ION    CL-48305  34.655   1.346  11.200
75881ION    CL-48306   0.900  25.469   4.795
75882ION    CL-48307   3.178  27.463   2.816
75883ION    CL-48308  31.045  37.796   3.714
75884ION    CL-48309   9.413  25.090   1.976
75885ION    CL-48310   8.137  37.905   4.996
75886ION    CL-48311  44.475  26.621  11.723
75887ION    CL-48312   9.170   6.457  14.768
75888ION    CL-48313  31.986  37.994   0.684
75889ION    CL-48314  42.398  17.079  10.834
75890ION    CL-48315  21.604  20.616   0.368
75891ION    CL-48316   3.589   0.477  11.117
75892ION    CL-48317   2.772  21.142   3.671
75893ION    CL-48318   6.675   0.832   2.098
75894ION    CL-48319   8.838  18.120   4.275
75895ION    CL-48320  38.578  18.711   0.669
75896ION    CL-48321  23.316   3.802   1.866
75897ION    CL-48322  29.364  19.234  12.711
75898ION    CL-48323   1.233   1.029   0.894
75899ION    CL-48324  38.607  29.670   2.209
75900ION    CL-48325  10.697   3.620   1.736
75901ION    CL-48326  24.521  18.468  10.745
75902ION    CL-48327  13.775  14.485  11.471
75903ION    CL-48328  24.472  15.598   0.635
75904ION    CL-48329  43.320  16.865  14.353
75905ION    CL-48330  31.524  35.270   2.096
75906ION    CL-48331  22.974  25.139  11.090
75907ION    CL-48332  26.477   0.320   1.529
75908ION    CL-48333  40.006  20.319   0.157
75909ION    CL-48334   5.345   7.013   2.025
75910ION    CL-48335  39.946  18.713  11.669
75911ION    CL-48336  38.729  31.481   4.694
75912ION    CL-48337  24.447  36.657   2.091
75913ION    CL-48338  24.082   3.632   0.039
75914ION    CL-48339  28.491   1.899  12.715
75915ION    CL-48340  15.779  41.530   3.620
75916ION    CL-48341  26.475  15.341   3.381
75917ION    CL-48342  15.029  33.607   3.268
75918ION    CL-48343  34.346   0.287  14.543
75919ION    CL-48344   5.619   3.044  11.471
75920ION    CL-48345  30.942  40.846  10.540
75921ION    CL-48346  41.297  19.381  10.062
75922ION    CL-48347   0.784  25.787  11.511
75923ION    CL-48348  12.124  35.822   2.479
75924ION    CL-48349   4.753   3.006   0.971
75925ION    CL-48350  13.640  37.197   0.456
75926ION    CL-48351   7.921  42.783  12.979
75927ION    CL-48352  43.817  13.752  12.169
75928ION    CL-48353  30.757  25.688  11.182
75929ION    CL-48354   8.341  13.838   1.376
75930ION    CL-48355  35.547  31.486  10.201
75931ION    CL-48356  17.264  38.220  12.571
75932ION    CL-48357  17.642  42.941   4.875
75933ION    CL-48358  27.975  42.486   3.108
75934ION    CL-48359  44.504  23.800   3.399
75935ION    CL-48360  12.006   0.373   4.020
75936ION    CL-48361  32.850   9.420   4.128
75937ION    CL-48362  18.668  42.576   4.152
75938ION    CL-48363  32.619  15.437  14.085
75939ION    CL-48364  36.566  32.631  14.009
75940ION    CL-48365   7.853   1.489  13.906
75941ION    CL-48366  33.790  26.910  13.393
75942ION    CL-48367  23.628   5.122   4.919
75943ION    CL-48368  32.647  10.830   2.956
75944ION    CL-48369  21.476   6.581   0.568
75945ION    CL-48370  29.053   4.777  14.955
75946ION    CL-48371   1.945   4.203  10.032
75947ION    CL-48372  23.729  36.912   0.147
75948ION    CL-48373   0.519  21.640   0.531
75949ION    CL-48374  34.560  15.645  12.547
75950ION    CL-48375   7.836  28.130   1.142
75951ION    CL-48376  36.056  10.670  13.551
75952ION    CL-48377  42.849  29.595  12.990
75953ION    CL-48378  26.760  25.308  11.870
75954ION    CL-48379  31.907  39.962  10.017
75955ION    CL-48380   8.589  16.318  12.101
75956ION    CL-48381  33.947   6.389  12.370
75957ION    CL-48382  13.999  40.085   2.717
75958ION    CL-48383   5.662  17.169  10.573
75959ION    CL-48384   2.355  12.659  14.966
75960ION    CL-48385  40.671  35.359  13.818
75961ION    CL-48386  41.752  32.052   3.460
75962ION    CL-48387  23.627  22.946   1.936
75963ION    CL-48388  44.321  31.278   3.218
75964ION    CL-48389  18.264  21.805   3.206
75965ION    CL-48390  27.031  35.983   1.336
75966ION    CL-48391  20.006  16.993  12.781
75967ION    CL-48392   8.168   9.488  11.213
75968ION    CL-48393  33.731  24.666  12.023
75969ION    CL-48394  20.163  39.059   9.814
75970ION    CL-48395  19.370  13.019   0.290
75971ION    CL-48396  14.612  16.999  14.420
75972ION    CL-48397  10.722  23.751  11.569
75973ION    CL-48398  25.054  14.926   4.020
75974ION    CL-48399  20.663  41.280  10.403
75975ION    CL-48400  16.192  20.307   4.090
75976ION    CL-48401  33.995   2.438   2.652
75977ION    CL-48402   1.319  24.850  11.164
75978ION    CL-48403   4.290  28.842   1.303
75979ION    CL-48404  20.501   1.120  11.538
75980ION    CL-48405  39.384  19.579  10.826
75981ION    CL-48406  42.841  27.004   2.293
75982ION    CL-48407  23.133  19.304  12.387
75983ION    CL-48408   6.304   6.854   4.960
75984ION    CL-48409  21.485  43.973  11.072
75985ION    CL-48410   2.831   9.870  12.995
75986ION    CL-48411  16.879  11.643  14.949
75987ION    CL-48412  32.490  30.215   3.825
75988ION    CL-48413  31.291  16.311  11.566
75989ION    CL-48414   6.583  18.518   2.394
75990ION    CL-48415   1.391  34.332  12.010
75991ION    CL-48416  43.312  23.376  11.810
75992ION    CL-48417  13.147  33.790   4.026
75993ION    CL-48418  16.907  13.805  12.877
75994ION    CL-48419  16.364  25.640  10.752
75995ION    CL-48420  23.305   2.100   2.598
75996ION    CL-48421  16.336  22.594  14.861
75997ION    CL-48422  13.700  29.899  14.661
75998ION    CL-48423  22.639  36.983  11.375
75999ION    CL-48424  44.061  42.273   4.181
76000ION    CL-48425  13.168  21.472  13.516
76001ION    CL-48426  43.637  30.208  12.926
76002ION    CL-48427   5.907  10.040   4.573
76003ION    CL-48428  37.596  17.245  12.332
76004ION    CL-48429  41.659  38.693   3.206
76005ION    CL-48430  21.955  31.750  11.165
76006ION    CL-48431   4.161  34.954   3.341
76007ION    CL-48432  36.932  41.105   2.894
76008ION    CL-48433  39.179   9.573  11.037
76009ION    CL-48434  28.648  41.812   5.523
76010ION    CL-48435  42.257   3.229  10.341
76011ION    CL-48436  17.748   5.936   1.346
76012ION    CL-48437  15.492   3.674  11.013
76013ION    CL-48438  12.774   3.852  13.562
76014ION    CL-48439  17.226  25.909  10.322
76015ION    CL-48440  23.029  36.000   4.123
76016ION    CL-48441  44.762  19.771  14.436
76017ION    CL-48442   6.342  34.698  11.517
76018ION    CL-48443   0.919  30.270   0.026
76019ION    CL-48444  41.310   1.383   3.763
76020ION    CL-48445  27.924  31.163  12.629
76021ION    CL-48446  25.184  21.346   4.048
76022ION    CL-48447  19.336  24.162  14.065
76023ION    CL-48448  15.636  32.224   9.794
76024ION    CL-48449  35.249  14.841  14.698
76025ION    CL-48450  36.068   7.382  12.978
76026ION    CL-48451  13.639   6.769  14.558
76027ION    CL-48452  16.285  38.025  12.634
76028ION    CL-48453   9.270  26.047  11.061
76029ION    CL-48454  23.095  29.026  13.841
76030ION    CL-48455  17.591   5.939   4.148
76031ION    CL-48456   0.271  24.764  11.982
76032ION    CL-48457   1.195  24.804  12.362
76033ION    CL-48458  19.766   8.906  10.654
76034ION    CL-48459   7.017  30.850  10.710
76035ION    CL-48460  35.037  33.388   1.838
76036ION    CL-48461  25.715  39.682   1.873
76037ION    CL-48462  11.078   1.235  12.503
76038ION    CL-48463   6.147  12.058  11.367
76039ION    CL-48464  21.250  37.673  13.856
76040ION    CL-48465   1.706  17.565   1.948
76041ION    CL-48466  41.641  29.802  14.107
76042ION    CL-48467  38.510   8.396  11.098
76043ION    CL-48468  35.810   8.656   3.665
76044ION    CL-48469  39.320  38.547   0.735
76045ION    CL-48470  21.754  42.745   2.346
76046ION    CL-48471  18.370   9.173  12.000
76047ION    CL-48472  39.809   4.995  11.460
76048ION    CL-48473  43.810   4.114   1.835
76049ION    CL-48474   8.931  13.101   3.243
76050ION    CL-48475  36.974   6.743  11.956
76051ION    CL-48476  25.010  37.280   4.042
76052ION    CL-48477  13.424  22.407  13.761
76053ION    CL-48478  30.899  35.559  13.864
76054ION    CL-48479   7.687  37.304   0.322
76055ION    CL-48480  10.045  26.580  12.882
76056ION    CL-48481   2.696  13.447   4.881
76057ION    CL-48482  11.582  37.263  10.809
76058ION    CL-48483  21.934  18.554  11.142
76059ION    CL-48484  26.818  43.590  13.952
76060ION    CL-48485   0.329  12.436   0.392
76061ION    CL-48486  15.376  21.862   2.818
76062ION    CL-48487  23.872  30.860   2.280
76063ION    CL-48488  11.936  20.011   0.593
76064ION    CL-48489  10.728  22.626  14.201
76065ION    CL-48490  35.521  44.473  14.799
76066ION    CL-48491   5.569  12.181  10.337
76067ION    CL-48492  19.738   2.468   2.220
76068ION    CL-48493  29.261  27.192  12.044
76069ION    CL-48494   8.664   8.374   2.285
76070ION    CL-48495  14.209  14.484  12.599
76071ION    CL-48496   8.923  35.434   2.968
76072ION    CL-48497  25.741   3.237  11.957
76073ION    CL-48498  11.331  26.472   3.807
76074ION    CL-48499  12.201  27.411  11.619
76075ION    CL-48500  42.532   6.416  11.143
76076ION    CL-48501  20.899  28.047  14.972
76077ION    CL-48502  18.705  39.356  13.841
76078ION    CL-48503  40.293  37.300   0.338
76079ION    CL-48504   2.284  10.977  14.065
76080ION    CL-48505  40.983   3.191   1.093
76081ION    CL-48506  11.751  30.927  11.425
76082ION    CL-48507  35.893  23.137   2.239
76083ION    CL-48508  14.720  10.766   3.814
76084ION    CL-48509   4.752   1.418  11.487
76085ION    CL-48510  19.835  11.282  12.041
76086ION    CL-48511  17.424   4.953   4.107
76087ION    CL-48512  21.237   4.742   2.737
76088ION    CL-48513  40.530   6.332   4.192
76089ION    CL-48514  19.170  15.116  13.789
76090ION    CL-48515  31.911  39.244   2.221
76091ION    CL-48516  18.811   5.245  12.983
76092ION    CL-48517  41.527  23.112   1.366
76093ION    CL-48518   1.712  13.193  10.986
76094ION    CL-48519  13.896  41.876  13.969
76095ION    CL-48520  11.432  29.369  13.453
76096ION    CL-48521  28.187  33.547  12.916
76097ION    CL-48522  12.421  21.488   9.805
76098ION    CL-48523  44.178  44.581   3.250
76099ION    CL-48524  16.930  18.080   4.212
76100ION    CL-48525  27.997  18.251   2.199
76101ION    CL-48526  38.237  40.946  11.201
76102ION    CL-48527  26.607  43.035  14.574
76103ION    CL-48528  21.709  26.870   1.408
76104ION    CL-48529  13.318  40.367  13.493
76105ION    CL-48530   3.027   6.798   9.711
76106ION    CL-48531  29.385  44.330  10.956
76107ION    CL-48532   5.533   5.716   2.943
76108ION    CL-48533  12.570  15.649   1.954
76109ION    CL-48534  21.467  14.161  11.138
76110ION    CL-48535  18.376  44.627   0.043
76111ION    CL-48536  13.694  35.253  14.279
76112ION    CL-48537  20.684  29.083  10.462
76113ION    CL-48538  29.098  18.393  11.288
76114ION    CL-48539  20.856   5.010  11.604
76115ION    CL-48540  36.277   3.533  13.273
76116ION    CL-48541  27.594  26.015  10.987
76117ION    CL-48542  25.578   9.649   0.301
76118ION    CL-48543  18.730  31.768  13.692
76119ION    CL-48544   8.374  25.435   4.807
76120ION    CL-48545   1.311  29.706  10.892
76121ION    CL-48546  44.342   4.720   5.331
76122ION    CL-48547   6.720  44.956  10.217
76123ION    CL-48548  25.030  40.480  12.639
76124ION    CL-48549  12.770   5.162   3.018
76125ION    CL-48550  36.979  40.105   4.930
76126ION    CL-48551  19.463  37.761   3.777
76127ION    CL-48552  32.521  12.662  10.618
76128ION    CL-48553  21.159  19.321   2.302
76129ION    CL-48554  34.450   4.504  13.031
76130ION    CL-48555  30.345  33.082   1.954
76131ION    CL-48556  14.899   0.369  13.014
76132ION    CL-48557  43.942  18.409   4.215
76133ION    CL-48558  36.480  36.500  13.525
76134ION    CL-48559   1.419   7.155  11.386
76135ION    CL-48560  35.451  39.100   1.597
76136ION    CL-48561   1.701   6.977   0.012
76137ION    CL-48562  42.711  43.373   1.179
76138ION    CL-48563  24.202  31.785  10.769
76139ION    CL-48564   4.309  28.009  14.303
76140ION    CL-48565  40.650  31.032   2.072
76141ION    CL-48566  22.302  26.824  11.263
76142ION    CL-48567  31.187  42.556   1.101
76143ION    CL-48568  32.352   4.414  13.099
76144ION    CL-48569  35.136  17.356   4.814
76145ION    CL-48570   7.823  41.252  12.110
76146ION    CL-48571  25.064   1.835   0.946
76147ION    CL-48572   1.449   7.390  13.587
76148ION    CL-48573  29.101  17.364   3.650
76149ION    CL-48574  37.122  15.101   4.306
76150ION    CL-48575   5.743   5.157   3.951
76151ION    CL-48576  27.118   6.361   2.708
76152ION    CL-48577   8.784  18.161   3.256
76153ION    CL-48578  38.089  26.577   3.291
76154ION    CL-48579  14.381  20.283  14.378
76155ION    CL-48580   1.164  13.549  12.095
76156ION    CL-48581  16.684  23.916  14.758
76157ION    CL-48582  22.263  31.299   2.444
76158ION    CL-48583  31.120  21.268   2.486
76159ION    CL-48584  21.036  19.553  12.603
76160ION    CL-48585  32.245  22.677  13.816
76161ION    CL-48586   9.893  39.018   0.155
76162ION    CL-48587  29.064  17.298   4.974
76163ION    CL-48588  16.069  34.320   1.541
76164ION    CL-48589  28.465  11.094  14.105
76165ION    CL-48590   0.270  30.104  13.830
76166ION    CL-48591  14.151   2.908  11.721
76167ION    CL-48592  14.538  27.414   3.333
76168ION    CL-48593  25.050  34.352   0.242
76169ION    CL-48594  29.373  30.439  12.562
76170ION    CL-48595  26.175   1.915   4.109
76171ION    CL-48596  29.861  11.088  12.056
76172ION    CL-48597   0.421   5.005   4.634
76173ION    CL-48598  11.741  26.093  14.544
76174ION    CL-48599  32.073  15.641  12.405
76175ION    CL-48600  25.087  21.212   0.753
76176ION    CL-48601  33.463  11.166   2.984
76177ION    CL-48602   4.294   0.359   0.491
76178ION    CL-48603  30.356  32.511  11.058
76179ION    CL-48604   0.441  16.984   3.625
76180ION    CL-48605  19.245  24.134   1.254
76181ION    CL-48606  31.044  26.156  12.224
76182ION    CL-48607  31.015  29.148  11.447
76183ION    CL-48608  37.828  26.074   4.857
76184ION    CL-48609  14.284   1.411   2.761
76185ION    CL-48610  39.791  16.805  10.812
76186ION    CL-48611  11.473  17.498   1.379
76187ION    CL-48612  19.753  23.633  13.326
76188ION    CL-48613  28.752  10.012  13.792
76189ION    CL-48614  41.434  32.349  11.608
76190ION    CL-48615  19.410  41.482  10.410
76191ION    CL-48616  41.278  35.580  10.771
76192ION    CL-48617  17.724  43.722   1.214
76193ION    CL-48618  38.772  32.017   5.153
76194ION    CL-48619  16.164  31.401   9.876
76195ION    CL-48620   4.724   5.013   4.077
76196ION    CL-48621  32.334  37.414  10.774
76197ION    CL-48622  32.507  24.832   2.096
76198ION    CL-48623   1.799  27.116   1.920
76199ION    CL-48624   0.410  25.345   3.583
76200ION    CL-48625   5.729  42.053   3.064
76201ION    CL-48626  13.182  21.661   1.662
76202ION    CL-48627  43.726  25.694  12.503
76203ION    CL-48628  11.834   0.995   1.595
76204ION    CL-48629  39.737   0.330  12.086
76205ION    CL-48630  33.568  13.194  12.828
76206ION    CL-48631  14.053  35.088   1.396
76207ION    CL-48632   8.205  27.219  12.281
76208ION    CL-48633  40.424  28.397   2.446
76209ION    CL-48634  29.838   2.402  12.749
76210ION    CL-48635  22.203  32.717  11.093
76211ION    CL-48636  39.556  36.569   0.493
76212ION    CL-48637  40.945  11.419   5.100
76213ION    CL-48638  34.975  13.111  14.126
76214ION    CL-48639  18.376  14.387   1.938
76215ION    CL-48640  27.424  15.810  10.748
76216ION    CL-48641  39.412  18.579  10.834
76217ION    CL-48642  19.308  44.030   1.652
76218ION    CL-48643  30.459  39.658  12.414
76219ION    CL-48644   0.255  40.565  12.036
76220ION    CL-48645  18.879  23.889   3.968
76221ION    CL-48646  19.419   6.960   3.819
76222ION    CL-48647   6.318  13.127  13.773
76223ION    CL-48648  34.967  20.233   3.008
76224ION    CL-48649  42.400  31.818   4.649
76225ION    CL-48650  30.378   7.116   0.464
76226ION    CL-48651  39.482   8.686  12.525
76227ION    CL-48652  40.476  31.690  13.027
76228ION    CL-48653  21.691  26.695  12.044
76229ION    CL-48654  24.856  28.132   3.769
76230ION    CL-48655  19.524  30.744  12.030
76231ION    CL-48656   2.414   5.256  11.654
76232ION    CL-48657   8.309  30.393   5.070
76233ION    CL-48658  21.812  42.990  12.479
76234ION    CL-48659  36.361   9.269  11.645
76235ION    CL-48660  26.090  20.194   3.549
76236ION    CL-48661  11.204  43.699  11.519
76237ION    CL-48662  22.199   4.285   0.241
76238ION    CL-48663  23.942   3.429  10.719
76239ION    CL-48664  28.496  44.357   3.070
76240ION    CL-48665  21.259  33.465  14.172
76241ION    CL-48666  18.145  21.199  12.032
76242ION    CL-48667  27.802   7.897  14.286
76243ION    CL-48668   2.449   8.021   1.940
76244ION    CL-48669  19.747  29.731  12.969
76245ION    CL-48670  24.868  44.753  14.575
76246ION    CL-48671  24.267   8.663   0.635
76247ION    CL-48672  33.392   0.752  11.510
76248ION    CL-48673   9.098  43.036   9.898
76249ION    CL-48674  27.676  21.787   2.142
76250ION    CL-48675   0.199  42.446   4.852
76251ION    CL-48676  11.734  32.844  13.781
76252ION    CL-48677   6.913  12.385  14.963
76253ION    CL-48678   2.203  42.035  11.483
76254ION    CL-48679  12.142  43.671   1.691
76255ION    CL-48680  28.104  13.737   2.221
76256ION    CL-48681   0.912  34.073   3.249
76257ION    CL-48682  38.266   1.985   3.203
76258ION    CL-48683   5.030   5.051   1.240
76259ION    CL-48684  37.881  33.481   1.499
76260ION    CL-48685  43.990   1.954   1.605
76261ION    CL-48686   2.681  32.718  10.873
76262ION    CL-48687  13.779  44.942   0.245
76263ION    CL-48688  37.058  40.301   2.314
76264ION    CL-48689  27.639  21.447  13.518
76265ION    CL-48690   9.935  23.060  10.708
76266ION    CL-48691  17.305  37.008   4.937
76267ION    CL-48692  30.772  35.208   4.133
76268ION    CL-48693  19.239  22.678   4.321
76269ION    CL-48694  14.871   9.107  14.518
76270ION    CL-48695   0.918   4.699  12.613
76271ION    CL-48696  41.533  16.820   2.287
76272ION    CL-48697  14.650  26.665  12.910
76273ION    CL-48698  31.926  23.447   3.622
76274ION    CL-48699  18.119   0.461  14.905
76275ION    CL-48700  43.890  30.700   3.781
76276ION    CL-48701   5.635  41.223   3.782
76277ION    CL-48702  25.618  31.579   5.108
76278ION    CL-48703  40.423   0.782   0.551
76279ION    CL-48704  13.871  23.603  14.839
76280ION    CL-48705  16.974  37.592  12.052
76281ION    CL-48706  11.957   8.466  14.295
76282ION    CL-48707  21.192  44.387   0.760
76283ION    CL-48708  37.374  28.401   2.242
76284ION    CL-48709  22.324  37.596   2.584
76285ION    CL-48710  42.150  26.430   2.212
76286ION    CL-48711  29.735  19.838  12.006
76287ION    CL-48712  38.180  35.064  13.048
76288ION    CL-48713  38.141  27.300   5.084
76289ION    CL-48714  29.430  37.210   1.844
76290ION    CL-48715  11.042  42.411   1.544
76291ION    CL-48716  39.590   3.686   4.047
76292ION    CL-48717  16.163  39.863  13.059
76293ION    CL-48718  37.105  39.913  14.761
76294ION    CL-48719   8.656   6.779   0.563
76295ION    CL-48720  40.391  38.023   1.447
76296ION    CL-48721  22.991  22.378  13.097
76297ION    CL-48722  16.769  22.095  10.656
76298ION    CL-48723  27.936  26.469   1.852
76299ION    CL-48724  20.406   6.837   0.847
76300ION    CL-48725   0.520  22.563  10.354
76301ION    CL-48726   4.812  37.810   4.955
76302ION    CL-48727   8.997  37.247   4.824
76303ION    CL-48728  15.451  13.160  11.363
76304ION    CL-48729  14.575  42.445   0.737
76305ION    CL-48730  13.526  36.065  11.113
76306ION    CL-48731  19.277  20.772   1.424
76307ION    CL-48732   1.748   3.960  11.861
76308ION    CL-48733  31.251  34.456   0.059
76309ION    CL-48734  41.970  31.633   0.306
76310ION    CL-48735  18.184  24.622  13.228
76311ION    CL-48736  14.398  32.518   2.140
76312ION    CL-48737   8.104   1.004   3.329
76313ION    CL-48738  10.849   0.991   1.851
76314ION    CL-48739  14.435   2.537   0.221
76315ION    CL-48740   6.796   2.438  10.724
76316ION    CL-48741  30.078  43.947  11.567
76317ION    CL-48742  19.519  20.279  11.619
76318ION    CL-48743  14.440  18.766   0.102
76319ION    CL-48744  32.508  38.652  10.401
76320ION    CL-48745  44.526  10.826  14.522
76321ION    CL-48746  29.045  37.363   0.002
76322ION    CL-48747  33.901  44.017   3.512
76323ION    CL-48748  10.736  13.772  10.746
76324ION    CL-48749  42.538  19.558   2.263
76325ION    CL-48750  27.111  22.898  11.398
76326ION    CL-48751  23.102  16.394  13.783
76327ION    CL-48752  16.791  19.444   2.268
76328ION    CL-48753  42.813   5.786   2.139
76329ION    CL-48754  18.717  43.766  10.156
76330ION    CL-48755  21.298   5.734   2.843
76331ION    CL-48756  42.248  13.819  12.464
76332ION    CL-48757  23.363  42.883  12.904
76333ION    CL-48758  19.155  36.974   0.978
76334ION    CL-48759  38.777  21.983  12.304
76335ION    CL-48760  12.423  40.248   3.748
76336ION    CL-48761  29.960  10.156  13.383
76337ION    CL-48762  11.709   0.422  14.376
76338ION    CL-48763  16.339  13.879  12.173
76339ION    CL-48764   8.419  17.575   2.680
76340ION    CL-48765  28.424  31.561  13.618
76341ION    CL-48766  24.144  28.001  12.320
76342ION    CL-48767   1.062  13.484  14.758
76343ION    CL-48768  20.069   4.495  13.695
76344ION    CL-48769  42.924  42.141   4.973
76345ION    CL-48770  30.901  24.515  14.463
76346ION    CL-48771  17.832   7.660   0.080
76347ION    CL-48772   4.846   6.403  13.860
76348ION    CL-48773  28.153  16.032  14.373
76349ION    CL-48774  36.062  28.507   0.681
76350ION    CL-48775  35.339  44.092   4.948
76351ION    CL-48776  26.737  17.217  10.711
76352ION    CL-48777  14.282  33.054   3.637
76353ION    CL-48778  23.908  40.766  13.812
76354ION    CL-48779  16.065  25.681   2.395
76355ION    CL-48780  33.311  34.127   2.767
76356ION    CL-48781  38.859   1.373   2.335
76357ION    CL-48782  28.359  20.171  14.945
76358ION    CL-48783  44.758   2.226  13.317
76359ION    CL-48784   5.977  33.144  12.091
76360ION    CL-48785  16.750  31.116   0.849
76361ION    CL-48786  20.177  19.788   4.237
76362ION    CL-48787  36.700  29.808   4.022
76363ION    CL-48788  30.606  35.142   5.117
76364ION    CL-48789  15.645  25.109   0.768
76365ION    CL-48790  16.477   7.403   4.401
76366ION    CL-48791  44.531  19.370  11.651
76367ION    CL-48792   8.706  13.785   4.106
76368ION    CL-48793  36.196  21.797  12.712
76369ION    CL-48794  16.163   2.862   0.675
76370ION    CL-48795  29.509  34.033   3.185
76371ION    CL-48796  11.481  33.894  11.856
76372ION    CL-48797   6.504  19.114  11.834
76373ION    CL-48798  35.270   0.275   2.377
76374ION    CL-48799  42.374  41.996   0.810
  45.00000  45.00000  15.00000
